<event>
 9    2  0.3726337E-005  0.1211044E+03  0.7546771E-02  0.1246746E+00
          4   -1    0    0  502    0 -0.00000000000E+00  0.00000000000E+00  0.32641518947E+03  0.32641518947E+03  0.00000000000E+00 0. -1.
         21   -1    0    0  501  502  0.00000000000E+00 -0.00000000000E+00 -0.59366023533E+02  0.59366023533E+02  0.00000000000E+00 0. -1.
         23    2    1    2    0    0  0.14393369056E+02  0.57747497119E+02  0.23753785561E+03  0.26113297507E+03  0.90687680115E+02 0.  0.
         24    2    1    2    0    0 -0.22710776499E+02 -0.27530316514E+02  0.12331556317E+02  0.88907487828E+02  0.80490846772E+02 0.  0.
        -13    1    4    4    0    0 -0.26265479535E+02 -0.34784135039E+02  0.40564075687E+02  0.59542049864E+02  0.00000000000E+00 0.  1.
         14    1    4    4    0    0  0.35547030359E+01  0.72538185240E+01 -0.28232519370E+02  0.29365437964E+02  0.00000000000E+00 0. -1.
        -13    1    3    3    0    0 -0.35265395030E+02  0.24565623617E+02  0.59897213405E+02  0.73721056178E+02  0.00000000000E+00 0.  1.
         13    1    3    3    0    0  0.49658764086E+02  0.33181873502E+02  0.17764064221E+03  0.18741191889E+03  0.00000000000E+00 0. -1.
          3    1    1    2  501    0  0.83174074433E+01 -0.30217180604E+02  0.17179754010E+02  0.35740750105E+02  0.00000000000E+00 0. -1.
<scales pt_clust_5="13000.00000" pt_clust_6="13000.00000" pt_clust_7="13000.00000" pt_clust_8="13000.00000" pt_clust_9="13000.00000"></scales>
<clustering>
<clus scale="   80.491">  5  6 -1 -1</clus>
<clus scale="   31.341">  5  9 -1 -1</clus>
<clus scale="   90.688">  7  8 -1 -1</clus>
<clus scale="  108.472">  1  7  2 -1</clus>
<clus scale="  121.104">  2  5  1 -1</clus>
</clustering>
</event>
<event>
 9    2  0.3726337E-005  0.1198339E+03  0.7546771E-02  0.1255931E+00
         -1   -1    0    0    0  501 -0.00000000000E+00  0.00000000000E+00  0.72643951139E+02  0.72643951139E+02  0.00000000000E+00 0.  1.
         21   -1    0    0  501  502  0.00000000000E+00 -0.00000000000E+00 -0.16662224349E+03  0.16662224349E+03  0.00000000000E+00 0.  1.
         23    2    1    2    0    0  0.18520555713E+02 -0.13369065481E+02 -0.11820354043E+02  0.93973043854E+02  0.90385116617E+02 0.  0.
         24    2    1    2    0    0 -0.11518344030E+02 -0.22423423803E+02 -0.52678938230E+02  0.98398111557E+02  0.79193659093E+02 0.  0.
        -11    1    4    4    0    0 -0.11737477136E+02 -0.23801851453E+02 -0.73183149572E+02  0.77846450679E+02  0.00000000000E+00 0.  1.
         12    1    4    4    0    0  0.21913310655E+00  0.13784276502E+01  0.20504211341E+02  0.20551660878E+02  0.00000000000E+00 0. -1.
        -11    1    3    3    0    0 -0.34966213129E+02  0.68466043487E+01 -0.23199439273E+00  0.35630967895E+02  0.00000000000E+00 0.  1.
         11    1    3    3    0    0  0.53486768843E+02 -0.20215669829E+02 -0.11588359650E+02  0.58342075959E+02  0.00000000000E+00 0. -1.
         -2    1    1    2    0  502 -0.70022116833E+01  0.35792489284E+02 -0.29479000076E+02  0.46895039216E+02  0.00000000000E+00 0.  1.
<scales pt_clust_5="13000.00000" pt_clust_6="13000.00000" pt_clust_7="13000.00000" pt_clust_8="13000.00000" pt_clust_9="13000.00000"></scales>
<clustering>
<clus scale="   79.194">  5  6 -1 -1</clus>
<clus scale="   36.471">  5  9 -1 -1</clus>
<clus scale="   90.385">  7  8 -1 -1</clus>
<clus scale="   93.227">  1  7  2 -1</clus>
<clus scale="  119.834">  2  5  1 -1</clus>
</clustering>
</event>
<event>
 9    2  0.3726337E-005  0.2203085E+03  0.7546771E-02  0.1167867E+00
         -1   -1    0    0    0  501 -0.00000000000E+00  0.00000000000E+00  0.19729805282E+03  0.19729805282E+03  0.00000000000E+00 0.  1.
         21   -1    0    0  501  502  0.00000000000E+00 -0.00000000000E+00 -0.17328110238E+03  0.17328110238E+03  0.00000000000E+00 0.  1.
         23    2    1    2    0    0 -0.35183947942E+02 -0.10171095844E+02  0.97576701124E+02  0.13831444876E+03  0.90930263111E+02 0.  0.
         24    2    1    2    0    0 -0.59412512819E+02 -0.34011199302E+02 -0.21604042389E+01  0.10577979720E+03  0.80610730006E+02 0.  0.
        -11    1    4    4    0    0 -0.25216650250E+02 -0.58482441116E+02 -0.28301701121E+00  0.63687953864E+02  0.00000000000E+00 0.  1.
         12    1    4    4    0    0 -0.34195862569E+02  0.24471241814E+02 -0.18773872277E+01  0.42091843338E+02  0.00000000000E+00 0. -1.
        -11    1    3    3    0    0 -0.59620291098E+02 -0.21105629609E+02  0.40040699917E+02  0.74855089083E+02  0.00000000000E+00 0.  1.
         11    1    3    3    0    0  0.24436343156E+02  0.10934533765E+02  0.57536001207E+02  0.63459359675E+02  0.00000000000E+00 0. -1.
         -2    1    1    2    0  502  0.94596460761E+02  0.44182295146E+02 -0.71399346440E+02  0.12648490924E+03  0.00000000000E+00 0.  1.
<scales pt_clust_5="13000.00000" pt_clust_6="13000.00000" pt_clust_7="13000.00000" pt_clust_8="13000.00000" pt_clust_9="13000.00000"></scales>
<clustering>
<clus scale="   80.611">  5  6 -1 -1</clus>
<clus scale="   90.930">  7  8 -1 -1</clus>
<clus scale="   98.029">  1  7  2 -1</clus>
<clus scale="   91.868">  5  9 -1 -1</clus>
<clus scale="  220.309">  2  5  1 -1</clus>
</clustering>
</event>
<event>
 9    2  0.3726337E-005  0.2513505E+03  0.7546771E-02  0.1121789E+00
          2   -1    0    0  502    0 -0.00000000000E+00  0.00000000000E+00  0.92659472202E+03  0.92659472202E+03  0.00000000000E+00 0. -1.
         21   -1    0    0  501  502  0.00000000000E+00 -0.00000000000E+00 -0.11325775599E+03  0.11325775599E+03  0.00000000000E+00 0. -1.
         23    2    1    2    0    0  0.14201647888E+03  0.10477879250E+03  0.11012987361E+02  0.19907853905E+03  0.91453284189E+02 0.  0.
         24    2    1    2    0    0 -0.68723773139E+02 -0.51673909621E+02  0.21097555565E+03  0.24253911323E+03  0.83194870241E+02 0.  0.
        -13    1    4    4    0    0  0.70753285182E+01 -0.40046101088E+02  0.96861804386E+02  0.10505217577E+03  0.00000000000E+00 0.  1.
         14    1    4    4    0    0 -0.75799101657E+02 -0.11627808533E+02  0.11411375126E+03  0.13748693745E+03  0.00000000000E+00 0. -1.
        -13    1    3    3    0    0  0.62002331695E+02 -0.15864297154E+01 -0.14159304072E+02  0.63618329015E+02  0.00000000000E+00 0.  1.
         13    1    3    3    0    0  0.80014147180E+02  0.10636522222E+03  0.25172291433E+02  0.13546021003E+03  0.00000000000E+00 0. -1.
          1    1    1    2  501    0 -0.73292705737E+02 -0.53104882882E+02  0.59134842302E+03  0.59823482573E+03  0.00000000000E+00 0. -1.
<scales pt_clust_5="13000.00000" pt_clust_6="13000.00000" pt_clust_7="13000.00000" pt_clust_8="13000.00000" pt_clust_9="13000.00000"></scales>
<clustering>
<clus scale="   83.195">  5  6 -1 -1</clus>
<clus scale="   90.509">  5  9 -1 -1</clus>
<clus scale="   91.453">  7  8 -1 -1</clus>
<clus scale="  198.774">  1  7  2 -1</clus>
<clus scale="  251.350">  2  5  1 -1</clus>
</clustering>
</event>
<event>
 9    2  0.3726337E-005  0.2518541E+03  0.7546771E-02  0.1153510E+00
         -3   -1    0    0    0  501 -0.00000000000E+00  0.00000000000E+00  0.15386082250E+03  0.15386082250E+03  0.00000000000E+00 0.  1.
         21   -1    0    0  501  502  0.00000000000E+00 -0.00000000000E+00 -0.23036564863E+03  0.23036564863E+03  0.00000000000E+00 0.  1.
         23    2    1    2    0    0 -0.32832569427E+00 -0.25544670169E+01 -0.94637715954E+02  0.13172044289E+03  0.91582447524E+02 0.  0.
         24    2    1    2    0    0  0.65269501147E+02 -0.17522527197E+02  0.10058551508E+03  0.14564688087E+03  0.80798646781E+02 0.  0.
        -11    1    4    4    0    0  0.73219376658E+02  0.10917008504E+02  0.83253420945E+02  0.11140641944E+03  0.00000000000E+00 0.  1.
         12    1    4    4    0    0 -0.79498755110E+01 -0.28439535701E+02  0.17332094139E+02  0.34240461428E+02  0.00000000000E+00 0. -1.
        -13    1    3    3    0    0  0.87394312631E+01  0.43335719150E+02 -0.38275566919E+02  0.58475475509E+02  0.00000000000E+00 0.  1.
         13    1    3    3    0    0 -0.90677569573E+01 -0.45890186167E+02 -0.56362149035E+02  0.73244967380E+02  0.00000000000E+00 0. -1.
         -4    1    1    2    0  502 -0.64941175453E+02  0.20076994214E+02 -0.82452625262E+02  0.10685914738E+03  0.00000000000E+00 0.  1.
<scales pt_clust_5="13000.00000" pt_clust_6="13000.00000" pt_clust_7="13000.00000" pt_clust_8="13000.00000" pt_clust_9="13000.00000"></scales>
<clustering>
<clus scale="   80.799">  5  6 -1 -1</clus>
<clus scale="   67.974">  5  9 -1 -1</clus>
<clus scale="   91.582">  7  8 -1 -1</clus>
<clus scale="   91.619">  1  7  2 -1</clus>
<clus scale="  251.854">  2  5  1 -1</clus>
</clustering>
</event>
<event>
 9    2  0.3726337E-005  0.5004181E+03  0.7546771E-02  0.1060999E+00
         21   -1    0    0  501  502  0.00000000000E+00  0.00000000000E+00  0.29280632402E+03  0.29280632402E+03  0.00000000000E+00 0.  1.
          2   -1    0    0  502    0 -0.00000000000E+00 -0.00000000000E+00 -0.33546329983E+03  0.33546329983E+03  0.00000000000E+00 0. -1.
         23    2    1    2    0    0 -0.46101970750E+02  0.74290227089E+02  0.65264246477E+01  0.12544032785E+03  0.89712050937E+02 0.  0.
         24    2    1    2    0    0 -0.18157476093E+03  0.86786323163E+02 -0.55884434383E+02  0.22385393322E+03  0.80537281532E+02 0.  0.
        -13    1    4    4    0    0 -0.17367898691E+03  0.61942308478E+02 -0.29456089950E+02  0.18673216464E+03  0.00000000000E+00 0.  1.
         14    1    4    4    0    0 -0.78957740116E+01  0.24844014685E+02 -0.26428344433E+02  0.37121768578E+02  0.00000000000E+00 0. -1.
        -11    1    3    3    0    0 -0.22208349893E+02 -0.18305273084E+02  0.77447910833E+01  0.29803953036E+02  0.00000000000E+00 0.  1.
         11    1    3    3    0    0 -0.23893620857E+02  0.92595500172E+02 -0.12183664356E+01  0.95636374809E+02  0.00000000000E+00 0. -1.
          1    1    1    2  501    0  0.22767673168E+03 -0.16107655025E+03  0.67010339157E+01  0.27897536279E+03  0.00000000000E+00 0. -1.
<scales pt_clust_5="13000.00000" pt_clust_6="13000.00000" pt_clust_7="13000.00000" pt_clust_8="13000.00000" pt_clust_9="13000.00000"></scales>
<clustering>
<clus scale="   80.537">  5  6 -1 -1</clus>
<clus scale="   89.712">  7  8 -1 -1</clus>
<clus scale="  125.270">  2  7  1 -1</clus>
<clus scale="  239.756">  5  9 -1 -1</clus>
<clus scale="  500.418">  1  5  2 -1</clus>
</clustering>
</event>
<event>
 9    2  0.3726337E-005  0.3181700E+03  0.7546771E-02  0.1113549E+00
          2   -1    0    0  502    0 -0.00000000000E+00  0.00000000000E+00  0.79930041663E+03  0.79930041663E+03  0.00000000000E+00 0. -1.
         21   -1    0    0  501  502  0.00000000000E+00 -0.00000000000E+00 -0.60349002544E+02  0.60349002544E+02  0.00000000000E+00 0. -1.
         23    2    1    2    0    0 -0.51769196042E+02 -0.64615166802E+02  0.18409973045E+03  0.22004601521E+03  0.87592057952E+02 0.  0.
         24    2    1    2    0    0 -0.31294423491E+02  0.16073688536E+03  0.24924262019E+03  0.30864139810E+03  0.79510638562E+02 0.  0.
        -13    1    4    4    0    0 -0.44031199766E+02  0.53495728873E+02  0.13305961934E+03  0.15001800512E+03  0.00000000000E+00 0.  1.
         14    1    4    4    0    0  0.12736776275E+02  0.10724115649E+03  0.11618300085E+03  0.15862339298E+03  0.00000000000E+00 0. -1.
        -11    1    3    3    0    0  0.81279814112E+01 -0.56313004085E+02  0.11442483185E+03  0.12778990827E+03  0.00000000000E+00 0.  1.
         11    1    3    3    0    0 -0.59897177453E+02 -0.83021627174E+01  0.69674898602E+02  0.92256106941E+02  0.00000000000E+00 0. -1.
          1    1    1    2  501    0  0.83063619533E+02 -0.96121718559E+02  0.30560906344E+03  0.33096200586E+03  0.00000000000E+00 0. -1.
<scales pt_clust_5="13000.00000" pt_clust_6="13000.00000" pt_clust_7="13000.00000" pt_clust_8="13000.00000" pt_clust_9="13000.00000"></scales>
<clustering>
<clus scale="   79.511">  5  6 -1 -1</clus>
<clus scale="   87.592">  7  8 -1 -1</clus>
<clus scale="  120.530">  1  7  2 -1</clus>
<clus scale="  141.854">  5  9 -1 -1</clus>
<clus scale="  318.170">  2  5  1 -1</clus>
</clustering>
</event>
<event>
 9    2  0.3726337E-005  0.5775201E+03  0.7546771E-02  0.1046744E+00
          2   -1    0    0  502    0 -0.00000000000E+00  0.00000000000E+00  0.52201490389E+03  0.52201490389E+03  0.00000000000E+00 0. -1.
         21   -1    0    0  501  502  0.00000000000E+00 -0.00000000000E+00 -0.37648152600E+03  0.37648152600E+03  0.00000000000E+00 0. -1.
         23    2    1    2    0    0  0.42457680807E+02  0.70946766249E+02  0.28008125220E+03  0.30551026390E+03  0.89749179465E+02 0.  0.
         24    2    1    2    0    0 -0.19869987749E+03 -0.39169221349E+02 -0.29527174715E+03  0.36659358730E+03  0.78673911602E+02 0.  0.
        -11    1    4    4    0    0 -0.45716880402E+02 -0.35465394958E+01 -0.20794139837E+02  0.50348856468E+02  0.00000000000E+00 0.  1.
         12    1    4    4    0    0 -0.15298299708E+03 -0.35622681853E+02 -0.27447760731E+03  0.31624473083E+03  0.00000000000E+00 0. -1.
        -11    1    3    3    0    0 -0.45182799125E+01  0.74535029410E+02  0.18101148025E+03  0.19580868583E+03  0.00000000000E+00 0. -1.
         11    1    3    3    0    0  0.46975960719E+02 -0.35882631618E+01  0.99069771944E+02  0.10970157807E+03  0.00000000000E+00 0.  1.
          1    1    1    2  501    0  0.15624219668E+03 -0.31777544900E+02  0.16072387284E+03  0.22639257869E+03  0.00000000000E+00 0. -1.
<scales pt_clust_5="13000.00000" pt_clust_6="13000.00000" pt_clust_7="13000.00000" pt_clust_8="13000.00000" pt_clust_9="13000.00000"></scales>
<clustering>
<clus scale="   78.674">  5  6 -1 -1</clus>
<clus scale="   89.749">  7  8 -1 -1</clus>
<clus scale="  122.029">  1  7  2 -1</clus>
<clus scale="  194.144">  5  9 -1 -1</clus>
<clus scale="  577.520">  2  5  1 -1</clus>
</clustering>
</event>
<event>
 9    2  0.3726337E-005  0.1853714E+03  0.7546771E-02  0.1193985E+00
         -3   -1    0    0    0  501 -0.00000000000E+00  0.00000000000E+00  0.22772416365E+03  0.22772416365E+03  0.00000000000E+00 0.  1.
         21   -1    0    0  501  502  0.00000000000E+00 -0.00000000000E+00 -0.10591963761E+03  0.10591963761E+03  0.00000000000E+00 0.  1.
         23    2    1    2    0    0  0.17294851703E+02 -0.78512773997E+00  0.11652578874E+03  0.14819723207E+03  0.89913468567E+02 0.  0.
         24    2    1    2    0    0  0.56363161451E+02 -0.33809837397E+02  0.10776726768E+02  0.10388345005E+03  0.79722783955E+02 0.  0.
        -11    1    4    4    0    0  0.66784029871E+02 -0.23793591657E+02 -0.16700479565E+02  0.72836444638E+02  0.00000000000E+00 0.  1.
         12    1    4    4    0    0 -0.10420868420E+02 -0.10016245739E+02  0.27477206333E+02  0.31047005415E+02  0.00000000000E+00 0. -1.
        -13    1    3    3    0    0  0.50810286028E+02 -0.12057369015E+02  0.47276470695E+02  0.70442387774E+02  0.00000000000E+00 0.  1.
         13    1    3    3    0    0 -0.33515434325E+02  0.11272241275E+02  0.69249318048E+02  0.77754844296E+02  0.00000000000E+00 0. -1.
         -4    1    1    2    0  502 -0.73658013154E+02  0.34594965137E+02 -0.54979894729E+01  0.81563119134E+02  0.00000000000E+00 0.  1.
<scales pt_clust_5="13000.00000" pt_clust_6="13000.00000" pt_clust_7="13000.00000" pt_clust_8="13000.00000" pt_clust_9="13000.00000"></scales>
<clustering>
<clus scale="   79.723">  5  6 -1 -1</clus>
<clus scale="   81.378">  5  9 -1 -1</clus>
<clus scale="   89.913">  7  8 -1 -1</clus>
<clus scale="   91.565">  1  7  2 -1</clus>
<clus scale="  185.371">  2  5  1 -1</clus>
</clustering>
</event>
<event>
 9    2  0.3726337E-005  0.2007413E+03  0.7546771E-02  0.1170383E+00
         21   -1    0    0  501  502  0.00000000000E+00  0.00000000000E+00  0.77372341700E+02  0.77372341700E+02  0.00000000000E+00 0.  1.
         -3   -1    0    0    0  501 -0.00000000000E+00 -0.00000000000E+00 -0.34108266663E+03  0.34108266663E+03  0.00000000000E+00 0.  1.
         23    2    1    2    0    0 -0.30675460899E+02 -0.10430796758E+03 -0.12177102077E+03  0.17260176276E+03  0.56054000800E+02 0.  0.
         24    2    1    2    0    0  0.11170524810E+02 -0.11127722692E+02 -0.57048632884E+02  0.10124250188E+03  0.82139459677E+02 0.  0.
        -11    1    4    4    0    0  0.20381027481E+02 -0.27021048171E+02  0.70428224412E+01  0.34570575254E+02  0.00000000000E+00 0.  1.
         12    1    4    4    0    0 -0.92105026707E+01  0.15893325479E+02 -0.64091455325E+02  0.66671926625E+02  0.00000000000E+00 0. -1.
        -11    1    3    3    0    0 -0.34738293300E+02 -0.27084820269E+02 -0.54750524523E+02  0.70270594461E+02  0.00000000000E+00 0. -1.
         11    1    3    3    0    0  0.40628324004E+01 -0.77223147313E+02 -0.67020496250E+02  0.10233116830E+03  0.00000000000E+00 0.  1.
         -4    1    1    2    0  502  0.19504936089E+02  0.11543569027E+03 -0.84890671270E+02  0.14461074369E+03  0.00000000000E+00 0.  1.
<scales pt_clust_5="13000.00000" pt_clust_6="13000.00000" pt_clust_7="13000.00000" pt_clust_8="13000.00000" pt_clust_9="13000.00000"></scales>
<clustering>
<clus scale="   56.054">  7  8 -1 -1</clus>
<clus scale="   82.139">  5  6 -1 -1</clus>
<clus scale="  117.072">  5  9 -1 -1</clus>
<clus scale="  122.324">  2  7  1 -1</clus>
<clus scale="  200.741">  1  5  2 -1</clus>
</clustering>
</event>
<event>
 9    2  0.3726337E-005  0.2123494E+03  0.7546771E-02  0.1147860E+00
         21   -1    0    0  501  502  0.00000000000E+00  0.00000000000E+00  0.54760393669E+02  0.54760393669E+02  0.00000000000E+00 0.  1.
         -3   -1    0    0    0  501 -0.00000000000E+00 -0.00000000000E+00 -0.84477939466E+03  0.84477939466E+03  0.00000000000E+00 0.  1.
         23    2    1    2    0    0  0.10740221093E+03 -0.10379554059E+03 -0.16844429689E+03  0.24269323646E+03  0.90651953697E+02 0.  0.
         24    2    1    2    0    0 -0.13111821937E+03  0.85763537636E+02 -0.47357738211E+03  0.50588029900E+03  0.84213824507E+02 0.  0.
        -13    1    4    4    0    0 -0.86925449261E+02  0.45657934950E+02 -0.16849659723E+03  0.19501739417E+03  0.00000000000E+00 0.  1.
         14    1    4    4    0    0 -0.44192770112E+02  0.40105602686E+02 -0.30508078488E+03  0.31086290483E+03  0.00000000000E+00 0. -1.
        -13    1    3    3    0    0 -0.12819326084E+02 -0.30429327897E+02 -0.23044840016E+02  0.40265913238E+02  0.00000000000E+00 0. -1.
         13    1    3    3    0    0  0.12022153702E+03 -0.73366212693E+02 -0.14539945688E+03  0.20242732322E+03  0.00000000000E+00 0.  1.
         -4    1    1    2    0  502  0.23716008440E+02  0.18032002954E+02 -0.14799732199E+03  0.15096625286E+03  0.00000000000E+00 0.  1.
<scales pt_clust_5="13000.00000" pt_clust_6="13000.00000" pt_clust_7="13000.00000" pt_clust_8="13000.00000" pt_clust_9="13000.00000"></scales>
<clustering>
<clus scale="   84.214">  5  6 -1 -1</clus>
<clus scale="   29.793">  5  9 -1 -1</clus>
<clus scale="   90.652">  7  8 -1 -1</clus>
<clus scale="  174.719">  2  7  1 -1</clus>
<clus scale="  212.349">  1  5  2 -1</clus>
</clustering>
</event>
<event>
 9    2  0.3726337E-005  0.1703534E+03  0.7546771E-02  0.1200927E+00
         21   -1    0    0  501  502  0.00000000000E+00  0.00000000000E+00  0.60450088044E+02  0.60450088044E+02  0.00000000000E+00 0.  1.
         -3   -1    0    0    0  501 -0.00000000000E+00 -0.00000000000E+00 -0.30541809905E+03  0.30541809905E+03  0.00000000000E+00 0.  1.
         23    2    1    2    0    0 -0.33771768611E+02  0.11303240985E+02 -0.91728846670E+02  0.13673389578E+03  0.94940409377E+02 0.  0.
         24    2    1    2    0    0  0.17555935838E+02  0.14177132910E+02 -0.11327697931E+02  0.84044433003E+02  0.80162010938E+02 0.  0.
        -11    1    4    4    0    0  0.28919672555E+02 -0.13424929244E+02  0.22429450199E+02  0.38982770837E+02  0.00000000000E+00 0.  1.
         12    1    4    4    0    0 -0.11363736716E+02  0.27602062154E+02 -0.33757148130E+02  0.45061662166E+02  0.00000000000E+00 0. -1.
        -13    1    3    3    0    0 -0.61430464036E+02  0.27135533430E+02 -0.75238728605E+02  0.10085090663E+03  0.00000000000E+00 0.  1.
         13    1    3    3    0    0  0.27658695425E+02 -0.15832292445E+02 -0.16490118065E+02  0.35882989152E+02  0.00000000000E+00 0. -1.
         -4    1    1    2    0  502  0.16215832773E+02 -0.25480373895E+02 -0.14191146640E+03  0.14508985831E+03  0.00000000000E+00 0.  1.
<scales pt_clust_5="13000.00000" pt_clust_6="13000.00000" pt_clust_7="13000.00000" pt_clust_8="13000.00000" pt_clust_9="13000.00000"></scales>
<clustering>
<clus scale="   80.162">  5  6 -1 -1</clus>
<clus scale="   30.203">  5  9 -1 -1</clus>
<clus scale="   94.940">  7  8 -1 -1</clus>
<clus scale="  101.400">  2  7  1 -1</clus>
<clus scale="  170.353">  1  5  2 -1</clus>
</clustering>
</event>
<event>
 9    2  0.3726337E-005  0.2050013E+03  0.7546771E-02  0.1179376E+00
         21   -1    0    0  501  502  0.00000000000E+00  0.00000000000E+00  0.33486870947E+03  0.33486870947E+03  0.00000000000E+00 0.  1.
         -1   -1    0    0    0  501 -0.00000000000E+00 -0.00000000000E+00 -0.18117119627E+03  0.18117119627E+03  0.00000000000E+00 0.  1.
         23    2    1    2    0    0 -0.14296630039E+02  0.12006668058E+02 -0.13356303067E+03  0.16313178467E+03  0.91784215970E+02 0.  0.
         24    2    1    2    0    0 -0.67282087175E+02  0.13032662013E+01  0.94083083980E+02  0.14278964863E+03  0.83717855366E+02 0.  0.
        -11    1    4    4    0    0 -0.47838099767E+02 -0.38369804363E+02  0.67631891907E+02  0.91295117498E+02  0.00000000000E+00 0.  1.
         12    1    4    4    0    0 -0.19443987408E+02  0.39673070564E+02  0.26451192073E+02  0.51494531131E+02  0.00000000000E+00 0. -1.
        -11    1    3    3    0    0 -0.35727155167E+02  0.35216446537E+02 -0.11735135697E+03  0.12762432646E+03  0.00000000000E+00 0.  1.
         11    1    3    3    0    0  0.21430525129E+02 -0.23209778479E+02 -0.16211673697E+02  0.35507458208E+02  0.00000000000E+00 0. -1.
         -2    1    1    2    0  502  0.81578717214E+02 -0.13309934259E+02  0.19317745988E+03  0.21011847244E+03  0.00000000000E+00 0.  1.
<scales pt_clust_5="13000.00000" pt_clust_6="13000.00000" pt_clust_7="13000.00000" pt_clust_8="13000.00000" pt_clust_9="13000.00000"></scales>
<clustering>
<clus scale="   83.718">  5  6 -1 -1</clus>
<clus scale="   82.657">  5  9 -1 -1</clus>
<clus scale="   91.784">  7  8 -1 -1</clus>
<clus scale="   93.664">  2  7  1 -1</clus>
<clus scale="  205.001">  1  5  2 -1</clus>
</clustering>
</event>
<event>
 9    2  0.3726337E-005  0.2472892E+03  0.7546771E-02  0.1143358E+00
         21   -1    0    0  501  502  0.00000000000E+00  0.00000000000E+00  0.27872639989E+03  0.27872639989E+03  0.00000000000E+00 0.  1.
         -1   -1    0    0    0  501 -0.00000000000E+00 -0.00000000000E+00 -0.54783954984E+03  0.54783954984E+03  0.00000000000E+00 0.  1.
         23    2    1    2    0    0  0.49446112630E+02  0.64436093292E+02 -0.48370734782E+03  0.49914787562E+03  0.92622217803E+02 0.  0.
         24    2    1    2    0    0 -0.57099053452E+02  0.49870175833E+02  0.38396923938E+02  0.11725154488E+03  0.80785299809E+02 0.  0.
        -13    1    4    4    0    0 -0.63103154267E+02  0.44311023996E+02  0.57686988953E+02  0.96297786167E+02  0.00000000000E+00 0.  1.
         14    1    4    4    0    0  0.60041008153E+01  0.55591518368E+01 -0.19290065016E+02  0.20953758709E+02  0.00000000000E+00 0. -1.
        -11    1    3    3    0    0  0.71638653444E+02  0.37086195250E+02 -0.40445830303E+03  0.41242454030E+03  0.00000000000E+00 0.  1.
         11    1    3    3    0    0 -0.22192540814E+02  0.27349898041E+02 -0.79249044787E+02  0.86723335328E+02  0.00000000000E+00 0. -1.
         -2    1    1    2    0  502  0.76529408225E+01 -0.11430626912E+03  0.17619727394E+03  0.21016652923E+03  0.00000000000E+00 0.  1.
<scales pt_clust_5="13000.00000" pt_clust_6="13000.00000" pt_clust_7="13000.00000" pt_clust_8="13000.00000" pt_clust_9="13000.00000"></scales>
<clustering>
<clus scale="   80.785">  5  6 -1 -1</clus>
<clus scale="   92.622">  7  8 -1 -1</clus>
<clus scale="  114.562">  5  9 -1 -1</clus>
<clus scale="  123.190">  2  7  1 -1</clus>
<clus scale="  247.289">  1  5  2 -1</clus>
</clustering>
</event>
<event>
 9    2  0.3726337E-005  0.2827425E+03  0.7546771E-02  0.1137404E+00
         -1   -1    0    0    0  501 -0.00000000000E+00  0.00000000000E+00  0.88413884186E+02  0.88413884186E+02  0.00000000000E+00 0.  1.
         21   -1    0    0  501  502  0.00000000000E+00 -0.00000000000E+00 -0.41448209276E+03  0.41448209276E+03  0.00000000000E+00 0.  1.
         23    2    1    2    0    0 -0.29479206888E+02 -0.29685552991E+01 -0.48928826994E+02  0.10697989332E+03  0.90403714000E+02 0.  0.
         24    2    1    2    0    0 -0.86325794577E+02 -0.75600873644E+02 -0.13889711103E+03  0.19920594434E+03  0.84988033886E+02 0.  0.
        -11    1    4    4    0    0 -0.51263182842E+02 -0.90968566409E+02 -0.10480780265E+03  0.14794549498E+03  0.00000000000E+00 0.  1.
         12    1    4    4    0    0 -0.35062611735E+02  0.15367692765E+02 -0.34089308375E+02  0.51260449355E+02  0.00000000000E+00 0. -1.
        -11    1    3    3    0    0 -0.48955674320E+02  0.16771048866E+01  0.52065121078E+01  0.49260313613E+02  0.00000000000E+00 0.  1.
         11    1    3    3    0    0  0.19476467432E+02 -0.46456601857E+01 -0.54135339102E+02  0.57719579710E+02  0.00000000000E+00 0. -1.
         -2    1    1    2    0  502  0.11580500147E+03  0.78569428943E+02 -0.13824227055E+03  0.19671013928E+03  0.00000000000E+00 0.  1.
<scales pt_clust_5="13000.00000" pt_clust_6="13000.00000" pt_clust_7="13000.00000" pt_clust_8="13000.00000" pt_clust_9="13000.00000"></scales>
<clustering>
<clus scale="   84.988">  5  6 -1 -1</clus>
<clus scale="   90.404">  7  8 -1 -1</clus>
<clus scale="   95.135">  1  7  2 -1</clus>
<clus scale="  127.303">  5  9 -1 -1</clus>
<clus scale="  282.742">  2  5  1 -1</clus>
</clustering>
</event>
<event>
 9    2  0.3726337E-005  0.5669241E+03  0.7546771E-02  0.1012392E+00
         -3   -1    0    0    0  501 -0.00000000000E+00  0.00000000000E+00  0.65320736373E+03  0.65320736373E+03  0.00000000000E+00 0.  1.
         21   -1    0    0  501  502  0.00000000000E+00 -0.00000000000E+00 -0.51659553690E+03  0.51659553690E+03  0.00000000000E+00 0.  1.
         23    2    1    2    0    0  0.34563727662E+03  0.10258171437E+02  0.40674804059E+03  0.54180887485E+03  0.92425815002E+02 0.  0.
         24    2    1    2    0    0  0.30216561037E+02 -0.55282334496E+02 -0.22442850319E+03  0.24670348388E+03  0.80779198102E+02 0.  0.
        -11    1    4    4    0    0  0.45199836273E+02 -0.54061637638E-01 -0.10133671115E+03  0.11096016018E+03  0.00000000000E+00 0.  1.
         12    1    4    4    0    0 -0.14983275237E+02 -0.55228272859E+02 -0.12309179204E+03  0.13574332369E+03  0.00000000000E+00 0. -1.
        -11    1    3    3    0    0  0.17814593853E+03  0.98591446525E+01  0.27895249765E+03  0.33113090174E+03  0.00000000000E+00 0.  1.
         11    1    3    3    0    0  0.16749133809E+03  0.39902678409E+00  0.12779554294E+03  0.21067797311E+03  0.00000000000E+00 0. -1.
         -4    1    1    2    0  502 -0.37585383765E+03  0.45024163060E+02 -0.45707710563E+02  0.38129054190E+03  0.00000000000E+00 0.  1.
<scales pt_clust_5="13000.00000" pt_clust_6="13000.00000" pt_clust_7="13000.00000" pt_clust_8="13000.00000" pt_clust_9="13000.00000"></scales>
<clustering>
<clus scale="   80.779">  5  6 -1 -1</clus>
<clus scale="   92.426">  7  8 -1 -1</clus>
<clus scale="  357.929">  1  7  2 -1</clus>
<clus scale="   75.246">  5  9 -1 -1</clus>
<clus scale="  566.924">  2  5  1 -1</clus>
</clustering>
</event>
<event>
 9    2  0.3726337E-005  0.4381241E+03  0.7546771E-02  0.1072017E+00
         -3   -1    0    0    0  501 -0.00000000000E+00  0.00000000000E+00  0.20396419013E+03  0.20396419013E+03  0.00000000000E+00 0.  1.
         21   -1    0    0  501  502  0.00000000000E+00 -0.00000000000E+00 -0.40720784546E+03  0.40720784546E+03  0.00000000000E+00 0.  1.
         23    2    1    2    0    0  0.10245476885E+03 -0.16143135178E+02 -0.60647821586E+02  0.15042664241E+03  0.90512076602E+02 0.  0.
         24    2    1    2    0    0  0.59641012510E+02  0.17952595932E+03 -0.42656424592E+02  0.20983330685E+03  0.80148772061E+02 0.  0.
        -11    1    4    4    0    0  0.56241662861E+02  0.15113891245E+03 -0.34386647325E+01  0.16130071269E+03  0.00000000000E+00 0.  1.
         12    1    4    4    0    0  0.33993496496E+01  0.28387046867E+02 -0.39217759860E+02  0.48532594164E+02  0.00000000000E+00 0. -1.
        -13    1    3    3    0    0  0.15494531671E+02 -0.25765155448E+02  0.16046374635E+02  0.34079464284E+02  0.00000000000E+00 0. -1.
         13    1    3    3    0    0  0.86960237183E+02  0.96220202708E+01 -0.76694196221E+02  0.11634717813E+03  0.00000000000E+00 0.  1.
         -4    1    1    2    0  502 -0.16209578136E+03 -0.16338282414E+03 -0.99939409148E+02  0.25091208632E+03  0.00000000000E+00 0.  1.
<scales pt_clust_5="13000.00000" pt_clust_6="13000.00000" pt_clust_7="13000.00000" pt_clust_8="13000.00000" pt_clust_9="13000.00000"></scales>
<clustering>
<clus scale="   80.149">  5  6 -1 -1</clus>
<clus scale="   90.512">  7  8 -1 -1</clus>
<clus scale="  137.659">  1  7  2 -1</clus>
<clus scale="  205.263">  5  9 -1 -1</clus>
<clus scale="  438.124">  2  5  1 -1</clus>
</clustering>
</event>
<event>
 9    2  0.3726337E-005  0.1912937E+03  0.7546771E-02  0.1171277E+00
         -1   -1    0    0    0  501 -0.00000000000E+00  0.00000000000E+00  0.15413910973E+03  0.15413910973E+03  0.00000000000E+00 0.  1.
         21   -1    0    0  501  502  0.00000000000E+00 -0.00000000000E+00 -0.19392225200E+03  0.19392225200E+03  0.00000000000E+00 0.  1.
         23    2    1    2    0    0  0.97547262630E+02  0.32751800044E+02  0.34697153029E+02  0.14277961628E+03  0.92703708368E+02 0.  0.
         24    2    1    2    0    0 -0.99886765899E+02 -0.75367436705E+02 -0.63833110151E+02  0.16129392537E+03  0.79268202282E+02 0.  0.
        -11    1    4    4    0    0 -0.47640850735E+02 -0.65676482202E+02 -0.70823829484E+02  0.10769895912E+03  0.00000000000E+00 0.  1.
         12    1    4    4    0    0 -0.52245915164E+02 -0.96909545038E+01  0.69907193337E+01  0.53594966250E+02  0.00000000000E+00 0. -1.
        -11    1    3    3    0    0  0.13336213763E+02  0.29532969207E+02 -0.23790137844E+02  0.40199770228E+02  0.00000000000E+00 0. -1.
         11    1    3    3    0    0  0.84211048867E+02  0.32188308372E+01  0.58487290873E+02  0.10257984606E+03  0.00000000000E+00 0.  1.
         -2    1    1    2    0  502  0.23395032690E+01  0.42615636661E+02 -0.10647185145E+02  0.43987820077E+02  0.00000000000E+00 0.  1.
<scales pt_clust_5="13000.00000" pt_clust_6="13000.00000" pt_clust_7="13000.00000" pt_clust_8="13000.00000" pt_clust_9="13000.00000"></scales>
<clustering>
<clus scale="   79.268">  5  6 -1 -1</clus>
<clus scale="   42.680">  5  9 -1 -1</clus>
<clus scale="   92.704">  7  8 -1 -1</clus>
<clus scale="  138.500">  1  7  2 -1</clus>
<clus scale="  191.294">  2  5  1 -1</clus>
</clustering>
</event>
<event>
 9    2  0.3726337E-005  0.1764152E+03  0.7546771E-02  0.1197592E+00
         21   -1    0    0  501  502  0.00000000000E+00  0.00000000000E+00  0.80454828617E+02  0.80454828617E+02  0.00000000000E+00 0. -1.
          2   -1    0    0  502    0 -0.00000000000E+00 -0.00000000000E+00 -0.25724361331E+03  0.25724361331E+03  0.00000000000E+00 0. -1.
         23    2    1    2    0    0 -0.20588677736E+02 -0.28799525445E+02 -0.16908913564E+02  0.99614655301E+02  0.91563430889E+02 0.  0.
         24    2    1    2    0    0 -0.19060598903E+02 -0.18736321004E+02 -0.15320676851E+03  0.17582423207E+03  0.82021280841E+02 0.  0.
        -13    1    4    4    0    0 -0.30323793837E+02  0.16390953631E+02 -0.25447281632E+02  0.42845769640E+02  0.00000000000E+00 0.  1.
         14    1    4    4    0    0  0.11263194934E+02 -0.35127274634E+02 -0.12775948687E+03  0.13297846243E+03  0.00000000000E+00 0. -1.
        -11    1    3    3    0    0 -0.39698602725E+02 -0.13948563366E+02 -0.45621016911E+02  0.62063021698E+02  0.00000000000E+00 0.  1.
         11    1    3    3    0    0  0.19109924989E+02 -0.14850962079E+02  0.28712103346E+02  0.37551633604E+02  0.00000000000E+00 0. -1.
          1    1    1    2  501    0  0.39649276639E+02  0.47535846448E+02 -0.66731026264E+01  0.62259554562E+02  0.00000000000E+00 0. -1.
<scales pt_clust_5="13000.00000" pt_clust_6="13000.00000" pt_clust_7="13000.00000" pt_clust_8="13000.00000" pt_clust_9="13000.00000"></scales>
<clustering>
<clus scale="   82.021">  5  6 -1 -1</clus>
<clus scale="   61.901">  5  9 -1 -1</clus>
<clus scale="   91.563">  7  8 -1 -1</clus>
<clus scale="   98.169">  2  7  1 -1</clus>
<clus scale="  176.415">  1  5  2 -1</clus>
</clustering>
</event>
<event>
 9    2  0.3726337E-005  0.1791387E+03  0.7546771E-02  0.1193776E+00
          2   -1    0    0  502    0 -0.00000000000E+00  0.00000000000E+00  0.85346671788E+03  0.85346671788E+03  0.00000000000E+00 0. -1.
         21   -1    0    0  501  502  0.00000000000E+00 -0.00000000000E+00 -0.23231526596E+02  0.23231526596E+02  0.00000000000E+00 0. -1.
         23    2    1    2    0    0  0.20478720388E+02  0.38387609072E+02  0.32799417950E+03  0.34346591636E+03  0.92171944740E+02 0.  0.
         24    2    1    2    0    0  0.46746243834E+02  0.79067835955E+00  0.18789144704E+03  0.20939628491E+03  0.79735636828E+02 0.  0.
        -11    1    4    4    0    0 -0.18088576483E+02 -0.97228204655E+01  0.84077329170E+02  0.86548986808E+02  0.00000000000E+00 0.  1.
         12    1    4    4    0    0  0.64834820317E+02  0.10513498825E+02  0.10381411787E+03  0.12284729811E+03  0.00000000000E+00 0. -1.
        -13    1    3    3    0    0 -0.36545341498E+02  0.85921961267E+01  0.11603605792E+03  0.12195800326E+03  0.00000000000E+00 0.  1.
         13    1    3    3    0    0  0.57024061887E+02  0.29795412945E+02  0.21195812157E+03  0.22150791310E+03  0.00000000000E+00 0. -1.
          1    1    1    2  501    0 -0.67224964222E+02 -0.39178287431E+02  0.31434956475E+03  0.32383604321E+03  0.00000000000E+00 0. -1.
<scales pt_clust_5="13000.00000" pt_clust_6="13000.00000" pt_clust_7="13000.00000" pt_clust_8="13000.00000" pt_clust_9="13000.00000"></scales>
<clustering>
<clus scale="   79.736">  5  6 -1 -1</clus>
<clus scale="   77.808">  5  9 -1 -1</clus>
<clus scale="   92.172">  7  8 -1 -1</clus>
<clus scale="  101.925">  1  7  2 -1</clus>
<clus scale="  179.139">  2  5  1 -1</clus>
</clustering>
</event>
<event>
 9    2  0.3726337E-005  0.5217629E+03  0.7546771E-02  0.1051976E+00
         21   -1    0    0  501  502  0.00000000000E+00  0.00000000000E+00  0.11321840145E+04  0.11321840145E+04  0.00000000000E+00 0. -1.
          4   -1    0    0  502    0 -0.00000000000E+00 -0.00000000000E+00 -0.18042859265E+03  0.18042859265E+03  0.00000000000E+00 0. -1.
         23    2    1    2    0    0 -0.10918496195E+03  0.52478967534E+01 -0.74890784872E+02  0.16098813171E+03  0.91431135604E+02 0.  0.
         24    2    1    2    0    0  0.32884590643E+02  0.18971194074E+03  0.16290639944E+03  0.26287392575E+03  0.74109305093E+02 0.  0.
        -11    1    4    4    0    0  0.11778201747E+02  0.43556876468E+02  0.30137129877E+01  0.45221786674E+02  0.00000000000E+00 0.  1.
         12    1    4    4    0    0  0.21106388897E+02  0.14615506427E+03  0.15989268646E+03  0.21765213908E+03  0.00000000000E+00 0. -1.
        -11    1    3    3    0    0 -0.67798130158E+02 -0.28061612576E+02 -0.78856176808E+02  0.10771414565E+03  0.00000000000E+00 0. -1.
         11    1    3    3    0    0 -0.41386831793E+02  0.33309509329E+02  0.39653919361E+01  0.53273986061E+02  0.00000000000E+00 0.  1.
          3    1    1    2  501    0  0.76300371308E+02 -0.19495983749E+03  0.86373980725E+03  0.88875054966E+03  0.00000000000E+00 0. -1.
<scales pt_clust_5="13000.00000" pt_clust_6="13000.00000" pt_clust_7="13000.00000" pt_clust_8="13000.00000" pt_clust_9="13000.00000"></scales>
<clustering>
<clus scale="   74.109">  5  6 -1 -1</clus>
<clus scale="   91.431">  7  8 -1 -1</clus>
<clus scale="  142.508">  2  7  1 -1</clus>
<clus scale="  201.410">  5  9 -1 -1</clus>
<clus scale="  521.763">  1  5  2 -1</clus>
</clustering>
</event>
<event>
 9    2  0.3726337E-005  0.3042579E+03  0.7546771E-02  0.1126696E+00
          2   -1    0    0  502    0 -0.00000000000E+00  0.00000000000E+00  0.35606449427E+03  0.35606449427E+03  0.00000000000E+00 0. -1.
         21   -1    0    0  501  502  0.00000000000E+00 -0.00000000000E+00 -0.13372803054E+03  0.13372803054E+03  0.00000000000E+00 0.  1.
         23    2    1    2    0    0  0.37691967173E+02 -0.11097644798E+02  0.14528465501E+03  0.17592971864E+03  0.91103198696E+02 0.  0.
         24    2    1    2    0    0 -0.11563619232E+03  0.91594361743E+02 -0.14902449379E+02  0.16891243792E+03  0.80920161957E+02 0.  0.
        -11    1    4    4    0    0 -0.10237507558E+03  0.59949997309E+02 -0.41302386452E+02  0.12562064084E+03  0.00000000000E+00 0.  1.
         12    1    4    4    0    0 -0.13261116734E+02  0.31644364435E+02  0.26399937073E+02  0.43291797086E+02  0.00000000000E+00 0. -1.
        -11    1    3    3    0    0 -0.26652449401E+02 -0.63684854320E+01  0.78167118880E+02  0.82831208730E+02  0.00000000000E+00 0.  1.
         11    1    3    3    0    0  0.64344416574E+02 -0.47291593658E+01  0.67117536126E+02  0.93098509913E+02  0.00000000000E+00 0. -1.
          1    1    1    2  501    0  0.77944225145E+02 -0.80496716946E+02  0.91954258101E+02  0.14495036825E+03  0.00000000000E+00 0. -1.
<scales pt_clust_5="13000.00000" pt_clust_6="13000.00000" pt_clust_7="13000.00000" pt_clust_8="13000.00000" pt_clust_9="13000.00000"></scales>
<clustering>
<clus scale="   80.920">  5  6 -1 -1</clus>
<clus scale="   91.103">  7  8 -1 -1</clus>
<clus scale="   99.215">  1  7  2 -1</clus>
<clus scale="  133.288">  5  9 -1 -1</clus>
<clus scale="  304.258">  2  5  1 -1</clus>
</clustering>
</event>
<event>
 9    2  0.3726337E-005  0.2673846E+03  0.7546771E-02  0.1126252E+00
         21   -1    0    0  501  502  0.00000000000E+00  0.00000000000E+00  0.15745519943E+03  0.15745519943E+03  0.00000000000E+00 0. -1.
          4   -1    0    0  502    0 -0.00000000000E+00 -0.00000000000E+00 -0.35145618610E+03  0.35145618610E+03  0.00000000000E+00 0. -1.
         23    2    1    2    0    0  0.33868696998E+01  0.11553790073E+03 -0.19100558243E+03  0.24151000932E+03  0.92105779912E+02 0.  0.
         24    2    1    2    0    0 -0.66012669570E+01 -0.24787159394E+02 -0.10449163498E+03  0.13121211724E+03  0.75100851755E+02 0.  0.
        -13    1    4    4    0    0  0.33813312114E+02 -0.68355966338E+01 -0.37635043593E+02  0.51053520580E+02  0.00000000000E+00 0.  1.
         14    1    4    4    0    0 -0.40414579071E+02 -0.17951562760E+02 -0.66856591383E+02  0.80158596659E+02  0.00000000000E+00 0. -1.
        -11    1    3    3    0    0 -0.19091789409E+02  0.68392981757E+02 -0.39501022360E+02  0.81255320711E+02  0.00000000000E+00 0.  1.
         11    1    3    3    0    0  0.22478659109E+02  0.47144918969E+02 -0.15150456007E+03  0.16025468861E+03  0.00000000000E+00 0. -1.
          3    1    1    2  501    0  0.32143972573E+01 -0.90750741332E+02  0.10149623075E+03  0.13618925896E+03  0.00000000000E+00 0. -1.
<scales pt_clust_5="13000.00000" pt_clust_6="13000.00000" pt_clust_7="13000.00000" pt_clust_8="13000.00000" pt_clust_9="13000.00000"></scales>
<clustering>
<clus scale="   75.101">  5  6 -1 -1</clus>
<clus scale="   90.808">  5  9 -1 -1</clus>
<clus scale="   92.106">  7  8 -1 -1</clus>
<clus scale="  147.797">  2  7  1 -1</clus>
<clus scale="  267.385">  1  5  2 -1</clus>
</clustering>
</event>
<event>
 9    2  0.3726337E-005  0.2992489E+03  0.7546771E-02  0.1126813E+00
         21   -1    0    0  501  502  0.00000000000E+00  0.00000000000E+00  0.31757323443E+02  0.31757323443E+02  0.00000000000E+00 0.  1.
          2   -1    0    0  502    0 -0.00000000000E+00 -0.00000000000E+00 -0.12815611399E+04  0.12815611399E+04  0.00000000000E+00 0. -1.
         23    2    1    2    0    0  0.57248597402E+01  0.48336821917E+02 -0.34282577099E+03  0.35824826320E+03  0.91886269152E+02 0.  0.
         24    2    1    2    0    0  0.24255104590E+02  0.10414197854E+03 -0.28506929704E+03  0.31404050175E+03  0.76961489274E+02 0.  0.
        -13    1    4    4    0    0  0.40458494885E+02  0.69692185932E+02 -0.11937384731E+03  0.14402779596E+03  0.00000000000E+00 0.  1.
         14    1    4    4    0    0 -0.16203390295E+02  0.34449792611E+02 -0.16569544973E+03  0.17001270578E+03  0.00000000000E+00 0. -1.
        -13    1    3    3    0    0  0.23848104151E+02 -0.20968571889E+02 -0.88433454319E+02  0.93962167501E+02  0.00000000000E+00 0. -1.
         13    1    3    3    0    0 -0.18123244411E+02  0.69305393806E+02 -0.25439231667E+03  0.26428609570E+03  0.00000000000E+00 0.  1.
          1    1    1    2  501    0 -0.29979964330E+02 -0.15247880046E+03 -0.62190874841E+03  0.64102969838E+03  0.00000000000E+00 0. -1.
<scales pt_clust_5="13000.00000" pt_clust_6="13000.00000" pt_clust_7="13000.00000" pt_clust_8="13000.00000" pt_clust_9="13000.00000"></scales>
<clustering>
<clus scale="   76.961">  5  6 -1 -1</clus>
<clus scale="   91.886">  7  8 -1 -1</clus>
<clus scale="  103.982">  2  7  1 -1</clus>
<clus scale="  122.506">  5  9 -1 -1</clus>
<clus scale="  299.249">  1  5  2 -1</clus>
</clustering>
</event>
<event>
 9    2  0.4625457E-005  0.9825127E+03  0.7546771E-02  0.9980452E-01
          2   -1    0    0  502    0 -0.00000000000E+00  0.00000000000E+00  0.12605604980E+04  0.12605604980E+04  0.00000000000E+00 0. -1.
         21   -1    0    0  501  502  0.00000000000E+00 -0.00000000000E+00 -0.23642847627E+03  0.23642847627E+03  0.00000000000E+00 0. -1.
         23    2    1    2    0    0  0.13376069125E+02 -0.55264503139E+02  0.76896527375E+02  0.13222297881E+03  0.91305835913E+02 0.  0.
         24    2    1    2    0    0  0.17527239054E+03 -0.40159512106E+03  0.25173630829E+03  0.51152038288E+03  0.79264626715E+02 0.  0.
        -13    1    4    4    0    0  0.36192609515E+02 -0.26149652648E+02  0.30628057309E+02  0.54145980567E+02  0.00000000000E+00 0.  1.
         14    1    4    4    0    0  0.13907978102E+03 -0.37544546842E+03  0.22110825098E+03  0.45737440232E+03  0.00000000000E+00 0. -1.
        -11    1    3    3    0    0 -0.18893572029E+02  0.10788712892E+02 -0.48414896112E+01  0.22289087275E+02  0.00000000000E+00 0.  1.
         11    1    3    3    0    0  0.32269641154E+02 -0.66053216030E+02  0.81738016986E+02  0.10993389154E+03  0.00000000000E+00 0. -1.
          1    1    1    2  501    0 -0.18864845966E+03  0.45685962420E+03  0.69549918606E+03  0.85324561257E+03  0.00000000000E+00 0. -1.
<scales pt_clust_5="13000.00000" pt_clust_6="13000.00000" pt_clust_7="13000.00000" pt_clust_8="13000.00000" pt_clust_9="13000.00000"></scales>
<clustering>
<clus scale="   79.265">  5  6 -1 -1</clus>
<clus scale="   91.306">  7  8 -1 -1</clus>
<clus scale="  107.563">  1  7  2 -1</clus>
<clus scale="  456.676">  5  9 -1 -1</clus>
<clus scale="  982.513">  2  5  1 -1</clus>
</clustering>
</event>
<event>
 9    2  0.3726337E-005  0.2436441E+03  0.7546771E-02  0.1147060E+00
          2   -1    0    0  502    0 -0.00000000000E+00  0.00000000000E+00  0.48052082645E+03  0.48052082645E+03  0.00000000000E+00 0. -1.
         21   -1    0    0  501  502  0.00000000000E+00 -0.00000000000E+00 -0.76639490875E+02  0.76639490875E+02  0.00000000000E+00 0. -1.
         23    2    1    2    0    0  0.36237072413E+01  0.74974068274E+02  0.22796279184E+03  0.25664448725E+03  0.90912684510E+02 0.  0.
         24    2    1    2    0    0 -0.17666110544E+02  0.56068363265E+02  0.39949200242E+02  0.11115646188E+03  0.85463837947E+02 0.  0.
        -11    1    4    4    0    0  0.24959254664E+02 -0.58121334376E+01  0.22299530193E+02  0.33970786498E+02  0.00000000000E+00 0.  1.
         12    1    4    4    0    0 -0.42625365208E+02  0.61880496703E+02  0.17649670049E+02  0.77185675382E+02  0.00000000000E+00 0. -1.
        -11    1    3    3    0    0 -0.37302608848E+02  0.11411155657E+02  0.10819911469E+03  0.11501629241E+03  0.00000000000E+00 0.  1.
         11    1    3    3    0    0  0.40926316089E+02  0.63562912616E+02  0.11976367715E+03  0.14162819484E+03  0.00000000000E+00 0. -1.
          1    1    1    2  501    0  0.14042403303E+02 -0.13104243154E+03  0.13596934350E+03  0.18935936820E+03  0.00000000000E+00 0. -1.
<scales pt_clust_5="13000.00000" pt_clust_6="13000.00000" pt_clust_7="13000.00000" pt_clust_8="13000.00000" pt_clust_9="13000.00000"></scales>
<clustering>
<clus scale="   85.464">  5  6 -1 -1</clus>
<clus scale="   90.913">  7  8 -1 -1</clus>
<clus scale="  117.896">  1  7  2 -1</clus>
<clus scale="   81.538">  5  9 -1 -1</clus>
<clus scale="  243.644">  2  5  1 -1</clus>
</clustering>
</event>
<event>
 9    2  0.3726337E-005  0.1867855E+03  0.7546771E-02  0.1188169E+00
         -1   -1    0    0    0  501 -0.00000000000E+00  0.00000000000E+00  0.41822185169E+02  0.41822185169E+02  0.00000000000E+00 0.  1.
         21   -1    0    0  501  502  0.00000000000E+00 -0.00000000000E+00 -0.51098847152E+03  0.51098847152E+03  0.00000000000E+00 0.  1.
         23    2    1    2    0    0  0.58394662658E+01  0.44890111687E+02 -0.20996695963E+03  0.23332182614E+03  0.91124798615E+02 0.  0.
         24    2    1    2    0    0  0.51679296419E+02 -0.12961462388E+02 -0.22640811999E+03  0.24598298081E+03  0.80051488854E+02 0.  0.
        -11    1    4    4    0    0  0.29364266642E+02 -0.46412447318E+02 -0.11260587115E+03  0.12528550450E+03  0.00000000000E+00 0.  1.
         12    1    4    4    0    0  0.22315029777E+02  0.33450984930E+02 -0.11380224884E+03  0.12069747631E+03  0.00000000000E+00 0. -1.
        -13    1    3    3    0    0 -0.40176204894E+02  0.37835544141E+02 -0.11541111434E+03  0.12792724946E+03  0.00000000000E+00 0. -1.
         13    1    3    3    0    0  0.46015671160E+02  0.70545675455E+01 -0.94555845290E+02  0.10539457668E+03  0.00000000000E+00 0.  1.
         -2    1    1    2    0  502 -0.57518762685E+02 -0.31928649299E+02 -0.32791206737E+02  0.73505849741E+02  0.00000000000E+00 0.  1.
<scales pt_clust_5="13000.00000" pt_clust_6="13000.00000" pt_clust_7="13000.00000" pt_clust_8="13000.00000" pt_clust_9="13000.00000"></scales>
<clustering>
<clus scale="   80.051">  5  6 -1 -1</clus>
<clus scale="   65.786">  5  9 -1 -1</clus>
<clus scale="   91.125">  7  8 -1 -1</clus>
<clus scale="  101.750">  1  7  2 -1</clus>
<clus scale="  186.785">  2  5  1 -1</clus>
</clustering>
</event>
<event>
 9    2  0.3726337E-005  0.1638340E+03  0.7546771E-02  0.1199220E+00
         21   -1    0    0  501  502  0.00000000000E+00  0.00000000000E+00  0.46376439522E+02  0.46376439522E+02  0.00000000000E+00 0.  1.
          2   -1    0    0  502    0 -0.00000000000E+00 -0.00000000000E+00 -0.42919697189E+03  0.42919697189E+03  0.00000000000E+00 0. -1.
         23    2    1    2    0    0  0.62194672810E+02 -0.14643004578E+02 -0.15673311381E+03  0.19636542475E+03  0.99556597792E+02 0.  0.
         24    2    1    2    0    0  0.14642814202E+02 -0.13694414506E+02 -0.12449920540E+03  0.14871977346E+03  0.78838885567E+02 0.  0.
        -11    1    4    4    0    0 -0.27995382445E+01 -0.44594485547E+02 -0.56633619070E+02  0.72137870530E+02  0.00000000000E+00 0.  1.
         12    1    4    4    0    0  0.17442352447E+02  0.30900071040E+02 -0.67865586328E+02  0.76581902933E+02  0.00000000000E+00 0. -1.
        -11    1    3    3    0    0 -0.16220490077E+02  0.16213973654E+02 -0.60489103937E+01  0.23718907162E+02  0.00000000000E+00 0. -1.
         11    1    3    3    0    0  0.78415162887E+02 -0.30856978233E+02 -0.15068420342E+03  0.17264651759E+03  0.00000000000E+00 0.  1.
          1    1    1    2  501    0 -0.76837487012E+02  0.28337419085E+02 -0.10158821316E+03  0.13048821320E+03  0.00000000000E+00 0. -1.
<scales pt_clust_5="13000.00000" pt_clust_6="13000.00000" pt_clust_7="13000.00000" pt_clust_8="13000.00000" pt_clust_9="13000.00000"></scales>
<clustering>
<clus scale="   78.839">  5  6 -1 -1</clus>
<clus scale="   81.896">  5  9 -1 -1</clus>
<clus scale="   99.557">  7  8 -1 -1</clus>
<clus scale="  118.297">  2  7  1 -1</clus>
<clus scale="  163.834">  1  5  2 -1</clus>
</clustering>
</event>
<event>
 9    2  0.3726337E-005  0.2890634E+03  0.7546771E-02  0.1131787E+00
         21   -1    0    0  501  502  0.00000000000E+00  0.00000000000E+00  0.19064089907E+03  0.19064089907E+03  0.00000000000E+00 0. -1.
          2   -1    0    0  502    0 -0.00000000000E+00 -0.00000000000E+00 -0.21515377736E+03  0.21515377736E+03  0.00000000000E+00 0. -1.
         23    2    1    2    0    0  0.36198907136E+02 -0.28445884510E+02 -0.53549660216E+02  0.11527658754E+03  0.91113096223E+02 0.  0.
         24    2    1    2    0    0  0.26433041785E+02  0.59685499806E+02 -0.10051899320E+03  0.14326533523E+03  0.78484544333E+02 0.  0.
        -11    1    4    4    0    0  0.58139616979E+01  0.39483681888E+02 -0.12979252398E+01  0.39930538389E+02  0.00000000000E+00 0.  1.
         12    1    4    4    0    0  0.20619080087E+02  0.20201817918E+02 -0.99221067959E+02  0.10333479684E+03  0.00000000000E+00 0. -1.
        -13    1    3    3    0    0  0.44384325446E+02  0.22970727791E+02 -0.27911624665E+02  0.57242304915E+02  0.00000000000E+00 0. -1.
         13    1    3    3    0    0 -0.81854183101E+01 -0.51416612301E+02 -0.25638035551E+02  0.58034282630E+02  0.00000000000E+00 0.  1.
          1    1    1    2  501    0 -0.62631948921E+02 -0.31239615296E+02  0.12955577513E+03  0.14725275365E+03  0.00000000000E+00 0. -1.
<scales pt_clust_5="13000.00000" pt_clust_6="13000.00000" pt_clust_7="13000.00000" pt_clust_8="13000.00000" pt_clust_9="13000.00000"></scales>
<clustering>
<clus scale="   78.485">  5  6 -1 -1</clus>
<clus scale="   69.991">  5  9 -1 -1</clus>
<clus scale="   91.113">  7  8 -1 -1</clus>
<clus scale="  102.084">  2  7  1 -1</clus>
<clus scale="  289.063">  1  5  2 -1</clus>
</clustering>
</event>
<event>
 9    2  0.3726337E-005  0.2462783E+03  0.7546771E-02  0.1136147E+00
         21   -1    0    0  501  502  0.00000000000E+00  0.00000000000E+00  0.38367373714E+03  0.38367373714E+03  0.00000000000E+00 0. -1.
          2   -1    0    0  502    0 -0.00000000000E+00 -0.00000000000E+00 -0.12717875506E+03  0.12717875506E+03  0.00000000000E+00 0. -1.
         23    2    1    2    0    0 -0.63938671958E+02 -0.10266253576E+03 -0.90359147395E+01  0.14869277805E+03  0.86024092370E+02 0.  0.
         24    2    1    2    0    0 -0.99241142661E+01 -0.29003962140E+02  0.14737222247E+03  0.17044834207E+03  0.79964664055E+02 0.  0.
        -13    1    4    4    0    0 -0.58415334746E+01 -0.36716520502E+02  0.18948636702E+02  0.41728613971E+02  0.00000000000E+00 0.  1.
         14    1    4    4    0    0 -0.40825807915E+01  0.77125583613E+01  0.12842358576E+03  0.12871972810E+03  0.00000000000E+00 0. -1.
        -13    1    3    3    0    0 -0.51631727513E+02 -0.33266677847E+02  0.29750191708E+02  0.68246472785E+02  0.00000000000E+00 0.  1.
         13    1    3    3    0    0 -0.12306944445E+02 -0.69395857915E+02 -0.38786106447E+02  0.80446305264E+02  0.00000000000E+00 0. -1.
          1    1    1    2  501    0  0.73862786224E+02  0.13166649790E+03  0.11815867436E+03  0.19171137208E+03  0.00000000000E+00 0. -1.
<scales pt_clust_5="13000.00000" pt_clust_6="13000.00000" pt_clust_7="13000.00000" pt_clust_8="13000.00000" pt_clust_9="13000.00000"></scales>
<clustering>
<clus scale="   79.965">  5  6 -1 -1</clus>
<clus scale="   86.024">  7  8 -1 -1</clus>
<clus scale="  148.418">  2  7  1 -1</clus>
<clus scale="   59.154">  5  9 -1 -1</clus>
<clus scale="  246.278">  1  5  2 -1</clus>
</clustering>
</event>
<event>
 9    2  0.3726337E-005  0.1899300E+03  0.7546771E-02  0.1184303E+00
          2   -1    0    0  502    0 -0.00000000000E+00  0.00000000000E+00  0.33386061492E+03  0.33386061492E+03  0.00000000000E+00 0. -1.
         21   -1    0    0  501  502  0.00000000000E+00 -0.00000000000E+00 -0.65384970511E+02  0.65384970511E+02  0.00000000000E+00 0. -1.
         23    2    1    2    0    0 -0.35841278607E+02  0.34349191380E+02  0.90913456537E+02  0.13924226667E+03  0.93052071701E+02 0.  0.
         24    2    1    2    0    0 -0.90764362754E+01  0.47954323373E+02  0.72533665915E+02  0.11921106018E+03  0.81044095112E+02 0.  0.
        -13    1    4    4    0    0 -0.12212472706E+02  0.29899106708E+02  0.88934965037E+02  0.94617805289E+02  0.00000000000E+00 0.  1.
         14    1    4    4    0    0  0.31360364304E+01  0.18055216665E+02 -0.16401299121E+02  0.24593254892E+02  0.00000000000E+00 0. -1.
        -13    1    3    3    0    0 -0.53897358638E+02  0.49880282862E+02  0.88945832230E+02  0.11534439283E+03  0.00000000000E+00 0. -1.
         13    1    3    3    0    0  0.18056080031E+02 -0.15531091482E+02  0.19676243074E+01  0.23897873841E+02  0.00000000000E+00 0.  1.
          1    1    1    2  501    0  0.44917714882E+02 -0.82303514753E+02  0.10502852195E+03  0.14079225857E+03  0.00000000000E+00 0. -1.
<scales pt_clust_5="13000.00000" pt_clust_6="13000.00000" pt_clust_7="13000.00000" pt_clust_8="13000.00000" pt_clust_9="13000.00000"></scales>
<clustering>
<clus scale="   81.044">  5  6 -1 -1</clus>
<clus scale="   93.052">  7  8 -1 -1</clus>
<clus scale="   93.763">  5  9 -1 -1</clus>
<clus scale="  105.466">  1  7  2 -1</clus>
<clus scale="  189.930">  2  5  1 -1</clus>
</clustering>
</event>
<event>
 9    2  0.3726337E-005  0.1731735E+03  0.7546771E-02  0.1206613E+00
         21   -1    0    0  501  502  0.00000000000E+00  0.00000000000E+00  0.49731006258E+03  0.49731006258E+03  0.00000000000E+00 0. -1.
          4   -1    0    0  502    0 -0.00000000000E+00 -0.00000000000E+00 -0.51477183681E+02  0.51477183681E+02  0.00000000000E+00 0. -1.
         23    2    1    2    0    0  0.35980494474E+01  0.34277611242E+01  0.18027681762E+02  0.87261156529E+02  0.85233893628E+02 0.  0.
         24    2    1    2    0    0 -0.19188796495E+01  0.61811318473E+02  0.33911743612E+03  0.35141489106E+03  0.68318877258E+02 0.  0.
        -11    1    4    4    0    0  0.23077459139E+02  0.19542496701E+02  0.52211230741E+02  0.60336480782E+02  0.00000000000E+00 0.  1.
         12    1    4    4    0    0 -0.24996338789E+02  0.42268821772E+02  0.28690620538E+03  0.29107841028E+03  0.00000000000E+00 0. -1.
        -13    1    3    3    0    0  0.19700255850E+01  0.38768364751E+02 -0.12239743366E+02  0.40702314724E+02  0.00000000000E+00 0. -1.
         13    1    3    3    0    0  0.16280238624E+01 -0.35340603626E+02  0.30267425128E+02  0.46558841805E+02  0.00000000000E+00 0.  1.
          3    1    1    2  501    0 -0.16791697978E+01 -0.65239079598E+02  0.88687761021E+02  0.11011119867E+03  0.00000000000E+00 0. -1.
<scales pt_clust_5="13000.00000" pt_clust_6="13000.00000" pt_clust_7="13000.00000" pt_clust_8="13000.00000" pt_clust_9="13000.00000"></scales>
<clustering>
<clus scale="   68.319">  5  6 -1 -1</clus>
<clus scale="   65.261">  5  9 -1 -1</clus>
<clus scale="   85.234">  7  8 -1 -1</clus>
<clus scale="   85.379">  2  7  1 -1</clus>
<clus scale="  173.173">  1  5  2 -1</clus>
</clustering>
</event>
<event>
 9    2  0.3726337E-005  0.3392316E+03  0.7546771E-02  0.1099135E+00
          2   -1    0    0  502    0 -0.00000000000E+00  0.00000000000E+00  0.16513939010E+03  0.16513939010E+03  0.00000000000E+00 0. -1.
         21   -1    0    0  501  502  0.00000000000E+00 -0.00000000000E+00 -0.46117041453E+03  0.46117041453E+03  0.00000000000E+00 0. -1.
         23    2    1    2    0    0  0.79998907577E+02  0.75785952461E+02 -0.24375704215E+03  0.28307427524E+03  0.92575449751E+02 0.  0.
         24    2    1    2    0    0  0.28591855488E+02  0.68227296898E+02 -0.11169458766E+03  0.15333403346E+03  0.74586772703E+02 0.  0.
        -11    1    4    4    0    0 -0.21865381011E+02  0.31500797278E+02 -0.22452775099E+02  0.44435596379E+02  0.00000000000E+00 0.  1.
         12    1    4    4    0    0  0.50457236499E+02  0.36726499620E+02 -0.89241812565E+02  0.10889843708E+03  0.00000000000E+00 0. -1.
        -11    1    3    3    0    0  0.50717620364E+02  0.77980917534E+02 -0.10092749649E+03  0.13725764118E+03  0.00000000000E+00 0. -1.
         11    1    3    3    0    0  0.29281287214E+02 -0.21949650723E+01 -0.14282954566E+03  0.14581663406E+03  0.00000000000E+00 0.  1.
          1    1    1    2  501    0 -0.10859076307E+03 -0.14401324936E+03  0.59420605391E+02  0.18990149594E+03  0.00000000000E+00 0. -1.
<scales pt_clust_5="13000.00000" pt_clust_6="13000.00000" pt_clust_7="13000.00000" pt_clust_8="13000.00000" pt_clust_9="13000.00000"></scales>
<clustering>
<clus scale="   74.587">  5  6 -1 -1</clus>
<clus scale="   92.575">  7  8 -1 -1</clus>
<clus scale="  143.922">  1  7  2 -1</clus>
<clus scale="   88.633">  5  9 -1 -1</clus>
<clus scale="  339.232">  2  5  1 -1</clus>
</clustering>
</event>
<event>
 9    2  0.3726337E-005  0.3229551E+03  0.7546771E-02  0.1101884E+00
         21   -1    0    0  501  502  0.00000000000E+00  0.00000000000E+00  0.54863609838E+02  0.54863609838E+02  0.00000000000E+00 0. -1.
          2   -1    0    0  502    0 -0.00000000000E+00 -0.00000000000E+00 -0.10499075010E+04  0.10499075010E+04  0.00000000000E+00 0. -1.
         23    2    1    2    0    0 -0.66536891546E+02 -0.10950574710E+03 -0.28049131600E+03  0.32062485289E+03  0.87785257041E+02 0.  0.
         24    2    1    2    0    0 -0.22448469017E+02  0.85199960400E+02 -0.67198438881E+03  0.68255287158E+03  0.80947122767E+02 0.  0.
        -11    1    4    4    0    0  0.40891414559E+01  0.90832989447E+02 -0.46580062701E+03  0.47459201128E+03  0.00000000000E+00 0.  1.
         12    1    4    4    0    0 -0.26537610473E+02 -0.56330290471E+01 -0.20618376180E+03  0.20796086030E+03  0.00000000000E+00 0. -1.
        -13    1    3    3    0    0 -0.29645758663E+02 -0.56356539400E+02 -0.22972503213E+03  0.23838733382E+03  0.00000000000E+00 0. -1.
         13    1    3    3    0    0 -0.36891132883E+02 -0.53149207701E+02 -0.50766283878E+02  0.82237519073E+02  0.00000000000E+00 0.  1.
          1    1    1    2  501    0  0.88985360563E+02  0.24305786701E+02 -0.42568186327E+02  0.10159338634E+03  0.00000000000E+00 0. -1.
<scales pt_clust_5="13000.00000" pt_clust_6="13000.00000" pt_clust_7="13000.00000" pt_clust_8="13000.00000" pt_clust_9="13000.00000"></scales>
<clustering>
<clus scale="   80.947">  5  6 -1 -1</clus>
<clus scale="   87.785">  7  8 -1 -1</clus>
<clus scale="   92.245">  5  9 -1 -1</clus>
<clus scale="  155.322">  2  7  1 -1</clus>
<clus scale="  322.955">  1  5  2 -1</clus>
</clustering>
</event>
<event>
 9    2  0.3726337E-005  0.3532409E+03  0.7546771E-02  0.1104061E+00
         21   -1    0    0  501  502  0.00000000000E+00  0.00000000000E+00  0.18346496056E+03  0.18346496056E+03  0.00000000000E+00 0. -1.
          2   -1    0    0  502    0 -0.00000000000E+00 -0.00000000000E+00 -0.33415511087E+03  0.33415511087E+03  0.00000000000E+00 0. -1.
         23    2    1    2    0    0  0.33152647981E+02  0.51718711704E+02 -0.11804893987E+03  0.16287427856E+03  0.93907162684E+02 0.  0.
         24    2    1    2    0    0  0.31696634205E+02 -0.62080887919E+02  0.13608855333E+03  0.17368630740E+03  0.82390082924E+02 0.  0.
        -13    1    4    4    0    0  0.15726314302E+02 -0.26440016290E+02 -0.13632007627E+01  0.30793663947E+02  0.00000000000E+00 0.  1.
         14    1    4    4    0    0  0.15970319903E+02 -0.35640871629E+02  0.13745175409E+03  0.14289264345E+03  0.00000000000E+00 0. -1.
        -11    1    3    3    0    0 -0.28696645646E+02  0.39982134300E+02 -0.54181756647E+02  0.73196525108E+02  0.00000000000E+00 0.  1.
         11    1    3    3    0    0  0.61849293627E+02  0.11736577404E+02 -0.63867183222E+02  0.89677753451E+02  0.00000000000E+00 0. -1.
          1    1    1    2  501    0 -0.64849282186E+02  0.10362176215E+02 -0.16872976377E+03  0.18105948547E+03  0.00000000000E+00 0. -1.
<scales pt_clust_5="13000.00000" pt_clust_6="13000.00000" pt_clust_7="13000.00000" pt_clust_8="13000.00000" pt_clust_9="13000.00000"></scales>
<clustering>
<clus scale="   82.390">  5  6 -1 -1</clus>
<clus scale="   65.672">  5  9 -1 -1</clus>
<clus scale="   93.907">  7  8 -1 -1</clus>
<clus scale="  112.216">  2  7  1 -1</clus>
<clus scale="  353.241">  1  5  2 -1</clus>
</clustering>
</event>
<event>
 9    2  0.3726337E-005  0.3661975E+03  0.7546771E-02  0.1098659E+00
         -3   -1    0    0    0  501 -0.00000000000E+00  0.00000000000E+00  0.14720675728E+03  0.14720675728E+03  0.00000000000E+00 0.  1.
         21   -1    0    0  501  502  0.00000000000E+00 -0.00000000000E+00 -0.39523048217E+03  0.39523048217E+03  0.00000000000E+00 0.  1.
         23    2    1    2    0    0 -0.61716830791E+01  0.74577922116E+02 -0.68893961070E+02  0.13477547913E+03  0.88419996398E+02 0.  0.
         24    2    1    2    0    0 -0.22988302179E+02  0.76994759707E+02 -0.22123271975E+03  0.24767038082E+03  0.77071695118E+02 0.  0.
        -13    1    4    4    0    0 -0.24474849262E+02  0.79587060679E+02 -0.22666251611E+03  0.24147259613E+03  0.00000000000E+00 0.  1.
         14    1    4    4    0    0  0.14865470828E+01 -0.25923009723E+01  0.54297963581E+01  0.61977846890E+01  0.00000000000E+00 0. -1.
        -11    1    3    3    0    0  0.20260669083E+02  0.65234444979E+02 -0.93286366341E+01  0.68942374378E+02  0.00000000000E+00 0.  1.
         11    1    3    3    0    0 -0.26432352162E+02  0.93434771372E+01 -0.59565324436E+02  0.65833104750E+02  0.00000000000E+00 0. -1.
         -4    1    1    2    0  502  0.29159985258E+02 -0.15157268182E+03  0.42102955927E+02  0.15999137950E+03  0.00000000000E+00 0.  1.
<scales pt_clust_5="13000.00000" pt_clust_6="13000.00000" pt_clust_7="13000.00000" pt_clust_8="13000.00000" pt_clust_9="13000.00000"></scales>
<clustering>
<clus scale="   77.072">  5  6 -1 -1</clus>
<clus scale="   88.420">  7  8 -1 -1</clus>
<clus scale="  115.836">  1  7  2 -1</clus>
<clus scale="   88.842">  5  9 -1 -1</clus>
<clus scale="  366.198">  2  5  1 -1</clus>
</clustering>
</event>
<event>
 9    2  0.3726337E-005  0.4144288E+03  0.7546771E-02  0.1071769E+00
         21   -1    0    0  501  502  0.00000000000E+00  0.00000000000E+00  0.24143421578E+03  0.24143421578E+03  0.00000000000E+00 0. -1.
          2   -1    0    0  502    0 -0.00000000000E+00 -0.00000000000E+00 -0.51377640641E+03  0.51377640641E+03  0.00000000000E+00 0. -1.
         23    2    1    2    0    0 -0.47551256852E+02 -0.12903804264E+03 -0.29795833028E+03  0.33999094047E+03  0.88897325866E+02 0.  0.
         24    2    1    2    0    0 -0.14890754035E+03  0.94129304821E+02 -0.54451041379E+02  0.20021867602E+03  0.78030895943E+02 0.  0.
        -13    1    4    4    0    0 -0.87484911118E+02  0.31946701378E+02 -0.62932795080E+02  0.11240435089E+03  0.00000000000E+00 0.  1.
         14    1    4    4    0    0 -0.61422629232E+02  0.62182603443E+02  0.84817537010E+01  0.87814325133E+02  0.00000000000E+00 0. -1.
        -11    1    3    3    0    0 -0.65667510766E+02 -0.11448531860E+03 -0.28325074036E+03  0.31249014714E+03  0.00000000000E+00 0. -1.
         11    1    3    3    0    0  0.18116253913E+02 -0.14552724044E+02 -0.14707589920E+02  0.27500793338E+02  0.00000000000E+00 0.  1.
          1    1    1    2  501    0  0.19645879720E+03  0.34908737822E+02  0.80067181025E+02  0.21500100570E+03  0.00000000000E+00 0. -1.
<scales pt_clust_5="13000.00000" pt_clust_6="13000.00000" pt_clust_7="13000.00000" pt_clust_8="13000.00000" pt_clust_9="13000.00000"></scales>
<clustering>
<clus scale="   78.031">  5  6 -1 -1</clus>
<clus scale="   88.897">  7  8 -1 -1</clus>
<clus scale="  163.752">  2  7  1 -1</clus>
<clus scale="  180.256">  5  9 -1 -1</clus>
<clus scale="  414.429">  1  5  2 -1</clus>
</clustering>
</event>
<event>
 9    2  0.3726337E-005  0.1944189E+03  0.7546771E-02  0.1174976E+00
          2   -1    0    0  502    0 -0.00000000000E+00  0.00000000000E+00  0.38084288899E+03  0.38084288899E+03  0.00000000000E+00 0. -1.
         21   -1    0    0  501  502  0.00000000000E+00 -0.00000000000E+00 -0.88903909140E+02  0.88903909140E+02  0.00000000000E+00 0. -1.
         23    2    1    2    0    0  0.79051077621E+02  0.12368527470E+02  0.23937808490E+03  0.26834827155E+03  0.91142053763E+02 0.  0.
         24    2    1    2    0    0 -0.50416204607E+02  0.32259182258E+02  0.91234584745E+02  0.13576893943E+03  0.80789893758E+02 0.  0.
        -11    1    4    4    0    0 -0.21849245267E+02  0.12982771411E+02  0.97485716962E+02  0.10074426477E+03  0.00000000000E+00 0.  1.
         12    1    4    4    0    0 -0.28566959340E+02  0.19276410847E+02 -0.62511322177E+01  0.35024674660E+02  0.00000000000E+00 0. -1.
        -11    1    3    3    0    0 -0.93596686216E+01  0.17928873947E+02  0.10212833705E+02  0.22657226000E+02  0.00000000000E+00 0.  1.
         11    1    3    3    0    0  0.88410746243E+02 -0.55603464773E+01  0.22916525120E+03  0.24569104555E+03  0.00000000000E+00 0. -1.
          1    1    1    2  501    0 -0.28634873014E+02 -0.44627709727E+02 -0.38673689795E+02  0.65629587158E+02  0.00000000000E+00 0. -1.
<scales pt_clust_5="13000.00000" pt_clust_6="13000.00000" pt_clust_7="13000.00000" pt_clust_8="13000.00000" pt_clust_9="13000.00000"></scales>
<clustering>
<clus scale="   80.790">  5  6 -1 -1</clus>
<clus scale="   53.024">  5  9 -1 -1</clus>
<clus scale="   91.142">  7  8 -1 -1</clus>
<clus scale="  121.280">  1  7  2 -1</clus>
<clus scale="  194.419">  2  5  1 -1</clus>
</clustering>
</event>
<event>
 9    2  0.3726337E-005  0.1713488E+03  0.7546771E-02  0.1186436E+00
         -1   -1    0    0    0  501 -0.00000000000E+00  0.00000000000E+00  0.22995371701E+03  0.22995371701E+03  0.00000000000E+00 0.  1.
         21   -1    0    0  501  502  0.00000000000E+00 -0.00000000000E+00 -0.17153667946E+03  0.17153667946E+03  0.00000000000E+00 0.  1.
         23    2    1    2    0    0 -0.57182845459E+02 -0.84949480302E+02  0.15334004301E+03  0.20560579049E+03  0.90963070945E+02 0.  0.
         24    2    1    2    0    0  0.25994727487E+02  0.44906670917E+01 -0.41208343314E+02  0.94240204982E+02  0.80543135823E+02 0.  0.
        -13    1    4    4    0    0 -0.52823367038E+01 -0.23844829647E+02 -0.45681204858E+02  0.51800110610E+02  0.00000000000E+00 0.  1.
         14    1    4    4    0    0  0.31277064191E+02  0.28335496739E+02  0.44728615435E+01  0.42440094371E+02  0.00000000000E+00 0. -1.
        -11    1    3    3    0    0  0.85419710961E+01 -0.66515243399E+02  0.91898997623E+02  0.11376585005E+03  0.00000000000E+00 0.  1.
         11    1    3    3    0    0 -0.65724816555E+02 -0.18434236903E+02  0.61441045384E+02  0.91839940436E+02  0.00000000000E+00 0. -1.
         -2    1    1    2    0  502  0.31188117972E+02  0.80458813210E+02 -0.53714662139E+02  0.10164440100E+03  0.00000000000E+00 0.  1.
<scales pt_clust_5="13000.00000" pt_clust_6="13000.00000" pt_clust_7="13000.00000" pt_clust_8="13000.00000" pt_clust_9="13000.00000"></scales>
<clustering>
<clus scale="   80.543">  5  6 -1 -1</clus>
<clus scale="   86.292">  5  9 -1 -1</clus>
<clus scale="   90.963">  7  8 -1 -1</clus>
<clus scale="  136.969">  1  7  2 -1</clus>
<clus scale="  171.349">  2  5  1 -1</clus>
</clustering>
</event>
<event>
 9    2  0.9131258E-005  0.6779349E+03  0.7546771E-02  0.1011317E+00
          4   -1    0    0  502    0 -0.00000000000E+00  0.00000000000E+00  0.79917086794E+03  0.79917086794E+03  0.00000000000E+00 0. -1.
         21   -1    0    0  501  502  0.00000000000E+00 -0.00000000000E+00 -0.27121674681E+03  0.27121674681E+03  0.00000000000E+00 0. -1.
         23    2    1    2    0    0  0.13420806172E+03 -0.14324689418E+03  0.88575097772E+01  0.21653923598E+03  0.90990706758E+02 0.  0.
         24    2    1    2    0    0  0.16033606891E+03 -0.15069253507E+03  0.76875260749E+02  0.24662819146E+03  0.80621113814E+02 0.  0.
        -11    1    4    4    0    0  0.31537282679E+02  0.50793024872E+01  0.14651179536E+02  0.35143371699E+02  0.00000000000E+00 0.  1.
         12    1    4    4    0    0  0.12879878623E+03 -0.15577183756E+03  0.62224081213E+02  0.21148481977E+03  0.00000000000E+00 0. -1.
        -11    1    3    3    0    0  0.35589613451E+02 -0.56425041968E+02  0.44754257587E+02  0.80332742508E+02  0.00000000000E+00 0.  1.
         11    1    3    3    0    0  0.98618448271E+02 -0.86821852208E+02 -0.35896747809E+02  0.13620649347E+03  0.00000000000E+00 0. -1.
          3    1    1    2  501    0 -0.29454413063E+03  0.29393942924E+03  0.44222135060E+03  0.60722018731E+03  0.00000000000E+00 0. -1.
<scales pt_clust_5="13000.00000" pt_clust_6="13000.00000" pt_clust_7="13000.00000" pt_clust_8="13000.00000" pt_clust_9="13000.00000"></scales>
<clustering>
<clus scale="   80.621">  5  6 -1 -1</clus>
<clus scale="   90.991">  7  8 -1 -1</clus>
<clus scale="  216.358">  1  7  2 -1</clus>
<clus scale="  266.211">  5  9 -1 -1</clus>
<clus scale="  677.935">  2  5  1 -1</clus>
</clustering>
</event>
<event>
 9    2  0.3726337E-005  0.2249727E+03  0.7546771E-02  0.1152266E+00
         21   -1    0    0  501  502  0.00000000000E+00  0.00000000000E+00  0.57179532785E+02  0.57179532785E+02  0.00000000000E+00 0. -1.
          2   -1    0    0  502    0 -0.00000000000E+00 -0.00000000000E+00 -0.59805113918E+03  0.59805113918E+03  0.00000000000E+00 0. -1.
         23    2    1    2    0    0 -0.95123095871E+02 -0.68666968284E+01 -0.28679304857E+03  0.31586562249E+03  0.91789345067E+02 0.  0.
         24    2    1    2    0    0 -0.28808651574E+02 -0.38327953702E+02 -0.11427864279E+03  0.14715253504E+03  0.79342863139E+02 0.  0.
        -11    1    4    4    0    0  0.81379564929E+01 -0.38599577935E+02 -0.16744610944E+02  0.42854821763E+02  0.00000000000E+00 0.  1.
         12    1    4    4    0    0 -0.36946608067E+02  0.27162423331E+00 -0.97534031844E+02  0.10429771328E+03  0.00000000000E+00 0. -1.
        -11    1    3    3    0    0 -0.63900539333E+02 -0.40111632069E+02 -0.23519738567E+03  0.24700208942E+03  0.00000000000E+00 0.  1.
         11    1    3    3    0    0 -0.31222556538E+02  0.33244935240E+02 -0.51595662906E+02  0.68863533068E+02  0.00000000000E+00 0. -1.
          1    1    1    2  501    0  0.12393174745E+03  0.45194650531E+02 -0.13979991504E+03  0.19221251444E+03  0.00000000000E+00 0. -1.
<scales pt_clust_5="13000.00000" pt_clust_6="13000.00000" pt_clust_7="13000.00000" pt_clust_8="13000.00000" pt_clust_9="13000.00000"></scales>
<clustering>
<clus scale="   79.343">  5  6 -1 -1</clus>
<clus scale="   91.789">  7  8 -1 -1</clus>
<clus scale="  131.915">  5  9 -1 -1</clus>
<clus scale="  132.366">  2  7  1 -1</clus>
<clus scale="  224.973">  1  5  2 -1</clus>
</clustering>
</event>
<event>
 9    2  0.3726337E-005  0.1772626E+03  0.7546771E-02  0.1184571E+00
          2   -1    0    0  502    0 -0.00000000000E+00  0.00000000000E+00  0.80208660493E+03  0.80208660493E+03  0.00000000000E+00 0. -1.
         21   -1    0    0  501  502  0.00000000000E+00 -0.00000000000E+00 -0.31385349491E+02  0.31385349491E+02  0.00000000000E+00 0. -1.
         23    2    1    2    0    0  0.51265707590E+02 -0.74851746599E+02  0.22073314268E+03  0.25564242146E+03  0.91645898045E+02 0.  0.
         24    2    1    2    0    0 -0.22164138901E+02  0.24306788581E+02  0.46627199625E+03  0.47581613188E+03  0.88934514374E+02 0.  0.
        -13    1    4    4    0    0 -0.10575827452E+02  0.56052450044E+02  0.22170968475E+03  0.22892992289E+03  0.00000000000E+00 0.  1.
         14    1    4    4    0    0 -0.11588311448E+02 -0.31745661463E+02  0.24456231151E+03  0.24688620900E+03  0.00000000000E+00 0. -1.
        -13    1    3    3    0    0  0.15414916909E+02 -0.87719976157E+02  0.13381892393E+03  0.16074799620E+03  0.00000000000E+00 0. -1.
         13    1    3    3    0    0  0.35850790681E+02  0.12868229558E+02  0.86914218756E+02  0.94894425265E+02  0.00000000000E+00 0.  1.
          1    1    1    2  501    0 -0.29101568689E+02  0.50544958018E+02  0.83696116501E+02  0.10201340107E+03  0.00000000000E+00 0. -1.
<scales pt_clust_5="13000.00000" pt_clust_6="13000.00000" pt_clust_7="13000.00000" pt_clust_8="13000.00000" pt_clust_9="13000.00000"></scales>
<clustering>
<clus scale="   88.935">  5  6 -1 -1</clus>
<clus scale="   58.324">  5  9 -1 -1</clus>
<clus scale="   91.646">  7  8 -1 -1</clus>
<clus scale="  128.957">  1  7  2 -1</clus>
<clus scale="  177.263">  2  5  1 -1</clus>
</clustering>
</event>
<event>
 9    2  0.3726337E-005  0.3594022E+03  0.7546771E-02  0.1093676E+00
          4   -1    0    0  502    0 -0.00000000000E+00  0.00000000000E+00  0.76718443280E+03  0.76718443280E+03  0.00000000000E+00 0. -1.
         21   -1    0    0  501  502  0.00000000000E+00 -0.00000000000E+00 -0.12021814926E+03  0.12021814926E+03  0.00000000000E+00 0. -1.
         23    2    1    2    0    0  0.37327036009E+02  0.98123906145E+02  0.46314596667E+03  0.48371975596E+03  0.91972861700E+02 0.  0.
         24    2    1    2    0    0 -0.11567593456E+03 -0.11880425236E+02 -0.43294032107E+02  0.14842332007E+03  0.81443491969E+02 0.  0.
        -13    1    4    4    0    0 -0.28224205431E+02  0.28318619300E+02  0.57609917471E+01  0.40394789233E+02  0.00000000000E+00 0.  1.
         14    1    4    4    0    0 -0.87451729133E+02 -0.40199044536E+02 -0.49055023854E+02  0.10802853084E+03  0.00000000000E+00 0. -1.
        -13    1    3    3    0    0  0.35211866471E+02  0.97171975556E+00  0.65487409687E+02  0.74360074013E+02  0.00000000000E+00 0.  1.
         13    1    3    3    0    0  0.21151695374E+01  0.97152186390E+02  0.39765855698E+03  0.40935968195E+03  0.00000000000E+00 0. -1.
          3    1    1    2  501    0  0.78348898556E+02 -0.86243480910E+02  0.22711434898E+03  0.25525950603E+03  0.00000000000E+00 0. -1.
<scales pt_clust_5="13000.00000" pt_clust_6="13000.00000" pt_clust_7="13000.00000" pt_clust_8="13000.00000" pt_clust_9="13000.00000"></scales>
<clustering>
<clus scale="   81.443">  5  6 -1 -1</clus>
<clus scale="   91.973">  7  8 -1 -1</clus>
<clus scale="  116.518">  5  9 -1 -1</clus>
<clus scale="  139.573">  1  7  2 -1</clus>
<clus scale="  359.402">  2  5  1 -1</clus>
</clustering>
</event>
<event>
 9    2  0.3726337E-005  0.2810653E+03  0.7546771E-02  0.1106854E+00
         21   -1    0    0  501  502  0.00000000000E+00  0.00000000000E+00  0.62511803804E+02  0.62511803804E+02  0.00000000000E+00 0. -1.
          2   -1    0    0  502    0 -0.00000000000E+00 -0.00000000000E+00 -0.10003112127E+04  0.10003112127E+04  0.00000000000E+00 0. -1.
         23    2    1    2    0    0 -0.13543550755E+03 -0.12611487750E+03 -0.51450767472E+03  0.55471517868E+03  0.93504240981E+02 0.  0.
         24    2    1    2    0    0  0.57812574276E+02 -0.27608150961E+02 -0.21547063827E+03  0.23820841739E+03  0.78810852148E+02 0.  0.
        -11    1    4    4    0    0  0.43385949155E+02 -0.58107804708E+01 -0.20569512072E+03  0.21030118507E+03  0.00000000000E+00 0.  1.
         12    1    4    4    0    0  0.14426625120E+02 -0.21797370490E+02 -0.97755175531E+01  0.27907232326E+02  0.00000000000E+00 0. -1.
        -13    1    3    3    0    0 -0.46154857929E+02 -0.83772454375E+01 -0.22319590963E+03  0.22807205710E+03  0.00000000000E+00 0. -1.
         13    1    3    3    0    0 -0.89280649620E+02 -0.11773763206E+03 -0.29131176509E+03  0.32664312159E+03  0.00000000000E+00 0.  1.
          1    1    1    2  501    0  0.77622933273E+02  0.15372302846E+03 -0.20782109592E+03  0.26989942045E+03  0.00000000000E+00 0. -1.
<scales pt_clust_5="13000.00000" pt_clust_6="13000.00000" pt_clust_7="13000.00000" pt_clust_8="13000.00000" pt_clust_9="13000.00000"></scales>
<clustering>
<clus scale="   78.811">  5  6 -1 -1</clus>
<clus scale="   93.504">  7  8 -1 -1</clus>
<clus scale="  172.210">  5  9 -1 -1</clus>
<clus scale="  207.342">  2  7  1 -1</clus>
<clus scale="  281.065">  1  5  2 -1</clus>
</clustering>
</event>
<event>
 9    2  0.3726337E-005  0.1845795E+03  0.7546771E-02  0.1187317E+00
         -3   -1    0    0    0  501 -0.00000000000E+00  0.00000000000E+00  0.22092451665E+03  0.22092451665E+03  0.00000000000E+00 0.  1.
         21   -1    0    0  501  502  0.00000000000E+00 -0.00000000000E+00 -0.11817799605E+03  0.11817799605E+03  0.00000000000E+00 0.  1.
         23    2    1    2    0    0 -0.53945481734E+02  0.16012100787E+01  0.11080252268E+03  0.15434724370E+03  0.92914981209E+02 0.  0.
         24    2    1    2    0    0 -0.29626676216E+02 -0.10945348022E+02  0.32002785642E+02  0.91608476397E+02  0.79814748461E+02 0.  0.
        -11    1    4    4    0    0 -0.33062214105E+02 -0.35398216057E+02 -0.32746250101E+01  0.48547573271E+02  0.00000000000E+00 0.  1.
         12    1    4    4    0    0  0.34355378887E+01  0.24452868035E+02  0.35277410652E+02  0.43060903126E+02  0.00000000000E+00 0. -1.
        -11    1    3    3    0    0 -0.73229015631E+01  0.38416702417E+02  0.15546334808E+02  0.42085109455E+02  0.00000000000E+00 0. -1.
         11    1    3    3    0    0 -0.46622580171E+02 -0.36815492338E+02  0.95256187875E+02  0.11226213425E+03  0.00000000000E+00 0.  1.
         -4    1    1    2    0  502  0.83572157950E+02  0.93441379436E+01 -0.40058787725E+02  0.93146792604E+02  0.00000000000E+00 0.  1.
<scales pt_clust_5="13000.00000" pt_clust_6="13000.00000" pt_clust_7="13000.00000" pt_clust_8="13000.00000" pt_clust_9="13000.00000"></scales>
<clustering>
<clus scale="   79.815">  5  6 -1 -1</clus>
<clus scale="   84.093">  5  9 -1 -1</clus>
<clus scale="   92.915">  7  8 -1 -1</clus>
<clus scale="  107.452">  1  7  2 -1</clus>
<clus scale="  184.580">  2  5  1 -1</clus>
</clustering>
</event>
<event>
 9    2  0.3726337E-005  0.3569356E+03  0.7546771E-02  0.1098151E+00
          2   -1    0    0  502    0 -0.00000000000E+00  0.00000000000E+00  0.70545908034E+03  0.70545908034E+03  0.00000000000E+00 0. -1.
         21   -1    0    0  501  502  0.00000000000E+00 -0.00000000000E+00 -0.10624348594E+03  0.10624348594E+03  0.00000000000E+00 0. -1.
         23    2    1    2    0    0 -0.56614564197E+02 -0.65117849216E+02  0.36092363326E+03  0.38253350264E+03  0.92846477737E+02 0.  0.
         24    2    1    2    0    0  0.99265018506E+02 -0.46037828747E+02  0.27343877081E+03  0.30503226723E+03  0.79390787198E+02 0.  0.
        -11    1    4    4    0    0  0.76663531985E+02  0.53372456099E+01  0.18448868479E+03  0.19985459250E+03  0.00000000000E+00 0.  1.
         12    1    4    4    0    0  0.22601486521E+02 -0.51375074356E+02  0.88950086021E+02  0.10517767473E+03  0.00000000000E+00 0. -1.
        -13    1    3    3    0    0  0.24501330068E+02 -0.16597353321E+02  0.56607412470E+02  0.63876337237E+02  0.00000000000E+00 0.  1.
         13    1    3    3    0    0 -0.81115894264E+02 -0.48520495895E+02  0.30431622079E+03  0.31865716540E+03  0.00000000000E+00 0. -1.
          1    1    1    2  501    0 -0.42650454309E+02  0.11115567796E+03 -0.35146809671E+02  0.12413679642E+03  0.00000000000E+00 0. -1.
<scales pt_clust_5="13000.00000" pt_clust_6="13000.00000" pt_clust_7="13000.00000" pt_clust_8="13000.00000" pt_clust_9="13000.00000"></scales>
<clustering>
<clus scale="   79.391">  5  6 -1 -1</clus>
<clus scale="   92.846">  7  8 -1 -1</clus>
<clus scale="  119.057">  5  9 -1 -1</clus>
<clus scale="  126.752">  1  7  2 -1</clus>
<clus scale="  356.936">  2  5  1 -1</clus>
</clustering>
</event>
<event>
 9    2  0.3726337E-005  0.1618571E+03  0.7546771E-02  0.1212685E+00
         -1   -1    0    0    0  501 -0.00000000000E+00  0.00000000000E+00  0.89591818284E+02  0.89591818284E+02  0.00000000000E+00 0.  1.
         21   -1    0    0  501  502  0.00000000000E+00 -0.00000000000E+00 -0.18308849204E+03  0.18308849204E+03  0.00000000000E+00 0.  1.
         23    2    1    2    0    0  0.19724138550E+02  0.34234534752E+02 -0.16010304059E+02  0.93231562491E+02  0.82914108553E+02 0.  0.
         24    2    1    2    0    0  0.11105213752E+02  0.69773742052E+01  0.79442548366E+01  0.79712786357E+02  0.78224085809E+02 0.  0.
        -13    1    4    4    0    0  0.21925918626E+02  0.26319995306E+02  0.32088806541E+02  0.46938039645E+02  0.00000000000E+00 0.  1.
         14    1    4    4    0    0 -0.10820704874E+02 -0.19342621101E+02 -0.24144551705E+02  0.32774746712E+02  0.00000000000E+00 0. -1.
        -11    1    3    3    0    0  0.31177035453E+02  0.57753003165E+02 -0.12923172395E+02  0.66891145146E+02  0.00000000000E+00 0.  1.
         11    1    3    3    0    0 -0.11452896903E+02 -0.23518468413E+02 -0.30871316642E+01  0.26340417345E+02  0.00000000000E+00 0. -1.
         -2    1    1    2    0  502 -0.30829352302E+02 -0.41211908957E+02 -0.85430624533E+02  0.99735961475E+02  0.00000000000E+00 0.  1.
<scales pt_clust_5="13000.00000" pt_clust_6="13000.00000" pt_clust_7="13000.00000" pt_clust_8="13000.00000" pt_clust_9="13000.00000"></scales>
<clustering>
<clus scale="   78.224">  5  6 -1 -1</clus>
<clus scale="   51.467">  5  9 -1 -1</clus>
<clus scale="   82.914">  7  8 -1 -1</clus>
<clus scale="   91.847">  1  7  2 -1</clus>
<clus scale="  161.857">  2  5  1 -1</clus>
</clustering>
</event>
<event>
 9    2  0.3726337E-005  0.9944925E+03  0.7546771E-02  0.9942640E-01
          2   -1    0    0  502    0 -0.00000000000E+00  0.00000000000E+00  0.10747333837E+04  0.10747333837E+04  0.00000000000E+00 0. -1.
         21   -1    0    0  501  502  0.00000000000E+00 -0.00000000000E+00 -0.29178339873E+03  0.29178339873E+03  0.00000000000E+00 0.  1.
         23    2    1    2    0    0 -0.24543866172E+01 -0.81184342398E+02  0.34786794483E+02  0.12202355451E+03  0.84158810121E+02 0.  0.
         24    2    1    2    0    0 -0.20247226069E+03  0.47920055462E+03  0.27804184138E+03  0.59531996995E+03  0.80438878404E+02 0.  0.
        -13    1    4    4    0    0 -0.87153394976E+02  0.29396429749E+03  0.18509374842E+03  0.35814859787E+03  0.00000000000E+00 0.  1.
         14    1    4    4    0    0 -0.11531886571E+03  0.18523625713E+03  0.92948092965E+02  0.23717137207E+03  0.00000000000E+00 0. -1.
        -13    1    3    3    0    0 -0.27833335119E+02 -0.12138554530E+02  0.37694683828E+02  0.48403803970E+02  0.00000000000E+00 0.  1.
         13    1    3    3    0    0  0.25378948501E+02 -0.69045787868E+02 -0.29078893450E+01  0.73619750541E+02  0.00000000000E+00 0. -1.
          1    1    1    2  501    0  0.20492664731E+03 -0.39801621223E+03  0.47012134908E+03  0.64917325794E+03  0.00000000000E+00 0. -1.
<scales pt_clust_5="13000.00000" pt_clust_6="13000.00000" pt_clust_7="13000.00000" pt_clust_8="13000.00000" pt_clust_9="13000.00000"></scales>
<clustering>
<clus scale="   80.439">  5  6 -1 -1</clus>
<clus scale="   84.159">  7  8 -1 -1</clus>
<clus scale="  116.960">  1  7  2 -1</clus>
<clus scale="  488.087">  5  9 -1 -1</clus>
<clus scale="  994.492">  2  5  1 -1</clus>
</clustering>
</event>
<event>
 9    2  0.3726337E-005  0.2291849E+03  0.7546771E-02  0.1148835E+00
          2   -1    0    0  502    0 -0.00000000000E+00  0.00000000000E+00  0.63886893415E+03  0.63886893415E+03  0.00000000000E+00 0. -1.
         21   -1    0    0  501  502  0.00000000000E+00 -0.00000000000E+00 -0.59963289903E+02  0.59963289903E+02  0.00000000000E+00 0. -1.
         23    2    1    2    0    0 -0.96149700480E+02  0.43223497377E+01  0.34773485408E+03  0.37330856249E+03  0.95793039834E+02 0.  0.
         24    2    1    2    0    0 -0.13730563316E+02  0.79823188135E+01  0.49002346888E+02  0.11242645612E+03  0.99931137548E+02 0.  0.
        -13    1    4    4    0    0 -0.15651819168E+02 -0.37546002128E+02  0.52854110562E+02  0.66695117680E+02  0.00000000000E+00 0.  1.
         14    1    4    4    0    0  0.19212558520E+01  0.45528320941E+02 -0.38517636741E+01  0.45731338436E+02  0.00000000000E+00 0. -1.
        -11    1    3    3    0    0 -0.40623977475E+02  0.45214690162E+02  0.21886316301E+03  0.22714700059E+03  0.00000000000E+00 0. -1.
         11    1    3    3    0    0 -0.55525723005E+02 -0.40892340424E+02  0.12887169107E+03  0.14616156191E+03  0.00000000000E+00 0.  1.
          1    1    1    2  501    0  0.10988026380E+03 -0.12304668551E+02  0.18216844328E+03  0.21309720544E+03  0.00000000000E+00 0. -1.
<scales pt_clust_5="13000.00000" pt_clust_6="13000.00000" pt_clust_7="13000.00000" pt_clust_8="13000.00000" pt_clust_9="13000.00000"></scales>
<clustering>
<clus scale="   95.793">  7  8 -1 -1</clus>
<clus scale="   99.931">  5  6 -1 -1</clus>
<clus scale="  110.567">  5  9 -1 -1</clus>
<clus scale="  135.793">  1  7  2 -1</clus>
<clus scale="  229.185">  2  5  1 -1</clus>
</clustering>
</event>
<event>
 9    2  0.3726337E-005  0.1953733E+03  0.7546771E-02  0.1173716E+00
         21   -1    0    0  501  502  0.00000000000E+00  0.00000000000E+00  0.75169369911E+02  0.75169369911E+02  0.00000000000E+00 0. -1.
         -1   -1    0    0    0  501 -0.00000000000E+00 -0.00000000000E+00 -0.34627317967E+03  0.34627317967E+03  0.00000000000E+00 0.  1.
         23    2    1    2    0    0  0.75755306123E+02  0.34458887580E+02 -0.72067412797E+02  0.14254075575E+03  0.90542110223E+02 0.  0.
         24    2    1    2    0    0  0.22813040361E+02 -0.21051319308E+02 -0.13796477306E+03  0.16217465448E+03  0.79389842518E+02 0.  0.
        -11    1    4    4    0    0  0.32453783207E+02  0.19239070319E+02 -0.96265882322E+02  0.10339492236E+03  0.00000000000E+00 0.  1.
         12    1    4    4    0    0 -0.96407428461E+01 -0.40290389627E+02 -0.41698890736E+02  0.58779732115E+02  0.00000000000E+00 0. -1.
        -11    1    3    3    0    0  0.31109962428E+02  0.52118586830E+02 -0.72466227017E+02  0.94527937212E+02  0.00000000000E+00 0.  1.
         11    1    3    3    0    0  0.44645343695E+02 -0.17659699250E+02  0.39881421980E+00  0.48012818539E+02  0.00000000000E+00 0. -1.
         -2    1    1    2    0  502 -0.98568346484E+02 -0.13407568273E+02 -0.61071623908E+02  0.11672713936E+03  0.00000000000E+00 0.  1.
<scales pt_clust_5="13000.00000" pt_clust_6="13000.00000" pt_clust_7="13000.00000" pt_clust_8="13000.00000" pt_clust_9="13000.00000"></scales>
<clustering>
<clus scale="   79.390">  5  6 -1 -1</clus>
<clus scale="   90.542">  7  8 -1 -1</clus>
<clus scale="   99.476">  5  9 -1 -1</clus>
<clus scale="  122.980">  2  7  1 -1</clus>
<clus scale="  195.373">  1  5  2 -1</clus>
</clustering>
</event>
<event>
 9    2  0.4608952E-005  0.3026969E+03  0.7546771E-02  0.1095646E+00
          2   -1    0    0  502    0 -0.00000000000E+00  0.00000000000E+00  0.12347335779E+04  0.12347335779E+04  0.00000000000E+00 0. -1.
         21   -1    0    0  501  502  0.00000000000E+00 -0.00000000000E+00 -0.58629407745E+02  0.58629407745E+02  0.00000000000E+00 0. -1.
         23    2    1    2    0    0  0.19100676264E+03 -0.50475559234E+02  0.35939987220E+03  0.42236855741E+03  0.10097308895E+03 0.  0.
         24    2    1    2    0    0 -0.11029403350E+02  0.55251576099E+02  0.14037498394E+03  0.17111158005E+03  0.79997826914E+02 0.  0.
        -13    1    4    4    0    0  0.33533658784E+02  0.13583650311E+02  0.62076511777E+02  0.71850644685E+02  0.00000000000E+00 0.  1.
         14    1    4    4    0    0 -0.44563062134E+02  0.41667925788E+02  0.78298472160E+02  0.99260935361E+02  0.00000000000E+00 0. -1.
        -11    1    3    3    0    0  0.11097010965E+02  0.23274748646E+02  0.27426101492E+02  0.37643706246E+02  0.00000000000E+00 0.  1.
         11    1    3    3    0    0  0.17990975168E+03 -0.73750307879E+02  0.33197377071E+03  0.38472485116E+03  0.00000000000E+00 0. -1.
          1    1    1    2  501    0 -0.17997735929E+03 -0.47760168649E+01  0.67632931404E+03  0.69988284821E+03  0.00000000000E+00 0. -1.
<scales pt_clust_5="13000.00000" pt_clust_6="13000.00000" pt_clust_7="13000.00000" pt_clust_8="13000.00000" pt_clust_9="13000.00000"></scales>
<clustering>
<clus scale="   79.998">  5  6 -1 -1</clus>
<clus scale="  100.973">  7  8 -1 -1</clus>
<clus scale="  180.041">  5  9 -1 -1</clus>
<clus scale="  221.872">  1  7  2 -1</clus>
<clus scale="  302.697">  2  5  1 -1</clus>
</clustering>
</event>
<event>
 9    2  0.3726337E-005  0.1268456E+03  0.7546771E-02  0.1246221E+00
         21   -1    0    0  501  502  0.00000000000E+00  0.00000000000E+00  0.39675384350E+02  0.39675384350E+02  0.00000000000E+00 0. -1.
          2   -1    0    0  502    0 -0.00000000000E+00 -0.00000000000E+00 -0.34825839616E+03  0.34825839616E+03  0.00000000000E+00 0. -1.
         23    2    1    2    0    0  0.21685728862E+02  0.22597915773E+02 -0.72108161520E+02  0.11958666716E+03  0.90113524910E+02 0.  0.
         24    2    1    2    0    0 -0.31296583714E+02 -0.49786047168E+02 -0.16504473142E+03  0.19131578919E+03  0.76836457354E+02 0.  0.
        -11    1    4    4    0    0  0.23265536954E+02 -0.93596214748E+01 -0.71138027409E+02  0.75428818548E+02  0.00000000000E+00 0.  1.
         12    1    4    4    0    0 -0.54562120669E+02 -0.40426425693E+02 -0.93906704012E+02  0.11588697064E+03  0.00000000000E+00 0. -1.
        -11    1    3    3    0    0  0.45727122356E+02  0.16737089700E+02 -0.79964651256E+02  0.93623957089E+02  0.00000000000E+00 0. -1.
         11    1    3    3    0    0 -0.24041393494E+02  0.58608260729E+01  0.78564897363E+01  0.25962710073E+02  0.00000000000E+00 0.  1.
          1    1    1    2  501    0  0.96108548523E+01  0.27188131395E+02 -0.71430118873E+02  0.77031324161E+02  0.00000000000E+00 0. -1.
<scales pt_clust_5="13000.00000" pt_clust_6="13000.00000" pt_clust_7="13000.00000" pt_clust_8="13000.00000" pt_clust_9="13000.00000"></scales>
<clustering>
<clus scale="   76.836">  5  6 -1 -1</clus>
<clus scale="   28.837">  5  9 -1 -1</clus>
<clus scale="   90.114">  7  8 -1 -1</clus>
<clus scale="   95.401">  2  7  1 -1</clus>
<clus scale="  126.846">  1  5  2 -1</clus>
</clustering>
</event>
<event>
 9    2  0.3726337E-005  0.1819545E+03  0.7546771E-02  0.1181279E+00
         21   -1    0    0  501  502  0.00000000000E+00  0.00000000000E+00  0.33490491350E+02  0.33490491350E+02  0.00000000000E+00 0. -1.
         -1   -1    0    0    0  501 -0.00000000000E+00 -0.00000000000E+00 -0.79522559741E+03  0.79522559741E+03  0.00000000000E+00 0.  1.
         23    2    1    2    0    0 -0.79497892243E+02  0.39984571899E+02 -0.19466071781E+03  0.23316526000E+03  0.92490878221E+02 0.  0.
         24    2    1    2    0    0  0.22775497395E+02 -0.77932321764E+02 -0.34398517151E+03  0.36225646443E+03  0.79446697535E+02 0.  0.
        -13    1    4    4    0    0  0.46827593273E+02 -0.75556488969E+02 -0.25508936078E+03  0.27013364933E+03  0.00000000000E+00 0.  1.
         14    1    4    4    0    0 -0.24052095878E+02 -0.23758327946E+01 -0.88895810728E+02  0.92122815103E+02  0.00000000000E+00 0. -1.
        -11    1    3    3    0    0 -0.45007705268E+02 -0.26698689032E+02 -0.66330253712E+02  0.84487964154E+02  0.00000000000E+00 0. -1.
         11    1    3    3    0    0 -0.34490186975E+02  0.66683260931E+02 -0.12833046409E+03  0.14867729585E+03  0.00000000000E+00 0.  1.
         -2    1    1    2    0  502  0.56722394848E+02  0.37947749865E+02 -0.22308921675E+03  0.23329436432E+03  0.00000000000E+00 0.  1.
<scales pt_clust_5="13000.00000" pt_clust_6="13000.00000" pt_clust_7="13000.00000" pt_clust_8="13000.00000" pt_clust_9="13000.00000"></scales>
<clustering>
<clus scale="   79.447">  5  6 -1 -1</clus>
<clus scale="   68.246">  5  9 -1 -1</clus>
<clus scale="   92.491">  7  8 -1 -1</clus>
<clus scale="  128.348">  2  7  1 -1</clus>
<clus scale="  181.954">  1  5  2 -1</clus>
</clustering>
</event>
<event>
 9    2  0.3726337E-005  0.4281090E+03  0.7546771E-02  0.1067674E+00
         21   -1    0    0  501  502  0.00000000000E+00  0.00000000000E+00  0.80995889549E+02  0.80995889549E+02  0.00000000000E+00 0. -1.
          2   -1    0    0  502    0 -0.00000000000E+00 -0.00000000000E+00 -0.11481284127E+04  0.11481284127E+04  0.00000000000E+00 0. -1.
         23    2    1    2    0    0  0.34739761466E+02  0.13295705702E+03 -0.43484308769E+03  0.46553588294E+03  0.93545269009E+02 0.  0.
         24    2    1    2    0    0  0.13784506051E+03 -0.16530699300E+03 -0.23154527030E+03  0.32606364853E+03  0.79853791734E+02 0.  0.
        -13    1    4    4    0    0  0.14020974640E+02 -0.30901593054E+02 -0.85954340339E+02  0.92410198605E+02  0.00000000000E+00 0.  1.
         14    1    4    4    0    0  0.12382408587E+03 -0.13440539995E+03 -0.14559092996E+03  0.23365344992E+03  0.00000000000E+00 0. -1.
        -13    1    3    3    0    0 -0.27895603953E+02  0.77205662806E+02 -0.20128194591E+03  0.21737824371E+03  0.00000000000E+00 0.  1.
         13    1    3    3    0    0  0.62635365419E+02  0.55751394215E+02 -0.23356114179E+03  0.24815763924E+03  0.00000000000E+00 0. -1.
          1    1    1    2  501    0 -0.17258482197E+03  0.32349935979E+02 -0.40074416513E+03  0.43752477075E+03  0.00000000000E+00 0. -1.
<scales pt_clust_5="13000.00000" pt_clust_6="13000.00000" pt_clust_7="13000.00000" pt_clust_8="13000.00000" pt_clust_9="13000.00000"></scales>
<clustering>
<clus scale="   79.854">  5  6 -1 -1</clus>
<clus scale="   93.545">  7  8 -1 -1</clus>
<clus scale="  166.238">  2  7  1 -1</clus>
<clus scale="  188.699">  5  9 -1 -1</clus>
<clus scale="  428.109">  1  5  2 -1</clus>
</clustering>
</event>
<event>
 9    2  0.3726337E-005  0.2581011E+03  0.7546771E-02  0.1127695E+00
         21   -1    0    0  501  502  0.00000000000E+00  0.00000000000E+00  0.54427984883E+02  0.54427984883E+02  0.00000000000E+00 0. -1.
          2   -1    0    0  502    0 -0.00000000000E+00 -0.00000000000E+00 -0.79794067909E+03  0.79794067909E+03  0.00000000000E+00 0. -1.
         23    2    1    2    0    0  0.51143606528E+02 -0.11882062867E+03 -0.29308946641E+03  0.33323742357E+03  0.91715510457E+02 0.  0.
         24    2    1    2    0    0  0.48901366763E+01  0.62360915529E+01 -0.34547985441E+03  0.35533816976E+03  0.82741058779E+02 0.  0.
        -11    1    4    4    0    0 -0.10633912222E+02  0.42124721481E+02 -0.16094054133E+03  0.16670161994E+03  0.00000000000E+00 0.  1.
         12    1    4    4    0    0  0.15524048899E+02 -0.35888629928E+02 -0.18453931309E+03  0.18863654982E+03  0.00000000000E+00 0. -1.
        -13    1    3    3    0    0  0.34329210743E+02 -0.37187715178E+01 -0.11863360625E+03  0.12355669348E+03  0.00000000000E+00 0.  1.
         13    1    3    3    0    0  0.16814395785E+02 -0.11510185715E+03 -0.17445586016E+03  0.20968073009E+03  0.00000000000E+00 0. -1.
          1    1    1    2  501    0 -0.56033743204E+02  0.11258453712E+03 -0.10494337339E+03  0.16379307065E+03  0.00000000000E+00 0. -1.
<scales pt_clust_5="13000.00000" pt_clust_6="13000.00000" pt_clust_7="13000.00000" pt_clust_8="13000.00000" pt_clust_9="13000.00000"></scales>
<clustering>
<clus scale="   82.741">  5  6 -1 -1</clus>
<clus scale="   91.716">  7  8 -1 -1</clus>
<clus scale="  125.758">  5  9 -1 -1</clus>
<clus scale="  158.574">  2  7  1 -1</clus>
<clus scale="  258.101">  1  5  2 -1</clus>
</clustering>
</event>
<event>
 9    2  0.3726337E-005  0.3730198E+03  0.7546771E-02  0.1072762E+00
         21   -1    0    0  501  502  0.00000000000E+00  0.00000000000E+00  0.44613820450E+03  0.44613820450E+03  0.00000000000E+00 0.  1.
          2   -1    0    0  502    0 -0.00000000000E+00 -0.00000000000E+00 -0.24528649103E+03  0.24528649103E+03  0.00000000000E+00 0. -1.
         23    2    1    2    0    0  0.55501428232E+02 -0.19081653210E+03  0.22998766724E+03  0.31726871824E+03  0.90960183756E+02 0.  0.
         24    2    1    2    0    0 -0.45197697689E+02  0.13954828903E+03  0.12464820203E+03  0.21172394170E+03  0.88166299517E+02 0.  0.
        -13    1    4    4    0    0 -0.35000898467E+02  0.14999857151E+03  0.10186906174E+03  0.18466710613E+03  0.00000000000E+00 0.  1.
         14    1    4    4    0    0 -0.10196799223E+02 -0.10450282479E+02  0.22779140291E+02  0.27056835563E+02  0.00000000000E+00 0. -1.
        -13    1    3    3    0    0  0.34591147721E+02 -0.19349489042E+03  0.19832775202E+03  0.27923237158E+03  0.00000000000E+00 0.  1.
         13    1    3    3    0    0  0.20910280511E+02  0.26783583258E+01  0.31659915229E+02  0.38036346652E+02  0.00000000000E+00 0. -1.
          1    1    1    2  501    0 -0.10303730543E+02  0.51268243066E+02 -0.15378415581E+03  0.16243203560E+03  0.00000000000E+00 0. -1.
<scales pt_clust_5="13000.00000" pt_clust_6="13000.00000" pt_clust_7="13000.00000" pt_clust_8="13000.00000" pt_clust_9="13000.00000"></scales>
<clustering>
<clus scale="   88.166">  5  6 -1 -1</clus>
<clus scale="   52.293">  5  9 -1 -1</clus>
<clus scale="   90.960">  7  8 -1 -1</clus>
<clus scale="  218.552">  2  7  1 -1</clus>
<clus scale="  373.020">  1  5  2 -1</clus>
</clustering>
</event>
<event>
 9    2  0.3726337E-005  0.1788242E+03  0.7546771E-02  0.1197076E+00
          2   -1    0    0  502    0 -0.00000000000E+00  0.00000000000E+00  0.17856512071E+03  0.17856512071E+03  0.00000000000E+00 0. -1.
         21   -1    0    0  501  502  0.00000000000E+00 -0.00000000000E+00 -0.10600151200E+03  0.10600151200E+03  0.00000000000E+00 0.  1.
         23    2    1    2    0    0 -0.19043578885E+02  0.12676768859E+02  0.13687826592E+02  0.96299617243E+02  0.92535946090E+02 0.  0.
         24    2    1    2    0    0  0.51524024896E+02  0.29261511373E+02 -0.55320651057E+01  0.10482739954E+03  0.86297269722E+02 0.  0.
        -11    1    4    4    0    0  0.42230950173E+02  0.20739856101E+02 -0.43956172887E+02  0.64387420499E+02  0.00000000000E+00 0.  1.
         12    1    4    4    0    0  0.92930747231E+01  0.85216552719E+01  0.38424107781E+02  0.40439979045E+02  0.00000000000E+00 0. -1.
        -13    1    3    3    0    0 -0.53231479752E+02  0.32187575184E+01 -0.91550290603E+01  0.54108829166E+02  0.00000000000E+00 0.  1.
         13    1    3    3    0    0  0.34187900867E+02  0.94580113404E+01  0.22842855653E+02  0.42190788077E+02  0.00000000000E+00 0. -1.
          1    1    1    2  501    0 -0.32480446011E+02 -0.41938280232E+02  0.64407847218E+02  0.83439615921E+02  0.00000000000E+00 0. -1.
<scales pt_clust_5="13000.00000" pt_clust_6="13000.00000" pt_clust_7="13000.00000" pt_clust_8="13000.00000" pt_clust_9="13000.00000"></scales>
<clustering>
<clus scale="   86.297">  5  6 -1 -1</clus>
<clus scale="   53.045">  5  9 -1 -1</clus>
<clus scale="   92.536">  7  8 -1 -1</clus>
<clus scale="   95.322">  1  7  2 -1</clus>
<clus scale="  178.824">  2  5  1 -1</clus>
</clustering>
</event>
<event>
 9    2  0.3726337E-005  0.1713931E+03  0.7546771E-02  0.1194244E+00
          2   -1    0    0  502    0 -0.00000000000E+00  0.00000000000E+00  0.43626079340E+03  0.43626079340E+03  0.00000000000E+00 0. -1.
         21   -1    0    0  501  502  0.00000000000E+00 -0.00000000000E+00 -0.47182575563E+02  0.47182575563E+02  0.00000000000E+00 0.  1.
         23    2    1    2    0    0 -0.12181288280E+02  0.68003751793E+02  0.14457576046E+03  0.18485157125E+03  0.92168643482E+02 0.  0.
         24    2    1    2    0    0  0.27567206418E+02 -0.46610673691E+02  0.25264372658E+03  0.27101154152E+03  0.81767336304E+02 0.  0.
        -11    1    4    4    0    0 -0.89324706706E+01  0.19998658273E+02  0.49347469371E+02  0.53989888853E+02  0.00000000000E+00 0.  1.
         12    1    4    4    0    0  0.36499677088E+02 -0.66609331963E+02  0.20329625721E+03  0.21702165267E+03  0.00000000000E+00 0. -1.
        -13    1    3    3    0    0 -0.21953820933E+02  0.89134769162E+02  0.11844406152E+03  0.14985317160E+03  0.00000000000E+00 0.  1.
         13    1    3    3    0    0  0.97725326530E+01 -0.21131017369E+02  0.26131698932E+02  0.34998399657E+02  0.00000000000E+00 0. -1.
          1    1    1    2  501    0 -0.15385918137E+02 -0.21393078103E+02 -0.81412691923E+01  0.27580256194E+02  0.00000000000E+00 0. -1.
<scales pt_clust_5="13000.00000" pt_clust_6="13000.00000" pt_clust_7="13000.00000" pt_clust_8="13000.00000" pt_clust_9="13000.00000"></scales>
<clustering>
<clus scale="   81.767">  5  6 -1 -1</clus>
<clus scale="   26.351">  5  9 -1 -1</clus>
<clus scale="   92.169">  7  8 -1 -1</clus>
<clus scale="  115.187">  1  7  2 -1</clus>
<clus scale="  171.393">  2  5  1 -1</clus>
</clustering>
</event>
<event>
 9    2  0.3726337E-005  0.1840491E+03  0.7546771E-02  0.1186975E+00
         -1   -1    0    0    0  501 -0.00000000000E+00  0.00000000000E+00  0.87247822773E+02  0.87247822773E+02  0.00000000000E+00 0.  1.
         21   -1    0    0  501  502  0.00000000000E+00 -0.00000000000E+00 -0.26939999367E+03  0.26939999367E+03  0.00000000000E+00 0.  1.
         23    2    1    2    0    0 -0.52280943863E+02 -0.24430629829E+02 -0.19316451675E+02  0.11090496714E+03  0.92718033127E+02 0.  0.
         24    2    1    2    0    0  0.86410045019E+01  0.52878483760E+02 -0.33252409940E+02  0.10608054678E+03  0.85302746934E+02 0.  0.
        -11    1    4    4    0    0  0.34594634453E+02  0.62966780984E+02 -0.30665887097E+02  0.78115304979E+02  0.00000000000E+00 0.  1.
         12    1    4    4    0    0 -0.25953629951E+02 -0.10088297225E+02 -0.25865228431E+01  0.27965241800E+02  0.00000000000E+00 0. -1.
        -13    1    3    3    0    0  0.24239370233E+02 -0.12451598093E+02 -0.19403341331E+02  0.33452638448E+02  0.00000000000E+00 0. -1.
         13    1    3    3    0    0 -0.76520314096E+02 -0.11979031735E+02  0.86889655696E-01  0.77452328696E+02  0.00000000000E+00 0.  1.
         -2    1    1    2    0  502  0.43639939361E+02 -0.28447853931E+02 -0.12958330928E+03  0.13966230252E+03  0.00000000000E+00 0.  1.
<scales pt_clust_5="13000.00000" pt_clust_6="13000.00000" pt_clust_7="13000.00000" pt_clust_8="13000.00000" pt_clust_9="13000.00000"></scales>
<clustering>
<clus scale="   85.303">  5  6 -1 -1</clus>
<clus scale="   52.093">  5  9 -1 -1</clus>
<clus scale="   92.718">  7  8 -1 -1</clus>
<clus scale="  109.210">  1  7  2 -1</clus>
<clus scale="  184.049">  2  5  1 -1</clus>
</clustering>
</event>
<event>
 9    2  0.3726337E-005  0.2890110E+03  0.7546771E-02  0.1104201E+00
         21   -1    0    0  501  502  0.00000000000E+00  0.00000000000E+00  0.96225981332E+03  0.96225981332E+03  0.00000000000E+00 0.  1.
          2   -1    0    0  502    0 -0.00000000000E+00 -0.00000000000E+00 -0.11392756638E+03  0.11392756638E+03  0.00000000000E+00 0. -1.
         23    2    1    2    0    0  0.17786708269E+03  0.41858489610E+02  0.27544671967E+02  0.20600371766E+03  0.91049384839E+02 0.  0.
         24    2    1    2    0    0 -0.13199706002E+03  0.41949574496E+02  0.29821744993E+03  0.33895171065E+03  0.82289878220E+02 0.  0.
        -13    1    4    4    0    0 -0.18762299462E+02  0.16610841925E+02  0.14287713749E+03  0.14505798967E+03  0.00000000000E+00 0.  1.
         14    1    4    4    0    0 -0.11323476056E+03  0.25338732571E+02  0.15534031244E+03  0.19389372098E+03  0.00000000000E+00 0. -1.
        -11    1    3    3    0    0  0.11353994124E+03 -0.13878813769E+02 -0.59388309092E+01  0.11453911752E+03  0.00000000000E+00 0. -1.
         11    1    3    3    0    0  0.64327141448E+02  0.55737303379E+02  0.33483502876E+02  0.91464600145E+02  0.00000000000E+00 0.  1.
          1    1    1    2  501    0 -0.45870022675E+02 -0.83808064106E+02  0.52257012504E+03  0.53123195138E+03  0.00000000000E+00 0. -1.
<scales pt_clust_5="13000.00000" pt_clust_6="13000.00000" pt_clust_7="13000.00000" pt_clust_8="13000.00000" pt_clust_9="13000.00000"></scales>
<clustering>
<clus scale="   82.290">  5  6 -1 -1</clus>
<clus scale="   91.049">  7  8 -1 -1</clus>
<clus scale="   95.540">  5  9 -1 -1</clus>
<clus scale="  204.154">  2  7  1 -1</clus>
<clus scale="  289.011">  1  5  2 -1</clus>
</clustering>
</event>
<event>
 9    2  0.3726337E-005  0.1911781E+03  0.7546771E-02  0.1174793E+00
         -1   -1    0    0    0  501 -0.00000000000E+00  0.00000000000E+00  0.41080197865E+03  0.41080197865E+03  0.00000000000E+00 0.  1.
         21   -1    0    0  501  502  0.00000000000E+00 -0.00000000000E+00 -0.38632896670E+03  0.38632896670E+03  0.00000000000E+00 0.  1.
         23    2    1    2    0    0 -0.85451604228E+02 -0.29460794931E+02  0.37587055797E+03  0.39709429887E+03  0.90748502708E+02 0.  0.
         24    2    1    2    0    0 -0.40185864896E+01  0.50747385021E+02 -0.14127483859E+03  0.17066884986E+03  0.81103823403E+02 0.  0.
        -11    1    4    4    0    0  0.14626681082E+02  0.67646373250E+02 -0.89829302058E+02  0.11339874392E+03  0.00000000000E+00 0.  1.
         12    1    4    4    0    0 -0.18645267571E+02 -0.16898988229E+02 -0.51445536536E+02  0.57270105949E+02  0.00000000000E+00 0. -1.
        -13    1    3    3    0    0 -0.76818465000E+02 -0.54224971744E+02  0.22335644521E+03  0.24234175402E+03  0.00000000000E+00 0.  1.
         13    1    3    3    0    0 -0.86331392282E+01  0.24764176813E+02  0.15251411276E+03  0.15475254485E+03  0.00000000000E+00 0. -1.
         -2    1    1    2    0  502  0.89470190718E+02 -0.21286590090E+02 -0.21012270743E+03  0.22936779661E+03  0.00000000000E+00 0.  1.
<scales pt_clust_5="13000.00000" pt_clust_6="13000.00000" pt_clust_7="13000.00000" pt_clust_8="13000.00000" pt_clust_9="13000.00000"></scales>
<clustering>
<clus scale="   81.104">  5  6 -1 -1</clus>
<clus scale="   90.749">  7  8 -1 -1</clus>
<clus scale="   91.968">  5  9 -1 -1</clus>
<clus scale="  128.083">  1  7  2 -1</clus>
<clus scale="  191.178">  2  5  1 -1</clus>
</clustering>
</event>
<event>
 9    2  0.3726337E-005  0.3644099E+03  0.7546771E-02  0.1085762E+00
         -1   -1    0    0    0  501 -0.00000000000E+00  0.00000000000E+00  0.42705178539E+03  0.42705178539E+03  0.00000000000E+00 0.  1.
         21   -1    0    0  501  502  0.00000000000E+00 -0.00000000000E+00 -0.16849408995E+03  0.16849408995E+03  0.00000000000E+00 0.  1.
         23    2    1    2    0    0  0.98650572169E+02 -0.88195056218E+02  0.12640794360E+03  0.20791443680E+03  0.98687088791E+02 0.  0.
         24    2    1    2    0    0  0.55313278156E+01 -0.11251665038E+03  0.65033244901E+02  0.15174230578E+03  0.78139696836E+02 0.  0.
        -13    1    4    4    0    0 -0.34604695135E+02 -0.72868687841E+02  0.37159482642E+02  0.88815301290E+02  0.00000000000E+00 0.  1.
         14    1    4    4    0    0  0.40136022951E+02 -0.39647962537E+02  0.27873762260E+02  0.62927004491E+02  0.00000000000E+00 0. -1.
        -11    1    3    3    0    0  0.35837296058E+02  0.91058307825E+01  0.69837756862E+02  0.79022403320E+02  0.00000000000E+00 0. -1.
         11    1    3    3    0    0  0.62813276111E+02 -0.97300887000E+02  0.56570186734E+02  0.12889203348E+03  0.00000000000E+00 0.  1.
         -2    1    1    2    0  502 -0.10418189998E+03  0.20071170660E+03  0.67116506940E+02  0.23588913276E+03  0.00000000000E+00 0.  1.
<scales pt_clust_5="13000.00000" pt_clust_6="13000.00000" pt_clust_7="13000.00000" pt_clust_8="13000.00000" pt_clust_9="13000.00000"></scales>
<clustering>
<clus scale="   78.140">  5  6 -1 -1</clus>
<clus scale="   98.687">  7  8 -1 -1</clus>
<clus scale="  165.074">  1  7  2 -1</clus>
<clus scale="  156.424">  5  9 -1 -1</clus>
<clus scale="  364.410">  2  5  1 -1</clus>
</clustering>
</event>
<event>
 9    2  0.3726337E-005  0.2797738E+03  0.7546771E-02  0.1132895E+00
         -1   -1    0    0    0  501 -0.00000000000E+00  0.00000000000E+00  0.86016579918E+02  0.86016579918E+02  0.00000000000E+00 0.  1.
         21   -1    0    0  501  502  0.00000000000E+00 -0.00000000000E+00 -0.44795380928E+03  0.44795380928E+03  0.00000000000E+00 0. -1.
         23    2    1    2    0    0  0.57244339138E+02  0.22756694879E+02 -0.13397221448E+03  0.17308064297E+03  0.90628765823E+02 0.  0.
         24    2    1    2    0    0 -0.39158683725E+02  0.11120549326E+03 -0.14188739015E+03  0.20063271435E+03  0.78875790595E+02 0.  0.
        -13    1    4    4    0    0 -0.36933437914E+02  0.11227275340E+03 -0.15067799668E+03  0.19150224196E+03  0.00000000000E+00 0.  1.
         14    1    4    4    0    0 -0.22252458112E+01 -0.10672601335E+01  0.87906065260E+01  0.91304723979E+01  0.00000000000E+00 0. -1.
        -11    1    3    3    0    0  0.30525182766E+02 -0.34682157984E+02 -0.58546037553E+02  0.74580676978E+02  0.00000000000E+00 0.  1.
         11    1    3    3    0    0  0.26719156372E+02  0.57438852863E+02 -0.75426176925E+02  0.98499965995E+02  0.00000000000E+00 0. -1.
         -2    1    1    2    0  502 -0.18085655413E+02 -0.13396218814E+03 -0.86077624730E+02  0.16025703187E+03  0.00000000000E+00 0.  1.
<scales pt_clust_5="13000.00000" pt_clust_6="13000.00000" pt_clust_7="13000.00000" pt_clust_8="13000.00000" pt_clust_9="13000.00000"></scales>
<clustering>
<clus scale="   78.876">  5  6 -1 -1</clus>
<clus scale="   90.629">  7  8 -1 -1</clus>
<clus scale="  109.583">  1  7  2 -1</clus>
<clus scale="  122.052">  5  9 -1 -1</clus>
<clus scale="  279.774">  2  5  1 -1</clus>
</clustering>
</event>
<event>
 9    2  0.3726337E-005  0.2723723E+03  0.7546771E-02  0.1141201E+00
         21   -1    0    0  501  502  0.00000000000E+00  0.00000000000E+00  0.31214771338E+03  0.31214771338E+03  0.00000000000E+00 0. -1.
         -1   -1    0    0    0  501 -0.00000000000E+00 -0.00000000000E+00 -0.11367287622E+03  0.11367287622E+03  0.00000000000E+00 0.  1.
         23    2    1    2    0    0  0.30348594157E+02 -0.13027072302E+02  0.90801498554E+02  0.13293796702E+03  0.91306347835E+02 0.  0.
         24    2    1    2    0    0 -0.51915701029E+02  0.54950419117E+02  0.17701885616E+03  0.20902853555E+03  0.81501316927E+02 0.  0.
        -11    1    4    4    0    0 -0.42954544163E+02 -0.96459040309E+01  0.90934964984E+02  0.10103120402E+03  0.00000000000E+00 0.  1.
         12    1    4    4    0    0 -0.89611568667E+01  0.64596323148E+02  0.86083891181E+02  0.10799733153E+03  0.00000000000E+00 0. -1.
        -13    1    3    3    0    0  0.14604979106E+02  0.24907005972E+02 -0.44451614958E+01  0.29213418525E+02  0.00000000000E+00 0.  1.
         13    1    3    3    0    0  0.15743615051E+02 -0.37934078273E+02  0.95246660050E+02  0.10372454849E+03  0.00000000000E+00 0. -1.
         -2    1    1    2    0  502  0.21567106872E+02 -0.41923346815E+02 -0.69345517555E+02  0.83854087032E+02  0.00000000000E+00 0.  1.
<scales pt_clust_5="13000.00000" pt_clust_6="13000.00000" pt_clust_7="13000.00000" pt_clust_8="13000.00000" pt_clust_9="13000.00000"></scales>
<clustering>
<clus scale="   81.501">  5  6 -1 -1</clus>
<clus scale="   47.146">  5  9 -1 -1</clus>
<clus scale="   91.306">  7  8 -1 -1</clus>
<clus scale="   97.096">  2  7  1 -1</clus>
<clus scale="  272.372">  1  5  2 -1</clus>
</clustering>
</event>
<event>
 9    2  0.3726337E-005  0.2531714E+03  0.7546771E-02  0.1137175E+00
         21   -1    0    0  501  502  0.00000000000E+00  0.00000000000E+00  0.66376516510E+02  0.66376516510E+02  0.00000000000E+00 0. -1.
          2   -1    0    0  502    0 -0.00000000000E+00 -0.00000000000E+00 -0.60626532825E+03  0.60626532825E+03  0.00000000000E+00 0. -1.
         23    2    1    2    0    0 -0.72042345981E+02  0.62318870413E+02 -0.10591541933E+03  0.17021902831E+03  0.93181008379E+02 0.  0.
         24    2    1    2    0    0  0.21194532857E+02 -0.19919267868E+02 -0.42741286267E+03  0.43589262070E+03  0.80465123816E+02 0.  0.
        -11    1    4    4    0    0 -0.29837368217E+02 -0.16708473663E+02 -0.18719822042E+03  0.19029612545E+03  0.00000000000E+00 0.  1.
         12    1    4    4    0    0  0.51031901074E+02 -0.32107942045E+01 -0.24021464225E+03  0.24559649525E+03  0.00000000000E+00 0. -1.
        -13    1    3    3    0    0 -0.11422343102E+02  0.41667782305E+02 -0.96184993696E+02  0.10544300364E+03  0.00000000000E+00 0. -1.
         13    1    3    3    0    0 -0.60620002879E+02  0.20651088108E+02 -0.97304256367E+01  0.64776024671E+02  0.00000000000E+00 0.  1.
          1    1    1    2  501    0  0.50847813125E+02 -0.42399602545E+02 -0.65605297353E+01  0.66530195746E+02  0.00000000000E+00 0. -1.
<scales pt_clust_5="13000.00000" pt_clust_6="13000.00000" pt_clust_7="13000.00000" pt_clust_8="13000.00000" pt_clust_9="13000.00000"></scales>
<clustering>
<clus scale="   80.465">  5  6 -1 -1</clus>
<clus scale="   66.206">  5  9 -1 -1</clus>
<clus scale="   93.181">  7  8 -1 -1</clus>
<clus scale="  133.253">  2  7  1 -1</clus>
<clus scale="  253.171">  1  5  2 -1</clus>
</clustering>
</event>
<event>
 9    2  0.3726337E-005  0.5552251E+03  0.7546771E-02  0.1030565E+00
          2   -1    0    0  502    0 -0.00000000000E+00  0.00000000000E+00  0.11600143708E+04  0.11600143708E+04  0.00000000000E+00 0. -1.
         21   -1    0    0  501  502  0.00000000000E+00 -0.00000000000E+00 -0.15330946229E+03  0.15330946229E+03  0.00000000000E+00 0. -1.
         23    2    1    2    0    0  0.16506038606E+03 -0.11366207667E+03  0.82401918100E+02  0.23507943372E+03  0.91149686415E+02 0.  0.
         24    2    1    2    0    0 -0.80089361919E+01 -0.15150421791E+03  0.10004460157E+03  0.19825564192E+03  0.79238287109E+02 0.  0.
        -11    1    4    4    0    0  0.60345998961E+01 -0.59646064047E+02  0.85160139124E+02  0.10414566072E+03  0.00000000000E+00 0.  1.
         12    1    4    4    0    0 -0.14043536088E+02 -0.91858153865E+02  0.14884462445E+02  0.94109981190E+02  0.00000000000E+00 0. -1.
        -11    1    3    3    0    0  0.40518576631E+02 -0.60807283939E+02 -0.62358399661E+01  0.73335983884E+02  0.00000000000E+00 0.  1.
         11    1    3    3    0    0  0.12454180943E+03 -0.52854792731E+02  0.88637758067E+02  0.16174344984E+03  0.00000000000E+00 0. -1.
          1    1    1    2  501    0 -0.15705144987E+03  0.26516629458E+03  0.82425838886E+03  0.87998875748E+03  0.00000000000E+00 0. -1.
<scales pt_clust_5="13000.00000" pt_clust_6="13000.00000" pt_clust_7="13000.00000" pt_clust_8="13000.00000" pt_clust_9="13000.00000"></scales>
<clustering>
<clus scale="   79.238">  5  6 -1 -1</clus>
<clus scale="   91.150">  7  8 -1 -1</clus>
<clus scale="  220.164">  1  7  2 -1</clus>
<clus scale="  169.249">  5  9 -1 -1</clus>
<clus scale="  555.225">  2  5  1 -1</clus>
</clustering>
</event>
<event>
 9    2  0.3726337E-005  0.3546500E+03  0.7546771E-02  0.1101611E+00
          2   -1    0    0  502    0 -0.00000000000E+00  0.00000000000E+00  0.11965573245E+04  0.11965573245E+04  0.00000000000E+00 0. -1.
         21   -1    0    0  501  502  0.00000000000E+00 -0.00000000000E+00 -0.56850991182E+02  0.56850991182E+02  0.00000000000E+00 0. -1.
         23    2    1    2    0    0 -0.17627070715E+02 -0.72904518896E+02  0.57170372388E+03  0.58377890009E+03  0.91251705748E+02 0.  0.
         24    2    1    2    0    0  0.47746675147E+01 -0.10908623037E+03  0.39731762121E+03  0.41979110330E+03  0.80253817224E+02 0.  0.
        -11    1    4    4    0    0 -0.28491501585E+02 -0.72472817642E+02  0.16760303362E+03  0.18481031313E+03  0.00000000000E+00 0.  1.
         12    1    4    4    0    0  0.33266169100E+02 -0.36613412725E+02  0.22971458759E+03  0.23498079017E+03  0.00000000000E+00 0. -1.
        -13    1    3    3    0    0  0.29972004460E+02 -0.61703385127E+02  0.36282529201E+03  0.36925305863E+03  0.00000000000E+00 0.  1.
         13    1    3    3    0    0 -0.47599075175E+02 -0.11201133769E+02  0.20887843187E+03  0.21452584146E+03  0.00000000000E+00 0. -1.
          1    1    1    2  501    0  0.12852403200E+02  0.18199074926E+03  0.17068498826E+03  0.24983831232E+03  0.00000000000E+00 0. -1.
<scales pt_clust_5="13000.00000" pt_clust_6="13000.00000" pt_clust_7="13000.00000" pt_clust_8="13000.00000" pt_clust_9="13000.00000"></scales>
<clustering>
<clus scale="   80.254">  5  6 -1 -1</clus>
<clus scale="   91.252">  7  8 -1 -1</clus>
<clus scale="  118.121">  1  7  2 -1</clus>
<clus scale="  157.369">  5  9 -1 -1</clus>
<clus scale="  354.650">  2  5  1 -1</clus>
</clustering>
</event>
<event>
 9    2  0.3726337E-005  0.1789690E+03  0.7546771E-02  0.1195116E+00
         21   -1    0    0  501  502  0.00000000000E+00  0.00000000000E+00  0.50378192700E+03  0.50378192700E+03  0.00000000000E+00 0.  1.
         -1   -1    0    0    0  501 -0.00000000000E+00 -0.00000000000E+00 -0.39188673370E+02  0.39188673370E+02  0.00000000000E+00 0.  1.
         23    2    1    2    0    0 -0.38780811919E+02 -0.42993210680E+02  0.20366496020E+03  0.22656343446E+03  0.80617654916E+02 0.  0.
         24    2    1    2    0    0 -0.10503169309E+02  0.82277198150E+02  0.18784577991E+03  0.21990226313E+03  0.78683634895E+02 0.  0.
        -13    1    4    4    0    0  0.29154590013E+02  0.60434326990E+02  0.91676663659E+02  0.11360857651E+03  0.00000000000E+00 0.  1.
         14    1    4    4    0    0 -0.39657759322E+02  0.21842871160E+02  0.96169116251E+02  0.10629368662E+03  0.00000000000E+00 0. -1.
        -13    1    3    3    0    0 -0.16476499148E+02 -0.65174283720E+02  0.14966895625E+03  0.16407302870E+03  0.00000000000E+00 0.  1.
         13    1    3    3    0    0 -0.22304312771E+02  0.22181073040E+02  0.53996003950E+02  0.62490405760E+02  0.00000000000E+00 0. -1.
         -2    1    1    2    0  502  0.49283981228E+02 -0.39283987471E+02  0.73082513525E+02  0.96504902780E+02  0.00000000000E+00 0.  1.
<scales pt_clust_5="13000.00000" pt_clust_6="13000.00000" pt_clust_7="13000.00000" pt_clust_8="13000.00000" pt_clust_9="13000.00000"></scales>
<clustering>
<clus scale="   78.684">  5  6 -1 -1</clus>
<clus scale="   63.025">  5  9 -1 -1</clus>
<clus scale="   80.618">  7  8 -1 -1</clus>
<clus scale="   99.255">  2  7  1 -1</clus>
<clus scale="  178.969">  1  5  2 -1</clus>
</clustering>
</event>
<event>
 9    2  0.3726337E-005  0.1876099E+03  0.7546771E-02  0.1178113E+00
         -3   -1    0    0    0  501 -0.00000000000E+00  0.00000000000E+00  0.27805773437E+03  0.27805773437E+03  0.00000000000E+00 0.  1.
         21   -1    0    0  501  502  0.00000000000E+00 -0.00000000000E+00 -0.97911790771E+02  0.97911790771E+02  0.00000000000E+00 0.  1.
         23    2    1    2    0    0  0.42754611822E+02  0.71909696966E+02  0.13196928992E+03  0.18227269781E+03  0.93853511046E+02 0.  0.
         24    2    1    2    0    0 -0.55041365954E+02 -0.12935076468E+02  0.78734879380E+02  0.12614850872E+03  0.80730396084E+02 0.  0.
        -11    1    4    4    0    0 -0.14850909830E+02 -0.15870202305E+02 -0.13436565433E+02  0.25552967237E+02  0.00000000000E+00 0.  1.
         12    1    4    4    0    0 -0.40190456124E+02  0.29351258370E+01  0.92171444814E+02  0.10059554148E+03  0.00000000000E+00 0. -1.
        -11    1    3    3    0    0 -0.15870913506E+02  0.58884970612E+02  0.41805284993E+02  0.73939214986E+02  0.00000000000E+00 0. -1.
         11    1    3    3    0    0  0.58625525328E+02  0.13024726354E+02  0.90164004924E+02  0.10833348282E+03  0.00000000000E+00 0.  1.
         -4    1    1    2    0  502  0.12286754132E+02 -0.58974620498E+02 -0.30558225695E+02  0.67548318614E+02  0.00000000000E+00 0.  1.
<scales pt_clust_5="13000.00000" pt_clust_6="13000.00000" pt_clust_7="13000.00000" pt_clust_8="13000.00000" pt_clust_9="13000.00000"></scales>
<clustering>
<clus scale="   80.730">  5  6 -1 -1</clus>
<clus scale="   60.241">  5  9 -1 -1</clus>
<clus scale="   93.854">  7  8 -1 -1</clus>
<clus scale="  125.728">  1  7  2 -1</clus>
<clus scale="  187.610">  2  5  1 -1</clus>
</clustering>
</event>
<event>
 9    2  0.3726337E-005  0.4232747E+03  0.7546771E-02  0.1063169E+00
         -3   -1    0    0    0  501 -0.00000000000E+00  0.00000000000E+00  0.92033692335E+03  0.92033692335E+03  0.00000000000E+00 0.  1.
         21   -1    0    0  501  502  0.00000000000E+00 -0.00000000000E+00 -0.10936057626E+03  0.10936057626E+03  0.00000000000E+00 0.  1.
         23    2    1    2    0    0 -0.17103102321E+03  0.16408257718E+02  0.37170026243E+03  0.41967705053E+03  0.91907017295E+02 0.  0.
         24    2    1    2    0    0  0.25832345659E+03 -0.17101142147E+02  0.44664753944E+03  0.52241458536E+03  0.79996982578E+02 0.  0.
        -11    1    4    4    0    0  0.14492058465E+03 -0.44791425862E+02  0.21642316662E+03  0.26428627421E+03  0.00000000000E+00 0.  1.
         12    1    4    4    0    0  0.11340287193E+03  0.27690283715E+02  0.23022437282E+03  0.25812831115E+03  0.00000000000E+00 0. -1.
        -13    1    3    3    0    0 -0.12030456220E+03 -0.51515507987E+01  0.15612341889E+03  0.19716553474E+03  0.00000000000E+00 0.  1.
         13    1    3    3    0    0 -0.50726461009E+02  0.21559808517E+02  0.21557684353E+03  0.22251151579E+03  0.00000000000E+00 0. -1.
         -4    1    1    2    0  502 -0.87292433378E+02  0.69288442855E+00 -0.73714547710E+01  0.87605863726E+02  0.00000000000E+00 0.  1.
<scales pt_clust_5="13000.00000" pt_clust_6="13000.00000" pt_clust_7="13000.00000" pt_clust_8="13000.00000" pt_clust_9="13000.00000"></scales>
<clustering>
<clus scale="   79.997">  5  6 -1 -1</clus>
<clus scale="   87.295">  5  9 -1 -1</clus>
<clus scale="   91.907">  7  8 -1 -1</clus>
<clus scale="  194.853">  1  7  2 -1</clus>
<clus scale="  423.275">  2  5  1 -1</clus>
</clustering>
</event>
<event>
 9    2  0.3726337E-005  0.7574109E+03  0.7546771E-02  0.1010308E+00
         21   -1    0    0  501  502  0.00000000000E+00  0.00000000000E+00  0.18286010572E+03  0.18286010572E+03  0.00000000000E+00 0. -1.
          2   -1    0    0  502    0 -0.00000000000E+00 -0.00000000000E+00 -0.11991073887E+04  0.11991073887E+04  0.00000000000E+00 0. -1.
         23    2    1    2    0    0 -0.52820989962E+02  0.12034818615E+03 -0.29744659851E+03  0.33777131547E+03  0.91330387613E+02 0.  0.
         24    2    1    2    0    0 -0.23724744855E+03 -0.79743397463E+01  0.92303353724E+01  0.25249121735E+03  0.85537557872E+02 0.  0.
        -13    1    4    4    0    0 -0.15557226137E+03  0.13597765486E+02 -0.30536887581E+02  0.15912300034E+03  0.00000000000E+00 0.  1.
         14    1    4    4    0    0 -0.81675187184E+02 -0.21572105232E+02  0.39767222954E+02  0.93368217007E+02  0.00000000000E+00 0. -1.
        -11    1    3    3    0    0 -0.70119970550E+02  0.54432352365E+02 -0.20047537017E+03  0.21924886613E+03  0.00000000000E+00 0.  1.
         11    1    3    3    0    0  0.17298980588E+02  0.65915833784E+02 -0.96971228336E+02  0.11852244934E+03  0.00000000000E+00 0. -1.
          1    1    1    2  501    0  0.29006843852E+03 -0.11237384640E+03 -0.72803101984E+03  0.79170496160E+03  0.00000000000E+00 0. -1.
<scales pt_clust_5="13000.00000" pt_clust_6="13000.00000" pt_clust_7="13000.00000" pt_clust_8="13000.00000" pt_clust_9="13000.00000"></scales>
<clustering>
<clus scale="   85.538">  5  6 -1 -1</clus>
<clus scale="   91.330">  7  8 -1 -1</clus>
<clus scale="  160.047">  2  7  1 -1</clus>
<clus scale="  244.688">  5  9 -1 -1</clus>
<clus scale="  757.411">  1  5  2 -1</clus>
</clustering>
</event>
<event>
 9    2  0.3726337E-005  0.1446314E+03  0.7546771E-02  0.1210789E+00
          2   -1    0    0  502    0 -0.00000000000E+00  0.00000000000E+00  0.36971594608E+03  0.36971594608E+03  0.00000000000E+00 0. -1.
         21   -1    0    0  501  502  0.00000000000E+00 -0.00000000000E+00 -0.61461480300E+02  0.61461480300E+02  0.00000000000E+00 0. -1.
         23    2    1    2    0    0 -0.47374361409E+02  0.85693798090E+02  0.23135481165E+03  0.26737323978E+03  0.91518540886E+02 0.  0.
         24    2    1    2    0    0  0.11350509398E+02 -0.52630126235E+02  0.57595879983E+02  0.11123461359E+03  0.78467124443E+02 0.  0.
        -13    1    4    4    0    0  0.15402698331E+01 -0.48174671597E+02  0.75949091169E+02  0.89952408884E+02  0.00000000000E+00 0.  1.
         14    1    4    4    0    0  0.98102395651E+01 -0.44554546379E+01 -0.18353211185E+02  0.21282204707E+02  0.00000000000E+00 0. -1.
        -11    1    3    3    0    0  0.56002476394E+01  0.27938289120E+02  0.64639642622E+01  0.29218035638E+02  0.00000000000E+00 0.  1.
         11    1    3    3    0    0 -0.52974609049E+02  0.57755508970E+02  0.22489084739E+03  0.23815520414E+03  0.00000000000E+00 0. -1.
          1    1    1    2  501    0  0.36023852011E+02 -0.33063671855E+02  0.19303774148E+02  0.52569573012E+02  0.00000000000E+00 0. -1.
<scales pt_clust_5="13000.00000" pt_clust_6="13000.00000" pt_clust_7="13000.00000" pt_clust_8="13000.00000" pt_clust_9="13000.00000"></scales>
<clustering>
<clus scale="   78.467">  5  6 -1 -1</clus>
<clus scale="   48.897">  5  9 -1 -1</clus>
<clus scale="   91.519">  7  8 -1 -1</clus>
<clus scale="  134.028">  1  7  2 -1</clus>
<clus scale="  144.631">  2  5  1 -1</clus>
</clustering>
</event>
<event>
 9    2  0.3726337E-005  0.2282568E+03  0.7546771E-02  0.1166115E+00
         21   -1    0    0  501  502  0.00000000000E+00  0.00000000000E+00  0.37933368184E+03  0.37933368184E+03  0.00000000000E+00 0. -1.
          2   -1    0    0  502    0 -0.00000000000E+00 -0.00000000000E+00 -0.12826089523E+03  0.12826089523E+03  0.00000000000E+00 0. -1.
         23    2    1    2    0    0  0.73755231289E+01 -0.22341887656E+02 -0.68757183205E+02  0.11466660105E+03  0.88697919189E+02 0.  0.
         24    2    1    2    0    0  0.63374981007E+02 -0.51723737293E+02  0.11192467610E+03  0.16116093395E+03  0.82182603357E+02 0.  0.
        -11    1    4    4    0    0  0.18051879510E+02  0.14805977330E+02  0.66557016784E-01  0.23347200012E+02  0.00000000000E+00 0.  1.
         12    1    4    4    0    0  0.45323101497E+02 -0.66529714624E+02  0.11185811908E+03  0.13781373394E+03  0.00000000000E+00 0. -1.
        -11    1    3    3    0    0  0.46310419456E+02 -0.37175015974E+01 -0.23267474348E+02  0.51960082090E+02  0.00000000000E+00 0.  1.
         11    1    3    3    0    0 -0.38934896327E+02 -0.18624386059E+02 -0.45489708857E+02  0.62706518959E+02  0.00000000000E+00 0. -1.
          1    1    1    2  501    0 -0.70750504136E+02  0.74065624949E+02  0.20790529372E+03  0.23176704207E+03  0.00000000000E+00 0. -1.
<scales pt_clust_5="13000.00000" pt_clust_6="13000.00000" pt_clust_7="13000.00000" pt_clust_8="13000.00000" pt_clust_9="13000.00000"></scales>
<clustering>
<clus scale="   82.183">  5  6 -1 -1</clus>
<clus scale="   88.698">  7  8 -1 -1</clus>
<clus scale="   91.765">  2  7  1 -1</clus>
<clus scale="   95.547">  5  9 -1 -1</clus>
<clus scale="  228.257">  1  5  2 -1</clus>
</clustering>
</event>
<event>
 9    2  0.3726337E-005  0.4623963E+03  0.7546771E-02  0.1076229E+00
          2   -1    0    0  502    0 -0.00000000000E+00  0.00000000000E+00  0.28444191846E+03  0.28444191846E+03  0.00000000000E+00 0. -1.
         21   -1    0    0  501  502  0.00000000000E+00 -0.00000000000E+00 -0.28906169815E+03  0.28906169815E+03  0.00000000000E+00 0. -1.
         23    2    1    2    0    0  0.25883472586E+01  0.48250989190E+02  0.33219479221E+02  0.10956165263E+03  0.92549254063E+02 0.  0.
         24    2    1    2    0    0  0.15178637769E+03 -0.11723267123E+03  0.11393028859E+03  0.23673275706E+03  0.79244456890E+02 0.  0.
        -13    1    4    4    0    0  0.72971903803E+02 -0.10171467137E+03  0.53137379498E+02  0.13599394919E+03  0.00000000000E+00 0.  1.
         14    1    4    4    0    0  0.78814473892E+02 -0.15517999863E+02  0.60792909089E+02  0.10073880787E+03  0.00000000000E+00 0. -1.
        -11    1    3    3    0    0  0.12534563911E+01  0.70083120199E+02  0.36876802973E+00  0.70095298556E+02  0.00000000000E+00 0. -1.
         11    1    3    3    0    0  0.13348908675E+01 -0.21832131009E+02  0.32850711191E+02  0.39466354073E+02  0.00000000000E+00 0.  1.
          1    1    1    2  501    0 -0.15437472495E+03  0.68981682044E+02 -0.15176954750E+03  0.22720920692E+03  0.00000000000E+00 0. -1.
<scales pt_clust_5="13000.00000" pt_clust_6="13000.00000" pt_clust_7="13000.00000" pt_clust_8="13000.00000" pt_clust_9="13000.00000"></scales>
<clustering>
<clus scale="   79.244">  5  6 -1 -1</clus>
<clus scale="   92.549">  7  8 -1 -1</clus>
<clus scale="  104.404">  1  7  2 -1</clus>
<clus scale="  172.338">  5  9 -1 -1</clus>
<clus scale="  462.396">  2  5  1 -1</clus>
</clustering>
</event>
<event>
 9    2  0.3726337E-005  0.4919643E+03  0.7546771E-02  0.1072866E+00
         21   -1    0    0  501  502  0.00000000000E+00  0.00000000000E+00  0.17099979787E+03  0.17099979787E+03  0.00000000000E+00 0. -1.
          2   -1    0    0  502    0 -0.00000000000E+00 -0.00000000000E+00 -0.50810043396E+03  0.50810043396E+03  0.00000000000E+00 0. -1.
         23    2    1    2    0    0  0.38978139393E+01 -0.27374181421E+02 -0.32169281486E+02  0.10029798372E+03  0.90886105121E+02 0.  0.
         24    2    1    2    0    0 -0.12331222847E+03  0.15047236472E+03 -0.34321632185E+03  0.40307887504E+03  0.82627463231E+02 0.  0.
        -13    1    4    4    0    0 -0.19005235631E+02 -0.73235409645E+01 -0.51747784602E+02  0.55611747364E+02  0.00000000000E+00 0.  1.
         14    1    4    4    0    0 -0.10430699284E+03  0.15779590569E+03 -0.29146853725E+03  0.34746712767E+03  0.00000000000E+00 0. -1.
        -11    1    3    3    0    0 -0.28749563310E+02 -0.42205179781E+02 -0.38411693371E+02  0.63900491223E+02  0.00000000000E+00 0.  1.
         11    1    3    3    0    0  0.32647377249E+02  0.14830998360E+02  0.62424118849E+01  0.36397492493E+02  0.00000000000E+00 0. -1.
          1    1    1    2  501    0  0.11941441453E+03 -0.12309818330E+03  0.38284967247E+02  0.17572337308E+03  0.00000000000E+00 0. -1.
<scales pt_clust_5="13000.00000" pt_clust_6="13000.00000" pt_clust_7="13000.00000" pt_clust_8="13000.00000" pt_clust_9="13000.00000"></scales>
<clustering>
<clus scale="   82.627">  5  6 -1 -1</clus>
<clus scale="   90.886">  7  8 -1 -1</clus>
<clus scale="   94.999">  2  7  1 -1</clus>
<clus scale="  174.998">  5  9 -1 -1</clus>
<clus scale="  491.964">  1  5  2 -1</clus>
</clustering>
</event>
<event>
 9    2  0.3726337E-005  0.2393926E+03  0.7546771E-02  0.1152741E+00
         21   -1    0    0  501  502  0.00000000000E+00  0.00000000000E+00  0.81363300994E+02  0.81363300994E+02  0.00000000000E+00 0. -1.
          2   -1    0    0  502    0 -0.00000000000E+00 -0.00000000000E+00 -0.50900953574E+03  0.50900953574E+03  0.00000000000E+00 0. -1.
         23    2    1    2    0    0 -0.46534137754E+02 -0.36409100714E+02 -0.30002563103E+03  0.31908727193E+03  0.91160623310E+02 0.  0.
         24    2    1    2    0    0  0.45164110017E+02 -0.76504699133E+02 -0.43000807944E+02  0.13017598679E+03  0.84876099279E+02 0.  0.
        -13    1    4    4    0    0  0.34426237165E+02  0.84747029483E+01 -0.22859602141E+02  0.42184686860E+02  0.00000000000E+00 0.  1.
         14    1    4    4    0    0  0.10737872851E+02 -0.84979402081E+02 -0.20141205803E+02  0.87991299926E+02  0.00000000000E+00 0. -1.
        -11    1    3    3    0    0 -0.43874896854E+02  0.22722546741E+02 -0.14040707371E+03  0.14884712644E+03  0.00000000000E+00 0. -1.
         11    1    3    3    0    0 -0.26592409004E+01 -0.59131647455E+02 -0.15961855732E+03  0.17024014548E+03  0.00000000000E+00 0.  1.
          1    1    1    2  501    0  0.13700277375E+01  0.11291379985E+03 -0.84619795777E+02  0.14110957802E+03  0.00000000000E+00 0. -1.
<scales pt_clust_5="13000.00000" pt_clust_6="13000.00000" pt_clust_7="13000.00000" pt_clust_8="13000.00000" pt_clust_9="13000.00000"></scales>
<clustering>
<clus scale="   84.876">  5  6 -1 -1</clus>
<clus scale="   91.161">  7  8 -1 -1</clus>
<clus scale="  108.634">  2  7  1 -1</clus>
<clus scale="   95.627">  5  9 -1 -1</clus>
<clus scale="  239.393">  1  5  2 -1</clus>
</clustering>
</event>
<event>
 9    2  0.3726337E-005  0.3956885E+03  0.7546771E-02  0.1067173E+00
         21   -1    0    0  501  502  0.00000000000E+00  0.00000000000E+00  0.74522720246E+02  0.74522720246E+02  0.00000000000E+00 0. -1.
          2   -1    0    0  502    0 -0.00000000000E+00 -0.00000000000E+00 -0.14397705796E+04  0.14397705796E+04  0.00000000000E+00 0. -1.
         23    2    1    2    0    0 -0.71682637583E+02  0.17988028437E+03 -0.77368331908E+03  0.80259251174E+03  0.89852904494E+02 0.  0.
         24    2    1    2    0    0 -0.77826173441E+02  0.27621173932E+02 -0.30948147044E+03  0.33093760967E+03  0.83193019061E+02 0.  0.
        -11    1    4    4    0    0  0.11737529033E+02  0.24816744253E+02 -0.80168061522E+02  0.84738175997E+02  0.00000000000E+00 0.  1.
         12    1    4    4    0    0 -0.89563702474E+02  0.28044296786E+01 -0.22931340892E+03  0.24619943367E+03  0.00000000000E+00 0. -1.
        -11    1    3    3    0    0  0.26388302028E+01  0.64532489527E+02 -0.38544186803E+03  0.39081560775E+03  0.00000000000E+00 0.  1.
         11    1    3    3    0    0 -0.74321467786E+02  0.11534779484E+03 -0.38824145105E+03  0.41177690399E+03  0.00000000000E+00 0. -1.
          1    1    1    2  501    0  0.14950881102E+03 -0.20750145830E+03 -0.28208306984E+03  0.38076317845E+03  0.00000000000E+00 0. -1.
<scales pt_clust_5="13000.00000" pt_clust_6="13000.00000" pt_clust_7="13000.00000" pt_clust_8="13000.00000" pt_clust_9="13000.00000"></scales>
<clustering>
<clus scale="   83.193">  5  6 -1 -1</clus>
<clus scale="   89.853">  7  8 -1 -1</clus>
<clus scale="  213.469">  2  7  1 -1</clus>
<clus scale="  161.987">  5  9 -1 -1</clus>
<clus scale="  395.689">  1  5  2 -1</clus>
</clustering>
</event>
<event>
 9    2  0.3726337E-005  0.1958208E+03  0.7546771E-02  0.1180833E+00
         21   -1    0    0  501  502  0.00000000000E+00  0.00000000000E+00  0.97770566320E+02  0.97770566320E+02  0.00000000000E+00 0.  1.
          2   -1    0    0  502    0 -0.00000000000E+00 -0.00000000000E+00 -0.39891973719E+03  0.39891973719E+03  0.00000000000E+00 0. -1.
         23    2    1    2    0    0  0.30026476907E+02  0.31812313026E+02 -0.28124740265E+03  0.29986074150E+03  0.94354386333E+02 0.  0.
         24    2    1    2    0    0 -0.46510363351E+02 -0.59542234364E+02 -0.74894082087E+02  0.13307360829E+03  0.79943543320E+02 0.  0.
        -11    1    4    4    0    0 -0.35881438494E+02 -0.78622586159E+02 -0.49563115878E+02  0.99626759147E+02  0.00000000000E+00 0.  1.
         12    1    4    4    0    0 -0.10628924857E+02  0.19080351795E+02 -0.25330966210E+02  0.33446849139E+02  0.00000000000E+00 0. -1.
        -13    1    3    3    0    0  0.73923420495E+01 -0.20119995704E+02 -0.11691400495E+02  0.24416178932E+02  0.00000000000E+00 0.  1.
         13    1    3    3    0    0  0.22634134857E+02  0.51932308730E+02 -0.26955600216E+03  0.27544456257E+03  0.00000000000E+00 0. -1.
          1    1    1    2  501    0  0.16483886444E+02  0.27729921338E+02  0.54992313871E+02  0.63755953719E+02  0.00000000000E+00 0. -1.
<scales pt_clust_5="13000.00000" pt_clust_6="13000.00000" pt_clust_7="13000.00000" pt_clust_8="13000.00000" pt_clust_9="13000.00000"></scales>
<clustering>
<clus scale="   79.944">  5  6 -1 -1</clus>
<clus scale="   32.259">  5  9 -1 -1</clus>
<clus scale="   94.354">  7  8 -1 -1</clus>
<clus scale="  104.002">  2  7  1 -1</clus>
<clus scale="  195.821">  1  5  2 -1</clus>
</clustering>
</event>
<event>
 9    2  0.3726337E-005  0.1664511E+03  0.7546771E-02  0.1203363E+00
          2   -1    0    0  502    0 -0.00000000000E+00  0.00000000000E+00  0.45089578446E+03  0.45089578446E+03  0.00000000000E+00 0. -1.
         21   -1    0    0  501  502  0.00000000000E+00 -0.00000000000E+00 -0.74242440054E+02  0.74242440054E+02  0.00000000000E+00 0. -1.
         23    2    1    2    0    0  0.44920281451E+02 -0.25283415644E+02  0.33919719939E+03  0.35452483112E+03  0.89308639092E+02 0.  0.
         24    2    1    2    0    0  0.15455312992E+02 -0.13975202330E+02 -0.11950935915E+02  0.83277769874E+02  0.79738253718E+02 0.  0.
        -11    1    4    4    0    0  0.23609020013E+02  0.76328893962E+01  0.27826212136E+02  0.37281964921E+02  0.00000000000E+00 0.  1.
         12    1    4    4    0    0 -0.81537070207E+01 -0.21608091727E+02 -0.39777148051E+02  0.45995804953E+02  0.00000000000E+00 0. -1.
        -13    1    3    3    0    0  0.11077712946E+02  0.24185676600E+02  0.32371398608E+02  0.41899524156E+02  0.00000000000E+00 0.  1.
         13    1    3    3    0    0  0.33842568505E+02 -0.49469092244E+02  0.30682580078E+03  0.31262530696E+03  0.00000000000E+00 0. -1.
          1    1    1    2  501    0 -0.60375594443E+02  0.39258617975E+02  0.49407080936E+02  0.87335623524E+02  0.00000000000E+00 0. -1.
<scales pt_clust_5="13000.00000" pt_clust_6="13000.00000" pt_clust_7="13000.00000" pt_clust_8="13000.00000" pt_clust_9="13000.00000"></scales>
<clustering>
<clus scale="   79.738">  5  6 -1 -1</clus>
<clus scale="   72.017">  5  9 -1 -1</clus>
<clus scale="   89.309">  7  8 -1 -1</clus>
<clus scale="  103.117">  1  7  2 -1</clus>
<clus scale="  166.451">  2  5  1 -1</clus>
</clustering>
</event>
<event>
 9    2  0.3726337E-005  0.4303418E+03  0.7546771E-02  0.1087392E+00
         21   -1    0    0  501  502  0.00000000000E+00  0.00000000000E+00  0.10562127456E+03  0.10562127456E+03  0.00000000000E+00 0. -1.
          2   -1    0    0  502    0 -0.00000000000E+00 -0.00000000000E+00 -0.70034594576E+03  0.70034594576E+03  0.00000000000E+00 0. -1.
         23    2    1    2    0    0 -0.32378848529E+02 -0.36708564687E+01 -0.20078002925E+03  0.22254072571E+03  0.90276738052E+02 0.  0.
         24    2    1    2    0    0 -0.93803752136E+02 -0.15926044193E+03 -0.10468295503E+03  0.22826317974E+03  0.83561509524E+02 0.  0.
        -13    1    4    4    0    0  0.49241994395E+01 -0.64902101821E+02 -0.22464707648E+02  0.68856326148E+02  0.00000000000E+00 0.  1.
         14    1    4    4    0    0 -0.98727951576E+02 -0.94358340108E+02 -0.82218247381E+02  0.15940685359E+03  0.00000000000E+00 0. -1.
        -13    1    3    3    0    0 -0.50011824722E+02 -0.21301656200E+02 -0.18548935545E+03  0.19329056923E+03  0.00000000000E+00 0. -1.
         13    1    3    3    0    0  0.17632976193E+02  0.17630799732E+02 -0.15290673804E+02  0.29250156478E+02  0.00000000000E+00 0.  1.
          1    1    1    2  501    0  0.12618260066E+03  0.16293129840E+03 -0.28926168693E+03  0.35516331487E+03  0.00000000000E+00 0. -1.
<scales pt_clust_5="13000.00000" pt_clust_6="13000.00000" pt_clust_7="13000.00000" pt_clust_8="13000.00000" pt_clust_9="13000.00000"></scales>
<clustering>
<clus scale="   83.562">  5  6 -1 -1</clus>
<clus scale="   90.277">  7  8 -1 -1</clus>
<clus scale="   95.978">  2  7  1 -1</clus>
<clus scale="  191.713">  5  9 -1 -1</clus>
<clus scale="  430.342">  1  5  2 -1</clus>
</clustering>
</event>
<event>
 9    2  0.3726337E-005  0.5917543E+03  0.7546771E-02  0.1035586E+00
          2   -1    0    0  502    0 -0.00000000000E+00  0.00000000000E+00  0.61595942646E+03  0.61595942646E+03  0.00000000000E+00 0. -1.
         21   -1    0    0  501  502  0.00000000000E+00 -0.00000000000E+00 -0.55244788062E+03  0.55244788062E+03  0.00000000000E+00 0. -1.
         23    2    1    2    0    0  0.12122979983E+02  0.12343662615E+03  0.43995074357E+03  0.46706600519E+03  0.95970980585E+02 0.  0.
         24    2    1    2    0    0  0.15950728731E+03  0.10619435523E+03 -0.35859083546E+03  0.41410289865E+03  0.78574853548E+02 0.  0.
        -11    1    4    4    0    0  0.64356749751E+02  0.71098207045E+02 -0.11185574157E+03  0.14733788788E+03  0.00000000000E+00 0.  1.
         12    1    4    4    0    0  0.95150537561E+02  0.35096148182E+02 -0.24673509389E+03  0.26676501077E+03  0.00000000000E+00 0. -1.
        -13    1    3    3    0    0  0.47044611873E+02  0.42302639198E+02  0.12696668478E+03  0.14185643388E+03  0.00000000000E+00 0.  1.
         13    1    3    3    0    0 -0.34921631890E+02  0.81133986953E+02  0.31298405879E+03  0.32520957130E+03  0.00000000000E+00 0. -1.
          1    1    1    2  501    0 -0.17163026729E+03 -0.22963098138E+03 -0.17848362263E+02  0.28723840324E+03  0.00000000000E+00 0. -1.
<scales pt_clust_5="13000.00000" pt_clust_6="13000.00000" pt_clust_7="13000.00000" pt_clust_8="13000.00000" pt_clust_9="13000.00000"></scales>
<clustering>
<clus scale="   78.575">  5  6 -1 -1</clus>
<clus scale="   95.971">  7  8 -1 -1</clus>
<clus scale="  156.825">  1  7  2 -1</clus>
<clus scale="  205.692">  5  9 -1 -1</clus>
<clus scale="  591.754">  2  5  1 -1</clus>
</clustering>
</event>
<event>
 9    2  0.3726337E-005  0.1883390E+03  0.7546771E-02  0.1185487E+00
         -3   -1    0    0    0  501 -0.00000000000E+00  0.00000000000E+00  0.14014886620E+03  0.14014886620E+03  0.00000000000E+00 0.  1.
         21   -1    0    0  501  502  0.00000000000E+00 -0.00000000000E+00 -0.15603971634E+03  0.15603971634E+03  0.00000000000E+00 0.  1.
         23    2    1    2    0    0  0.57601855751E+02 -0.19829211997E+00  0.11088711560E+02  0.10592697076E+03  0.88201760216E+02 0.  0.
         24    2    1    2    0    0 -0.50797537258E+02  0.64164614038E+02  0.55568095244E+01  0.11817413337E+03  0.85069149402E+02 0.  0.
        -13    1    4    4    0    0 -0.28597994319E+02  0.72400318837E+02 -0.22911888937E+02  0.81145585840E+02  0.00000000000E+00 0.  1.
         14    1    4    4    0    0 -0.22199542939E+02 -0.82357047985E+01  0.28468698461E+02  0.37028547532E+02  0.00000000000E+00 0. -1.
        -11    1    3    3    0    0  0.40666078468E+02  0.34466359278E+02  0.31867858954E+02  0.62106523764E+02  0.00000000000E+00 0. -1.
         11    1    3    3    0    0  0.16935777283E+02 -0.34664651398E+02 -0.20779147394E+02  0.43820446998E+02  0.00000000000E+00 0.  1.
         -4    1    1    2    0  502 -0.68043184932E+01 -0.63966321918E+02 -0.32536371222E+02  0.72087478401E+02  0.00000000000E+00 0.  1.
<scales pt_clust_5="13000.00000" pt_clust_6="13000.00000" pt_clust_7="13000.00000" pt_clust_8="13000.00000" pt_clust_9="13000.00000"></scales>
<clustering>
<clus scale="   85.069">  5  6 -1 -1</clus>
<clus scale="   64.327">  5  9 -1 -1</clus>
<clus scale="   88.202">  7  8 -1 -1</clus>
<clus scale="  105.345">  1  7  2 -1</clus>
<clus scale="  188.339">  2  5  1 -1</clus>
</clustering>
</event>
<event>
 9    2  0.3726337E-005  0.3007306E+03  0.7546771E-02  0.1088737E+00
         -3   -1    0    0    0  501 -0.00000000000E+00  0.00000000000E+00  0.65557873201E+03  0.65557873201E+03  0.00000000000E+00 0.  1.
         21   -1    0    0  501  502  0.00000000000E+00 -0.00000000000E+00 -0.19437287536E+03  0.19437287536E+03  0.00000000000E+00 0.  1.
         23    2    1    2    0    0  0.55640384069E+02 -0.25007025972E+03  0.47701158870E+03  0.54880591450E+03  0.89537081141E+02 0.  0.
         24    2    1    2    0    0 -0.84085056880E+02  0.14595032584E+03 -0.49278088866E+01  0.19266348579E+03  0.93397757207E+02 0.  0.
        -13    1    4    4    0    0 -0.61867930364E+02  0.10176054219E+03 -0.46702735341E+02  0.12792182864E+03  0.00000000000E+00 0.  1.
         14    1    4    4    0    0 -0.22217126516E+02  0.44189783656E+02  0.41774926455E+02  0.64741657150E+02  0.00000000000E+00 0. -1.
        -13    1    3    3    0    0 -0.77699427889E+01 -0.64239952728E+02  0.19276077321E+03  0.20333189427E+03  0.00000000000E+00 0.  1.
         13    1    3    3    0    0  0.63410326858E+02 -0.18583030699E+03  0.28425081549E+03  0.34547402023E+03  0.00000000000E+00 0. -1.
         -4    1    1    2    0  502  0.28444672811E+02  0.10411993387E+03 -0.10877923160E+02  0.10848220708E+03  0.00000000000E+00 0.  1.
<scales pt_clust_5="13000.00000" pt_clust_6="13000.00000" pt_clust_7="13000.00000" pt_clust_8="13000.00000" pt_clust_9="13000.00000"></scales>
<clustering>
<clus scale="   89.537">  7  8 -1 -1</clus>
<clus scale="   93.398">  5  6 -1 -1</clus>
<clus scale="  107.935">  5  9 -1 -1</clus>
<clus scale="  271.381">  1  7  2 -1</clus>
<clus scale="  300.731">  2  5  1 -1</clus>
</clustering>
</event>
<event>
 9    2  0.3726337E-005  0.8297986E+03  0.7546771E-02  0.1013102E+00
          2   -1    0    0  502    0 -0.00000000000E+00  0.00000000000E+00  0.86996566161E+03  0.86996566161E+03  0.00000000000E+00 0. -1.
         21   -1    0    0  501  502  0.00000000000E+00 -0.00000000000E+00 -0.56257554231E+03  0.56257554231E+03  0.00000000000E+00 0. -1.
         23    2    1    2    0    0  0.60317665680E+02  0.21843968897E+02  0.55536474318E+03  0.56648285785E+03  0.91419092655E+02 0.  0.
         24    2    1    2    0    0 -0.22727715543E+03 -0.15249907747E+03  0.21457680386E+03  0.35723612572E+03  0.81630697408E+02 0.  0.
        -13    1    4    4    0    0 -0.78637277577E+02 -0.96735078583E+02  0.72656872575E+02  0.14429316680E+03  0.00000000000E+00 0.  1.
         14    1    4    4    0    0 -0.14863987785E+03 -0.55763998891E+02  0.14191993128E+03  0.21294295892E+03  0.00000000000E+00 0. -1.
        -11    1    3    3    0    0  0.16511854598E+01  0.47006139694E+02  0.20251401188E+03  0.20790437366E+03  0.00000000000E+00 0. -1.
         11    1    3    3    0    0  0.58666480221E+02 -0.25162170797E+02  0.35285073131E+03  0.35857848419E+03  0.00000000000E+00 0.  1.
          1    1    1    2  501    0  0.16695948975E+03  0.13065510858E+03 -0.46255142773E+03  0.50882222034E+03  0.00000000000E+00 0. -1.
<scales pt_clust_5="13000.00000" pt_clust_6="13000.00000" pt_clust_7="13000.00000" pt_clust_8="13000.00000" pt_clust_9="13000.00000"></scales>
<clustering>
<clus scale="   81.631">  5  6 -1 -1</clus>
<clus scale="   91.419">  7  8 -1 -1</clus>
<clus scale="  111.682">  1  7  2 -1</clus>
<clus scale="  216.574">  5  9 -1 -1</clus>
<clus scale="  829.799">  2  5  1 -1</clus>
</clustering>
</event>
<event>
 9    2  0.3726337E-005  0.5052742E+03  0.7546771E-02  0.1026555E+00
         -3   -1    0    0    0  501 -0.00000000000E+00  0.00000000000E+00  0.14921739262E+03  0.14921739262E+03  0.00000000000E+00 0.  1.
         21   -1    0    0  501  502  0.00000000000E+00 -0.00000000000E+00 -0.12056907404E+04  0.12056907404E+04  0.00000000000E+00 0.  1.
         23    2    1    2    0    0  0.30309302843E+02  0.31441967930E+03 -0.53981727615E+03  0.63224950667E+03  0.92511396560E+02 0.  0.
         24    2    1    2    0    0 -0.57442370723E+02  0.43593029349E+02 -0.26469242812E+03  0.28403010402E+03  0.73559773811E+02 0.  0.
        -11    1    4    4    0    0 -0.56638795683E+02  0.46119953572E+01 -0.20501635091E+03  0.21274615818E+03  0.00000000000E+00 0.  1.
         12    1    4    4    0    0 -0.80357504029E+00  0.38981033992E+02 -0.59676077202E+02  0.71283945837E+02  0.00000000000E+00 0. -1.
        -11    1    3    3    0    0  0.30829468809E+02  0.12576129379E+03 -0.30273381312E+03  0.32926299635E+03  0.00000000000E+00 0. -1.
         11    1    3    3    0    0 -0.52016596590E+00  0.18865838550E+03 -0.23708346303E+03  0.30298651032E+03  0.00000000000E+00 0.  1.
         -4    1    1    2    0  502  0.27133067880E+02 -0.35801270865E+03 -0.25196364347E+03  0.43862852228E+03  0.00000000000E+00 0.  1.
<scales pt_clust_5="13000.00000" pt_clust_6="13000.00000" pt_clust_7="13000.00000" pt_clust_8="13000.00000" pt_clust_9="13000.00000"></scales>
<clustering>
<clus scale="   73.560">  5  6 -1 -1</clus>
<clus scale="   92.511">  7  8 -1 -1</clus>
<clus scale="  329.146">  1  7  2 -1</clus>
<clus scale="   91.245">  5  9 -1 -1</clus>
<clus scale="  505.274">  2  5  1 -1</clus>
</clustering>
</event>
<event>
 9    2  0.3726337E-005  0.6265290E+03  0.7546771E-02  0.9948409E-01
         21   -1    0    0  501  502  0.00000000000E+00  0.00000000000E+00  0.12657066398E+03  0.12657066398E+03  0.00000000000E+00 0. -1.
          2   -1    0    0  502    0 -0.00000000000E+00 -0.00000000000E+00 -0.25921742760E+04  0.25921742760E+04  0.00000000000E+00 0. -1.
         23    2    1    2    0    0 -0.11665730950E+03  0.43229634872E+03 -0.14910744256E+04  0.15601916610E+04  0.10200987997E+03 0.  0.
         24    2    1    2    0    0 -0.14357860879E+03 -0.25067402118E+03 -0.37402462467E+03  0.47935144461E+03  0.80194175552E+02 0.  0.
        -13    1    4    4    0    0 -0.12247367596E+03 -0.14994420033E+03 -0.27667804432E+03  0.33768891709E+03  0.00000000000E+00 0.  1.
         14    1    4    4    0    0 -0.21104932836E+02 -0.10072982085E+03 -0.97346580351E+02  0.14166252752E+03  0.00000000000E+00 0. -1.
        -11    1    3    3    0    0 -0.21213575340E+02  0.92500193759E+02 -0.19420417117E+03  0.21615170997E+03  0.00000000000E+00 0.  1.
         11    1    3    3    0    0 -0.95443734156E+02  0.33979615497E+03 -0.12968702544E+04  0.13440399511E+04  0.00000000000E+00 0. -1.
          1    1    1    2  501    0  0.26023591829E+03 -0.18162232755E+03 -0.60050456179E+03  0.67920183433E+03  0.00000000000E+00 0. -1.
<scales pt_clust_5="13000.00000" pt_clust_6="13000.00000" pt_clust_7="13000.00000" pt_clust_8="13000.00000" pt_clust_9="13000.00000"></scales>
<clustering>
<clus scale="   80.194">  5  6 -1 -1</clus>
<clus scale="  102.010">  7  8 -1 -1</clus>
<clus scale="  317.348">  5  9 -1 -1</clus>
<clus scale="  459.233">  2  7  1 -1</clus>
<clus scale="  626.529">  1  5  2 -1</clus>
</clustering>
</event>
<event>
 9    2  0.3726337E-005  0.1600865E+03  0.7546771E-02  0.1198405E+00
         21   -1    0    0  501  502  0.00000000000E+00  0.00000000000E+00  0.80501376241E+03  0.80501376241E+03  0.00000000000E+00 0.  1.
         -1   -1    0    0    0  501 -0.00000000000E+00 -0.00000000000E+00 -0.28030255580E+02  0.28030255580E+02  0.00000000000E+00 0.  1.
         23    2    1    2    0    0  0.99404357072E+01  0.92563143090E+02  0.23745177459E+03  0.27026327514E+03  0.89398797059E+02 0.  0.
         24    2    1    2    0    0 -0.58739215319E+01 -0.17069577899E+02  0.34113541153E+03  0.35046749551E+03  0.78282967273E+02 0.  0.
        -13    1    4    4    0    0  0.15950944393E+02  0.26177230214E+02  0.16330982145E+03  0.16616190234E+03  0.00000000000E+00 0.  1.
         14    1    4    4    0    0 -0.21824865925E+02 -0.43246808113E+02  0.17782559008E+03  0.18430559317E+03  0.00000000000E+00 0. -1.
        -13    1    3    3    0    0 -0.37673965982E+02  0.21514087805E+02  0.86300804251E+02  0.96591989840E+02  0.00000000000E+00 0. -1.
         13    1    3    3    0    0  0.47614401689E+02  0.71049055285E+02  0.15115097034E+03  0.17367128530E+03  0.00000000000E+00 0.  1.
         -2    1    1    2    0  502 -0.40665141753E+01 -0.75493565191E+02  0.19839632072E+03  0.21231324734E+03  0.00000000000E+00 0.  1.
<scales pt_clust_5="13000.00000" pt_clust_6="13000.00000" pt_clust_7="13000.00000" pt_clust_8="13000.00000" pt_clust_9="13000.00000"></scales>
<clustering>
<clus scale="   78.283">  5  6 -1 -1</clus>
<clus scale="   75.603">  5  9 -1 -1</clus>
<clus scale="   89.399">  7  8 -1 -1</clus>
<clus scale="  129.069">  2  7  1 -1</clus>
<clus scale="  160.086">  1  5  2 -1</clus>
</clustering>
</event>
<event>
 9    2  0.3726337E-005  0.4447017E+03  0.7546771E-02  0.1068499E+00
          2   -1    0    0  502    0 -0.00000000000E+00  0.00000000000E+00  0.25448335302E+03  0.25448335302E+03  0.00000000000E+00 0. -1.
         21   -1    0    0  501  502  0.00000000000E+00 -0.00000000000E+00 -0.41519390781E+03  0.41519390781E+03  0.00000000000E+00 0. -1.
         23    2    1    2    0    0 -0.11044213171E+03 -0.22847518855E+02  0.78341920977E+02  0.16479541575E+03  0.91107622603E+02 0.  0.
         24    2    1    2    0    0 -0.15260991796E+03  0.40906680585E+02 -0.12494506070E+03  0.21757884069E+03  0.82256550787E+02 0.  0.
        -13    1    4    4    0    0 -0.34743834790E+02  0.38079756554E+02 -0.71465754243E+02  0.88116717737E+02  0.00000000000E+00 0.  1.
         14    1    4    4    0    0 -0.11786608317E+03  0.28269240313E+01 -0.53479306461E+02  0.12946212296E+03  0.00000000000E+00 0. -1.
        -11    1    3    3    0    0 -0.12805065991E+02 -0.43330133335E+02  0.22681316468E+02  0.50556031159E+02  0.00000000000E+00 0.  1.
         11    1    3    3    0    0 -0.97637065718E+02  0.20482614480E+02  0.55660604509E+02  0.11423938459E+03  0.00000000000E+00 0. -1.
          1    1    1    2  501    0  0.26305204967E+03 -0.18059161730E+02 -0.11410741507E+03  0.28730300439E+03  0.00000000000E+00 0. -1.
<scales pt_clust_5="13000.00000" pt_clust_6="13000.00000" pt_clust_7="13000.00000" pt_clust_8="13000.00000" pt_clust_9="13000.00000"></scales>
<clustering>
<clus scale="   82.257">  5  6 -1 -1</clus>
<clus scale="   91.108">  7  8 -1 -1</clus>
<clus scale="  144.983">  1  7  2 -1</clus>
<clus scale="  193.915">  5  9 -1 -1</clus>
<clus scale="  444.702">  2  5  1 -1</clus>
</clustering>
</event>
<event>
 9    2  0.3800277E-005  0.3672923E+03  0.7546771E-02  0.1095018E+00
          2   -1    0    0  502    0 -0.00000000000E+00  0.00000000000E+00  0.32898194451E+03  0.32898194451E+03  0.00000000000E+00 0. -1.
         21   -1    0    0  501  502  0.00000000000E+00 -0.00000000000E+00 -0.59554867031E+03  0.59554867031E+03  0.00000000000E+00 0. -1.
         23    2    1    2    0    0  0.67604015615E+02 -0.57936722049E+02  0.25621031241E+03  0.28562571774E+03  0.89506199581E+02 0.  0.
         24    2    1    2    0    0 -0.29385191997E+00 -0.64904084631E+02 -0.68629282319E+01  0.10431356645E+03  0.81373176232E+02 0.  0.
        -13    1    4    4    0    0 -0.40787039898E+02 -0.31641361362E+02 -0.15920487214E+01  0.51645841958E+02  0.00000000000E+00 0.  1.
         14    1    4    4    0    0  0.40493187978E+02 -0.33262723269E+02 -0.52708795104E+01  0.52667724488E+02  0.00000000000E+00 0. -1.
        -13    1    3    3    0    0  0.24453051702E+02 -0.52200438792E+02  0.22446689796E+03  0.23175035238E+03  0.00000000000E+00 0. -1.
         13    1    3    3    0    0  0.43150963913E+02 -0.57362832566E+01  0.31743414441E+02  0.53875365359E+02  0.00000000000E+00 0.  1.
          1    1    1    2  501    0 -0.67310163695E+02  0.12284080668E+03 -0.51591410997E+03  0.53459133063E+03  0.00000000000E+00 0. -1.
<scales pt_clust_5="13000.00000" pt_clust_6="13000.00000" pt_clust_7="13000.00000" pt_clust_8="13000.00000" pt_clust_9="13000.00000"></scales>
<clustering>
<clus scale="   81.373">  5  6 -1 -1</clus>
<clus scale="   89.506">  7  8 -1 -1</clus>
<clus scale="  126.247">  1  7  2 -1</clus>
<clus scale="  126.778">  5  9 -1 -1</clus>
<clus scale="  367.292">  2  5  1 -1</clus>
</clustering>
</event>
<event>
 9    2  0.3726337E-005  0.1126171E+03  0.7546771E-02  0.1265712E+00
         21   -1    0    0  501  502  0.00000000000E+00  0.00000000000E+00  0.31295904996E+02  0.31295904996E+02  0.00000000000E+00 0.  1.
          2   -1    0    0  502    0 -0.00000000000E+00 -0.00000000000E+00 -0.34529304051E+03  0.34529304051E+03  0.00000000000E+00 0. -1.
         23    2    1    2    0    0  0.14172013632E+02 -0.66833262180E+01 -0.17162084017E+03  0.19505761279E+03  0.91368740316E+02 0.  0.
         24    2    1    2    0    0 -0.30326980343E+02 -0.11901482315E+02 -0.93030881205E+02  0.12638291520E+03  0.79098200861E+02 0.  0.
        -13    1    4    4    0    0  0.47380965264E+01  0.27922959831E+02 -0.52353642680E+02  0.59523483990E+02  0.00000000000E+00 0.  1.
         14    1    4    4    0    0 -0.35065076870E+02 -0.39824442146E+02 -0.40677238525E+02  0.66859431213E+02  0.00000000000E+00 0. -1.
        -11    1    3    3    0    0  0.50150888725E+02  0.10777186823E+02 -0.79266434501E+02  0.94416243487E+02  0.00000000000E+00 0. -1.
         11    1    3    3    0    0 -0.35978875093E+02 -0.17460513041E+02 -0.92354405671E+02  0.10064136930E+03  0.00000000000E+00 0.  1.
          1    1    1    2  501    0  0.16154966712E+02  0.18584808533E+02 -0.49345414141E+02  0.55148417515E+02  0.00000000000E+00 0. -1.
<scales pt_clust_5="13000.00000" pt_clust_6="13000.00000" pt_clust_7="13000.00000" pt_clust_8="13000.00000" pt_clust_9="13000.00000"></scales>
<clustering>
<clus scale="   79.098">  5  6 -1 -1</clus>
<clus scale="   24.625">  5  9 -1 -1</clus>
<clus scale="   91.369">  7  8 -1 -1</clus>
<clus scale="   92.703">  2  7  1 -1</clus>
<clus scale="  112.617">  1  5  2 -1</clus>
</clustering>
</event>
<event>
 9    2  0.3726337E-005  0.1891931E+03  0.7546771E-02  0.1174851E+00
         21   -1    0    0  501  502  0.00000000000E+00  0.00000000000E+00  0.52493200287E+02  0.52493200287E+02  0.00000000000E+00 0.  1.
         -1   -1    0    0    0  501 -0.00000000000E+00 -0.00000000000E+00 -0.67972129188E+03  0.67972129188E+03  0.00000000000E+00 0.  1.
         23    2    1    2    0    0  0.74993412944E+02  0.61595984084E+02 -0.82694471404E+02  0.15575035282E+03  0.89452331223E+02 0.  0.
         24    2    1    2    0    0 -0.52357350940E+02  0.19775836824E+02 -0.36858684490E+03  0.38129489926E+03  0.79982260869E+02 0.  0.
        -13    1    4    4    0    0 -0.67455154725E+02  0.33541250234E+02 -0.25539613902E+03  0.26627504801E+03  0.00000000000E+00 0.  1.
         14    1    4    4    0    0  0.15097803785E+02 -0.13765413410E+02 -0.11319070588E+03  0.11501985125E+03  0.00000000000E+00 0. -1.
        -11    1    3    3    0    0  0.46879586998E+02  0.69902795377E+02 -0.19955631487E+02  0.86500426049E+02  0.00000000000E+00 0.  1.
         11    1    3    3    0    0  0.28113825946E+02 -0.83068112923E+01 -0.62738839917E+02  0.69249926768E+02  0.00000000000E+00 0. -1.
         -2    1    1    2    0  502 -0.22636062004E+02 -0.81371820908E+02 -0.17594677530E+03  0.19516924009E+03  0.00000000000E+00 0.  1.
<scales pt_clust_5="13000.00000" pt_clust_6="13000.00000" pt_clust_7="13000.00000" pt_clust_8="13000.00000" pt_clust_9="13000.00000"></scales>
<clustering>
<clus scale="   79.982">  5  6 -1 -1</clus>
<clus scale="   84.462">  5  9 -1 -1</clus>
<clus scale="   89.452">  7  8 -1 -1</clus>
<clus scale="  131.984">  2  7  1 -1</clus>
<clus scale="  189.193">  1  5  2 -1</clus>
</clustering>
</event>
<event>
 9    2  0.3726337E-005  0.2407575E+03  0.7546771E-02  0.1152394E+00
         21   -1    0    0  501  502  0.00000000000E+00  0.00000000000E+00  0.22723116819E+03  0.22723116819E+03  0.00000000000E+00 0.  1.
         -1   -1    0    0    0  501 -0.00000000000E+00 -0.00000000000E+00 -0.13724401872E+03  0.13724401872E+03  0.00000000000E+00 0.  1.
         23    2    1    2    0    0 -0.51877079857E+02  0.27657858976E+02  0.64914476798E+00  0.10767671049E+03  0.90209001854E+02 0.  0.
         24    2    1    2    0    0 -0.19902470912E+02 -0.33404924034E+02 -0.48343252271E+02  0.10142324935E+03  0.80234706771E+02 0.  0.
        -11    1    4    4    0    0 -0.22561218199E+02  0.16167443322E+02  0.53825351116E+01  0.28273069773E+02  0.00000000000E+00 0.  1.
         12    1    4    4    0    0  0.26587472863E+01 -0.49572367356E+02 -0.53725787382E+02  0.73150179578E+02  0.00000000000E+00 0. -1.
        -11    1    3    3    0    0 -0.12394842952E+02  0.54026970654E+02  0.16144705992E+02  0.57733848144E+02  0.00000000000E+00 0. -1.
         11    1    3    3    0    0 -0.39482236906E+02 -0.26369111678E+02 -0.15495561224E+02  0.49942862347E+02  0.00000000000E+00 0.  1.
         -2    1    1    2    0  502  0.71779550770E+02  0.57470650578E+01  0.13768125697E+03  0.15537522707E+03  0.00000000000E+00 0.  1.
<scales pt_clust_5="13000.00000" pt_clust_6="13000.00000" pt_clust_7="13000.00000" pt_clust_8="13000.00000" pt_clust_9="13000.00000"></scales>
<clustering>
<clus scale="   80.235">  5  6 -1 -1</clus>
<clus scale="   72.009">  5  9 -1 -1</clus>
<clus scale="   90.209">  7  8 -1 -1</clus>
<clus scale="  107.675">  2  7  1 -1</clus>
<clus scale="  240.758">  1  5  2 -1</clus>
</clustering>
</event>
<event>
 9    2  0.3726337E-005  0.2585218E+03  0.7546771E-02  0.1125532E+00
         21   -1    0    0  501  502  0.00000000000E+00  0.00000000000E+00  0.22180703865E+03  0.22180703865E+03  0.00000000000E+00 0. -1.
          2   -1    0    0  502    0 -0.00000000000E+00 -0.00000000000E+00 -0.20922191669E+03  0.20922191669E+03  0.00000000000E+00 0. -1.
         23    2    1    2    0    0  0.90168041479E+02 -0.10565763729E+03 -0.29637160158E+02  0.16908190434E+03  0.91741577762E+02 0.  0.
         24    2    1    2    0    0 -0.14862660901E+03  0.98968587086E+02  0.15971283832E+02  0.19751675982E+03  0.82904392929E+02 0.  0.
        -13    1    4    4    0    0 -0.29052691405E+01  0.33525149648E+02 -0.11230050434E+02  0.35475206559E+02  0.00000000000E+00 0.  1.
         14    1    4    4    0    0 -0.14572133987E+03  0.65443437439E+02  0.27201334266E+02  0.16204155326E+03  0.00000000000E+00 0. -1.
        -13    1    3    3    0    0  0.34853328383E+01 -0.35459649332E+02 -0.44001550382E+02  0.56618642794E+02  0.00000000000E+00 0.  1.
         13    1    3    3    0    0  0.86682708640E+02 -0.70197987961E+02  0.14364390224E+02  0.11246326155E+03  0.00000000000E+00 0. -1.
          1    1    1    2  501    0  0.58458567533E+02  0.66890502065E+01  0.26250998280E+02  0.64430291179E+02  0.00000000000E+00 0. -1.
<scales pt_clust_5="13000.00000" pt_clust_6="13000.00000" pt_clust_7="13000.00000" pt_clust_8="13000.00000" pt_clust_9="13000.00000"></scales>
<clustering>
<clus scale="   82.904">  5  6 -1 -1</clus>
<clus scale="   58.840">  5  9 -1 -1</clus>
<clus scale="   91.742">  7  8 -1 -1</clus>
<clus scale="  166.464">  2  7  1 -1</clus>
<clus scale="  258.522">  1  5  2 -1</clus>
</clustering>
</event>
<event>
 9    2  0.3726337E-005  0.3176278E+03  0.7546771E-02  0.1124879E+00
         21   -1    0    0  501  502  0.00000000000E+00  0.00000000000E+00  0.46667513873E+03  0.46667513873E+03  0.00000000000E+00 0.  1.
         -1   -1    0    0    0  501 -0.00000000000E+00 -0.00000000000E+00 -0.92219717419E+02  0.92219717419E+02  0.00000000000E+00 0.  1.
         23    2    1    2    0    0  0.28013689751E+01  0.45623670500E+01  0.12642746524E+03  0.15589946445E+03  0.91060837837E+02 0.  0.
         24    2    1    2    0    0 -0.12690191111E+03 -0.27317047319E+02  0.36579965451E+02  0.15676587931E+03  0.79919527823E+02 0.  0.
        -11    1    4    4    0    0 -0.76147670108E+02 -0.58116847038E+01  0.59756353594E+02  0.96969403096E+02  0.00000000000E+00 0.  1.
         12    1    4    4    0    0 -0.50754241000E+02 -0.21505362616E+02 -0.23176388143E+02  0.59796476218E+02  0.00000000000E+00 0. -1.
        -13    1    3    3    0    0  0.21205735804E+02 -0.31520943490E+02  0.22021248604E+02  0.43911143228E+02  0.00000000000E+00 0.  1.
         13    1    3    3    0    0 -0.18404366829E+02  0.36083310540E+02  0.10440621664E+03  0.11198832122E+03  0.00000000000E+00 0. -1.
         -2    1    1    2    0  502  0.12410054213E+03  0.22754680269E+02  0.21144799062E+03  0.24622951239E+03  0.00000000000E+00 0.  1.
<scales pt_clust_5="13000.00000" pt_clust_6="13000.00000" pt_clust_7="13000.00000" pt_clust_8="13000.00000" pt_clust_9="13000.00000"></scales>
<clustering>
<clus scale="   79.920">  5  6 -1 -1</clus>
<clus scale="   91.061">  7  8 -1 -1</clus>
<clus scale="   91.218">  2  7  1 -1</clus>
<clus scale="  126.976">  5  9 -1 -1</clus>
<clus scale="  317.628">  1  5  2 -1</clus>
</clustering>
</event>
<event>
 9    2  0.3726337E-005  0.5279976E+03  0.7546771E-02  0.1013078E+00
         21   -1    0    0  501  502  0.00000000000E+00  0.00000000000E+00  0.54463989012E+03  0.54463989012E+03  0.00000000000E+00 0. -1.
          2   -1    0    0  502    0 -0.00000000000E+00 -0.00000000000E+00 -0.44276374180E+03  0.44276374180E+03  0.00000000000E+00 0. -1.
         23    2    1    2    0    0 -0.98247765096E+02  0.41298336966E+03 -0.53251915825E+02  0.43708904788E+03  0.89460506766E+02 0.  0.
         24    2    1    2    0    0  0.11216759449E+03 -0.80018608666E+02  0.14686501020E+03  0.21695656063E+03  0.80723422832E+02 0.  0.
        -13    1    4    4    0    0  0.79926277787E+02 -0.46640925539E+02  0.40704529794E+02  0.10109621438E+03  0.00000000000E+00 0.  1.
         14    1    4    4    0    0  0.32241316700E+02 -0.33377683127E+02  0.10616048041E+03  0.11586034625E+03  0.00000000000E+00 0. -1.
        -11    1    3    3    0    0 -0.27498045923E+02  0.10471152388E+03  0.25332735996E+02  0.11118629985E+03  0.00000000000E+00 0.  1.
         11    1    3    3    0    0 -0.70749719173E+02  0.30827184578E+03 -0.78584651821E+02  0.32590274802E+03  0.00000000000E+00 0. -1.
          1    1    1    2  501    0 -0.13919829392E+02 -0.33296476100E+03  0.82630539444E+01  0.33335802342E+03  0.00000000000E+00 0. -1.
<scales pt_clust_5="13000.00000" pt_clust_6="13000.00000" pt_clust_7="13000.00000" pt_clust_8="13000.00000" pt_clust_9="13000.00000"></scales>
<clustering>
<clus scale="   80.723">  5  6 -1 -1</clus>
<clus scale="   89.461">  7  8 -1 -1</clus>
<clus scale="  333.256">  5  9 -1 -1</clus>
<clus scale="  433.833">  2  7  1 -1</clus>
<clus scale="  527.998">  1  5  2 -1</clus>
</clustering>
</event>
<event>
 9    2  0.3726337E-005  0.4058085E+03  0.7546771E-02  0.1094947E+00
         -3   -1    0    0    0  501 -0.00000000000E+00  0.00000000000E+00  0.20827658114E+03  0.20827658114E+03  0.00000000000E+00 0.  1.
         21   -1    0    0  501  502  0.00000000000E+00 -0.00000000000E+00 -0.30493241854E+03  0.30493241854E+03  0.00000000000E+00 0.  1.
         23    2    1    2    0    0  0.27946429456E+02 -0.24188623355E+01  0.80136599181E+01  0.94119221306E+02  0.89483826805E+02 0.  0.
         24    2    1    2    0    0 -0.16600529480E+03 -0.19234770563E+02 -0.18173869244E+03  0.25950033337E+03  0.79898287771E+02 0.  0.
        -11    1    4    4    0    0 -0.13447101090E+03 -0.25903245568E+02 -0.94193502917E+02  0.16621024907E+03  0.00000000000E+00 0.  1.
         12    1    4    4    0    0 -0.31534283898E+02  0.66684750047E+01 -0.87545189526E+02  0.93290084302E+02  0.00000000000E+00 0. -1.
        -13    1    3    3    0    0 -0.21246977352E+02 -0.94400219192E+01  0.31504526915E+02  0.39154607348E+02  0.00000000000E+00 0.  1.
         13    1    3    3    0    0  0.49193406808E+02  0.70211595837E+01 -0.23490866997E+02  0.54964613958E+02  0.00000000000E+00 0. -1.
         -4    1    1    2    0  502  0.13805886535E+03  0.21653632899E+02  0.77069195125E+02  0.15958944500E+03  0.00000000000E+00 0.  1.
<scales pt_clust_5="13000.00000" pt_clust_6="13000.00000" pt_clust_7="13000.00000" pt_clust_8="13000.00000" pt_clust_9="13000.00000"></scales>
<clustering>
<clus scale="   79.898">  5  6 -1 -1</clus>
<clus scale="   89.484">  7  8 -1 -1</clus>
<clus scale="   93.777">  1  7  2 -1</clus>
<clus scale="  160.325">  5  9 -1 -1</clus>
<clus scale="  405.808">  2  5  1 -1</clus>
</clustering>
</event>
<event>
 9    2  0.3726337E-005  0.1326075E+03  0.7546771E-02  0.1235248E+00
         21   -1    0    0  501  502  0.00000000000E+00  0.00000000000E+00  0.58770661323E+03  0.58770661323E+03  0.00000000000E+00 0. -1.
          4   -1    0    0  502    0 -0.00000000000E+00 -0.00000000000E+00 -0.39981994240E+02  0.39981994240E+02  0.00000000000E+00 0. -1.
         23    2    1    2    0    0  0.22153341546E+02  0.45618467097E+02  0.55999696652E+02  0.11839679925E+03  0.91159316397E+02 0.  0.
         24    2    1    2    0    0 -0.47462302289E+02 -0.26970307178E+02  0.41894056477E+03  0.43000839212E+03  0.80099643398E+02 0.  0.
        -11    1    4    4    0    0  0.17456338119E+02 -0.22228353721E+02  0.79286651769E+02  0.84173609869E+02  0.00000000000E+00 0.  1.
         12    1    4    4    0    0 -0.64918640408E+02 -0.47419534570E+01  0.33965391300E+03  0.34583478225E+03  0.00000000000E+00 0. -1.
        -11    1    3    3    0    0 -0.31701342425E+02 -0.10222382677E+00  0.28365751201E+02  0.42539409991E+02  0.00000000000E+00 0.  1.
         11    1    3    3    0    0  0.53854683971E+02  0.45720690924E+02  0.27633945451E+02  0.75857389260E+02  0.00000000000E+00 0. -1.
          3    1    1    2  501    0  0.25308960743E+02 -0.18648159920E+02  0.72784357567E+02  0.79283416102E+02  0.00000000000E+00 0. -1.
<scales pt_clust_5="13000.00000" pt_clust_6="13000.00000" pt_clust_7="13000.00000" pt_clust_8="13000.00000" pt_clust_9="13000.00000"></scales>
<clustering>
<clus scale="   80.100">  5  6 -1 -1</clus>
<clus scale="   31.437">  5  9 -1 -1</clus>
<clus scale="   91.159">  7  8 -1 -1</clus>
<clus scale="  104.316">  2  7  1 -1</clus>
<clus scale="  132.607">  1  5  2 -1</clus>
</clustering>
</event>
<event>
 9    2  0.3726337E-005  0.2817962E+03  0.7546771E-02  0.1119534E+00
         -1   -1    0    0    0  501 -0.00000000000E+00  0.00000000000E+00  0.27299665181E+03  0.27299665181E+03  0.00000000000E+00 0.  1.
         21   -1    0    0  501  502  0.00000000000E+00 -0.00000000000E+00 -0.19727136424E+03  0.19727136424E+03  0.00000000000E+00 0. -1.
         23    2    1    2    0    0 -0.20203161663E+02 -0.12621490114E+03  0.11139952430E+03  0.18622271164E+03  0.77010877832E+02 0.  0.
         24    2    1    2    0    0 -0.56032621973E+01 -0.15971725528E+01 -0.10824716131E+03  0.13481820540E+03  0.80153309770E+02 0.  0.
        -11    1    4    4    0    0 -0.33254096070E+02 -0.15149086114E+02 -0.20665472202E+02  0.41980846309E+02  0.00000000000E+00 0.  1.
         12    1    4    4    0    0  0.27650833872E+02  0.13551913562E+02 -0.87581689113E+02  0.92837359090E+02  0.00000000000E+00 0. -1.
        -13    1    3    3    0    0 -0.42935300812E+02 -0.49978263773E+02  0.71482347495E+02  0.97216217315E+02  0.00000000000E+00 0.  1.
         13    1    3    3    0    0  0.22732139149E+02 -0.76236637371E+02  0.39917176801E+02  0.89006494324E+02  0.00000000000E+00 0. -1.
         -2    1    1    2    0  502  0.25806423860E+02  0.12781207370E+03  0.72572924592E+02  0.14922709901E+03  0.00000000000E+00 0.  1.
<scales pt_clust_5="13000.00000" pt_clust_6="13000.00000" pt_clust_7="13000.00000" pt_clust_8="13000.00000" pt_clust_9="13000.00000"></scales>
<clustering>
<clus scale="   77.011">  7  8 -1 -1</clus>
<clus scale="   80.153">  5  6 -1 -1</clus>
<clus scale="  130.391">  5  9 -1 -1</clus>
<clus scale="  149.228">  1  7  2 -1</clus>
<clus scale="  281.796">  2  5  1 -1</clus>
</clustering>
</event>
<event>
 9    2  0.3726337E-005  0.2456762E+03  0.7546771E-02  0.1155812E+00
         -3   -1    0    0    0  501 -0.00000000000E+00  0.00000000000E+00  0.42137460121E+03  0.42137460121E+03  0.00000000000E+00 0.  1.
         21   -1    0    0  501  502  0.00000000000E+00 -0.00000000000E+00 -0.93299208448E+02  0.93299208448E+02  0.00000000000E+00 0.  1.
         23    2    1    2    0    0  0.81734805432E+01  0.15686639910E+02  0.23331648405E+03  0.25135637820E+03  0.91818139145E+02 0.  0.
         24    2    1    2    0    0  0.68337356707E+02  0.38313073290E+02  0.12153223287E+03  0.16591780041E+03  0.81367972573E+02 0.  0.
        -11    1    4    4    0    0  0.27148173585E+02  0.35338587932E+02  0.82195190084E+01  0.45314452647E+02  0.00000000000E+00 0.  1.
         12    1    4    4    0    0  0.41189183122E+02  0.29744853581E+01  0.11331271386E+03  0.12060334776E+03  0.00000000000E+00 0. -1.
        -11    1    3    3    0    0  0.39859341358E+02  0.27555937746E+02  0.19165313589E+03  0.19768414528E+03  0.00000000000E+00 0.  1.
         11    1    3    3    0    0 -0.31685860814E+02 -0.11869297836E+02  0.41663348162E+02  0.53672232921E+02  0.00000000000E+00 0. -1.
         -4    1    1    2    0  502 -0.76510837250E+02 -0.53999713200E+02 -0.26773324155E+02  0.97399631050E+02  0.00000000000E+00 0.  1.
<scales pt_clust_5="13000.00000" pt_clust_6="13000.00000" pt_clust_7="13000.00000" pt_clust_8="13000.00000" pt_clust_9="13000.00000"></scales>
<clustering>
<clus scale="   81.368">  5  6 -1 -1</clus>
<clus scale="   91.818">  7  8 -1 -1</clus>
<clus scale="   93.506">  1  7  2 -1</clus>
<clus scale="   90.561">  5  9 -1 -1</clus>
<clus scale="  245.676">  2  5  1 -1</clus>
</clustering>
</event>
<event>
 9    2  0.3726337E-005  0.3737093E+03  0.7546771E-02  0.1099807E+00
          2   -1    0    0  502    0 -0.00000000000E+00  0.00000000000E+00  0.23419635377E+03  0.23419635377E+03  0.00000000000E+00 0. -1.
         21   -1    0    0  501  502  0.00000000000E+00 -0.00000000000E+00 -0.27889847269E+03  0.27889847269E+03  0.00000000000E+00 0. -1.
         23    2    1    2    0    0 -0.31985789115E+02  0.42865846315E+02  0.64322507429E+02  0.12380699328E+03  0.91270012264E+02 0.  0.
         24    2    1    2    0    0 -0.12733448133E+03  0.81026879799E+02 -0.65549653522E+02  0.18283583046E+03  0.79704193359E+02 0.  0.
        -13    1    4    4    0    0 -0.36523369646E+02 -0.12754902082E+02 -0.52597811563E+01  0.39042404578E+02  0.00000000000E+00 0.  1.
         14    1    4    4    0    0 -0.90811111683E+02  0.93781781881E+02 -0.60289872366E+02  0.14379342589E+03  0.00000000000E+00 0. -1.
        -13    1    3    3    0    0  0.24485841333E+02  0.20930081333E+02 -0.40386741957E+01  0.32464374623E+02  0.00000000000E+00 0.  1.
         13    1    3    3    0    0 -0.56471630448E+02  0.21935764982E+02  0.68361181625E+02  0.91342618662E+02  0.00000000000E+00 0. -1.
          1    1    1    2  501    0  0.15932027044E+03 -0.12389272611E+03 -0.43474972827E+02  0.20645200270E+03  0.00000000000E+00 0. -1.
<scales pt_clust_5="13000.00000" pt_clust_6="13000.00000" pt_clust_7="13000.00000" pt_clust_8="13000.00000" pt_clust_9="13000.00000"></scales>
<clustering>
<clus scale="   79.704">  5  6 -1 -1</clus>
<clus scale="   91.270">  7  8 -1 -1</clus>
<clus scale="  105.787">  1  7  2 -1</clus>
<clus scale="  172.036">  5  9 -1 -1</clus>
<clus scale="  373.709">  2  5  1 -1</clus>
</clustering>
</event>
<event>
 9    2  0.3726337E-005  0.2271737E+03  0.7546771E-02  0.1150198E+00
         21   -1    0    0  501  502  0.00000000000E+00  0.00000000000E+00  0.14887867942E+03  0.14887867942E+03  0.00000000000E+00 0.  1.
         -1   -1    0    0    0  501 -0.00000000000E+00 -0.00000000000E+00 -0.36410134135E+03  0.36410134135E+03  0.00000000000E+00 0.  1.
         23    2    1    2    0    0  0.78603666102E+02 -0.62532833663E+02  0.66980533443E+02  0.15070041668E+03  0.90196075947E+02 0.  0.
         24    2    1    2    0    0  0.12800867591E+02  0.73257509787E+02 -0.68699205195E+02  0.12978495624E+03  0.81203627513E+02 0.  0.
        -13    1    4    4    0    0  0.18449606540E+00  0.89291667536E+02 -0.51356419573E+02  0.10300736751E+03  0.00000000000E+00 0.  1.
         14    1    4    4    0    0  0.12616371526E+02 -0.16034157749E+02 -0.17342785622E+02  0.26777588733E+02  0.00000000000E+00 0. -1.
        -13    1    3    3    0    0  0.42210567728E+02  0.23458920036E+01 -0.10218516433E+02  0.43493141015E+02  0.00000000000E+00 0. -1.
         13    1    3    3    0    0  0.36393098373E+02 -0.64878725667E+02  0.77199049876E+02  0.10720727566E+03  0.00000000000E+00 0.  1.
         -2    1    1    2    0  502 -0.91404533693E+02 -0.10724676124E+02 -0.21350399017E+03  0.23249464785E+03  0.00000000000E+00 0.  1.
<scales pt_clust_5="13000.00000" pt_clust_6="13000.00000" pt_clust_7="13000.00000" pt_clust_8="13000.00000" pt_clust_9="13000.00000"></scales>
<clustering>
<clus scale="   81.204">  5  6 -1 -1</clus>
<clus scale="   90.196">  7  8 -1 -1</clus>
<clus scale="   92.032">  5  9 -1 -1</clus>
<clus scale="  134.997">  2  7  1 -1</clus>
<clus scale="  227.174">  1  5  2 -1</clus>
</clustering>
</event>
<event>
 9    2  0.3726337E-005  0.1506326E+03  0.7546771E-02  0.1214597E+00
         21   -1    0    0  501  502  0.00000000000E+00  0.00000000000E+00  0.60211765917E+02  0.60211765917E+02  0.00000000000E+00 0.  1.
         -3   -1    0    0    0  501 -0.00000000000E+00 -0.00000000000E+00 -0.30844536703E+03  0.30844536703E+03  0.00000000000E+00 0.  1.
         23    2    1    2    0    0  0.84346233518E+01  0.60945326348E+02 -0.16078033693E+03  0.19447830882E+03  0.90476627828E+02 0.  0.
         24    2    1    2    0    0 -0.40167434096E+02 -0.70175759309E+02 -0.80541576474E+02  0.14041577336E+03  0.81802102110E+02 0.  0.
        -13    1    4    4    0    0 -0.49141049517E+02 -0.68917923503E+02 -0.31139809971E+02  0.90189859145E+02  0.00000000000E+00 0.  1.
         14    1    4    4    0    0  0.89736154217E+01 -0.12578358062E+01 -0.49401766503E+02  0.50225914210E+02  0.00000000000E+00 0. -1.
        -13    1    3    3    0    0  0.21571040295E+02  0.80451246919E+02 -0.10559959854E+03  0.13449530893E+03  0.00000000000E+00 0. -1.
         13    1    3    3    0    0 -0.13136416943E+02 -0.19505920572E+02 -0.55180738385E+02  0.59982999893E+02  0.00000000000E+00 0.  1.
         -4    1    1    2    0  502  0.31732810744E+02  0.92304329611E+01 -0.69116877067E+01  0.33763050770E+02  0.00000000000E+00 0.  1.
<scales pt_clust_5="13000.00000" pt_clust_6="13000.00000" pt_clust_7="13000.00000" pt_clust_8="13000.00000" pt_clust_9="13000.00000"></scales>
<clustering>
<clus scale="   81.802">  5  6 -1 -1</clus>
<clus scale="   33.048">  5  9 -1 -1</clus>
<clus scale="   90.477">  7  8 -1 -1</clus>
<clus scale="  109.414">  2  7  1 -1</clus>
<clus scale="  150.633">  1  5  2 -1</clus>
</clustering>
</event>
<event>
 9    2  0.3726337E-005  0.4826593E+03  0.7546771E-02  0.1048015E+00
         -1   -1    0    0    0  501 -0.00000000000E+00  0.00000000000E+00  0.74705941508E+03  0.74705941508E+03  0.00000000000E+00 0.  1.
         21   -1    0    0  501  502  0.00000000000E+00 -0.00000000000E+00 -0.25198156256E+03  0.25198156256E+03  0.00000000000E+00 0.  1.
         23    2    1    2    0    0 -0.70756630813E+02 -0.16482492754E+03 -0.10634124075E+03  0.22789575544E+03  0.91947040840E+02 0.  0.
         24    2    1    2    0    0  0.37141030703E+02  0.41752528538E+02 -0.49493514627E+02  0.10784736522E+03  0.77837756863E+02 0.  0.
        -11    1    4    4    0    0  0.39490400761E+02  0.61054686280E+02 -0.25704345301E+02  0.77122498898E+02  0.00000000000E+00 0.  1.
         12    1    4    4    0    0 -0.23493700574E+01 -0.19302157742E+02 -0.23789169327E+02  0.30724866321E+02  0.00000000000E+00 0. -1.
        -13    1    3    3    0    0 -0.46575070085E+02 -0.39632007229E+02 -0.74664855176E+02  0.96513075533E+02  0.00000000000E+00 0.  1.
         13    1    3    3    0    0 -0.24181560728E+02 -0.12519292032E+03 -0.31676385573E+02  0.13138267991E+03  0.00000000000E+00 0. -1.
         -2    1    1    2    0  502  0.33615600109E+02  0.12307239901E+03  0.65091260789E+03  0.66329785698E+03  0.00000000000E+00 0.  1.
<scales pt_clust_5="13000.00000" pt_clust_6="13000.00000" pt_clust_7="13000.00000" pt_clust_8="13000.00000" pt_clust_9="13000.00000"></scales>
<clustering>
<clus scale="   77.838">  5  6 -1 -1</clus>
<clus scale="   91.947">  7  8 -1 -1</clus>
<clus scale="  127.581">  5  9 -1 -1</clus>
<clus scale="  201.564">  1  7  2 -1</clus>
<clus scale="  482.659">  2  5  1 -1</clus>
</clustering>
</event>
<event>
 9    2  0.3726337E-005  0.1378062E+03  0.7546771E-02  0.1226078E+00
         21   -1    0    0  501  502  0.00000000000E+00  0.00000000000E+00  0.10713326468E+03  0.10713326468E+03  0.00000000000E+00 0. -1.
          4   -1    0    0  502    0 -0.00000000000E+00 -0.00000000000E+00 -0.15536063042E+03  0.15536063042E+03  0.00000000000E+00 0. -1.
         23    2    1    2    0    0  0.93652704840E+01  0.68294827023E+02  0.10300679860E+02  0.11277388025E+03  0.88656372423E+02 0.  0.
         24    2    1    2    0    0 -0.13359809012E+02 -0.17400739755E+02 -0.49766321792E+02  0.97922985389E+02  0.81430670155E+02 0.  0.
        -13    1    4    4    0    0  0.22857788634E+02 -0.35689246090E+02 -0.34224589140E+02  0.54474978564E+02  0.00000000000E+00 0.  1.
         14    1    4    4    0    0 -0.36217597646E+02  0.18288506335E+02 -0.15541732651E+02  0.43448006825E+02  0.00000000000E+00 0. -1.
        -13    1    3    3    0    0  0.45558999488E+02  0.18976268174E+02  0.14547046660E+02  0.51452286195E+02  0.00000000000E+00 0.  1.
         13    1    3    3    0    0 -0.36193729004E+02  0.49318558849E+02 -0.42463667998E+01  0.61321594053E+02  0.00000000000E+00 0. -1.
          3    1    1    2  501    0  0.39945385281E+01 -0.50894087268E+02 -0.87617238061E+01  0.51797029461E+02  0.00000000000E+00 0. -1.
<scales pt_clust_5="13000.00000" pt_clust_6="13000.00000" pt_clust_7="13000.00000" pt_clust_8="13000.00000" pt_clust_9="13000.00000"></scales>
<clustering>
<clus scale="   81.431">  5  6 -1 -1</clus>
<clus scale="   51.051">  5  9 -1 -1</clus>
<clus scale="   88.656">  7  8 -1 -1</clus>
<clus scale="  112.303">  2  7  1 -1</clus>
<clus scale="  137.806">  1  5  2 -1</clus>
</clustering>
</event>
<event>
 9    2  0.3726337E-005  0.7657923E+03  0.7546771E-02  0.9902369E-01
         -1   -1    0    0    0  501 -0.00000000000E+00  0.00000000000E+00  0.17251341596E+03  0.17251341596E+03  0.00000000000E+00 0.  1.
         21   -1    0    0  501  502  0.00000000000E+00 -0.00000000000E+00 -0.19047142079E+04  0.19047142079E+04  0.00000000000E+00 0.  1.
         23    2    1    2    0    0 -0.77509594166E+02 -0.26580522492E+03 -0.16987395195E+03  0.33731298129E+03  0.90899576525E+02 0.  0.
         24    2    1    2    0    0  0.24101970825E+03 -0.16639674074E+03 -0.65589275257E+03  0.72248805978E+03  0.77558484727E+02 0.  0.
        -11    1    4    4    0    0  0.88558715703E+02 -0.75283361746E+02 -0.34969646716E+03  0.36850759805E+03  0.00000000000E+00 0.  1.
         12    1    4    4    0    0  0.15246099254E+03 -0.91113378994E+02 -0.30619628541E+03  0.35398046172E+03  0.00000000000E+00 0. -1.
        -13    1    3    3    0    0 -0.63732710366E+02 -0.18299185860E+03 -0.16276342576E+03  0.25306088487E+03  0.00000000000E+00 0. -1.
         13    1    3    3    0    0 -0.13776883799E+02 -0.82813366316E+02 -0.71105261846E+01  0.84252096416E+02  0.00000000000E+00 0.  1.
         -2    1    1    2    0  502 -0.16351011408E+03  0.43220196566E+03 -0.90643408738E+03  0.10174265828E+04  0.00000000000E+00 0.  1.
<scales pt_clust_5="13000.00000" pt_clust_6="13000.00000" pt_clust_7="13000.00000" pt_clust_8="13000.00000" pt_clust_9="13000.00000"></scales>
<clustering>
<clus scale="   77.558">  5  6 -1 -1</clus>
<clus scale="   90.900">  7  8 -1 -1</clus>
<clus scale="  291.415">  1  7  2 -1</clus>
<clus scale="  340.176">  5  9 -1 -1</clus>
<clus scale="  765.792">  2  5  1 -1</clus>
</clustering>
</event>
<event>
 9    2  0.3726337E-005  0.4853913E+03  0.7546771E-02  0.1069605E+00
         21   -1    0    0  501  502  0.00000000000E+00  0.00000000000E+00  0.82334192168E+02  0.82334192168E+02  0.00000000000E+00 0. -1.
          2   -1    0    0  502    0 -0.00000000000E+00 -0.00000000000E+00 -0.12837800227E+04  0.12837800227E+04  0.00000000000E+00 0. -1.
         23    2    1    2    0    0  0.28350171767E+02 -0.50572156504E+02 -0.55400801857E+02  0.12151633729E+03  0.91300033563E+02 0.  0.
         24    2    1    2    0    0 -0.17559007612E+03  0.32593051470E+02 -0.17619845028E+03  0.26347340878E+03  0.80487026382E+02 0.  0.
        -11    1    4    4    0    0 -0.31559369533E+02  0.38018422908E+02 -0.28218703554E+02  0.56900698730E+02  0.00000000000E+00 0.  1.
         12    1    4    4    0    0 -0.14403070659E+03 -0.54253714377E+01 -0.14797974672E+03  0.20657271005E+03  0.00000000000E+00 0. -1.
        -13    1    3    3    0    0 -0.25102125428E+02  0.89982117988E+01 -0.22839553693E+02  0.35110251060E+02  0.00000000000E+00 0.  1.
         13    1    3    3    0    0  0.53452297195E+02 -0.59570368302E+02 -0.32561248164E+02  0.86406086227E+02  0.00000000000E+00 0. -1.
          1    1    1    2  501    0  0.14723990436E+03  0.17979105033E+02 -0.96984657842E+03  0.98112446883E+03  0.00000000000E+00 0. -1.
<scales pt_clust_5="13000.00000" pt_clust_6="13000.00000" pt_clust_7="13000.00000" pt_clust_8="13000.00000" pt_clust_9="13000.00000"></scales>
<clustering>
<clus scale="   80.487">  5  6 -1 -1</clus>
<clus scale="   91.300">  7  8 -1 -1</clus>
<clus scale="  108.153">  2  7  1 -1</clus>
<clus scale="  171.961">  5  9 -1 -1</clus>
<clus scale="  485.391">  1  5  2 -1</clus>
</clustering>
</event>
<event>
 9    2  0.3726337E-005  0.1964325E+03  0.7546771E-02  0.1182083E+00
         21   -1    0    0  501  502  0.00000000000E+00  0.00000000000E+00  0.13314499505E+03  0.13314499505E+03  0.00000000000E+00 0.  1.
          4   -1    0    0  502    0 -0.00000000000E+00 -0.00000000000E+00 -0.20692363321E+03  0.20692363321E+03  0.00000000000E+00 0. -1.
         23    2    1    2    0    0 -0.34591442492E+02  0.24375215932E+02  0.45738265853E+02  0.11013385026E+03  0.90811656546E+02 0.  0.
         24    2    1    2    0    0 -0.22911238284E+02  0.19735220299E+02  0.34735162165E+01  0.87179980014E+02  0.81693817638E+02 0.  0.
        -13    1    4    4    0    0 -0.41226034112E+02 -0.16983895665E+02 -0.62149455490E+01  0.45018486744E+02  0.00000000000E+00 0.  1.
         14    1    4    4    0    0  0.18314795827E+02  0.36719115964E+02  0.96884617655E+01  0.42161493270E+02  0.00000000000E+00 0. -1.
        -11    1    3    3    0    0  0.73819446855E+01  0.18841034896E+02  0.61665170859E+02  0.64900469955E+02  0.00000000000E+00 0.  1.
         11    1    3    3    0    0 -0.41973387177E+02  0.55341810363E+01 -0.15926905005E+02  0.45233380306E+02  0.00000000000E+00 0. -1.
          3    1    1    2  501    0  0.57502680776E+02 -0.44110436231E+02 -0.12299042023E+03  0.14275479799E+03  0.00000000000E+00 0. -1.
<scales pt_clust_5="13000.00000" pt_clust_6="13000.00000" pt_clust_7="13000.00000" pt_clust_8="13000.00000" pt_clust_9="13000.00000"></scales>
<clustering>
<clus scale="   81.694">  5  6 -1 -1</clus>
<clus scale="   72.473">  5  9 -1 -1</clus>
<clus scale="   90.812">  7  8 -1 -1</clus>
<clus scale="  100.187">  2  7  1 -1</clus>
<clus scale="  196.432">  1  5  2 -1</clus>
</clustering>
</event>
<event>
 9    2  0.3726337E-005  0.3017592E+03  0.7546771E-02  0.1122323E+00
          2   -1    0    0  502    0 -0.00000000000E+00  0.00000000000E+00  0.13859095319E+04  0.13859095319E+04  0.00000000000E+00 0. -1.
         21   -1    0    0  501  502  0.00000000000E+00 -0.00000000000E+00 -0.37441054100E+02  0.37441054100E+02  0.00000000000E+00 0. -1.
         23    2    1    2    0    0  0.70098630806E+02 -0.13121927567E+02  0.15318093740E+03  0.19056068805E+03  0.88107736439E+02 0.  0.
         24    2    1    2    0    0 -0.17243721218E+03  0.42724235299E+02  0.78815480621E+03  0.81194961340E+03  0.80710741052E+02 0.  0.
        -11    1    4    4    0    0 -0.11656931560E+03  0.63432686577E+02  0.47571833467E+03  0.49388262270E+03  0.00000000000E+00 0.  1.
         12    1    4    4    0    0 -0.55867896573E+02 -0.20708451278E+02  0.31243647155E+03  0.31806699070E+03  0.00000000000E+00 0. -1.
        -13    1    3    3    0    0  0.86537384768E+02 -0.25955495574E+02  0.10805343178E+03  0.14084726065E+03  0.00000000000E+00 0. -1.
         13    1    3    3    0    0 -0.16438753962E+02  0.12833568006E+02  0.45127505628E+02  0.49713427400E+02  0.00000000000E+00 0.  1.
          1    1    1    2  501    0  0.10233858137E+03 -0.29602307732E+02  0.40713273417E+03  0.42084028454E+03  0.00000000000E+00 0. -1.
<scales pt_clust_5="13000.00000" pt_clust_6="13000.00000" pt_clust_7="13000.00000" pt_clust_8="13000.00000" pt_clust_9="13000.00000"></scales>
<clustering>
<clus scale="   80.711">  5  6 -1 -1</clus>
<clus scale="   88.108">  7  8 -1 -1</clus>
<clus scale="  106.534">  5  9 -1 -1</clus>
<clus scale="  113.353">  1  7  2 -1</clus>
<clus scale="  301.759">  2  5  1 -1</clus>
</clustering>
</event>
<event>
 9    2  0.3726337E-005  0.3100730E+03  0.7546771E-02  0.1109192E+00
         21   -1    0    0  501  502  0.00000000000E+00  0.00000000000E+00  0.66695235517E+02  0.66695235517E+02  0.00000000000E+00 0. -1.
          2   -1    0    0  502    0 -0.00000000000E+00 -0.00000000000E+00 -0.79082905127E+03  0.79082905127E+03  0.00000000000E+00 0. -1.
         23    2    1    2    0    0 -0.67669426835E+02  0.90898756144E+02 -0.18210102141E+03  0.23306869547E+03  0.91205809105E+02 0.  0.
         24    2    1    2    0    0  0.10468254267E+03 -0.14998464753E+02 -0.52076514594E+03  0.53737437723E+03  0.79946828541E+02 0.  0.
        -11    1    4    4    0    0  0.95373871340E+02 -0.32176224760E+02 -0.31516734557E+03  0.33085032944E+03  0.00000000000E+00 0.  1.
         12    1    4    4    0    0  0.93086713309E+01  0.17177760008E+02 -0.20559780037E+03  0.20652404779E+03  0.00000000000E+00 0. -1.
        -13    1    3    3    0    0 -0.74904608067E+02  0.24782042789E+02 -0.10203487442E+03  0.12898048516E+03  0.00000000000E+00 0.  1.
         13    1    3    3    0    0  0.72351812314E+01  0.66116713355E+02 -0.80066146982E+02  0.10408821031E+03  0.00000000000E+00 0. -1.
          1    1    1    2  501    0 -0.37013115836E+02 -0.75900291392E+02 -0.21267648404E+02  0.87081214081E+02  0.00000000000E+00 0. -1.
<scales pt_clust_5="13000.00000" pt_clust_6="13000.00000" pt_clust_7="13000.00000" pt_clust_8="13000.00000" pt_clust_9="13000.00000"></scales>
<clustering>
<clus scale="   79.947">  5  6 -1 -1</clus>
<clus scale="   84.444">  5  9 -1 -1</clus>
<clus scale="   91.206">  7  8 -1 -1</clus>
<clus scale="  145.466">  2  7  1 -1</clus>
<clus scale="  310.073">  1  5  2 -1</clus>
</clustering>
</event>
<event>
 9    2  0.3726337E-005  0.1622022E+03  0.7546771E-02  0.1212480E+00
         -3   -1    0    0    0  501 -0.00000000000E+00  0.00000000000E+00  0.17379834535E+03  0.17379834535E+03  0.00000000000E+00 0.  1.
         21   -1    0    0  501  502  0.00000000000E+00 -0.00000000000E+00 -0.36909325049E+03  0.36909325049E+03  0.00000000000E+00 0.  1.
         23    2    1    2    0    0  0.74988731598E+01 -0.16383534261E+02  0.14177535896E+03  0.16882488412E+03  0.89871774205E+02 0.  0.
         24    2    1    2    0    0  0.18638323168E+02  0.42253415434E+02 -0.10678662791E+03  0.14086517468E+03  0.79415838044E+02 0.  0.
        -13    1    4    4    0    0  0.43502760695E+02  0.36688122345E+02 -0.99054894724E+02  0.11423826276E+03  0.00000000000E+00 0.  1.
         14    1    4    4    0    0 -0.24864437527E+02  0.55652930896E+01 -0.77317331865E+01  0.26626911927E+02  0.00000000000E+00 0. -1.
        -13    1    3    3    0    0 -0.18186490356E+02 -0.19478519814E+02  0.20532978674E+01  0.26727835635E+02  0.00000000000E+00 0. -1.
         13    1    3    3    0    0  0.25685363515E+02  0.30949855531E+01  0.13972206109E+03  0.14209704849E+03  0.00000000000E+00 0.  1.
         -4    1    1    2    0  502 -0.26137196328E+02 -0.25869881174E+02 -0.23028363618E+03  0.23320153704E+03  0.00000000000E+00 0.  1.
<scales pt_clust_5="13000.00000" pt_clust_6="13000.00000" pt_clust_7="13000.00000" pt_clust_8="13000.00000" pt_clust_9="13000.00000"></scales>
<clustering>
<clus scale="   79.416">  5  6 -1 -1</clus>
<clus scale="   36.775">  5  9 -1 -1</clus>
<clus scale="   89.872">  7  8 -1 -1</clus>
<clus scale="   91.660">  1  7  2 -1</clus>
<clus scale="  162.202">  2  5  1 -1</clus>
</clustering>
</event>
<event>
 9    2  0.3726337E-005  0.4995739E+03  0.7546771E-02  0.1057090E+00
         -3   -1    0    0    0  501 -0.00000000000E+00  0.00000000000E+00  0.32205331792E+03  0.32205331792E+03  0.00000000000E+00 0.  1.
         21   -1    0    0  501  502  0.00000000000E+00 -0.00000000000E+00 -0.38203370462E+03  0.38203370462E+03  0.00000000000E+00 0. -1.
         23    2    1    2    0    0 -0.18052768548E+02  0.10407970474E+03  0.10781171303E+03  0.17708770067E+03  0.92618577354E+02 0.  0.
         24    2    1    2    0    0  0.19066524718E+03 -0.20847990027E+03 -0.13445169081E+03  0.32253404005E+03  0.78318864440E+02 0.  0.
        -11    1    4    4    0    0  0.18920766533E+03 -0.17005165929E+03 -0.12180177615E+03  0.28205102397E+03  0.00000000000E+00 0.  1.
         12    1    4    4    0    0  0.14575818443E+01 -0.38428240980E+02 -0.12649914662E+02  0.40483016076E+02  0.00000000000E+00 0. -1.
        -13    1    3    3    0    0 -0.18097916273E+02 -0.13435597071E+02  0.22688301513E+02  0.31981383142E+02  0.00000000000E+00 0.  1.
         13    1    3    3    0    0  0.45147725241E-01  0.11751530181E+03  0.85123411520E+02  0.14510631753E+03  0.00000000000E+00 0. -1.
         -4    1    1    2    0  502 -0.17261247863E+03  0.10440019553E+03 -0.33340408918E+02  0.20446528183E+03  0.00000000000E+00 0.  1.
<scales pt_clust_5="13000.00000" pt_clust_6="13000.00000" pt_clust_7="13000.00000" pt_clust_8="13000.00000" pt_clust_9="13000.00000"></scales>
<clustering>
<clus scale="   78.319">  5  6 -1 -1</clus>
<clus scale="   92.619">  7  8 -1 -1</clus>
<clus scale="  140.487">  1  7  2 -1</clus>
<clus scale="  237.800">  5  9 -1 -1</clus>
<clus scale="  499.574">  2  5  1 -1</clus>
</clustering>
</event>
<event>
 9    2  0.3726337E-005  0.2860119E+03  0.7546771E-02  0.1112981E+00
          2   -1    0    0  502    0 -0.00000000000E+00  0.00000000000E+00  0.25996872247E+03  0.25996872247E+03  0.00000000000E+00 0. -1.
         21   -1    0    0  501  502  0.00000000000E+00 -0.00000000000E+00 -0.20606586479E+03  0.20606586479E+03  0.00000000000E+00 0. -1.
         23    2    1    2    0    0  0.52018496801E+02  0.12995734109E+03  0.63371412802E+02  0.17986603977E+03  0.93493431794E+02 0.  0.
         24    2    1    2    0    0 -0.28689933239E+01 -0.62462852348E+01  0.89234359676E+02  0.12045082235E+03  0.80612545283E+02 0.  0.
        -13    1    4    4    0    0 -0.26997441279E+02  0.22497744991E+02  0.16976230827E+02  0.39028230531E+02  0.00000000000E+00 0.  1.
         14    1    4    4    0    0  0.24128447955E+02 -0.28744030226E+02  0.72258128849E+02  0.81422591823E+02  0.00000000000E+00 0. -1.
        -13    1    3    3    0    0 -0.17751759155E+02  0.61962064011E+02  0.49905551227E+02  0.81516785834E+02  0.00000000000E+00 0.  1.
         13    1    3    3    0    0  0.69770255956E+02  0.67995277082E+02  0.13465861576E+02  0.98349253935E+02  0.00000000000E+00 0. -1.
          1    1    1    2  501    0 -0.49149503477E+02 -0.12371105586E+03 -0.98702914805E+02  0.16571772514E+03  0.00000000000E+00 0. -1.
<scales pt_clust_5="13000.00000" pt_clust_6="13000.00000" pt_clust_7="13000.00000" pt_clust_8="13000.00000" pt_clust_9="13000.00000"></scales>
<clustering>
<clus scale="   80.613">  5  6 -1 -1</clus>
<clus scale="   93.493">  7  8 -1 -1</clus>
<clus scale="  133.117">  5  9 -1 -1</clus>
<clus scale="  168.333">  1  7  2 -1</clus>
<clus scale="  286.012">  2  5  1 -1</clus>
</clustering>
</event>
<event>
 9    2  0.3726337E-005  0.2861906E+03  0.7546771E-02  0.1098439E+00
         21   -1    0    0  501  502  0.00000000000E+00  0.00000000000E+00  0.31871288746E+03  0.31871288746E+03  0.00000000000E+00 0. -1.
          2   -1    0    0  502    0 -0.00000000000E+00 -0.00000000000E+00 -0.71719223443E+03  0.71719223443E+03  0.00000000000E+00 0. -1.
         23    2    1    2    0    0 -0.90599749871E+02 -0.20799378217E+03 -0.62496890915E+03  0.67093585426E+03  0.89994750024E+02 0.  0.
         24    2    1    2    0    0  0.24252752511E+02  0.33520927574E+02  0.99388538918E+02  0.13914329222E+03  0.88152853118E+02 0.  0.
        -11    1    4    4    0    0  0.42341921064E+01  0.26019254485E+02 -0.96172118841E+01  0.28061018356E+02  0.00000000000E+00 0.  1.
         12    1    4    4    0    0  0.20018560405E+02  0.75016730895E+01  0.10900575080E+03  0.11108227387E+03  0.00000000000E+00 0. -1.
        -11    1    3    3    0    0 -0.24129321231E+02  0.56694308999E+00 -0.45591732527E+02  0.51586351318E+02  0.00000000000E+00 0.  1.
         11    1    3    3    0    0 -0.66470428639E+02 -0.20856072526E+03 -0.57937717663E+03  0.61934950295E+03  0.00000000000E+00 0. -1.
          1    1    1    2  501    0  0.66346997360E+02  0.17447285459E+03  0.12710102327E+03  0.22582597539E+03  0.00000000000E+00 0. -1.
<scales pt_clust_5="13000.00000" pt_clust_6="13000.00000" pt_clust_7="13000.00000" pt_clust_8="13000.00000" pt_clust_9="13000.00000"></scales>
<clustering>
<clus scale="   88.153">  5  6 -1 -1</clus>
<clus scale="   89.995">  7  8 -1 -1</clus>
<clus scale="  186.662">  5  9 -1 -1</clus>
<clus scale="  244.067">  2  7  1 -1</clus>
<clus scale="  286.191">  1  5  2 -1</clus>
</clustering>
</event>
<event>
 9    2  0.3726337E-005  0.2366751E+03  0.7546771E-02  0.1138820E+00
         -1   -1    0    0    0  501 -0.00000000000E+00  0.00000000000E+00  0.45115641308E+03  0.45115641308E+03  0.00000000000E+00 0.  1.
         21   -1    0    0  501  502  0.00000000000E+00 -0.00000000000E+00 -0.91012194034E+02  0.91012194034E+02  0.00000000000E+00 0.  1.
         23    2    1    2    0    0 -0.12323039502E+03  0.27378239861E+02  0.81778333926E+02  0.17678844286E+03  0.92904033027E+02 0.  0.
         24    2    1    2    0    0 -0.36297704083E+01 -0.23097231438E+02  0.35832713475E+02  0.91639104214E+02  0.81037551375E+02 0.  0.
        -13    1    4    4    0    0  0.29681607541E+02 -0.36646865066E+02  0.12557460986E+02  0.48802462764E+02  0.00000000000E+00 0.  1.
         14    1    4    4    0    0 -0.33311377949E+02  0.13549633628E+02  0.23275252489E+02  0.42836641450E+02  0.00000000000E+00 0. -1.
        -13    1    3    3    0    0 -0.84668534526E+02  0.58483662626E+02  0.73741099725E+02  0.12659719318E+03  0.00000000000E+00 0.  1.
         13    1    3    3    0    0 -0.38561860496E+02 -0.31105422765E+02  0.80372342010E+01  0.50191249675E+02  0.00000000000E+00 0. -1.
         -2    1    1    2    0  502  0.12686016543E+03 -0.42810084233E+01  0.24253317164E+03  0.27374106004E+03  0.00000000000E+00 0.  1.
<scales pt_clust_5="13000.00000" pt_clust_6="13000.00000" pt_clust_7="13000.00000" pt_clust_8="13000.00000" pt_clust_9="13000.00000"></scales>
<clustering>
<clus scale="   81.038">  5  6 -1 -1</clus>
<clus scale="   92.904">  7  8 -1 -1</clus>
<clus scale="  126.932">  5  9 -1 -1</clus>
<clus scale="  156.737">  1  7  2 -1</clus>
<clus scale="  236.675">  2  5  1 -1</clus>
</clustering>
</event>
<event>
 9    2  0.3726337E-005  0.1743713E+03  0.7546771E-02  0.1197638E+00
         21   -1    0    0  501  502  0.00000000000E+00  0.00000000000E+00  0.59760603750E+03  0.59760603750E+03  0.00000000000E+00 0. -1.
          2   -1    0    0  502    0 -0.00000000000E+00 -0.00000000000E+00 -0.37629411108E+02  0.37629411108E+02  0.00000000000E+00 0. -1.
         23    2    1    2    0    0 -0.41598233257E+02 -0.31779656138E+01  0.96714487892E+02  0.14024335471E+03  0.92595863283E+02 0.  0.
         24    2    1    2    0    0 -0.18145759303E+02 -0.35799919050E+02  0.15705849092E+03  0.18058901832E+03  0.79587192334E+02 0.  0.
        -13    1    4    4    0    0 -0.35078596608E+02  0.11239685698E+02  0.87414098057E+02  0.94858120442E+02  0.00000000000E+00 0.  1.
         14    1    4    4    0    0  0.16932837305E+02 -0.47039604748E+02  0.69644392866E+02  0.85730897883E+02  0.00000000000E+00 0. -1.
        -13    1    3    3    0    0  0.66831840784E+01 -0.38850119022E+02  0.52670384611E+02  0.65788799294E+02  0.00000000000E+00 0.  1.
         13    1    3    3    0    0 -0.48281417336E+02  0.35672153408E+02  0.44044103282E+02  0.74454555419E+02  0.00000000000E+00 0. -1.
          1    1    1    2  501    0  0.59743992560E+02  0.38977884664E+02  0.30620364757E+03  0.31440307557E+03  0.00000000000E+00 0. -1.
<scales pt_clust_5="13000.00000" pt_clust_6="13000.00000" pt_clust_7="13000.00000" pt_clust_8="13000.00000" pt_clust_9="13000.00000"></scales>
<clustering>
<clus scale="   79.587">  5  6 -1 -1</clus>
<clus scale="   71.335">  5  9 -1 -1</clus>
<clus scale="   92.596">  7  8 -1 -1</clus>
<clus scale="  101.560">  2  7  1 -1</clus>
<clus scale="  174.371">  1  5  2 -1</clus>
</clustering>
</event>
<event>
 9    2  0.3726337E-005  0.3423246E+03  0.7546771E-02  0.1110665E+00
         21   -1    0    0  501  502  0.00000000000E+00  0.00000000000E+00  0.32985701051E+03  0.32985701051E+03  0.00000000000E+00 0.  1.
         -3   -1    0    0    0  501 -0.00000000000E+00 -0.00000000000E+00 -0.17662986119E+03  0.17662986119E+03  0.00000000000E+00 0.  1.
         23    2    1    2    0    0  0.10481209142E+02  0.52905206832E+02 -0.42153338069E+02  0.11232995213E+03  0.89063446936E+02 0.  0.
         24    2    1    2    0    0 -0.15837388808E+03 -0.68984744737E+02  0.90504757688E+02  0.21214122051E+03  0.83496124714E+02 0.  0.
        -11    1    4    4    0    0 -0.12563277151E+03 -0.45010442489E+02  0.10419847431E+03  0.16931289159E+03  0.00000000000E+00 0.  1.
         12    1    4    4    0    0 -0.32741116572E+02 -0.23974302248E+02 -0.13693716626E+02  0.42828328916E+02  0.00000000000E+00 0. -1.
        -13    1    3    3    0    0 -0.28587282974E+02  0.49821652026E+02 -0.45098463388E+02  0.73029454047E+02  0.00000000000E+00 0.  1.
         13    1    3    3    0    0  0.39068492116E+02  0.30835548056E+01  0.29451253185E+01  0.39300498083E+02  0.00000000000E+00 0. -1.
         -4    1    1    2    0  502  0.14789267894E+03  0.16079537905E+02  0.10487572970E+03  0.18201569906E+03  0.00000000000E+00 0.  1.
<scales pt_clust_5="13000.00000" pt_clust_6="13000.00000" pt_clust_7="13000.00000" pt_clust_8="13000.00000" pt_clust_9="13000.00000"></scales>
<clustering>
<clus scale="   83.496">  5  6 -1 -1</clus>
<clus scale="   89.063">  7  8 -1 -1</clus>
<clus scale="  104.121">  2  7  1 -1</clus>
<clus scale="  156.308">  5  9 -1 -1</clus>
<clus scale="  342.325">  1  5  2 -1</clus>
</clustering>
</event>
<event>
 9    2  0.3726337E-005  0.1804966E+03  0.7546771E-02  0.1187104E+00
          2   -1    0    0  502    0 -0.00000000000E+00  0.00000000000E+00  0.10685044682E+04  0.10685044682E+04  0.00000000000E+00 0. -1.
         21   -1    0    0  501  502  0.00000000000E+00 -0.00000000000E+00 -0.20493961617E+02  0.20493961617E+02  0.00000000000E+00 0. -1.
         23    2    1    2    0    0 -0.40802026587E+02  0.62574940590E+02  0.40529034411E+03  0.42141455923E+03  0.88031466746E+02 0.  0.
         24    2    1    2    0    0  0.45718097935E+02  0.11083198879E+01  0.16567979524E+03  0.18628641849E+03  0.71843317802E+02 0.  0.
        -13    1    4    4    0    0 -0.18504773622E+02  0.86288441708E+01  0.36308499881E+02  0.41655621015E+02  0.00000000000E+00 0.  1.
         14    1    4    4    0    0  0.64222871557E+02 -0.75205242829E+01  0.12937129536E+03  0.14463079748E+03  0.00000000000E+00 0. -1.
        -11    1    3    3    0    0  0.16943322082E+02  0.54356141083E+02  0.21236966846E+03  0.21986937558E+03  0.00000000000E+00 0.  1.
         11    1    3    3    0    0 -0.57745348668E+02  0.82187995066E+01  0.19292067565E+03  0.20154518365E+03  0.00000000000E+00 0. -1.
          1    1    1    2  501    0 -0.49160713489E+01 -0.63683260478E+02  0.47704036724E+03  0.48129745210E+03  0.00000000000E+00 0. -1.
<scales pt_clust_5="13000.00000" pt_clust_6="13000.00000" pt_clust_7="13000.00000" pt_clust_8="13000.00000" pt_clust_9="13000.00000"></scales>
<clustering>
<clus scale="   71.843">  5  6 -1 -1</clus>
<clus scale="   63.873">  5  9 -1 -1</clus>
<clus scale="   88.031">  7  8 -1 -1</clus>
<clus scale="  115.456">  1  7  2 -1</clus>
<clus scale="  180.497">  2  5  1 -1</clus>
</clustering>
</event>
<event>
 9    2  0.3726337E-005  0.1498357E+03  0.7546771E-02  0.1220227E+00
         -3   -1    0    0    0  501 -0.00000000000E+00  0.00000000000E+00  0.48237883065E+03  0.48237883065E+03  0.00000000000E+00 0.  1.
         21   -1    0    0  501  502  0.00000000000E+00 -0.00000000000E+00 -0.39046727187E+02  0.39046727187E+02  0.00000000000E+00 0.  1.
         23    2    1    2    0    0 -0.34684031055E+02 -0.22432932857E+02  0.29295544043E+03  0.30914302716E+03  0.89667734870E+02 0.  0.
         24    2    1    2    0    0 -0.28412023201E+02  0.12394793036E+02  0.10044675956E+03  0.13119694888E+03  0.78499770276E+02 0.  0.
        -11    1    4    4    0    0 -0.24365496022E+02  0.27245098722E+02  0.79205993004E+01  0.37399314086E+02  0.00000000000E+00 0.  1.
         12    1    4    4    0    0 -0.40465271792E+01 -0.14850305687E+02  0.92526160260E+02  0.93797634798E+02  0.00000000000E+00 0. -1.
        -11    1    3    3    0    0 -0.42922527810E+00 -0.41189037994E+02  0.23907559738E+03  0.24259814993E+03  0.00000000000E+00 0.  1.
         11    1    3    3    0    0 -0.34254805777E+02  0.18756105137E+02  0.53879843048E+02  0.66544877231E+02  0.00000000000E+00 0. -1.
         -4    1    1    2    0  502  0.63096054256E+02  0.10038139822E+02  0.49929903467E+02  0.81085581789E+02  0.00000000000E+00 0.  1.
<scales pt_clust_5="13000.00000" pt_clust_6="13000.00000" pt_clust_7="13000.00000" pt_clust_8="13000.00000" pt_clust_9="13000.00000"></scales>
<clustering>
<clus scale="   78.500">  5  6 -1 -1</clus>
<clus scale="   63.890">  5  9 -1 -1</clus>
<clus scale="   89.668">  7  8 -1 -1</clus>
<clus scale="   98.724">  1  7  2 -1</clus>
<clus scale="  149.836">  2  5  1 -1</clus>
</clustering>
</event>
<event>
 9    2  0.3726337E-005  0.1745399E+03  0.7546771E-02  0.1184753E+00
         21   -1    0    0  501  502  0.00000000000E+00  0.00000000000E+00  0.25543070047E+02  0.25543070047E+02  0.00000000000E+00 0.  1.
         -1   -1    0    0    0  501 -0.00000000000E+00 -0.00000000000E+00 -0.95104037862E+03  0.95104037862E+03  0.00000000000E+00 0.  1.
         23    2    1    2    0    0 -0.20344770135E+02  0.97963419010E+02 -0.46678920463E+03  0.48579093366E+03  0.89944029985E+02 0.  0.
         24    2    1    2    0    0 -0.58763361892E+01 -0.93531794239E+02 -0.44348254964E+03  0.46014935560E+03  0.79233387921E+02 0.  0.
        -11    1    4    4    0    0 -0.20887408761E+02 -0.10237583325E+03 -0.39665537620E+03  0.41018603407E+03  0.00000000000E+00 0.  1.
         12    1    4    4    0    0  0.15011072572E+02  0.88440390070E+01 -0.46827173434E+02  0.49963321522E+02  0.00000000000E+00 0. -1.
        -11    1    3    3    0    0 -0.54900932519E+02  0.59988089924E+02 -0.32407135895E+03  0.33411813632E+03  0.00000000000E+00 0.  1.
         11    1    3    3    0    0  0.34556162385E+02  0.37975329086E+02 -0.14271784568E+03  0.15167279734E+03  0.00000000000E+00 0. -1.
         -2    1    1    2    0  502  0.26221106324E+02 -0.44316247710E+01 -0.15225554308E+02  0.30643159415E+02  0.00000000000E+00 0.  1.
<scales pt_clust_5="13000.00000" pt_clust_6="13000.00000" pt_clust_7="13000.00000" pt_clust_8="13000.00000" pt_clust_9="13000.00000"></scales>
<clustering>
<clus scale="   79.233">  5  6 -1 -1</clus>
<clus scale="   26.593">  5  9 -1 -1</clus>
<clus scale="   89.944">  7  8 -1 -1</clus>
<clus scale="  134.539">  2  7  1 -1</clus>
<clus scale="  174.540">  1  5  2 -1</clus>
</clustering>
</event>
<event>
 9    2  0.3726337E-005  0.2048048E+03  0.7546771E-02  0.1177458E+00
          2   -1    0    0  502    0 -0.00000000000E+00  0.00000000000E+00  0.35303842579E+03  0.35303842579E+03  0.00000000000E+00 0. -1.
         21   -1    0    0  501  502  0.00000000000E+00 -0.00000000000E+00 -0.90947096186E+02  0.90947096186E+02  0.00000000000E+00 0. -1.
         23    2    1    2    0    0  0.90862338628E+00  0.36155832348E+02  0.21133283507E+03  0.23298446063E+03  0.91170839124E+02 0.  0.
         24    2    1    2    0    0  0.29287122491E+01 -0.10611726921E+03  0.37829033116E+02  0.13975150861E+03  0.82643791264E+02 0.  0.
        -13    1    4    4    0    0 -0.13379882322E+02 -0.24683246133E+02  0.48477130996E+02  0.56020675828E+02  0.00000000000E+00 0.  1.
         14    1    4    4    0    0  0.16308594571E+02 -0.81434023072E+02 -0.10648097881E+02  0.83730832787E+02  0.00000000000E+00 0. -1.
        -11    1    3    3    0    0  0.42288102860E+02  0.12965586946E+01  0.11441528155E+03  0.12198697209E+03  0.00000000000E+00 0. -1.
         11    1    3    3    0    0 -0.41379479474E+02  0.34859273654E+02  0.96917553521E+02  0.11099748854E+03  0.00000000000E+00 0.  1.
          1    1    1    2  501    0 -0.38373356354E+01  0.69961436857E+02  0.12929461418E+02  0.71249552731E+02  0.00000000000E+00 0. -1.
<scales pt_clust_5="13000.00000" pt_clust_6="13000.00000" pt_clust_7="13000.00000" pt_clust_8="13000.00000" pt_clust_9="13000.00000"></scales>
<clustering>
<clus scale="   82.644">  5  6 -1 -1</clus>
<clus scale="   70.067">  5  9 -1 -1</clus>
<clus scale="   91.171">  7  8 -1 -1</clus>
<clus scale="   98.083">  1  7  2 -1</clus>
<clus scale="  204.805">  2  5  1 -1</clus>
</clustering>
</event>
<event>
 9    2  0.3726337E-005  0.3483553E+03  0.7546771E-02  0.1080481E+00
         21   -1    0    0  501  502  0.00000000000E+00  0.00000000000E+00  0.29674406612E+03  0.29674406612E+03  0.00000000000E+00 0.  1.
         -3   -1    0    0    0  501 -0.00000000000E+00 -0.00000000000E+00 -0.29353315652E+03  0.29353315652E+03  0.00000000000E+00 0.  1.
         23    2    1    2    0    0 -0.17746026272E+02  0.19985675136E+03 -0.80368846098E+02  0.23203573953E+03  0.84402550210E+02 0.  0.
         24    2    1    2    0    0  0.52638016560E+01  0.37117114223E+02  0.84232091944E+01  0.10932196724E+03  0.10234722416E+03 0.  0.
        -13    1    4    4    0    0  0.22350658057E+02  0.18723803561E+02  0.51662766975E+02  0.59322628288E+02  0.00000000000E+00 0.  1.
         14    1    4    4    0    0 -0.17086856401E+02  0.18393310661E+02 -0.43239557781E+02  0.49999338954E+02  0.00000000000E+00 0. -1.
        -13    1    3    3    0    0  0.16875926505E+02  0.47279825259E+02  0.10242000394E+02  0.51235508624E+02  0.00000000000E+00 0. -1.
         13    1    3    3    0    0 -0.34621952777E+02  0.15257692610E+03 -0.90610846491E+02  0.18080023090E+03  0.00000000000E+00 0.  1.
         -4    1    1    2    0  502  0.12482224616E+02 -0.23697386558E+03  0.75156546505E+02  0.24891951588E+03  0.00000000000E+00 0.  1.
<scales pt_clust_5="13000.00000" pt_clust_6="13000.00000" pt_clust_7="13000.00000" pt_clust_8="13000.00000" pt_clust_9="13000.00000"></scales>
<clustering>
<clus scale="   84.403">  7  8 -1 -1</clus>
<clus scale="  102.347">  5  6 -1 -1</clus>
<clus scale="  217.673">  2  7  1 -1</clus>
<clus scale="  110.543">  5  9 -1 -1</clus>
<clus scale="  348.355">  1  5  2 -1</clus>
</clustering>
</event>
<event>
 9    2  0.3726337E-005  0.4016663E+03  0.7546771E-02  0.1096197E+00
          2   -1    0    0  502    0 -0.00000000000E+00  0.00000000000E+00  0.26787438610E+03  0.26787438610E+03  0.00000000000E+00 0. -1.
         21   -1    0    0  501  502  0.00000000000E+00 -0.00000000000E+00 -0.23480734179E+03  0.23480734179E+03  0.00000000000E+00 0.  1.
         23    2    1    2    0    0  0.22014598130E+02  0.75467426009E+01 -0.24900964842E+02  0.96854069694E+02  0.90659014508E+02 0.  0.
         24    2    1    2    0    0 -0.20316797906E+03  0.18795844843E+02  0.26451717971E+02  0.22007579159E+03  0.78122654605E+02 0.  0.
        -13    1    4    4    0    0 -0.85134334730E+02 -0.27144976949E+02  0.27231331588E+02  0.93414400087E+02  0.00000000000E+00 0.  1.
         14    1    4    4    0    0 -0.11803364433E+03  0.45940821792E+02 -0.77961361689E+00  0.12666139151E+03  0.00000000000E+00 0. -1.
        -13    1    3    3    0    0 -0.28250724746E+02 -0.19848663392E+02 -0.18721293376E+02  0.39275433961E+02  0.00000000000E+00 0. -1.
         13    1    3    3    0    0  0.50265322877E+02  0.27395405993E+02 -0.61796714662E+01  0.57578635733E+02  0.00000000000E+00 0.  1.
          1    1    1    2  501    0  0.18115338093E+03 -0.26342587444E+02  0.31516291181E+02  0.18575186660E+03  0.00000000000E+00 0. -1.
<scales pt_clust_5="13000.00000" pt_clust_6="13000.00000" pt_clust_7="13000.00000" pt_clust_8="13000.00000" pt_clust_9="13000.00000"></scales>
<clustering>
<clus scale="   78.123">  5  6 -1 -1</clus>
<clus scale="   90.659">  7  8 -1 -1</clus>
<clus scale="   93.598">  1  7  2 -1</clus>
<clus scale="  192.820">  5  9 -1 -1</clus>
<clus scale="  401.666">  2  5  1 -1</clus>
</clustering>
</event>
<event>
 9    2  0.3726337E-005  0.4073557E+03  0.7546771E-02  0.1084149E+00
         21   -1    0    0  501  502  0.00000000000E+00  0.00000000000E+00  0.14501372454E+03  0.14501372454E+03  0.00000000000E+00 0. -1.
          2   -1    0    0  502    0 -0.00000000000E+00 -0.00000000000E+00 -0.54246558682E+03  0.54246558682E+03  0.00000000000E+00 0. -1.
         23    2    1    2    0    0 -0.75138914269E+02 -0.29392148490E+02 -0.75585138006E+01  0.12360385529E+03  0.93332883173E+02 0.  0.
         24    2    1    2    0    0  0.15077674017E+03 -0.38105857251E+02 -0.42075028203E+03  0.45790748055E+03  0.91993364872E+02 0.  0.
        -13    1    4    4    0    0  0.43666064785E+01 -0.30409155740E+02 -0.44254093384E+02  0.53872152233E+02  0.00000000000E+00 0.  1.
         14    1    4    4    0    0  0.14641013369E+03 -0.76967015107E+01 -0.37649618865E+03  0.40403532831E+03  0.00000000000E+00 0. -1.
        -11    1    3    3    0    0 -0.32623966677E+02  0.26808387332E+02 -0.27470134193E+02  0.50374806259E+02  0.00000000000E+00 0.  1.
         11    1    3    3    0    0 -0.42514947592E+02 -0.56200535821E+02  0.19911620393E+02  0.73229049031E+02  0.00000000000E+00 0. -1.
          1    1    1    2  501    0 -0.75637825903E+02  0.67498005741E+02  0.30856933550E+02  0.10596797551E+03  0.00000000000E+00 0. -1.
<scales pt_clust_5="13000.00000" pt_clust_6="13000.00000" pt_clust_7="13000.00000" pt_clust_8="13000.00000" pt_clust_9="13000.00000"></scales>
<clustering>
<clus scale="   91.993">  5  6 -1 -1</clus>
<clus scale="   93.333">  7  8 -1 -1</clus>
<clus scale="  101.376">  5  9 -1 -1</clus>
<clus scale="  123.373">  2  7  1 -1</clus>
<clus scale="  407.356">  1  5  2 -1</clus>
</clustering>
</event>
<event>
 9    2  0.3726337E-005  0.2781678E+03  0.7546771E-02  0.1132450E+00
         21   -1    0    0  501  502  0.00000000000E+00  0.00000000000E+00  0.34950861974E+03  0.34950861974E+03  0.00000000000E+00 0.  1.
         -3   -1    0    0    0  501 -0.00000000000E+00 -0.00000000000E+00 -0.16656296456E+03  0.16656296456E+03  0.00000000000E+00 0.  1.
         23    2    1    2    0    0 -0.54024663982E+01 -0.65663098402E+02 -0.76074157642E+02  0.13598131740E+03  0.91448412160E+02 0.  0.
         24    2    1    2    0    0  0.10136837910E+02 -0.42945863484E+02 -0.83009539554E+01  0.91509752608E+02  0.79737232913E+02 0.  0.
        -13    1    4    4    0    0  0.44709349862E+02 -0.31032284462E+02 -0.74594909061E+01  0.54932437126E+02  0.00000000000E+00 0.  1.
         14    1    4    4    0    0 -0.34572511952E+02 -0.11913579021E+02 -0.84146304934E+00  0.36577315482E+02  0.00000000000E+00 0. -1.
        -13    1    3    3    0    0  0.12044171799E+02  0.19073873674E+02 -0.30413141844E+01  0.22762344414E+02  0.00000000000E+00 0. -1.
         13    1    3    3    0    0 -0.17446638197E+02 -0.84736972076E+02 -0.73032843457E+02  0.11321897299E+03  0.00000000000E+00 0.  1.
         -4    1    1    2    0  502 -0.47343715116E+01  0.10860896189E+03  0.26732076678E+03  0.28858051429E+03  0.00000000000E+00 0.  1.
<scales pt_clust_5="13000.00000" pt_clust_6="13000.00000" pt_clust_7="13000.00000" pt_clust_8="13000.00000" pt_clust_9="13000.00000"></scales>
<clustering>
<clus scale="   79.737">  5  6 -1 -1</clus>
<clus scale="   91.448">  7  8 -1 -1</clus>
<clus scale="  108.712">  5  9 -1 -1</clus>
<clus scale="  112.710">  2  7  1 -1</clus>
<clus scale="  278.168">  1  5  2 -1</clus>
</clustering>
</event>
<event>
 9    2  0.3726337E-005  0.2954379E+03  0.7546771E-02  0.1113475E+00
         21   -1    0    0  501  502  0.00000000000E+00  0.00000000000E+00  0.23277041634E+03  0.23277041634E+03  0.00000000000E+00 0. -1.
          2   -1    0    0  502    0 -0.00000000000E+00 -0.00000000000E+00 -0.51817393949E+03  0.51817393949E+03  0.00000000000E+00 0. -1.
         23    2    1    2    0    0 -0.10590049112E+02  0.11459351301E+03  0.15780366619E+03  0.21829424375E+03  0.97501576545E+02 0.  0.
         24    2    1    2    0    0 -0.15874085135E+02  0.65750265409E+02 -0.11112504914E+03  0.15383250867E+03  0.82101036508E+02 0.  0.
        -13    1    4    4    0    0  0.15326607310E+02  0.15396237351E+02 -0.87335937258E+02  0.89997305254E+02  0.00000000000E+00 0.  1.
         14    1    4    4    0    0 -0.31200692444E+02  0.50354028058E+02 -0.23789111885E+02  0.63835203414E+02  0.00000000000E+00 0. -1.
        -11    1    3    3    0    0 -0.93137866069E+01  0.74216505354E+02  0.24045052523E+02  0.78568446839E+02  0.00000000000E+00 0.  1.
         11    1    3    3    0    0 -0.12762625054E+01  0.40377007655E+02  0.13375861367E+03  0.13972579691E+03  0.00000000000E+00 0. -1.
          1    1    1    2  501    0  0.26464134247E+02 -0.18034377842E+03 -0.33208214020E+03  0.37881760341E+03  0.00000000000E+00 0. -1.
<scales pt_clust_5="13000.00000" pt_clust_6="13000.00000" pt_clust_7="13000.00000" pt_clust_8="13000.00000" pt_clust_9="13000.00000"></scales>
<clustering>
<clus scale="   82.101">  5  6 -1 -1</clus>
<clus scale="   97.502">  7  8 -1 -1</clus>
<clus scale="  150.832">  2  7  1 -1</clus>
<clus scale="   98.662">  5  9 -1 -1</clus>
<clus scale="  295.438">  1  5  2 -1</clus>
</clustering>
</event>
<event>
 9    2  0.3726337E-005  0.1920165E+03  0.7546771E-02  0.1182244E+00
         21   -1    0    0  501  502  0.00000000000E+00  0.00000000000E+00  0.31395312813E+03  0.31395312813E+03  0.00000000000E+00 0.  1.
         -1   -1    0    0    0  501 -0.00000000000E+00 -0.00000000000E+00 -0.73474113811E+02  0.73474113811E+02  0.00000000000E+00 0.  1.
         23    2    1    2    0    0  0.32626920731E+02 -0.44135640436E+02  0.12024154724E+03  0.16087178282E+03  0.91701854460E+02 0.  0.
         24    2    1    2    0    0 -0.67111662849E+02 -0.29513026421E+02  0.51758849771E+02  0.12024156259E+03  0.80025376128E+02 0.  0.
        -13    1    4    4    0    0 -0.80225904630E+02 -0.47658417180E+01  0.35517347745E+02  0.87865755626E+02  0.00000000000E+00 0.  1.
         14    1    4    4    0    0  0.13114241780E+02 -0.24747184703E+02  0.16241502026E+02  0.32375806959E+02  0.00000000000E+00 0. -1.
        -13    1    3    3    0    0  0.13618448170E+02 -0.69785236305E+02  0.10126062644E+03  0.12373017338E+03  0.00000000000E+00 0.  1.
         13    1    3    3    0    0  0.19008472562E+02  0.25649595869E+02  0.18980920792E+02  0.37141609436E+02  0.00000000000E+00 0. -1.
         -2    1    1    2    0  502  0.34484742118E+02  0.73648666857E+02  0.68478617313E+02  0.10631389654E+03  0.00000000000E+00 0.  1.
<scales pt_clust_5="13000.00000" pt_clust_6="13000.00000" pt_clust_7="13000.00000" pt_clust_8="13000.00000" pt_clust_9="13000.00000"></scales>
<clustering>
<clus scale="   80.025">  5  6 -1 -1</clus>
<clus scale="   81.322">  5  9 -1 -1</clus>
<clus scale="   91.702">  7  8 -1 -1</clus>
<clus scale="  106.872">  2  7  1 -1</clus>
<clus scale="  192.016">  1  5  2 -1</clus>
</clustering>
</event>
<event>
 9    2  0.3726337E-005  0.3876769E+03  0.7546771E-02  0.1099473E+00
          2   -1    0    0  502    0 -0.00000000000E+00  0.00000000000E+00  0.27757726607E+03  0.27757726607E+03  0.00000000000E+00 0. -1.
         21   -1    0    0  501  502  0.00000000000E+00 -0.00000000000E+00 -0.28643860325E+03  0.28643860325E+03  0.00000000000E+00 0. -1.
         23    2    1    2    0    0 -0.20083259891E+01 -0.15173362401E+02  0.12187611843E+03  0.15488790555E+03  0.94351527497E+02 0.  0.
         24    2    1    2    0    0 -0.52367469396E+01  0.14770601742E+03 -0.19782687745E+03  0.26040544950E+03  0.82650067082E+02 0.  0.
        -13    1    4    4    0    0 -0.36783511971E+02  0.55628092046E+02 -0.49741029001E+02  0.83196642623E+02  0.00000000000E+00 0.  1.
         14    1    4    4    0    0  0.31546765031E+02  0.92077925370E+02 -0.14808584845E+03  0.17720880688E+03  0.00000000000E+00 0. -1.
        -13    1    3    3    0    0  0.30351496564E+02 -0.23421652705E+02  0.11441888657E+03  0.12067091101E+03  0.00000000000E+00 0. -1.
         13    1    3    3    0    0 -0.32359822553E+02  0.82482903034E+01  0.74572318653E+01  0.34216994545E+02  0.00000000000E+00 0.  1.
          1    1    1    2  501    0  0.72450729287E+01 -0.13253265502E+03  0.67089421841E+02  0.14872251427E+03  0.00000000000E+00 0. -1.
<scales pt_clust_5="13000.00000" pt_clust_6="13000.00000" pt_clust_7="13000.00000" pt_clust_8="13000.00000" pt_clust_9="13000.00000"></scales>
<clustering>
<clus scale="   82.650">  5  6 -1 -1</clus>
<clus scale="   94.352">  7  8 -1 -1</clus>
<clus scale="   95.585">  1  7  2 -1</clus>
<clus scale="  144.407">  5  9 -1 -1</clus>
<clus scale="  387.677">  2  5  1 -1</clus>
</clustering>
</event>
<event>
 9    2  0.3726337E-005  0.4057188E+03  0.7546771E-02  0.1063380E+00
         21   -1    0    0  501  502  0.00000000000E+00  0.00000000000E+00  0.63611812635E+03  0.63611812635E+03  0.00000000000E+00 0.  1.
         -1   -1    0    0    0  501 -0.00000000000E+00 -0.00000000000E+00 -0.16583958646E+03  0.16583958646E+03  0.00000000000E+00 0.  1.
         23    2    1    2    0    0  0.60068861978E+02 -0.19092074458E+03  0.67077062725E+02  0.22996193762E+03  0.91236842990E+02 0.  0.
         24    2    1    2    0    0  0.46522033936E+02 -0.21368844540E+02  0.29684085646E+03  0.31172462739E+03  0.80229808042E+02 0.  0.
        -11    1    4    4    0    0  0.15936891156E+02 -0.50478225371E+02  0.16783885027E+03  0.17598839563E+03  0.00000000000E+00 0.  1.
         12    1    4    4    0    0  0.30585142780E+02  0.29109380831E+02  0.12900200618E+03  0.13573623175E+03  0.00000000000E+00 0. -1.
        -13    1    3    3    0    0  0.46307271838E+02 -0.15134581477E+03  0.92377042617E+01  0.15854101757E+03  0.00000000000E+00 0.  1.
         13    1    3    3    0    0  0.13761590140E+02 -0.39574929815E+02  0.57839358463E+02  0.71420920048E+02  0.00000000000E+00 0. -1.
         -2    1    1    2    0  502 -0.10659089591E+03  0.21228958912E+03  0.10636062070E+03  0.26027114780E+03  0.00000000000E+00 0.  1.
<scales pt_clust_5="13000.00000" pt_clust_6="13000.00000" pt_clust_7="13000.00000" pt_clust_8="13000.00000" pt_clust_9="13000.00000"></scales>
<clustering>
<clus scale="   80.230">  5  6 -1 -1</clus>
<clus scale="   91.237">  7  8 -1 -1</clus>
<clus scale="  219.962">  2  7  1 -1</clus>
<clus scale="   64.379">  5  9 -1 -1</clus>
<clus scale="  405.719">  1  5  2 -1</clus>
</clustering>
</event>
<event>
 9    2  0.3726337E-005  0.2802011E+03  0.7546771E-02  0.1135035E+00
          2   -1    0    0  502    0 -0.00000000000E+00  0.00000000000E+00  0.12001317890E+04  0.12001317890E+04  0.00000000000E+00 0. -1.
         21   -1    0    0  501  502  0.00000000000E+00 -0.00000000000E+00 -0.30677688622E+02  0.30677688622E+02  0.00000000000E+00 0. -1.
         23    2    1    2    0    0  0.28694181569E+01 -0.50529148825E+02  0.32113532660E+03  0.33741292259E+03  0.90322499417E+02 0.  0.
         24    2    1    2    0    0 -0.48575764512E+02 -0.87240553166E+02  0.30974126535E+03  0.33560152685E+03  0.81964714025E+02 0.  0.
        -11    1    4    4    0    0  0.23181381081E+02 -0.18741892806E+02  0.79099461487E+02  0.84530229991E+02  0.00000000000E+00 0.  1.
         12    1    4    4    0    0 -0.71757145592E+02 -0.68498660360E+02  0.23064180386E+03  0.25107129686E+03  0.00000000000E+00 0. -1.
        -13    1    3    3    0    0 -0.83095773184E+01  0.24686125247E+02  0.10872868479E+03  0.11180510163E+03  0.00000000000E+00 0.  1.
         13    1    3    3    0    0  0.11178995475E+02 -0.75215274072E+02  0.21240664181E+03  0.22560782096E+03  0.00000000000E+00 0. -1.
          1    1    1    2  501    0  0.45706346355E+02  0.13776970199E+03  0.53857750844E+03  0.55779502820E+03  0.00000000000E+00 0. -1.
<scales pt_clust_5="13000.00000" pt_clust_6="13000.00000" pt_clust_7="13000.00000" pt_clust_8="13000.00000" pt_clust_9="13000.00000"></scales>
<clustering>
<clus scale="   81.965">  5  6 -1 -1</clus>
<clus scale="   90.322">  7  8 -1 -1</clus>
<clus scale="  103.535">  1  7  2 -1</clus>
<clus scale="  116.127">  5  9 -1 -1</clus>
<clus scale="  280.201">  2  5  1 -1</clus>
</clustering>
</event>
<event>
 9    2  0.3726337E-005  0.2932036E+03  0.7546771E-02  0.1134172E+00
         -1   -1    0    0    0  501 -0.00000000000E+00  0.00000000000E+00  0.75586498239E+02  0.75586498239E+02  0.00000000000E+00 0.  1.
         21   -1    0    0  501  502  0.00000000000E+00 -0.00000000000E+00 -0.55813938181E+03  0.55813938181E+03  0.00000000000E+00 0.  1.
         23    2    1    2    0    0  0.30993510731E+02 -0.28238444380E+01 -0.35034480644E+02  0.98710869100E+02  0.86878357717E+02 0.  0.
         24    2    1    2    0    0 -0.54787970038E+02 -0.12702410203E+03 -0.20576966836E+03  0.25957152099E+03  0.76807382040E+02 0.  0.
        -11    1    4    4    0    0 -0.45537584563E+02 -0.13436940013E+03 -0.20260838057E+03  0.24734381572E+03  0.00000000000E+00 0.  1.
         12    1    4    4    0    0 -0.92503854742E+01  0.73452981020E+01 -0.31612877893E+01  0.12227705268E+02  0.00000000000E+00 0. -1.
        -13    1    3    3    0    0  0.60809893798E+02 -0.17653289704E+01 -0.14643089754E+02  0.62572994555E+02  0.00000000000E+00 0.  1.
         13    1    3    3    0    0 -0.29816383067E+02 -0.10585154675E+01 -0.20391390891E+02  0.36137874545E+02  0.00000000000E+00 0. -1.
         -2    1    1    2    0  502  0.23794459307E+02  0.12984794647E+03 -0.24174873457E+03  0.27544348996E+03  0.00000000000E+00 0.  1.
<scales pt_clust_5="13000.00000" pt_clust_6="13000.00000" pt_clust_7="13000.00000" pt_clust_8="13000.00000" pt_clust_9="13000.00000"></scales>
<clustering>
<clus scale="   76.807">  5  6 -1 -1</clus>
<clus scale="   86.878">  7  8 -1 -1</clus>
<clus scale="   92.284">  1  7  2 -1</clus>
<clus scale="  133.626">  5  9 -1 -1</clus>
<clus scale="  293.204">  2  5  1 -1</clus>
</clustering>
</event>
<event>
 9    2  0.3726337E-005  0.2594830E+03  0.7546771E-02  0.1140618E+00
         -1   -1    0    0    0  501 -0.00000000000E+00  0.00000000000E+00  0.11617532710E+03  0.11617532710E+03  0.00000000000E+00 0.  1.
         21   -1    0    0  501  502  0.00000000000E+00 -0.00000000000E+00 -0.32706594440E+03  0.32706594440E+03  0.00000000000E+00 0.  1.
         23    2    1    2    0    0 -0.56343012228E+02 -0.37479429325E+02 -0.12688806107E+03  0.17049993702E+03  0.91599158476E+02 0.  0.
         24    2    1    2    0    0  0.11850075845E+03  0.78908438224E+02 -0.60204314348E+01  0.16475448351E+03  0.82697175690E+02 0.  0.
        -13    1    4    4    0    0  0.12268232293E+03  0.54552144602E+02 -0.20940083470E+02  0.13588736489E+03  0.00000000000E+00 0.  1.
         14    1    4    4    0    0 -0.41815644883E+01  0.24356293623E+02  0.14919652035E+02  0.28867118620E+02  0.00000000000E+00 0. -1.
        -13    1    3    3    0    0  0.18404755448E+02 -0.27731475860E+02 -0.64774781694E+02  0.72825422209E+02  0.00000000000E+00 0. -1.
         13    1    3    3    0    0 -0.74747767677E+02 -0.97479534644E+01 -0.62113279377E+02  0.97674514815E+02  0.00000000000E+00 0.  1.
         -2    1    1    2    0  502 -0.62157746218E+02 -0.41429008900E+02 -0.77982124795E+02  0.10798685096E+03  0.00000000000E+00 0.  1.
<scales pt_clust_5="13000.00000" pt_clust_6="13000.00000" pt_clust_7="13000.00000" pt_clust_8="13000.00000" pt_clust_9="13000.00000"></scales>
<clustering>
<clus scale="   82.697">  5  6 -1 -1</clus>
<clus scale="   74.699">  5  9 -1 -1</clus>
<clus scale="   91.599">  7  8 -1 -1</clus>
<clus scale="  113.884">  1  7  2 -1</clus>
<clus scale="  259.483">  2  5  1 -1</clus>
</clustering>
</event>
<event>
 9    2  0.3726337E-005  0.1369343E+03  0.7546771E-02  0.1236430E+00
         -3   -1    0    0    0  501 -0.00000000000E+00  0.00000000000E+00  0.16695572015E+03  0.16695572015E+03  0.00000000000E+00 0.  1.
         21   -1    0    0  501  502  0.00000000000E+00 -0.00000000000E+00 -0.11586335378E+03  0.11586335378E+03  0.00000000000E+00 0.  1.
         23    2    1    2    0    0  0.11206892830E+02  0.28897700500E+01  0.10112421916E+03  0.13703087890E+03  0.91746437823E+02 0.  0.
         24    2    1    2    0    0  0.20546033448E+02 -0.13350800865E+02 -0.67458281739E+02  0.10808724121E+03  0.80819852532E+02 0.  0.
        -11    1    4    4    0    0  0.47189049935E+02 -0.19213926195E+02 -0.62028671161E+02  0.80271647794E+02  0.00000000000E+00 0.  1.
         12    1    4    4    0    0 -0.26643016487E+02  0.58631253299E+01 -0.54296105782E+01  0.27815593418E+02  0.00000000000E+00 0. -1.
        -13    1    3    3    0    0 -0.17998357018E+02 -0.34758918499E+02  0.69744990611E+02  0.79978040648E+02  0.00000000000E+00 0.  1.
         13    1    3    3    0    0  0.29205249847E+02  0.37648688549E+02  0.31379228545E+02  0.57052838248E+02  0.00000000000E+00 0. -1.
         -4    1    1    2    0  502 -0.31752926278E+02  0.10461030815E+02  0.17426428948E+02  0.37700953818E+02  0.00000000000E+00 0.  1.
<scales pt_clust_5="13000.00000" pt_clust_6="13000.00000" pt_clust_7="13000.00000" pt_clust_8="13000.00000" pt_clust_9="13000.00000"></scales>
<clustering>
<clus scale="   80.820">  5  6 -1 -1</clus>
<clus scale="   33.432">  5  9 -1 -1</clus>
<clus scale="   91.746">  7  8 -1 -1</clus>
<clus scale="   92.474">  1  7  2 -1</clus>
<clus scale="  136.934">  2  5  1 -1</clus>
</clustering>
</event>
<event>
 9    2  0.3726337E-005  0.1843163E+03  0.7546771E-02  0.1193723E+00
         21   -1    0    0  501  502  0.00000000000E+00  0.00000000000E+00  0.99846673621E+02  0.99846673621E+02  0.00000000000E+00 0.  1.
         -1   -1    0    0    0  501 -0.00000000000E+00 -0.00000000000E+00 -0.19389652399E+03  0.19389652399E+03  0.00000000000E+00 0.  1.
         23    2    1    2    0    0 -0.24578447576E+01  0.15056623918E+02 -0.25483584385E+02  0.97086593500E+02  0.92431870260E+02 0.  0.
         24    2    1    2    0    0 -0.72043203031E+02 -0.15884787129E+02 -0.40157415774E+02  0.11691856585E+03  0.81331318897E+02 0.  0.
        -13    1    4    4    0    0 -0.40403333804E+02  0.14045242633E+02  0.16159253224E+02  0.45725481822E+02  0.00000000000E+00 0.  1.
         14    1    4    4    0    0 -0.31639869227E+02 -0.29930029762E+02 -0.56316668998E+02  0.71193084027E+02  0.00000000000E+00 0. -1.
        -13    1    3    3    0    0  0.18572936931E+02  0.44638550868E+02  0.64071247865E+01  0.48770948912E+02  0.00000000000E+00 0.  1.
         13    1    3    3    0    0 -0.21030781689E+02 -0.29581926949E+02 -0.31890709172E+02  0.48315644588E+02  0.00000000000E+00 0. -1.
         -2    1    1    2    0  502  0.74501047788E+02  0.82816321088E+00 -0.28408850213E+02  0.79738038264E+02  0.00000000000E+00 0.  1.
<scales pt_clust_5="13000.00000" pt_clust_6="13000.00000" pt_clust_7="13000.00000" pt_clust_8="13000.00000" pt_clust_9="13000.00000"></scales>
<clustering>
<clus scale="   81.331">  5  6 -1 -1</clus>
<clus scale="   74.506">  5  9 -1 -1</clus>
<clus scale="   92.432">  7  8 -1 -1</clus>
<clus scale="   93.682">  2  7  1 -1</clus>
<clus scale="  184.316">  1  5  2 -1</clus>
</clustering>
</event>
<event>
 9    2  0.3726337E-005  0.3219198E+03  0.7546771E-02  0.1118981E+00
          4   -1    0    0  502    0 -0.00000000000E+00  0.00000000000E+00  0.91264542586E+02  0.91264542586E+02  0.00000000000E+00 0. -1.
         21   -1    0    0  501  502  0.00000000000E+00 -0.00000000000E+00 -0.49111014423E+03  0.49111014423E+03  0.00000000000E+00 0. -1.
         23    2    1    2    0    0  0.98229759354E+01  0.63348177629E+00 -0.94430517271E+02  0.13862843404E+03  0.10101399891E+03 0.  0.
         24    2    1    2    0    0  0.12304937839E+03  0.28064896672E+02 -0.61127878532E+02  0.16418427682E+03  0.85387770045E+02 0.  0.
        -11    1    4    4    0    0  0.94979420621E+02  0.10324819777E+02 -0.10550275964E+01  0.95544781795E+02  0.00000000000E+00 0.  1.
         12    1    4    4    0    0  0.28069957764E+02  0.17740076895E+02 -0.60072850936E+02  0.68639495021E+02  0.00000000000E+00 0. -1.
        -11    1    3    3    0    0  0.45722684612E+02 -0.28862980610E+02 -0.60198228359E+02  0.80916390400E+02  0.00000000000E+00 0. -1.
         11    1    3    3    0    0 -0.35899708677E+02  0.29496462386E+02 -0.34232288913E+02  0.57712043636E+02  0.00000000000E+00 0.  1.
          3    1    1    2  501    0 -0.13287235432E+03 -0.28698378449E+02 -0.24428720584E+03  0.27956197596E+03  0.00000000000E+00 0. -1.
<scales pt_clust_5="13000.00000" pt_clust_6="13000.00000" pt_clust_7="13000.00000" pt_clust_8="13000.00000" pt_clust_9="13000.00000"></scales>
<clustering>
<clus scale="   85.388">  5  6 -1 -1</clus>
<clus scale="  101.014">  7  8 -1 -1</clus>
<clus scale="  101.492">  1  7  2 -1</clus>
<clus scale="  133.454">  5  9 -1 -1</clus>
<clus scale="  321.920">  2  5  1 -1</clus>
</clustering>
</event>
<event>
 9    2  0.3726337E-005  0.3143180E+03  0.7546771E-02  0.1119941E+00
         21   -1    0    0  501  502  0.00000000000E+00  0.00000000000E+00  0.84420130588E+02  0.84420130588E+02  0.00000000000E+00 0.  1.
         -1   -1    0    0    0  501 -0.00000000000E+00 -0.00000000000E+00 -0.52936034352E+03  0.52936034352E+03  0.00000000000E+00 0.  1.
         23    2    1    2    0    0 -0.11033038806E+02 -0.61764822659E+02 -0.87458144421E+02  0.13776658216E+03  0.85988853175E+02 0.  0.
         24    2    1    2    0    0  0.26808954171E+01 -0.28379326437E+02  0.20231635623E+02  0.87602553024E+02  0.80326302337E+02 0.  0.
        -13    1    4    4    0    0 -0.33615219050E+02  0.71371134702E+01  0.10117954190E+02  0.35823097820E+02  0.00000000000E+00 0.  1.
         14    1    4    4    0    0  0.36296114467E+02 -0.35516439907E+02  0.10113681433E+02  0.51779455204E+02  0.00000000000E+00 0. -1.
        -11    1    3    3    0    0  0.13867144012E+02 -0.74576809669E+02 -0.76394108103E+02  0.10765713156E+03  0.00000000000E+00 0.  1.
         11    1    3    3    0    0 -0.24900182818E+02  0.12811987010E+02 -0.11064036318E+02  0.30109450595E+02  0.00000000000E+00 0. -1.
         -2    1    1    2    0  502  0.83521433889E+01  0.90144149096E+02 -0.37771370413E+03  0.38841133892E+03  0.00000000000E+00 0.  1.
<scales pt_clust_5="13000.00000" pt_clust_6="13000.00000" pt_clust_7="13000.00000" pt_clust_8="13000.00000" pt_clust_9="13000.00000"></scales>
<clustering>
<clus scale="   80.326">  5  6 -1 -1</clus>
<clus scale="   85.989">  7  8 -1 -1</clus>
<clus scale="   90.530">  5  9 -1 -1</clus>
<clus scale="  106.446">  2  7  1 -1</clus>
<clus scale="  314.318">  1  5  2 -1</clus>
</clustering>
</event>
<event>
 9    2  0.3726337E-005  0.1149200E+04  0.7546771E-02  0.9740650E-01
          2   -1    0    0  502    0 -0.00000000000E+00  0.00000000000E+00  0.69859375462E+03  0.69859375462E+03  0.00000000000E+00 0. -1.
         21   -1    0    0  501  502  0.00000000000E+00 -0.00000000000E+00 -0.61472594289E+03  0.61472594289E+03  0.00000000000E+00 0. -1.
         23    2    1    2    0    0 -0.24702467247E+01 -0.11175683791E+03  0.74245595848E+02  0.16407963998E+03  0.94414124019E+02 0.  0.
         24    2    1    2    0    0 -0.54262134468E+03  0.22284705339E+03  0.14099191394E+02  0.59292546819E+03  0.85223768551E+02 0.  0.
        -11    1    4    4    0    0 -0.49355762694E+03  0.17395419378E+03  0.77992251666E+01  0.52337369112E+03  0.00000000000E+00 0.  1.
         12    1    4    4    0    0 -0.49063717738E+02  0.48892859608E+02  0.62999662275E+01  0.69551777069E+02  0.00000000000E+00 0. -1.
        -13    1    3    3    0    0  0.37325741523E+02 -0.89275322555E+02  0.32216414719E+02  0.10198623228E+03  0.00000000000E+00 0. -1.
         13    1    3    3    0    0 -0.39795988248E+02 -0.22481515357E+02  0.42029181129E+02  0.62093407700E+02  0.00000000000E+00 0.  1.
          1    1    1    2  501    0  0.54509159141E+03 -0.11109021548E+03 -0.44769755117E+01  0.55631458934E+03  0.00000000000E+00 0. -1.
<scales pt_clust_5="13000.00000" pt_clust_6="13000.00000" pt_clust_7="13000.00000" pt_clust_8="13000.00000" pt_clust_9="13000.00000"></scales>
<clustering>
<clus scale="   85.224">  5  6 -1 -1</clus>
<clus scale="   94.414">  7  8 -1 -1</clus>
<clus scale="  146.321">  1  7  2 -1</clus>
<clus scale="  568.191">  5  9 -1 -1</clus>
<clus scale=" 1149.200">  2  5  1 -1</clus>
</clustering>
</event>
<event>
 9    2  0.3726337E-005  0.2071536E+03  0.7546771E-02  0.1172084E+00
         21   -1    0    0  501  502  0.00000000000E+00  0.00000000000E+00  0.58415058502E+02  0.58415058502E+02  0.00000000000E+00 0. -1.
          2   -1    0    0  502    0 -0.00000000000E+00 -0.00000000000E+00 -0.47172212338E+03  0.47172212338E+03  0.00000000000E+00 0. -1.
         23    2    1    2    0    0 -0.25605202855E+02  0.50818247604E+02 -0.22927451282E+03  0.25304407024E+03  0.90699385621E+02 0.  0.
         24    2    1    2    0    0  0.12486432436E+02  0.44024324212E+02 -0.14599218556E+03  0.17406745925E+03  0.83016323754E+02 0.  0.
        -11    1    4    4    0    0  0.44959984807E+02  0.41543016162E+02 -0.82738661413E+02  0.10292185637E+03  0.00000000000E+00 0.  1.
         12    1    4    4    0    0 -0.32473552371E+02  0.24813080495E+01 -0.63253524144E+02  0.71145602885E+02  0.00000000000E+00 0. -1.
        -13    1    3    3    0    0 -0.19311515724E+02 -0.13261794606E+02 -0.11785813191E+02  0.26224325126E+02  0.00000000000E+00 0.  1.
         13    1    3    3    0    0 -0.62936871307E+01  0.64080042210E+02 -0.21748869963E+03  0.22681974512E+03  0.00000000000E+00 0. -1.
          1    1    1    2  501    0  0.13118770419E+02 -0.94842571816E+02 -0.38040366495E+02  0.10302565238E+03  0.00000000000E+00 0. -1.
<scales pt_clust_5="13000.00000" pt_clust_6="13000.00000" pt_clust_7="13000.00000" pt_clust_8="13000.00000" pt_clust_9="13000.00000"></scales>
<clustering>
<clus scale="   83.016">  5  6 -1 -1</clus>
<clus scale="   90.699">  7  8 -1 -1</clus>
<clus scale="   95.746">  5  9 -1 -1</clus>
<clus scale="  107.072">  2  7  1 -1</clus>
<clus scale="  207.154">  1  5  2 -1</clus>
</clustering>
</event>
<event>
 9    2  0.3726337E-005  0.3631177E+03  0.7546771E-02  0.1103238E+00
          4   -1    0    0  502    0 -0.00000000000E+00  0.00000000000E+00  0.23926535157E+03  0.23926535157E+03  0.00000000000E+00 0. -1.
         21   -1    0    0  501  502  0.00000000000E+00 -0.00000000000E+00 -0.24107134828E+03  0.24107134828E+03  0.00000000000E+00 0. -1.
         23    2    1    2    0    0  0.22734274831E+02  0.21332218177E+02  0.44028966046E+02  0.11433763685E+03  0.10080989319E+03 0.  0.
         24    2    1    2    0    0  0.11834455120E+03 -0.54828850612E+02 -0.13112499861E+03  0.19777406559E+03  0.70065541488E+02 0.  0.
        -13    1    4    4    0    0  0.40249110124E+02 -0.92567693987E+01 -0.88809018047E+02  0.97942433765E+02  0.00000000000E+00 0.  1.
         14    1    4    4    0    0  0.78095441074E+02 -0.45572081214E+02 -0.42315980561E+02  0.99831631829E+02  0.00000000000E+00 0. -1.
        -13    1    3    3    0    0  0.52798518288E+02  0.48213337549E+01  0.56835462110E+02  0.77725147448E+02  0.00000000000E+00 0.  1.
         13    1    3    3    0    0 -0.30064243457E+02  0.16510884422E+02 -0.12806496064E+02  0.36612489406E+02  0.00000000000E+00 0. -1.
          3    1    1    2  501    0 -0.14107882603E+03  0.33496632436E+02  0.85290035850E+02  0.16822499741E+03  0.00000000000E+00 0. -1.
<scales pt_clust_5="13000.00000" pt_clust_6="13000.00000" pt_clust_7="13000.00000" pt_clust_8="13000.00000" pt_clust_9="13000.00000"></scales>
<clustering>
<clus scale="   70.066">  5  6 -1 -1</clus>
<clus scale="  100.810">  7  8 -1 -1</clus>
<clus scale="  105.520">  1  7  2 -1</clus>
<clus scale="  132.992">  5  9 -1 -1</clus>
<clus scale="  363.118">  2  5  1 -1</clus>
</clustering>
</event>
<event>
 9    2  0.3726337E-005  0.2811897E+03  0.7546771E-02  0.1112211E+00
          2   -1    0    0  502    0 -0.00000000000E+00  0.00000000000E+00  0.20636191426E+04  0.20636191426E+04  0.00000000000E+00 0. -1.
         21   -1    0    0  501  502  0.00000000000E+00 -0.00000000000E+00 -0.33619945048E+02  0.33619945048E+02  0.00000000000E+00 0. -1.
         23    2    1    2    0    0  0.14912570622E+03 -0.44872070325E+02  0.34994300603E+03  0.39381416452E+03  0.91528737356E+02 0.  0.
         24    2    1    2    0    0  0.35795252606E+02  0.27512802290E+02  0.39289825207E+03  0.40293552820E+03  0.77134616148E+02 0.  0.
        -11    1    4    4    0    0 -0.13014217557E+02 -0.18115890475E+02  0.11205466932E+03  0.11425324618E+03  0.00000000000E+00 0.  1.
         12    1    4    4    0    0  0.48809470163E+02  0.45628692764E+02  0.28084358275E+03  0.28868228202E+03  0.00000000000E+00 0. -1.
        -13    1    3    3    0    0  0.24511295119E+02  0.44935404254E+01  0.74225240351E+01  0.26001718347E+02  0.00000000000E+00 0.  1.
         13    1    3    3    0    0  0.12461441110E+03 -0.49365610750E+02  0.34252048199E+03  0.36781244618E+03  0.00000000000E+00 0. -1.
          1    1    1    2  501    0 -0.18492095883E+03  0.17359268035E+02  0.12871579394E+04  0.13004893949E+04  0.00000000000E+00 0. -1.
<scales pt_clust_5="13000.00000" pt_clust_6="13000.00000" pt_clust_7="13000.00000" pt_clust_8="13000.00000" pt_clust_9="13000.00000"></scales>
<clustering>
<clus scale="   77.135">  5  6 -1 -1</clus>
<clus scale="   91.529">  7  8 -1 -1</clus>
<clus scale="  180.636">  1  7  2 -1</clus>
<clus scale="   72.872">  5  9 -1 -1</clus>
<clus scale="  281.190">  2  5  1 -1</clus>
</clustering>
</event>
<event>
 9    2  0.3726337E-005  0.2186510E+03  0.7546771E-02  0.1139734E+00
          2   -1    0    0  502    0 -0.00000000000E+00  0.00000000000E+00  0.30436493306E+02  0.30436493306E+02  0.00000000000E+00 0. -1.
         21   -1    0    0  501  502  0.00000000000E+00 -0.00000000000E+00 -0.14408427075E+04  0.14408427075E+04  0.00000000000E+00 0. -1.
         23    2    1    2    0    0  0.16785657649E+03  0.38192442501E+02 -0.78610830444E+03  0.80979894238E+03  0.90407786332E+02 0.  0.
         24    2    1    2    0    0 -0.10663978830E+03  0.11453277881E+02 -0.46479372484E+03  0.48356517274E+03  0.79365279669E+02 0.  0.
        -13    1    4    4    0    0 -0.20764642041E+02  0.25211972503E+02 -0.49795081593E+02  0.59551356554E+02  0.00000000000E+00 0.  1.
         14    1    4    4    0    0 -0.85875146262E+02 -0.13758694622E+02 -0.41499864325E+03  0.42401381619E+03  0.00000000000E+00 0. -1.
        -13    1    3    3    0    0  0.12424770859E+03 -0.14932951386E+02 -0.47711687013E+03  0.49325550569E+03  0.00000000000E+00 0. -1.
         13    1    3    3    0    0  0.43608867905E+02  0.53125393887E+02 -0.30899143431E+03  0.31654343669E+03  0.00000000000E+00 0.  1.
          1    1    1    2  501    0 -0.61216788191E+02 -0.49645720382E+02 -0.15950418491E+03  0.17791508568E+03  0.00000000000E+00 0. -1.
<scales pt_clust_5="13000.00000" pt_clust_6="13000.00000" pt_clust_7="13000.00000" pt_clust_8="13000.00000" pt_clust_9="13000.00000"></scales>
<clustering>
<clus scale="   79.365">  5  6 -1 -1</clus>
<clus scale="   78.818">  5  9 -1 -1</clus>
<clus scale="   90.408">  7  8 -1 -1</clus>
<clus scale="  194.443">  1  7  2 -1</clus>
<clus scale="  218.651">  2  5  1 -1</clus>
</clustering>
</event>
<event>
 9    2  0.3726337E-005  0.1236114E+03  0.7546771E-02  0.1251069E+00
         21   -1    0    0  501  502  0.00000000000E+00  0.00000000000E+00  0.57984171301E+02  0.57984171301E+02  0.00000000000E+00 0.  1.
         -3   -1    0    0    0  501 -0.00000000000E+00 -0.00000000000E+00 -0.20712569417E+03  0.20712569417E+03  0.00000000000E+00 0.  1.
         23    2    1    2    0    0  0.93172379093E+01  0.16757331720E+02 -0.82214076359E+02  0.12454297765E+03  0.91565167185E+02 0.  0.
         24    2    1    2    0    0  0.19442289754E+02  0.63592615748E+01 -0.29009793749E+02  0.87659083973E+02  0.80150508614E+02 0.  0.
        -13    1    4    4    0    0  0.27372151689E+02  0.50147801857E+01  0.22338550542E+02  0.35684640235E+02  0.00000000000E+00 0.  1.
         14    1    4    4    0    0 -0.79298619354E+01  0.13444813892E+01 -0.51348344290E+02  0.51974443738E+02  0.00000000000E+00 0. -1.
        -11    1    3    3    0    0  0.44153859064E+02  0.27905108799E+02 -0.28340427774E+02  0.59425905241E+02  0.00000000000E+00 0.  1.
         11    1    3    3    0    0 -0.34836621154E+02 -0.11147777079E+02 -0.53873648586E+02  0.65117072409E+02  0.00000000000E+00 0. -1.
         -4    1    1    2    0  502 -0.28759527663E+02 -0.23116593295E+02 -0.37917652758E+02  0.52907803845E+02  0.00000000000E+00 0.  1.
<scales pt_clust_5="13000.00000" pt_clust_6="13000.00000" pt_clust_7="13000.00000" pt_clust_8="13000.00000" pt_clust_9="13000.00000"></scales>
<clustering>
<clus scale="   80.151">  5  6 -1 -1</clus>
<clus scale="   36.898">  5  9 -1 -1</clus>
<clus scale="   91.565">  7  8 -1 -1</clus>
<clus scale="   93.551">  2  7  1 -1</clus>
<clus scale="  123.611">  1  5  2 -1</clus>
</clustering>
</event>
<event>
 9    2  0.3726337E-005  0.2130908E+03  0.7546771E-02  0.1165651E+00
          4   -1    0    0  502    0 -0.00000000000E+00  0.00000000000E+00  0.21163171979E+03  0.21163171979E+03  0.00000000000E+00 0. -1.
         21   -1    0    0  501  502  0.00000000000E+00 -0.00000000000E+00 -0.14241142963E+03  0.14241142963E+03  0.00000000000E+00 0. -1.
         23    2    1    2    0    0 -0.16923623177E+02  0.61360942807E+02 -0.31611155619E+02  0.11830037054E+03  0.94573453919E+02 0.  0.
         24    2    1    2    0    0 -0.70837249541E+01  0.14513201461E+02 -0.20326235661E+02  0.90786156729E+02  0.86995162059E+02 0.  0.
        -13    1    4    4    0    0  0.38967476160E+02  0.16591570293E+02 -0.10929053370E+02  0.43740011552E+02  0.00000000000E+00 0.  1.
         14    1    4    4    0    0 -0.46051201114E+02 -0.20783688318E+01 -0.93971822908E+01  0.47046145177E+02  0.00000000000E+00 0. -1.
        -13    1    3    3    0    0 -0.12951729726E+02  0.21307463411E+02  0.33494906163E+02  0.41757203435E+02  0.00000000000E+00 0.  1.
         13    1    3    3    0    0 -0.39718934510E+01  0.40053479395E+02 -0.65106061782E+02  0.76543167102E+02  0.00000000000E+00 0. -1.
          3    1    1    2  501    0  0.24007348131E+02 -0.75874144268E+02  0.12115768145E+03  0.14495662215E+03  0.00000000000E+00 0. -1.
<scales pt_clust_5="13000.00000" pt_clust_6="13000.00000" pt_clust_7="13000.00000" pt_clust_8="13000.00000" pt_clust_9="13000.00000"></scales>
<clustering>
<clus scale="   86.995">  5  6 -1 -1</clus>
<clus scale="   79.582">  5  9 -1 -1</clus>
<clus scale="   94.573">  7  8 -1 -1</clus>
<clus scale="  113.999">  1  7  2 -1</clus>
<clus scale="  213.091">  2  5  1 -1</clus>
</clustering>
</event>
<event>
 9    2  0.3726337E-005  0.1786907E+03  0.7546771E-02  0.1191857E+00
         -1   -1    0    0    0  501 -0.00000000000E+00  0.00000000000E+00  0.53366445426E+03  0.53366445426E+03  0.00000000000E+00 0.  1.
         21   -1    0    0  501  502  0.00000000000E+00 -0.00000000000E+00 -0.39393235925E+02  0.39393235925E+02  0.00000000000E+00 0.  1.
         23    2    1    2    0    0  0.32085070080E+02 -0.46144719488E+02  0.14006099754E+03  0.17632698154E+03  0.91188456123E+02 0.  0.
         24    2    1    2    0    0 -0.18905549020E+02 -0.11608241701E+02  0.77805115133E+02  0.11404910907E+03  0.80382785960E+02 0.  0.
        -13    1    4    4    0    0 -0.33180129990E+02 -0.35968513973E+02  0.26908379288E+02  0.55845464449E+02  0.00000000000E+00 0.  1.
         14    1    4    4    0    0  0.14274580970E+02  0.24360272272E+02  0.50896735845E+02  0.58203644617E+02  0.00000000000E+00 0. -1.
        -13    1    3    3    0    0  0.26516301891E+02  0.21594689970E+02  0.23827060105E+02  0.41679415713E+02  0.00000000000E+00 0. -1.
         13    1    3    3    0    0  0.55687681890E+01 -0.67739409458E+02  0.11623393743E+03  0.13464756583E+03  0.00000000000E+00 0.  1.
         -2    1    1    2    0  502 -0.13179521060E+02  0.57752961189E+02  0.27640510567E+03  0.28268159958E+03  0.00000000000E+00 0.  1.
<scales pt_clust_5="13000.00000" pt_clust_6="13000.00000" pt_clust_7="13000.00000" pt_clust_8="13000.00000" pt_clust_9="13000.00000"></scales>
<clustering>
<clus scale="   80.383">  5  6 -1 -1</clus>
<clus scale="   59.238">  5  9 -1 -1</clus>
<clus scale="   91.188">  7  8 -1 -1</clus>
<clus scale="  107.117">  1  7  2 -1</clus>
<clus scale="  178.691">  2  5  1 -1</clus>
</clustering>
</event>
<event>
 9    2  0.3726337E-005  0.2556458E+03  0.7546771E-02  0.1141977E+00
          4   -1    0    0  502    0 -0.00000000000E+00  0.00000000000E+00  0.29088392676E+03  0.29088392676E+03  0.00000000000E+00 0. -1.
         21   -1    0    0  501  502  0.00000000000E+00 -0.00000000000E+00 -0.13416792979E+03  0.13416792979E+03  0.00000000000E+00 0. -1.
         23    2    1    2    0    0  0.51068642733E+00 -0.73928572019E+02  0.12068280626E+03  0.16687912745E+03  0.88422897996E+02 0.  0.
         24    2    1    2    0    0  0.11112624016E+02 -0.70482318079E+02 -0.64052686284E+01  0.10720707289E+03  0.79756388068E+02 0.  0.
        -13    1    4    4    0    0  0.29241875732E+02 -0.39167418322E+02  0.28791331947E+02  0.56728429818E+02  0.00000000000E+00 0.  1.
         14    1    4    4    0    0 -0.18129251715E+02 -0.31314899757E+02 -0.35196600576E+02  0.50478643074E+02  0.00000000000E+00 0. -1.
        -13    1    3    3    0    0  0.41374703433E+02 -0.21901629642E+02  0.66721374627E+02  0.81506375808E+02  0.00000000000E+00 0.  1.
         13    1    3    3    0    0 -0.40864017006E+02 -0.52026942377E+02  0.53961431632E+02  0.85372751641E+02  0.00000000000E+00 0. -1.
          3    1    1    2  501    0 -0.11623310444E+02  0.14441089010E+03  0.42438459333E+02  0.15096565621E+03  0.00000000000E+00 0. -1.
<scales pt_clust_5="13000.00000" pt_clust_6="13000.00000" pt_clust_7="13000.00000" pt_clust_8="13000.00000" pt_clust_9="13000.00000"></scales>
<clustering>
<clus scale="   79.756">  5  6 -1 -1</clus>
<clus scale="   88.423">  7  8 -1 -1</clus>
<clus scale="  115.258">  1  7  2 -1</clus>
<clus scale="   96.475">  5  9 -1 -1</clus>
<clus scale="  255.646">  2  5  1 -1</clus>
</clustering>
</event>
<event>
 9    2  0.8493750E-005  0.5333237E+03  0.7546771E-02  0.1047846E+00
          2   -1    0    0  502    0 -0.00000000000E+00  0.00000000000E+00  0.15643466834E+04  0.15643466834E+04  0.00000000000E+00 0. -1.
         21   -1    0    0  501  502  0.00000000000E+00 -0.00000000000E+00 -0.77060583822E+02  0.77060583822E+02  0.00000000000E+00 0. -1.
         23    2    1    2    0    0 -0.11872103743E+03  0.43878243027E+01  0.46081387289E+03  0.48465346772E+03  0.91791179301E+02 0.  0.
         24    2    1    2    0    0 -0.19603599693E+03 -0.23644783962E+02  0.33739680892E+03  0.39894923859E+03  0.79590831133E+02 0.  0.
        -11    1    4    4    0    0 -0.41323233939E+02 -0.54536194977E+01  0.14779511774E+03  0.15356024374E+03  0.00000000000E+00 0.  1.
         12    1    4    4    0    0 -0.15471276299E+03 -0.18191164464E+02  0.18960169119E+03  0.24538899486E+03  0.00000000000E+00 0. -1.
        -11    1    3    3    0    0 -0.15065596417E+02 -0.28357854416E+02  0.47879840773E+02  0.57650839152E+02  0.00000000000E+00 0.  1.
         11    1    3    3    0    0 -0.10365544101E+03  0.32745678718E+02  0.41293403211E+03  0.42700262857E+03  0.00000000000E+00 0. -1.
          1    1    1    2  501    0  0.31475703435E+03  0.19256959659E+02  0.68907541778E+03  0.75780456092E+03  0.00000000000E+00 0. -1.
<scales pt_clust_5="13000.00000" pt_clust_6="13000.00000" pt_clust_7="13000.00000" pt_clust_8="13000.00000" pt_clust_9="13000.00000"></scales>
<clustering>
<clus scale="   79.591">  5  6 -1 -1</clus>
<clus scale="   91.791">  7  8 -1 -1</clus>
<clus scale="  150.132">  1  7  2 -1</clus>
<clus scale="  237.116">  5  9 -1 -1</clus>
<clus scale="  533.324">  2  5  1 -1</clus>
</clustering>
</event>
<event>
 9    2  0.3726337E-005  0.1549374E+04  0.7546771E-02  0.9340488E-01
         21   -1    0    0  501  502  0.00000000000E+00  0.00000000000E+00  0.50846179693E+03  0.50846179693E+03  0.00000000000E+00 0. -1.
          2   -1    0    0  502    0 -0.00000000000E+00 -0.00000000000E+00 -0.17763660044E+04  0.17763660044E+04  0.00000000000E+00 0. -1.
         23    2    1    2    0    0 -0.17670585096E+03 -0.13004308185E+03 -0.50270776213E+03  0.55679852564E+03  0.95777571265E+02 0.  0.
         24    2    1    2    0    0 -0.33288274219E+03 -0.56862761371E+03 -0.47269552845E+03  0.81513384819E+03  0.82787950362E+02 0.  0.
        -13    1    4    4    0    0 -0.14421532220E+03 -0.26029484873E+03 -0.26360662757E+03  0.39754235187E+03  0.00000000000E+00 0.  1.
         14    1    4    4    0    0 -0.18866741999E+03 -0.30833276499E+03 -0.20908890089E+03  0.41759149633E+03  0.00000000000E+00 0. -1.
        -13    1    3    3    0    0 -0.94437556519E+02 -0.12538208103E+03 -0.32579452542E+03  0.36163682213E+03  0.00000000000E+00 0. -1.
         13    1    3    3    0    0 -0.82268294437E+02 -0.46610008279E+01 -0.17691323670E+03  0.19516170351E+03  0.00000000000E+00 0.  1.
          1    1    1    2  501    0  0.50958859314E+03  0.69867069557E+03 -0.29250091686E+03  0.91289542746E+03  0.00000000000E+00 0. -1.
<scales pt_clust_5="13000.00000" pt_clust_6="13000.00000" pt_clust_7="13000.00000" pt_clust_8="13000.00000" pt_clust_9="13000.00000"></scales>
<clustering>
<clus scale="   82.788">  5  6 -1 -1</clus>
<clus scale="   95.778">  7  8 -1 -1</clus>
<clus scale="  239.394">  2  7  1 -1</clus>
<clus scale="  764.297">  5  9 -1 -1</clus>
<clus scale=" 1549.374">  1  5  2 -1</clus>
</clustering>
</event>
<event>
 9    2  0.3726337E-005  0.1942244E+03  0.7546771E-02  0.1161548E+00
         21   -1    0    0  501  502  0.00000000000E+00  0.00000000000E+00  0.77967572926E+03  0.77967572926E+03  0.00000000000E+00 0. -1.
          2   -1    0    0  502    0 -0.00000000000E+00 -0.00000000000E+00 -0.41747527108E+02  0.41747527108E+02  0.00000000000E+00 0. -1.
         23    2    1    2    0    0  0.25307821648E+01  0.12229017655E+03  0.30824037578E+03  0.34987819020E+03  0.11154069473E+03 0.  0.
         24    2    1    2    0    0  0.13675980843E+02 -0.12271369500E+02  0.16737263619E+03  0.18663094564E+03  0.80497773668E+02 0.  0.
        -11    1    4    4    0    0 -0.22880982004E+02  0.10108862060E+02  0.16940002053E+02  0.30210794414E+02  0.00000000000E+00 0.  1.
         12    1    4    4    0    0  0.36556962847E+02 -0.22380231560E+02  0.15043263414E+03  0.15642015123E+03  0.00000000000E+00 0. -1.
        -13    1    3    3    0    0  0.34368261712E+02  0.88460917816E+01  0.25888897854E+02  0.43927961311E+02  0.00000000000E+00 0.  1.
         13    1    3    3    0    0 -0.31837479547E+02  0.11344408477E+03  0.28235147792E+03  0.30595022889E+03  0.00000000000E+00 0. -1.
          1    1    1    2  501    0 -0.16206763008E+02 -0.11001880705E+03  0.26231519019E+03  0.28491412053E+03  0.00000000000E+00 0. -1.
<scales pt_clust_5="13000.00000" pt_clust_6="13000.00000" pt_clust_7="13000.00000" pt_clust_8="13000.00000" pt_clust_9="13000.00000"></scales>
<clustering>
<clus scale="   80.498">  5  6 -1 -1</clus>
<clus scale="  111.206">  5  9 -1 -1</clus>
<clus scale="  111.541">  7  8 -1 -1</clus>
<clus scale="  165.537">  2  7  1 -1</clus>
<clus scale="  194.224">  1  5  2 -1</clus>
</clustering>
</event>
<event>
 9    2  0.3726337E-005  0.2440623E+03  0.7546771E-02  0.1149530E+00
         21   -1    0    0  501  502  0.00000000000E+00  0.00000000000E+00  0.68759138308E+03  0.68759138308E+03  0.00000000000E+00 0.  1.
         -3   -1    0    0    0  501 -0.00000000000E+00 -0.00000000000E+00 -0.51066134867E+02  0.51066134867E+02  0.00000000000E+00 0.  1.
         23    2    1    2    0    0 -0.32927760714E+02 -0.48218284637E+02  0.32251141076E+03  0.34095020261E+03  0.93937160833E+02 0.  0.
         24    2    1    2    0    0  0.12311265128E+03  0.21688124909E+02  0.20982076202E+03  0.25737427992E+03  0.81176770853E+02 0.  0.
        -11    1    4    4    0    0  0.67142076023E+02 -0.37397580149E+01  0.43585154833E+02  0.80135571905E+02  0.00000000000E+00 0.  1.
         12    1    4    4    0    0  0.55970575254E+02  0.25427882924E+02  0.16623560718E+03  0.17723870802E+03  0.00000000000E+00 0. -1.
        -11    1    3    3    0    0 -0.18681962376E+02 -0.75091018052E+02  0.26255516825E+03  0.27372046523E+03  0.00000000000E+00 0. -1.
         11    1    3    3    0    0 -0.14245798337E+02  0.26872733415E+02  0.59956242513E+02  0.67229737377E+02  0.00000000000E+00 0.  1.
         -4    1    1    2    0  502 -0.90184890564E+02  0.26530159728E+02  0.10419307543E+03  0.14033303542E+03  0.00000000000E+00 0.  1.
<scales pt_clust_5="13000.00000" pt_clust_6="13000.00000" pt_clust_7="13000.00000" pt_clust_8="13000.00000" pt_clust_9="13000.00000"></scales>
<clustering>
<clus scale="   81.177">  5  6 -1 -1</clus>
<clus scale="   93.937">  7  8 -1 -1</clus>
<clus scale="   94.006">  5  9 -1 -1</clus>
<clus scale="  110.605">  2  7  1 -1</clus>
<clus scale="  244.062">  1  5  2 -1</clus>
</clustering>
</event>
<event>
 9    2  0.3726337E-005  0.3867079E+03  0.7546771E-02  0.1084615E+00
         21   -1    0    0  501  502  0.00000000000E+00  0.00000000000E+00  0.12028909937E+03  0.12028909937E+03  0.00000000000E+00 0. -1.
          2   -1    0    0  502    0 -0.00000000000E+00 -0.00000000000E+00 -0.84389746942E+03  0.84389746942E+03  0.00000000000E+00 0. -1.
         23    2    1    2    0    0 -0.13806679174E+02 -0.10924800445E+03  0.14672144308E+01  0.14243381889E+03  0.90329890838E+02 0.  0.
         24    2    1    2    0    0  0.10523214213E+02 -0.10976560028E+03 -0.44956915987E+03  0.46978466868E+03  0.80162212933E+02 0.  0.
        -11    1    4    4    0    0 -0.20207681230E+02 -0.49416150087E+01 -0.32028871579E+02  0.38191865027E+02  0.00000000000E+00 0.  1.
         12    1    4    4    0    0  0.30730895443E+02 -0.10482398527E+03 -0.41754028829E+03  0.43159280366E+03  0.00000000000E+00 0. -1.
        -11    1    3    3    0    0  0.10422227279E+02 -0.87431884410E+02 -0.33882007444E+02  0.94344833782E+02  0.00000000000E+00 0. -1.
         11    1    3    3    0    0 -0.24228906453E+02 -0.21816120043E+02  0.35349221874E+02  0.48088985108E+02  0.00000000000E+00 0.  1.
          1    1    1    2  501    0  0.32834649603E+01  0.21901360473E+03 -0.27550642461E+03  0.35196808122E+03  0.00000000000E+00 0. -1.
<scales pt_clust_5="13000.00000" pt_clust_6="13000.00000" pt_clust_7="13000.00000" pt_clust_8="13000.00000" pt_clust_9="13000.00000"></scales>
<clustering>
<clus scale="   80.162">  5  6 -1 -1</clus>
<clus scale="   90.330">  7  8 -1 -1</clus>
<clus scale="  142.426">  2  7  1 -1</clus>
<clus scale="  174.712">  5  9 -1 -1</clus>
<clus scale="  386.708">  1  5  2 -1</clus>
</clustering>
</event>
<event>
 9    2  0.3726337E-005  0.9594707E+03  0.7546771E-02  0.9994635E-01
         21   -1    0    0  501  502  0.00000000000E+00  0.00000000000E+00  0.12065027097E+03  0.12065027097E+03  0.00000000000E+00 0. -1.
          2   -1    0    0  502    0 -0.00000000000E+00 -0.00000000000E+00 -0.23735870572E+04  0.23735870572E+04  0.00000000000E+00 0. -1.
         23    2    1    2    0    0  0.16134958520E+02  0.60703143538E+02 -0.21322860752E+03  0.24013141784E+03  0.90837493617E+02 0.  0.
         24    2    1    2    0    0 -0.21702071174E+03 -0.43066949409E+03 -0.14446329685E+04  0.15251719680E+04  0.81307540153E+02 0.  0.
        -13    1    4    4    0    0 -0.45198557643E+02 -0.89948332984E+02 -0.41695637439E+03  0.42893616118E+03  0.00000000000E+00 0.  1.
         14    1    4    4    0    0 -0.17182215409E+03 -0.34072116111E+03 -0.10276765941E+04  0.10962358069E+04  0.00000000000E+00 0. -1.
        -13    1    3    3    0    0  0.23991538678E+02  0.15756334205E+02 -0.78664009171E+01  0.29761321528E+02  0.00000000000E+00 0.  1.
         13    1    3    3    0    0 -0.78565801578E+01  0.44946809332E+02 -0.20536220660E+03  0.21037009631E+03  0.00000000000E+00 0. -1.
          1    1    1    2  501    0  0.20088575322E+03  0.36996635055E+03 -0.59507521029E+03  0.72893394234E+03  0.00000000000E+00 0. -1.
<scales pt_clust_5="13000.00000" pt_clust_6="13000.00000" pt_clust_7="13000.00000" pt_clust_8="13000.00000" pt_clust_9="13000.00000"></scales>
<clustering>
<clus scale="   81.308">  5  6 -1 -1</clus>
<clus scale="   90.837">  7  8 -1 -1</clus>
<clus scale="  110.439">  2  7  1 -1</clus>
<clus scale="  439.835">  5  9 -1 -1</clus>
<clus scale="  959.471">  1  5  2 -1</clus>
</clustering>
</event>
<event>
 9    2  0.3726337E-005  0.3743175E+03  0.7546771E-02  0.1090742E+00
         21   -1    0    0  501  502  0.00000000000E+00  0.00000000000E+00  0.10105362110E+03  0.10105362110E+03  0.00000000000E+00 0. -1.
          2   -1    0    0  502    0 -0.00000000000E+00 -0.00000000000E+00 -0.64360636918E+03  0.64360636918E+03  0.00000000000E+00 0. -1.
         23    2    1    2    0    0 -0.52026597379E+02  0.81809199320E+02 -0.17468940757E+03  0.21983901532E+03  0.91723996913E+02 0.  0.
         24    2    1    2    0    0 -0.57219545085E+00  0.12840540416E+02  0.47574740788E+02  0.95502904501E+02  0.81806123984E+02 0.  0.
        -11    1    4    4    0    0 -0.28679331537E+02  0.16931914746E+02 -0.69515216275E+01  0.34022308083E+02  0.00000000000E+00 0.  1.
         12    1    4    4    0    0  0.28107136087E+02 -0.40913743294E+01  0.54526262415E+02  0.61480596418E+02  0.00000000000E+00 0. -1.
        -13    1    3    3    0    0  0.13305383098E+02  0.40374515726E+02 -0.20208961051E+02  0.47069489547E+02  0.00000000000E+00 0.  1.
         13    1    3    3    0    0 -0.65331980477E+02  0.41434683594E+02 -0.15448044652E+03  0.17276952577E+03  0.00000000000E+00 0. -1.
          1    1    1    2  501    0  0.52598792830E+02 -0.94649739737E+02 -0.41543808130E+03  0.42931807047E+03  0.00000000000E+00 0. -1.
<scales pt_clust_5="13000.00000" pt_clust_6="13000.00000" pt_clust_7="13000.00000" pt_clust_8="13000.00000" pt_clust_9="13000.00000"></scales>
<clustering>
<clus scale="   81.806">  5  6 -1 -1</clus>
<clus scale="   91.724">  7  8 -1 -1</clus>
<clus scale="  108.283">  5  9 -1 -1</clus>
<clus scale="  133.465">  2  7  1 -1</clus>
<clus scale="  374.318">  1  5  2 -1</clus>
</clustering>
</event>
<event>
 9    2  0.3726337E-005  0.2016622E+03  0.7546771E-02  0.1174409E+00
         -1   -1    0    0    0  501 -0.00000000000E+00  0.00000000000E+00  0.59471523870E+03  0.59471523870E+03  0.00000000000E+00 0.  1.
         21   -1    0    0  501  502  0.00000000000E+00 -0.00000000000E+00 -0.77830868492E+02  0.77830868492E+02  0.00000000000E+00 0.  1.
         23    2    1    2    0    0 -0.48584552107E+02 -0.29567126526E+02  0.44506496549E+03  0.45847677954E+03  0.94252109765E+02 0.  0.
         24    2    1    2    0    0  0.88197513935E+02 -0.43910725508E+01  0.99392776287E+02  0.15505545769E+03  0.79782128317E+02 0.  0.
        -11    1    4    4    0    0  0.93613879123E+02  0.11313490643E+02  0.58626469311E+02  0.11103430253E+03  0.00000000000E+00 0.  1.
         12    1    4    4    0    0 -0.54163651878E+01 -0.15704563194E+02  0.40766306975E+02  0.44021155157E+02  0.00000000000E+00 0. -1.
        -13    1    3    3    0    0 -0.51247465709E+02  0.20080507102E+02  0.16243659202E+03  0.17150853021E+03  0.00000000000E+00 0. -1.
         13    1    3    3    0    0  0.26629136018E+01 -0.49647633627E+02  0.28262837347E+03  0.28696824933E+03  0.00000000000E+00 0.  1.
         -2    1    1    2    0  502 -0.39612961828E+02  0.33958199076E+02 -0.27573371564E+02  0.59013869969E+02  0.00000000000E+00 0.  1.
<scales pt_clust_5="13000.00000" pt_clust_6="13000.00000" pt_clust_7="13000.00000" pt_clust_8="13000.00000" pt_clust_9="13000.00000"></scales>
<clustering>
<clus scale="   79.782">  5  6 -1 -1</clus>
<clus scale="   52.176">  5  9 -1 -1</clus>
<clus scale="   94.252">  7  8 -1 -1</clus>
<clus scale="  110.082">  1  7  2 -1</clus>
<clus scale="  201.662">  2  5  1 -1</clus>
</clustering>
</event>
<event>
 9    2  0.3726337E-005  0.7508215E+03  0.7546771E-02  0.9968052E-01
          2   -1    0    0  502    0 -0.00000000000E+00  0.00000000000E+00  0.14946756072E+03  0.14946756072E+03  0.00000000000E+00 0. -1.
         21   -1    0    0  501  502  0.00000000000E+00 -0.00000000000E+00 -0.16785322564E+04  0.16785322564E+04  0.00000000000E+00 0. -1.
         23    2    1    2    0    0  0.84830223493E+02  0.21774546828E+03 -0.40110076472E+03  0.47299589940E+03  0.90741620090E+02 0.  0.
         24    2    1    2    0    0  0.21982080985E+03  0.14538583354E+03 -0.37766053426E+03  0.46751770285E+03  0.80542499930E+02 0.  0.
        -11    1    4    4    0    0  0.64394087821E+02  0.78416781545E+02 -0.18563535228E+03  0.21155678715E+03  0.00000000000E+00 0.  1.
         12    1    4    4    0    0  0.15542672203E+03  0.66969051997E+02 -0.19202518199E+03  0.25596091570E+03  0.00000000000E+00 0. -1.
        -11    1    3    3    0    0  0.58299792858E+02  0.19915010230E+03 -0.28552352653E+03  0.35296361469E+03  0.00000000000E+00 0. -1.
         11    1    3    3    0    0  0.26530430635E+02  0.18595365985E+02 -0.11557723819E+03  0.12003228471E+03  0.00000000000E+00 0.  1.
          1    1    1    2  501    0 -0.30465103335E+03 -0.36313130182E+03 -0.75030339668E+03  0.88748621485E+03  0.00000000000E+00 0. -1.
<scales pt_clust_5="13000.00000" pt_clust_6="13000.00000" pt_clust_7="13000.00000" pt_clust_8="13000.00000" pt_clust_9="13000.00000"></scales>
<clustering>
<clus scale="   80.542">  5  6 -1 -1</clus>
<clus scale="   90.742">  7  8 -1 -1</clus>
<clus scale="  250.686">  1  7  2 -1</clus>
<clus scale="  343.265">  5  9 -1 -1</clus>
<clus scale="  750.822">  2  5  1 -1</clus>
</clustering>
</event>
<event>
 9    2  0.3726337E-005  0.2011943E+03  0.7546771E-02  0.1169771E+00
         -1   -1    0    0    0  501 -0.00000000000E+00  0.00000000000E+00  0.26988449353E+03  0.26988449353E+03  0.00000000000E+00 0.  1.
         21   -1    0    0  501  502  0.00000000000E+00 -0.00000000000E+00 -0.14151355998E+03  0.14151355998E+03  0.00000000000E+00 0.  1.
         23    2    1    2    0    0  0.54003082600E+02 -0.59266177680E+02  0.16598459930E+03  0.20671797459E+03  0.93555443815E+02 0.  0.
         24    2    1    2    0    0 -0.57758721867E+02  0.87993933325E+02  0.22927822314E+02  0.13756331092E+03  0.85551021158E+02 0.  0.
        -11    1    4    4    0    0  0.91706087645E+00  0.71408270292E+02  0.27247496735E+02  0.76435647084E+02  0.00000000000E+00 0.  1.
         12    1    4    4    0    0 -0.58675782744E+02  0.16585663033E+02 -0.43196744209E+01  0.61127663835E+02  0.00000000000E+00 0. -1.
        -11    1    3    3    0    0  0.10077325819E+02 -0.46050235799E+02  0.15142353177E+03  0.15859149626E+03  0.00000000000E+00 0.  1.
         11    1    3    3    0    0  0.43925756781E+02 -0.13215941881E+02  0.14561067525E+02  0.48126478326E+02  0.00000000000E+00 0. -1.
         -2    1    1    2    0  502  0.37556392669E+01 -0.28727755645E+02 -0.60541488063E+02  0.67116768006E+02  0.00000000000E+00 0.  1.
<scales pt_clust_5="13000.00000" pt_clust_6="13000.00000" pt_clust_7="13000.00000" pt_clust_8="13000.00000" pt_clust_9="13000.00000"></scales>
<clustering>
<clus scale="   85.551">  5  6 -1 -1</clus>
<clus scale="   28.972">  5  9 -1 -1</clus>
<clus scale="   93.555">  7  8 -1 -1</clus>
<clus scale="  123.213">  1  7  2 -1</clus>
<clus scale="  201.194">  2  5  1 -1</clus>
</clustering>
</event>
<event>
 9    2  0.3726337E-005  0.1704784E+03  0.7546771E-02  0.1190313E+00
         21   -1    0    0  501  502  0.00000000000E+00  0.00000000000E+00  0.40353542202E+02  0.40353542202E+02  0.00000000000E+00 0. -1.
          2   -1    0    0  502    0 -0.00000000000E+00 -0.00000000000E+00 -0.60010724908E+03  0.60010724908E+03  0.00000000000E+00 0. -1.
         23    2    1    2    0    0 -0.55409677839E+02 -0.71932701327E+02 -0.33410951796E+03  0.35765663248E+03  0.89691420136E+02 0.  0.
         24    2    1    2    0    0  0.29494625151E+02  0.78344653523E+02 -0.91281891593E+02  0.14581536353E+03  0.76954004843E+02 0.  0.
        -11    1    4    4    0    0  0.35299057300E+02  0.88894537492E+02 -0.93288979305E+02  0.13360799341E+03  0.00000000000E+00 0.  1.
         12    1    4    4    0    0 -0.58044321487E+01 -0.10549883970E+02  0.20070877127E+01  0.12207370128E+02  0.00000000000E+00 0. -1.
        -11    1    3    3    0    0 -0.70613256446E+02 -0.19840380916E+02 -0.18927274208E+03  0.20298779174E+03  0.00000000000E+00 0.  1.
         11    1    3    3    0    0  0.15203578607E+02 -0.52092320411E+02 -0.14483677588E+03  0.15466884074E+03  0.00000000000E+00 0. -1.
          1    1    1    2  501    0  0.25915052688E+02 -0.64119521961E+01 -0.13436229732E+03  0.13698879527E+03  0.00000000000E+00 0. -1.
<scales pt_clust_5="13000.00000" pt_clust_6="13000.00000" pt_clust_7="13000.00000" pt_clust_8="13000.00000" pt_clust_9="13000.00000"></scales>
<clustering>
<clus scale="   76.954">  5  6 -1 -1</clus>
<clus scale="   26.697">  5  9 -1 -1</clus>
<clus scale="   89.691">  7  8 -1 -1</clus>
<clus scale="  127.629">  2  7  1 -1</clus>
<clus scale="  170.478">  1  5  2 -1</clus>
</clustering>
</event>
<event>
 9    2  0.3726337E-005  0.2141001E+03  0.7546771E-02  0.1165149E+00
         21   -1    0    0  501  502  0.00000000000E+00  0.00000000000E+00  0.10430452199E+03  0.10430452199E+03  0.00000000000E+00 0. -1.
          2   -1    0    0  502    0 -0.00000000000E+00 -0.00000000000E+00 -0.35283641578E+03  0.35283641578E+03  0.00000000000E+00 0. -1.
         23    2    1    2    0    0  0.43217769577E+01  0.70663955283E+02 -0.21112718947E+03  0.23979792560E+03  0.88973494118E+02 0.  0.
         24    2    1    2    0    0  0.70076239276E+02 -0.77831154856E+02 -0.51772632991E+02  0.14123210005E+03  0.79358254646E+02 0.  0.
        -11    1    4    4    0    0 -0.10493559398E+02 -0.22507815153E+02 -0.33665114983E+02  0.41833676609E+02  0.00000000000E+00 0.  1.
         12    1    4    4    0    0  0.80569798673E+02 -0.55323339703E+02 -0.18107518008E+02  0.99398423441E+02  0.00000000000E+00 0. -1.
        -13    1    3    3    0    0  0.38774278302E+02  0.13003451312E+02 -0.11865575330E+03  0.12550586518E+03  0.00000000000E+00 0.  1.
         13    1    3    3    0    0 -0.34452501344E+02  0.57660503971E+02 -0.92471436176E+02  0.11429206042E+03  0.00000000000E+00 0. -1.
          1    1    1    2  501    0 -0.74398016233E+02  0.71671995731E+01  0.14367928679E+02  0.76110912120E+02  0.00000000000E+00 0. -1.
<scales pt_clust_5="13000.00000" pt_clust_6="13000.00000" pt_clust_7="13000.00000" pt_clust_8="13000.00000" pt_clust_9="13000.00000"></scales>
<clustering>
<clus scale="   79.358">  5  6 -1 -1</clus>
<clus scale="   74.742">  5  9 -1 -1</clus>
<clus scale="   88.973">  7  8 -1 -1</clus>
<clus scale="  113.703">  2  7  1 -1</clus>
<clus scale="  214.100">  1  5  2 -1</clus>
</clustering>
</event>
<event>
 9    2  0.3726337E-005  0.1870125E+03  0.7546771E-02  0.1191416E+00
         21   -1    0    0  501  502  0.00000000000E+00  0.00000000000E+00  0.11262658399E+03  0.11262658399E+03  0.00000000000E+00 0. -1.
          2   -1    0    0  502    0 -0.00000000000E+00 -0.00000000000E+00 -0.37451231712E+03  0.37451231712E+03  0.00000000000E+00 0. -1.
         23    2    1    2    0    0  0.23919874085E+02  0.10300279642E+02  0.62165885082E+02  0.11299569993E+03  0.90692749425E+02 0.  0.
         24    2    1    2    0    0 -0.34157872196E+02  0.60471185419E+02 -0.23235281025E+03  0.25785868693E+03  0.87634179958E+02 0.  0.
        -11    1    4    4    0    0  0.26843514399E+02  0.35449676895E+02 -0.74067778370E+02  0.86390333081E+02  0.00000000000E+00 0.  1.
         12    1    4    4    0    0 -0.61001386595E+02  0.25021508524E+02 -0.15828503188E+03  0.17146835385E+03  0.00000000000E+00 0. -1.
        -13    1    3    3    0    0 -0.29486330195E+02  0.18607200559E+02  0.66120082173E+01  0.35487888549E+02  0.00000000000E+00 0.  1.
         13    1    3    3    0    0  0.53406204280E+02 -0.83069209172E+01  0.55553876865E+02  0.77507811384E+02  0.00000000000E+00 0. -1.
          1    1    1    2  501    0  0.10237998111E+02 -0.70771465061E+02 -0.91698807957E+02  0.11628451424E+03  0.00000000000E+00 0. -1.
<scales pt_clust_5="13000.00000" pt_clust_6="13000.00000" pt_clust_7="13000.00000" pt_clust_8="13000.00000" pt_clust_9="13000.00000"></scales>
<clustering>
<clus scale="   87.634">  5  6 -1 -1</clus>
<clus scale="   71.508">  5  9 -1 -1</clus>
<clus scale="   90.693">  7  8 -1 -1</clus>
<clus scale="   94.358">  2  7  1 -1</clus>
<clus scale="  187.013">  1  5  2 -1</clus>
</clustering>
</event>
<event>
 9    2  0.3726337E-005  0.3253174E+03  0.7546771E-02  0.1118356E+00
         21   -1    0    0  501  502  0.00000000000E+00  0.00000000000E+00  0.81166774307E+03  0.81166774307E+03  0.00000000000E+00 0. -1.
          4   -1    0    0  502    0 -0.00000000000E+00 -0.00000000000E+00 -0.59262587014E+02  0.59262587014E+02  0.00000000000E+00 0. -1.
         23    2    1    2    0    0  0.40121152709E+02 -0.21994249749E+02  0.97071576166E+02  0.13929276510E+03  0.88803882753E+02 0.  0.
         24    2    1    2    0    0  0.12275213833E+03  0.45816309360E+02  0.24139419484E+03  0.28617037882E+03  0.80343678932E+02 0.  0.
        -13    1    4    4    0    0  0.55856259287E+02  0.61937818520E+02  0.11232312057E+03  0.13990246059E+03  0.00000000000E+00 0.  1.
         14    1    4    4    0    0  0.66895879040E+02 -0.16121509160E+02  0.12907107427E+03  0.14626791823E+03  0.00000000000E+00 0. -1.
        -11    1    3    3    0    0  0.16822067615E+02 -0.54703379912E+02  0.71900809609E+02  0.91897596025E+02  0.00000000000E+00 0.  1.
         11    1    3    3    0    0  0.23299085093E+02  0.32709130163E+02  0.25170766557E+02  0.47395169071E+02  0.00000000000E+00 0. -1.
          3    1    1    2  501    0 -0.16287329104E+03 -0.23822059611E+02  0.41393938505E+03  0.44546718617E+03  0.00000000000E+00 0. -1.
<scales pt_clust_5="13000.00000" pt_clust_6="13000.00000" pt_clust_7="13000.00000" pt_clust_8="13000.00000" pt_clust_9="13000.00000"></scales>
<clustering>
<clus scale="   80.344">  5  6 -1 -1</clus>
<clus scale="   88.804">  7  8 -1 -1</clus>
<clus scale="   99.898">  2  7  1 -1</clus>
<clus scale="  149.952">  5  9 -1 -1</clus>
<clus scale="  325.317">  1  5  2 -1</clus>
</clustering>
</event>
<event>
 9    2  0.3726337E-005  0.1321267E+03  0.7546771E-02  0.1235622E+00
         21   -1    0    0  501  502  0.00000000000E+00  0.00000000000E+00  0.58304077546E+02  0.58304077546E+02  0.00000000000E+00 0.  1.
         -3   -1    0    0    0  501 -0.00000000000E+00 -0.00000000000E+00 -0.25804055290E+03  0.25804055290E+03  0.00000000000E+00 0.  1.
         23    2    1    2    0    0  0.28367802109E+02 -0.45328361716E+02 -0.47974375141E+02  0.11512535215E+03  0.89960621749E+02 0.  0.
         24    2    1    2    0    0 -0.26658866011E+02  0.76575759784E+01 -0.66844338725E+02  0.10830515247E+03  0.80576093390E+02 0.  0.
        -11    1    4    4    0    0 -0.27021564608E+02  0.48403658526E+01  0.11605393610E+02  0.29804014097E+02  0.00000000000E+00 0.  1.
         12    1    4    4    0    0  0.36269859675E+00  0.28172101258E+01 -0.78449732335E+02  0.78501138377E+02  0.00000000000E+00 0. -1.
        -13    1    3    3    0    0  0.19994690061E+02 -0.65379023707E+02 -0.59406902580E+02  0.90572536929E+02  0.00000000000E+00 0.  1.
         13    1    3    3    0    0  0.83731120474E+01  0.20050661992E+02  0.11432527440E+02  0.24552815222E+02  0.00000000000E+00 0. -1.
         -4    1    1    2    0  502 -0.17089360975E+01  0.37670785737E+02 -0.84917761485E+02  0.92914125817E+02  0.00000000000E+00 0.  1.
<scales pt_clust_5="13000.00000" pt_clust_6="13000.00000" pt_clust_7="13000.00000" pt_clust_8="13000.00000" pt_clust_9="13000.00000"></scales>
<clustering>
<clus scale="   80.576">  5  6 -1 -1</clus>
<clus scale="   37.710">  5  9 -1 -1</clus>
<clus scale="   89.961">  7  8 -1 -1</clus>
<clus scale="  104.653">  2  7  1 -1</clus>
<clus scale="  132.127">  1  5  2 -1</clus>
</clustering>
</event>
<event>
 9    2  0.3726337E-005  0.2469485E+03  0.7546771E-02  0.1153224E+00
         -3   -1    0    0    0  501 -0.00000000000E+00  0.00000000000E+00  0.78554716974E+02  0.78554716974E+02  0.00000000000E+00 0.  1.
         21   -1    0    0  501  502  0.00000000000E+00 -0.00000000000E+00 -0.49293132175E+03  0.49293132175E+03  0.00000000000E+00 0.  1.
         23    2    1    2    0    0  0.31021246508E+02 -0.10811874698E+02 -0.10918139209E+02  0.98450840843E+02  0.92163701800E+02 0.  0.
         24    2    1    2    0    0  0.72534341948E+02 -0.14334736787E+02 -0.16686627663E+03  0.21355114089E+03  0.11087389258E+03 0.  0.
        -13    1    4    4    0    0  0.43151551111E+02 -0.55514749404E+02 -0.50215344832E+02  0.86403267423E+02  0.00000000000E+00 0.  1.
         14    1    4    4    0    0  0.29382790837E+02  0.41180012617E+02 -0.11665093180E+03  0.12714787346E+03  0.00000000000E+00 0. -1.
        -11    1    3    3    0    0 -0.26435963145E+02  0.19490303081E+02 -0.50208651926E+01  0.33225609835E+02  0.00000000000E+00 0. -1.
         11    1    3    3    0    0  0.57457209653E+02 -0.30302177778E+02 -0.58972740168E+01  0.65225231008E+02  0.00000000000E+00 0.  1.
         -4    1    1    2    0  502 -0.10355558846E+03  0.25146611485E+02 -0.23659218894E+03  0.25948405700E+03  0.00000000000E+00 0.  1.
<scales pt_clust_5="13000.00000" pt_clust_6="13000.00000" pt_clust_7="13000.00000" pt_clust_8="13000.00000" pt_clust_9="13000.00000"></scales>
<clustering>
<clus scale="   92.164">  7  8 -1 -1</clus>
<clus scale="   97.844">  1  7  2 -1</clus>
<clus scale="  110.874">  5  6 -1 -1</clus>
<clus scale="   95.813">  5  9 -1 -1</clus>
<clus scale="  246.949">  2  5  1 -1</clus>
</clustering>
</event>
<event>
 9    2  0.3726337E-005  0.3291856E+03  0.7546771E-02  0.1084126E+00
          2   -1    0    0  502    0 -0.00000000000E+00  0.00000000000E+00  0.29049042890E+04  0.29049042890E+04  0.00000000000E+00 0. -1.
         21   -1    0    0  501  502  0.00000000000E+00 -0.00000000000E+00 -0.27958299262E+02  0.27958299262E+02  0.00000000000E+00 0.  1.
         23    2    1    2    0    0  0.62922206126E+02  0.20566253899E+03  0.97747559672E+03  0.10050786385E+04  0.92023059219E+02 0.  0.
         24    2    1    2    0    0  0.44828944839E+02 -0.40289052444E+01  0.37191204908E+03  0.38321251180E+03  0.80668398904E+02 0.  0.
        -13    1    4    4    0    0 -0.21197990271E+02  0.46403489021E+01  0.50347005724E+02  0.54824343269E+02  0.00000000000E+00 0.  1.
         14    1    4    4    0    0  0.66026935110E+02 -0.86692541465E+01  0.32156504335E+03  0.32838816854E+03  0.00000000000E+00 0. -1.
        -11    1    3    3    0    0  0.18614544664E+02  0.17083810550E+03  0.82024151041E+03  0.83805029382E+03  0.00000000000E+00 0.  1.
         11    1    3    3    0    0  0.44307661461E+02  0.34824433498E+02  0.15723408631E+03  0.16702834469E+03  0.00000000000E+00 0. -1.
          1    1    1    2  501    0 -0.10775115096E+03 -0.20163363375E+03  0.15275583439E+04  0.15445714379E+04  0.00000000000E+00 0. -1.
<scales pt_clust_5="13000.00000" pt_clust_6="13000.00000" pt_clust_7="13000.00000" pt_clust_8="13000.00000" pt_clust_9="13000.00000"></scales>
<clustering>
<clus scale="   80.668">  5  6 -1 -1</clus>
<clus scale="   92.023">  7  8 -1 -1</clus>
<clus scale="  228.619">  5  9 -1 -1</clus>
<clus scale="  233.933">  1  7  2 -1</clus>
<clus scale="  329.186">  2  5  1 -1</clus>
</clustering>
</event>
<event>
 9    2  0.3726337E-005  0.2705509E+03  0.7546771E-02  0.1136178E+00
         21   -1    0    0  501  502  0.00000000000E+00  0.00000000000E+00  0.22102211072E+03  0.22102211072E+03  0.00000000000E+00 0.  1.
          2   -1    0    0  502    0 -0.00000000000E+00 -0.00000000000E+00 -0.17527240651E+03  0.17527240651E+03  0.00000000000E+00 0. -1.
         23    2    1    2    0    0  0.50832857388E+02 -0.47072674615E+02  0.56921937239E+02  0.12551304145E+03  0.87827106009E+02 0.  0.
         24    2    1    2    0    0  0.72058023418E+02  0.66259669398E+02 -0.54786456939E+02  0.13897665840E+03  0.82038120343E+02 0.  0.
        -13    1    4    4    0    0  0.37704386899E+02  0.81724997652E+02 -0.36937082537E+02  0.97287944263E+02  0.00000000000E+00 0.  1.
         14    1    4    4    0    0  0.34353636519E+02 -0.15465328254E+02 -0.17849374402E+02  0.41688714140E+02  0.00000000000E+00 0. -1.
        -11    1    3    3    0    0  0.67046773883E+02 -0.19075695951E+02  0.12916249057E+02  0.70894157402E+02  0.00000000000E+00 0. -1.
         11    1    3    3    0    0 -0.16213916495E+02 -0.27996978665E+02  0.44005688182E+02  0.54618884050E+02  0.00000000000E+00 0.  1.
          1    1    1    2  501    0 -0.12289088081E+03 -0.19186994782E+02  0.43614223911E+02  0.13180481737E+03  0.00000000000E+00 0. -1.
<scales pt_clust_5="13000.00000" pt_clust_6="13000.00000" pt_clust_7="13000.00000" pt_clust_8="13000.00000" pt_clust_9="13000.00000"></scales>
<clustering>
<clus scale="   82.038">  5  6 -1 -1</clus>
<clus scale="   87.827">  7  8 -1 -1</clus>
<clus scale="  111.863">  2  7  1 -1</clus>
<clus scale="  112.237">  5  9 -1 -1</clus>
<clus scale="  270.551">  1  5  2 -1</clus>
</clustering>
</event>
<event>
 9    2  0.3726337E-005  0.1265427E+03  0.7546771E-02  0.1247270E+00
          2   -1    0    0  502    0 -0.00000000000E+00  0.00000000000E+00  0.16724229793E+03  0.16724229793E+03  0.00000000000E+00 0. -1.
         21   -1    0    0  501  502  0.00000000000E+00 -0.00000000000E+00 -0.10074589025E+03  0.10074589025E+03  0.00000000000E+00 0. -1.
         23    2    1    2    0    0 -0.14765849182E+02 -0.16704783425E+02  0.99779774039E+02  0.13714155732E+03  0.91404175749E+02 0.  0.
         24    2    1    2    0    0 -0.42889937591E+01 -0.20251176192E+02 -0.11556772299E+02  0.83933147936E+02  0.80515270178E+02 0.  0.
        -11    1    4    4    0    0 -0.31306393326E+02  0.72602819141E+01  0.16615685539E+02  0.36178487565E+02  0.00000000000E+00 0.  1.
         12    1    4    4    0    0  0.27017399567E+02 -0.27511458106E+02 -0.28172457838E+02  0.47754660371E+02  0.00000000000E+00 0. -1.
        -11    1    3    3    0    0 -0.53588692572E+02 -0.98604359978E+01  0.61981104697E+02  0.82526562446E+02  0.00000000000E+00 0. -1.
         11    1    3    3    0    0  0.38822843390E+02 -0.68443474273E+01  0.37798669342E+02  0.54614994870E+02  0.00000000000E+00 0.  1.
          1    1    1    2  501    0  0.19054842941E+02  0.36955959617E+02 -0.21726594055E+02  0.46913482923E+02  0.00000000000E+00 0. -1.
<scales pt_clust_5="13000.00000" pt_clust_6="13000.00000" pt_clust_7="13000.00000" pt_clust_8="13000.00000" pt_clust_9="13000.00000"></scales>
<clustering>
<clus scale="   80.515">  5  6 -1 -1</clus>
<clus scale="   41.579">  5  9 -1 -1</clus>
<clus scale="   91.404">  7  8 -1 -1</clus>
<clus scale="   94.084">  1  7  2 -1</clus>
<clus scale="  126.543">  2  5  1 -1</clus>
</clustering>
</event>
<event>
 9    2  0.3726337E-005  0.2814120E+03  0.7546771E-02  0.1136782E+00
         21   -1    0    0  501  502  0.00000000000E+00  0.00000000000E+00  0.27514919156E+02  0.27514919156E+02  0.00000000000E+00 0. -1.
          2   -1    0    0  502    0 -0.00000000000E+00 -0.00000000000E+00 -0.17528087020E+04  0.17528087020E+04  0.00000000000E+00 0. -1.
         23    2    1    2    0    0  0.10102896495E+02 -0.30726490412E+02 -0.14384899854E+03  0.17403587984E+03  0.92464952053E+02 0.  0.
         24    2    1    2    0    0 -0.12686991793E+03  0.49701377394E+02 -0.10540391535E+04  0.10657775351E+04  0.79479646530E+02 0.  0.
        -13    1    4    4    0    0 -0.10720019618E+02  0.39023314925E+02 -0.23171582644E+03  0.23522321771E+03  0.00000000000E+00 0.  1.
         14    1    4    4    0    0 -0.11614989831E+03  0.10678062469E+02 -0.82232332702E+03  0.83055431734E+03  0.00000000000E+00 0. -1.
        -13    1    3    3    0    0 -0.17942628219E+02  0.23061057199E+02 -0.83519005161E+02  0.88482622529E+02  0.00000000000E+00 0.  1.
         13    1    3    3    0    0  0.28045524714E+02 -0.53787547611E+02 -0.60329993381E+02  0.85553257307E+02  0.00000000000E+00 0. -1.
          1    1    1    2  501    0  0.11676702144E+03 -0.18974886982E+02 -0.52740563082E+03  0.54051020624E+03  0.00000000000E+00 0. -1.
<scales pt_clust_5="13000.00000" pt_clust_6="13000.00000" pt_clust_7="13000.00000" pt_clust_8="13000.00000" pt_clust_9="13000.00000"></scales>
<clustering>
<clus scale="   79.480">  5  6 -1 -1</clus>
<clus scale="   92.465">  7  8 -1 -1</clus>
<clus scale="   97.959">  2  7  1 -1</clus>
<clus scale="  123.665">  5  9 -1 -1</clus>
<clus scale="  281.412">  1  5  2 -1</clus>
</clustering>
</event>
<event>
 9    2  0.3726337E-005  0.2007658E+03  0.7546771E-02  0.1169916E+00
          4   -1    0    0  502    0 -0.00000000000E+00  0.00000000000E+00  0.39411100780E+02  0.39411100780E+02  0.00000000000E+00 0. -1.
         21   -1    0    0  501  502  0.00000000000E+00 -0.00000000000E+00 -0.67497221914E+03  0.67497221914E+03  0.00000000000E+00 0. -1.
         23    2    1    2    0    0  0.73138344333E+02  0.40788499513E+02 -0.20620553097E+03  0.24040745594E+03  0.90896120750E+02 0.  0.
         24    2    1    2    0    0  0.32087831410E+02 -0.40198560518E+02 -0.22055364554E+03  0.24015724408E+03  0.79912690669E+02 0.  0.
        -13    1    4    4    0    0 -0.24560463679E+02 -0.24751986428E+02 -0.62808121779E+02  0.71838272318E+02  0.00000000000E+00 0.  1.
         14    1    4    4    0    0  0.56648295090E+02 -0.15446574090E+02 -0.15774552376E+03  0.16831897176E+03  0.00000000000E+00 0. -1.
        -11    1    3    3    0    0  0.25570916626E+02  0.36123415192E+02 -0.18107990705E+03  0.18641004705E+03  0.00000000000E+00 0. -1.
         11    1    3    3    0    0  0.47567427706E+02  0.46650843211E+01 -0.25125623915E+02  0.53997408896E+02  0.00000000000E+00 0.  1.
          3    1    1    2  501    0 -0.10522617574E+03 -0.58993899527E+00 -0.20880194186E+03  0.23381861990E+03  0.00000000000E+00 0. -1.
<scales pt_clust_5="13000.00000" pt_clust_6="13000.00000" pt_clust_7="13000.00000" pt_clust_8="13000.00000" pt_clust_9="13000.00000"></scales>
<clustering>
<clus scale="   79.913">  5  6 -1 -1</clus>
<clus scale="   90.896">  7  8 -1 -1</clus>
<clus scale="  105.228">  5  9 -1 -1</clus>
<clus scale="  123.592">  1  7  2 -1</clus>
<clus scale="  200.766">  2  5  1 -1</clus>
</clustering>
</event>
<event>
 9    2  0.3726337E-005  0.4225700E+03  0.7546771E-02  0.1059244E+00
         21   -1    0    0  501  502  0.00000000000E+00  0.00000000000E+00  0.51433642818E+03  0.51433642818E+03  0.00000000000E+00 0. -1.
          2   -1    0    0  502    0 -0.00000000000E+00 -0.00000000000E+00 -0.20779035077E+03  0.20779035077E+03  0.00000000000E+00 0. -1.
         23    2    1    2    0    0 -0.15370879992E+03  0.12377382063E+03  0.17379221566E+03  0.27919454020E+03  0.93805667250E+02 0.  0.
         24    2    1    2    0    0  0.36575770186E+01  0.74905787313E+01 -0.10617820510E+03  0.13175022673E+03  0.77555298764E+02 0.  0.
        -13    1    4    4    0    0  0.38949808483E+02  0.50680985214E+01 -0.36561135907E+02  0.53660878323E+02  0.00000000000E+00 0.  1.
         14    1    4    4    0    0 -0.35292231465E+02  0.24224802099E+01 -0.69617069190E+02  0.78089348408E+02  0.00000000000E+00 0. -1.
        -11    1    3    3    0    0 -0.10399132794E+03  0.24743164377E+02  0.97304217324E+02  0.14454940740E+03  0.00000000000E+00 0. -1.
         11    1    3    3    0    0 -0.49717471982E+02  0.99030656255E+02  0.76487998332E+02  0.13464513280E+03  0.00000000000E+00 0.  1.
          1    1    1    2  501    0  0.15005122291E+03 -0.13126439936E+03  0.23893206684E+03  0.31118201201E+03  0.00000000000E+00 0. -1.
<scales pt_clust_5="13000.00000" pt_clust_6="13000.00000" pt_clust_7="13000.00000" pt_clust_8="13000.00000" pt_clust_9="13000.00000"></scales>
<clustering>
<clus scale="   77.555">  5  6 -1 -1</clus>
<clus scale="   93.806">  7  8 -1 -1</clus>
<clus scale="  199.363">  5  9 -1 -1</clus>
<clus scale="  218.508">  2  7  1 -1</clus>
<clus scale="  422.570">  1  5  2 -1</clus>
</clustering>
</event>
<event>
 9    2  0.3726337E-005  0.4499151E+03  0.7546771E-02  0.1079522E+00
         -1   -1    0    0    0  501 -0.00000000000E+00  0.00000000000E+00  0.90024956566E+02  0.90024956566E+02  0.00000000000E+00 0.  1.
         21   -1    0    0  501  502  0.00000000000E+00 -0.00000000000E+00 -0.87038263938E+03  0.87038263938E+03  0.00000000000E+00 0.  1.
         23    2    1    2    0    0 -0.11075106941E+02  0.35144931598E+02 -0.95349590369E+02  0.14085913711E+03  0.96911959604E+02 0.  0.
         24    2    1    2    0    0  0.12554876757E+02  0.19152915252E+03 -0.43294154865E+03  0.48054864669E+03  0.81532668900E+02 0.  0.
        -11    1    4    4    0    0  0.23867160061E+02  0.12501554832E+03 -0.35677731539E+03  0.37879886672E+03  0.00000000000E+00 0.  1.
         12    1    4    4    0    0 -0.11312283304E+02  0.66513604198E+02 -0.76164233260E+02  0.10174977998E+03  0.00000000000E+00 0. -1.
        -13    1    3    3    0    0  0.80947984784E+00  0.59080949848E+02 -0.22436595879E+02  0.63202964544E+02  0.00000000000E+00 0.  1.
         13    1    3    3    0    0 -0.11884586789E+02 -0.23936018249E+02 -0.72912994490E+02  0.77656172571E+02  0.00000000000E+00 0. -1.
         -2    1    1    2    0  502 -0.14797698159E+01 -0.22667408412E+03 -0.25206654380E+03  0.33899981214E+03  0.00000000000E+00 0.  1.
<scales pt_clust_5="13000.00000" pt_clust_6="13000.00000" pt_clust_7="13000.00000" pt_clust_8="13000.00000" pt_clust_9="13000.00000"></scales>
<clustering>
<clus scale="   81.533">  5  6 -1 -1</clus>
<clus scale="   96.912">  7  8 -1 -1</clus>
<clus scale="  103.681">  1  7  2 -1</clus>
<clus scale="  204.148">  5  9 -1 -1</clus>
<clus scale="  449.915">  2  5  1 -1</clus>
</clustering>
</event>
<event>
 9    2  0.3726337E-005  0.1358335E+03  0.7546771E-02  0.1237601E+00
         -1   -1    0    0    0  501 -0.00000000000E+00  0.00000000000E+00  0.32578880592E+02  0.32578880592E+02  0.00000000000E+00 0.  1.
         21   -1    0    0  501  502  0.00000000000E+00 -0.00000000000E+00 -0.40537081600E+03  0.40537081600E+03  0.00000000000E+00 0.  1.
         23    2    1    2    0    0 -0.19136285244E+02 -0.52414455984E+01 -0.17603702761E+03  0.19886134835E+03  0.90350044892E+02 0.  0.
         24    2    1    2    0    0  0.11525723702E+02 -0.36992194469E+02 -0.11181541224E+03  0.14392365465E+03  0.81914999824E+02 0.  0.
        -11    1    4    4    0    0 -0.30048020514E+02 -0.14004450240E+02 -0.15640420005E+02  0.36655571218E+02  0.00000000000E+00 0.  1.
         12    1    4    4    0    0  0.41573744217E+02 -0.22987744229E+02 -0.96174992232E+02  0.10726808343E+03  0.00000000000E+00 0. -1.
        -11    1    3    3    0    0  0.23172639903E+01  0.38735348641E+02 -0.47559772324E+02  0.61381828665E+02  0.00000000000E+00 0. -1.
         11    1    3    3    0    0 -0.21453549234E+02 -0.43976794240E+02 -0.12847725529E+03  0.13747951968E+03  0.00000000000E+00 0.  1.
         -2    1    1    2    0  502  0.76105615415E+01  0.42233640067E+02 -0.84939495555E+02  0.95164693587E+02  0.00000000000E+00 0.  1.
<scales pt_clust_5="13000.00000" pt_clust_6="13000.00000" pt_clust_7="13000.00000" pt_clust_8="13000.00000" pt_clust_9="13000.00000"></scales>
<clustering>
<clus scale="   81.915">  5  6 -1 -1</clus>
<clus scale="   42.914">  5  9 -1 -1</clus>
<clus scale="   90.350">  7  8 -1 -1</clus>
<clus scale="   92.503">  1  7  2 -1</clus>
<clus scale="  135.834">  2  5  1 -1</clus>
</clustering>
</event>
<event>
 9    2  0.3726337E-005  0.1456521E+03  0.7546771E-02  0.1214301E+00
         21   -1    0    0  501  502  0.00000000000E+00  0.00000000000E+00  0.31291084076E+03  0.31291084076E+03  0.00000000000E+00 0. -1.
          4   -1    0    0  502    0 -0.00000000000E+00 -0.00000000000E+00 -0.69729198769E+02  0.69729198769E+02  0.00000000000E+00 0. -1.
         23    2    1    2    0    0 -0.15197546806E+02 -0.87836340623E+02  0.19371352335E+03  0.22881662973E+03  0.82981520532E+02 0.  0.
         24    2    1    2    0    0  0.35073890843E+02  0.45625865384E+02  0.33202225899E+02  0.10441316249E+03  0.80547025308E+02 0.  0.
        -11    1    4    4    0    0  0.27526326066E+01  0.60760591269E+02  0.31945378368E+02  0.68701773170E+02  0.00000000000E+00 0.  1.
         12    1    4    4    0    0  0.32321258236E+02 -0.15134725885E+02  0.12568475309E+01  0.35711389322E+02  0.00000000000E+00 0. -1.
        -13    1    3    3    0    0 -0.41135189118E+02 -0.27529887435E+02  0.47775798544E+02  0.68793352967E+02  0.00000000000E+00 0.  1.
         13    1    3    3    0    0  0.25937642311E+02 -0.60306453187E+02  0.14593772481E+03  0.16002327676E+03  0.00000000000E+00 0. -1.
          3    1    1    2  501    0 -0.19876344037E+02  0.42210475238E+02  0.16265892741E+02  0.49410247305E+02  0.00000000000E+00 0. -1.
<scales pt_clust_5="13000.00000" pt_clust_6="13000.00000" pt_clust_7="13000.00000" pt_clust_8="13000.00000" pt_clust_9="13000.00000"></scales>
<clustering>
<clus scale="   80.547">  5  6 -1 -1</clus>
<clus scale="   46.656">  5  9 -1 -1</clus>
<clus scale="   82.982">  7  8 -1 -1</clus>
<clus scale="  121.787">  2  7  1 -1</clus>
<clus scale="  145.652">  1  5  2 -1</clus>
</clustering>
</event>
<event>
 9    2  0.3726337E-005  0.1141945E+03  0.7546771E-02  0.1258640E+00
         -1   -1    0    0    0  501 -0.00000000000E+00  0.00000000000E+00  0.96335560231E+02  0.96335560231E+02  0.00000000000E+00 0.  1.
         21   -1    0    0  501  502  0.00000000000E+00 -0.00000000000E+00 -0.13210702710E+03  0.13210702710E+03  0.00000000000E+00 0.  1.
         23    2    1    2    0    0 -0.46445760628E+02 -0.82646716036E+00  0.15453720886E+02  0.10328506069E+03  0.90945558130E+02 0.  0.
         24    2    1    2    0    0  0.30876610138E+02  0.20027762951E+02 -0.47194312126E+02  0.10011084691E+03  0.80252116673E+02 0.  0.
        -13    1    4    4    0    0  0.24934717889E+02  0.22093095113E+02 -0.69426547979E+02  0.77005782719E+02  0.00000000000E+00 0.  1.
         14    1    4    4    0    0  0.59418922496E+01 -0.20653321622E+01  0.22232235853E+02  0.23105064196E+02  0.00000000000E+00 0. -1.
        -13    1    3    3    0    0  0.32684269337E+01  0.33498059879E+02  0.25260145552E+02  0.42081796345E+02  0.00000000000E+00 0.  1.
         13    1    3    3    0    0 -0.49714187562E+02 -0.34324527040E+02 -0.98064246661E+01  0.61203264342E+02  0.00000000000E+00 0. -1.
         -2    1    1    2    0  502  0.15569150489E+02 -0.19201295791E+02 -0.40308756256E+01  0.25046679726E+02  0.00000000000E+00 0.  1.
<scales pt_clust_5="13000.00000" pt_clust_6="13000.00000" pt_clust_7="13000.00000" pt_clust_8="13000.00000" pt_clust_9="13000.00000"></scales>
<clustering>
<clus scale="   80.252">  5  6 -1 -1</clus>
<clus scale="   24.720">  5  9 -1 -1</clus>
<clus scale="   90.946">  7  8 -1 -1</clus>
<clus scale="  102.122">  1  7  2 -1</clus>
<clus scale="  114.195">  2  5  1 -1</clus>
</clustering>
</event>
<event>
 9    2  0.3726337E-005  0.1708740E+03  0.7546771E-02  0.1195295E+00
         -3   -1    0    0    0  501 -0.00000000000E+00  0.00000000000E+00  0.25150425334E+03  0.25150425334E+03  0.00000000000E+00 0.  1.
         21   -1    0    0  501  502  0.00000000000E+00 -0.00000000000E+00 -0.13188052279E+03  0.13188052279E+03  0.00000000000E+00 0. -1.
         23    2    1    2    0    0 -0.60581009966E+02 -0.35771344914E+02 -0.65766727295E+02  0.13125873688E+03  0.89184896165E+02 0.  0.
         24    2    1    2    0    0 -0.37673754584E+01 -0.19558040889E+02  0.47720589715E+02  0.90400814772E+02  0.74150809486E+02 0.  0.
        -11    1    4    4    0    0  0.30972809630E+02 -0.19248629538E+02  0.74583701438E+01  0.37221659832E+02  0.00000000000E+00 0.  1.
         12    1    4    4    0    0 -0.34740185088E+02 -0.30941135070E+00  0.40262219571E+02  0.53179154940E+02  0.00000000000E+00 0. -1.
        -11    1    3    3    0    0 -0.21145086255E+02  0.28348058394E+02 -0.77127001922E+01  0.36196862180E+02  0.00000000000E+00 0.  1.
         11    1    3    3    0    0 -0.39435923711E+02 -0.64119403308E+02 -0.58054027103E+02  0.95061874704E+02  0.00000000000E+00 0. -1.
         -4    1    1    2    0  502  0.64348385424E+02  0.55329385803E+02  0.13766986813E+03  0.16172522447E+03  0.00000000000E+00 0.  1.
<scales pt_clust_5="13000.00000" pt_clust_6="13000.00000" pt_clust_7="13000.00000" pt_clust_8="13000.00000" pt_clust_9="13000.00000"></scales>
<clustering>
<clus scale="   74.151">  5  6 -1 -1</clus>
<clus scale="   84.865">  5  9 -1 -1</clus>
<clus scale="   89.185">  7  8 -1 -1</clus>
<clus scale="  113.594">  1  7  2 -1</clus>
<clus scale="  170.874">  2  5  1 -1</clus>
</clustering>
</event>
<event>
 9    2  0.3726337E-005  0.2876082E+03  0.7546771E-02  0.1108595E+00
         21   -1    0    0  501  502  0.00000000000E+00  0.00000000000E+00  0.75869375667E+02  0.75869375667E+02  0.00000000000E+00 0.  1.
         -3   -1    0    0    0  501 -0.00000000000E+00 -0.00000000000E+00 -0.79044313531E+03  0.79044313531E+03  0.00000000000E+00 0.  1.
         23    2    1    2    0    0 -0.15956120377E+03  0.26261116329E+02 -0.39600620544E+03  0.43712284577E+03  0.90033569140E+02 0.  0.
         24    2    1    2    0    0 -0.36857162427E+02  0.87752428830E+01 -0.79333228964E+02  0.11767596820E+03  0.78220310434E+02 0.  0.
        -11    1    4    4    0    0 -0.11894785276E+01  0.38989817119E+02 -0.26639873245E+02  0.47236675843E+02  0.00000000000E+00 0.  1.
         12    1    4    4    0    0 -0.35667683899E+02 -0.30214574236E+02 -0.52693355719E+02  0.70439292358E+02  0.00000000000E+00 0. -1.
        -13    1    3    3    0    0 -0.11770698129E+03  0.50646086872E+01 -0.17347688518E+03  0.20970172483E+03  0.00000000000E+00 0.  1.
         13    1    3    3    0    0 -0.41854222481E+02  0.21196507642E+02 -0.22252932026E+03  0.22742112094E+03  0.00000000000E+00 0. -1.
         -4    1    1    2    0  502  0.19641836620E+03 -0.35036359212E+02 -0.23923432524E+03  0.31151369701E+03  0.00000000000E+00 0.  1.
<scales pt_clust_5="13000.00000" pt_clust_6="13000.00000" pt_clust_7="13000.00000" pt_clust_8="13000.00000" pt_clust_9="13000.00000"></scales>
<clustering>
<clus scale="   78.220">  5  6 -1 -1</clus>
<clus scale="   90.034">  7  8 -1 -1</clus>
<clus scale="  185.082">  2  7  1 -1</clus>
<clus scale="   80.442">  5  9 -1 -1</clus>
<clus scale="  287.608">  1  5  2 -1</clus>
</clustering>
</event>
<event>
 9    2  0.3726337E-005  0.5318740E+03  0.7546771E-02  0.1061961E+00
         21   -1    0    0  501  502  0.00000000000E+00  0.00000000000E+00  0.25535775549E+03  0.25535775549E+03  0.00000000000E+00 0. -1.
          2   -1    0    0  502    0 -0.00000000000E+00 -0.00000000000E+00 -0.39329198878E+03  0.39329198878E+03  0.00000000000E+00 0. -1.
         23    2    1    2    0    0 -0.43432309058E+02 -0.18891770406E+02 -0.14013462008E+02  0.10253041195E+03  0.89849005543E+02 0.  0.
         24    2    1    2    0    0  0.95897317228E+01 -0.24948055208E+03 -0.53286774091E+02  0.26655147817E+03  0.76666168551E+02 0.  0.
        -13    1    4    4    0    0  0.39109719602E+02 -0.79586488495E+02 -0.20676469218E+02  0.91055453970E+02  0.00000000000E+00 0.  1.
         14    1    4    4    0    0 -0.29519987879E+02 -0.16989406359E+03 -0.32610304873E+02  0.17549602420E+03  0.00000000000E+00 0. -1.
        -13    1    3    3    0    0  0.22652968667E+02  0.10966187292E+02  0.85556966609E+01  0.26582215832E+02  0.00000000000E+00 0.  1.
         13    1    3    3    0    0 -0.66085277725E+02 -0.29857957698E+02 -0.22569158669E+02  0.75948196114E+02  0.00000000000E+00 0. -1.
          1    1    1    2  501    0  0.33842577335E+02  0.26837232249E+03 -0.70633997193E+02  0.27956785416E+03  0.00000000000E+00 0. -1.
<scales pt_clust_5="13000.00000" pt_clust_6="13000.00000" pt_clust_7="13000.00000" pt_clust_8="13000.00000" pt_clust_9="13000.00000"></scales>
<clustering>
<clus scale="   76.666">  5  6 -1 -1</clus>
<clus scale="   89.849">  7  8 -1 -1</clus>
<clus scale="  101.568">  2  7  1 -1</clus>
<clus scale="  258.739">  5  9 -1 -1</clus>
<clus scale="  531.874">  1  5  2 -1</clus>
</clustering>
</event>
<event>
 9    2  0.3726337E-005  0.2889054E+03  0.7546771E-02  0.1098607E+00
         21   -1    0    0  501  502  0.00000000000E+00  0.00000000000E+00  0.15633296609E+03  0.15633296609E+03  0.00000000000E+00 0.  1.
         -3   -1    0    0    0  501 -0.00000000000E+00 -0.00000000000E+00 -0.44353415184E+03  0.44353415184E+03  0.00000000000E+00 0.  1.
         23    2    1    2    0    0 -0.15699173800E+03 -0.14710898357E+03 -0.10657842017E+03  0.25914592897E+03  0.97520223594E+02 0.  0.
         24    2    1    2    0    0  0.15425842699E+03  0.34948283058E+02 -0.11205328405E+03  0.20923252965E+03  0.78773524815E+02 0.  0.
        -11    1    4    4    0    0  0.96706519799E+02 -0.15440152478E+02 -0.46131246862E+02  0.10825267303E+03  0.00000000000E+00 0.  1.
         12    1    4    4    0    0  0.57551907191E+02  0.50388435536E+02 -0.65922037188E+02  0.10097985663E+03  0.00000000000E+00 0. -1.
        -13    1    3    3    0    0 -0.34351657653E+02 -0.48121079302E+02 -0.79747119274E+02  0.99273751260E+02  0.00000000000E+00 0. -1.
         13    1    3    3    0    0 -0.12264008035E+03 -0.98987904270E+02 -0.26831300896E+02  0.15987217771E+03  0.00000000000E+00 0.  1.
         -4    1    1    2    0  502  0.27333110086E+01  0.11216070051E+03 -0.68569481536E+02  0.13148865931E+03  0.00000000000E+00 0.  1.
<scales pt_clust_5="13000.00000" pt_clust_6="13000.00000" pt_clust_7="13000.00000" pt_clust_8="13000.00000" pt_clust_9="13000.00000"></scales>
<clustering>
<clus scale="   78.774">  5  6 -1 -1</clus>
<clus scale="   97.520">  7  8 -1 -1</clus>
<clus scale="  112.194">  5  9 -1 -1</clus>
<clus scale="  236.215">  2  7  1 -1</clus>
<clus scale="  288.905">  1  5  2 -1</clus>
</clustering>
</event>
<event>
 9    2  0.3726337E-005  0.2181675E+03  0.7546771E-02  0.1172804E+00
         21   -1    0    0  501  502  0.00000000000E+00  0.00000000000E+00  0.11746737505E+03  0.11746737505E+03  0.00000000000E+00 0. -1.
          2   -1    0    0  502    0 -0.00000000000E+00 -0.00000000000E+00 -0.21917560763E+03  0.21917560763E+03  0.00000000000E+00 0. -1.
         23    2    1    2    0    0  0.81224611948E+01  0.52620011093E+01  0.11414423734E+02  0.90891477828E+02  0.89651038148E+02 0.  0.
         24    2    1    2    0    0  0.62527646399E+01  0.20595594391E+02 -0.16552437039E+03  0.18557508089E+03  0.81095732813E+02 0.  0.
        -13    1    4    4    0    0  0.29946874001E+02 -0.14456386958E+02 -0.34621537072E+02  0.48004720763E+02  0.00000000000E+00 0.  1.
         14    1    4    4    0    0 -0.23694109361E+02  0.35051981349E+02 -0.13090283332E+03  0.13757036013E+03  0.00000000000E+00 0. -1.
        -11    1    3    3    0    0 -0.38516778569E+02 -0.84997752457E+01  0.14842322819E+02  0.42143599244E+02  0.00000000000E+00 0.  1.
         11    1    3    3    0    0  0.46639239764E+02  0.13761776355E+02 -0.34278990849E+01  0.48747878583E+02  0.00000000000E+00 0. -1.
          1    1    1    2  501    0 -0.14375225835E+02 -0.25857595501E+02  0.52401714077E+02  0.60176423964E+02  0.00000000000E+00 0. -1.
<scales pt_clust_5="13000.00000" pt_clust_6="13000.00000" pt_clust_7="13000.00000" pt_clust_8="13000.00000" pt_clust_9="13000.00000"></scales>
<clustering>
<clus scale="   81.096">  5  6 -1 -1</clus>
<clus scale="   29.585">  5  9 -1 -1</clus>
<clus scale="   89.651">  7  8 -1 -1</clus>
<clus scale="   90.172">  2  7  1 -1</clus>
<clus scale="  218.168">  1  5  2 -1</clus>
</clustering>
</event>
<event>
 9    2  0.3726337E-005  0.1876208E+03  0.7546771E-02  0.1187306E+00
         21   -1    0    0  501  502  0.00000000000E+00  0.00000000000E+00  0.49553199077E+03  0.49553199077E+03  0.00000000000E+00 0.  1.
         -3   -1    0    0    0  501 -0.00000000000E+00 -0.00000000000E+00 -0.42434864655E+02  0.42434864655E+02  0.00000000000E+00 0.  1.
         23    2    1    2    0    0  0.44089593752E+02  0.10581804656E+02  0.15455338675E+03  0.18536233841E+03  0.91741922134E+02 0.  0.
         24    2    1    2    0    0  0.35133007220E+02  0.36852001155E+02  0.16169824722E+03  0.18752006845E+03  0.80156439120E+02 0.  0.
        -11    1    4    4    0    0  0.20619201357E+02 -0.11720099912E+02  0.11870035059E+03  0.12104662505E+03  0.00000000000E+00 0.  1.
         12    1    4    4    0    0  0.14513805862E+02  0.48572101067E+02  0.42997896632E+02  0.66473443400E+02  0.00000000000E+00 0. -1.
        -11    1    3    3    0    0 -0.94112648876E+01  0.38882682886E+02  0.45078757223E+02  0.60270467793E+02  0.00000000000E+00 0.  1.
         11    1    3    3    0    0  0.53500858640E+02 -0.28300878229E+02  0.10947462953E+03  0.12509187062E+03  0.00000000000E+00 0. -1.
         -4    1    1    2    0  502 -0.79222600972E+02 -0.47433805811E+02  0.13684549214E+03  0.16508444857E+03  0.00000000000E+00 0.  1.
<scales pt_clust_5="13000.00000" pt_clust_6="13000.00000" pt_clust_7="13000.00000" pt_clust_8="13000.00000" pt_clust_9="13000.00000"></scales>
<clustering>
<clus scale="   80.156">  5  6 -1 -1</clus>
<clus scale="   91.742">  7  8 -1 -1</clus>
<clus scale="   92.337">  5  9 -1 -1</clus>
<clus scale="  102.335">  2  7  1 -1</clus>
<clus scale="  187.621">  1  5  2 -1</clus>
</clustering>
</event>
<event>
 9    2  0.3726337E-005  0.5273191E+03  0.7546771E-02  0.1063179E+00
         21   -1    0    0  501  502  0.00000000000E+00  0.00000000000E+00  0.71495284456E+03  0.71495284456E+03  0.00000000000E+00 0.  1.
          2   -1    0    0  502    0 -0.00000000000E+00 -0.00000000000E+00 -0.22138097598E+03  0.22138097598E+03  0.00000000000E+00 0. -1.
         23    2    1    2    0    0 -0.43483118174E+02  0.15413475624E+02 -0.10028165398E+03  0.14215030328E+03  0.89565293512E+02 0.  0.
         24    2    1    2    0    0  0.15969479924E+03 -0.21442213247E+03  0.42704189318E+03  0.50969147869E+03  0.77080121464E+02 0.  0.
        -11    1    4    4    0    0  0.45851914096E+02 -0.12393107646E+03  0.18559161866E+03  0.22782791457E+03  0.00000000000E+00 0.  1.
         12    1    4    4    0    0  0.11384288515E+03 -0.90491056001E+02  0.24145027452E+03  0.28186356412E+03  0.00000000000E+00 0. -1.
        -11    1    3    3    0    0 -0.33194985425E+01 -0.31336127136E+02 -0.62130686313E+02  0.69664870029E+02  0.00000000000E+00 0.  1.
         11    1    3    3    0    0 -0.40163619631E+02  0.46749602760E+02 -0.38150967665E+02  0.72485433253E+02  0.00000000000E+00 0. -1.
          1    1    1    2  501    0 -0.11621168107E+03  0.19900865684E+03  0.16681162938E+03  0.28449203857E+03  0.00000000000E+00 0. -1.
<scales pt_clust_5="13000.00000" pt_clust_6="13000.00000" pt_clust_7="13000.00000" pt_clust_8="13000.00000" pt_clust_9="13000.00000"></scales>
<clustering>
<clus scale="   77.080">  5  6 -1 -1</clus>
<clus scale="   89.565">  7  8 -1 -1</clus>
<clus scale="  100.749">  2  7  1 -1</clus>
<clus scale="  251.763">  5  9 -1 -1</clus>
<clus scale="  527.319">  1  5  2 -1</clus>
</clustering>
</event>
<event>
 9    2  0.3726337E-005  0.5065807E+03  0.7546771E-02  0.1070164E+00
         21   -1    0    0  501  502  0.00000000000E+00  0.00000000000E+00  0.56037811825E+03  0.56037811825E+03  0.00000000000E+00 0. -1.
          4   -1    0    0  502    0 -0.00000000000E+00 -0.00000000000E+00 -0.16143590189E+03  0.16143590189E+03  0.00000000000E+00 0. -1.
         23    2    1    2    0    0  0.19211859109E+02 -0.12812219376E+02  0.45752637465E+02  0.10426492351E+03  0.90799900575E+02 0.  0.
         24    2    1    2    0    0  0.23280301515E+02 -0.15257662890E+03 -0.51561468976E+02  0.17825140075E+03  0.72755595399E+02 0.  0.
        -11    1    4    4    0    0  0.11261397911E+02 -0.77296127624E+02 -0.64033564472E+02  0.10100399897E+03  0.00000000000E+00 0.  1.
         12    1    4    4    0    0  0.12018903605E+02 -0.75280501279E+02  0.12472095496E+02  0.77247401786E+02  0.00000000000E+00 0. -1.
        -13    1    3    3    0    0  0.23184872846E+02  0.36198298843E+02  0.30760470527E+02  0.52858884921E+02  0.00000000000E+00 0.  1.
         13    1    3    3    0    0 -0.39730137373E+01 -0.49010518219E+02  0.14992166937E+02  0.51406038592E+02  0.00000000000E+00 0. -1.
          3    1    1    2  501    0 -0.42492160624E+02  0.16538884828E+03  0.40475104787E+03  0.43929769588E+03  0.00000000000E+00 0. -1.
<scales pt_clust_5="13000.00000" pt_clust_6="13000.00000" pt_clust_7="13000.00000" pt_clust_8="13000.00000" pt_clust_9="13000.00000"></scales>
<clustering>
<clus scale="   72.756">  5  6 -1 -1</clus>
<clus scale="   90.800">  7  8 -1 -1</clus>
<clus scale="   93.690">  2  7  1 -1</clus>
<clus scale="  168.526">  5  9 -1 -1</clus>
<clus scale="  506.581">  1  5  2 -1</clus>
</clustering>
</event>
<event>
 9    2  0.3726337E-005  0.3196951E+03  0.7546771E-02  0.1102224E+00
         21   -1    0    0  501  502  0.00000000000E+00  0.00000000000E+00  0.18318671267E+03  0.18318671267E+03  0.00000000000E+00 0. -1.
          2   -1    0    0  502    0 -0.00000000000E+00 -0.00000000000E+00 -0.37972074599E+03  0.37972074599E+03  0.00000000000E+00 0. -1.
         23    2    1    2    0    0  0.27691571771E+02  0.12746295090E+03 -0.18395474988E+03  0.24296492700E+03  0.90437706455E+02 0.  0.
         24    2    1    2    0    0  0.78231402911E+01 -0.85882230587E+01  0.11593956023E+03  0.14130997899E+03  0.79947291616E+02 0.  0.
        -13    1    4    4    0    0 -0.34993570782E+02  0.32213630851E+01  0.39215802483E+02  0.52657443354E+02  0.00000000000E+00 0.  1.
         14    1    4    4    0    0  0.42816711073E+02 -0.11809586144E+02  0.76723757750E+02  0.88652535639E+02  0.00000000000E+00 0. -1.
        -11    1    3    3    0    0  0.57723103501E+02  0.10897429176E+03 -0.14716024164E+03  0.19199867099E+03  0.00000000000E+00 0. -1.
         11    1    3    3    0    0 -0.30031531730E+02  0.18488659137E+02 -0.36794508233E+02  0.50966256002E+02  0.00000000000E+00 0.  1.
          1    1    1    2  501    0 -0.35514712062E+02 -0.11887472784E+03 -0.12851884368E+03  0.17863255267E+03  0.00000000000E+00 0. -1.
<scales pt_clust_5="13000.00000" pt_clust_6="13000.00000" pt_clust_7="13000.00000" pt_clust_8="13000.00000" pt_clust_9="13000.00000"></scales>
<clustering>
<clus scale="   79.947">  5  6 -1 -1</clus>
<clus scale="   90.438">  7  8 -1 -1</clus>
<clus scale="  124.067">  5  9 -1 -1</clus>
<clus scale="  158.722">  2  7  1 -1</clus>
<clus scale="  319.695">  1  5  2 -1</clus>
</clustering>
</event>
<event>
 9    2  0.3726337E-005  0.2362541E+03  0.7546771E-02  0.1134218E+00
         21   -1    0    0  501  502  0.00000000000E+00  0.00000000000E+00  0.70360507421E+03  0.70360507421E+03  0.00000000000E+00 0.  1.
         -1   -1    0    0    0  501 -0.00000000000E+00 -0.00000000000E+00 -0.33619638701E+03  0.33619638701E+03  0.00000000000E+00 0.  1.
         23    2    1    2    0    0  0.10456770952E+03 -0.10720318593E+03 -0.29105635845E+03  0.34023574360E+03  0.92841954322E+02 0.  0.
         24    2    1    2    0    0 -0.79127680716E+01  0.74375110332E+02  0.17634257863E+03  0.20675547680E+03  0.77825787578E+02 0.  0.
        -13    1    4    4    0    0  0.69541035671E+01  0.84953945958E+02  0.16368359971E+03  0.18454769927E+03  0.00000000000E+00 0.  1.
         14    1    4    4    0    0 -0.14866871639E+02 -0.10578835626E+02  0.12658978917E+02  0.22207777529E+02  0.00000000000E+00 0. -1.
        -11    1    3    3    0    0  0.23073823547E+02  0.15212796575E+02 -0.31437363727E+02  0.41858551705E+02  0.00000000000E+00 0. -1.
         11    1    3    3    0    0  0.81493885971E+02 -0.12241598250E+03 -0.25961899473E+03  0.29837719190E+03  0.00000000000E+00 0.  1.
         -2    1    1    2    0  502 -0.96654941446E+02  0.32828075597E+02  0.48212246702E+03  0.49281024082E+03  0.00000000000E+00 0.  1.
<scales pt_clust_5="13000.00000" pt_clust_6="13000.00000" pt_clust_7="13000.00000" pt_clust_8="13000.00000" pt_clust_9="13000.00000"></scales>
<clustering>
<clus scale="   77.826">  5  6 -1 -1</clus>
<clus scale="   92.842">  7  8 -1 -1</clus>
<clus scale="  102.078">  5  9 -1 -1</clus>
<clus scale="  176.200">  2  7  1 -1</clus>
<clus scale="  236.254">  1  5  2 -1</clus>
</clustering>
</event>
<event>
 9    2  0.3726337E-005  0.1248681E+03  0.7546771E-02  0.1251101E+00
         21   -1    0    0  501  502  0.00000000000E+00  0.00000000000E+00  0.14274107875E+03  0.14274107875E+03  0.00000000000E+00 0. -1.
          2   -1    0    0  502    0 -0.00000000000E+00 -0.00000000000E+00 -0.28016275286E+03  0.28016275286E+03  0.00000000000E+00 0. -1.
         23    2    1    2    0    0 -0.39179213015E+01  0.16439721466E+02 -0.24300615145E+03  0.25937978207E+03  0.89108176706E+02 0.  0.
         24    2    1    2    0    0  0.33443085872E+02 -0.89727506130E+01  0.10171681808E+03  0.13282470451E+03  0.78084190473E+02 0.  0.
        -13    1    4    4    0    0 -0.59917137885E+01 -0.35768051759E+02  0.32008168940E+02  0.48371241866E+02  0.00000000000E+00 0.  1.
         14    1    4    4    0    0  0.39434799661E+02  0.26795301146E+02  0.69708649142E+02  0.84453462646E+02  0.00000000000E+00 0. -1.
        -13    1    3    3    0    0  0.31257801245E+02  0.21798340736E+02 -0.48675147869E+02  0.61818183552E+02  0.00000000000E+00 0.  1.
         13    1    3    3    0    0 -0.35175722547E+02 -0.53586192707E+01 -0.19433100358E+03  0.19756159852E+03  0.00000000000E+00 0. -1.
          1    1    1    2  501    0 -0.29525164571E+02 -0.74669708525E+01  0.38676592560E+01  0.30699345022E+02  0.00000000000E+00 0. -1.
<scales pt_clust_5="13000.00000" pt_clust_6="13000.00000" pt_clust_7="13000.00000" pt_clust_8="13000.00000" pt_clust_9="13000.00000"></scales>
<clustering>
<clus scale="   78.084">  5  6 -1 -1</clus>
<clus scale="   30.455">  5  9 -1 -1</clus>
<clus scale="   89.108">  7  8 -1 -1</clus>
<clus scale="   90.697">  2  7  1 -1</clus>
<clus scale="  124.868">  1  5  2 -1</clus>
</clustering>
</event>
<event>
 9    2  0.3726337E-005  0.4079884E+03  0.7546771E-02  0.1048137E+00
         21   -1    0    0  501  502  0.00000000000E+00  0.00000000000E+00  0.14098331876E+03  0.14098331876E+03  0.00000000000E+00 0.  1.
         -1   -1    0    0    0  501 -0.00000000000E+00 -0.00000000000E+00 -0.10259812701E+04  0.10259812701E+04  0.00000000000E+00 0.  1.
         23    2    1    2    0    0  0.31927351340E+03 -0.30429472851E+02 -0.26720469868E+03  0.42661127290E+03  0.87961912133E+02 0.  0.
         24    2    1    2    0    0 -0.25591147900E+02  0.33083509997E+02 -0.60792638996E+02  0.11066604490E+03  0.82473044409E+02 0.  0.
        -13    1    4    4    0    0 -0.21231982837E+02  0.40888357045E+02 -0.78390874431E+02  0.90927355791E+02  0.00000000000E+00 0.  1.
         14    1    4    4    0    0 -0.43591650633E+01 -0.78048470479E+01  0.17598235435E+02  0.19738689114E+02  0.00000000000E+00 0. -1.
        -13    1    3    3    0    0  0.37966862470E+02 -0.37601765951E+01 -0.65049721463E+00  0.38158154050E+02  0.00000000000E+00 0. -1.
         13    1    3    3    0    0  0.28130665093E+03 -0.26669296256E+02 -0.26655420147E+03  0.38845311885E+03  0.00000000000E+00 0.  1.
         -2    1    1    2    0  502 -0.29368236550E+03 -0.26540371453E+01 -0.55700061366E+03  0.62968727106E+03  0.00000000000E+00 0.  1.
<scales pt_clust_5="13000.00000" pt_clust_6="13000.00000" pt_clust_7="13000.00000" pt_clust_8="13000.00000" pt_clust_9="13000.00000"></scales>
<clustering>
<clus scale="   82.473">  5  6 -1 -1</clus>
<clus scale="   87.962">  7  8 -1 -1</clus>
<clus scale="  293.695">  5  9 -1 -1</clus>
<clus scale="  332.564">  2  7  1 -1</clus>
<clus scale="  407.988">  1  5  2 -1</clus>
</clustering>
</event>
<event>
 9    2  0.3726337E-005  0.3998609E+03  0.7546771E-02  0.1095394E+00
          2   -1    0    0  502    0 -0.00000000000E+00  0.00000000000E+00  0.38254439796E+03  0.38254439796E+03  0.00000000000E+00 0. -1.
         21   -1    0    0  501  502  0.00000000000E+00 -0.00000000000E+00 -0.16126379482E+03  0.16126379482E+03  0.00000000000E+00 0.  1.
         23    2    1    2    0    0  0.33880267116E+02  0.11143270417E+02  0.42233472261E+02  0.10569111277E+03  0.90082740656E+02 0.  0.
         24    2    1    2    0    0  0.13467486321E+03  0.95097825097E+02  0.22880211290E+02  0.18496473633E+03  0.80669290911E+02 0.  0.
        -11    1    4    4    0    0  0.14056397828E+03  0.73183589421E+02  0.29778271160E+02  0.16124768272E+03  0.00000000000E+00 0.  1.
         12    1    4    4    0    0 -0.58891150690E+01  0.21914235676E+02 -0.68980598698E+01  0.23717053601E+02  0.00000000000E+00 0. -1.
        -13    1    3    3    0    0  0.62058684168E+02 -0.77720246766E+01  0.22716811382E+02  0.66541251623E+02  0.00000000000E+00 0.  1.
         13    1    3    3    0    0 -0.28178417051E+02  0.18915295094E+02  0.19516660880E+02  0.39149861148E+02  0.00000000000E+00 0. -1.
          1    1    1    2  501    0 -0.16855513033E+03 -0.10624109551E+03  0.15616691959E+03  0.25315234368E+03  0.00000000000E+00 0. -1.
<scales pt_clust_5="13000.00000" pt_clust_6="13000.00000" pt_clust_7="13000.00000" pt_clust_8="13000.00000" pt_clust_9="13000.00000"></scales>
<clustering>
<clus scale="   80.669">  5  6 -1 -1</clus>
<clus scale="   90.083">  7  8 -1 -1</clus>
<clus scale="   96.886">  1  7  2 -1</clus>
<clus scale="  176.387">  5  9 -1 -1</clus>
<clus scale="  399.861">  2  5  1 -1</clus>
</clustering>
</event>
<event>
 9    2  0.3726337E-005  0.1139712E+03  0.7546771E-02  0.1263672E+00
         21   -1    0    0  501  502  0.00000000000E+00  0.00000000000E+00  0.74209420679E+02  0.74209420679E+02  0.00000000000E+00 0. -1.
         -1   -1    0    0    0  501 -0.00000000000E+00 -0.00000000000E+00 -0.18514968640E+03  0.18514968640E+03  0.00000000000E+00 0.  1.
         23    2    1    2    0    0  0.96903742286E+01 -0.11868139452E+02  0.94896279192E+01  0.93549616895E+02  0.91797176952E+02 0.  0.
         24    2    1    2    0    0 -0.95729211278E+01  0.36567698286E+02 -0.86454591570E+02  0.12380469102E+03  0.80152153677E+02 0.  0.
        -11    1    4    4    0    0 -0.38275749069E+02  0.20569276633E+02 -0.16433287450E+02  0.46456227187E+02  0.00000000000E+00 0.  1.
         12    1    4    4    0    0  0.28702827941E+02  0.15998421653E+02 -0.70021304120E+02  0.77348463837E+02  0.00000000000E+00 0. -1.
        -11    1    3    3    0    0  0.28693509714E+02  0.25492681785E+02 -0.19040415833E+02  0.42845440357E+02  0.00000000000E+00 0.  1.
         11    1    3    3    0    0 -0.19003135485E+02 -0.37360821237E+02  0.28530043753E+02  0.50704176537E+02  0.00000000000E+00 0. -1.
         -2    1    1    2    0  502 -0.11745310076E+00 -0.24699558834E+02 -0.33975302071E+02  0.42004799162E+02  0.00000000000E+00 0.  1.
<scales pt_clust_5="13000.00000" pt_clust_6="13000.00000" pt_clust_7="13000.00000" pt_clust_8="13000.00000" pt_clust_9="13000.00000"></scales>
<clustering>
<clus scale="   80.152">  5  6 -1 -1</clus>
<clus scale="   24.700">  5  9 -1 -1</clus>
<clus scale="   91.797">  7  8 -1 -1</clus>
<clus scale="   93.067">  2  7  1 -1</clus>
<clus scale="  113.971">  1  5  2 -1</clus>
</clustering>
</event>
<event>
 9    2  0.3726337E-005  0.1349371E+03  0.7546771E-02  0.1230717E+00
         21   -1    0    0  501  502  0.00000000000E+00  0.00000000000E+00  0.55513886765E+02  0.55513886765E+02  0.00000000000E+00 0.  1.
         -1   -1    0    0    0  501 -0.00000000000E+00 -0.00000000000E+00 -0.37206151196E+03  0.37206151196E+03  0.00000000000E+00 0.  1.
         23    2    1    2    0    0  0.40607970690E+02  0.43465492526E+02 -0.25901358539E+03  0.28088459327E+03  0.90938776075E+02 0.  0.
         24    2    1    2    0    0  0.52874015682E+01 -0.15124045081E+02 -0.27145981931E+02  0.84779119167E+02  0.78701342789E+02 0.  0.
        -11    1    4    4    0    0  0.22612939006E+02 -0.89646821986E+01  0.21693262448E+02  0.32593069402E+02  0.00000000000E+00 0.  1.
         12    1    4    4    0    0 -0.17325537438E+02 -0.61593628820E+01 -0.48839244379E+02  0.52186049765E+02  0.00000000000E+00 0. -1.
        -11    1    3    3    0    0  0.41374229788E+02 -0.71944483382E+01 -0.47566117764E+02  0.63451733913E+02  0.00000000000E+00 0. -1.
         11    1    3    3    0    0 -0.76625909758E+00  0.50659940864E+02 -0.21144746763E+03  0.21743285936E+03  0.00000000000E+00 0.  1.
         -2    1    1    2    0  502 -0.45895372258E+02 -0.28341447446E+02 -0.30388057875E+02  0.61911686292E+02  0.00000000000E+00 0.  1.
<scales pt_clust_5="13000.00000" pt_clust_6="13000.00000" pt_clust_7="13000.00000" pt_clust_8="13000.00000" pt_clust_9="13000.00000"></scales>
<clustering>
<clus scale="   78.701">  5  6 -1 -1</clus>
<clus scale="   53.941">  5  9 -1 -1</clus>
<clus scale="   90.939">  7  8 -1 -1</clus>
<clus scale="  108.665">  2  7  1 -1</clus>
<clus scale="  134.937">  1  5  2 -1</clus>
</clustering>
</event>
<event>
 9    2  0.3726337E-005  0.6440907E+03  0.7546771E-02  0.1045510E+00
         21   -1    0    0  501  502  0.00000000000E+00  0.00000000000E+00  0.31427733078E+03  0.31427733078E+03  0.00000000000E+00 0. -1.
         -1   -1    0    0    0  501 -0.00000000000E+00 -0.00000000000E+00 -0.50001457438E+03  0.50001457438E+03  0.00000000000E+00 0.  1.
         23    2    1    2    0    0 -0.15915015293E+01 -0.75272074179E+01  0.76370357857E+02  0.11891203521E+03  0.90820971306E+02 0.  0.
         24    2    1    2    0    0 -0.12735661997E+03 -0.19778242350E+03  0.93075617944E+02  0.26533942775E+03  0.80027155198E+02 0.  0.
        -13    1    4    4    0    0 -0.10375685548E+02 -0.39801634226E+02  0.48829226028E+02  0.63844484900E+02  0.00000000000E+00 0.  1.
         14    1    4    4    0    0 -0.11698093442E+03 -0.15798078927E+03  0.44246391916E+02  0.20149494285E+03  0.00000000000E+00 0. -1.
        -11    1    3    3    0    0  0.38956858654E+01 -0.40919951190E+02  0.69577666457E+01  0.41689678464E+02  0.00000000000E+00 0.  1.
         11    1    3    3    0    0 -0.54871873947E+01  0.33392743772E+02  0.69412591211E+02  0.77222356742E+02  0.00000000000E+00 0. -1.
         -2    1    1    2    0  502  0.12894812150E+03  0.20530963091E+03 -0.35518321940E+03  0.43004044220E+03  0.00000000000E+00 0.  1.
<scales pt_clust_5="13000.00000" pt_clust_6="13000.00000" pt_clust_7="13000.00000" pt_clust_8="13000.00000" pt_clust_9="13000.00000"></scales>
<clustering>
<clus scale="   80.027">  5  6 -1 -1</clus>
<clus scale="   90.821">  7  8 -1 -1</clus>
<clus scale="   91.146">  2  7  1 -1</clus>
<clus scale="  236.534">  5  9 -1 -1</clus>
<clus scale="  644.091">  1  5  2 -1</clus>
</clustering>
</event>
<event>
 9    2  0.3726337E-005  0.3127679E+03  0.7546771E-02  0.1123591E+00
          2   -1    0    0  502    0 -0.00000000000E+00  0.00000000000E+00  0.49453728300E+03  0.49453728300E+03  0.00000000000E+00 0. -1.
         21   -1    0    0  501  502  0.00000000000E+00 -0.00000000000E+00 -0.85644418830E+02  0.85644418830E+02  0.00000000000E+00 0. -1.
         23    2    1    2    0    0  0.11536346494E+02 -0.33681360231E+02  0.90499068962E+02  0.13386522712E+03  0.91990739916E+02 0.  0.
         24    2    1    2    0    0  0.50820990898E+02  0.14503857718E+03  0.24187950687E+03  0.29751021270E+03  0.79922893028E+02 0.  0.
        -11    1    4    4    0    0 -0.18972689630E+02  0.12038180372E+02  0.24017715260E+02  0.32889685081E+02  0.00000000000E+00 0.  1.
         12    1    4    4    0    0  0.69793680527E+02  0.13300039681E+03  0.21786179161E+03  0.26462052762E+03  0.00000000000E+00 0. -1.
        -11    1    3    3    0    0 -0.36113508590E+02 -0.63747850067E+01  0.13058735369E+02  0.38927547521E+02  0.00000000000E+00 0. -1.
         11    1    3    3    0    0  0.47649855083E+02 -0.27306575225E+02  0.77440333593E+02  0.94937679595E+02  0.00000000000E+00 0.  1.
          1    1    1    2  501    0 -0.62357337391E+02 -0.11135721695E+03  0.76514288336E+02  0.14880626201E+03  0.00000000000E+00 0. -1.
<scales pt_clust_5="13000.00000" pt_clust_6="13000.00000" pt_clust_7="13000.00000" pt_clust_8="13000.00000" pt_clust_9="13000.00000"></scales>
<clustering>
<clus scale="   79.923">  5  6 -1 -1</clus>
<clus scale="   91.991">  7  8 -1 -1</clus>
<clus scale="   98.640">  1  7  2 -1</clus>
<clus scale="  134.853">  5  9 -1 -1</clus>
<clus scale="  312.768">  2  5  1 -1</clus>
</clustering>
</event>
<event>
 9    2  0.3726337E-005  0.2727694E+03  0.7546771E-02  0.1140782E+00
         21   -1    0    0  501  502  0.00000000000E+00  0.00000000000E+00  0.76751961051E+02  0.76751961051E+02  0.00000000000E+00 0. -1.
          2   -1    0    0  502    0 -0.00000000000E+00 -0.00000000000E+00 -0.65203501225E+03  0.65203501225E+03  0.00000000000E+00 0. -1.
         23    2    1    2    0    0  0.21372668060E+02  0.13832104926E+02 -0.38249864052E+03  0.39476758087E+03  0.94276799050E+02 0.  0.
         24    2    1    2    0    0  0.62498744790E+02  0.84369080691E+02 -0.14493995972E+03  0.19629873952E+03  0.80631063097E+02 0.  0.
        -13    1    4    4    0    0  0.36950040067E+02  0.22884376149E+02 -0.11567283343E+03  0.12356862274E+03  0.00000000000E+00 0.  1.
         14    1    4    4    0    0  0.25548704724E+02  0.61484704542E+02 -0.29267126298E+02  0.72730116784E+02  0.00000000000E+00 0. -1.
        -13    1    3    3    0    0  0.71405330430E+01 -0.37894306238E+02 -0.22755069321E+03  0.23079489517E+03  0.00000000000E+00 0.  1.
         13    1    3    3    0    0  0.14232135017E+02  0.51726411165E+02 -0.15494794732E+03  0.16397268570E+03  0.00000000000E+00 0. -1.
          1    1    1    2  501    0 -0.83871412850E+02 -0.98201185617E+02 -0.47844450952E+02  0.13772065291E+03  0.00000000000E+00 0. -1.
<scales pt_clust_5="13000.00000" pt_clust_6="13000.00000" pt_clust_7="13000.00000" pt_clust_8="13000.00000" pt_clust_9="13000.00000"></scales>
<clustering>
<clus scale="   80.631">  5  6 -1 -1</clus>
<clus scale="   94.277">  7  8 -1 -1</clus>
<clus scale="   97.654">  2  7  1 -1</clus>
<clus scale="  120.576">  5  9 -1 -1</clus>
<clus scale="  272.769">  1  5  2 -1</clus>
</clustering>
</event>
<event>
 9    2  0.3726337E-005  0.1324068E+03  0.7546771E-02  0.1229990E+00
         -1   -1    0    0    0  501 -0.00000000000E+00  0.00000000000E+00  0.20401253264E+03  0.20401253264E+03  0.00000000000E+00 0.  1.
         21   -1    0    0  501  502  0.00000000000E+00 -0.00000000000E+00 -0.32722405203E+03  0.32722405203E+03  0.00000000000E+00 0.  1.
         23    2    1    2    0    0  0.51452251227E+01  0.73083786059E+02  0.17189038547E+03  0.20779155907E+03  0.90902773755E+02 0.  0.
         24    2    1    2    0    0 -0.97853662913E+01 -0.28590897211E+02 -0.21678852254E+03  0.23325559208E+03  0.80608404847E+02 0.  0.
        -11    1    4    4    0    0 -0.34294309552E+02 -0.30135035247E+02 -0.19548585609E+03  0.20074595873E+03  0.00000000000E+00 0.  1.
         12    1    4    4    0    0  0.24508943260E+02  0.15441380354E+01 -0.21302666451E+02  0.32509633341E+02  0.00000000000E+00 0. -1.
        -11    1    3    3    0    0  0.10443556461E+02  0.93929917605E+02  0.13026500869E+03  0.16093747165E+03  0.00000000000E+00 0.  1.
         11    1    3    3    0    0 -0.52983313382E+01 -0.20846131546E+02  0.41625376782E+02  0.46854087417E+02  0.00000000000E+00 0. -1.
         -2    1    1    2    0  502  0.46401411686E+01 -0.44492888847E+02 -0.78313382329E+02  0.90189433527E+02  0.00000000000E+00 0.  1.
<scales pt_clust_5="13000.00000" pt_clust_6="13000.00000" pt_clust_7="13000.00000" pt_clust_8="13000.00000" pt_clust_9="13000.00000"></scales>
<clustering>
<clus scale="   80.608">  5  6 -1 -1</clus>
<clus scale="   44.734">  5  9 -1 -1</clus>
<clus scale="   90.903">  7  8 -1 -1</clus>
<clus scale="  116.752">  1  7  2 -1</clus>
<clus scale="  132.407">  2  5  1 -1</clus>
</clustering>
</event>
<event>
 9    2  0.3726337E-005  0.1241058E+04  0.7546771E-02  0.9743514E-01
         21   -1    0    0  501  502  0.00000000000E+00  0.00000000000E+00  0.35942958805E+03  0.35942958805E+03  0.00000000000E+00 0. -1.
          2   -1    0    0  502    0 -0.00000000000E+00 -0.00000000000E+00 -0.14330023470E+04  0.14330023470E+04  0.00000000000E+00 0. -1.
         23    2    1    2    0    0  0.64974911230E+02 -0.26717411024E+02 -0.32104418020E+03  0.34104501315E+03  0.91141517485E+02 0.  0.
         24    2    1    2    0    0 -0.13530407479E+03 -0.52644848770E+02 -0.10869984859E+04  0.11005099088E+04  0.92074307770E+02 0.  0.
        -13    1    4    4    0    0 -0.88888666943E+02 -0.32635585416E+02 -0.37682593220E+03  0.38854093700E+03  0.00000000000E+00 0.  1.
         14    1    4    4    0    0 -0.46415407848E+02 -0.20009263354E+02 -0.71017255374E+03  0.71196897179E+03  0.00000000000E+00 0. -1.
        -13    1    3    3    0    0 -0.15922568411E+02 -0.27803663847E+02 -0.12319066622E+03  0.12728908889E+03  0.00000000000E+00 0. -1.
         13    1    3    3    0    0  0.80897479642E+02  0.10862528228E+01 -0.19785351399E+03  0.21375592426E+03  0.00000000000E+00 0.  1.
          1    1    1    2  501    0  0.70329163561E+02  0.79362259794E+02  0.33446990718E+03  0.35087701312E+03  0.00000000000E+00 0. -1.
<scales pt_clust_5="13000.00000" pt_clust_6="13000.00000" pt_clust_7="13000.00000" pt_clust_8="13000.00000" pt_clust_9="13000.00000"></scales>
<clustering>
<clus scale="   91.142">  7  8 -1 -1</clus>
<clus scale="   92.074">  5  6 -1 -1</clus>
<clus scale="  106.040">  5  9 -1 -1</clus>
<clus scale="  115.075">  2  7  1 -1</clus>
<clus scale=" 1241.058">  1  5  2 -1</clus>
</clustering>
</event>
<event>
 9    2  0.3726337E-005  0.4833915E+03  0.7546771E-02  0.1071793E+00
          2   -1    0    0  502    0 -0.00000000000E+00  0.00000000000E+00  0.15647808363E+04  0.15647808363E+04  0.00000000000E+00 0. -1.
         21   -1    0    0  501  502  0.00000000000E+00 -0.00000000000E+00 -0.55078773626E+02  0.55078773626E+02  0.00000000000E+00 0. -1.
         23    2    1    2    0    0  0.16026969138E+02 -0.56486483002E+02  0.29521071574E+03  0.31270368142E+03  0.84774047831E+02 0.  0.
         24    2    1    2    0    0  0.25736021860E+02  0.22044338022E+03  0.32100971986E+03  0.39779602754E+03  0.77050714329E+02 0.  0.
        -11    1    4    4    0    0  0.38129373982E+02  0.13018412233E+03  0.24095054879E+03  0.27651206453E+03  0.00000000000E+00 0.  1.
         12    1    4    4    0    0 -0.12393352122E+02  0.90259257887E+02  0.80059171064E+02  0.12128396301E+03  0.00000000000E+00 0. -1.
        -11    1    3    3    0    0  0.19167864283E+00 -0.73931822012E+02  0.26023083793E+03  0.27052918522E+03  0.00000000000E+00 0. -1.
         11    1    3    3    0    0  0.15835290495E+02  0.17445339010E+02  0.34979877814E+02  0.42174496205E+02  0.00000000000E+00 0.  1.
          1    1    1    2  501    0 -0.41762990998E+02 -0.16395689722E+03  0.89348162712E+03  0.90935990101E+03  0.00000000000E+00 0. -1.
<scales pt_clust_5="13000.00000" pt_clust_6="13000.00000" pt_clust_7="13000.00000" pt_clust_8="13000.00000" pt_clust_9="13000.00000"></scales>
<clustering>
<clus scale="   77.051">  5  6 -1 -1</clus>
<clus scale="   84.774">  7  8 -1 -1</clus>
<clus scale="  103.122">  1  7  2 -1</clus>
<clus scale="  206.577">  5  9 -1 -1</clus>
<clus scale="  483.392">  2  5  1 -1</clus>
</clustering>
</event>
<event>
 9    2  0.3726337E-005  0.1737403E+03  0.7546771E-02  0.1187059E+00
         21   -1    0    0  501  502  0.00000000000E+00  0.00000000000E+00  0.35970926987E+03  0.35970926987E+03  0.00000000000E+00 0.  1.
         -3   -1    0    0    0  501 -0.00000000000E+00 -0.00000000000E+00 -0.10784479636E+03  0.10784479636E+03  0.00000000000E+00 0.  1.
         23    2    1    2    0    0 -0.23480924601E+02 -0.83889498914E+02  0.26327656499E+03  0.29343941859E+03  0.95934044341E+02 0.  0.
         24    2    1    2    0    0  0.26237149356E+02  0.84529235105E+01 -0.38924671761E+02  0.93770290299E+02  0.80733495830E+02 0.  0.
        -11    1    4    4    0    0  0.38729054574E+02  0.31386585230E+02 -0.44776659860E+02  0.67007512033E+02  0.00000000000E+00 0.  1.
         12    1    4    4    0    0 -0.12491905217E+02 -0.22933661720E+02  0.58519880988E+01  0.26762778267E+02  0.00000000000E+00 0. -1.
        -13    1    3    3    0    0 -0.40275054560E+02 -0.43241658611E+02  0.55533400120E+02  0.81091797292E+02  0.00000000000E+00 0.  1.
         13    1    3    3    0    0  0.16794129958E+02 -0.40647840303E+02  0.20774316487E+03  0.21234762130E+03  0.00000000000E+00 0. -1.
         -4    1    1    2    0  502 -0.27562247550E+01  0.75436575404E+02  0.27512580286E+02  0.80344357347E+02  0.00000000000E+00 0.  1.
<scales pt_clust_5="13000.00000" pt_clust_6="13000.00000" pt_clust_7="13000.00000" pt_clust_8="13000.00000" pt_clust_9="13000.00000"></scales>
<clustering>
<clus scale="   80.733">  5  6 -1 -1</clus>
<clus scale="   75.487">  5  9 -1 -1</clus>
<clus scale="   95.934">  7  8 -1 -1</clus>
<clus scale="  129.585">  2  7  1 -1</clus>
<clus scale="  173.740">  1  5  2 -1</clus>
</clustering>
</event>
<event>
 9    2  0.3726337E-005  0.2955426E+03  0.7546771E-02  0.1130368E+00
         -1   -1    0    0    0  501 -0.00000000000E+00  0.00000000000E+00  0.25088886518E+03  0.25088886518E+03  0.00000000000E+00 0.  1.
         21   -1    0    0  501  502  0.00000000000E+00 -0.00000000000E+00 -0.16127405327E+03  0.16127405327E+03  0.00000000000E+00 0.  1.
         23    2    1    2    0    0  0.39868049546E+02  0.44579901377E+01 -0.12040932458E+02  0.99626016544E+02  0.90393716968E+02 0.  0.
         24    2    1    2    0    0  0.10232187770E+03 -0.29124110647E+02 -0.46455470639E+01  0.13329863180E+03  0.80180818487E+02 0.  0.
        -13    1    4    4    0    0  0.42249881942E+02 -0.49171820890E+02 -0.20539193536E+02  0.68005727442E+02  0.00000000000E+00 0.  1.
         14    1    4    4    0    0  0.60071995761E+02  0.20047710243E+02  0.15893646472E+02  0.65292904353E+02  0.00000000000E+00 0. -1.
        -13    1    3    3    0    0  0.26615787365E+02  0.42761014543E+02  0.12955301197E+02  0.52007156536E+02  0.00000000000E+00 0.  1.
         13    1    3    3    0    0  0.13252262181E+02 -0.38303024405E+02 -0.24996233655E+02  0.47618860008E+02  0.00000000000E+00 0. -1.
         -2    1    1    2    0  502 -0.14218992725E+03  0.24666120510E+02  0.10630129143E+03  0.17923827011E+03  0.00000000000E+00 0.  1.
<scales pt_clust_5="13000.00000" pt_clust_6="13000.00000" pt_clust_7="13000.00000" pt_clust_8="13000.00000" pt_clust_9="13000.00000"></scales>
<clustering>
<clus scale="   80.181">  5  6 -1 -1</clus>
<clus scale="   90.394">  7  8 -1 -1</clus>
<clus scale="   98.896">  1  7  2 -1</clus>
<clus scale="  118.012">  5  9 -1 -1</clus>
<clus scale="  295.543">  2  5  1 -1</clus>
</clustering>
</event>
<event>
 9    2  0.3726337E-005  0.1572582E+03  0.7546771E-02  0.1211478E+00
         21   -1    0    0  501  502  0.00000000000E+00  0.00000000000E+00  0.18958240389E+02  0.18958240389E+02  0.00000000000E+00 0.  1.
          2   -1    0    0  502    0 -0.00000000000E+00 -0.00000000000E+00 -0.10044194100E+04  0.10044194100E+04  0.00000000000E+00 0. -1.
         23    2    1    2    0    0 -0.50425147663E+02  0.11377001130E+02 -0.23282617004E+03  0.25448911131E+03  0.88794992250E+02 0.  0.
         24    2    1    2    0    0 -0.21705684573E+02 -0.13007224474E+02 -0.38680434162E+03  0.39601109958E+03  0.81036212067E+02 0.  0.
        -13    1    4    4    0    0 -0.42206315279E+01  0.30771177962E+02 -0.83980241979E+02  0.89539712790E+02  0.00000000000E+00 0.  1.
         14    1    4    4    0    0 -0.17485053045E+02 -0.43778402436E+02 -0.30282409964E+03  0.30647138679E+03  0.00000000000E+00 0. -1.
        -11    1    3    3    0    0 -0.75989287620E+02  0.54589098885E+01 -0.16405055702E+03  0.18087773989E+03  0.00000000000E+00 0.  1.
         11    1    3    3    0    0  0.25564139958E+02  0.59180912411E+01 -0.68775613023E+02  0.73611371420E+02  0.00000000000E+00 0. -1.
          1    1    1    2  501    0  0.72130832236E+02  0.16302233442E+01 -0.36583065791E+03  0.37287743946E+03  0.00000000000E+00 0. -1.
<scales pt_clust_5="13000.00000" pt_clust_6="13000.00000" pt_clust_7="13000.00000" pt_clust_8="13000.00000" pt_clust_9="13000.00000"></scales>
<clustering>
<clus scale="   81.036">  5  6 -1 -1</clus>
<clus scale="   72.149">  5  9 -1 -1</clus>
<clus scale="   88.795">  7  8 -1 -1</clus>
<clus scale="  102.746">  2  7  1 -1</clus>
<clus scale="  157.258">  1  5  2 -1</clus>
</clustering>
</event>
<event>
 9    2  0.3726337E-005  0.1952458E+03  0.7546771E-02  0.1182876E+00
          2   -1    0    0  502    0 -0.00000000000E+00  0.00000000000E+00  0.35846996956E+03  0.35846996956E+03  0.00000000000E+00 0. -1.
         21   -1    0    0  501  502  0.00000000000E+00 -0.00000000000E+00 -0.11809592073E+03  0.11809592073E+03  0.00000000000E+00 0. -1.
         23    2    1    2    0    0 -0.29623184503E+02  0.28678357940E+02  0.26162532313E+03  0.28016695134E+03  0.91354965086E+02 0.  0.
         24    2    1    2    0    0  0.17688451162E+02  0.33252381923E+02 -0.68715094278E+02  0.11746435460E+03  0.87507189493E+02 0.  0.
        -11    1    4    4    0    0  0.20282166406E+02 -0.11415810408E+02  0.11236241533E+02  0.25844537628E+02  0.00000000000E+00 0.  1.
         12    1    4    4    0    0 -0.25937152443E+01  0.44668192331E+02 -0.79951335811E+02  0.91619816977E+02  0.00000000000E+00 0. -1.
        -11    1    3    3    0    0  0.21812060022E+02  0.10661239571E+01  0.14437493584E+02  0.26179071864E+02  0.00000000000E+00 0.  1.
         11    1    3    3    0    0 -0.51435244525E+02  0.27612233982E+02  0.24718782955E+03  0.25398787948E+03  0.00000000000E+00 0. -1.
          1    1    1    2  501    0  0.11934733341E+02 -0.61930739862E+02  0.47463819977E+02  0.78934584351E+02  0.00000000000E+00 0. -1.
<scales pt_clust_5="13000.00000" pt_clust_6="13000.00000" pt_clust_7="13000.00000" pt_clust_8="13000.00000" pt_clust_9="13000.00000"></scales>
<clustering>
<clus scale="   87.507">  5  6 -1 -1</clus>
<clus scale="   63.070">  5  9 -1 -1</clus>
<clus scale="   91.355">  7  8 -1 -1</clus>
<clus scale="  100.228">  1  7  2 -1</clus>
<clus scale="  195.246">  2  5  1 -1</clus>
</clustering>
</event>
<event>
 9    2  0.3726337E-005  0.5868411E+03  0.7546771E-02  0.1040826E+00
          2   -1    0    0  502    0 -0.00000000000E+00  0.00000000000E+00  0.24839391014E+04  0.24839391014E+04  0.00000000000E+00 0. -1.
         21   -1    0    0  501  502  0.00000000000E+00 -0.00000000000E+00 -0.81120972398E+02  0.81120972398E+02  0.00000000000E+00 0. -1.
         23    2    1    2    0    0  0.96061544676E+02  0.38094087752E+02  0.61061359776E+02  0.15089203884E+03  0.91438164032E+02 0.  0.
         24    2    1    2    0    0 -0.17678970604E+03 -0.27435034053E+03  0.14138487154E+04  0.14532583569E+04  0.80429797738E+02 0.  0.
        -11    1    4    4    0    0 -0.65652795149E+02 -0.17148601019E+03  0.71637025436E+03  0.73952963601E+03  0.00000000000E+00 0.  1.
         12    1    4    4    0    0 -0.11113691089E+03 -0.10286433034E+03  0.69747846107E+03  0.71372872092E+03  0.00000000000E+00 0. -1.
        -13    1    3    3    0    0  0.56281943063E+02  0.89015337414E+01 -0.16181542176E+02  0.59234590613E+02  0.00000000000E+00 0. -1.
         13    1    3    3    0    0  0.39779601613E+02  0.29192554010E+02  0.77242901953E+02  0.91657448231E+02  0.00000000000E+00 0.  1.
          1    1    1    2  501    0  0.80728161361E+02  0.23625625278E+03  0.92790805379E+03  0.96090967802E+03  0.00000000000E+00 0. -1.
<scales pt_clust_5="13000.00000" pt_clust_6="13000.00000" pt_clust_7="13000.00000" pt_clust_8="13000.00000" pt_clust_9="13000.00000"></scales>
<clustering>
<clus scale="   80.430">  5  6 -1 -1</clus>
<clus scale="   91.438">  7  8 -1 -1</clus>
<clus scale="  137.985">  1  7  2 -1</clus>
<clus scale="  278.077">  5  9 -1 -1</clus>
<clus scale="  586.841">  2  5  1 -1</clus>
</clustering>
</event>
<event>
 9    2  0.3726337E-005  0.9265462E+03  0.7546771E-02  0.9500298E-01
         21   -1    0    0  501  502  0.00000000000E+00  0.00000000000E+00  0.11539872150E+04  0.11539872150E+04  0.00000000000E+00 0. -1.
          2   -1    0    0  502    0 -0.00000000000E+00 -0.00000000000E+00 -0.59003055719E+03  0.59003055719E+03  0.00000000000E+00 0. -1.
         23    2    1    2    0    0 -0.51147823727E+03  0.36323234611E+03 -0.44871566552E+02  0.63534302710E+03  0.89997667471E+02 0.  0.
         24    2    1    2    0    0 -0.15038933109E+03 -0.15589446977E+02  0.61881153373E+02  0.18235117213E+03  0.81010438035E+02 0.  0.
        -13    1    4    4    0    0 -0.94817256378E+02 -0.48799611144E+02  0.42223752986E+02  0.11469332793E+03  0.00000000000E+00 0.  1.
         14    1    4    4    0    0 -0.55572074710E+02  0.33210164167E+02  0.19657400387E+02  0.67657844198E+02  0.00000000000E+00 0. -1.
        -13    1    3    3    0    0 -0.27871086299E+02  0.48960947945E+02 -0.12346819596E+02  0.57675088464E+02  0.00000000000E+00 0.  1.
         13    1    3    3    0    0 -0.48360715097E+03  0.31427139816E+03 -0.32524746956E+02  0.57766793864E+03  0.00000000000E+00 0. -1.
          1    1    1    2  501    0  0.66186756835E+03 -0.34764289913E+03  0.54694707097E+03  0.92632357295E+03  0.00000000000E+00 0. -1.
<scales pt_clust_5="13000.00000" pt_clust_6="13000.00000" pt_clust_7="13000.00000" pt_clust_8="13000.00000" pt_clust_9="13000.00000"></scales>
<clustering>
<clus scale="   81.010">  5  6 -1 -1</clus>
<clus scale="   89.998">  7  8 -1 -1</clus>
<clus scale="  633.757">  2  7  1 -1</clus>
<clus scale="  282.964">  5  9 -1 -1</clus>
<clus scale="  926.546">  1  5  2 -1</clus>
</clustering>
</event>
<event>
 9    2  0.3726337E-005  0.2508632E+03  0.7546771E-02  0.1146125E+00
         21   -1    0    0  501  502  0.00000000000E+00  0.00000000000E+00  0.63462540029E+03  0.63462540029E+03  0.00000000000E+00 0. -1.
         -3   -1    0    0    0  501 -0.00000000000E+00 -0.00000000000E+00 -0.51725459593E+02  0.51725459593E+02  0.00000000000E+00 0.  1.
         23    2    1    2    0    0  0.55899771317E+02 -0.35391093702E+02  0.20295136183E+03  0.23105613405E+03  0.88432843813E+02 0.  0.
         24    2    1    2    0    0  0.48257953644E+02 -0.24192024805E+02  0.25208631401E+03  0.27994439520E+03  0.10912044052E+03 0.  0.
        -13    1    4    4    0    0  0.40318598378E+02  0.28974431233E+02  0.19626548183E+03  0.20244813262E+03  0.00000000000E+00 0.  1.
         14    1    4    4    0    0  0.79393552665E+01 -0.53166456038E+02  0.55820832179E+02  0.77496262586E+02  0.00000000000E+00 0. -1.
        -11    1    3    3    0    0  0.75529571033E+02 -0.39342288282E+02  0.13003273402E+03  0.15543823102E+03  0.00000000000E+00 0.  1.
         11    1    3    3    0    0 -0.19629799715E+02  0.39511945798E+01  0.72918627813E+02  0.75617903023E+02  0.00000000000E+00 0. -1.
         -4    1    1    2    0  502 -0.10415772496E+03  0.59583118507E+02  0.12786226485E+03  0.17535033064E+03  0.00000000000E+00 0.  1.
<scales pt_clust_5="13000.00000" pt_clust_6="13000.00000" pt_clust_7="13000.00000" pt_clust_8="13000.00000" pt_clust_9="13000.00000"></scales>
<clustering>
<clus scale="   88.433">  7  8 -1 -1</clus>
<clus scale="  109.120">  5  6 -1 -1</clus>
<clus scale="  110.443">  2  7  1 -1</clus>
<clus scale="   78.361">  5  9 -1 -1</clus>
<clus scale="  250.863">  1  5  2 -1</clus>
</clustering>
</event>
<event>
 9    2  0.3726337E-005  0.4338945E+03  0.7546771E-02  0.1078928E+00
          2   -1    0    0  502    0 -0.00000000000E+00  0.00000000000E+00  0.19883640769E+04  0.19883640769E+04  0.00000000000E+00 0. -1.
         21   -1    0    0  501  502  0.00000000000E+00 -0.00000000000E+00 -0.41875282085E+02  0.41875282085E+02  0.00000000000E+00 0. -1.
         23    2    1    2    0    0  0.53205091715E+02  0.52952145311E+02  0.21264922227E+03  0.24293298766E+03  0.90343972040E+02 0.  0.
         24    2    1    2    0    0  0.89425419340E+01  0.13902994399E+03  0.31169468316E+03  0.35091661315E+03  0.81114730439E+02 0.  0.
        -13    1    4    4    0    0 -0.15304290540E+02  0.10333370574E+03  0.27534614659E+03  0.29449546091E+03  0.00000000000E+00 0.  1.
         14    1    4    4    0    0  0.24246832474E+02  0.35696238252E+02  0.36348536570E+02  0.56421152249E+02  0.00000000000E+00 0. -1.
        -11    1    3    3    0    0 -0.19399327079E+02  0.24475627190E+02  0.25971197599E+02  0.40618878889E+02  0.00000000000E+00 0.  1.
         11    1    3    3    0    0  0.72604418794E+02  0.28476518121E+02  0.18667802467E+03  0.20231410877E+03  0.00000000000E+00 0. -1.
          1    1    1    2  501    0 -0.62147633649E+02 -0.19198208930E+03  0.14221448894E+04  0.14363897582E+04  0.00000000000E+00 0. -1.
<scales pt_clust_5="13000.00000" pt_clust_6="13000.00000" pt_clust_7="13000.00000" pt_clust_8="13000.00000" pt_clust_9="13000.00000"></scales>
<clustering>
<clus scale="   81.115">  5  6 -1 -1</clus>
<clus scale="   90.344">  7  8 -1 -1</clus>
<clus scale="  117.460">  1  7  2 -1</clus>
<clus scale="  150.195">  5  9 -1 -1</clus>
<clus scale="  433.894">  2  5  1 -1</clus>
</clustering>
</event>
<event>
 9    2  0.3726337E-005  0.6119269E+03  0.7546771E-02  0.1038067E+00
         21   -1    0    0  501  502  0.00000000000E+00  0.00000000000E+00  0.79737510107E+03  0.79737510107E+03  0.00000000000E+00 0. -1.
          2   -1    0    0  502    0 -0.00000000000E+00 -0.00000000000E+00 -0.17346223969E+03  0.17346223969E+03  0.00000000000E+00 0. -1.
         23    2    1    2    0    0  0.30921909088E+02 -0.90907436526E+02  0.10956058922E+03  0.17145457487E+03  0.90403661735E+02 0.  0.
         24    2    1    2    0    0 -0.19824556848E+02 -0.14420337780E+02 -0.12545197134E+03  0.15087173185E+03  0.80144389469E+02 0.  0.
        -11    1    4    4    0    0 -0.45941581483E+02 -0.26771910131E+02 -0.95183228206E+02  0.10902848716E+03  0.00000000000E+00 0.  1.
         12    1    4    4    0    0  0.26117024635E+02  0.12351572351E+02 -0.30268743135E+02  0.41843244691E+02  0.00000000000E+00 0. -1.
        -13    1    3    3    0    0  0.62800496617E+02 -0.67667633909E+02  0.73461935027E+02  0.11798079061E+03  0.00000000000E+00 0. -1.
         13    1    3    3    0    0 -0.31878587530E+02 -0.23239802617E+02  0.36098654192E+02  0.53473784260E+02  0.00000000000E+00 0.  1.
          1    1    1    2  501    0 -0.11097352240E+02  0.10532777431E+03  0.63980424350E+03  0.64851103404E+03  0.00000000000E+00 0. -1.
<scales pt_clust_5="13000.00000" pt_clust_6="13000.00000" pt_clust_7="13000.00000" pt_clust_8="13000.00000" pt_clust_9="13000.00000"></scales>
<clustering>
<clus scale="   80.144">  5  6 -1 -1</clus>
<clus scale="   90.404">  7  8 -1 -1</clus>
<clus scale="  105.911">  5  9 -1 -1</clus>
<clus scale="  131.883">  2  7  1 -1</clus>
<clus scale="  611.927">  1  5  2 -1</clus>
</clustering>
</event>
<event>
 9    2  0.3726337E-005  0.2199129E+03  0.7546771E-02  0.1168260E+00
         -1   -1    0    0    0  501 -0.00000000000E+00  0.00000000000E+00  0.50732921662E+03  0.50732921662E+03  0.00000000000E+00 0.  1.
         21   -1    0    0  501  502  0.00000000000E+00 -0.00000000000E+00 -0.50168101071E+02  0.50168101071E+02  0.00000000000E+00 0. -1.
         23    2    1    2    0    0 -0.36283126549E+02  0.49834369843E+01  0.11660862755E+03  0.15211145312E+03  0.90548452409E+02 0.  0.
         24    2    1    2    0    0 -0.53049451765E+02 -0.42029014634E+02  0.93695126533E+02  0.14026091048E+03  0.79458567004E+02 0.  0.
        -13    1    4    4    0    0 -0.54158674892E+01 -0.26760081466E+02  0.85271237824E+02  0.89535566011E+02  0.00000000000E+00 0.  1.
         14    1    4    4    0    0 -0.47633584275E+02 -0.15268933168E+02  0.84238887083E+01  0.50725344474E+02  0.00000000000E+00 0. -1.
        -11    1    3    3    0    0  0.19508324257E+02 -0.27042157521E+02  0.39629372922E+02  0.51791313914E+02  0.00000000000E+00 0.  1.
         11    1    3    3    0    0 -0.55791450806E+02  0.32025594506E+02  0.76979254632E+02  0.10032013921E+03  0.00000000000E+00 0. -1.
         -2    1    1    2    0  502  0.89332578313E+02  0.37045577650E+02  0.24685736146E+03  0.26512495409E+03  0.00000000000E+00 0.  1.
<scales pt_clust_5="13000.00000" pt_clust_6="13000.00000" pt_clust_7="13000.00000" pt_clust_8="13000.00000" pt_clust_9="13000.00000"></scales>
<clustering>
<clus scale="   79.459">  5  6 -1 -1</clus>
<clus scale="   90.548">  7  8 -1 -1</clus>
<clus scale="   96.709">  5  9 -1 -1</clus>
<clus scale="   97.675">  1  7  2 -1</clus>
<clus scale="  219.913">  2  5  1 -1</clus>
</clustering>
</event>
<event>
 9    2  0.3726337E-005  0.7085406E+03  0.7546771E-02  0.1008083E+00
         21   -1    0    0  501  502  0.00000000000E+00  0.00000000000E+00  0.18195439054E+04  0.18195439054E+04  0.00000000000E+00 0.  1.
          4   -1    0    0  502    0 -0.00000000000E+00 -0.00000000000E+00 -0.13862900389E+03  0.13862900389E+03  0.00000000000E+00 0. -1.
         23    2    1    2    0    0  0.15967614257E+03 -0.98206519845E+02  0.80375411569E+03  0.83059106278E+03  0.93380105185E+02 0.  0.
         24    2    1    2    0    0  0.26514211356E+03  0.33836806758E+02  0.34800808288E+03  0.44595394674E+03  0.79498597418E+02 0.  0.
        -11    1    4    4    0    0  0.12491157789E+03 -0.10561958636E+02  0.11334523089E+03  0.16900177108E+03  0.00000000000E+00 0.  1.
         12    1    4    4    0    0  0.14023053567E+03  0.44398765394E+02  0.23466285199E+03  0.27695217567E+03  0.00000000000E+00 0. -1.
        -13    1    3    3    0    0  0.14907866211E+03 -0.50401371795E+02  0.66768857967E+03  0.68598307938E+03  0.00000000000E+00 0.  1.
         13    1    3    3    0    0  0.10597480469E+02 -0.47805148050E+02  0.13606553602E+03  0.14460798340E+03  0.00000000000E+00 0. -1.
          3    1    1    2  501    0 -0.42481825613E+03  0.64369713087E+02  0.52915270293E+03  0.68162789975E+03  0.00000000000E+00 0. -1.
<scales pt_clust_5="13000.00000" pt_clust_6="13000.00000" pt_clust_7="13000.00000" pt_clust_8="13000.00000" pt_clust_9="13000.00000"></scales>
<clustering>
<clus scale="   79.499">  5  6 -1 -1</clus>
<clus scale="   93.380">  7  8 -1 -1</clus>
<clus scale="  209.430">  2  7  1 -1</clus>
<clus scale="  327.627">  5  9 -1 -1</clus>
<clus scale="  708.541">  1  5  2 -1</clus>
</clustering>
</event>
<event>
 9    2  0.3726337E-005  0.1569943E+03  0.7546771E-02  0.1213865E+00
         21   -1    0    0  501  502  0.00000000000E+00  0.00000000000E+00  0.21484888611E+02  0.21484888611E+02  0.00000000000E+00 0.  1.
          2   -1    0    0  502    0 -0.00000000000E+00 -0.00000000000E+00 -0.79468399547E+03  0.79468399547E+03  0.00000000000E+00 0. -1.
         23    2    1    2    0    0  0.22654853745E+02 -0.27573844547E+02 -0.21565361494E+03  0.23694164891E+03  0.91440166489E+02 0.  0.
         24    2    1    2    0    0  0.26256686079E+02  0.28189255937E+02 -0.47431632244E+03  0.48268806120E+03  0.80794448956E+02 0.  0.
        -13    1    4    4    0    0  0.13553452907E+02 -0.24322962033E+02 -0.80422114054E+02  0.85105928094E+02  0.00000000000E+00 0.  1.
         14    1    4    4    0    0  0.12703233173E+02  0.52512217970E+02 -0.39389420838E+03  0.39758213311E+03  0.00000000000E+00 0. -1.
        -13    1    3    3    0    0  0.40781453401E+02 -0.17222816770E+02 -0.21094921235E+03  0.21554424731E+03  0.00000000000E+00 0. -1.
         13    1    3    3    0    0 -0.18126599656E+02 -0.10351027777E+02 -0.47044025904E+01  0.21397401591E+02  0.00000000000E+00 0.  1.
          1    1    1    2  501    0 -0.48911539825E+02 -0.61541138991E+00 -0.83229169484E+02  0.96539173977E+02  0.00000000000E+00 0. -1.
<scales pt_clust_5="13000.00000" pt_clust_6="13000.00000" pt_clust_7="13000.00000" pt_clust_8="13000.00000" pt_clust_9="13000.00000"></scales>
<clustering>
<clus scale="   80.794">  5  6 -1 -1</clus>
<clus scale="   48.915">  5  9 -1 -1</clus>
<clus scale="   91.440">  7  8 -1 -1</clus>
<clus scale="   98.157">  2  7  1 -1</clus>
<clus scale="  156.994">  1  5  2 -1</clus>
</clustering>
</event>
<event>
 9    2  0.3726337E-005  0.2399228E+03  0.7546771E-02  0.1154242E+00
         21   -1    0    0  501  502  0.00000000000E+00  0.00000000000E+00  0.88331877768E+02  0.88331877768E+02  0.00000000000E+00 0.  1.
         -1   -1    0    0    0  501 -0.00000000000E+00 -0.00000000000E+00 -0.41642249554E+03  0.41642249554E+03  0.00000000000E+00 0.  1.
         23    2    1    2    0    0 -0.74834790268E+01 -0.48173898240E+02 -0.21627895390E+03  0.24005685295E+03  0.92054222176E+02 0.  0.
         24    2    1    2    0    0 -0.92367335777E+02  0.62781959757E+02 -0.79402137255E+02  0.15870715242E+03  0.80062236043E+02 0.  0.
        -13    1    4    4    0    0 -0.21100138196E+02  0.94893886904E+01  0.16087918544E+02  0.28179521867E+02  0.00000000000E+00 0.  1.
         14    1    4    4    0    0 -0.71267197581E+02  0.53292571067E+02 -0.95490055799E+02  0.13052763056E+03  0.00000000000E+00 0. -1.
        -13    1    3    3    0    0  0.11121319847E+02 -0.70846707235E+02 -0.12417404660E+03  0.14339502617E+03  0.00000000000E+00 0.  1.
         13    1    3    3    0    0 -0.18604798874E+02  0.22672808994E+02 -0.92104907295E+02  0.96661826781E+02  0.00000000000E+00 0. -1.
         -2    1    1    2    0  502  0.99850814803E+02 -0.14608061517E+02 -0.32409526615E+02  0.10599036793E+03  0.00000000000E+00 0.  1.
<scales pt_clust_5="13000.00000" pt_clust_6="13000.00000" pt_clust_7="13000.00000" pt_clust_8="13000.00000" pt_clust_9="13000.00000"></scales>
<clustering>
<clus scale="   80.062">  5  6 -1 -1</clus>
<clus scale="   92.054">  7  8 -1 -1</clus>
<clus scale="  100.914">  5  9 -1 -1</clus>
<clus scale="  104.167">  2  7  1 -1</clus>
<clus scale="  239.923">  1  5  2 -1</clus>
</clustering>
</event>
<event>
 9    2  0.3726337E-005  0.2504732E+03  0.7546771E-02  0.1124497E+00
          2   -1    0    0  502    0 -0.00000000000E+00  0.00000000000E+00  0.25200970995E+03  0.25200970995E+03  0.00000000000E+00 0. -1.
         21   -1    0    0  501  502  0.00000000000E+00 -0.00000000000E+00 -0.19199203169E+03  0.19199203169E+03  0.00000000000E+00 0. -1.
         23    2    1    2    0    0 -0.15330509837E+03  0.61392575730E+02  0.66349887361E+01  0.18790308995E+03  0.89398247161E+02 0.  0.
         24    2    1    2    0    0  0.13463288153E+03 -0.36331071822E+02 -0.32946067609E+02  0.16428696961E+03  0.80366693634E+02 0.  0.
        -11    1    4    4    0    0  0.43534253384E+02  0.96203104789E+00  0.24850806998E+02  0.50137005594E+02  0.00000000000E+00 0.  1.
         12    1    4    4    0    0  0.91098628143E+02 -0.37293102870E+02 -0.57796874608E+02  0.11414996402E+03  0.00000000000E+00 0. -1.
        -13    1    3    3    0    0 -0.21198796929E+02  0.90809333257E+01 -0.33121379363E+02  0.40359362138E+02  0.00000000000E+00 0.  1.
         13    1    3    3    0    0 -0.13210630144E+03  0.52311642404E+02  0.39756368099E+02  0.14754372781E+03  0.00000000000E+00 0. -1.
          1    1    1    2  501    0  0.18672216841E+02 -0.25061503908E+02  0.86328757129E+02  0.91811682085E+02  0.00000000000E+00 0. -1.
<scales pt_clust_5="13000.00000" pt_clust_6="13000.00000" pt_clust_7="13000.00000" pt_clust_8="13000.00000" pt_clust_9="13000.00000"></scales>
<clustering>
<clus scale="   80.367">  5  6 -1 -1</clus>
<clus scale="   31.253">  5  9 -1 -1</clus>
<clus scale="   89.398">  7  8 -1 -1</clus>
<clus scale="  187.786">  1  7  2 -1</clus>
<clus scale="  250.473">  2  5  1 -1</clus>
</clustering>
</event>
<event>
 9    2  0.3726337E-005  0.1954480E+03  0.7546771E-02  0.1178417E+00
         21   -1    0    0  501  502  0.00000000000E+00  0.00000000000E+00  0.44029455186E+02  0.44029455186E+02  0.00000000000E+00 0. -1.
          2   -1    0    0  502    0 -0.00000000000E+00 -0.00000000000E+00 -0.54224347811E+03  0.54224347811E+03  0.00000000000E+00 0. -1.
         23    2    1    2    0    0  0.11819389007E+02 -0.61445710511E+02 -0.22135184254E+03  0.24737383808E+03  0.91004968400E+02 0.  0.
         24    2    1    2    0    0 -0.73542940098E+02  0.36207817354E+01 -0.17853521958E+03  0.20920055872E+03  0.80426208674E+02 0.  0.
        -11    1    4    4    0    0 -0.16807657288E+02 -0.33693856660E+02 -0.40099389593E+02  0.55006675648E+02  0.00000000000E+00 0.  1.
         12    1    4    4    0    0 -0.56735282809E+02  0.37314638395E+02 -0.13843582999E+03  0.15419388308E+03  0.00000000000E+00 0. -1.
        -11    1    3    3    0    0 -0.24844797550E+02  0.12268465895E+02 -0.46962567965E+02  0.54527626123E+02  0.00000000000E+00 0.  1.
         11    1    3    3    0    0  0.36664186557E+02 -0.73714176406E+02 -0.17438927458E+03  0.19284621196E+03  0.00000000000E+00 0. -1.
          1    1    1    2  501    0  0.61723551090E+02  0.57824928776E+02 -0.98326960803E+02  0.12969853649E+03  0.00000000000E+00 0. -1.
<scales pt_clust_5="13000.00000" pt_clust_6="13000.00000" pt_clust_7="13000.00000" pt_clust_8="13000.00000" pt_clust_9="13000.00000"></scales>
<clustering>
<clus scale="   80.426">  5  6 -1 -1</clus>
<clus scale="   84.579">  5  9 -1 -1</clus>
<clus scale="   91.005">  7  8 -1 -1</clus>
<clus scale="  110.441">  2  7  1 -1</clus>
<clus scale="  195.448">  1  5  2 -1</clus>
</clustering>
</event>
<event>
 9    2  0.3726337E-005  0.1665081E+03  0.7546771E-02  0.1204561E+00
         21   -1    0    0  501  502  0.00000000000E+00  0.00000000000E+00  0.27664575418E+02  0.27664575418E+02  0.00000000000E+00 0.  1.
          2   -1    0    0  502    0 -0.00000000000E+00 -0.00000000000E+00 -0.68767347986E+03  0.68767347986E+03  0.00000000000E+00 0. -1.
         23    2    1    2    0    0 -0.39319788885E+02 -0.11197778625E+02 -0.16566589947E+03  0.19370604431E+03  0.91680997538E+02 0.  0.
         24    2    1    2    0    0  0.59485014303E+02 -0.17581528687E+01 -0.48628855038E+03  0.49634630917E+03  0.79633826767E+02 0.  0.
        -13    1    4    4    0    0  0.43468401182E+02 -0.33485575991E+02 -0.18491361197E+03  0.19288294272E+03  0.00000000000E+00 0.  1.
         14    1    4    4    0    0  0.16016613121E+02  0.31727423122E+02 -0.30137493841E+03  0.30346336645E+03  0.00000000000E+00 0. -1.
        -13    1    3    3    0    0 -0.11073830400E+01  0.29839108505E+02 -0.11264225661E+03  0.11653272788E+03  0.00000000000E+00 0. -1.
         13    1    3    3    0    0 -0.38212405845E+02 -0.41036887130E+02 -0.53023642864E+02  0.77173316427E+02  0.00000000000E+00 0.  1.
          1    1    1    2  501    0 -0.20165225418E+02  0.12955931494E+02 -0.80544545952E+01  0.25285701807E+02  0.00000000000E+00 0. -1.
<scales pt_clust_5="13000.00000" pt_clust_6="13000.00000" pt_clust_7="13000.00000" pt_clust_8="13000.00000" pt_clust_9="13000.00000"></scales>
<clustering>
<clus scale="   79.634">  5  6 -1 -1</clus>
<clus scale="   23.969">  5  9 -1 -1</clus>
<clus scale="   91.681">  7  8 -1 -1</clus>
<clus scale="  100.384">  2  7  1 -1</clus>
<clus scale="  166.508">  1  5  2 -1</clus>
</clustering>
</event>
<event>
 9    2  0.3726337E-005  0.6594557E+03  0.7546771E-02  0.1039236E+00
          2   -1    0    0  502    0 -0.00000000000E+00  0.00000000000E+00  0.88805492550E+02  0.88805492550E+02  0.00000000000E+00 0. -1.
         21   -1    0    0  501  502  0.00000000000E+00 -0.00000000000E+00 -0.21682272968E+04  0.21682272968E+04  0.00000000000E+00 0. -1.
         23    2    1    2    0    0 -0.38969270552E+02 -0.27690870185E+02 -0.33115578046E+02  0.10709068808E+03  0.89924332774E+02 0.  0.
         24    2    1    2    0    0  0.15983654354E+03  0.27053513079E+03 -0.15541731166E+04  0.15880015082E+04  0.86935240114E+02 0.  0.
        -11    1    4    4    0    0  0.64484283346E+02  0.78746264704E+02 -0.33368766993E+03  0.34886481345E+03  0.00000000000E+00 0.  1.
         12    1    4    4    0    0  0.95352260195E+02  0.19178886609E+03 -0.12204854467E+04  0.12391366947E+04  0.00000000000E+00 0. -1.
        -13    1    3    3    0    0  0.26399426124E+02  0.25934616720E+01 -0.21440039413E+02  0.34107638927E+02  0.00000000000E+00 0.  1.
         13    1    3    3    0    0 -0.65368696675E+02 -0.30284331857E+02 -0.11675538633E+02  0.72983049151E+02  0.00000000000E+00 0. -1.
          1    1    1    2  501    0 -0.12086727299E+03 -0.24284426061E+03 -0.49213310957E+03  0.56194059306E+03  0.00000000000E+00 0. -1.
<scales pt_clust_5="13000.00000" pt_clust_6="13000.00000" pt_clust_7="13000.00000" pt_clust_8="13000.00000" pt_clust_9="13000.00000"></scales>
<clustering>
<clus scale="   86.935">  5  6 -1 -1</clus>
<clus scale="   89.924">  7  8 -1 -1</clus>
<clus scale="  101.842">  1  7  2 -1</clus>
<clus scale="  300.039">  5  9 -1 -1</clus>
<clus scale="  659.456">  2  5  1 -1</clus>
</clustering>
</event>
<event>
 9    2  0.3726337E-005  0.1359245E+03  0.7546771E-02  0.1235708E+00
         21   -1    0    0  501  502  0.00000000000E+00  0.00000000000E+00  0.45392814230E+03  0.45392814230E+03  0.00000000000E+00 0. -1.
          2   -1    0    0  502    0 -0.00000000000E+00 -0.00000000000E+00 -0.66703444914E+02  0.66703444914E+02  0.00000000000E+00 0. -1.
         23    2    1    2    0    0 -0.46729212150E+01 -0.30779795263E+02 -0.14033940435E+02  0.96976107016E+02  0.90764430582E+02 0.  0.
         24    2    1    2    0    0  0.33995911607E+02 -0.34071159848E+01  0.30855303083E+03  0.32058796721E+03  0.80027129393E+02 0.  0.
        -13    1    4    4    0    0  0.17311144175E+02  0.22878637845E+02  0.34941553374E+02  0.45210838683E+02  0.00000000000E+00 0.  1.
         14    1    4    4    0    0  0.16684767432E+02 -0.26285753830E+02  0.27361147746E+03  0.27537712853E+03  0.00000000000E+00 0. -1.
        -11    1    3    3    0    0  0.12712704982E+02 -0.49328702402E+02 -0.36805741654E+02  0.62845814239E+02  0.00000000000E+00 0.  1.
         11    1    3    3    0    0 -0.17385626197E+02  0.18548907139E+02  0.22771801219E+02  0.34130292778E+02  0.00000000000E+00 0. -1.
          1    1    1    2  501    0 -0.29322990392E+02  0.34186911248E+02  0.92705606984E+02  0.10306751298E+03  0.00000000000E+00 0. -1.
<scales pt_clust_5="13000.00000" pt_clust_6="13000.00000" pt_clust_7="13000.00000" pt_clust_8="13000.00000" pt_clust_9="13000.00000"></scales>
<clustering>
<clus scale="   80.027">  5  6 -1 -1</clus>
<clus scale="   45.040">  5  9 -1 -1</clus>
<clus scale="   90.764">  7  8 -1 -1</clus>
<clus scale="   95.955">  2  7  1 -1</clus>
<clus scale="  135.925">  1  5  2 -1</clus>
</clustering>
</event>
<event>
 9    2  0.3726337E-005  0.2749592E+03  0.7546771E-02  0.1128083E+00
          2   -1    0    0  502    0 -0.00000000000E+00  0.00000000000E+00  0.20699575687E+03  0.20699575687E+03  0.00000000000E+00 0. -1.
         21   -1    0    0  501  502  0.00000000000E+00 -0.00000000000E+00 -0.57260615558E+03  0.57260615558E+03  0.00000000000E+00 0. -1.
         23    2    1    2    0    0  0.64403856732E+02  0.64635738621E+02  0.14805913508E+03  0.19697085685E+03  0.92468240488E+02 0.  0.
         24    2    1    2    0    0 -0.85669578467E+00 -0.14619344449E+02 -0.19326403257E+02  0.81716879248E+02  0.78036397478E+02 0.  0.
        -13    1    4    4    0    0 -0.22739396991E+02 -0.18642144973E+02  0.20674160817E+02  0.35944828143E+02  0.00000000000E+00 0.  1.
         14    1    4    4    0    0  0.21882701206E+02  0.40228005240E+01 -0.40000564074E+02  0.45772051105E+02  0.00000000000E+00 0. -1.
        -11    1    3    3    0    0  0.85454077614E+02  0.62691465864E+02  0.10598635340E+03  0.14988571106E+03  0.00000000000E+00 0. -1.
         11    1    3    3    0    0 -0.21050220882E+02  0.19442727575E+01  0.42072781689E+02  0.47085145798E+02  0.00000000000E+00 0.  1.
          1    1    1    2  501    0 -0.63547160948E+02 -0.50016394172E+02 -0.49434313055E+03  0.50091417635E+03  0.00000000000E+00 0. -1.
<scales pt_clust_5="13000.00000" pt_clust_6="13000.00000" pt_clust_7="13000.00000" pt_clust_8="13000.00000" pt_clust_9="13000.00000"></scales>
<clustering>
<clus scale="   78.036">  5  6 -1 -1</clus>
<clus scale="   80.870">  5  9 -1 -1</clus>
<clus scale="   92.468">  7  8 -1 -1</clus>
<clus scale="  129.908">  1  7  2 -1</clus>
<clus scale="  274.959">  2  5  1 -1</clus>
</clustering>
</event>
<event>
 9    2  0.3726337E-005  0.3258356E+03  0.7546771E-02  0.1121420E+00
          2   -1    0    0  502    0 -0.00000000000E+00  0.00000000000E+00  0.13922744133E+03  0.13922744133E+03  0.00000000000E+00 0. -1.
         21   -1    0    0  501  502  0.00000000000E+00 -0.00000000000E+00 -0.33486558742E+03  0.33486558742E+03  0.00000000000E+00 0.  1.
         23    2    1    2    0    0 -0.22994444696E+01  0.21461258217E+02 -0.96781872854E+02  0.13359134296E+03  0.89521187164E+02 0.  0.
         24    2    1    2    0    0 -0.85647539126E+02  0.21245798925E+02 -0.17780073253E+03  0.21484026647E+03  0.82197047872E+02 0.  0.
        -13    1    4    4    0    0 -0.81095256252E+02  0.34393575766E+02 -0.89963383753E+02  0.12590777997E+03  0.00000000000E+00 0.  1.
         14    1    4    4    0    0 -0.45522828743E+01 -0.13147776840E+02 -0.87837348778E+02  0.88932486503E+02  0.00000000000E+00 0. -1.
        -11    1    3    3    0    0  0.19595661698E+02 -0.28127828908E+02 -0.20277459078E+02  0.39828884783E+02  0.00000000000E+00 0.  1.
         11    1    3    3    0    0 -0.21895106167E+02  0.49589087124E+02 -0.76504413776E+02  0.93762458176E+02  0.00000000000E+00 0. -1.
          1    1    1    2  501    0  0.87946983596E+02 -0.42707057142E+02  0.78944459290E+02  0.12566141932E+03  0.00000000000E+00 0. -1.
<scales pt_clust_5="13000.00000" pt_clust_6="13000.00000" pt_clust_7="13000.00000" pt_clust_8="13000.00000" pt_clust_9="13000.00000"></scales>
<clustering>
<clus scale="   82.197">  5  6 -1 -1</clus>
<clus scale="   89.521">  7  8 -1 -1</clus>
<clus scale="   92.087">  1  7  2 -1</clus>
<clus scale="   89.432">  5  9 -1 -1</clus>
<clus scale="  325.836">  2  5  1 -1</clus>
</clustering>
</event>
<event>
 9    2  0.3726337E-005  0.2161966E+03  0.7546771E-02  0.1146340E+00
         21   -1    0    0  501  502  0.00000000000E+00  0.00000000000E+00  0.86047974967E+02  0.86047974967E+02  0.00000000000E+00 0. -1.
          2   -1    0    0  502    0 -0.00000000000E+00 -0.00000000000E+00 -0.45612916924E+03  0.45612916924E+03  0.00000000000E+00 0. -1.
         23    2    1    2    0    0  0.14616477450E+03  0.26608985034E+02 -0.21975269067E+03  0.27885291848E+03  0.85997242382E+02 0.  0.
         24    2    1    2    0    0 -0.15340340063E+02 -0.15422868336E+02 -0.45258864611E+02  0.95158263386E+02  0.80830312159E+02 0.  0.
        -13    1    4    4    0    0 -0.36395826792E+02 -0.11168324705E+02 -0.58593077333E+02  0.69875148629E+02  0.00000000000E+00 0.  1.
         14    1    4    4    0    0  0.21055486728E+02 -0.42545436314E+01  0.13334212722E+02  0.25283114757E+02  0.00000000000E+00 0. -1.
        -13    1    3    3    0    0  0.87934890273E+02  0.56851213931E+02 -0.15160370017E+03  0.18425061020E+03  0.00000000000E+00 0.  1.
         13    1    3    3    0    0  0.58229884227E+02 -0.30242228897E+02 -0.68148990501E+02  0.94602308281E+02  0.00000000000E+00 0. -1.
          1    1    1    2  501    0 -0.13082443444E+03 -0.11186116698E+02 -0.10506963898E+03  0.16816596234E+03  0.00000000000E+00 0. -1.
<scales pt_clust_5="13000.00000" pt_clust_6="13000.00000" pt_clust_7="13000.00000" pt_clust_8="13000.00000" pt_clust_9="13000.00000"></scales>
<clustering>
<clus scale="   80.830">  5  6 -1 -1</clus>
<clus scale="   85.997">  7  8 -1 -1</clus>
<clus scale="  131.302">  5  9 -1 -1</clus>
<clus scale="  171.662">  2  7  1 -1</clus>
<clus scale="  216.197">  1  5  2 -1</clus>
</clustering>
</event>
<event>
 9    2  0.3726337E-005  0.2620763E+03  0.7546771E-02  0.1110923E+00
          2   -1    0    0  502    0 -0.00000000000E+00  0.00000000000E+00  0.99040399503E+03  0.99040399503E+03  0.00000000000E+00 0. -1.
         21   -1    0    0  501  502  0.00000000000E+00 -0.00000000000E+00 -0.63976132063E+02  0.63976132063E+02  0.00000000000E+00 0.  1.
         23    2    1    2    0    0  0.20667539916E+03 -0.30547694405E+02  0.54337065267E+03  0.59024994180E+03  0.97444575843E+02 0.  0.
         24    2    1    2    0    0 -0.35477854839E+02 -0.20271534283E+01  0.12155440702E+03  0.14987959100E+03  0.80160029920E+02 0.  0.
        -11    1    4    4    0    0 -0.23533629864E+01 -0.29866252410E+02  0.93813771575E+02  0.98481242313E+02  0.00000000000E+00 0.  1.
         12    1    4    4    0    0 -0.33124491853E+02  0.27839098981E+02  0.27740635441E+02  0.51398348683E+02  0.00000000000E+00 0. -1.
        -13    1    3    3    0    0  0.15860427536E+03  0.11113439284E+01  0.29119619524E+03  0.33158976970E+03  0.00000000000E+00 0.  1.
         13    1    3    3    0    0  0.48071123804E+02 -0.31659038333E+02  0.25217445742E+03  0.25866017210E+03  0.00000000000E+00 0. -1.
          1    1    1    2  501    0 -0.17119754432E+03  0.32574847833E+02  0.26150280328E+03  0.31425059430E+03  0.00000000000E+00 0. -1.
<scales pt_clust_5="13000.00000" pt_clust_6="13000.00000" pt_clust_7="13000.00000" pt_clust_8="13000.00000" pt_clust_9="13000.00000"></scales>
<clustering>
<clus scale="   80.160">  5  6 -1 -1</clus>
<clus scale="   97.445">  7  8 -1 -1</clus>
<clus scale="  174.269">  5  9 -1 -1</clus>
<clus scale="  230.528">  1  7  2 -1</clus>
<clus scale="  262.076">  2  5  1 -1</clus>
</clustering>
</event>
<event>
 9    2  0.3726337E-005  0.3962749E+03  0.7546771E-02  0.1054693E+00
         21   -1    0    0  501  502  0.00000000000E+00  0.00000000000E+00  0.63706493795E+03  0.63706493795E+03  0.00000000000E+00 0. -1.
          2   -1    0    0  502    0 -0.00000000000E+00 -0.00000000000E+00 -0.19170236796E+03  0.19170236796E+03  0.00000000000E+00 0. -1.
         23    2    1    2    0    0  0.23390800355E+03  0.16610451980E+03  0.21922497139E+03  0.37250861552E+03  0.91648322031E+02 0.  0.
         24    2    1    2    0    0  0.35040220800E+02 -0.52553570619E+02  0.77603848121E+02  0.12870832713E+03  0.80955428292E+02 0.  0.
        -11    1    4    4    0    0  0.15791983039E+02 -0.16031575779E+02 -0.15186660751E+02  0.27148348292E+02  0.00000000000E+00 0.  1.
         12    1    4    4    0    0  0.19248237761E+02 -0.36521994840E+02  0.92790508872E+02  0.10155997883E+03  0.00000000000E+00 0. -1.
        -11    1    3    3    0    0  0.23568646248E+03  0.14346651612E+03  0.21407018089E+03  0.34922312665E+03  0.00000000000E+00 0. -1.
         11    1    3    3    0    0 -0.17784589283E+01  0.22638003676E+02  0.51547905070E+01  0.23285488866E+02  0.00000000000E+00 0.  1.
          1    1    1    2  501    0 -0.26894822435E+03 -0.11355094918E+03  0.14853375048E+03  0.32755036326E+03  0.00000000000E+00 0. -1.
<scales pt_clust_5="13000.00000" pt_clust_6="13000.00000" pt_clust_7="13000.00000" pt_clust_8="13000.00000" pt_clust_9="13000.00000"></scales>
<clustering>
<clus scale="   80.955">  5  6 -1 -1</clus>
<clus scale="   91.648">  7  8 -1 -1</clus>
<clus scale="  291.937">  5  9 -1 -1</clus>
<clus scale="  301.170">  2  7  1 -1</clus>
<clus scale="  396.275">  1  5  2 -1</clus>
</clustering>
</event>
<event>
 9    2  0.3726337E-005  0.3650546E+03  0.7546771E-02  0.1102664E+00
          2   -1    0    0  502    0 -0.00000000000E+00  0.00000000000E+00  0.17137864437E+03  0.17137864437E+03  0.00000000000E+00 0. -1.
         21   -1    0    0  501  502  0.00000000000E+00 -0.00000000000E+00 -0.32345595717E+03  0.32345595717E+03  0.00000000000E+00 0. -1.
         23    2    1    2    0    0 -0.15930252798E+02  0.47973084478E+02 -0.25302064546E+02  0.10839337794E+03  0.92486432096E+02 0.  0.
         24    2    1    2    0    0  0.13669287224E+03  0.79697118381E+02 -0.11290393705E+03  0.21015820052E+03  0.79891164976E+02 0.  0.
        -13    1    4    4    0    0  0.22840961279E+02 -0.76638069239E+01  0.47873185580E+01  0.24563425406E+02  0.00000000000E+00 0.  1.
         14    1    4    4    0    0  0.11385191097E+03  0.87360925305E+02 -0.11769125561E+03  0.18559477511E+03  0.00000000000E+00 0. -1.
        -13    1    3    3    0    0 -0.49504114001E+02  0.47333584037E+01 -0.48970811740E+01  0.49970425141E+02  0.00000000000E+00 0.  1.
         13    1    3    3    0    0  0.33573861202E+02  0.43239726075E+02 -0.20404983372E+02  0.58422952796E+02  0.00000000000E+00 0. -1.
          1    1    1    2  501    0 -0.12076261945E+03 -0.12767020286E+03 -0.13871311207E+02  0.17628302309E+03  0.00000000000E+00 0. -1.
<scales pt_clust_5="13000.00000" pt_clust_6="13000.00000" pt_clust_7="13000.00000" pt_clust_8="13000.00000" pt_clust_9="13000.00000"></scales>
<clustering>
<clus scale="   79.891">  5  6 -1 -1</clus>
<clus scale="   92.486">  7  8 -1 -1</clus>
<clus scale="  105.399">  1  7  2 -1</clus>
<clus scale="  163.180">  5  9 -1 -1</clus>
<clus scale="  365.055">  2  5  1 -1</clus>
</clustering>
</event>
<event>
 9    2  0.3726337E-005  0.2633041E+03  0.7546771E-02  0.1139392E+00
         -3   -1    0    0    0  501 -0.00000000000E+00  0.00000000000E+00  0.11625097173E+03  0.11625097173E+03  0.00000000000E+00 0.  1.
         21   -1    0    0  501  502  0.00000000000E+00 -0.00000000000E+00 -0.39236244189E+03  0.39236244189E+03  0.00000000000E+00 0.  1.
         23    2    1    2    0    0 -0.14457045696E+02 -0.65106015806E+02  0.18173103303E+02  0.11373056034E+03  0.90313781933E+02 0.  0.
         24    2    1    2    0    0  0.21615119342E+02 -0.27313626385E+02 -0.29895613878E+01  0.89194429644E+02  0.82057670159E+02 0.  0.
        -11    1    4    4    0    0 -0.24573931722E+02 -0.14945671312E+02 -0.23522636617E+02  0.37155963783E+02  0.00000000000E+00 0.  1.
         12    1    4    4    0    0  0.46189051063E+02 -0.12367955073E+02  0.20533075229E+02  0.52038465861E+02  0.00000000000E+00 0. -1.
        -13    1    3    3    0    0 -0.13822446226E+02  0.18657890448E+02 -0.10099756661E+02  0.25321571441E+02  0.00000000000E+00 0. -1.
         13    1    3    3    0    0 -0.63459946960E+00 -0.83763906254E+02  0.28272859964E+02  0.88408988898E+02  0.00000000000E+00 0.  1.
         -4    1    1    2    0  502 -0.71580736460E+01  0.92419642191E+02 -0.29129501208E+03  0.30568842364E+03  0.00000000000E+00 0.  1.
<scales pt_clust_5="13000.00000" pt_clust_6="13000.00000" pt_clust_7="13000.00000" pt_clust_8="13000.00000" pt_clust_9="13000.00000"></scales>
<clustering>
<clus scale="   82.058">  5  6 -1 -1</clus>
<clus scale="   90.314">  7  8 -1 -1</clus>
<clus scale="   92.696">  5  9 -1 -1</clus>
<clus scale="  112.269">  1  7  2 -1</clus>
<clus scale="  263.304">  2  5  1 -1</clus>
</clustering>
</event>
<event>
 9    2  0.3726337E-005  0.1427731E+03  0.7546771E-02  0.1211365E+00
         -3   -1    0    0    0  501 -0.00000000000E+00  0.00000000000E+00  0.18937295589E+03  0.18937295589E+03  0.00000000000E+00 0.  1.
         21   -1    0    0  501  502  0.00000000000E+00 -0.00000000000E+00 -0.12206764424E+03  0.12206764424E+03  0.00000000000E+00 0.  1.
         23    2    1    2    0    0 -0.18634620331E+02  0.87981779436E+02  0.93363752352E+02  0.16630889848E+03  0.10418165325E+03 0.  0.
         24    2    1    2    0    0  0.44675317980E+02 -0.55661831536E+02 -0.15357845391E+02  0.10226913399E+03  0.71616959058E+02 0.  0.
        -13    1    4    4    0    0  0.44688861045E+02 -0.13496806110E+02 -0.32363834990E+02  0.56803836948E+02  0.00000000000E+00 0.  1.
         14    1    4    4    0    0 -0.13543065099E-01 -0.42165025426E+02  0.17005989599E+02  0.45465297039E+02  0.00000000000E+00 0. -1.
        -11    1    3    3    0    0  0.15840057968E+02  0.76675914767E+02  0.10241620785E+03  0.12891541014E+03  0.00000000000E+00 0.  1.
         11    1    3    3    0    0 -0.34474678299E+02  0.11305864669E+02 -0.90524554986E+01  0.37393488341E+02  0.00000000000E+00 0. -1.
         -4    1    1    2    0  502 -0.26040697649E+02 -0.32319947900E+02 -0.10700595315E+02  0.42862567660E+02  0.00000000000E+00 0.  1.
<scales pt_clust_5="13000.00000" pt_clust_6="13000.00000" pt_clust_7="13000.00000" pt_clust_8="13000.00000" pt_clust_9="13000.00000"></scales>
<clustering>
<clus scale="   71.617">  5  6 -1 -1</clus>
<clus scale="   41.505">  5  9 -1 -1</clus>
<clus scale="  104.182">  7  8 -1 -1</clus>
<clus scale="  137.629">  1  7  2 -1</clus>
<clus scale="  142.773">  2  5  1 -1</clus>
</clustering>
</event>
<event>
 9    2  0.3726337E-005  0.2330345E+03  0.7546771E-02  0.1144617E+00
         -1   -1    0    0    0  501 -0.00000000000E+00  0.00000000000E+00  0.12064005402E+04  0.12064005402E+04  0.00000000000E+00 0.  1.
         21   -1    0    0  501  502  0.00000000000E+00 -0.00000000000E+00 -0.30944452399E+02  0.30944452399E+02  0.00000000000E+00 0. -1.
         23    2    1    2    0    0 -0.10796695385E+03 -0.16714360298E+02  0.31462769628E+03  0.34553188382E+03  0.92007948066E+02 0.  0.
         24    2    1    2    0    0  0.80036153661E+02  0.47341308078E+02  0.83235415500E+03  0.84152472370E+03  0.81874513111E+02 0.  0.
        -13    1    4    4    0    0  0.94588370706E+02  0.42151516939E+02  0.61814159701E+03  0.62675572930E+03  0.00000000000E+00 0.  1.
         14    1    4    4    0    0 -0.14552217045E+02  0.51897911387E+01  0.21421255799E+03  0.21476899440E+03  0.00000000000E+00 0. -1.
        -11    1    3    3    0    0 -0.68718012163E+02  0.10827982660E+02  0.27397628350E+03  0.28267015111E+03  0.00000000000E+00 0.  1.
         11    1    3    3    0    0 -0.39248941687E+02 -0.27542342957E+02  0.40651412772E+02  0.62861732712E+02  0.00000000000E+00 0. -1.
         -2    1    1    2    0  502  0.27930800189E+02 -0.30626947780E+02  0.28474236535E+02  0.50288385098E+02  0.00000000000E+00 0.  1.
<scales pt_clust_5="13000.00000" pt_clust_6="13000.00000" pt_clust_7="13000.00000" pt_clust_8="13000.00000" pt_clust_9="13000.00000"></scales>
<clustering>
<clus scale="   81.875">  5  6 -1 -1</clus>
<clus scale="   41.450">  5  9 -1 -1</clus>
<clus scale="   92.008">  7  8 -1 -1</clus>
<clus scale="  142.835">  1  7  2 -1</clus>
<clus scale="  233.035">  2  5  1 -1</clus>
</clustering>
</event>
<event>
 9    2  0.3726337E-005  0.1840559E+03  0.7546771E-02  0.1191666E+00
         21   -1    0    0  501  502  0.00000000000E+00  0.00000000000E+00  0.45532152812E+02  0.45532152812E+02  0.00000000000E+00 0.  1.
          2   -1    0    0  502    0 -0.00000000000E+00 -0.00000000000E+00 -0.74911512338E+03  0.74911512338E+03  0.00000000000E+00 0. -1.
         23    2    1    2    0    0  0.29103957873E+02  0.20138458188E+02 -0.53844273075E+03  0.54736630197E+03  0.91851490878E+02 0.  0.
         24    2    1    2    0    0 -0.79930295156E+02  0.16501920607E+02 -0.13998673543E+03  0.17976406742E+03  0.77831024490E+02 0.  0.
        -13    1    4    4    0    0 -0.44803859305E+02 -0.12568039438E+02 -0.12230885833E+03  0.13086175243E+03  0.00000000000E+00 0.  1.
         14    1    4    4    0    0 -0.35126435851E+02  0.29069960045E+02 -0.17677877098E+02  0.48902314990E+02  0.00000000000E+00 0. -1.
        -11    1    3    3    0    0  0.37980758683E+02 -0.29353688012E+02 -0.24787242577E+03  0.25247755640E+03  0.00000000000E+00 0. -1.
         11    1    3    3    0    0 -0.88768008098E+01  0.49492146200E+02 -0.29057030498E+03  0.29488874557E+03  0.00000000000E+00 0.  1.
          1    1    1    2  501    0  0.50826337283E+02 -0.36640378795E+02 -0.25153504387E+02  0.67516906792E+02  0.00000000000E+00 0. -1.
<scales pt_clust_5="13000.00000" pt_clust_6="13000.00000" pt_clust_7="13000.00000" pt_clust_8="13000.00000" pt_clust_9="13000.00000"></scales>
<clustering>
<clus scale="   77.831">  5  6 -1 -1</clus>
<clus scale="   62.657">  5  9 -1 -1</clus>
<clus scale="   91.851">  7  8 -1 -1</clus>
<clus scale="   98.434">  2  7  1 -1</clus>
<clus scale="  184.056">  1  5  2 -1</clus>
</clustering>
</event>
<event>
 9    2  0.3726337E-005  0.1720961E+03  0.7546771E-02  0.1197817E+00
         21   -1    0    0  501  502  0.00000000000E+00  0.00000000000E+00  0.17683079561E+03  0.17683079561E+03  0.00000000000E+00 0. -1.
          2   -1    0    0  502    0 -0.00000000000E+00 -0.00000000000E+00 -0.14119783049E+03  0.14119783049E+03  0.00000000000E+00 0. -1.
         23    2    1    2    0    0  0.42390252457E+02  0.26195539101E+01 -0.60012139655E+02  0.12114016842E+03  0.96279218589E+02 0.  0.
         24    2    1    2    0    0  0.14172143818E+02 -0.34993438265E+01 -0.55937483170E+01  0.80916978091E+02  0.79392520148E+02 0.  0.
        -11    1    4    4    0    0 -0.30701088604E+02 -0.15327419564E+02 -0.20362727129E+01  0.34374889651E+02  0.00000000000E+00 0.  1.
         12    1    4    4    0    0  0.44873232422E+02  0.11828075737E+02 -0.35574756040E+01  0.46542088440E+02  0.00000000000E+00 0. -1.
        -13    1    3    3    0    0  0.16782040586E+02  0.39235736491E+02 -0.63295269117E+02  0.76337218949E+02  0.00000000000E+00 0.  1.
         13    1    3    3    0    0  0.25608211870E+02 -0.36616182581E+02  0.32831294620E+01  0.44802949468E+02  0.00000000000E+00 0. -1.
          1    1    1    2  501    0 -0.56562396275E+02  0.87978991640E+00  0.10123885309E+03  0.11597147959E+03  0.00000000000E+00 0. -1.
<scales pt_clust_5="13000.00000" pt_clust_6="13000.00000" pt_clust_7="13000.00000" pt_clust_8="13000.00000" pt_clust_9="13000.00000"></scales>
<clustering>
<clus scale="   79.393">  5  6 -1 -1</clus>
<clus scale="   56.569">  5  9 -1 -1</clus>
<clus scale="   96.279">  7  8 -1 -1</clus>
<clus scale="  105.231">  2  7  1 -1</clus>
<clus scale="  172.096">  1  5  2 -1</clus>
</clustering>
</event>
<event>
 9    2  0.3726337E-005  0.1954513E+03  0.7546771E-02  0.1175849E+00
         21   -1    0    0  501  502  0.00000000000E+00  0.00000000000E+00  0.32480223632E+03  0.32480223632E+03  0.00000000000E+00 0. -1.
          2   -1    0    0  502    0 -0.00000000000E+00 -0.00000000000E+00 -0.75232787458E+02  0.75232787458E+02  0.00000000000E+00 0. -1.
         23    2    1    2    0    0  0.60877472193E+02  0.43251387890E+02  0.87362734604E+02  0.14604247156E+03  0.90107751758E+02 0.  0.
         24    2    1    2    0    0  0.10510557969E+02 -0.28740276686E+02  0.10815903227E+02  0.85986597373E+02  0.79625597846E+02 0.  0.
        -13    1    4    4    0    0 -0.10454110586E+02  0.23819770479E+02 -0.64942487533E+01  0.26811287934E+02  0.00000000000E+00 0.  1.
         14    1    4    4    0    0  0.20964668556E+02 -0.52560047165E+02  0.17310151980E+02  0.59175309439E+02  0.00000000000E+00 0. -1.
        -13    1    3    3    0    0  0.31896819727E+02  0.37253655947E+02 -0.47685818410E+01  0.49274550864E+02  0.00000000000E+00 0.  1.
         13    1    3    3    0    0  0.28980652467E+02  0.59977319424E+01  0.92131316445E+02  0.96767920696E+02  0.00000000000E+00 0. -1.
          1    1    1    2  501    0 -0.71388030163E+02 -0.14511111203E+02  0.15139081103E+03  0.16800595484E+03  0.00000000000E+00 0. -1.
<scales pt_clust_5="13000.00000" pt_clust_6="13000.00000" pt_clust_7="13000.00000" pt_clust_8="13000.00000" pt_clust_9="13000.00000"></scales>
<clustering>
<clus scale="   79.626">  5  6 -1 -1</clus>
<clus scale="   72.848">  5  9 -1 -1</clus>
<clus scale="   90.108">  7  8 -1 -1</clus>
<clus scale="  117.031">  2  7  1 -1</clus>
<clus scale="  195.451">  1  5  2 -1</clus>
</clustering>
</event>
<event>
 9    2  0.3726337E-005  0.1718570E+03  0.7546771E-02  0.1194165E+00
         -3   -1    0    0    0  501 -0.00000000000E+00  0.00000000000E+00  0.16347033446E+03  0.16347033446E+03  0.00000000000E+00 0.  1.
         21   -1    0    0  501  502  0.00000000000E+00 -0.00000000000E+00 -0.13595599722E+03  0.13595599722E+03  0.00000000000E+00 0.  1.
         23    2    1    2    0    0  0.60299417086E+02 -0.32519166527E+02 -0.29789406442E+02  0.11826741262E+03  0.91685638242E+02 0.  0.
         24    2    1    2    0    0 -0.37749912733E+02  0.33928434487E+02 -0.23755101494E+02  0.97010225872E+02  0.79186390868E+02 0.  0.
        -13    1    4    4    0    0 -0.30631879983E+01  0.51456990616E+02 -0.26666683380E+02  0.58037203640E+02  0.00000000000E+00 0.  1.
         14    1    4    4    0    0 -0.34686724735E+02 -0.17528556129E+02  0.29115818857E+01  0.38973022232E+02  0.00000000000E+00 0. -1.
        -11    1    3    3    0    0 -0.19635221099E+01  0.20904313550E+02 -0.29520640314E+02  0.36225874022E+02  0.00000000000E+00 0. -1.
         11    1    3    3    0    0  0.62262939195E+02 -0.53423480077E+02 -0.26876612776E+00  0.82041538601E+02  0.00000000000E+00 0.  1.
         -4    1    1    2    0  502 -0.22549504352E+02 -0.14092679598E+01  0.81058845174E+02  0.84148693178E+02  0.00000000000E+00 0.  1.
<scales pt_clust_5="13000.00000" pt_clust_6="13000.00000" pt_clust_7="13000.00000" pt_clust_8="13000.00000" pt_clust_9="13000.00000"></scales>
<clustering>
<clus scale="   79.186">  5  6 -1 -1</clus>
<clus scale="   22.594">  5  9 -1 -1</clus>
<clus scale="   91.686">  7  8 -1 -1</clus>
<clus scale="  114.454">  1  7  2 -1</clus>
<clus scale="  171.857">  2  5  1 -1</clus>
</clustering>
</event>
<event>
 9    2  0.3726337E-005  0.4114140E+03  0.7546771E-02  0.1055133E+00
         21   -1    0    0  501  502  0.00000000000E+00  0.00000000000E+00  0.75177785101E+02  0.75177785101E+02  0.00000000000E+00 0. -1.
          2   -1    0    0  502    0 -0.00000000000E+00 -0.00000000000E+00 -0.15343631647E+04  0.15343631647E+04  0.00000000000E+00 0. -1.
         23    2    1    2    0    0  0.17596830147E+03 -0.17660116227E+03 -0.63452519244E+03  0.68795216717E+03  0.92212530797E+02 0.  0.
         24    2    1    2    0    0  0.64752241547E+02  0.14190995217E+02 -0.35800267931E+03  0.37195920571E+03  0.76115012918E+02 0.  0.
        -11    1    4    4    0    0  0.33184020778E+02  0.14943091950E+02 -0.47421300501E+02  0.59776709287E+02  0.00000000000E+00 0.  1.
         12    1    4    4    0    0  0.31568220769E+02 -0.75209673299E+00 -0.31058137881E+03  0.31218249642E+03  0.00000000000E+00 0. -1.
        -13    1    3    3    0    0  0.41297185101E+02 -0.88134224062E+02 -0.16522513749E+03  0.19176142732E+03  0.00000000000E+00 0.  1.
         13    1    3    3    0    0  0.13467111637E+03 -0.88466938211E+02 -0.46930005494E+03  0.49619073985E+03  0.00000000000E+00 0. -1.
          1    1    1    2  501    0 -0.24072054302E+03  0.16241016706E+03 -0.46665750787E+03  0.54962957694E+03  0.00000000000E+00 0. -1.
<scales pt_clust_5="13000.00000" pt_clust_6="13000.00000" pt_clust_7="13000.00000" pt_clust_8="13000.00000" pt_clust_9="13000.00000"></scales>
<clustering>
<clus scale="   76.115">  5  6 -1 -1</clus>
<clus scale="   92.213">  7  8 -1 -1</clus>
<clus scale="  265.812">  2  7  1 -1</clus>
<clus scale="  150.617">  5  9 -1 -1</clus>
<clus scale="  411.414">  1  5  2 -1</clus>
</clustering>
</event>
<event>
 9    2  0.3726337E-005  0.1279708E+03  0.7546771E-02  0.1242913E+00
         21   -1    0    0  501  502  0.00000000000E+00  0.00000000000E+00  0.45796712673E+03  0.45796712673E+03  0.00000000000E+00 0. -1.
         -1   -1    0    0    0  501 -0.00000000000E+00 -0.00000000000E+00 -0.28320697998E+02  0.28320697998E+02  0.00000000000E+00 0.  1.
         23    2    1    2    0    0 -0.39707710246E+02  0.62328811694E+01  0.17207245715E+03  0.19867544409E+03  0.90815475096E+02 0.  0.
         24    2    1    2    0    0  0.14651638014E+02 -0.34541413261E+02  0.19735763038E+03  0.21651253891E+03  0.80745684155E+02 0.  0.
        -11    1    4    4    0    0 -0.16814365182E+02 -0.48365499733E+02  0.87250986311E+02  0.10116659060E+03  0.00000000000E+00 0.  1.
         12    1    4    4    0    0  0.31466003197E+02  0.13824086473E+02  0.11010664406E+03  0.11534594831E+03  0.00000000000E+00 0. -1.
        -11    1    3    3    0    0 -0.64716040021E+02  0.85078747437E+01  0.15534912064E+03  0.16850489325E+03  0.00000000000E+00 0. -1.
         11    1    3    3    0    0  0.25008329774E+02 -0.22749935743E+01  0.16723336510E+02  0.30170550839E+02  0.00000000000E+00 0.  1.
         -2    1    1    2    0  502  0.25056072232E+02  0.28308532091E+02  0.60216341212E+02  0.71099841729E+02  0.00000000000E+00 0.  1.
<scales pt_clust_5="13000.00000" pt_clust_6="13000.00000" pt_clust_7="13000.00000" pt_clust_8="13000.00000" pt_clust_9="13000.00000"></scales>
<clustering>
<clus scale="   80.746">  5  6 -1 -1</clus>
<clus scale="   37.805">  5  9 -1 -1</clus>
<clus scale="   90.815">  7  8 -1 -1</clus>
<clus scale="   99.313">  2  7  1 -1</clus>
<clus scale="  127.971">  1  5  2 -1</clus>
</clustering>
</event>
<event>
 9    2  0.3726337E-005  0.3008980E+03  0.7546771E-02  0.1127864E+00
          2   -1    0    0  502    0 -0.00000000000E+00  0.00000000000E+00  0.53656604783E+03  0.53656604783E+03  0.00000000000E+00 0. -1.
         21   -1    0    0  501  502  0.00000000000E+00 -0.00000000000E+00 -0.16241230987E+03  0.16241230987E+03  0.00000000000E+00 0. -1.
         23    2    1    2    0    0 -0.42082603169E+02  0.42160290413E+01  0.38519373045E+03  0.39787792568E+03  0.90243633425E+02 0.  0.
         24    2    1    2    0    0  0.10802480922E+03 -0.60431061029E+02  0.86389423584E+02  0.17071256650E+03  0.79739421318E+02 0.  0.
        -13    1    4    4    0    0  0.70483484079E+01 -0.24263450497E+02  0.52440231026E+02  0.58209724921E+02  0.00000000000E+00 0.  1.
         14    1    4    4    0    0  0.10097646081E+03 -0.36167610531E+02  0.33949192557E+02  0.11250284158E+03  0.00000000000E+00 0. -1.
        -13    1    3    3    0    0 -0.55736151939E+02 -0.29639742733E+02  0.23930543459E+03  0.24749166452E+03  0.00000000000E+00 0.  1.
         13    1    3    3    0    0  0.13653548770E+02  0.33855771774E+02  0.14588829586E+03  0.15038626116E+03  0.00000000000E+00 0. -1.
          1    1    1    2  501    0 -0.65942206047E+02  0.56215031987E+02 -0.97429416065E+02  0.13038786552E+03  0.00000000000E+00 0. -1.
<scales pt_clust_5="13000.00000" pt_clust_6="13000.00000" pt_clust_7="13000.00000" pt_clust_8="13000.00000" pt_clust_9="13000.00000"></scales>
<clustering>
<clus scale="   79.739">  5  6 -1 -1</clus>
<clus scale="   86.652">  5  9 -1 -1</clus>
<clus scale="   90.244">  7  8 -1 -1</clus>
<clus scale="   99.663">  1  7  2 -1</clus>
<clus scale="  300.898">  2  5  1 -1</clus>
</clustering>
</event>
<event>
 9    2  0.3726337E-005  0.5165935E+03  0.7546771E-02  0.1031753E+00
          2   -1    0    0  502    0 -0.00000000000E+00  0.00000000000E+00  0.64769009318E+03  0.64769009318E+03  0.00000000000E+00 0. -1.
         21   -1    0    0  501  502  0.00000000000E+00 -0.00000000000E+00 -0.23961638932E+03  0.23961638932E+03  0.00000000000E+00 0.  1.
         23    2    1    2    0    0 -0.97664465199E+02  0.22770185119E+03  0.19672117549E+03  0.32914995360E+03  0.90851473689E+02 0.  0.
         24    2    1    2    0    0  0.12035569970E+02  0.84550639554E+02  0.20560021032E+03  0.23432475954E+03  0.73095696571E+02 0.  0.
        -13    1    4    4    0    0  0.29762267638E+02  0.46360101311E+02  0.17153853927E+03  0.18016803829E+03  0.00000000000E+00 0.  1.
         14    1    4    4    0    0 -0.17726697668E+02  0.38190538243E+02  0.34061671053E+02  0.54156721249E+02  0.00000000000E+00 0. -1.
        -11    1    3    3    0    0 -0.33748608911E+02  0.78629153624E+02  0.17327057921E+02  0.87302573498E+02  0.00000000000E+00 0.  1.
         11    1    3    3    0    0 -0.63915856288E+02  0.14907269757E+03  0.17939411757E+03  0.24184738011E+03  0.00000000000E+00 0. -1.
          1    1    1    2  501    0  0.85628895229E+02 -0.31225249075E+03  0.57523180437E+01  0.32383176935E+03  0.00000000000E+00 0. -1.
<scales pt_clust_5="13000.00000" pt_clust_6="13000.00000" pt_clust_7="13000.00000" pt_clust_8="13000.00000" pt_clust_9="13000.00000"></scales>
<clustering>
<clus scale="   73.096">  5  6 -1 -1</clus>
<clus scale="   90.851">  7  8 -1 -1</clus>
<clus scale="  263.895">  1  7  2 -1</clus>
<clus scale="  219.148">  5  9 -1 -1</clus>
<clus scale="  516.593">  2  5  1 -1</clus>
</clustering>
</event>
<event>
 9    2  0.3726337E-005  0.3514539E+03  0.7546771E-02  0.1088607E+00
          2   -1    0    0  502    0 -0.00000000000E+00  0.00000000000E+00  0.10521849992E+03  0.10521849992E+03  0.00000000000E+00 0. -1.
         21   -1    0    0  501  502  0.00000000000E+00 -0.00000000000E+00 -0.11250221556E+04  0.11250221556E+04  0.00000000000E+00 0. -1.
         23    2    1    2    0    0  0.46087436828E+02  0.13663123519E+03 -0.21602726276E+02  0.17197558677E+03  0.91196372730E+02 0.  0.
         24    2    1    2    0    0  0.51256822877E+02  0.44574963092E+02 -0.13261914153E+03  0.16857780757E+03  0.78844475263E+02 0.  0.
        -13    1    4    4    0    0  0.49405482940E+02 -0.32177820378E+01 -0.37493195923E+02  0.62104714848E+02  0.00000000000E+00 0.  1.
         14    1    4    4    0    0  0.18513399366E+01  0.47792745130E+02 -0.95125945608E+02  0.10647309273E+03  0.00000000000E+00 0. -1.
        -11    1    3    3    0    0  0.68348118595E+02  0.77270316174E+02 -0.31381138651E+02  0.10782830306E+03  0.00000000000E+00 0.  1.
         11    1    3    3    0    0 -0.22260681766E+02  0.59360919013E+02  0.97784123758E+01  0.64147283710E+02  0.00000000000E+00 0. -1.
          1    1    1    2  501    0 -0.97344259705E+02 -0.18120619828E+03 -0.86558178789E+03  0.88968726119E+03  0.00000000000E+00 0. -1.
<scales pt_clust_5="13000.00000" pt_clust_6="13000.00000" pt_clust_7="13000.00000" pt_clust_8="13000.00000" pt_clust_9="13000.00000"></scales>
<clustering>
<clus scale="   78.844">  5  6 -1 -1</clus>
<clus scale="   91.196">  7  8 -1 -1</clus>
<clus scale="  170.613">  1  7  2 -1</clus>
<clus scale="  148.953">  5  9 -1 -1</clus>
<clus scale="  351.454">  2  5  1 -1</clus>
</clustering>
</event>
<event>
 9    2  0.3726337E-005  0.2678802E+03  0.7546771E-02  0.1142439E+00
          2   -1    0    0  502    0 -0.00000000000E+00  0.00000000000E+00  0.32816983306E+03  0.32816983306E+03  0.00000000000E+00 0. -1.
         21   -1    0    0  501  502  0.00000000000E+00 -0.00000000000E+00 -0.11028457086E+03  0.11028457086E+03  0.00000000000E+00 0. -1.
         23    2    1    2    0    0 -0.12661716217E+02  0.37344560786E+02  0.11426017074E+03  0.15122981703E+03  0.90885288484E+02 0.  0.
         24    2    1    2    0    0  0.89294384339E+02  0.15071293103E+01  0.14883473848E+03  0.19013734864E+03  0.77618769985E+02 0.  0.
        -13    1    4    4    0    0  0.88543986578E+02  0.41480297554E+01  0.15767369353E+03  0.18088183254E+03  0.00000000000E+00 0.  1.
         14    1    4    4    0    0  0.75039776110E+00 -0.26409004451E+01 -0.88389550475E+01  0.92555161008E+01  0.00000000000E+00 0. -1.
        -13    1    3    3    0    0 -0.27985419473E+02  0.73996269249E+01  0.11397195803E+03  0.11759058380E+03  0.00000000000E+00 0. -1.
         13    1    3    3    0    0  0.15323703255E+02  0.29944933861E+02  0.28821270980E+00  0.33639233225E+02  0.00000000000E+00 0.  1.
          1    1    1    2  501    0 -0.76632668121E+02 -0.38851690097E+02 -0.45209647025E+02  0.97087238249E+02  0.00000000000E+00 0. -1.
<scales pt_clust_5="13000.00000" pt_clust_6="13000.00000" pt_clust_7="13000.00000" pt_clust_8="13000.00000" pt_clust_9="13000.00000"></scales>
<clustering>
<clus scale="   77.619">  5  6 -1 -1</clus>
<clus scale="   85.919">  5  9 -1 -1</clus>
<clus scale="   90.885">  7  8 -1 -1</clus>
<clus scale="   99.071">  1  7  2 -1</clus>
<clus scale="  267.880">  2  5  1 -1</clus>
</clustering>
</event>
<event>
 9    2  0.3726337E-005  0.2200388E+03  0.7546771E-02  0.1157080E+00
         21   -1    0    0  501  502  0.00000000000E+00  0.00000000000E+00  0.12164988083E+03  0.12164988083E+03  0.00000000000E+00 0.  1.
         -3   -1    0    0    0  501 -0.00000000000E+00 -0.00000000000E+00 -0.24867779435E+03  0.24867779435E+03  0.00000000000E+00 0.  1.
         23    2    1    2    0    0 -0.68674494812E+02  0.48565540643E+02 -0.62918564525E+02  0.14113979107E+03  0.94270339367E+02 0.  0.
         24    2    1    2    0    0  0.13654331653E+02  0.57554411989E+02 -0.38203512342E+02  0.10687772479E+03  0.80401421563E+02 0.  0.
        -13    1    4    4    0    0  0.38765901660E+02  0.39747086283E+02  0.28143331917E+01  0.55592683609E+02  0.00000000000E+00 0.  1.
         14    1    4    4    0    0 -0.25111570007E+02  0.17807325705E+02 -0.41017845534E+02  0.51285041184E+02  0.00000000000E+00 0. -1.
        -13    1    3    3    0    0 -0.17111018589E+02 -0.28711383226E+02 -0.15674666057E+02  0.36916468410E+02  0.00000000000E+00 0. -1.
         13    1    3    3    0    0 -0.51563476223E+02  0.77276923869E+02 -0.47243898468E+02  0.10422332266E+03  0.00000000000E+00 0.  1.
         -4    1    1    2    0  502  0.55020163158E+02 -0.10611995263E+03 -0.25905836647E+02  0.12231015932E+03  0.00000000000E+00 0.  1.
<scales pt_clust_5="13000.00000" pt_clust_6="13000.00000" pt_clust_7="13000.00000" pt_clust_8="13000.00000" pt_clust_9="13000.00000"></scales>
<clustering>
<clus scale="   80.401">  5  6 -1 -1</clus>
<clus scale="   94.270">  7  8 -1 -1</clus>
<clus scale="  119.535">  5  9 -1 -1</clus>
<clus scale="  126.340">  2  7  1 -1</clus>
<clus scale="  220.039">  1  5  2 -1</clus>
</clustering>
</event>
<event>
 9    2  0.3726337E-005  0.2995915E+03  0.7546771E-02  0.1120008E+00
         21   -1    0    0  501  502  0.00000000000E+00  0.00000000000E+00  0.45583249178E+02  0.45583249178E+02  0.00000000000E+00 0. -1.
          2   -1    0    0  502    0 -0.00000000000E+00 -0.00000000000E+00 -0.11355446697E+04  0.11355446697E+04  0.00000000000E+00 0. -1.
         23    2    1    2    0    0  0.64232571876E+02 -0.52470553080E+02 -0.55095676928E+03  0.56445859058E+03  0.90449746451E+02 0.  0.
         24    2    1    2    0    0 -0.99693510594E+02 -0.86089418238E+02 -0.24389012144E+03  0.28872279375E+03  0.80797749378E+02 0.  0.
        -13    1    4    4    0    0 -0.34395536090E+02 -0.54304877497E+02 -0.18296508489E+03  0.19392858198E+03  0.00000000000E+00 0.  1.
         14    1    4    4    0    0 -0.65297974504E+02 -0.31784540741E+02 -0.60925036558E+02  0.94794211764E+02  0.00000000000E+00 0. -1.
        -13    1    3    3    0    0 -0.21213503549E+02  0.17481721692E+01 -0.10977725754E+03  0.11182180070E+03  0.00000000000E+00 0.  1.
         13    1    3    3    0    0  0.85446075426E+02 -0.54218725249E+02 -0.44117951175E+03  0.45263678989E+03  0.00000000000E+00 0. -1.
          1    1    1    2  501    0  0.35460938717E+02  0.13855997132E+03 -0.29511452980E+03  0.32794653455E+03  0.00000000000E+00 0. -1.
<scales pt_clust_5="13000.00000" pt_clust_6="13000.00000" pt_clust_7="13000.00000" pt_clust_8="13000.00000" pt_clust_9="13000.00000"></scales>
<clustering>
<clus scale="   80.798">  5  6 -1 -1</clus>
<clus scale="   90.450">  7  8 -1 -1</clus>
<clus scale="  122.720">  2  7  1 -1</clus>
<clus scale="  130.662">  5  9 -1 -1</clus>
<clus scale="  299.591">  1  5  2 -1</clus>
</clustering>
</event>
<event>
 9    2  0.3726337E-005  0.6345198E+03  0.7546771E-02  0.1043958E+00
          2   -1    0    0  502    0 -0.00000000000E+00  0.00000000000E+00  0.94107038927E+03  0.94107038927E+03  0.00000000000E+00 0. -1.
         21   -1    0    0  501  502  0.00000000000E+00 -0.00000000000E+00 -0.14554864350E+03  0.14554864350E+03  0.00000000000E+00 0. -1.
         23    2    1    2    0    0 -0.34792579052E+02  0.21442156787E+02  0.65036215457E+02  0.11903211292E+03  0.90932089721E+02 0.  0.
         24    2    1    2    0    0 -0.12191708257E+02  0.29910260432E+03  0.37744211054E+03  0.48842502302E+03  0.80532295647E+02 0.  0.
        -11    1    4    4    0    0  0.12699713445E+02  0.36058812989E+02  0.17832342909E+02  0.42184276329E+02  0.00000000000E+00 0.  1.
         12    1    4    4    0    0 -0.24891421702E+02  0.26304379133E+03  0.35960976763E+03  0.44624074669E+03  0.00000000000E+00 0. -1.
        -11    1    3    3    0    0 -0.41631845259E+02 -0.11651242405E+02  0.72512993516E+02  0.84422131090E+02  0.00000000000E+00 0.  1.
         11    1    3    3    0    0  0.68392662070E+01  0.33093399191E+02 -0.74767780586E+01  0.34609981832E+02  0.00000000000E+00 0. -1.
          1    1    1    2  501    0  0.46984287309E+02 -0.32054476111E+03  0.35304341978E+03  0.47916189683E+03  0.00000000000E+00 0. -1.
<scales pt_clust_5="13000.00000" pt_clust_6="13000.00000" pt_clust_7="13000.00000" pt_clust_8="13000.00000" pt_clust_9="13000.00000"></scales>
<clustering>
<clus scale="   80.532">  5  6 -1 -1</clus>
<clus scale="   90.932">  7  8 -1 -1</clus>
<clus scale="   99.694">  1  7  2 -1</clus>
<clus scale="  311.478">  5  9 -1 -1</clus>
<clus scale="  634.520">  2  5  1 -1</clus>
</clustering>
</event>
<event>
 9    2  0.3726337E-005  0.1221348E+03  0.7546771E-02  0.1249331E+00
         21   -1    0    0  501  502  0.00000000000E+00  0.00000000000E+00  0.60306962339E+02  0.60306962339E+02  0.00000000000E+00 0.  1.
         -1   -1    0    0    0  501 -0.00000000000E+00 -0.00000000000E+00 -0.47907004118E+03  0.47907004118E+03  0.00000000000E+00 0.  1.
         23    2    1    2    0    0  0.41378034323E+02 -0.13687672831E+02 -0.40407265881E+03  0.41636186479E+03  0.90459906815E+02 0.  0.
         24    2    1    2    0    0 -0.38148104764E+02 -0.16395912347E+02 -0.14565590548E+02  0.92758401887E+02  0.81656970638E+02 0.  0.
        -13    1    4    4    0    0 -0.40545583933E+02 -0.31867631383E+02  0.19605596444E+02  0.55171276208E+02  0.00000000000E+00 0.  1.
         14    1    4    4    0    0  0.23974791691E+01  0.15471719037E+02 -0.34171186992E+02  0.37587125679E+02  0.00000000000E+00 0. -1.
        -13    1    3    3    0    0  0.28898568033E+02 -0.52016490544E+02 -0.21817352955E+03  0.22614272378E+03  0.00000000000E+00 0. -1.
         13    1    3    3    0    0  0.12479466290E+02  0.38328817713E+02 -0.18589912926E+03  0.19021914101E+03  0.00000000000E+00 0.  1.
         -2    1    1    2    0  502 -0.32299295591E+01  0.30083585178E+02 -0.12482948348E+00  0.30256736845E+02  0.00000000000E+00 0.  1.
<scales pt_clust_5="13000.00000" pt_clust_6="13000.00000" pt_clust_7="13000.00000" pt_clust_8="13000.00000" pt_clust_9="13000.00000"></scales>
<clustering>
<clus scale="   81.657">  5  6 -1 -1</clus>
<clus scale="   30.256">  5  9 -1 -1</clus>
<clus scale="   90.460">  7  8 -1 -1</clus>
<clus scale="  100.412">  2  7  1 -1</clus>
<clus scale="  122.135">  1  5  2 -1</clus>
</clustering>
</event>
<event>
 9    2  0.3726337E-005  0.4017066E+03  0.7546771E-02  0.1073267E+00
         21   -1    0    0  501  502  0.00000000000E+00  0.00000000000E+00  0.92615172010E+03  0.92615172010E+03  0.00000000000E+00 0.  1.
         -3   -1    0    0    0  501 -0.00000000000E+00 -0.00000000000E+00 -0.15747891174E+03  0.15747891174E+03  0.00000000000E+00 0.  1.
         23    2    1    2    0    0 -0.51910452251E+02 -0.13621540931E+03 -0.43102271810E+02  0.17790056981E+03  0.92420095850E+02 0.  0.
         24    2    1    2    0    0 -0.54923541445E+02 -0.55356218709E+02  0.56329637340E+03  0.57428646413E+03  0.80132591660E+02 0.  0.
        -13    1    4    4    0    0 -0.70866361835E+02 -0.41782706672E+02  0.33185770498E+03  0.34190257702E+03  0.00000000000E+00 0.  1.
         14    1    4    4    0    0  0.15942820390E+02 -0.13573512037E+02  0.23143866841E+03  0.23238388711E+03  0.00000000000E+00 0. -1.
        -13    1    3    3    0    0 -0.26670167995E+02 -0.14205777779E+03 -0.26006220114E+02  0.14686059232E+03  0.00000000000E+00 0.  1.
         13    1    3    3    0    0 -0.25240284256E+02  0.58423684849E+01 -0.17096051696E+02  0.31039977487E+02  0.00000000000E+00 0. -1.
         -4    1    1    2    0  502  0.10683399370E+03  0.19157162801E+03  0.24847870678E+03  0.33144359790E+03  0.00000000000E+00 0.  1.
<scales pt_clust_5="13000.00000" pt_clust_6="13000.00000" pt_clust_7="13000.00000" pt_clust_8="13000.00000" pt_clust_9="13000.00000"></scales>
<clustering>
<clus scale="   80.133">  5  6 -1 -1</clus>
<clus scale="   92.420">  7  8 -1 -1</clus>
<clus scale="  172.600">  2  7  1 -1</clus>
<clus scale="   93.823">  5  9 -1 -1</clus>
<clus scale="  401.707">  1  5  2 -1</clus>
</clustering>
</event>
<event>
 9    2  0.3726337E-005  0.2349958E+03  0.7546771E-02  0.1152498E+00
          2   -1    0    0  502    0 -0.00000000000E+00  0.00000000000E+00  0.68819488086E+03  0.68819488086E+03  0.00000000000E+00 0. -1.
         21   -1    0    0  501  502  0.00000000000E+00 -0.00000000000E+00 -0.53828980035E+02  0.53828980035E+02  0.00000000000E+00 0. -1.
         23    2    1    2    0    0 -0.65507864033E+02 -0.28468468517E+02  0.37334589800E+03  0.39080530963E+03  0.90773875835E+02 0.  0.
         24    2    1    2    0    0 -0.43779113191E+02 -0.31449941994E+02  0.55331435881E+02  0.11071564924E+03  0.79313791910E+02 0.  0.
        -11    1    4    4    0    0 -0.11206222904E+02  0.25944095079E+02  0.26350078422E+02  0.38639385788E+02  0.00000000000E+00 0.  1.
         12    1    4    4    0    0 -0.32572890286E+02 -0.57394037073E+02  0.28981357459E+02  0.72076263453E+02  0.00000000000E+00 0. -1.
        -11    1    3    3    0    0  0.12553977104E+02 -0.29987660916E+02  0.16801301001E+03  0.17112928938E+03  0.00000000000E+00 0.  1.
         11    1    3    3    0    0 -0.78061841138E+02  0.15191923988E+01  0.20533288798E+03  0.21967602025E+03  0.00000000000E+00 0. -1.
          1    1    1    2  501    0  0.10928697722E+03  0.59918410511E+02  0.20568856694E+03  0.24050290202E+03  0.00000000000E+00 0. -1.
<scales pt_clust_5="13000.00000" pt_clust_6="13000.00000" pt_clust_7="13000.00000" pt_clust_8="13000.00000" pt_clust_9="13000.00000"></scales>
<clustering>
<clus scale="   79.314">  5  6 -1 -1</clus>
<clus scale="   90.774">  7  8 -1 -1</clus>
<clus scale="  115.506">  1  7  2 -1</clus>
<clus scale="   72.954">  5  9 -1 -1</clus>
<clus scale="  234.996">  2  5  1 -1</clus>
</clustering>
</event>
<event>
 9    2  0.3726337E-005  0.5366354E+03  0.7546771E-02  0.1060688E+00
         21   -1    0    0  501  502  0.00000000000E+00  0.00000000000E+00  0.15527723166E+03  0.15527723166E+03  0.00000000000E+00 0. -1.
          2   -1    0    0  502    0 -0.00000000000E+00 -0.00000000000E+00 -0.68282413439E+03  0.68282413439E+03  0.00000000000E+00 0. -1.
         23    2    1    2    0    0 -0.17314482372E+01  0.45967849940E+02 -0.15121166145E+03  0.18265816530E+03  0.91558711510E+02 0.  0.
         24    2    1    2    0    0 -0.10014166000E+03 -0.29981711426E+02 -0.48688846520E+03  0.50426217639E+03  0.79326602760E+02 0.  0.
        -13    1    4    4    0    0 -0.21009875032E+02 -0.45568158394E+02 -0.20607615572E+03  0.21209727453E+03  0.00000000000E+00 0.  1.
         14    1    4    4    0    0 -0.79131784970E+02  0.15586446968E+02 -0.28081230948E+03  0.29216490185E+03  0.00000000000E+00 0. -1.
        -13    1    3    3    0    0 -0.16777689549E+02  0.69229269854E+02 -0.85110676148E+02  0.11098653011E+03  0.00000000000E+00 0.  1.
         13    1    3    3    0    0  0.15046241312E+02 -0.23261419914E+02 -0.66100985299E+02  0.71671635196E+02  0.00000000000E+00 0. -1.
          1    1    1    2  501    0  0.10187310824E+03 -0.15986138514E+02  0.11055322392E+03  0.15118102436E+03  0.00000000000E+00 0. -1.
<scales pt_clust_5="13000.00000" pt_clust_6="13000.00000" pt_clust_7="13000.00000" pt_clust_8="13000.00000" pt_clust_9="13000.00000"></scales>
<clustering>
<clus scale="   79.327">  5  6 -1 -1</clus>
<clus scale="   91.559">  7  8 -1 -1</clus>
<clus scale="  102.465">  2  7  1 -1</clus>
<clus scale="  102.787">  5  9 -1 -1</clus>
<clus scale="  536.635">  1  5  2 -1</clus>
</clustering>
</event>
<event>
 9    2  0.3726337E-005  0.4648395E+03  0.7546771E-02  0.1054967E+00
          2   -1    0    0  502    0 -0.00000000000E+00  0.00000000000E+00  0.23847130375E+03  0.23847130375E+03  0.00000000000E+00 0. -1.
         21   -1    0    0  501  502  0.00000000000E+00 -0.00000000000E+00 -0.44833770496E+03  0.44833770496E+03  0.00000000000E+00 0.  1.
         23    2    1    2    0    0 -0.49265901650E+02  0.15312609299E+03 -0.94449706549E+02  0.20785521508E+03  0.91696858996E+02 0.  0.
         24    2    1    2    0    0  0.26635047174E+02  0.14069128279E+03 -0.78488158284E+02  0.18196133130E+03  0.80287435554E+02 0.  0.
        -11    1    4    4    0    0  0.45744824316E+02  0.53404635076E+02 -0.13825410026E+02  0.71664398146E+02  0.00000000000E+00 0.  1.
         12    1    4    4    0    0 -0.19109777142E+02  0.87286647710E+02 -0.64662748258E+02  0.11029693315E+03  0.00000000000E+00 0. -1.
        -11    1    3    3    0    0 -0.63319966885E+02  0.13162036589E+03 -0.46199631658E+02  0.15319185647E+03  0.00000000000E+00 0.  1.
         11    1    3    3    0    0  0.14054065234E+02  0.21505727098E+02 -0.48250074892E+02  0.54663358611E+02  0.00000000000E+00 0. -1.
          1    1    1    2  501    0  0.22630854476E+02 -0.29381737577E+03 -0.36928536376E+02  0.29699246233E+03  0.00000000000E+00 0. -1.
<scales pt_clust_5="13000.00000" pt_clust_6="13000.00000" pt_clust_7="13000.00000" pt_clust_8="13000.00000" pt_clust_9="13000.00000"></scales>
<clustering>
<clus scale="   80.287">  5  6 -1 -1</clus>
<clus scale="   91.697">  7  8 -1 -1</clus>
<clus scale="  185.157">  1  7  2 -1</clus>
<clus scale="  184.707">  5  9 -1 -1</clus>
<clus scale="  464.839">  2  5  1 -1</clus>
</clustering>
</event>
<event>
 9    2  0.3726337E-005  0.4358430E+03  0.7546771E-02  0.1081747E+00
          2   -1    0    0  502    0 -0.00000000000E+00  0.00000000000E+00  0.40760044519E+03  0.40760044519E+03  0.00000000000E+00 0. -1.
         21   -1    0    0  501  502  0.00000000000E+00 -0.00000000000E+00 -0.21037791376E+03  0.21037791376E+03  0.00000000000E+00 0. -1.
         23    2    1    2    0    0  0.55217211731E+02 -0.12439183759E+02  0.14288517050E+03  0.17876128368E+03  0.91300333144E+02 0.  0.
         24    2    1    2    0    0  0.34802689767E+01 -0.19459702072E+03 -0.21460512778E+02  0.21106208000E+03  0.78781566748E+02 0.  0.
        -13    1    4    4    0    0  0.36254034546E+02 -0.85227592178E+02  0.85431428699E+01  0.93011197065E+02  0.00000000000E+00 0.  1.
         14    1    4    4    0    0 -0.32773765569E+02 -0.10936942854E+03 -0.30003655648E+02  0.11805088294E+03  0.00000000000E+00 0. -1.
        -11    1    3    3    0    0  0.10678101656E+02 -0.48736664703E+02  0.63138872120E+02  0.80472364908E+02  0.00000000000E+00 0. -1.
         11    1    3    3    0    0  0.44539110074E+02  0.36297480944E+02  0.79746298379E+02  0.98288918777E+02  0.00000000000E+00 0.  1.
          1    1    1    2  501    0 -0.58697480707E+02  0.20703620448E+03  0.75797873706E+02  0.22815499527E+03  0.00000000000E+00 0. -1.
<scales pt_clust_5="13000.00000" pt_clust_6="13000.00000" pt_clust_7="13000.00000" pt_clust_8="13000.00000" pt_clust_9="13000.00000"></scales>
<clustering>
<clus scale="   78.782">  5  6 -1 -1</clus>
<clus scale="   91.300">  7  8 -1 -1</clus>
<clus scale="  107.422">  1  7  2 -1</clus>
<clus scale="  200.899">  5  9 -1 -1</clus>
<clus scale="  435.843">  2  5  1 -1</clus>
</clustering>
</event>
<event>
 9    2  0.3726337E-005  0.3826173E+03  0.7546771E-02  0.1095568E+00
         21   -1    0    0  501  502  0.00000000000E+00  0.00000000000E+00  0.11562992593E+03  0.11562992593E+03  0.00000000000E+00 0. -1.
          2   -1    0    0  502    0 -0.00000000000E+00 -0.00000000000E+00 -0.66738117600E+03  0.66738117600E+03  0.00000000000E+00 0. -1.
         23    2    1    2    0    0 -0.40298115856E+02  0.37093865983E+02  0.17994763373E+01  0.11009621939E+03  0.95488461992E+02 0.  0.
         24    2    1    2    0    0  0.57160306079E+02 -0.16123009191E+03 -0.50395738296E+03  0.53817945379E+03  0.80010233828E+02 0.  0.
        -13    1    4    4    0    0  0.52887084817E+02 -0.15052761353E+03 -0.36011459398E+03  0.39387577606E+03  0.00000000000E+00 0.  1.
         14    1    4    4    0    0  0.42732212619E+01 -0.10702478377E+02 -0.14384278898E+03  0.14430367773E+03  0.00000000000E+00 0. -1.
        -13    1    3    3    0    0 -0.44706651771E+02  0.61591797865E+02 -0.18098515383E+02  0.78229090087E+02  0.00000000000E+00 0. -1.
         13    1    3    3    0    0  0.44085359147E+01 -0.24497931883E+02  0.19897991720E+02  0.31867129302E+02  0.00000000000E+00 0.  1.
          1    1    1    2  501    0 -0.16862190223E+02  0.12413622593E+03 -0.49593343449E+02  0.13473542875E+03  0.00000000000E+00 0. -1.
<scales pt_clust_5="13000.00000" pt_clust_6="13000.00000" pt_clust_7="13000.00000" pt_clust_8="13000.00000" pt_clust_9="13000.00000"></scales>
<clustering>
<clus scale="   80.010">  5  6 -1 -1</clus>
<clus scale="   95.488">  7  8 -1 -1</clus>
<clus scale="  110.082">  2  7  1 -1</clus>
<clus scale="  131.720">  5  9 -1 -1</clus>
<clus scale="  382.617">  1  5  2 -1</clus>
</clustering>
</event>
<event>
 9    2  0.3726337E-005  0.1811829E+03  0.7546771E-02  0.1174220E+00
         21   -1    0    0  501  502  0.00000000000E+00  0.00000000000E+00  0.10143491482E+03  0.10143491482E+03  0.00000000000E+00 0.  1.
          4   -1    0    0  502    0 -0.00000000000E+00 -0.00000000000E+00 -0.35317692588E+03  0.35317692588E+03  0.00000000000E+00 0. -1.
         23    2    1    2    0    0  0.22014606899E+02  0.11793326874E+03 -0.10354714832E+02  0.15279221833E+03  0.94049684052E+02 0.  0.
         24    2    1    2    0    0  0.87076089808E+01 -0.34919273278E+02 -0.15172364990E+03  0.17582459284E+03  0.81234496426E+02 0.  0.
        -11    1    4    4    0    0 -0.25665081761E+02  0.11287276478E+02 -0.73671478239E+02  0.78826301055E+02  0.00000000000E+00 0.  1.
         12    1    4    4    0    0  0.34372690741E+02 -0.46206549756E+02 -0.78052171660E+02  0.96998291789E+02  0.00000000000E+00 0. -1.
        -13    1    3    3    0    0 -0.15105911431E+02  0.94576755232E+02  0.22027010030E+02  0.98275838136E+02  0.00000000000E+00 0.  1.
         13    1    3    3    0    0  0.37120518331E+02  0.23356513507E+02 -0.32381724862E+02  0.54516380194E+02  0.00000000000E+00 0. -1.
          3    1    1    2  501    0 -0.30722215880E+02 -0.83013995462E+02 -0.89663646334E+02  0.12599502952E+03  0.00000000000E+00 0. -1.
<scales pt_clust_5="13000.00000" pt_clust_6="13000.00000" pt_clust_7="13000.00000" pt_clust_8="13000.00000" pt_clust_9="13000.00000"></scales>
<clustering>
<clus scale="   81.234">  5  6 -1 -1</clus>
<clus scale="   88.517">  5  9 -1 -1</clus>
<clus scale="   94.050">  7  8 -1 -1</clus>
<clus scale="  152.441">  2  7  1 -1</clus>
<clus scale="  181.183">  1  5  2 -1</clus>
</clustering>
</event>
<event>
 9    2  0.3726337E-005  0.4826491E+03  0.7546771E-02  0.1047150E+00
         21   -1    0    0  501  502  0.00000000000E+00  0.00000000000E+00  0.13816160625E+03  0.13816160625E+03  0.00000000000E+00 0. -1.
          2   -1    0    0  502    0 -0.00000000000E+00 -0.00000000000E+00 -0.11089394014E+04  0.11089394014E+04  0.00000000000E+00 0. -1.
         23    2    1    2    0    0 -0.54203368564E+02 -0.15917966924E+03 -0.58085470563E+02  0.21464887979E+03  0.12010015588E+03 0.  0.
         24    2    1    2    0    0 -0.17085508860E+03  0.75433640383E+02 -0.22967781818E+03  0.30845383887E+03  0.86661266714E+02 0.  0.
        -11    1    4    4    0    0 -0.14088614658E+03  0.22824921781E+02 -0.18259352450E+03  0.23175478105E+03  0.00000000000E+00 0.  1.
         12    1    4    4    0    0 -0.29968942026E+02  0.52608718602E+02 -0.47084293679E+02  0.76699057819E+02  0.00000000000E+00 0. -1.
        -13    1    3    3    0    0 -0.46593905341E+01 -0.15670381344E+03 -0.48700274673E+02  0.16416306473E+03  0.00000000000E+00 0. -1.
         13    1    3    3    0    0 -0.49543978029E+02 -0.24758557949E+01 -0.93851958902E+01  0.50485815065E+02  0.00000000000E+00 0.  1.
          1    1    1    2  501    0  0.22505845716E+03  0.83746028853E+02 -0.68301450637E+03  0.72399828895E+03  0.00000000000E+00 0. -1.
<scales pt_clust_5="13000.00000" pt_clust_6="13000.00000" pt_clust_7="13000.00000" pt_clust_8="13000.00000" pt_clust_9="13000.00000"></scales>
<clustering>
<clus scale="   86.661">  5  6 -1 -1</clus>
<clus scale="  120.100">  7  8 -1 -1</clus>
<clus scale="  206.640">  2  7  1 -1</clus>
<clus scale="  188.484">  5  9 -1 -1</clus>
<clus scale="  482.649">  1  5  2 -1</clus>
</clustering>
</event>
<event>
 9    2  0.3726337E-005  0.5149515E+03  0.7546771E-02  0.1029571E+00
          2   -1    0    0  502    0 -0.00000000000E+00  0.00000000000E+00  0.13682357857E+04  0.13682357857E+04  0.00000000000E+00 0. -1.
         21   -1    0    0  501  502  0.00000000000E+00 -0.00000000000E+00 -0.15101762640E+03  0.15101762640E+03  0.00000000000E+00 0. -1.
         23    2    1    2    0    0 -0.24947545603E+03 -0.99416968461E+02  0.82310184320E+03  0.87079161239E+03  0.93057246628E+02 0.  0.
         24    2    1    2    0    0  0.21966115667E+03 -0.14044232858E+03  0.21438856532E+03  0.34725848097E+03  0.81553198930E+02 0.  0.
        -13    1    4    4    0    0  0.10132104868E+03 -0.11277077649E+03  0.11592328389E+03  0.19084394327E+03  0.00000000000E+00 0.  1.
         14    1    4    4    0    0  0.11834010800E+03 -0.27671552086E+02  0.98465281431E+02  0.15641453770E+03  0.00000000000E+00 0. -1.
        -13    1    3    3    0    0 -0.10075969758E+03 -0.20940729633E+02  0.19401878555E+03  0.21962313166E+03  0.00000000000E+00 0.  1.
         13    1    3    3    0    0 -0.14871575845E+03 -0.78476238827E+02  0.62908305765E+03  0.65116848073E+03  0.00000000000E+00 0. -1.
          1    1    1    2  501    0  0.29814299357E+02  0.23985929704E+03  0.17972775078E+03  0.30120331874E+03  0.00000000000E+00 0. -1.
<scales pt_clust_5="13000.00000" pt_clust_6="13000.00000" pt_clust_7="13000.00000" pt_clust_8="13000.00000" pt_clust_9="13000.00000"></scales>
<clustering>
<clus scale="   81.553">  5  6 -1 -1</clus>
<clus scale="   93.057">  7  8 -1 -1</clus>
<clus scale="  241.705">  5  9 -1 -1</clus>
<clus scale="  284.221">  1  7  2 -1</clus>
<clus scale="  514.951">  2  5  1 -1</clus>
</clustering>
</event>
<event>
 9    2  0.3726337E-005  0.2809889E+03  0.7546771E-02  0.1124083E+00
         -1   -1    0    0    0  501 -0.00000000000E+00  0.00000000000E+00  0.34396424799E+03  0.34396424799E+03  0.00000000000E+00 0.  1.
         21   -1    0    0  501  502  0.00000000000E+00 -0.00000000000E+00 -0.12683711467E+03  0.12683711467E+03  0.00000000000E+00 0.  1.
         23    2    1    2    0    0 -0.99728626438E+02 -0.10452490755E+01  0.47226374701E+02  0.14244020705E+03  0.90066590035E+02 0.  0.
         24    2    1    2    0    0  0.13377367947E+03 -0.69345317237E+02  0.38382432559E+02  0.17535472584E+03  0.81067246171E+02 0.  0.
        -13    1    4    4    0    0  0.13276735503E+03 -0.42502262293E+02  0.47048052369E+02  0.14712964383E+03  0.00000000000E+00 0.  1.
         14    1    4    4    0    0  0.10063244425E+01 -0.26843054944E+02 -0.86656198104E+01  0.28225082007E+02  0.00000000000E+00 0. -1.
        -13    1    3    3    0    0 -0.56972744762E+02 -0.12141812719E+02 -0.20352633101E+02  0.61705323400E+02  0.00000000000E+00 0.  1.
         13    1    3    3    0    0 -0.42755881676E+02  0.11096563643E+02  0.67579007802E+02  0.80734883651E+02  0.00000000000E+00 0. -1.
         -2    1    1    2    0  502 -0.34045053034E+02  0.70390566312E+02  0.13151832607E+03  0.15300642978E+03  0.00000000000E+00 0.  1.
<scales pt_clust_5="13000.00000" pt_clust_6="13000.00000" pt_clust_7="13000.00000" pt_clust_8="13000.00000" pt_clust_9="13000.00000"></scales>
<clustering>
<clus scale="   81.067">  5  6 -1 -1</clus>
<clus scale="   78.191">  5  9 -1 -1</clus>
<clus scale="   90.067">  7  8 -1 -1</clus>
<clus scale="  134.383">  1  7  2 -1</clus>
<clus scale="  280.989">  2  5  1 -1</clus>
</clustering>
</event>
<event>
 9    2  0.3726337E-005  0.1579389E+03  0.7546771E-02  0.1214941E+00
         -3   -1    0    0    0  501 -0.00000000000E+00  0.00000000000E+00  0.28613687023E+03  0.28613687023E+03  0.00000000000E+00 0.  1.
         21   -1    0    0  501  502  0.00000000000E+00 -0.00000000000E+00 -0.12757653738E+03  0.12757653738E+03  0.00000000000E+00 0.  1.
         23    2    1    2    0    0 -0.13577713014E+02 -0.13191263341E+02  0.22380077751E+03  0.24283036321E+03  0.92311611227E+02 0.  0.
         24    2    1    2    0    0  0.48902802136E+01  0.65744646796E+02 -0.64534954669E+02  0.11761178274E+03  0.72948595895E+02 0.  0.
        -13    1    4    4    0    0 -0.33404860392E+02  0.36913280804E+02 -0.39385769426E+02  0.63480027023E+02  0.00000000000E+00 0.  1.
         14    1    4    4    0    0  0.38295140606E+02  0.28831365992E+02 -0.25149185243E+02  0.54131755720E+02  0.00000000000E+00 0. -1.
        -11    1    3    3    0    0  0.25054026178E+02  0.25147346061E+02  0.54897588028E+02  0.65374600671E+02  0.00000000000E+00 0. -1.
         11    1    3    3    0    0 -0.38631739192E+02 -0.38338609402E+02  0.16890318948E+03  0.17745576254E+03  0.00000000000E+00 0.  1.
         -4    1    1    2    0  502  0.86874328003E+01 -0.52553383455E+02 -0.70548998660E+00  0.53271261646E+02  0.00000000000E+00 0.  1.
<scales pt_clust_5="13000.00000" pt_clust_6="13000.00000" pt_clust_7="13000.00000" pt_clust_8="13000.00000" pt_clust_9="13000.00000"></scales>
<clustering>
<clus scale="   72.949">  5  6 -1 -1</clus>
<clus scale="   53.267">  5  9 -1 -1</clus>
<clus scale="   92.312">  7  8 -1 -1</clus>
<clus scale="   94.233">  1  7  2 -1</clus>
<clus scale="  157.939">  2  5  1 -1</clus>
</clustering>
</event>
<event>
 9    2  0.3726337E-005  0.2141277E+03  0.7546771E-02  0.1143155E+00
         21   -1    0    0  501  502  0.00000000000E+00  0.00000000000E+00  0.15026670190E+03  0.15026670190E+03  0.00000000000E+00 0.  1.
         -3   -1    0    0    0  501 -0.00000000000E+00 -0.00000000000E+00 -0.49952439074E+03  0.49952439074E+03  0.00000000000E+00 0.  1.
         23    2    1    2    0    0 -0.16598536258E+03 -0.27396257443E+02 -0.38787694529E+03  0.43220866485E+03  0.89744692175E+02 0.  0.
         24    2    1    2    0    0  0.11573009020E+03  0.17556266449E+02  0.67350698650E+02  0.15886349051E+03  0.83664901465E+02 0.  0.
        -13    1    4    4    0    0  0.11298635494E+03 -0.13085487592E+01  0.77739300770E+02  0.13715329958E+03  0.00000000000E+00 0.  1.
         14    1    4    4    0    0  0.27437352682E+01  0.18864815208E+02 -0.10388602120E+02  0.21710190926E+02  0.00000000000E+00 0. -1.
        -13    1    3    3    0    0 -0.38129070299E+02  0.19662089609E+02 -0.16927484229E+03  0.17462644702E+03  0.00000000000E+00 0. -1.
         13    1    3    3    0    0 -0.12785629228E+03 -0.47058347052E+02 -0.21860210300E+03  0.25758221782E+03  0.00000000000E+00 0.  1.
         -4    1    1    2    0  502  0.50255272376E+02  0.98399909944E+01 -0.28731442205E+02  0.58718937282E+02  0.00000000000E+00 0.  1.
<scales pt_clust_5="13000.00000" pt_clust_6="13000.00000" pt_clust_7="13000.00000" pt_clust_8="13000.00000" pt_clust_9="13000.00000"></scales>
<clustering>
<clus scale="   83.665">  5  6 -1 -1</clus>
<clus scale="   51.210">  5  9 -1 -1</clus>
<clus scale="   89.745">  7  8 -1 -1</clus>
<clus scale="  190.672">  2  7  1 -1</clus>
<clus scale="  214.128">  1  5  2 -1</clus>
</clustering>
</event>
<event>
 9    2  0.3726337E-005  0.1558256E+03  0.7546771E-02  0.1207478E+00
          2   -1    0    0  502    0 -0.00000000000E+00  0.00000000000E+00  0.56161361443E+03  0.56161361443E+03  0.00000000000E+00 0. -1.
         21   -1    0    0  501  502  0.00000000000E+00 -0.00000000000E+00 -0.33083425213E+02  0.33083425213E+02  0.00000000000E+00 0.  1.
         23    2    1    2    0    0 -0.54434030332E+02 -0.28326756020E+02  0.19161035709E+03  0.22348738965E+03  0.97296534476E+02 0.  0.
         24    2    1    2    0    0  0.30258704723E+02  0.44213816849E+02  0.12896525360E+03  0.16125262630E+03  0.80622094000E+02 0.  0.
        -13    1    4    4    0    0  0.16217863365E+02 -0.17447414311E+02  0.73059021986E+02  0.76844336498E+02  0.00000000000E+00 0.  1.
         14    1    4    4    0    0  0.14040841358E+02  0.61661231160E+02  0.55906231618E+02  0.84408289806E+02  0.00000000000E+00 0. -1.
        -13    1    3    3    0    0 -0.39918230121E+02  0.25313933859E+02  0.39686426711E+02  0.61719306611E+02  0.00000000000E+00 0.  1.
         13    1    3    3    0    0 -0.14515800211E+02 -0.53640689878E+02  0.15192393038E+03  0.16176808304E+03  0.00000000000E+00 0. -1.
          1    1    1    2  501    0  0.24175325609E+02 -0.15887060829E+02  0.20795457853E+03  0.20995702370E+03  0.00000000000E+00 0. -1.
<scales pt_clust_5="13000.00000" pt_clust_6="13000.00000" pt_clust_7="13000.00000" pt_clust_8="13000.00000" pt_clust_9="13000.00000"></scales>
<clustering>
<clus scale="   80.622">  5  6 -1 -1</clus>
<clus scale="   28.928">  5  9 -1 -1</clus>
<clus scale="   97.297">  7  8 -1 -1</clus>
<clus scale="  115.031">  1  7  2 -1</clus>
<clus scale="  155.826">  2  5  1 -1</clus>
</clustering>
</event>
<event>
 9    2  0.3726337E-005  0.3724046E+03  0.7546771E-02  0.1080448E+00
         21   -1    0    0  501  502  0.00000000000E+00  0.00000000000E+00  0.77421099534E+03  0.77421099534E+03  0.00000000000E+00 0. -1.
          4   -1    0    0  502    0 -0.00000000000E+00 -0.00000000000E+00 -0.10087688567E+03  0.10087688567E+03  0.00000000000E+00 0. -1.
         23    2    1    2    0    0  0.12068593076E+02  0.15460636988E+03  0.29149580471E+03  0.34171589429E+03  0.88040716151E+02 0.  0.
         24    2    1    2    0    0 -0.39917755670E+02  0.86812596758E+02  0.75573675643E+02  0.14240304104E+03  0.73738670143E+02 0.  0.
        -13    1    4    4    0    0 -0.32767640995E+02  0.23466937345E+02 -0.39332390025E+01  0.40495503624E+02  0.00000000000E+00 0.  1.
         14    1    4    4    0    0 -0.71501146752E+01  0.63345659413E+02  0.79506914645E+02  0.10190753742E+03  0.00000000000E+00 0. -1.
        -11    1    3    3    0    0  0.29549409249E+02  0.11442458722E+03  0.26587352116E+03  0.29095512197E+03  0.00000000000E+00 0.  1.
         11    1    3    3    0    0 -0.17480816173E+02  0.40181782665E+02  0.25622283549E+02  0.50760772319E+02  0.00000000000E+00 0. -1.
          3    1    1    2  501    0  0.27849162594E+02 -0.24141896664E+03  0.30626462932E+03  0.39096894568E+03  0.00000000000E+00 0. -1.
<scales pt_clust_5="13000.00000" pt_clust_6="13000.00000" pt_clust_7="13000.00000" pt_clust_8="13000.00000" pt_clust_9="13000.00000"></scales>
<clustering>
<clus scale="   73.739">  5  6 -1 -1</clus>
<clus scale="   88.041">  7  8 -1 -1</clus>
<clus scale="  178.325">  2  7  1 -1</clus>
<clus scale="  158.811">  5  9 -1 -1</clus>
<clus scale="  372.405">  1  5  2 -1</clus>
</clustering>
</event>
<event>
 9    2  0.3726337E-005  0.2789752E+03  0.7546771E-02  0.1112503E+00
         21   -1    0    0  501  502  0.00000000000E+00  0.00000000000E+00  0.14692380765E+03  0.14692380765E+03  0.00000000000E+00 0.  1.
          2   -1    0    0  502    0 -0.00000000000E+00 -0.00000000000E+00 -0.36680923356E+03  0.36680923356E+03  0.00000000000E+00 0. -1.
         23    2    1    2    0    0  0.85172390690E+02 -0.13647741460E+03 -0.65831392443E+02  0.19504850468E+03  0.88485739616E+02 0.  0.
         24    2    1    2    0    0  0.15550964739E+01 -0.13232817024E+02  0.73234520548E+01  0.82088882899E+02  0.80668618274E+02 0.  0.
        -13    1    4    4    0    0  0.30155117153E+02 -0.11689416950E+02 -0.23526223752E+02  0.39993208964E+02  0.00000000000E+00 0.  1.
         14    1    4    4    0    0 -0.28600020679E+02 -0.15434000735E+01  0.30849675807E+02  0.42095673935E+02  0.00000000000E+00 0. -1.
        -11    1    3    3    0    0  0.73280568529E+02 -0.55630036602E+02 -0.31467503154E+01  0.92057833637E+02  0.00000000000E+00 0.  1.
         11    1    3    3    0    0  0.11891822161E+02 -0.80847377994E+02 -0.62684642128E+02  0.10299067104E+03  0.00000000000E+00 0. -1.
          1    1    1    2  501    0 -0.86727487164E+02  0.14971023162E+03 -0.16137748552E+03  0.23659565363E+03  0.00000000000E+00 0. -1.
<scales pt_clust_5="13000.00000" pt_clust_6="13000.00000" pt_clust_7="13000.00000" pt_clust_8="13000.00000" pt_clust_9="13000.00000"></scales>
<clustering>
<clus scale="   80.669">  5  6 -1 -1</clus>
<clus scale="   88.486">  7  8 -1 -1</clus>
<clus scale="  173.017">  5  9 -1 -1</clus>
<clus scale="  183.603">  2  7  1 -1</clus>
<clus scale="  278.975">  1  5  2 -1</clus>
</clustering>
</event>
<event>
 9    2  0.3726337E-005  0.2196364E+03  0.7546771E-02  0.1137474E+00
         21   -1    0    0  501  502  0.00000000000E+00  0.00000000000E+00  0.53374252841E+02  0.53374252841E+02  0.00000000000E+00 0. -1.
          2   -1    0    0  502    0 -0.00000000000E+00 -0.00000000000E+00 -0.10218972571E+04  0.10218972571E+04  0.00000000000E+00 0. -1.
         23    2    1    2    0    0 -0.17380026948E+03 -0.50705020098E+02 -0.69800629879E+03  0.72681858440E+03  0.90966635333E+02 0.  0.
         24    2    1    2    0    0  0.14709358710E+03  0.30479300469E+02 -0.16104421576E+03  0.23396907244E+03  0.78998584207E+02 0.  0.
        -11    1    4    4    0    0  0.16803047113E+02  0.19622387375E+02 -0.70095872433E+02  0.74704831241E+02  0.00000000000E+00 0.  1.
         12    1    4    4    0    0  0.13029053998E+03  0.10856913094E+02 -0.90948343331E+02  0.15926424120E+03  0.00000000000E+00 0. -1.
        -13    1    3    3    0    0 -0.98573233949E+02 -0.24058062546E+02 -0.22097088685E+03  0.24315346113E+03  0.00000000000E+00 0.  1.
         13    1    3    3    0    0 -0.75227035527E+02 -0.26646957552E+02 -0.47703541194E+03  0.48366512327E+03  0.00000000000E+00 0. -1.
          1    1    1    2  501    0  0.26706682380E+02  0.20225719629E+02 -0.10947248971E+03  0.11448385311E+03  0.00000000000E+00 0. -1.
<scales pt_clust_5="13000.00000" pt_clust_6="13000.00000" pt_clust_7="13000.00000" pt_clust_8="13000.00000" pt_clust_9="13000.00000"></scales>
<clustering>
<clus scale="   78.999">  5  6 -1 -1</clus>
<clus scale="   33.501">  5  9 -1 -1</clus>
<clus scale="   90.967">  7  8 -1 -1</clus>
<clus scale="  202.614">  2  7  1 -1</clus>
<clus scale="  219.636">  1  5  2 -1</clus>
</clustering>
</event>
<event>
 9    2  0.3726337E-005  0.1968046E+03  0.7546771E-02  0.1177655E+00
          2   -1    0    0  502    0 -0.00000000000E+00  0.00000000000E+00  0.27495701768E+03  0.27495701768E+03  0.00000000000E+00 0. -1.
         21   -1    0    0  501  502  0.00000000000E+00 -0.00000000000E+00 -0.86516719971E+02  0.86516719971E+02  0.00000000000E+00 0. -1.
         23    2    1    2    0    0  0.44397419846E+02 -0.37465810978E+02  0.50124388508E+02  0.12092576696E+03  0.93465335340E+02 0.  0.
         24    2    1    2    0    0 -0.29371873935E+02  0.76036001849E+02  0.37327688925E+02  0.13140564486E+03  0.96072402823E+02 0.  0.
        -13    1    4    4    0    0  0.27489678746E+02  0.25886937769E+02  0.40694225052E+02  0.55514285884E+02  0.00000000000E+00 0.  1.
         14    1    4    4    0    0 -0.56861552681E+02  0.50149064080E+02 -0.33665361267E+01  0.75891358974E+02  0.00000000000E+00 0. -1.
        -11    1    3    3    0    0 -0.67641036624E+01 -0.55353773797E+02  0.27781324346E+02  0.62302450628E+02  0.00000000000E+00 0.  1.
         11    1    3    3    0    0  0.51161523508E+02  0.17887962819E+02  0.22343064163E+02  0.58623316331E+02  0.00000000000E+00 0. -1.
          1    1    1    2  501    0 -0.15025545911E+02 -0.38570190872E+02  0.10098822028E+03  0.10914232583E+03  0.00000000000E+00 0. -1.
<scales pt_clust_5="13000.00000" pt_clust_6="13000.00000" pt_clust_7="13000.00000" pt_clust_8="13000.00000" pt_clust_9="13000.00000"></scales>
<clustering>
<clus scale="   93.465">  7  8 -1 -1</clus>
<clus scale="   96.072">  5  6 -1 -1</clus>
<clus scale="   41.394">  5  9 -1 -1</clus>
<clus scale="  110.048">  1  7  2 -1</clus>
<clus scale="  196.805">  2  5  1 -1</clus>
</clustering>
</event>
<event>
 9    2  0.3726337E-005  0.1876219E+03  0.7546771E-02  0.1164778E+00
          2   -1    0    0  502    0 -0.00000000000E+00  0.00000000000E+00  0.14328579518E+04  0.14328579518E+04  0.00000000000E+00 0. -1.
         21   -1    0    0  501  502  0.00000000000E+00 -0.00000000000E+00 -0.26382227264E+02  0.26382227264E+02  0.00000000000E+00 0. -1.
         23    2    1    2    0    0  0.11831811838E+03  0.81879409627E+02  0.39014498862E+03  0.42573635794E+03  0.91295780096E+02 0.  0.
         24    2    1    2    0    0 -0.59308089950E+02 -0.54917360382E+02  0.49240679085E+03  0.50557822433E+03  0.81311298276E+02 0.  0.
        -13    1    4    4    0    0 -0.66972180122E+02 -0.12357836580E+02  0.35686559916E+03  0.36330571823E+03  0.00000000000E+00 0.  1.
         14    1    4    4    0    0  0.76640901724E+01 -0.42559523802E+02  0.13554119169E+03  0.14227250609E+03  0.00000000000E+00 0. -1.
        -13    1    3    3    0    0  0.11682364663E+03  0.47995718598E+02  0.35543238335E+03  0.37720489465E+03  0.00000000000E+00 0.  1.
         13    1    3    3    0    0  0.14944717441E+01  0.33883691029E+02  0.34712605275E+02  0.48531463285E+02  0.00000000000E+00 0. -1.
          1    1    1    2  501    0 -0.59010028426E+02 -0.26962049245E+02  0.52392394502E+03  0.52792559677E+03  0.00000000000E+00 0. -1.
<scales pt_clust_5="13000.00000" pt_clust_6="13000.00000" pt_clust_7="13000.00000" pt_clust_8="13000.00000" pt_clust_9="13000.00000"></scales>
<clustering>
<clus scale="   81.311">  5  6 -1 -1</clus>
<clus scale="   64.878">  5  9 -1 -1</clus>
<clus scale="   91.296">  7  8 -1 -1</clus>
<clus scale="  170.406">  1  7  2 -1</clus>
<clus scale="  187.622">  2  5  1 -1</clus>
</clustering>
</event>
<event>
 9    2  0.3726337E-005  0.4201517E+03  0.7546771E-02  0.1053157E+00
         -1   -1    0    0    0  501 -0.00000000000E+00  0.00000000000E+00  0.42822349025E+03  0.42822349025E+03  0.00000000000E+00 0.  1.
         21   -1    0    0  501  502  0.00000000000E+00 -0.00000000000E+00 -0.54291314925E+03  0.54291314925E+03  0.00000000000E+00 0.  1.
         23    2    1    2    0    0 -0.16933248287E+03  0.16340185424E+03 -0.38847929092E+03  0.46965062688E+03  0.11950688736E+03 0.  0.
         24    2    1    2    0    0  0.11008194586E+03  0.70640139592E+02  0.25826592958E+02  0.15540516989E+03  0.79847916690E+02 0.  0.
        -11    1    4    4    0    0  0.10316546898E+03  0.23899531141E+02  0.15299384923E+02  0.10699706892E+03  0.00000000000E+00 0.  1.
         12    1    4    4    0    0  0.69164768810E+01  0.46740608452E+02  0.10527208035E+02  0.48408100974E+02  0.00000000000E+00 0. -1.
        -11    1    3    3    0    0 -0.14915051785E+03  0.16975471405E+03 -0.28339408375E+03  0.36245654446E+03  0.00000000000E+00 0.  1.
         11    1    3    3    0    0 -0.20181965022E+02 -0.63528598041E+01 -0.10508520717E+03  0.10719408242E+03  0.00000000000E+00 0. -1.
         -2    1    1    2    0  502  0.59250537014E+02 -0.23404199384E+03  0.24796303897E+03  0.34608084274E+03  0.00000000000E+00 0.  1.
<scales pt_clust_5="13000.00000" pt_clust_6="13000.00000" pt_clust_7="13000.00000" pt_clust_8="13000.00000" pt_clust_9="13000.00000"></scales>
<clustering>
<clus scale="   79.848">  5  6 -1 -1</clus>
<clus scale="  119.507">  7  8 -1 -1</clus>
<clus scale="  241.426">  5  9 -1 -1</clus>
<clus scale="  263.924">  1  7  2 -1</clus>
<clus scale="  420.152">  2  5  1 -1</clus>
</clustering>
</event>
<event>
 9    2  0.3726337E-005  0.2240438E+03  0.7546771E-02  0.1166768E+00
          2   -1    0    0  502    0 -0.00000000000E+00  0.00000000000E+00  0.48642343200E+03  0.48642343200E+03  0.00000000000E+00 0. -1.
         21   -1    0    0  501  502  0.00000000000E+00 -0.00000000000E+00 -0.90838673140E+02  0.90838673140E+02  0.00000000000E+00 0. -1.
         23    2    1    2    0    0 -0.26135048797E+02  0.16023313105E+01  0.33036727681E+03  0.34391911085E+03  0.91935896052E+02 0.  0.
         24    2    1    2    0    0  0.29699077350E+02  0.47264065750E+02 -0.35777080536E+02  0.12109091754E+03  0.10132661897E+03 0.  0.
        -13    1    4    4    0    0  0.21141971788E+02 -0.90439614630E+01  0.27572535892E+02  0.35902937840E+02  0.00000000000E+00 0.  1.
         14    1    4    4    0    0  0.85571055616E+01  0.56308027213E+02 -0.63349616428E+02  0.85187979702E+02  0.00000000000E+00 0. -1.
        -11    1    3    3    0    0 -0.54070887627E+02 -0.60983099702E+01  0.28455875524E+03  0.28971457584E+03  0.00000000000E+00 0. -1.
         11    1    3    3    0    0  0.27935838829E+02  0.77006412807E+01  0.45808521573E+02  0.54204535013E+02  0.00000000000E+00 0.  1.
          1    1    1    2  501    0 -0.35640285526E+01 -0.48866397061E+02  0.10099456259E+03  0.11225207674E+03  0.00000000000E+00 0. -1.
<scales pt_clust_5="13000.00000" pt_clust_6="13000.00000" pt_clust_7="13000.00000" pt_clust_8="13000.00000" pt_clust_9="13000.00000"></scales>
<clustering>
<clus scale="   91.936">  7  8 -1 -1</clus>
<clus scale="   95.592">  1  7  2 -1</clus>
<clus scale="  101.327">  5  6 -1 -1</clus>
<clus scale="   52.646">  5  9 -1 -1</clus>
<clus scale="  224.044">  2  5  1 -1</clus>
</clustering>
</event>
<event>
 9    2  0.3726337E-005  0.1729954E+03  0.7546771E-02  0.1197387E+00
         21   -1    0    0  501  502  0.00000000000E+00  0.00000000000E+00  0.37065204301E+03  0.37065204301E+03  0.00000000000E+00 0.  1.
         -1   -1    0    0    0  501 -0.00000000000E+00 -0.00000000000E+00 -0.56292752394E+02  0.56292752394E+02  0.00000000000E+00 0.  1.
         23    2    1    2    0    0 -0.30088656551E+02  0.44070442381E+02  0.63910411499E+02  0.12255682872E+03  0.89933889185E+02 0.  0.
         24    2    1    2    0    0  0.75997767270E+02 -0.56278982712E+02  0.20031035207E+03  0.23531867685E+03  0.79420765553E+02 0.  0.
        -11    1    4    4    0    0  0.60677590190E+02 -0.62751193869E+02  0.96246003573E+02  0.12993373498E+03  0.00000000000E+00 0.  1.
         12    1    4    4    0    0  0.15320177080E+02  0.64722111576E+01  0.10406434850E+03  0.10538494186E+03  0.00000000000E+00 0. -1.
        -11    1    3    3    0    0 -0.53281069396E+02  0.38039462926E+02  0.71953930314E+02  0.97279191934E+02  0.00000000000E+00 0.  1.
         11    1    3    3    0    0  0.23192412844E+02  0.60309794550E+01 -0.80435188149E+01  0.25277636789E+02  0.00000000000E+00 0. -1.
         -2    1    1    2    0  502 -0.45909110719E+02  0.12208540331E+02  0.50138527046E+02  0.69069289835E+02  0.00000000000E+00 0.  1.
<scales pt_clust_5="13000.00000" pt_clust_6="13000.00000" pt_clust_7="13000.00000" pt_clust_8="13000.00000" pt_clust_9="13000.00000"></scales>
<clustering>
<clus scale="   79.421">  5  6 -1 -1</clus>
<clus scale="   47.505">  5  9 -1 -1</clus>
<clus scale="   89.934">  7  8 -1 -1</clus>
<clus scale="  104.574">  2  7  1 -1</clus>
<clus scale="  172.995">  1  5  2 -1</clus>
</clustering>
</event>
<event>
 9    2  0.3726337E-005  0.5034065E+03  0.7546771E-02  0.1067526E+00
          2   -1    0    0  502    0 -0.00000000000E+00  0.00000000000E+00  0.44550836156E+03  0.44550836156E+03  0.00000000000E+00 0. -1.
         21   -1    0    0  501  502  0.00000000000E+00 -0.00000000000E+00 -0.20646404361E+03  0.20646404361E+03  0.00000000000E+00 0. -1.
         23    2    1    2    0    0  0.32393597630E+02 -0.40978608536E+02  0.50557872079E+02  0.11443610380E+03  0.88379476679E+02 0.  0.
         24    2    1    2    0    0  0.15044160972E+03  0.35578793719E+02 -0.95096206424E+02  0.20007964974E+03  0.84202430299E+02 0.  0.
        -13    1    4    4    0    0  0.33047094624E+02  0.42106123718E+02 -0.88259649440E+01  0.54248813580E+02  0.00000000000E+00 0.  1.
         14    1    4    4    0    0  0.11739451509E+03 -0.65273299990E+01 -0.86270241480E+02  0.14583083616E+03  0.00000000000E+00 0. -1.
        -13    1    3    3    0    0  0.54851922534E+02 -0.36527332656E+02  0.60513622175E+02  0.89469983265E+02  0.00000000000E+00 0.  1.
         13    1    3    3    0    0 -0.22458324903E+02 -0.44512758796E+01 -0.99557500961E+01  0.24966120532E+02  0.00000000000E+00 0. -1.
          1    1    1    2  501    0 -0.18283520735E+03  0.53998148163E+01  0.28358265229E+03  0.33745665163E+03  0.00000000000E+00 0. -1.
<scales pt_clust_5="13000.00000" pt_clust_6="13000.00000" pt_clust_7="13000.00000" pt_clust_8="13000.00000" pt_clust_9="13000.00000"></scales>
<clustering>
<clus scale="   84.202">  5  6 -1 -1</clus>
<clus scale="   88.379">  7  8 -1 -1</clus>
<clus scale="  102.662">  1  7  2 -1</clus>
<clus scale="  157.935">  5  9 -1 -1</clus>
<clus scale="  503.407">  2  5  1 -1</clus>
</clustering>
</event>
<event>
 9    2  0.3726337E-005  0.3837143E+03  0.7546771E-02  0.1094875E+00
         21   -1    0    0  501  502  0.00000000000E+00  0.00000000000E+00  0.59949461587E+03  0.59949461587E+03  0.00000000000E+00 0.  1.
          2   -1    0    0  502    0 -0.00000000000E+00 -0.00000000000E+00 -0.10920875422E+03  0.10920875422E+03  0.00000000000E+00 0. -1.
         23    2    1    2    0    0  0.61534411967E+02 -0.58869001788E+01  0.42463831504E+02  0.11897356119E+03  0.92360120328E+02 0.  0.
         24    2    1    2    0    0  0.92391319584E+02 -0.72014715332E+02  0.37755744337E+03  0.40345338879E+03  0.80639560581E+02 0.  0.
        -11    1    4    4    0    0  0.65548575456E+02 -0.27998652415E+02  0.31207437331E+03  0.32011084761E+03  0.00000000000E+00 0.  1.
         12    1    4    4    0    0  0.26842744128E+02 -0.44016062917E+02  0.65483070052E+02  0.83342541181E+02  0.00000000000E+00 0. -1.
        -11    1    3    3    0    0 -0.41780540882E+01  0.27074630594E+02  0.35909301779E+02  0.45166023868E+02  0.00000000000E+00 0. -1.
         11    1    3    3    0    0  0.65712466055E+02 -0.32961530773E+02  0.65545297255E+01  0.73807537325E+02  0.00000000000E+00 0.  1.
          1    1    1    2  501    0 -0.15392573155E+03  0.77901615511E+02  0.70264586774E+02  0.18627642011E+03  0.00000000000E+00 0. -1.
<scales pt_clust_5="13000.00000" pt_clust_6="13000.00000" pt_clust_7="13000.00000" pt_clust_8="13000.00000" pt_clust_9="13000.00000"></scales>
<clustering>
<clus scale="   80.640">  5  6 -1 -1</clus>
<clus scale="   92.360">  7  8 -1 -1</clus>
<clus scale="  111.137">  2  7  1 -1</clus>
<clus scale="  126.804">  5  9 -1 -1</clus>
<clus scale="  383.714">  1  5  2 -1</clus>
</clustering>
</event>
<event>
 9    2  0.3726337E-005  0.1232540E+03  0.7546771E-02  0.1249762E+00
         -1   -1    0    0    0  501 -0.00000000000E+00  0.00000000000E+00  0.59447988149E+02  0.59447988149E+02  0.00000000000E+00 0.  1.
         21   -1    0    0  501  502  0.00000000000E+00 -0.00000000000E+00 -0.20489737254E+03  0.20489737254E+03  0.00000000000E+00 0. -1.
         23    2    1    2    0    0  0.35023710985E+02  0.98892498086E+01 -0.73853743309E+02  0.12180591660E+03  0.89765518577E+02 0.  0.
         24    2    1    2    0    0 -0.41988109763E+02 -0.31985463990E+02 -0.68665042506E+02  0.11918705792E+03  0.81881594058E+02 0.  0.
        -13    1    4    4    0    0 -0.50202533247E+02 -0.52548743196E+02 -0.39969042764E+02  0.82940877349E+02  0.00000000000E+00 0.  1.
         14    1    4    4    0    0  0.82144234847E+01  0.20563279206E+02 -0.28695999742E+02  0.36246180572E+02  0.00000000000E+00 0. -1.
        -11    1    3    3    0    0  0.32498163796E+02  0.45775211333E+02 -0.25812921834E+02  0.61788409563E+02  0.00000000000E+00 0.  1.
         11    1    3    3    0    0  0.25255471891E+01 -0.35885961525E+02 -0.48040821474E+02  0.60017507038E+02  0.00000000000E+00 0. -1.
         -2    1    1    2    0  502  0.69643987775E+01  0.22096214182E+02 -0.29305985725E+01  0.23352386163E+02  0.00000000000E+00 0.  1.
<scales pt_clust_5="13000.00000" pt_clust_6="13000.00000" pt_clust_7="13000.00000" pt_clust_8="13000.00000" pt_clust_9="13000.00000"></scales>
<clustering>
<clus scale="   81.882">  5  6 -1 -1</clus>
<clus scale="   23.168">  5  9 -1 -1</clus>
<clus scale="   89.766">  7  8 -1 -1</clus>
<clus scale="   96.862">  1  7  2 -1</clus>
<clus scale="  123.254">  2  5  1 -1</clus>
</clustering>
</event>
<event>
 9    2  0.3726337E-005  0.2213507E+03  0.7546771E-02  0.1159871E+00
         -1   -1    0    0    0  501 -0.00000000000E+00  0.00000000000E+00  0.18204304458E+03  0.18204304458E+03  0.00000000000E+00 0.  1.
         21   -1    0    0  501  502  0.00000000000E+00 -0.00000000000E+00 -0.20085359663E+03  0.20085359663E+03  0.00000000000E+00 0.  1.
         23    2    1    2    0    0  0.38012073833E+01 -0.69877608273E+02  0.79333504124E+02  0.14076366654E+03  0.92861593920E+02 0.  0.
         24    2    1    2    0    0 -0.60135877860E+01  0.24393812657E+02 -0.15074458460E+03  0.17255937421E+03  0.80134802100E+02 0.  0.
        -11    1    4    4    0    0 -0.62419606293E+01  0.28426259457E+02 -0.15991351339E+03  0.16254029059E+03  0.00000000000E+00 0.  1.
         12    1    4    4    0    0  0.22837284338E+00 -0.40324468002E+01  0.91689287939E+01  0.10019083620E+02  0.00000000000E+00 0. -1.
        -11    1    3    3    0    0 -0.28700748899E+02 -0.14857263454E+02 -0.72795690006E+01  0.33127984991E+02  0.00000000000E+00 0.  1.
         11    1    3    3    0    0  0.32501956283E+02 -0.55020344819E+02  0.86613073125E+02  0.10763568155E+03  0.00000000000E+00 0. -1.
         -2    1    1    2    0  502  0.22123804027E+01  0.45483795616E+02  0.52600528421E+02  0.69573600460E+02  0.00000000000E+00 0.  1.
<scales pt_clust_5="13000.00000" pt_clust_6="13000.00000" pt_clust_7="13000.00000" pt_clust_8="13000.00000" pt_clust_9="13000.00000"></scales>
<clustering>
<clus scale="   80.135">  5  6 -1 -1</clus>
<clus scale="   45.538">  5  9 -1 -1</clus>
<clus scale="   92.862">  7  8 -1 -1</clus>
<clus scale="  116.278">  1  7  2 -1</clus>
<clus scale="  221.351">  2  5  1 -1</clus>
</clustering>
</event>
<event>
 9    2  0.3726337E-005  0.4178636E+03  0.7546771E-02  0.1062037E+00
          2   -1    0    0  502    0 -0.00000000000E+00  0.00000000000E+00  0.96711431910E+03  0.96711431910E+03  0.00000000000E+00 0. -1.
         21   -1    0    0  501  502  0.00000000000E+00 -0.00000000000E+00 -0.10341793083E+03  0.10341793083E+03  0.00000000000E+00 0. -1.
         23    2    1    2    0    0  0.18173996003E+03  0.48226888612E+02  0.22322147231E+03  0.30579821753E+03  0.91265975514E+02 0.  0.
         24    2    1    2    0    0  0.41956358246E+02  0.10765574830E+03  0.16028590554E+03  0.21253757730E+03  0.78297855083E+02 0.  0.
        -11    1    4    4    0    0  0.37410737862E+02  0.15551747018E+02  0.21383768722E+02  0.45811414598E+02  0.00000000000E+00 0.  1.
         12    1    4    4    0    0  0.45456203837E+01  0.92104001282E+02  0.13890213682E+03  0.16672616271E+03  0.00000000000E+00 0. -1.
        -13    1    3    3    0    0  0.15634041430E+03  0.58356584254E+02  0.22290666904E+03  0.27845143054E+03  0.00000000000E+00 0. -1.
         13    1    3    3    0    0  0.25399545737E+02 -0.10129695643E+02  0.31480326833E+00  0.27346786987E+02  0.00000000000E+00 0.  1.
          1    1    1    2  501    0 -0.22369631828E+03 -0.15588263691E+03  0.48018901042E+03  0.55219645510E+03  0.00000000000E+00 0. -1.
<scales pt_clust_5="13000.00000" pt_clust_6="13000.00000" pt_clust_7="13000.00000" pt_clust_8="13000.00000" pt_clust_9="13000.00000"></scales>
<clustering>
<clus scale="   78.298">  5  6 -1 -1</clus>
<clus scale="   91.266">  7  8 -1 -1</clus>
<clus scale="  209.009">  1  7  2 -1</clus>
<clus scale="  150.466">  5  9 -1 -1</clus>
<clus scale="  417.864">  2  5  1 -1</clus>
</clustering>
</event>
<event>
 9    2  0.3726337E-005  0.6265625E+03  0.7546771E-02  0.1049028E+00
         21   -1    0    0  501  502  0.00000000000E+00  0.00000000000E+00  0.55708253849E+02  0.55708253849E+02  0.00000000000E+00 0.  1.
          2   -1    0    0  502    0 -0.00000000000E+00 -0.00000000000E+00 -0.23097792462E+04  0.23097792462E+04  0.00000000000E+00 0. -1.
         23    2    1    2    0    0 -0.15236350921E+02  0.10014583242E+02 -0.33307731397E+03  0.34489419227E+03  0.87630294491E+02 0.  0.
         24    2    1    2    0    0  0.19702720517E+03  0.19284667282E+03 -0.52690497560E+03  0.60014129693E+03  0.80815618376E+02 0.  0.
        -11    1    4    4    0    0  0.14530520218E+03  0.92891665295E+02 -0.35497574441E+03  0.39465205230E+03  0.00000000000E+00 0.  1.
         12    1    4    4    0    0  0.51722002993E+02  0.99955007524E+02 -0.17192923118E+03  0.20548924463E+03  0.00000000000E+00 0. -1.
        -13    1    3    3    0    0 -0.41764537155E+02 -0.22210589997E+02 -0.19434128726E+03  0.20001530643E+03  0.00000000000E+00 0. -1.
         13    1    3    3    0    0  0.26528186234E+02  0.32225173239E+02 -0.13873602672E+03  0.14487888585E+03  0.00000000000E+00 0.  1.
          1    1    1    2  501    0 -0.18179085425E+03 -0.20286125606E+03 -0.13940887028E+04  0.14204520108E+04  0.00000000000E+00 0. -1.
<scales pt_clust_5="13000.00000" pt_clust_6="13000.00000" pt_clust_7="13000.00000" pt_clust_8="13000.00000" pt_clust_9="13000.00000"></scales>
<clustering>
<clus scale="   80.816">  5  6 -1 -1</clus>
<clus scale="   87.630">  7  8 -1 -1</clus>
<clus scale="   89.507">  2  7  1 -1</clus>
<clus scale="  274.635">  5  9 -1 -1</clus>
<clus scale="  626.563">  1  5  2 -1</clus>
</clustering>
</event>
<event>
 9    2  0.3726337E-005  0.2849144E+03  0.7546771E-02  0.1116538E+00
         -1   -1    0    0    0  501 -0.00000000000E+00  0.00000000000E+00  0.26135695924E+03  0.26135695924E+03  0.00000000000E+00 0.  1.
         21   -1    0    0  501  502  0.00000000000E+00 -0.00000000000E+00 -0.18578993381E+03  0.18578993381E+03  0.00000000000E+00 0.  1.
         23    2    1    2    0    0  0.10712251423E+03 -0.76262163006E+02  0.21237514520E+02  0.15709880911E+03  0.83293776715E+02 0.  0.
         24    2    1    2    0    0 -0.29441350144E+02  0.12857680384E+03  0.10216058490E+03  0.18488632027E+03  0.79670438248E+02 0.  0.
        -13    1    4    4    0    0 -0.36523821838E+02  0.13246507369E+03  0.10812103010E+03  0.17484605360E+03  0.00000000000E+00 0.  1.
         14    1    4    4    0    0  0.70824716939E+01 -0.38882698510E+01 -0.59604452012E+01  0.10040266666E+02  0.00000000000E+00 0. -1.
        -11    1    3    3    0    0  0.39813088907E+02  0.27369190452E+01 -0.20943795832E+02  0.45069006623E+02  0.00000000000E+00 0. -1.
         11    1    3    3    0    0  0.67309425326E+02 -0.78999082051E+02  0.42181310352E+02  0.11202980249E+03  0.00000000000E+00 0.  1.
         -2    1    1    2    0  502 -0.77681164089E+02 -0.52314640835E+02 -0.47831073982E+02  0.10516176367E+03  0.00000000000E+00 0.  1.
<scales pt_clust_5="13000.00000" pt_clust_6="13000.00000" pt_clust_7="13000.00000" pt_clust_8="13000.00000" pt_clust_9="13000.00000"></scales>
<clustering>
<clus scale="   79.670">  5  6 -1 -1</clus>
<clus scale="   83.294">  7  8 -1 -1</clus>
<clus scale="   93.655">  5  9 -1 -1</clus>
<clus scale="  155.657">  1  7  2 -1</clus>
<clus scale="  284.914">  2  5  1 -1</clus>
</clustering>
</event>
<event>
 9    2  0.3726337E-005  0.2202008E+03  0.7546771E-02  0.1143577E+00
          2   -1    0    0  502    0 -0.00000000000E+00  0.00000000000E+00  0.10097525506E+03  0.10097525506E+03  0.00000000000E+00 0. -1.
         21   -1    0    0  501  502  0.00000000000E+00 -0.00000000000E+00 -0.61467305005E+03  0.61467305005E+03  0.00000000000E+00 0.  1.
         23    2    1    2    0    0  0.13685703392E+03 -0.56365248477E+02 -0.19550873728E+02  0.17465885605E+03  0.90645410056E+02 0.  0.
         24    2    1    2    0    0 -0.24733581921E+02 -0.12562135538E+02 -0.24042666791E+03  0.25516324361E+03  0.80831558970E+02 0.  0.
        -11    1    4    4    0    0 -0.27145399308E+02 -0.42770463152E+02 -0.10766955116E+03  0.11899124955E+03  0.00000000000E+00 0.  1.
         12    1    4    4    0    0  0.24118173873E+01  0.30208327614E+02 -0.13275711675E+03  0.13617199407E+03  0.00000000000E+00 0. -1.
        -13    1    3    3    0    0 -0.62169802995E+01 -0.26281899490E+02 -0.71131188257E+01  0.27928221288E+02  0.00000000000E+00 0.  1.
         13    1    3    3    0    0  0.14307401422E+03 -0.30083348987E+02 -0.12437754902E+02  0.14673063476E+03  0.00000000000E+00 0. -1.
          1    1    1    2  501    0 -0.11212345200E+03  0.68927384015E+02 -0.25372025336E+03  0.28582620545E+03  0.00000000000E+00 0. -1.
<scales pt_clust_5="13000.00000" pt_clust_6="13000.00000" pt_clust_7="13000.00000" pt_clust_8="13000.00000" pt_clust_9="13000.00000"></scales>
<clustering>
<clus scale="   80.832">  5  6 -1 -1</clus>
<clus scale="   90.645">  7  8 -1 -1</clus>
<clus scale="  131.616">  5  9 -1 -1</clus>
<clus scale="  173.561">  1  7  2 -1</clus>
<clus scale="  220.201">  2  5  1 -1</clus>
</clustering>
</event>
<event>
 9    2  0.3726337E-005  0.8451710E+03  0.7546771E-02  0.9998199E-01
         21   -1    0    0  501  502  0.00000000000E+00  0.00000000000E+00  0.21815138610E+03  0.21815138610E+03  0.00000000000E+00 0. -1.
          2   -1    0    0  502    0 -0.00000000000E+00 -0.00000000000E+00 -0.13897965580E+04  0.13897965580E+04  0.00000000000E+00 0. -1.
         23    2    1    2    0    0 -0.12840217106E+03 -0.26279551253E+02 -0.51045378809E+03  0.53487380031E+03  0.91373848190E+02 0.  0.
         24    2    1    2    0    0 -0.11385655330E+02  0.17800675075E+03  0.14342482221E+03  0.24243040640E+03  0.79911112262E+02 0.  0.
        -13    1    4    4    0    0 -0.29837764439E+02  0.66266111621E+02  0.20984436795E+02  0.75642820701E+02  0.00000000000E+00 0.  1.
         14    1    4    4    0    0  0.18452109109E+02  0.11174063913E+03  0.12244038542E+03  0.16678758570E+03  0.00000000000E+00 0. -1.
        -13    1    3    3    0    0 -0.55311530296E+02  0.31492073046E+02 -0.15860961178E+03  0.17090384722E+03  0.00000000000E+00 0.  1.
         13    1    3    3    0    0 -0.73090640768E+02 -0.57771624298E+02 -0.35184417631E+03  0.36396995308E+03  0.00000000000E+00 0. -1.
          1    1    1    2  501    0  0.13978782639E+03 -0.15172719949E+03 -0.80461620603E+03  0.83064373740E+03  0.00000000000E+00 0. -1.
<scales pt_clust_5="13000.00000" pt_clust_6="13000.00000" pt_clust_7="13000.00000" pt_clust_8="13000.00000" pt_clust_9="13000.00000"></scales>
<clustering>
<clus scale="   79.911">  5  6 -1 -1</clus>
<clus scale="   91.374">  7  8 -1 -1</clus>
<clus scale="  159.771">  2  7  1 -1</clus>
<clus scale="  177.496">  5  9 -1 -1</clus>
<clus scale="  845.171">  1  5  2 -1</clus>
</clustering>
</event>
<event>
 9    2  0.3726337E-005  0.1368748E+03  0.7546771E-02  0.1233634E+00
         21   -1    0    0  501  502  0.00000000000E+00  0.00000000000E+00  0.12603357065E+04  0.12603357065E+04  0.00000000000E+00 0. -1.
          2   -1    0    0  502    0 -0.00000000000E+00 -0.00000000000E+00 -0.18860232121E+02  0.18860232121E+02  0.00000000000E+00 0. -1.
         23    2    1    2    0    0 -0.99786922860E+01 -0.33121140406E+02  0.15020256915E+03  0.17937265214E+03  0.91745039729E+02 0.  0.
         24    2    1    2    0    0  0.22803688891E+02 -0.76796558042E+01  0.84857979762E+03  0.85339047618E+03  0.87227556272E+02 0.  0.
        -13    1    4    4    0    0  0.18332117723E+02  0.24831765135E+02  0.11479224690E+03  0.11886943698E+03  0.00000000000E+00 0.  1.
         14    1    4    4    0    0  0.44715711677E+01 -0.32511420939E+02  0.73378755072E+03  0.73452103920E+03  0.00000000000E+00 0. -1.
        -11    1    3    3    0    0  0.14382519683E+02  0.23337808235E+02  0.15969883661E+02  0.31726130394E+02  0.00000000000E+00 0.  1.
         11    1    3    3    0    0 -0.24361211969E+02 -0.56458948640E+02  0.13423268548E+03  0.14764652174E+03  0.00000000000E+00 0. -1.
          1    1    1    2  501    0 -0.12824996605E+02  0.40800796210E+02  0.24269310763E+03  0.24643281032E+03  0.00000000000E+00 0. -1.
<scales pt_clust_5="13000.00000" pt_clust_6="13000.00000" pt_clust_7="13000.00000" pt_clust_8="13000.00000" pt_clust_9="13000.00000"></scales>
<clustering>
<clus scale="   87.228">  5  6 -1 -1</clus>
<clus scale="   42.769">  5  9 -1 -1</clus>
<clus scale="   91.745">  7  8 -1 -1</clus>
<clus scale="   98.050">  2  7  1 -1</clus>
<clus scale="  136.875">  1  5  2 -1</clus>
</clustering>
</event>
<event>
 9    2  0.3726337E-005  0.1504071E+03  0.7546771E-02  0.1216636E+00
         21   -1    0    0  501  502  0.00000000000E+00  0.00000000000E+00  0.71984731732E+03  0.71984731732E+03  0.00000000000E+00 0.  1.
         -1   -1    0    0    0  501 -0.00000000000E+00 -0.00000000000E+00 -0.31516975194E+02  0.31516975194E+02  0.00000000000E+00 0.  1.
         23    2    1    2    0    0  0.74105935797E+01 -0.50088837022E+02  0.10396711392E+03  0.14795508414E+03  0.92291590379E+02 0.  0.
         24    2    1    2    0    0  0.31222515568E+02  0.68269872082E+02  0.43264547189E+03  0.44579783588E+03  0.76928442175E+02 0.  0.
        -13    1    4    4    0    0  0.49281604683E+00  0.68544922169E+02  0.36659308454E+03  0.37294656300E+03  0.00000000000E+00 0.  1.
         14    1    4    4    0    0  0.30729699521E+02 -0.27505008712E+00  0.66052387351E+02  0.72851272878E+02  0.00000000000E+00 0. -1.
        -11    1    3    3    0    0  0.46298729528E+02 -0.28869870966E+02  0.31450748613E+02  0.62977705530E+02  0.00000000000E+00 0.  1.
         11    1    3    3    0    0 -0.38888135948E+02 -0.21218966056E+02  0.72516365312E+02  0.84977378614E+02  0.00000000000E+00 0. -1.
         -2    1    1    2    0  502 -0.38633109147E+02 -0.18181035060E+02  0.15171775631E+03  0.15761137249E+03  0.00000000000E+00 0.  1.
<scales pt_clust_5="13000.00000" pt_clust_6="13000.00000" pt_clust_7="13000.00000" pt_clust_8="13000.00000" pt_clust_9="13000.00000"></scales>
<clustering>
<clus scale="   76.928">  5  6 -1 -1</clus>
<clus scale="   42.697">  5  9 -1 -1</clus>
<clus scale="   92.292">  7  8 -1 -1</clus>
<clus scale="  105.269">  2  7  1 -1</clus>
<clus scale="  150.407">  1  5  2 -1</clus>
</clustering>
</event>
<event>
 9    2  0.3726337E-005  0.1524042E+03  0.7546771E-02  0.1212166E+00
         21   -1    0    0  501  502  0.00000000000E+00  0.00000000000E+00  0.43830258850E+02  0.43830258850E+02  0.00000000000E+00 0. -1.
          4   -1    0    0  502    0 -0.00000000000E+00 -0.00000000000E+00 -0.39648130777E+03  0.39648130777E+03  0.00000000000E+00 0. -1.
         23    2    1    2    0    0  0.32943038427E+02  0.50446018785E+02 -0.14713353710E+03  0.18445128232E+03  0.93509107663E+02 0.  0.
         24    2    1    2    0    0 -0.18799780518E+01  0.22126693794E+01 -0.60079563406E+02  0.98094483202E+02  0.77488989361E+02 0.  0.
        -11    1    4    4    0    0 -0.17061125612E+02 -0.31555024103E+02 -0.46344414029E+02  0.58605513947E+02  0.00000000000E+00 0.  1.
         12    1    4    4    0    0  0.15181147560E+02  0.33767693483E+02 -0.13735149377E+02  0.39488969255E+02  0.00000000000E+00 0. -1.
        -13    1    3    3    0    0  0.27782020249E+02  0.24113470105E+02 -0.15268102809E+03  0.15705029904E+03  0.00000000000E+00 0. -1.
         13    1    3    3    0    0  0.51610181779E+01  0.26332548680E+02  0.55474909830E+01  0.27400983282E+02  0.00000000000E+00 0.  1.
          3    1    1    2  501    0 -0.31063060375E+02 -0.52658688165E+02 -0.14543794841E+03  0.15776580110E+03  0.00000000000E+00 0. -1.
<scales pt_clust_5="13000.00000" pt_clust_6="13000.00000" pt_clust_7="13000.00000" pt_clust_8="13000.00000" pt_clust_9="13000.00000"></scales>
<clustering>
<clus scale="   77.489">  5  6 -1 -1</clus>
<clus scale="   61.138">  5  9 -1 -1</clus>
<clus scale="   93.509">  7  8 -1 -1</clus>
<clus scale="  111.239">  2  7  1 -1</clus>
<clus scale="  152.404">  1  5  2 -1</clus>
</clustering>
</event>
<event>
 9    2  0.3726337E-005  0.2249344E+03  0.7546771E-02  0.1161087E+00
         21   -1    0    0  501  502  0.00000000000E+00  0.00000000000E+00  0.43693090689E+02  0.43693090689E+02  0.00000000000E+00 0. -1.
          2   -1    0    0  502    0 -0.00000000000E+00 -0.00000000000E+00 -0.65251286745E+03  0.65251286745E+03  0.00000000000E+00 0. -1.
         23    2    1    2    0    0 -0.50738897136E+02  0.19162962609E+02 -0.25655108053E+03  0.27824818531E+03  0.93069548660E+02 0.  0.
         24    2    1    2    0    0 -0.56455337564E+02 -0.32255706077E+02 -0.24380404879E+03  0.26490025544E+03  0.80647972153E+02 0.  0.
        -11    1    4    4    0    0 -0.23059601773E+02 -0.49508002792E+02 -0.19929277850E+03  0.20664074898E+03  0.00000000000E+00 0.  1.
         12    1    4    4    0    0 -0.33395735791E+02  0.17252296715E+02 -0.44511270291E+02  0.58259506468E+02  0.00000000000E+00 0. -1.
        -13    1    3    3    0    0  0.11123429047E+02  0.40204811206E+02 -0.85288842900E+02  0.94943900495E+02  0.00000000000E+00 0.  1.
         13    1    3    3    0    0 -0.61862326183E+02 -0.21041848597E+02 -0.17126223763E+03  0.18330428481E+03  0.00000000000E+00 0. -1.
          1    1    1    2  501    0  0.10719423470E+03  0.13092743468E+02 -0.10846464744E+03  0.15305751738E+03  0.00000000000E+00 0. -1.
<scales pt_clust_5="13000.00000" pt_clust_6="13000.00000" pt_clust_7="13000.00000" pt_clust_8="13000.00000" pt_clust_9="13000.00000"></scales>
<clustering>
<clus scale="   80.648">  5  6 -1 -1</clus>
<clus scale="   93.070">  7  8 -1 -1</clus>
<clus scale="  107.720">  2  7  1 -1</clus>
<clus scale="   92.077">  5  9 -1 -1</clus>
<clus scale="  224.934">  1  5  2 -1</clus>
</clustering>
</event>
<event>
 9    2  0.3726337E-005  0.3379326E+03  0.7546771E-02  0.1115890E+00
         21   -1    0    0  501  502  0.00000000000E+00  0.00000000000E+00  0.38254280271E+03  0.38254280271E+03  0.00000000000E+00 0.  1.
         -3   -1    0    0    0  501 -0.00000000000E+00 -0.00000000000E+00 -0.12367118898E+03  0.12367118898E+03  0.00000000000E+00 0.  1.
         23    2    1    2    0    0 -0.55626083816E+01  0.21851922810E+02  0.78842743464E+02  0.12331862946E+03  0.92102426853E+02 0.  0.
         24    2    1    2    0    0 -0.51963278724E+02 -0.13722164555E+03  0.83671080186E+01  0.16821615684E+03  0.81833395280E+02 0.  0.
        -11    1    4    4    0    0 -0.30528699799E+02 -0.14007128185E+03  0.18110858102E+02  0.14449902661E+03  0.00000000000E+00 0.  1.
         12    1    4    4    0    0 -0.21434578925E+02  0.28496362998E+01 -0.97437500832E+01  0.23717130232E+02  0.00000000000E+00 0. -1.
        -13    1    3    3    0    0 -0.50161339922E+01 -0.23669282543E+02  0.73621985557E+02  0.77495763069E+02  0.00000000000E+00 0.  1.
         13    1    3    3    0    0 -0.54647438939E+00  0.45521205353E+02  0.52207579074E+01  0.45822866390E+02  0.00000000000E+00 0. -1.
         -4    1    1    2    0  502  0.57525887106E+02  0.11536972274E+03  0.17166176225E+03  0.21467920540E+03  0.00000000000E+00 0.  1.
<scales pt_clust_5="13000.00000" pt_clust_6="13000.00000" pt_clust_7="13000.00000" pt_clust_8="13000.00000" pt_clust_9="13000.00000"></scales>
<clustering>
<clus scale="   81.833">  5  6 -1 -1</clus>
<clus scale="   92.102">  7  8 -1 -1</clus>
<clus scale="   94.823">  2  7  1 -1</clus>
<clus scale="  132.574">  5  9 -1 -1</clus>
<clus scale="  337.933">  1  5  2 -1</clus>
</clustering>
</event>
<event>
 9    2  0.3726337E-005  0.2050789E+03  0.7546771E-02  0.1179571E+00
          2   -1    0    0  502    0 -0.00000000000E+00  0.00000000000E+00  0.64709130349E+02  0.64709130349E+02  0.00000000000E+00 0. -1.
         21   -1    0    0  501  502  0.00000000000E+00 -0.00000000000E+00 -0.45708344141E+03  0.45708344141E+03  0.00000000000E+00 0.  1.
         23    2    1    2    0    0 -0.97647206338E+00 -0.24717546405E+02 -0.26374866384E+03  0.27971423875E+03  0.89804159628E+02 0.  0.
         24    2    1    2    0    0 -0.37013192469E+02  0.70378135837E+01  0.16176990085E+02  0.91334871008E+02  0.81614069969E+02 0.  0.
        -13    1    4    4    0    0  0.21205047729E+02  0.59612803668E+01  0.24008722782E+02  0.32582352316E+02  0.00000000000E+00 0.  1.
         14    1    4    4    0    0 -0.58218240198E+02  0.10765332169E+01 -0.78317326973E+01  0.58752518692E+02  0.00000000000E+00 0. -1.
        -11    1    3    3    0    0 -0.44036582844E+02 -0.12671479652E+01 -0.11972146505E+03  0.12756980633E+03  0.00000000000E+00 0.  1.
         11    1    3    3    0    0  0.43060110780E+02 -0.23450398440E+02 -0.14402719878E+03  0.15214443242E+03  0.00000000000E+00 0. -1.
          1    1    1    2  501    0  0.37989664533E+02  0.17679732822E+02 -0.14480263731E+03  0.15074346200E+03  0.00000000000E+00 0. -1.
<scales pt_clust_5="13000.00000" pt_clust_6="13000.00000" pt_clust_7="13000.00000" pt_clust_8="13000.00000" pt_clust_9="13000.00000"></scales>
<clustering>
<clus scale="   81.614">  5  6 -1 -1</clus>
<clus scale="   41.902">  5  9 -1 -1</clus>
<clus scale="   89.804">  7  8 -1 -1</clus>
<clus scale="   93.149">  1  7  2 -1</clus>
<clus scale="  205.079">  2  5  1 -1</clus>
</clustering>
</event>
<event>
 9    2  0.3726337E-005  0.1611591E+03  0.7546771E-02  0.1209974E+00
         21   -1    0    0  501  502  0.00000000000E+00  0.00000000000E+00  0.13743143933E+03  0.13743143933E+03  0.00000000000E+00 0. -1.
          2   -1    0    0  502    0 -0.00000000000E+00 -0.00000000000E+00 -0.14473343827E+03  0.14473343827E+03  0.00000000000E+00 0. -1.
         23    2    1    2    0    0 -0.31592982777E+02 -0.53045638817E+01  0.50744223756E+02  0.11087093106E+03  0.93226241754E+02 0.  0.
         24    2    1    2    0    0 -0.53058250341E+01  0.49954048443E+02 -0.43091693625E+02  0.11147140539E+03  0.89696273190E+02 0.  0.
        -13    1    4    4    0    0 -0.33504412232E+02 -0.11199758015E+02 -0.12114076193E+02  0.37346098332E+02  0.00000000000E+00 0.  1.
         14    1    4    4    0    0  0.28198587198E+02  0.61153806457E+02 -0.30977617432E+02  0.74125307055E+02  0.00000000000E+00 0. -1.
        -13    1    3    3    0    0  0.28899633938E+02 -0.19159554066E+02  0.28707481737E+02  0.45015518007E+02  0.00000000000E+00 0.  1.
         13    1    3    3    0    0 -0.60492616715E+02  0.13854990184E+02  0.22036742018E+02  0.65855413056E+02  0.00000000000E+00 0. -1.
          1    1    1    2  501    0  0.36898807811E+02 -0.44649484561E+02 -0.14954529073E+02  0.59822541147E+02  0.00000000000E+00 0. -1.
<scales pt_clust_5="13000.00000" pt_clust_6="13000.00000" pt_clust_7="13000.00000" pt_clust_8="13000.00000" pt_clust_9="13000.00000"></scales>
<clustering>
<clus scale="   89.696">  5  6 -1 -1</clus>
<clus scale="   57.923">  5  9 -1 -1</clus>
<clus scale="   93.226">  7  8 -1 -1</clus>
<clus scale="   98.577">  2  7  1 -1</clus>
<clus scale="  161.159">  1  5  2 -1</clus>
</clustering>
</event>
<event>
 9    2  0.3726337E-005  0.2231089E+03  0.7546771E-02  0.1146693E+00
         -1   -1    0    0    0  501 -0.00000000000E+00  0.00000000000E+00  0.22378219335E+03  0.22378219335E+03  0.00000000000E+00 0.  1.
         21   -1    0    0  501  502  0.00000000000E+00 -0.00000000000E+00 -0.20606352348E+03  0.20606352348E+03  0.00000000000E+00 0.  1.
         23    2    1    2    0    0  0.32343841422E+02  0.11871143806E+03  0.10835781847E+03  0.18902827350E+03  0.94083695471E+02 0.  0.
         24    2    1    2    0    0 -0.15867047182E+02  0.17696088924E+02 -0.54459318818E+02  0.98734797483E+02  0.78853205885E+02 0.  0.
        -11    1    4    4    0    0 -0.12292131763E+02  0.38746438847E+02 -0.63622645378E+02  0.75499828023E+02  0.00000000000E+00 0.  1.
         12    1    4    4    0    0 -0.35749154191E+01 -0.21050349923E+02  0.91633265600E+01  0.23234969459E+02  0.00000000000E+00 0. -1.
        -13    1    3    3    0    0 -0.28757762855E+02  0.73349212295E+02  0.54515093212E+02  0.95807156604E+02  0.00000000000E+00 0. -1.
         13    1    3    3    0    0  0.61101604277E+02  0.45362225767E+02  0.53842725255E+02  0.93221116892E+02  0.00000000000E+00 0.  1.
         -2    1    1    2    0  502 -0.16476794240E+02 -0.13640752699E+03 -0.36179829779E+02  0.14208264584E+03  0.00000000000E+00 0.  1.
<scales pt_clust_5="13000.00000" pt_clust_6="13000.00000" pt_clust_7="13000.00000" pt_clust_8="13000.00000" pt_clust_9="13000.00000"></scales>
<clustering>
<clus scale="   78.853">  5  6 -1 -1</clus>
<clus scale="   94.084">  7  8 -1 -1</clus>
<clus scale="  137.399">  5  9 -1 -1</clus>
<clus scale="  154.888">  1  7  2 -1</clus>
<clus scale="  223.109">  2  5  1 -1</clus>
</clustering>
</event>
<event>
 9    2  0.3726337E-005  0.2388712E+03  0.7546771E-02  0.1153489E+00
         21   -1    0    0  501  502  0.00000000000E+00  0.00000000000E+00  0.24780917565E+02  0.24780917565E+02  0.00000000000E+00 0. -1.
          2   -1    0    0  502    0 -0.00000000000E+00 -0.00000000000E+00 -0.12295164844E+04  0.12295164844E+04  0.00000000000E+00 0. -1.
         23    2    1    2    0    0 -0.20283052373E+02  0.41135007286E+02 -0.30399610795E+03  0.32242240262E+03  0.97154933095E+02 0.  0.
         24    2    1    2    0    0 -0.41081615974E+02 -0.89491646110E+02 -0.76400194956E+03  0.77439124305E+03  0.79286597122E+02 0.  0.
        -13    1    4    4    0    0 -0.46763949866E+02 -0.73504527319E+02 -0.37369545328E+03  0.38371613772E+03  0.00000000000E+00 0.  1.
         14    1    4    4    0    0  0.56823338914E+01 -0.15987118790E+02 -0.39030649628E+03  0.39067510533E+03  0.00000000000E+00 0. -1.
        -11    1    3    3    0    0  0.32007715334E+02  0.41711016485E+02 -0.18740995191E+03  0.19464530000E+03  0.00000000000E+00 0.  1.
         11    1    3    3    0    0 -0.52290767707E+02 -0.57600919881E+00 -0.11658615604E+03  0.12777710262E+03  0.00000000000E+00 0. -1.
          1    1    1    2  501    0  0.61364668347E+02  0.48356638824E+02 -0.13673750929E+03  0.15748375627E+03  0.00000000000E+00 0. -1.
<scales pt_clust_5="13000.00000" pt_clust_6="13000.00000" pt_clust_7="13000.00000" pt_clust_8="13000.00000" pt_clust_9="13000.00000"></scales>
<clustering>
<clus scale="   79.287">  5  6 -1 -1</clus>
<clus scale="   78.128">  5  9 -1 -1</clus>
<clus scale="   97.155">  7  8 -1 -1</clus>
<clus scale="  107.436">  2  7  1 -1</clus>
<clus scale="  238.871">  1  5  2 -1</clus>
</clustering>
</event>
<event>
 9    2  0.3726337E-005  0.1736269E+04  0.7546771E-02  0.9099569E-01
          2   -1    0    0  502    0 -0.00000000000E+00  0.00000000000E+00  0.30007659342E+04  0.30007659342E+04  0.00000000000E+00 0. -1.
         21   -1    0    0  501  502  0.00000000000E+00 -0.00000000000E+00 -0.39249485811E+03  0.39249485811E+03  0.00000000000E+00 0.  1.
         23    2    1    2    0    0  0.17572740574E+03  0.36823066493E+03  0.34703297895E+03  0.54232622303E+03  0.84922906153E+02 0.  0.
         24    2    1    2    0    0 -0.17175370864E+03  0.67078348922E+03  0.93160136203E+03  0.11634808513E+04  0.79729341302E+02 0.  0.
        -11    1    4    4    0    0 -0.11978813469E+03  0.57914799934E+03  0.80162225343E+03  0.99617259526E+03  0.00000000000E+00 0.  1.
         12    1    4    4    0    0 -0.51965573945E+02  0.91635489881E+02  0.12997910859E+03  0.16730825608E+03  0.00000000000E+00 0. -1.
        -13    1    3    3    0    0 -0.64916773478E+01  0.20469828606E+02  0.60360829950E+01  0.22306726696E+02  0.00000000000E+00 0. -1.
         13    1    3    3    0    0  0.18221908309E+03  0.34776083633E+03  0.34099689595E+03  0.52001949634E+03  0.00000000000E+00 0.  1.
          1    1    1    2  501    0 -0.39736971036E+01 -0.10390141542E+04  0.13296367351E+04  0.16874537179E+04  0.00000000000E+00 0. -1.
<scales pt_clust_5="13000.00000" pt_clust_6="13000.00000" pt_clust_7="13000.00000" pt_clust_8="13000.00000" pt_clust_9="13000.00000"></scales>
<clustering>
<clus scale="   79.729">  5  6 -1 -1</clus>
<clus scale="   84.923">  7  8 -1 -1</clus>
<clus scale="  416.757">  1  7  2 -1</clus>
<clus scale="  827.724">  5  9 -1 -1</clus>
<clus scale=" 1736.269">  2  5  1 -1</clus>
</clustering>
</event>
<event>
 9    2  0.3726337E-005  0.1309035E+03  0.7546771E-02  0.1237900E+00
          4   -1    0    0  502    0 -0.00000000000E+00  0.00000000000E+00  0.25734326483E+03  0.25734326483E+03  0.00000000000E+00 0. -1.
         21   -1    0    0  501  502  0.00000000000E+00 -0.00000000000E+00 -0.66049230497E+02  0.66049230497E+02  0.00000000000E+00 0. -1.
         23    2    1    2    0    0 -0.39140660535E+02 -0.85500797379E+01  0.15776985164E+03  0.18826445504E+03  0.94589025662E+02 0.  0.
         24    2    1    2    0    0  0.62527668322E+02  0.83617330212E+01  0.11632461709E+02  0.10309313658E+03  0.80704725757E+02 0.  0.
        -11    1    4    4    0    0 -0.48561136024E+00 -0.29099231817E+02  0.23019233010E+01  0.29194176845E+02  0.00000000000E+00 0.  1.
         12    1    4    4    0    0  0.63013279682E+02  0.37460964839E+02  0.93305384081E+01  0.73898959735E+02  0.00000000000E+00 0. -1.
        -11    1    3    3    0    0 -0.52960570431E+02  0.27671129692E+02  0.12042667625E+03  0.13443622202E+03  0.00000000000E+00 0. -1.
         11    1    3    3    0    0  0.13819909896E+02 -0.36221209430E+02  0.37343175392E+02  0.53828233024E+02  0.00000000000E+00 0.  1.
          3    1    1    2  501    0 -0.23387007787E+02  0.18834671667E+00  0.21891720987E+02  0.32034903706E+02  0.00000000000E+00 0. -1.
<scales pt_clust_5="13000.00000" pt_clust_6="13000.00000" pt_clust_7="13000.00000" pt_clust_8="13000.00000" pt_clust_9="13000.00000"></scales>
<clustering>
<clus scale="   80.705">  5  6 -1 -1</clus>
<clus scale="   23.388">  5  9 -1 -1</clus>
<clus scale="   94.589">  7  8 -1 -1</clus>
<clus scale="  102.724">  1  7  2 -1</clus>
<clus scale="  130.903">  2  5  1 -1</clus>
</clustering>
</event>
<event>
 9    2  0.3726337E-005  0.7488067E+03  0.7546771E-02  0.1022713E+00
         21   -1    0    0  501  502  0.00000000000E+00  0.00000000000E+00  0.72202959713E+02  0.72202959713E+02  0.00000000000E+00 0. -1.
          2   -1    0    0  502    0 -0.00000000000E+00 -0.00000000000E+00 -0.25881020302E+04  0.25881020302E+04  0.00000000000E+00 0. -1.
         23    2    1    2    0    0  0.50611195103E+02  0.45164099335E+02 -0.27048899766E+03  0.29332845201E+03  0.90972490134E+02 0.  0.
         24    2    1    2    0    0  0.26230271191E+03 -0.13606416501E+03 -0.17312287728E+04  0.17582398589E+04  0.83295664597E+02 0.  0.
        -13    1    4    4    0    0  0.38116040450E+02  0.99689594265E+01 -0.23369784224E+03  0.23699555725E+03  0.00000000000E+00 0.  1.
         14    1    4    4    0    0  0.22418667146E+03 -0.14603312444E+03 -0.14975309306E+04  0.15212443016E+04  0.00000000000E+00 0. -1.
        -11    1    3    3    0    0  0.42692428491E+02 -0.18596696630E+02 -0.14584954673E+03  0.15310313797E+03  0.00000000000E+00 0.  1.
         11    1    3    3    0    0  0.79187666121E+01  0.63760795965E+02 -0.12463945093E+03  0.14022531403E+03  0.00000000000E+00 0. -1.
          1    1    1    2  501    0 -0.31291390702E+03  0.90900065678E+02 -0.51418129997E+03  0.60873667902E+03  0.00000000000E+00 0. -1.
<scales pt_clust_5="13000.00000" pt_clust_6="13000.00000" pt_clust_7="13000.00000" pt_clust_8="13000.00000" pt_clust_9="13000.00000"></scales>
<clustering>
<clus scale="   83.296">  5  6 -1 -1</clus>
<clus scale="   90.972">  7  8 -1 -1</clus>
<clus scale="  113.478">  2  7  1 -1</clus>
<clus scale="  317.393">  5  9 -1 -1</clus>
<clus scale="  748.807">  1  5  2 -1</clus>
</clustering>
</event>
<event>
 9    2  0.3837702E-005  0.2745642E+03  0.7546771E-02  0.1133944E+00
          2   -1    0    0  502    0 -0.00000000000E+00  0.00000000000E+00  0.78473122282E+03  0.78473122282E+03  0.00000000000E+00 0. -1.
         21   -1    0    0  501  502  0.00000000000E+00 -0.00000000000E+00 -0.47855680703E+02  0.47855680703E+02  0.00000000000E+00 0. -1.
         23    2    1    2    0    0 -0.59092336579E+02 -0.29259378256E+02  0.21358328546E+03  0.24163827777E+03  0.91778112840E+02 0.  0.
         24    2    1    2    0    0 -0.60488050319E+02  0.94682138540E+01  0.71737962966E+02  0.12340992226E+03  0.79594109553E+02 0.  0.
        -11    1    4    4    0    0 -0.39123744587E+02  0.31131447075E+02  0.77708636381E+02  0.92403823274E+02  0.00000000000E+00 0.  1.
         12    1    4    4    0    0 -0.21364305733E+02 -0.21663233221E+02 -0.59706734151E+01  0.31006098981E+02  0.00000000000E+00 0. -1.
        -13    1    3    3    0    0  0.19439366303E+02  0.93242947059E+01  0.20939609998E+02  0.30054928063E+02  0.00000000000E+00 0.  1.
         13    1    3    3    0    0 -0.78531702881E+02 -0.38583672962E+02  0.19264367546E+03  0.21158334971E+03  0.00000000000E+00 0. -1.
          1    1    1    2  501    0  0.11958038690E+03  0.19791164402E+02  0.45155429369E+03  0.46753870349E+03  0.00000000000E+00 0. -1.
<scales pt_clust_5="13000.00000" pt_clust_6="13000.00000" pt_clust_7="13000.00000" pt_clust_8="13000.00000" pt_clust_9="13000.00000"></scales>
<clustering>
<clus scale="   79.594">  5  6 -1 -1</clus>
<clus scale="   91.778">  7  8 -1 -1</clus>
<clus scale="  113.010">  1  7  2 -1</clus>
<clus scale="   70.971">  5  9 -1 -1</clus>
<clus scale="  274.564">  2  5  1 -1</clus>
</clustering>
</event>
<event>
 9    2  0.3726337E-005  0.4149562E+03  0.7546771E-02  0.1086730E+00
         21   -1    0    0  501  502  0.00000000000E+00  0.00000000000E+00  0.66496425468E+02  0.66496425468E+02  0.00000000000E+00 0. -1.
          2   -1    0    0  502    0 -0.00000000000E+00 -0.00000000000E+00 -0.10621197589E+04  0.10621197589E+04  0.00000000000E+00 0. -1.
         23    2    1    2    0    0 -0.52568343958E+02  0.11418881912E+02 -0.13755277702E+03  0.17547730383E+03  0.94750704707E+02 0.  0.
         24    2    1    2    0    0  0.26004399434E+02 -0.16914681034E+03 -0.19741588083E+03  0.27339750110E+03  0.80537515267E+02 0.  0.
        -13    1    4    4    0    0 -0.28414869106E+02 -0.77447987792E+02 -0.87581941617E+02  0.12031704824E+03  0.00000000000E+00 0.  1.
         14    1    4    4    0    0  0.54419268540E+02 -0.91698822548E+02 -0.10983393921E+03  0.15308045286E+03  0.00000000000E+00 0. -1.
        -13    1    3    3    0    0 -0.75537032247E+02 -0.62807354131E+01 -0.11887859682E+03  0.14098727482E+03  0.00000000000E+00 0.  1.
         13    1    3    3    0    0  0.22968688289E+02  0.17699617325E+02 -0.18674180199E+02  0.34490029012E+02  0.00000000000E+00 0. -1.
          1    1    1    2  501    0  0.26563944525E+02  0.15772792843E+03 -0.66065467561E+03  0.67974137947E+03  0.00000000000E+00 0. -1.
<scales pt_clust_5="13000.00000" pt_clust_6="13000.00000" pt_clust_7="13000.00000" pt_clust_8="13000.00000" pt_clust_9="13000.00000"></scales>
<clustering>
<clus scale="   80.538">  5  6 -1 -1</clus>
<clus scale="   94.751">  7  8 -1 -1</clus>
<clus scale="  108.957">  2  7  1 -1</clus>
<clus scale="  166.636">  5  9 -1 -1</clus>
<clus scale="  414.956">  1  5  2 -1</clus>
</clustering>
</event>
<event>
 9    2  0.3726337E-005  0.2793457E+03  0.7546771E-02  0.1113843E+00
         -1   -1    0    0    0  501 -0.00000000000E+00  0.00000000000E+00  0.43818340760E+03  0.43818340760E+03  0.00000000000E+00 0.  1.
         21   -1    0    0  501  502  0.00000000000E+00 -0.00000000000E+00 -0.13570585509E+03  0.13570585509E+03  0.00000000000E+00 0.  1.
         23    2    1    2    0    0  0.14706666415E+03  0.25388655656E+02  0.22080491408E+03  0.28284895538E+03  0.94739294590E+02 0.  0.
         24    2    1    2    0    0  0.19880037943E+02 -0.67098563702E+02  0.40408938878E+02  0.11408378534E+03  0.80528222235E+02 0.  0.
        -11    1    4    4    0    0  0.48983959942E+02 -0.36515218197E+02  0.96618728454E+01  0.61855810386E+02  0.00000000000E+00 0.  1.
         12    1    4    4    0    0 -0.29103921999E+02 -0.30583345505E+02  0.30747066033E+02  0.52227974953E+02  0.00000000000E+00 0. -1.
        -13    1    3    3    0    0  0.99930903326E+02 -0.25180505964E+02  0.99622879155E+02  0.14333513656E+03  0.00000000000E+00 0. -1.
         13    1    3    3    0    0  0.47135760822E+02  0.50569161620E+02  0.12118203492E+03  0.13951381883E+03  0.00000000000E+00 0.  1.
         -2    1    1    2    0  502 -0.16694670209E+03  0.41709908046E+02  0.41263699551E+02  0.17695652197E+03  0.00000000000E+00 0.  1.
<scales pt_clust_5="13000.00000" pt_clust_6="13000.00000" pt_clust_7="13000.00000" pt_clust_8="13000.00000" pt_clust_9="13000.00000"></scales>
<clustering>
<clus scale="   80.528">  5  6 -1 -1</clus>
<clus scale="   94.739">  7  8 -1 -1</clus>
<clus scale="  172.078">  5  9 -1 -1</clus>
<clus scale="  176.773">  1  7  2 -1</clus>
<clus scale="  279.346">  2  5  1 -1</clus>
</clustering>
</event>
<event>
 9    2  0.3726337E-005  0.2779073E+03  0.7546771E-02  0.1135703E+00
         21   -1    0    0  501  502  0.00000000000E+00  0.00000000000E+00  0.64019499412E+02  0.64019499412E+02  0.00000000000E+00 0.  1.
         -1   -1    0    0    0  501 -0.00000000000E+00 -0.00000000000E+00 -0.57427211098E+03  0.57427211098E+03  0.00000000000E+00 0.  1.
         23    2    1    2    0    0  0.11196093414E+01  0.50927500918E+02 -0.16219639579E+03  0.19289784356E+03  0.91142983097E+02 0.  0.
         24    2    1    2    0    0 -0.11928608636E+03 -0.55505629565E+02 -0.23877783602E+03  0.28437811593E+03  0.80907431896E+02 0.  0.
        -11    1    4    4    0    0 -0.11273274928E+03 -0.56931832364E+02 -0.15323193503E+03  0.19856971624E+03  0.00000000000E+00 0.  1.
         12    1    4    4    0    0 -0.65533370799E+01  0.14262027984E+01 -0.85545900989E+02  0.85808399690E+02  0.00000000000E+00 0. -1.
        -13    1    3    3    0    0  0.38807051718E+02  0.49611111435E+02 -0.75288993623E+02  0.98161510796E+02  0.00000000000E+00 0.  1.
         13    1    3    3    0    0 -0.37687442376E+02  0.13163894825E+01 -0.86907402171E+02  0.94736332767E+02  0.00000000000E+00 0. -1.
         -2    1    1    2    0  502  0.11816647702E+03  0.45781286477E+01 -0.10927837976E+03  0.16101565090E+03  0.00000000000E+00 0.  1.
<scales pt_clust_5="13000.00000" pt_clust_6="13000.00000" pt_clust_7="13000.00000" pt_clust_8="13000.00000" pt_clust_9="13000.00000"></scales>
<clustering>
<clus scale="   80.907">  5  6 -1 -1</clus>
<clus scale="   91.143">  7  8 -1 -1</clus>
<clus scale="  104.412">  2  7  1 -1</clus>
<clus scale="  120.559">  5  9 -1 -1</clus>
<clus scale="  277.907">  1  5  2 -1</clus>
</clustering>
</event>
<event>
 9    2  0.3726337E-005  0.2367099E+03  0.7546771E-02  0.1137491E+00
         21   -1    0    0  501  502  0.00000000000E+00  0.00000000000E+00  0.43690108357E+03  0.43690108357E+03  0.00000000000E+00 0. -1.
         -3   -1    0    0    0  501 -0.00000000000E+00 -0.00000000000E+00 -0.11269255729E+03  0.11269255729E+03  0.00000000000E+00 0.  1.
         23    2    1    2    0    0  0.13334801299E+03  0.14869352220E+02  0.18338346127E+02  0.16282740110E+03  0.90408392355E+02 0.  0.
         24    2    1    2    0    0 -0.49799973300E+02  0.54331415200E+02  0.22865158337E+03  0.25360568690E+03  0.81254894216E+02 0.  0.
        -11    1    4    4    0    0 -0.27364929435E+02  0.24407226784E+02  0.20276795245E+02  0.41901080030E+02  0.00000000000E+00 0.  1.
         12    1    4    4    0    0 -0.22435043865E+02  0.29924188416E+02  0.20837478812E+03  0.21170460687E+03  0.00000000000E+00 0. -1.
        -13    1    3    3    0    0  0.98600966554E+02  0.48092162495E+02 -0.40867614977E+01  0.10978027290E+03  0.00000000000E+00 0.  1.
         13    1    3    3    0    0  0.34747046432E+02 -0.33222810275E+02  0.22425107624E+02  0.53047128200E+02  0.00000000000E+00 0. -1.
         -4    1    1    2    0  502 -0.83548039686E+02 -0.69200767421E+02  0.77218596793E+02  0.13316055286E+03  0.00000000000E+00 0.  1.
<scales pt_clust_5="13000.00000" pt_clust_6="13000.00000" pt_clust_7="13000.00000" pt_clust_8="13000.00000" pt_clust_9="13000.00000"></scales>
<clustering>
<clus scale="   81.255">  5  6 -1 -1</clus>
<clus scale="   90.408">  7  8 -1 -1</clus>
<clus scale="  108.485">  5  9 -1 -1</clus>
<clus scale="  161.791">  2  7  1 -1</clus>
<clus scale="  236.710">  1  5  2 -1</clus>
</clustering>
</event>
<event>
 9    2  0.3726337E-005  0.2396198E+03  0.7546771E-02  0.1158715E+00
         21   -1    0    0  501  502  0.00000000000E+00  0.00000000000E+00  0.14444158244E+03  0.14444158244E+03  0.00000000000E+00 0.  1.
         -1   -1    0    0    0  501 -0.00000000000E+00 -0.00000000000E+00 -0.19283730065E+03  0.19283730065E+03  0.00000000000E+00 0.  1.
         23    2    1    2    0    0  0.11382422176E+02  0.53865181970E+01 -0.14565198053E+02  0.95282697495E+02  0.93317058112E+02 0.  0.
         24    2    1    2    0    0 -0.19748369421E+02 -0.32794243058E+02  0.81701315419E+02  0.12296351156E+03  0.83543161073E+02 0.  0.
        -11    1    4    4    0    0 -0.37657299652E+02  0.14574876068E+02  0.44744837170E+02  0.60271051782E+02  0.00000000000E+00 0.  1.
         12    1    4    4    0    0  0.17908930231E+02 -0.47369119126E+02  0.36956478250E+02  0.62692459781E+02  0.00000000000E+00 0. -1.
        -11    1    3    3    0    0  0.63464504040E+01 -0.42486900160E+02  0.51468107555E+01  0.43265503336E+02  0.00000000000E+00 0.  1.
         11    1    3    3    0    0  0.50359717717E+01  0.47873418357E+02 -0.19712008809E+02  0.52017194159E+02  0.00000000000E+00 0. -1.
         -2    1    1    2    0  502  0.83659472452E+01  0.27407724861E+02 -0.11553183558E+03  0.11903267403E+03  0.00000000000E+00 0.  1.
<scales pt_clust_5="13000.00000" pt_clust_6="13000.00000" pt_clust_7="13000.00000" pt_clust_8="13000.00000" pt_clust_9="13000.00000"></scales>
<clustering>
<clus scale="   83.543">  5  6 -1 -1</clus>
<clus scale="   28.656">  5  9 -1 -1</clus>
<clus scale="   93.317">  7  8 -1 -1</clus>
<clus scale="   94.163">  2  7  1 -1</clus>
<clus scale="  239.620">  1  5  2 -1</clus>
</clustering>
</event>
<event>
 9    2  0.3726337E-005  0.4420794E+03  0.7546771E-02  0.1058238E+00
          2   -1    0    0  502    0 -0.00000000000E+00  0.00000000000E+00  0.11121995589E+04  0.11121995589E+04  0.00000000000E+00 0. -1.
         21   -1    0    0  501  502  0.00000000000E+00 -0.00000000000E+00 -0.92549033778E+02  0.92549033778E+02  0.00000000000E+00 0. -1.
         23    2    1    2    0    0 -0.10071897127E+03  0.14103478890E+03  0.37175489271E+03  0.42039984889E+03  0.92191159239E+02 0.  0.
         24    2    1    2    0    0 -0.25974367467E+01 -0.26617406066E+03  0.44023319588E+03  0.52080025669E+03  0.81069497168E+02 0.  0.
        -13    1    4    4    0    0  0.15841206228E+02 -0.83835244163E+02  0.81627540330E+02  0.11807771728E+03  0.00000000000E+00 0.  1.
         14    1    4    4    0    0 -0.18438642974E+02 -0.18233881650E+03  0.35860565555E+03  0.40272253941E+03  0.00000000000E+00 0. -1.
        -11    1    3    3    0    0 -0.98406165960E+02  0.88622384902E+02  0.19270759303E+03  0.23382454323E+03  0.00000000000E+00 0. -1.
         11    1    3    3    0    0 -0.23128053135E+01  0.52412403994E+02  0.17904729968E+03  0.18657530567E+03  0.00000000000E+00 0.  1.
          1    1    1    2  501    0  0.10331640802E+03  0.12513927177E+03  0.20766243656E+03  0.26354848712E+03  0.00000000000E+00 0. -1.
<scales pt_clust_5="13000.00000" pt_clust_6="13000.00000" pt_clust_7="13000.00000" pt_clust_8="13000.00000" pt_clust_9="13000.00000"></scales>
<clustering>
<clus scale="   81.069">  5  6 -1 -1</clus>
<clus scale="   92.191">  7  8 -1 -1</clus>
<clus scale="  162.278">  5  9 -1 -1</clus>
<clus scale="  196.302">  1  7  2 -1</clus>
<clus scale="  442.079">  2  5  1 -1</clus>
</clustering>
</event>
<event>
 9    2  0.3726337E-005  0.1974765E+03  0.7546771E-02  0.1175438E+00
         21   -1    0    0  501  502  0.00000000000E+00  0.00000000000E+00  0.68960385726E+02  0.68960385726E+02  0.00000000000E+00 0.  1.
          2   -1    0    0  502    0 -0.00000000000E+00 -0.00000000000E+00 -0.39945616449E+03  0.39945616449E+03  0.00000000000E+00 0. -1.
         23    2    1    2    0    0  0.63378323436E+02 -0.30574321588E+02 -0.49023552337E+02  0.12458000566E+03  0.90361873065E+02 0.  0.
         24    2    1    2    0    0 -0.31187744087E+02  0.62698678268E+01 -0.29106711719E+03  0.30237569797E+03  0.75491783596E+02 0.  0.
        -13    1    4    4    0    0  0.20089466652E+02 -0.11470184970E+02 -0.47442927591E+02  0.52782413662E+02  0.00000000000E+00 0.  1.
         14    1    4    4    0    0 -0.51277210739E+02  0.17740052797E+02 -0.24362418960E+03  0.24959328431E+03  0.00000000000E+00 0. -1.
        -13    1    3    3    0    0  0.37409873458E+02 -0.62825619908E+02 -0.30932838352E+02  0.79393939552E+02  0.00000000000E+00 0.  1.
         13    1    3    3    0    0  0.25968449978E+02  0.32251298321E+02 -0.18090713985E+02  0.45186066106E+02  0.00000000000E+00 0. -1.
          1    1    1    2  501    0 -0.32190579349E+02  0.24304453761E+02  0.95948907592E+01  0.41460846592E+02  0.00000000000E+00 0. -1.
<scales pt_clust_5="13000.00000" pt_clust_6="13000.00000" pt_clust_7="13000.00000" pt_clust_8="13000.00000" pt_clust_9="13000.00000"></scales>
<clustering>
<clus scale="   75.492">  5  6 -1 -1</clus>
<clus scale="   40.335">  5  9 -1 -1</clus>
<clus scale="   90.362">  7  8 -1 -1</clus>
<clus scale="  114.529">  2  7  1 -1</clus>
<clus scale="  197.476">  1  5  2 -1</clus>
</clustering>
</event>
<event>
 9    2  0.3726337E-005  0.1597778E+03  0.7546771E-02  0.1197047E+00
         21   -1    0    0  501  502  0.00000000000E+00  0.00000000000E+00  0.17023540005E+03  0.17023540005E+03  0.00000000000E+00 0. -1.
          2   -1    0    0  502    0 -0.00000000000E+00 -0.00000000000E+00 -0.17264226223E+03  0.17264226223E+03  0.00000000000E+00 0. -1.
         23    2    1    2    0    0  0.72099923955E+00 -0.98710988086E+02  0.87245652198E+02  0.15966598205E+03  0.90205559620E+02 0.  0.
         24    2    1    2    0    0 -0.10064390181E+01  0.24217919866E+02 -0.63443978459E+02  0.10424215419E+03  0.79080767225E+02 0.  0.
        -13    1    4    4    0    0 -0.32848134901E+02 -0.19629444224E+01 -0.58610647690E+01  0.33424619631E+02  0.00000000000E+00 0.  1.
         14    1    4    4    0    0  0.31841695883E+02  0.26180864289E+02 -0.57582913690E+02  0.70817534557E+02  0.00000000000E+00 0. -1.
        -13    1    3    3    0    0 -0.24184762007E+02 -0.88598322791E+02  0.30324256745E+02  0.96716731034E+02  0.00000000000E+00 0. -1.
         13    1    3    3    0    0  0.24905761246E+02 -0.10112665295E+02  0.56921395454E+02  0.62949251012E+02  0.00000000000E+00 0.  1.
          1    1    1    2  501    0  0.28543977853E+00  0.74493068220E+02 -0.26208535925E+02  0.78969526046E+02  0.00000000000E+00 0. -1.
<scales pt_clust_5="13000.00000" pt_clust_6="13000.00000" pt_clust_7="13000.00000" pt_clust_8="13000.00000" pt_clust_9="13000.00000"></scales>
<clustering>
<clus scale="   79.081">  5  6 -1 -1</clus>
<clus scale="   74.494">  5  9 -1 -1</clus>
<clus scale="   90.206">  7  8 -1 -1</clus>
<clus scale="  133.722">  2  7  1 -1</clus>
<clus scale="  159.778">  1  5  2 -1</clus>
</clustering>
</event>
<event>
 9    2  0.3726337E-005  0.5374927E+03  0.7546771E-02  0.1044430E+00
          2   -1    0    0  502    0 -0.00000000000E+00  0.00000000000E+00  0.17159867225E+03  0.17159867225E+03  0.00000000000E+00 0. -1.
         21   -1    0    0  501  502  0.00000000000E+00 -0.00000000000E+00 -0.75381988285E+03  0.75381988285E+03  0.00000000000E+00 0. -1.
         23    2    1    2    0    0  0.84065492776E+02 -0.10464994615E+03 -0.50831982519E+02  0.16959260577E+03  0.90327975625E+02 0.  0.
         24    2    1    2    0    0  0.19367501139E+03 -0.86472405984E-02 -0.99551962396E+02  0.23182534545E+03  0.79513442033E+02 0.  0.
        -11    1    4    4    0    0  0.47788055319E+02 -0.15216985161E+02  0.68516927500E+01  0.50618184105E+02  0.00000000000E+00 0.  1.
         12    1    4    4    0    0  0.14588695607E+03  0.15208337920E+02 -0.10640365515E+03  0.18120716134E+03  0.00000000000E+00 0. -1.
        -13    1    3    3    0    0  0.41958145174E+02 -0.11118593191E+03 -0.32486856906E+02  0.12319981036E+03  0.00000000000E+00 0. -1.
         13    1    3    3    0    0  0.42107347602E+02  0.65359857630E+01 -0.18345125614E+02  0.46392795408E+02  0.00000000000E+00 0.  1.
          1    1    1    2  501    0 -0.27774050417E+03  0.10465859339E+03 -0.43183726569E+03  0.52400060387E+03  0.00000000000E+00 0. -1.
<scales pt_clust_5="13000.00000" pt_clust_6="13000.00000" pt_clust_7="13000.00000" pt_clust_8="13000.00000" pt_clust_9="13000.00000"></scales>
<clustering>
<clus scale="   79.513">  5  6 -1 -1</clus>
<clus scale="   90.328">  7  8 -1 -1</clus>
<clus scale="  161.795">  1  7  2 -1</clus>
<clus scale="  250.920">  5  9 -1 -1</clus>
<clus scale="  537.493">  2  5  1 -1</clus>
</clustering>
</event>
<event>
 9    2  0.3726337E-005  0.2533853E+03  0.7546771E-02  0.1151702E+00
          2   -1    0    0  502    0 -0.00000000000E+00  0.00000000000E+00  0.67079328368E+03  0.67079328368E+03  0.00000000000E+00 0. -1.
         21   -1    0    0  501  502  0.00000000000E+00 -0.00000000000E+00 -0.46680674555E+02  0.46680674555E+02  0.00000000000E+00 0. -1.
         23    2    1    2    0    0  0.51209134810E+01  0.29610949291E+02  0.23579126866E+03  0.25379562658E+03  0.88947544223E+02 0.  0.
         24    2    1    2    0    0 -0.15416628960E+02  0.90083952953E+02  0.26219204649E+03  0.28949030055E+03  0.81897337207E+02 0.  0.
        -13    1    4    4    0    0 -0.19501773261E+02  0.85881509995E+02  0.12914953669E+03  0.15631876326E+03  0.00000000000E+00 0.  1.
         14    1    4    4    0    0  0.40851443009E+01  0.42024429578E+01  0.13304250980E+03  0.13317153729E+03  0.00000000000E+00 0. -1.
        -13    1    3    3    0    0 -0.32826359182E+02  0.42536994586E+02  0.13978281197E+03  0.14975379891E+03  0.00000000000E+00 0.  1.
         13    1    3    3    0    0  0.37947272663E+02 -0.12926045295E+02  0.96008456689E+02  0.10404182767E+03  0.00000000000E+00 0. -1.
          1    1    1    2  501    0  0.10295715479E+02 -0.11969490224E+03  0.12612929397E+03  0.17418803110E+03  0.00000000000E+00 0. -1.
<scales pt_clust_5="13000.00000" pt_clust_6="13000.00000" pt_clust_7="13000.00000" pt_clust_8="13000.00000" pt_clust_9="13000.00000"></scales>
<clustering>
<clus scale="   81.897">  5  6 -1 -1</clus>
<clus scale="   88.948">  7  8 -1 -1</clus>
<clus scale="   93.887">  1  7  2 -1</clus>
<clus scale="  109.926">  5  9 -1 -1</clus>
<clus scale="  253.385">  2  5  1 -1</clus>
</clustering>
</event>
<event>
 9    2  0.3726337E-005  0.4062799E+03  0.7546771E-02  0.1063123E+00
         21   -1    0    0  501  502  0.00000000000E+00  0.00000000000E+00  0.11448559783E+03  0.11448559783E+03  0.00000000000E+00 0. -1.
          2   -1    0    0  502    0 -0.00000000000E+00 -0.00000000000E+00 -0.90144181895E+03  0.90144181895E+03  0.00000000000E+00 0. -1.
         23    2    1    2    0    0  0.94523428383E+02  0.17908604799E+03 -0.38903596031E+03  0.44724133058E+03  0.87574758158E+02 0.  0.
         24    2    1    2    0    0 -0.25943608830E+02  0.70938973860E+02 -0.24446613792E+03  0.26741565778E+03  0.77730512593E+02 0.  0.
        -11    1    4    4    0    0 -0.51118803557E+02  0.64086647401E+02 -0.19383711103E+03  0.21045915533E+03  0.00000000000E+00 0.  1.
         12    1    4    4    0    0  0.25175194728E+02  0.68523264590E+01 -0.50629026891E+02  0.56956502451E+02  0.00000000000E+00 0. -1.
        -11    1    3    3    0    0  0.42711613441E+02  0.14227747676E+03 -0.32335434793E+03  0.35584434327E+03  0.00000000000E+00 0. -1.
         11    1    3    3    0    0  0.51811814942E+02  0.36808571237E+02 -0.65681612382E+02  0.91396987309E+02  0.00000000000E+00 0.  1.
          1    1    1    2  501    0 -0.68579819553E+02 -0.25002502185E+03 -0.15345412290E+03  0.30127042841E+03  0.00000000000E+00 0. -1.
<scales pt_clust_5="13000.00000" pt_clust_6="13000.00000" pt_clust_7="13000.00000" pt_clust_8="13000.00000" pt_clust_9="13000.00000"></scales>
<clustering>
<clus scale="   77.731">  5  6 -1 -1</clus>
<clus scale="   87.575">  7  8 -1 -1</clus>
<clus scale="  220.626">  2  7  1 -1</clus>
<clus scale="  167.521">  5  9 -1 -1</clus>
<clus scale="  406.280">  1  5  2 -1</clus>
</clustering>
</event>
<event>
 9    2  0.3726337E-005  0.1536489E+03  0.7546771E-02  0.1202597E+00
         21   -1    0    0  501  502  0.00000000000E+00  0.00000000000E+00  0.42261475217E+03  0.42261475217E+03  0.00000000000E+00 0. -1.
          2   -1    0    0  502    0 -0.00000000000E+00 -0.00000000000E+00 -0.53812271455E+02  0.53812271455E+02  0.00000000000E+00 0. -1.
         23    2    1    2    0    0 -0.37032889391E+02  0.88920945772E+02  0.24578035555E+03  0.27959603543E+03  0.92128119277E+02 0.  0.
         24    2    1    2    0    0  0.21041264851E+02 -0.45571875738E+02  0.11660607759E+03  0.15018294863E+03  0.80239703674E+02 0.  0.
        -11    1    4    4    0    0  0.46430981576E+02 -0.10238186082E+02  0.40228039048E+02  0.62281230158E+02  0.00000000000E+00 0.  1.
         12    1    4    4    0    0 -0.25389716726E+02 -0.35333689656E+02  0.76378038538E+02  0.87901718476E+02  0.00000000000E+00 0. -1.
        -11    1    3    3    0    0 -0.14249880105E+02  0.32009433367E+02  0.10672266570E+02  0.36627314687E+02  0.00000000000E+00 0.  1.
         11    1    3    3    0    0 -0.22783009285E+02  0.56911512405E+02  0.23510808898E+03  0.24296872074E+03  0.00000000000E+00 0. -1.
          1    1    1    2  501    0  0.15991624540E+02 -0.43349070034E+02  0.64160475797E+01  0.46648039560E+02  0.00000000000E+00 0. -1.
<scales pt_clust_5="13000.00000" pt_clust_6="13000.00000" pt_clust_7="13000.00000" pt_clust_8="13000.00000" pt_clust_9="13000.00000"></scales>
<clustering>
<clus scale="   80.240">  5  6 -1 -1</clus>
<clus scale="   46.205">  5  9 -1 -1</clus>
<clus scale="   92.128">  7  8 -1 -1</clus>
<clus scale="  133.289">  2  7  1 -1</clus>
<clus scale="  153.649">  1  5  2 -1</clus>
</clustering>
</event>
<event>
 9    2  0.3726337E-005  0.2887118E+03  0.7546771E-02  0.1113624E+00
         -1   -1    0    0    0  501 -0.00000000000E+00  0.00000000000E+00  0.84961644292E+03  0.84961644292E+03  0.00000000000E+00 0.  1.
         21   -1    0    0  501  502  0.00000000000E+00 -0.00000000000E+00 -0.64661954608E+02  0.64661954608E+02  0.00000000000E+00 0.  1.
         23    2    1    2    0    0  0.17110375962E+02  0.12956344612E+03  0.41403048591E+03  0.44423677018E+03  0.94051120013E+02 0.  0.
         24    2    1    2    0    0 -0.10143419751E+03 -0.49182598868E+02  0.30724401440E+03  0.33727593767E+03  0.81537410374E+02 0.  0.
        -11    1    4    4    0    0 -0.66503279353E+02 -0.53136474775E+02  0.12222399950E+03  0.14894588672E+03  0.00000000000E+00 0.  1.
         12    1    4    4    0    0 -0.34930918153E+02  0.39538759067E+01  0.18502001490E+03  0.18833005095E+03  0.00000000000E+00 0. -1.
        -11    1    3    3    0    0 -0.24906858137E+02  0.28694752752E+02  0.42677204614E+02  0.57140915388E+02  0.00000000000E+00 0. -1.
         11    1    3    3    0    0  0.42017234099E+02  0.10086869337E+03  0.37135328130E+03  0.38709585479E+03  0.00000000000E+00 0.  1.
         -2    1    1    2    0  502  0.84323821544E+02 -0.80380847257E+02  0.63679988004E+02  0.13276568969E+03  0.00000000000E+00 0.  1.
<scales pt_clust_5="13000.00000" pt_clust_6="13000.00000" pt_clust_7="13000.00000" pt_clust_8="13000.00000" pt_clust_9="13000.00000"></scales>
<clustering>
<clus scale="   81.537">  5  6 -1 -1</clus>
<clus scale="   94.051">  7  8 -1 -1</clus>
<clus scale="  116.497">  5  9 -1 -1</clus>
<clus scale="  161.013">  1  7  2 -1</clus>
<clus scale="  288.712">  2  5  1 -1</clus>
</clustering>
</event>
<event>
 9    2  0.3726337E-005  0.2292491E+03  0.7546771E-02  0.1155048E+00
         21   -1    0    0  501  502  0.00000000000E+00  0.00000000000E+00  0.14155494733E+02  0.14155494733E+02  0.00000000000E+00 0. -1.
          2   -1    0    0  502    0 -0.00000000000E+00 -0.00000000000E+00 -0.24961904510E+04  0.24961904510E+04  0.00000000000E+00 0. -1.
         23    2    1    2    0    0  0.65027844291E+02 -0.33417564978E+02 -0.43459023758E+03  0.45010687334E+03  0.91554184229E+02 0.  0.
         24    2    1    2    0    0  0.32372177058E+02  0.49195302355E+02 -0.15453987406E+04  0.15485889329E+04  0.80014248351E+02 0.  0.
        -13    1    4    4    0    0  0.18996805806E+02 -0.10572618587E+02 -0.12544787348E+03  0.12731782222E+03  0.00000000000E+00 0.  1.
         14    1    4    4    0    0  0.13375371252E+02  0.59767920942E+02 -0.14199508671E+04  0.14212711107E+04  0.00000000000E+00 0. -1.
        -13    1    3    3    0    0  0.87052126407E+01 -0.52451986261E+02 -0.26806728047E+03  0.27328933102E+03  0.00000000000E+00 0.  1.
         13    1    3    3    0    0  0.56322631650E+02  0.19034421283E+02 -0.16652295711E+03  0.17681754233E+03  0.00000000000E+00 0. -1.
          1    1    1    2  501    0 -0.97400021349E+02 -0.15777737378E+02 -0.50204597811E+03  0.51165013954E+03  0.00000000000E+00 0. -1.
<scales pt_clust_5="13000.00000" pt_clust_6="13000.00000" pt_clust_7="13000.00000" pt_clust_8="13000.00000" pt_clust_9="13000.00000"></scales>
<clustering>
<clus scale="   80.014">  5  6 -1 -1</clus>
<clus scale="   91.554">  7  8 -1 -1</clus>
<clus scale="   98.670">  5  9 -1 -1</clus>
<clus scale="  117.165">  2  7  1 -1</clus>
<clus scale="  229.249">  1  5  2 -1</clus>
</clustering>
</event>
<event>
 9    2  0.3726337E-005  0.5395688E+03  0.7546771E-02  0.1032483E+00
         21   -1    0    0  501  502  0.00000000000E+00  0.00000000000E+00  0.37269496111E+03  0.37269496111E+03  0.00000000000E+00 0. -1.
         -1   -1    0    0    0  501 -0.00000000000E+00 -0.00000000000E+00 -0.42814740521E+03  0.42814740521E+03  0.00000000000E+00 0.  1.
         23    2    1    2    0    0  0.88553546972E+02 -0.18744536014E+03  0.87006634138E+02  0.24278407295E+03  0.91632188539E+02 0.  0.
         24    2    1    2    0    0  0.16282552965E+02 -0.10046444925E+03  0.10425061792E+03  0.16467763756E+03  0.76761356691E+02 0.  0.
        -13    1    4    4    0    0  0.98266131602E+01 -0.37720127561E+02  0.92688481142E+02  0.10055110584E+03  0.00000000000E+00 0.  1.
         14    1    4    4    0    0  0.64559398049E+01 -0.62744321693E+02  0.11562136776E+02  0.64126531719E+02  0.00000000000E+00 0. -1.
        -13    1    3    3    0    0  0.61616835098E+02 -0.58573925843E+02  0.69819508775E+02  0.11001046751E+03  0.00000000000E+00 0. -1.
         13    1    3    3    0    0  0.26936711874E+02 -0.12887143429E+03  0.17187125363E+02  0.13277360544E+03  0.00000000000E+00 0.  1.
         -2    1    1    2    0  502 -0.10483609994E+03  0.28790980939E+03 -0.24670969615E+03  0.39338065581E+03  0.00000000000E+00 0.  1.
<scales pt_clust_5="13000.00000" pt_clust_6="13000.00000" pt_clust_7="13000.00000" pt_clust_8="13000.00000" pt_clust_9="13000.00000"></scales>
<clustering>
<clus scale="   76.761">  5  6 -1 -1</clus>
<clus scale="   91.632">  7  8 -1 -1</clus>
<clus scale="  226.658">  2  7  1 -1</clus>
<clus scale="  119.061">  5  9 -1 -1</clus>
<clus scale="  539.569">  1  5  2 -1</clus>
</clustering>
</event>
<event>
 9    2  0.6898162E-005  0.1906513E+03  0.7546771E-02  0.1176849E+00
         -3   -1    0    0    0  501 -0.00000000000E+00  0.00000000000E+00  0.29229526394E+03  0.29229526394E+03  0.00000000000E+00 0.  1.
         21   -1    0    0  501  502  0.00000000000E+00 -0.00000000000E+00 -0.15346268957E+03  0.15346268957E+03  0.00000000000E+00 0.  1.
         23    2    1    2    0    0 -0.37742947153E+02 -0.76008665414E+02  0.20896460469E+03  0.24261656242E+03  0.89413327126E+02 0.  0.
         24    2    1    2    0    0 -0.19334659143E+02  0.15610692185E+02  0.94947464631E+01  0.88049289306E+02  0.83934524376E+02 0.  0.
        -11    1    4    4    0    0 -0.35121653652E+02  0.54409420304E+01 -0.28572677413E+02  0.45601889215E+02  0.00000000000E+00 0.  1.
         12    1    4    4    0    0  0.15786994509E+02  0.10169750154E+02  0.38067423877E+02  0.42447400090E+02  0.00000000000E+00 0. -1.
        -13    1    3    3    0    0 -0.14537280904E+02 -0.79287016502E+02  0.20302134818E+03  0.21843862144E+03  0.00000000000E+00 0.  1.
         13    1    3    3    0    0 -0.23205666248E+02  0.32783510883E+01  0.59432565164E+01  0.24177940977E+02  0.00000000000E+00 0. -1.
         -4    1    1    2    0  502  0.57077606295E+02  0.60397973229E+02 -0.79626776795E+02  0.11509210179E+03  0.00000000000E+00 0.  1.
<scales pt_clust_5="13000.00000" pt_clust_6="13000.00000" pt_clust_7="13000.00000" pt_clust_8="13000.00000" pt_clust_9="13000.00000"></scales>
<clustering>
<clus scale="   83.935">  5  6 -1 -1</clus>
<clus scale="   83.101">  5  9 -1 -1</clus>
<clus scale="   89.413">  7  8 -1 -1</clus>
<clus scale="  123.274">  1  7  2 -1</clus>
<clus scale="  190.651">  2  5  1 -1</clus>
</clustering>
</event>
<event>
 9    2  0.3726337E-005  0.1035956E+04  0.7546771E-02  0.9981338E-01
         21   -1    0    0  501  502  0.00000000000E+00  0.00000000000E+00  0.24388211636E+03  0.24388211636E+03  0.00000000000E+00 0. -1.
          2   -1    0    0  502    0 -0.00000000000E+00 -0.00000000000E+00 -0.13245236797E+04  0.13245236797E+04  0.00000000000E+00 0. -1.
         23    2    1    2    0    0 -0.14809706733E+02 -0.48609174960E+01 -0.15060070486E+03  0.17621980620E+03  0.90165912964E+02 0.  0.
         24    2    1    2    0    0 -0.68181041835E+02 -0.46190493354E+03 -0.74560525556E+03  0.88348734069E+03  0.81350242451E+02 0.  0.
        -11    1    4    4    0    0 -0.20900442933E+02 -0.61785191378E+02 -0.15885399686E+03  0.17172312223E+03  0.00000000000E+00 0.  1.
         12    1    4    4    0    0 -0.47280598902E+02 -0.40011974216E+03 -0.58675125870E+03  0.71176421846E+03  0.00000000000E+00 0. -1.
        -11    1    3    3    0    0 -0.37568082209E+02  0.24262364423E+02 -0.41432984109E+02  0.60964869396E+02  0.00000000000E+00 0. -1.
         11    1    3    3    0    0  0.22758375475E+02 -0.29123281919E+02 -0.10916772075E+03  0.11525493680E+03  0.00000000000E+00 0.  1.
          1    1    1    2  501    0  0.82990748569E+02  0.46676585103E+03 -0.18443560290E+03  0.50869864916E+03  0.00000000000E+00 0. -1.
<scales pt_clust_5="13000.00000" pt_clust_6="13000.00000" pt_clust_7="13000.00000" pt_clust_8="13000.00000" pt_clust_9="13000.00000"></scales>
<clustering>
<clus scale="   81.350">  5  6 -1 -1</clus>
<clus scale="   90.166">  7  8 -1 -1</clus>
<clus scale="   91.503">  2  7  1 -1</clus>
<clus scale="  471.902">  5  9 -1 -1</clus>
<clus scale=" 1035.956">  1  5  2 -1</clus>
</clustering>
</event>
<event>
 9    2  0.3726337E-005  0.1257343E+03  0.7546771E-02  0.1249393E+00
         21   -1    0    0  501  502  0.00000000000E+00  0.00000000000E+00  0.98095249302E+02  0.98095249302E+02  0.00000000000E+00 0.  1.
         -3   -1    0    0    0  501 -0.00000000000E+00 -0.00000000000E+00 -0.17301645924E+03  0.17301645924E+03  0.00000000000E+00 0.  1.
         23    2    1    2    0    0  0.11465777290E+02  0.25101692913E+02 -0.10728746859E+03  0.14127841052E+03  0.87677986558E+02 0.  0.
         24    2    1    2    0    0 -0.10637952889E+02  0.17667762990E+02  0.23413643436E+02  0.86129053708E+02  0.80278884540E+02 0.  0.
        -13    1    4    4    0    0 -0.30789241052E+02 -0.12208969828E+02  0.35084524563E+02  0.48248939601E+02  0.00000000000E+00 0.  1.
         14    1    4    4    0    0  0.20151288163E+02  0.29876732817E+02 -0.11670881127E+02  0.37880114107E+02  0.00000000000E+00 0. -1.
        -11    1    3    3    0    0  0.31113096503E+02 -0.38683575674E+01 -0.32624613403E+01  0.31521938682E+02  0.00000000000E+00 0. -1.
         11    1    3    3    0    0 -0.19647319213E+02  0.28970050480E+02 -0.10402500725E+03  0.10975647184E+03  0.00000000000E+00 0.  1.
         -4    1    1    2    0  502 -0.82782440084E+00 -0.42769455903E+02  0.89526152190E+01  0.43704244310E+02  0.00000000000E+00 0.  1.
<scales pt_clust_5="13000.00000" pt_clust_6="13000.00000" pt_clust_7="13000.00000" pt_clust_8="13000.00000" pt_clust_9="13000.00000"></scales>
<clustering>
<clus scale="   80.279">  5  6 -1 -1</clus>
<clus scale="   42.777">  5  9 -1 -1</clus>
<clus scale="   87.678">  7  8 -1 -1</clus>
<clus scale="   91.918">  2  7  1 -1</clus>
<clus scale="  125.734">  1  5  2 -1</clus>
</clustering>
</event>
<event>
 9    2  0.3726337E-005  0.6621499E+03  0.7546771E-02  0.1017148E+00
          2   -1    0    0  502    0 -0.00000000000E+00  0.00000000000E+00  0.12423945463E+04  0.12423945463E+04  0.00000000000E+00 0. -1.
         21   -1    0    0  501  502  0.00000000000E+00 -0.00000000000E+00 -0.15421363624E+03  0.15421363624E+03  0.00000000000E+00 0. -1.
         23    2    1    2    0    0  0.79202616281E+02 -0.15328484950E+03  0.38205450676E+03  0.42859116946E+03  0.89193300729E+02 0.  0.
         24    2    1    2    0    0  0.17967409918E+03 -0.61681971934E+02  0.56789043222E+03  0.60423538652E+03  0.80705710717E+02 0.  0.
        -11    1    4    4    0    0  0.11043798739E+03 -0.41455028296E+02  0.22725329549E+03  0.25604516934E+03  0.00000000000E+00 0.  1.
         12    1    4    4    0    0  0.69236111791E+02 -0.20226943638E+02  0.34063713672E+03  0.34819021718E+03  0.00000000000E+00 0. -1.
        -13    1    3    3    0    0  0.53102029722E+02 -0.35730881509E+02  0.20268423081E+03  0.21254980328E+03  0.00000000000E+00 0.  1.
         13    1    3    3    0    0  0.26100586559E+02 -0.11755396799E+03  0.17937027595E+03  0.21604136618E+03  0.00000000000E+00 0. -1.
          1    1    1    2  501    0 -0.25887671546E+03  0.21496682144E+03  0.13823597112E+03  0.36378162658E+03  0.00000000000E+00 0. -1.
<scales pt_clust_5="13000.00000" pt_clust_6="13000.00000" pt_clust_7="13000.00000" pt_clust_8="13000.00000" pt_clust_9="13000.00000"></scales>
<clustering>
<clus scale="   80.706">  5  6 -1 -1</clus>
<clus scale="   89.193">  7  8 -1 -1</clus>
<clus scale="  194.229">  1  7  2 -1</clus>
<clus scale="  289.562">  5  9 -1 -1</clus>
<clus scale="  662.150">  2  5  1 -1</clus>
</clustering>
</event>
<event>
 9    2  0.3726337E-005  0.4401043E+03  0.7546771E-02  0.1038401E+00
         -1   -1    0    0    0  501 -0.00000000000E+00  0.00000000000E+00  0.10554456747E+03  0.10554456747E+03  0.00000000000E+00 0.  1.
         21   -1    0    0  501  502  0.00000000000E+00 -0.00000000000E+00 -0.15226703100E+04  0.15226703100E+04  0.00000000000E+00 0.  1.
         23    2    1    2    0    0  0.91759303367E+02 -0.32532282111E+03 -0.76205799544E+03  0.83903455933E+03  0.94825606478E+02 0.  0.
         24    2    1    2    0    0 -0.17804371251E+03  0.28298498537E+03 -0.51769030413E+03  0.62151978781E+03  0.80644467511E+02 0.  0.
        -13    1    4    4    0    0 -0.13355256236E+03  0.26042482960E+03 -0.46045154681E+03  0.54559417679E+03  0.00000000000E+00 0.  1.
         14    1    4    4    0    0 -0.44491150143E+02  0.22560155774E+02 -0.57238757323E+02  0.75925611025E+02  0.00000000000E+00 0. -1.
        -11    1    3    3    0    0  0.95555189984E+02 -0.24937896983E+03 -0.65820884666E+03  0.71032355356E+03  0.00000000000E+00 0.  1.
         11    1    3    3    0    0 -0.37958866178E+01 -0.75943851280E+02 -0.10384914878E+03  0.12871100576E+03  0.00000000000E+00 0. -1.
         -2    1    1    2    0  502  0.86284409139E+02  0.42337835739E+02 -0.13737744298E+03  0.16766053034E+03  0.00000000000E+00 0.  1.
<scales pt_clust_5="13000.00000" pt_clust_6="13000.00000" pt_clust_7="13000.00000" pt_clust_8="13000.00000" pt_clust_9="13000.00000"></scales>
<clustering>
<clus scale="   80.644">  5  6 -1 -1</clus>
<clus scale="   94.826">  7  8 -1 -1</clus>
<clus scale="   96.112">  5  9 -1 -1</clus>
<clus scale="  351.065">  1  7  2 -1</clus>
<clus scale="  440.104">  2  5  1 -1</clus>
</clustering>
</event>
<event>
 9    2  0.3726337E-005  0.4804718E+03  0.7546771E-02  0.1077299E+00
         21   -1    0    0  501  502  0.00000000000E+00  0.00000000000E+00  0.32382628396E+03  0.32382628396E+03  0.00000000000E+00 0.  1.
         -1   -1    0    0    0  501 -0.00000000000E+00 -0.00000000000E+00 -0.25219975656E+03  0.25219975656E+03  0.00000000000E+00 0.  1.
         23    2    1    2    0    0 -0.70910529445E+01 -0.23829869732E+02  0.21699542540E+02  0.92967148188E+02  0.86913029935E+02 0.  0.
         24    2    1    2    0    0 -0.11688775993E+03 -0.25186073408E+02 -0.17145283247E+03  0.22463611422E+03  0.82269212551E+02 0.  0.
        -11    1    4    4    0    0 -0.10624103297E+03 -0.20559725179E+02 -0.85528257312E+02  0.13793093266E+03  0.00000000000E+00 0.  1.
         12    1    4    4    0    0 -0.10646726961E+02 -0.46263482286E+01 -0.85924575158E+02  0.86705181558E+02  0.00000000000E+00 0. -1.
        -11    1    3    3    0    0  0.22086137425E+02 -0.47471026714E+02  0.17380382669E+02  0.55166779363E+02  0.00000000000E+00 0. -1.
         11    1    3    3    0    0 -0.29177190370E+02  0.23641156982E+02  0.43191598703E+01  0.37800368825E+02  0.00000000000E+00 0.  1.
         -2    1    1    2    0  502  0.12397881287E+03  0.49015943140E+02  0.22137981733E+03  0.25842277811E+03  0.00000000000E+00 0.  1.
<scales pt_clust_5="13000.00000" pt_clust_6="13000.00000" pt_clust_7="13000.00000" pt_clust_8="13000.00000" pt_clust_9="13000.00000"></scales>
<clustering>
<clus scale="   82.269">  5  6 -1 -1</clus>
<clus scale="   86.913">  7  8 -1 -1</clus>
<clus scale="   90.399">  2  7  1 -1</clus>
<clus scale="  132.014">  5  9 -1 -1</clus>
<clus scale="  480.472">  1  5  2 -1</clus>
</clustering>
</event>
<event>
 9    2  0.3726337E-005  0.4547541E+03  0.7546771E-02  0.1030511E+00
          2   -1    0    0  502    0 -0.00000000000E+00  0.00000000000E+00  0.10908615139E+04  0.10908615139E+04  0.00000000000E+00 0. -1.
         21   -1    0    0  501  502  0.00000000000E+00 -0.00000000000E+00 -0.17486610633E+03  0.17486610633E+03  0.00000000000E+00 0. -1.
         23    2    1    2    0    0 -0.37341310012E+03 -0.11404975380E+03  0.30505648148E+03  0.50411898974E+03  0.92907530619E+02 0.  0.
         24    2    1    2    0    0  0.79594034997E+02 -0.10613599122E+02  0.28333223979E+03  0.30422833412E+03  0.76353534860E+02 0.  0.
        -11    1    4    4    0    0  0.84786177403E+02  0.13184551528E+02  0.23337620308E+03  0.24865031760E+03  0.00000000000E+00 0.  1.
         12    1    4    4    0    0 -0.51921424061E+01 -0.23798150649E+02  0.49956036705E+02  0.55578016521E+02  0.00000000000E+00 0. -1.
        -13    1    3    3    0    0 -0.17304007319E+03 -0.81534747340E+02  0.10110029538E+03  0.21636092919E+03  0.00000000000E+00 0. -1.
         13    1    3    3    0    0 -0.20037302693E+03 -0.32515006456E+02  0.20395618610E+03  0.28775806055E+03  0.00000000000E+00 0.  1.
          1    1    1    2  501    0  0.29381906512E+03  0.12466335292E+03  0.32760668626E+03  0.45738029633E+03  0.00000000000E+00 0. -1.
<scales pt_clust_5="13000.00000" pt_clust_6="13000.00000" pt_clust_7="13000.00000" pt_clust_8="13000.00000" pt_clust_9="13000.00000"></scales>
<clustering>
<clus scale="   76.354">  5  6 -1 -1</clus>
<clus scale="   92.908">  7  8 -1 -1</clus>
<clus scale="  319.172">  5  9 -1 -1</clus>
<clus scale="  401.344">  1  7  2 -1</clus>
<clus scale="  454.754">  2  5  1 -1</clus>
</clustering>
</event>
<event>
 9    2  0.3726337E-005  0.1935183E+03  0.7546771E-02  0.1187925E+00
          2   -1    0    0  502    0 -0.00000000000E+00  0.00000000000E+00  0.38921354307E+03  0.38921354307E+03  0.00000000000E+00 0. -1.
         21   -1    0    0  501  502  0.00000000000E+00 -0.00000000000E+00 -0.10326439107E+03  0.10326439107E+03  0.00000000000E+00 0. -1.
         23    2    1    2    0    0  0.17884239646E+02  0.11421650753E+02  0.28444912512E+03  0.29895383248E+03  0.89508597582E+02 0.  0.
         24    2    1    2    0    0  0.42959389814E+02 -0.69533218452E+02  0.85589500286E+01  0.10909229520E+03  0.71746049401E+02 0.  0.
        -11    1    4    4    0    0 -0.33947808774E+01 -0.24155019430E+02  0.31895868914E+02  0.40153903355E+02  0.00000000000E+00 0.  1.
         12    1    4    4    0    0  0.46354170692E+02 -0.45378199022E+02 -0.23336918885E+02  0.68938391844E+02  0.00000000000E+00 0. -1.
        -11    1    3    3    0    0 -0.10697314092E+02 -0.34668905424E+02  0.88770236489E+02  0.95898490178E+02  0.00000000000E+00 0.  1.
         11    1    3    3    0    0  0.28581553737E+02  0.46090556177E+02  0.19567888863E+03  0.20305534231E+03  0.00000000000E+00 0. -1.
          1    1    1    2  501    0 -0.60843629460E+02  0.58111567699E+02 -0.70589231515E+01  0.84431806462E+02  0.00000000000E+00 0. -1.
<scales pt_clust_5="13000.00000" pt_clust_6="13000.00000" pt_clust_7="13000.00000" pt_clust_8="13000.00000" pt_clust_9="13000.00000"></scales>
<clustering>
<clus scale="   71.746">  5  6 -1 -1</clus>
<clus scale="   84.136">  5  9 -1 -1</clus>
<clus scale="   89.509">  7  8 -1 -1</clus>
<clus scale="   91.990">  1  7  2 -1</clus>
<clus scale="  193.518">  2  5  1 -1</clus>
</clustering>
</event>
<event>
 9    2  0.3726337E-005  0.1162020E+03  0.7546771E-02  0.1259904E+00
          2   -1    0    0  502    0 -0.00000000000E+00  0.00000000000E+00  0.50288095299E+03  0.50288095299E+03  0.00000000000E+00 0. -1.
         21   -1    0    0  501  502  0.00000000000E+00 -0.00000000000E+00 -0.23707979905E+02  0.23707979905E+02  0.00000000000E+00 0.  1.
         23    2    1    2    0    0 -0.27475289660E+02 -0.10236165213E+02  0.14797148158E+03  0.17559415697E+03  0.89878128474E+02 0.  0.
         24    2    1    2    0    0  0.18522370802E+02 -0.18738398712E+02  0.21382816316E+03  0.22976698078E+03  0.79850962992E+02 0.  0.
        -11    1    4    4    0    0 -0.29979983365E+02 -0.17229103561E+02  0.72125557291E+02  0.79985857666E+02  0.00000000000E+00 0.  1.
         12    1    4    4    0    0  0.48502354167E+02 -0.15092951507E+01  0.14170260587E+03  0.14978112312E+03  0.00000000000E+00 0. -1.
        -13    1    3    3    0    0 -0.14990891712E+02  0.40005368391E+02  0.64112492077E+02  0.77042637382E+02  0.00000000000E+00 0.  1.
         13    1    3    3    0    0 -0.12484397948E+02 -0.50241533604E+02  0.83858989508E+02  0.98551519584E+02  0.00000000000E+00 0. -1.
          1    1    1    2  501    0  0.89529188575E+01  0.28974563925E+02  0.11737332834E+03  0.12122779515E+03  0.00000000000E+00 0. -1.
<scales pt_clust_5="13000.00000" pt_clust_6="13000.00000" pt_clust_7="13000.00000" pt_clust_8="13000.00000" pt_clust_9="13000.00000"></scales>
<clustering>
<clus scale="   79.851">  5  6 -1 -1</clus>
<clus scale="   30.326">  5  9 -1 -1</clus>
<clus scale="   89.878">  7  8 -1 -1</clus>
<clus scale="   94.540">  1  7  2 -1</clus>
<clus scale="  116.202">  2  5  1 -1</clus>
</clustering>
</event>
<event>
 9    2  0.3726337E-005  0.1354206E+03  0.7546771E-02  0.1237379E+00
          2   -1    0    0  502    0 -0.00000000000E+00  0.00000000000E+00  0.73557322113E+03  0.73557322113E+03  0.00000000000E+00 0. -1.
         21   -1    0    0  501  502  0.00000000000E+00 -0.00000000000E+00 -0.18213744990E+02  0.18213744990E+02  0.00000000000E+00 0.  1.
         23    2    1    2    0    0  0.23402324235E+02 -0.20015431327E+02  0.34693015446E+03  0.35938029523E+03  0.88574139876E+02 0.  0.
         24    2    1    2    0    0 -0.44756140256E+02  0.34676215446E+02  0.19223978256E+03  0.21434435972E+03  0.76038270234E+02 0.  0.
        -11    1    4    4    0    0 -0.64167338004E+02  0.14357251513E+02  0.12004753530E+03  0.13687581477E+03  0.00000000000E+00 0.  1.
         12    1    4    4    0    0  0.19411197749E+02  0.20318963933E+02  0.72192247253E+02  0.77468544950E+02  0.00000000000E+00 0. -1.
        -13    1    3    3    0    0  0.42837096920E+01  0.33323189831E+02  0.17964331674E+03  0.18275805426E+03  0.00000000000E+00 0.  1.
         13    1    3    3    0    0  0.19118614543E+02 -0.53338621158E+02  0.16728683772E+03  0.17662224097E+03  0.00000000000E+00 0. -1.
          1    1    1    2  501    0  0.21353816021E+02 -0.14660784119E+02  0.17818953912E+03  0.18006231117E+03  0.00000000000E+00 0. -1.
<scales pt_clust_5="13000.00000" pt_clust_6="13000.00000" pt_clust_7="13000.00000" pt_clust_8="13000.00000" pt_clust_9="13000.00000"></scales>
<clustering>
<clus scale="   76.038">  5  6 -1 -1</clus>
<clus scale="   25.902">  5  9 -1 -1</clus>
<clus scale="   88.574">  7  8 -1 -1</clus>
<clus scale="   93.775">  1  7  2 -1</clus>
<clus scale="  135.421">  2  5  1 -1</clus>
</clustering>
</event>
<event>
 9    2  0.3726337E-005  0.3973040E+03  0.7546771E-02  0.1089072E+00
         -3   -1    0    0    0  501 -0.00000000000E+00  0.00000000000E+00  0.98789424261E+02  0.98789424261E+02  0.00000000000E+00 0.  1.
         21   -1    0    0  501  502  0.00000000000E+00 -0.00000000000E+00 -0.85580964683E+03  0.85580964683E+03  0.00000000000E+00 0.  1.
         23    2    1    2    0    0  0.72118877523E+02 -0.22320512173E+01 -0.41265164920E+03  0.42882329162E+03  0.91661972997E+02 0.  0.
         24    2    1    2    0    0 -0.22630409474E+03  0.62148702424E+01 -0.17623099429E+03  0.29761094969E+03  0.79137513981E+02 0.  0.
        -11    1    4    4    0    0 -0.19654355682E+03 -0.22784292545E+02 -0.15204405698E+03  0.24953133867E+03  0.00000000000E+00 0.  1.
         12    1    4    4    0    0 -0.29760537912E+02  0.28999162787E+02 -0.24186937314E+02  0.48079611020E+02  0.00000000000E+00 0. -1.
        -11    1    3    3    0    0  0.34142064285E+02 -0.37808808402E+02 -0.30533417939E+03  0.30955475711E+03  0.00000000000E+00 0.  1.
         11    1    3    3    0    0  0.37976813239E+02  0.35576757185E+02 -0.10731746981E+03  0.11926853450E+03  0.00000000000E+00 0. -1.
         -4    1    1    2    0  502  0.15418521721E+03 -0.39828190251E+01 -0.16813757907E+03  0.22816482978E+03  0.00000000000E+00 0.  1.
<scales pt_clust_5="13000.00000" pt_clust_6="13000.00000" pt_clust_7="13000.00000" pt_clust_8="13000.00000" pt_clust_9="13000.00000"></scales>
<clustering>
<clus scale="   79.138">  5  6 -1 -1</clus>
<clus scale="   91.662">  7  8 -1 -1</clus>
<clus scale="  116.654">  1  7  2 -1</clus>
<clus scale="  178.112">  5  9 -1 -1</clus>
<clus scale="  397.304">  2  5  1 -1</clus>
</clustering>
</event>
<event>
 9    2  0.4560526E-005  0.2900092E+03  0.7546771E-02  0.1113974E+00
          2   -1    0    0  502    0 -0.00000000000E+00  0.00000000000E+00  0.93105065936E+03  0.93105065936E+03  0.00000000000E+00 0. -1.
         21   -1    0    0  501  502  0.00000000000E+00 -0.00000000000E+00 -0.13008311221E+03  0.13008311221E+03  0.00000000000E+00 0.  1.
         23    2    1    2    0    0 -0.24809113381E+02  0.12806025666E+03 -0.47503591891E+02  0.16446848544E+03  0.88195067985E+02 0.  0.
         24    2    1    2    0    0  0.10089163177E+03  0.99875112790E+01  0.37001010864E+03  0.39290870459E+03  0.84799162184E+02 0.  0.
        -13    1    4    4    0    0 -0.71561745911E+01  0.19128165301E+02  0.97533354957E+02  0.99648647114E+02  0.00000000000E+00 0.  1.
         14    1    4    4    0    0  0.10804780636E+03 -0.91406540223E+01  0.27247675368E+03  0.29326005748E+03  0.00000000000E+00 0. -1.
        -11    1    3    3    0    0  0.23375821430E+02  0.84787363109E+02 -0.73277580620E+01  0.88255436143E+02  0.00000000000E+00 0. -1.
         11    1    3    3    0    0 -0.48184934811E+02  0.43272893554E+02 -0.40175833829E+02  0.76213049297E+02  0.00000000000E+00 0.  1.
          1    1    1    2  501    0 -0.76082518387E+02 -0.13804776794E+03  0.47846103040E+03  0.50375658155E+03  0.00000000000E+00 0. -1.
<scales pt_clust_5="13000.00000" pt_clust_6="13000.00000" pt_clust_7="13000.00000" pt_clust_8="13000.00000" pt_clust_9="13000.00000"></scales>
<clustering>
<clus scale="   84.799">  5  6 -1 -1</clus>
<clus scale="   88.195">  7  8 -1 -1</clus>
<clus scale="  157.459">  1  7  2 -1</clus>
<clus scale="  111.627">  5  9 -1 -1</clus>
<clus scale="  290.009">  2  5  1 -1</clus>
</clustering>
</event>
<event>
 9    2  0.4139490E-005  0.2384875E+03  0.7546771E-02  0.1155001E+00
         21   -1    0    0  501  502  0.00000000000E+00  0.00000000000E+00  0.51156796281E+02  0.51156796281E+02  0.00000000000E+00 0. -1.
          2   -1    0    0  502    0 -0.00000000000E+00 -0.00000000000E+00 -0.69973704141E+03  0.69973704141E+03  0.00000000000E+00 0. -1.
         23    2    1    2    0    0  0.27440237679E+02  0.44882466697E+02 -0.36894055425E+03  0.38336879106E+03  0.89928276573E+02 0.  0.
         24    2    1    2    0    0  0.60074037638E+02  0.30283450507E+02 -0.69109003401E+02  0.12745873524E+03  0.83328851343E+02 0.  0.
        -13    1    4    4    0    0  0.11985186564E+02  0.16817901757E+02 -0.74425892167E+02  0.77237943664E+02  0.00000000000E+00 0.  1.
         14    1    4    4    0    0  0.48088851073E+02  0.13465548750E+02  0.53168887670E+01  0.50220791579E+02  0.00000000000E+00 0. -1.
        -11    1    3    3    0    0  0.42864656053E+02 -0.92801343107E+01 -0.11096283505E+03  0.11931575920E+03  0.00000000000E+00 0. -1.
         11    1    3    3    0    0 -0.15424418374E+02  0.54162601008E+02 -0.25797771920E+03  0.26405303186E+03  0.00000000000E+00 0.  1.
          1    1    1    2  501    0 -0.87514275317E+02 -0.75165917204E+02 -0.21053068748E+03  0.24006631139E+03  0.00000000000E+00 0. -1.
<scales pt_clust_5="13000.00000" pt_clust_6="13000.00000" pt_clust_7="13000.00000" pt_clust_8="13000.00000" pt_clust_9="13000.00000"></scales>
<clustering>
<clus scale="   83.329">  5  6 -1 -1</clus>
<clus scale="   89.928">  7  8 -1 -1</clus>
<clus scale="  104.185">  2  7  1 -1</clus>
<clus scale="   81.292">  5  9 -1 -1</clus>
<clus scale="  238.488">  1  5  2 -1</clus>
</clustering>
</event>
<event>
 9    2  0.3726337E-005  0.1823687E+03  0.7546771E-02  0.1188292E+00
         21   -1    0    0  501  502  0.00000000000E+00  0.00000000000E+00  0.24718261828E+02  0.24718261828E+02  0.00000000000E+00 0.  1.
         -1   -1    0    0    0  501 -0.00000000000E+00 -0.00000000000E+00 -0.86466921166E+03  0.86466921166E+03  0.00000000000E+00 0.  1.
         23    2    1    2    0    0  0.52053286818E+02  0.30355091358E+02 -0.27943637066E+03  0.29995135873E+03  0.90857889668E+02 0.  0.
         24    2    1    2    0    0  0.21144152110E+02  0.23877515287E+01 -0.14784603973E+03  0.16904905231E+03  0.79160306334E+02 0.  0.
        -13    1    4    4    0    0  0.31646980025E+02 -0.31349902810E+02 -0.63174965036E+02  0.77300866478E+02  0.00000000000E+00 0.  1.
         14    1    4    4    0    0 -0.10502827915E+02  0.33737654339E+02 -0.84671074694E+02  0.91748185837E+02  0.00000000000E+00 0. -1.
        -11    1    3    3    0    0  0.27680303647E+02  0.61785350035E+02 -0.15066049031E+03  0.16517327880E+03  0.00000000000E+00 0.  1.
         11    1    3    3    0    0  0.24372983170E+02 -0.31430258677E+02 -0.12877588035E+03  0.13477807993E+03  0.00000000000E+00 0. -1.
         -2    1    1    2    0  502 -0.73197438927E+02 -0.32742842886E+02 -0.41266853945E+03  0.42038706245E+03  0.00000000000E+00 0.  1.
<scales pt_clust_5="13000.00000" pt_clust_6="13000.00000" pt_clust_7="13000.00000" pt_clust_8="13000.00000" pt_clust_9="13000.00000"></scales>
<clustering>
<clus scale="   79.160">  5  6 -1 -1</clus>
<clus scale="   80.187">  5  9 -1 -1</clus>
<clus scale="   90.858">  7  8 -1 -1</clus>
<clus scale="  109.024">  2  7  1 -1</clus>
<clus scale="  182.369">  1  5  2 -1</clus>
</clustering>
</event>
<event>
 9    2  0.3726337E-005  0.1888154E+03  0.7546771E-02  0.1175665E+00
          4   -1    0    0  502    0 -0.00000000000E+00  0.00000000000E+00  0.23567239815E+03  0.23567239815E+03  0.00000000000E+00 0. -1.
         21   -1    0    0  501  502  0.00000000000E+00 -0.00000000000E+00 -0.11550564578E+03  0.11550564578E+03  0.00000000000E+00 0. -1.
         23    2    1    2    0    0  0.89411725570E+02  0.29536252662E+02  0.93662934882E+02  0.16051155299E+03  0.90135267133E+02 0.  0.
         24    2    1    2    0    0  0.47784660780E+00  0.14216145894E+02  0.37939623845E+02  0.90042511534E+02  0.80410892821E+02 0.  0.
        -13    1    4    4    0    0 -0.13482373166E+02 -0.15223305186E+02  0.51027625131E+02  0.54930337096E+02  0.00000000000E+00 0.  1.
         14    1    4    4    0    0  0.13960219774E+02  0.29439451081E+02 -0.13088001286E+02  0.35112174437E+02  0.00000000000E+00 0. -1.
        -11    1    3    3    0    0  0.28799766720E+02 -0.24798882324E+02  0.62902601738E+02  0.73492505965E+02  0.00000000000E+00 0. -1.
         11    1    3    3    0    0  0.60611958850E+02  0.54335134986E+02  0.30760333144E+02  0.87019047022E+02  0.00000000000E+00 0.  1.
          3    1    1    2  501    0 -0.89889572178E+02 -0.43752398556E+02 -0.11435806360E+02  0.10062397941E+03  0.00000000000E+00 0. -1.
<scales pt_clust_5="13000.00000" pt_clust_6="13000.00000" pt_clust_7="13000.00000" pt_clust_8="13000.00000" pt_clust_9="13000.00000"></scales>
<clustering>
<clus scale="   80.411">  5  6 -1 -1</clus>
<clus scale="   90.135">  7  8 -1 -1</clus>
<clus scale="   99.972">  5  9 -1 -1</clus>
<clus scale="  130.350">  1  7  2 -1</clus>
<clus scale="  188.815">  2  5  1 -1</clus>
</clustering>
</event>
<event>
 9    2  0.3726337E-005  0.3619831E+03  0.7546771E-02  0.1103419E+00
          2   -1    0    0  502    0 -0.00000000000E+00  0.00000000000E+00  0.75961520194E+03  0.75961520194E+03  0.00000000000E+00 0. -1.
         21   -1    0    0  501  502  0.00000000000E+00 -0.00000000000E+00 -0.75123273176E+02  0.75123273176E+02  0.00000000000E+00 0.  1.
         23    2    1    2    0    0 -0.25964290090E+02  0.33178228995E+02  0.23350820512E+03  0.25644952515E+03  0.97289967891E+02 0.  0.
         24    2    1    2    0    0 -0.54039862859E+02 -0.14120856193E+03  0.91743123077E+02  0.19472014725E+03  0.81479877106E+02 0.  0.
        -11    1    4    4    0    0 -0.35024204883E+02 -0.14472898398E+03  0.92620073321E+02  0.17536148868E+03  0.00000000000E+00 0.  1.
         12    1    4    4    0    0 -0.19015657976E+02  0.35204220519E+01 -0.87695024438E+00  0.19358658565E+02  0.00000000000E+00 0. -1.
        -11    1    3    3    0    0 -0.38050231388E+02 -0.14730231203E+02  0.17582857888E+03  0.18050066197E+03  0.00000000000E+00 0.  1.
         11    1    3    3    0    0  0.12085941298E+02  0.47908460198E+02  0.57679626247E+02  0.75948863189E+02  0.00000000000E+00 0. -1.
          1    1    1    2  501    0  0.80004152949E+02  0.10803033293E+03  0.35924060057E+03  0.38356880272E+03  0.00000000000E+00 0. -1.
<scales pt_clust_5="13000.00000" pt_clust_6="13000.00000" pt_clust_7="13000.00000" pt_clust_8="13000.00000" pt_clust_9="13000.00000"></scales>
<clustering>
<clus scale="   81.480">  5  6 -1 -1</clus>
<clus scale="   97.290">  7  8 -1 -1</clus>
<clus scale="  106.020">  1  7  2 -1</clus>
<clus scale="  145.502">  5  9 -1 -1</clus>
<clus scale="  361.983">  2  5  1 -1</clus>
</clustering>
</event>
<event>
 9    2  0.3726337E-005  0.2099812E+03  0.7546771E-02  0.1167358E+00
         21   -1    0    0  501  502  0.00000000000E+00  0.00000000000E+00  0.82974704940E+02  0.82974704940E+02  0.00000000000E+00 0.  1.
         -3   -1    0    0    0  501 -0.00000000000E+00 -0.00000000000E+00 -0.33987215285E+03  0.33987215285E+03  0.00000000000E+00 0.  1.
         23    2    1    2    0    0 -0.47254440860E+02  0.50946633436E+02 -0.14539296547E+03  0.18509625398E+03  0.91065730045E+02 0.  0.
         24    2    1    2    0    0 -0.41620172331E+02 -0.35438946162E+02 -0.45793774543E+01  0.97850055886E+02  0.81027804420E+02 0.  0.
        -11    1    4    4    0    0 -0.29866247807E+02 -0.49763795874E+02  0.24800459429E+02  0.63114902565E+02  0.00000000000E+00 0.  1.
         12    1    4    4    0    0 -0.11753924524E+02  0.14324849712E+02 -0.29379836883E+02  0.34735153322E+02  0.00000000000E+00 0. -1.
        -11    1    3    3    0    0 -0.73592872492E+02  0.43532018354E+02 -0.95434737489E+02  0.12813561809E+03  0.00000000000E+00 0.  1.
         11    1    3    3    0    0  0.26338431632E+02  0.74146150823E+01 -0.49958227980E+02  0.56960635886E+02  0.00000000000E+00 0. -1.
         -4    1    1    2    0  502  0.88874613191E+02 -0.15507687274E+02 -0.10692510499E+03  0.13990054793E+03  0.00000000000E+00 0.  1.
<scales pt_clust_5="13000.00000" pt_clust_6="13000.00000" pt_clust_7="13000.00000" pt_clust_8="13000.00000" pt_clust_9="13000.00000"></scales>
<clustering>
<clus scale="   81.028">  5  6 -1 -1</clus>
<clus scale="   90.217">  5  9 -1 -1</clus>
<clus scale="   91.066">  7  8 -1 -1</clus>
<clus scale="  114.549">  2  7  1 -1</clus>
<clus scale="  209.981">  1  5  2 -1</clus>
</clustering>
</event>
<event>
 9    2  0.3726337E-005  0.2204831E+03  0.7546771E-02  0.1159538E+00
         21   -1    0    0  501  502  0.00000000000E+00  0.00000000000E+00  0.42063292614E+03  0.42063292614E+03  0.00000000000E+00 0. -1.
          2   -1    0    0  502    0 -0.00000000000E+00 -0.00000000000E+00 -0.75241919134E+02  0.75241919134E+02  0.00000000000E+00 0. -1.
         23    2    1    2    0    0 -0.51919055457E+02 -0.68479355397E+02  0.53532176060E+02  0.13009569522E+03  0.81695689024E+02 0.  0.
         24    2    1    2    0    0 -0.22422316175E+02 -0.36411232174E+02  0.13699947121E+03  0.16450794944E+03  0.80408160209E+02 0.  0.
        -11    1    4    4    0    0 -0.47092711690E+02 -0.37874759285E+01  0.52488419847E+02  0.70619421453E+02  0.00000000000E+00 0.  1.
         12    1    4    4    0    0  0.24670395515E+02 -0.32623756246E+02  0.84511051361E+02  0.93888527992E+02  0.00000000000E+00 0. -1.
        -13    1    3    3    0    0  0.60075958501E+01 -0.24738802088E+02  0.51537462193E+02  0.57482254183E+02  0.00000000000E+00 0.  1.
         13    1    3    3    0    0 -0.57926651307E+02 -0.43740553309E+02  0.19947138670E+01  0.72613441035E+02  0.00000000000E+00 0. -1.
          1    1    1    2  501    0  0.74341371632E+02  0.10489058757E+03  0.15485935974E+03  0.20127120061E+03  0.00000000000E+00 0. -1.
<scales pt_clust_5="13000.00000" pt_clust_6="13000.00000" pt_clust_7="13000.00000" pt_clust_8="13000.00000" pt_clust_9="13000.00000"></scales>
<clustering>
<clus scale="   80.408">  5  6 -1 -1</clus>
<clus scale="   81.696">  7  8 -1 -1</clus>
<clus scale="  118.571">  2  7  1 -1</clus>
<clus scale="   74.656">  5  9 -1 -1</clus>
<clus scale="  220.483">  1  5  2 -1</clus>
</clustering>
</event>
<event>
 9    2  0.3726337E-005  0.5244340E+03  0.7546771E-02  0.1051449E+00
         21   -1    0    0  501  502  0.00000000000E+00  0.00000000000E+00  0.33239070935E+03  0.33239070935E+03  0.00000000000E+00 0. -1.
          2   -1    0    0  502    0 -0.00000000000E+00 -0.00000000000E+00 -0.33579295654E+03  0.33579295654E+03  0.00000000000E+00 0. -1.
         23    2    1    2    0    0 -0.80822590953E+02  0.75924982732E+02 -0.17689460942E+02  0.14355504034E+03  0.89432870735E+02 0.  0.
         24    2    1    2    0    0 -0.14512929924E+03 -0.23067651171E+02 -0.16200839039E+03  0.23320403115E+03  0.80887400499E+02 0.  0.
        -13    1    4    4    0    0 -0.88844968715E+02  0.10258901129E+02 -0.13608630322E+03  0.16284396041E+03  0.00000000000E+00 0.  1.
         14    1    4    4    0    0 -0.56284330521E+02 -0.33326552300E+02 -0.25922087163E+02  0.70360070731E+02  0.00000000000E+00 0. -1.
        -13    1    3    3    0    0 -0.44385121951E+02  0.31265676788E+02  0.35709616335E+02  0.64982753823E+02  0.00000000000E+00 0. -1.
         13    1    3    3    0    0 -0.36437469002E+02  0.44659305944E+02 -0.53399077277E+02  0.78572286518E+02  0.00000000000E+00 0.  1.
          1    1    1    2  501    0  0.22595189019E+03 -0.52857331561E+02  0.17629560414E+03  0.29142459440E+03  0.00000000000E+00 0. -1.
<scales pt_clust_5="13000.00000" pt_clust_6="13000.00000" pt_clust_7="13000.00000" pt_clust_8="13000.00000" pt_clust_9="13000.00000"></scales>
<clustering>
<clus scale="   80.887">  5  6 -1 -1</clus>
<clus scale="   89.433">  7  8 -1 -1</clus>
<clus scale="  142.461">  2  7  1 -1</clus>
<clus scale="  210.770">  5  9 -1 -1</clus>
<clus scale="  524.434">  1  5  2 -1</clus>
</clustering>
</event>
<event>
 9    2  0.3726337E-005  0.2748631E+03  0.7546771E-02  0.1132508E+00
          2   -1    0    0  502    0 -0.00000000000E+00  0.00000000000E+00  0.55919862369E+03  0.55919862369E+03  0.00000000000E+00 0. -1.
         21   -1    0    0  501  502  0.00000000000E+00 -0.00000000000E+00 -0.68718256965E+02  0.68718256965E+02  0.00000000000E+00 0. -1.
         23    2    1    2    0    0  0.27477032640E+02  0.64440722652E+02  0.13144401928E+03  0.17574787850E+03  0.93285543022E+02 0.  0.
         24    2    1    2    0    0  0.20698054726E+02  0.90928685560E+01 -0.80436026498E-01  0.82448983417E+02  0.79288956788E+02 0.  0.
        -11    1    4    4    0    0 -0.47952476706E+01  0.41068129892E+02  0.28840128077E+01  0.41447596106E+02  0.00000000000E+00 0.  1.
         12    1    4    4    0    0  0.25493302396E+02 -0.31975261336E+02 -0.29644488342E+01  0.41001387312E+02  0.00000000000E+00 0. -1.
        -11    1    3    3    0    0  0.13179789139E+02 -0.23740458589E+02  0.34813037636E+02  0.44150467780E+02  0.00000000000E+00 0.  1.
         11    1    3    3    0    0  0.14297243501E+02  0.88181181241E+02  0.96630981639E+02  0.13159741072E+03  0.00000000000E+00 0. -1.
          1    1    1    2  501    0 -0.48175087366E+02 -0.73533591208E+02  0.35911678348E+03  0.36972001874E+03  0.00000000000E+00 0. -1.
<scales pt_clust_5="13000.00000" pt_clust_6="13000.00000" pt_clust_7="13000.00000" pt_clust_8="13000.00000" pt_clust_9="13000.00000"></scales>
<clustering>
<clus scale="   79.289">  5  6 -1 -1</clus>
<clus scale="   87.909">  5  9 -1 -1</clus>
<clus scale="   93.286">  7  8 -1 -1</clus>
<clus scale="  116.661">  1  7  2 -1</clus>
<clus scale="  274.863">  2  5  1 -1</clus>
</clustering>
</event>
<event>
 9    2  0.3726337E-005  0.4788156E+03  0.7546771E-02  0.1066032E+00
          2   -1    0    0  502    0 -0.00000000000E+00  0.00000000000E+00  0.32157373756E+03  0.32157373756E+03  0.00000000000E+00 0. -1.
         21   -1    0    0  501  502  0.00000000000E+00 -0.00000000000E+00 -0.39644940449E+03  0.39644940449E+03  0.00000000000E+00 0. -1.
         23    2    1    2    0    0 -0.79531704006E+02 -0.27820895796E+02  0.14511115684E+03  0.19108998170E+03  0.91426686916E+02 0.  0.
         24    2    1    2    0    0  0.10603079118E+03 -0.38933540321E+02  0.11711520433E+03  0.18226501022E+03  0.82135337257E+02 0.  0.
        -11    1    4    4    0    0  0.11519530214E+03 -0.30106325086E+02  0.81081159417E+02  0.14405034834E+03  0.00000000000E+00 0.  1.
         12    1    4    4    0    0 -0.91645109592E+01 -0.88272152351E+01  0.36034044911E+02  0.38214661879E+02  0.00000000000E+00 0. -1.
        -11    1    3    3    0    0 -0.36153284282E+02  0.36080118352E+01  0.13064581651E+03  0.13560386088E+03  0.00000000000E+00 0. -1.
         11    1    3    3    0    0 -0.43378419724E+02 -0.31428907631E+02  0.14465340331E+02  0.55486120819E+02  0.00000000000E+00 0.  1.
          1    1    1    2  501    0 -0.26499087175E+02  0.66754436117E+02 -0.33710202810E+03  0.34466815013E+03  0.00000000000E+00 0. -1.
<scales pt_clust_5="13000.00000" pt_clust_6="13000.00000" pt_clust_7="13000.00000" pt_clust_8="13000.00000" pt_clust_9="13000.00000"></scales>
<clustering>
<clus scale="   82.135">  5  6 -1 -1</clus>
<clus scale="   71.822">  5  9 -1 -1</clus>
<clus scale="   91.427">  7  8 -1 -1</clus>
<clus scale="  124.331">  1  7  2 -1</clus>
<clus scale="  478.816">  2  5  1 -1</clus>
</clustering>
</event>
<event>
 9    2  0.3726337E-005  0.1465656E+03  0.7546771E-02  0.1223212E+00
         -1   -1    0    0    0  501 -0.00000000000E+00  0.00000000000E+00  0.39523027240E+03  0.39523027240E+03  0.00000000000E+00 0.  1.
         21   -1    0    0  501  502  0.00000000000E+00 -0.00000000000E+00 -0.13171055148E+03  0.13171055148E+03  0.00000000000E+00 0.  1.
         23    2    1    2    0    0 -0.17978893323E+02 -0.28072018988E+02  0.34520789491E+03  0.35914800106E+03  0.93314077728E+02 0.  0.
         24    2    1    2    0    0 -0.26999775099E+02 -0.27108803079E+00 -0.18733200387E+02  0.85392937923E+02  0.78815986363E+02 0.  0.
        -13    1    4    4    0    0 -0.33737949488E+02 -0.35252568888E+01 -0.45979182508E+02  0.57138094962E+02  0.00000000000E+00 0.  1.
         14    1    4    4    0    0  0.67381743887E+01  0.32541688580E+01  0.27245982121E+02  0.28254842961E+02  0.00000000000E+00 0. -1.
        -13    1    3    3    0    0  0.34269306168E+02 -0.12366778928E+02  0.73704079129E+02  0.82216870815E+02  0.00000000000E+00 0. -1.
         13    1    3    3    0    0 -0.52248199491E+02 -0.15705240060E+02  0.27150381578E+03  0.27693113025E+03  0.00000000000E+00 0.  1.
         -2    1    1    2    0  502  0.44978668422E+02  0.28343107019E+02 -0.62954973607E+02  0.82399884893E+02  0.00000000000E+00 0.  1.
<scales pt_clust_5="13000.00000" pt_clust_6="13000.00000" pt_clust_7="13000.00000" pt_clust_8="13000.00000" pt_clust_9="13000.00000"></scales>
<clustering>
<clus scale="   78.816">  5  6 -1 -1</clus>
<clus scale="   53.164">  5  9 -1 -1</clus>
<clus scale="   93.314">  7  8 -1 -1</clus>
<clus scale="   99.090">  1  7  2 -1</clus>
<clus scale="  146.566">  2  5  1 -1</clus>
</clustering>
</event>
<event>
 9    2  0.3726337E-005  0.2753232E+03  0.7546771E-02  0.1122474E+00
         21   -1    0    0  501  502  0.00000000000E+00  0.00000000000E+00  0.30906502566E+03  0.30906502566E+03  0.00000000000E+00 0.  1.
         -3   -1    0    0    0  501 -0.00000000000E+00 -0.00000000000E+00 -0.42668982152E+03  0.42668982152E+03  0.00000000000E+00 0.  1.
         23    2    1    2    0    0 -0.69468883689E+02 -0.94711418116E+02  0.24127899743E+03  0.28341115915E+03  0.91160035142E+02 0.  0.
         24    2    1    2    0    0  0.13508234520E+03  0.57050846875E+01 -0.26375415147E+03  0.30646460090E+03  0.77939150690E+02 0.  0.
        -13    1    4    4    0    0  0.91730009461E+02  0.39264257035E+02 -0.18950218902E+03  0.21416618818E+03  0.00000000000E+00 0.  1.
         14    1    4    4    0    0  0.43352335740E+02 -0.33559172348E+02 -0.74251962451E+02  0.92298412720E+02  0.00000000000E+00 0. -1.
        -11    1    3    3    0    0 -0.13378710259E+02 -0.63253805491E+02  0.19140269223E+03  0.20202728625E+03  0.00000000000E+00 0.  1.
         11    1    3    3    0    0 -0.56090173430E+02 -0.31457612625E+02  0.49876305201E+02  0.81383872899E+02  0.00000000000E+00 0. -1.
         -4    1    1    2    0  502 -0.65613461513E+02  0.89006333429E+02 -0.95149641825E+02  0.14587908713E+03  0.00000000000E+00 0.  1.
<scales pt_clust_5="13000.00000" pt_clust_6="13000.00000" pt_clust_7="13000.00000" pt_clust_8="13000.00000" pt_clust_9="13000.00000"></scales>
<clustering>
<clus scale="   77.939">  5  6 -1 -1</clus>
<clus scale="   91.160">  7  8 -1 -1</clus>
<clus scale="  110.577">  5  9 -1 -1</clus>
<clus scale="  148.682">  2  7  1 -1</clus>
<clus scale="  275.323">  1  5  2 -1</clus>
</clustering>
</event>
<event>
 9    2  0.3726337E-005  0.2514175E+03  0.7546771E-02  0.1147756E+00
          2   -1    0    0  502    0 -0.00000000000E+00  0.00000000000E+00  0.12201392846E+04  0.12201392846E+04  0.00000000000E+00 0. -1.
         21   -1    0    0  501  502  0.00000000000E+00 -0.00000000000E+00 -0.26183525699E+02  0.26183525699E+02  0.00000000000E+00 0. -1.
         23    2    1    2    0    0  0.41917423466E+02 -0.31917936730E+02  0.38462735313E+03  0.39884228695E+03  0.91439291358E+02 0.  0.
         24    2    1    2    0    0  0.66378166693E+02  0.16445708923E+02  0.17841506063E+03  0.20715328377E+03  0.80025163295E+02 0.  0.
        -11    1    4    4    0    0  0.20483445471E+02 -0.27698788654E+02  0.10212543054E+03  0.10777939503E+03  0.00000000000E+00 0.  1.
         12    1    4    4    0    0  0.45894721222E+02  0.44144497577E+02  0.76289630092E+02  0.99373888734E+02  0.00000000000E+00 0. -1.
        -11    1    3    3    0    0 -0.13845479599E+01 -0.54165906592E+02  0.24655921130E+03  0.25244268080E+03  0.00000000000E+00 0. -1.
         11    1    3    3    0    0  0.43301971426E+02  0.22247969862E+02  0.13806814183E+03  0.14639960615E+03  0.00000000000E+00 0.  1.
          1    1    1    2  501    0 -0.10829559016E+03  0.15472227807E+02  0.63091334511E+03  0.64032723956E+03  0.00000000000E+00 0. -1.
<scales pt_clust_5="13000.00000" pt_clust_6="13000.00000" pt_clust_7="13000.00000" pt_clust_8="13000.00000" pt_clust_9="13000.00000"></scales>
<clustering>
<clus scale="   80.025">  5  6 -1 -1</clus>
<clus scale="   91.439">  7  8 -1 -1</clus>
<clus scale="  105.532">  1  7  2 -1</clus>
<clus scale="   76.665">  5  9 -1 -1</clus>
<clus scale="  251.418">  2  5  1 -1</clus>
</clustering>
</event>
<event>
 9    2  0.3726337E-005  0.7747824E+03  0.7546771E-02  0.1003502E+00
         21   -1    0    0  501  502  0.00000000000E+00  0.00000000000E+00  0.11947460793E+03  0.11947460793E+03  0.00000000000E+00 0. -1.
          2   -1    0    0  502    0 -0.00000000000E+00 -0.00000000000E+00 -0.23983126544E+04  0.23983126544E+04  0.00000000000E+00 0. -1.
         23    2    1    2    0    0  0.15880656422E+03  0.22105048817E+02 -0.10424792480E+04  0.10587222205E+04  0.91769274021E+02 0.  0.
         24    2    1    2    0    0 -0.25826868294E+03 -0.31751210723E+03 -0.45192925424E+03  0.61497514550E+03  0.80235453030E+02 0.  0.
        -13    1    4    4    0    0 -0.34876703517E+02 -0.92684497606E+02 -0.89117222641E+02  0.13322417167E+03  0.00000000000E+00 0.  1.
         14    1    4    4    0    0 -0.22339197943E+03 -0.22482760962E+03 -0.36281203160E+03  0.48175097384E+03  0.00000000000E+00 0. -1.
        -11    1    3    3    0    0  0.67846684525E+02  0.55601451486E+02 -0.51190282400E+03  0.51936422213E+03  0.00000000000E+00 0.  1.
         11    1    3    3    0    0  0.90959879696E+02 -0.33496402668E+02 -0.53057642396E+03  0.53935799833E+03  0.00000000000E+00 0. -1.
          1    1    1    2  501    0  0.99462118722E+02  0.29540705841E+03 -0.78442954424E+03  0.84408989634E+03  0.00000000000E+00 0. -1.
<scales pt_clust_5="13000.00000" pt_clust_6="13000.00000" pt_clust_7="13000.00000" pt_clust_8="13000.00000" pt_clust_9="13000.00000"></scales>
<clustering>
<clus scale="   80.235">  5  6 -1 -1</clus>
<clus scale="   91.769">  7  8 -1 -1</clus>
<clus scale="  184.742">  2  7  1 -1</clus>
<clus scale="  365.403">  5  9 -1 -1</clus>
<clus scale="  774.782">  1  5  2 -1</clus>
</clustering>
</event>
<event>
 9    2  0.3726337E-005  0.2980696E+03  0.7546771E-02  0.1115330E+00
          2   -1    0    0  502    0 -0.00000000000E+00  0.00000000000E+00  0.10623945511E+03  0.10623945511E+03  0.00000000000E+00 0. -1.
         21   -1    0    0  501  502  0.00000000000E+00 -0.00000000000E+00 -0.48981905641E+03  0.48981905641E+03  0.00000000000E+00 0. -1.
         23    2    1    2    0    0 -0.36441735621E+02 -0.10112221860E+03 -0.20583409030E+03  0.24901535348E+03  0.89929251909E+02 0.  0.
         24    2    1    2    0    0  0.70897167062E+02  0.39058719059E+02 -0.23135273078E+03  0.25808930067E+03  0.80833218715E+02 0.  0.
        -13    1    4    4    0    0  0.83485520110E+02  0.36998911705E+02 -0.14901268138E+03  0.17476707569E+03  0.00000000000E+00 0.  1.
         14    1    4    4    0    0 -0.12588353048E+02  0.20598073539E+01 -0.82340049405E+02  0.83322224975E+02  0.00000000000E+00 0. -1.
        -13    1    3    3    0    0 -0.58861344862E+02 -0.96116988013E+02 -0.14276305938E+03  0.18189124340E+03  0.00000000000E+00 0. -1.
         13    1    3    3    0    0  0.22419609241E+02 -0.50052305826E+01 -0.63071030920E+02  0.67124110073E+02  0.00000000000E+00 0.  1.
          1    1    1    2  501    0 -0.34455431441E+02  0.62063499537E+02  0.53607219777E+02  0.88953857380E+02  0.00000000000E+00 0. -1.
<scales pt_clust_5="13000.00000" pt_clust_6="13000.00000" pt_clust_7="13000.00000" pt_clust_8="13000.00000" pt_clust_9="13000.00000"></scales>
<clustering>
<clus scale="   80.833">  5  6 -1 -1</clus>
<clus scale="   70.986">  5  9 -1 -1</clus>
<clus scale="   89.929">  7  8 -1 -1</clus>
<clus scale="  140.146">  1  7  2 -1</clus>
<clus scale="  298.070">  2  5  1 -1</clus>
</clustering>
</event>
<event>
 9    2  0.3726337E-005  0.4054820E+03  0.7546771E-02  0.1096302E+00
         21   -1    0    0  501  502  0.00000000000E+00  0.00000000000E+00  0.68349522806E+02  0.68349522806E+02  0.00000000000E+00 0. -1.
          2   -1    0    0  502    0 -0.00000000000E+00 -0.00000000000E+00 -0.90212209070E+03  0.90212209070E+03  0.00000000000E+00 0. -1.
         23    2    1    2    0    0 -0.14859590694E+01  0.10487344649E+01 -0.13758105473E+03  0.16480525069E+03  0.90713373403E+02 0.  0.
         24    2    1    2    0    0 -0.10650481996E+03  0.74350325934E+02 -0.64711565617E+03  0.66511222235E+03  0.82123980724E+02 0.  0.
        -13    1    4    4    0    0 -0.25939864915E+02  0.45646065290E+02 -0.11832439066E+03  0.12944922284E+03  0.00000000000E+00 0.  1.
         14    1    4    4    0    0 -0.80564955047E+02  0.28704260644E+02 -0.52879126551E+03  0.53566299951E+03  0.00000000000E+00 0. -1.
        -13    1    3    3    0    0  0.26767165546E+02 -0.70309580879E+01 -0.39192455311E+01  0.27951314969E+02  0.00000000000E+00 0.  1.
         13    1    3    3    0    0 -0.28253124615E+02  0.80796925529E+01 -0.13366180920E+03  0.13685393572E+03  0.00000000000E+00 0. -1.
          1    1    1    2  501    0  0.10799077903E+03 -0.75399060398E+02 -0.49075856989E+02  0.14055414047E+03  0.00000000000E+00 0. -1.
<scales pt_clust_5="13000.00000" pt_clust_6="13000.00000" pt_clust_7="13000.00000" pt_clust_8="13000.00000" pt_clust_9="13000.00000"></scales>
<clustering>
<clus scale="   82.124">  5  6 -1 -1</clus>
<clus scale="   90.713">  7  8 -1 -1</clus>
<clus scale="   90.732">  2  7  1 -1</clus>
<clus scale="  131.479">  5  9 -1 -1</clus>
<clus scale="  405.482">  1  5  2 -1</clus>
</clustering>
</event>
<event>
 9    2  0.3726337E-005  0.2328442E+03  0.7546771E-02  0.1153073E+00
          2   -1    0    0  502    0 -0.00000000000E+00  0.00000000000E+00  0.83226103312E+03  0.83226103312E+03  0.00000000000E+00 0. -1.
         21   -1    0    0  501  502  0.00000000000E+00 -0.00000000000E+00 -0.53674902913E+02  0.53674902913E+02  0.00000000000E+00 0. -1.
         23    2    1    2    0    0 -0.63558446109E+02  0.36780773709E+02  0.62134834208E+02  0.13259743326E+03  0.91262480236E+02 0.  0.
         24    2    1    2    0    0 -0.13068483165E+02  0.57376697828E+02  0.21261228572E+03  0.23508078308E+03  0.81216499752E+02 0.  0.
        -11    1    4    4    0    0 -0.15294021412E+02 -0.17532146058E+02  0.32227973812E+02  0.39748277100E+02  0.00000000000E+00 0.  1.
         12    1    4    4    0    0  0.22255382472E+01  0.74908843886E+02  0.18038431190E+03  0.19533250598E+03  0.00000000000E+00 0. -1.
        -13    1    3    3    0    0  0.11459630247E+02  0.40006442993E+02  0.16750258753E+02  0.44859890489E+02  0.00000000000E+00 0.  1.
         13    1    3    3    0    0 -0.75018076355E+02 -0.32256692842E+01  0.45384575455E+02  0.87737542772E+02  0.00000000000E+00 0. -1.
          1    1    1    2  501    0  0.76626929273E+02 -0.94157471536E+02  0.50383901029E+03  0.51825771969E+03  0.00000000000E+00 0. -1.
<scales pt_clust_5="13000.00000" pt_clust_6="13000.00000" pt_clust_7="13000.00000" pt_clust_8="13000.00000" pt_clust_9="13000.00000"></scales>
<clustering>
<clus scale="   81.216">  5  6 -1 -1</clus>
<clus scale="   91.262">  7  8 -1 -1</clus>
<clus scale="  117.138">  1  7  2 -1</clus>
<clus scale="   75.860">  5  9 -1 -1</clus>
<clus scale="  232.844">  2  5  1 -1</clus>
</clustering>
</event>
<event>
 9    2  0.3726337E-005  0.8261354E+03  0.7546771E-02  0.1016358E+00
         21   -1    0    0  501  502  0.00000000000E+00  0.00000000000E+00  0.10983302319E+03  0.10983302319E+03  0.00000000000E+00 0. -1.
          2   -1    0    0  502    0 -0.00000000000E+00 -0.00000000000E+00 -0.19896733757E+04  0.19896733757E+04  0.00000000000E+00 0. -1.
         23    2    1    2    0    0 -0.32018011415E+02 -0.34423070159E+02 -0.13989325450E+03  0.17339229500E+03  0.91020132359E+02 0.  0.
         24    2    1    2    0    0 -0.26486742253E+03 -0.49175520867E+02 -0.17492825712E+03  0.33099227229E+03  0.79893715700E+02 0.  0.
        -13    1    4    4    0    0 -0.28507068943E+02 -0.27575622813E+02 -0.70686612514E+01  0.40286895203E+02  0.00000000000E+00 0.  1.
         14    1    4    4    0    0 -0.23636035359E+03 -0.21599898054E+02 -0.16785959587E+03  0.29070537709E+03  0.00000000000E+00 0. -1.
        -11    1    3    3    0    0 -0.18898625337E+02  0.29140218927E+02 -0.69179400805E+02  0.77408655165E+02  0.00000000000E+00 0.  1.
         11    1    3    3    0    0 -0.13119386078E+02 -0.63563289086E+02 -0.70713853698E+02  0.95983639832E+02  0.00000000000E+00 0. -1.
          1    1    1    2  501    0  0.29688543394E+03  0.83598591026E+02 -0.15650188409E+04  0.15951218316E+04  0.00000000000E+00 0. -1.
<scales pt_clust_5="13000.00000" pt_clust_6="13000.00000" pt_clust_7="13000.00000" pt_clust_8="13000.00000" pt_clust_9="13000.00000"></scales>
<clustering>
<clus scale="   79.894">  5  6 -1 -1</clus>
<clus scale="   91.020">  7  8 -1 -1</clus>
<clus scale="  102.444">  2  7  1 -1</clus>
<clus scale="  274.632">  5  9 -1 -1</clus>
<clus scale="  826.135">  1  5  2 -1</clus>
</clustering>
</event>
<event>
 9    2  0.3726337E-005  0.2488184E+03  0.7546771E-02  0.1151735E+00
         -1   -1    0    0    0  501 -0.00000000000E+00  0.00000000000E+00  0.90591592017E+02  0.90591592017E+02  0.00000000000E+00 0.  1.
         21   -1    0    0  501  502  0.00000000000E+00 -0.00000000000E+00 -0.34517124221E+03  0.34517124221E+03  0.00000000000E+00 0. -1.
         23    2    1    2    0    0 -0.34063446521E+02  0.19761651249E+02 -0.38760367838E+02  0.10638681923E+03  0.90911759095E+02 0.  0.
         24    2    1    2    0    0 -0.56718658895E+02  0.95349285066E+01 -0.21163808612E+03  0.23389218049E+03  0.81283156147E+02 0.  0.
        -11    1    4    4    0    0 -0.62638104444E+00 -0.27254119076E+02 -0.10001303538E+03  0.10366188599E+03  0.00000000000E+00 0.  1.
         12    1    4    4    0    0 -0.56092277851E+02  0.36789047582E+02 -0.11162505073E+03  0.13023029451E+03  0.00000000000E+00 0. -1.
        -13    1    3    3    0    0 -0.55541109689E+02  0.36364680524E+02 -0.10521100032E+02  0.67215313738E+02  0.00000000000E+00 0.  1.
         13    1    3    3    0    0  0.21477663168E+02 -0.16603029275E+02 -0.28239267806E+02  0.39171505491E+02  0.00000000000E+00 0. -1.
         -2    1    1    2    0  502  0.90782105417E+02 -0.29296579756E+02 -0.41811962386E+01  0.95483834502E+02  0.00000000000E+00 0.  1.
<scales pt_clust_5="13000.00000" pt_clust_6="13000.00000" pt_clust_7="13000.00000" pt_clust_8="13000.00000" pt_clust_9="13000.00000"></scales>
<clustering>
<clus scale="   81.283">  5  6 -1 -1</clus>
<clus scale="   90.912">  7  8 -1 -1</clus>
<clus scale="   95.392">  5  9 -1 -1</clus>
<clus scale="   99.075">  1  7  2 -1</clus>
<clus scale="  248.818">  2  5  1 -1</clus>
</clustering>
</event>
<event>
 9    2  0.3726337E-005  0.4499035E+03  0.7546771E-02  0.1073489E+00
         -1   -1    0    0    0  501 -0.00000000000E+00  0.00000000000E+00  0.94399802322E+03  0.94399802322E+03  0.00000000000E+00 0.  1.
         21   -1    0    0  501  502  0.00000000000E+00 -0.00000000000E+00 -0.87023702585E+02  0.87023702585E+02  0.00000000000E+00 0.  1.
         23    2    1    2    0    0 -0.68230270799E+02 -0.40509293573E+02  0.15644746209E+03  0.19846478800E+03  0.92822901066E+02 0.  0.
         24    2    1    2    0    0 -0.13028510233E+03 -0.10031673946E+03  0.43698292507E+03  0.47381506707E+03  0.80678280049E+02 0.  0.
        -11    1    4    4    0    0 -0.17818396748E+02 -0.39857265254E+02  0.19908504591E+03  0.20381597671E+03  0.00000000000E+00 0.  1.
         12    1    4    4    0    0 -0.11246670558E+03 -0.60459474206E+02  0.23789787916E+03  0.26999909036E+03  0.00000000000E+00 0. -1.
        -13    1    3    3    0    0 -0.31871181353E+02 -0.59925669323E+02  0.49960544235E+02  0.84278787515E+02  0.00000000000E+00 0.  1.
         13    1    3    3    0    0 -0.36359089446E+02  0.19416375751E+02  0.10648691785E+03  0.11418600048E+03  0.00000000000E+00 0. -1.
         -2    1    1    2    0  502  0.19851537313E+03  0.14082603303E+03  0.26354393348E+03  0.35874187074E+03  0.00000000000E+00 0.  1.
<scales pt_clust_5="13000.00000" pt_clust_6="13000.00000" pt_clust_7="13000.00000" pt_clust_8="13000.00000" pt_clust_9="13000.00000"></scales>
<clustering>
<clus scale="   80.678">  5  6 -1 -1</clus>
<clus scale="   92.823">  7  8 -1 -1</clus>
<clus scale="  122.117">  1  7  2 -1</clus>
<clus scale="  211.307">  5  9 -1 -1</clus>
<clus scale="  449.904">  2  5  1 -1</clus>
</clustering>
</event>
<event>
 9    2  0.3969122E-005  0.1853134E+03  0.7546771E-02  0.1180872E+00
         -3   -1    0    0    0  501 -0.00000000000E+00  0.00000000000E+00  0.19301996456E+03  0.19301996456E+03  0.00000000000E+00 0.  1.
         21   -1    0    0  501  502  0.00000000000E+00 -0.00000000000E+00 -0.13255983224E+03  0.13255983224E+03  0.00000000000E+00 0.  1.
         23    2    1    2    0    0  0.40394512496E+02 -0.61616457490E+02  0.67831336615E+02  0.14011980299E+03  0.98000839225E+02 0.  0.
         24    2    1    2    0    0  0.36938003193E+02  0.16498924111E+02  0.12016865021E+02  0.93853187115E+02  0.83829500237E+02 0.  0.
        -13    1    4    4    0    0  0.44718927245E+02  0.38109874838E+02 -0.12699657103E+02  0.60111781746E+02  0.00000000000E+00 0.  1.
         14    1    4    4    0    0 -0.77809240521E+01 -0.21610950727E+02  0.24716522124E+02  0.33741405370E+02  0.00000000000E+00 0. -1.
        -13    1    3    3    0    0  0.40652598406E+02 -0.86266844888E+02  0.64764316108E+02  0.11527800712E+03  0.00000000000E+00 0.  1.
         13    1    3    3    0    0 -0.25808590967E+00  0.24650387398E+02  0.30670205069E+01  0.24841795869E+02  0.00000000000E+00 0. -1.
         -4    1    1    2    0  502 -0.77332515689E+02  0.45117533379E+02 -0.19388069323E+02  0.91606806696E+02  0.00000000000E+00 0.  1.
<scales pt_clust_5="13000.00000" pt_clust_6="13000.00000" pt_clust_7="13000.00000" pt_clust_8="13000.00000" pt_clust_9="13000.00000"></scales>
<clustering>
<clus scale="   83.830">  5  6 -1 -1</clus>
<clus scale="   89.532">  5  9 -1 -1</clus>
<clus scale="   98.001">  7  8 -1 -1</clus>
<clus scale="  122.607">  1  7  2 -1</clus>
<clus scale="  185.313">  2  5  1 -1</clus>
</clustering>
</event>
<event>
 9    2  0.3726337E-005  0.1639166E+03  0.7546771E-02  0.1203277E+00
         21   -1    0    0  501  502  0.00000000000E+00  0.00000000000E+00  0.66933418058E+02  0.66933418058E+02  0.00000000000E+00 0. -1.
         -1   -1    0    0    0  501 -0.00000000000E+00 -0.00000000000E+00 -0.40797586950E+03  0.40797586950E+03  0.00000000000E+00 0.  1.
         23    2    1    2    0    0 -0.25733611914E+02 -0.50206334750E+02 -0.13987579347E+02  0.10907662388E+03  0.92299310234E+02 0.  0.
         24    2    1    2    0    0  0.43517047996E+02  0.87950903356E+01 -0.29861537046E+03  0.31254151042E+03  0.80870075919E+02 0.  0.
        -11    1    4    4    0    0  0.62345255327E+02  0.18316991029E+02 -0.26502110338E+03  0.27287108359E+03  0.00000000000E+00 0.  1.
         12    1    4    4    0    0 -0.18828207332E+02 -0.95219006933E+01 -0.33594267078E+02  0.39670426827E+02  0.00000000000E+00 0. -1.
        -13    1    3    3    0    0 -0.50839315612E+02 -0.49155654170E+02  0.13327174815E+02  0.71961989531E+02  0.00000000000E+00 0. -1.
         13    1    3    3    0    0  0.25105703698E+02 -0.10506805806E+01 -0.27314754161E+02  0.37114634347E+02  0.00000000000E+00 0.  1.
         -2    1    1    2    0  502 -0.17783436082E+02  0.41411244415E+02 -0.28439501641E+02  0.53291153266E+02  0.00000000000E+00 0.  1.
<scales pt_clust_5="13000.00000" pt_clust_6="13000.00000" pt_clust_7="13000.00000" pt_clust_8="13000.00000" pt_clust_9="13000.00000"></scales>
<clustering>
<clus scale="   80.870">  5  6 -1 -1</clus>
<clus scale="   45.068">  5  9 -1 -1</clus>
<clus scale="   92.299">  7  8 -1 -1</clus>
<clus scale="  108.176">  2  7  1 -1</clus>
<clus scale="  163.917">  1  5  2 -1</clus>
</clustering>
</event>
<event>
 9    2  0.3726337E-005  0.1170212E+03  0.7546771E-02  0.1260169E+00
         21   -1    0    0  501  502  0.00000000000E+00  0.00000000000E+00  0.31549510016E+03  0.31549510016E+03  0.00000000000E+00 0. -1.
         -3   -1    0    0    0  501 -0.00000000000E+00 -0.00000000000E+00 -0.46429830043E+02  0.46429830043E+02  0.00000000000E+00 0.  1.
         23    2    1    2    0    0 -0.24526110109E+01 -0.69527957706E+01  0.31891156934E+02  0.97452759066E+02  0.91791272402E+02 0.  0.
         24    2    1    2    0    0  0.31190151208E+02 -0.13734328803E+02  0.18973143025E+03  0.20527241182E+03  0.70549912182E+02 0.  0.
        -13    1    4    4    0    0  0.38824092395E+01 -0.20339400811E+02  0.93562912987E+01  0.22722335129E+02  0.00000000000E+00 0.  1.
         14    1    4    4    0    0  0.27307741968E+02  0.66050720077E+01  0.18037513895E+03  0.18255007669E+03  0.00000000000E+00 0. -1.
        -13    1    3    3    0    0  0.32005147687E+02  0.28318921635E+02  0.13336180409E+02  0.44767672588E+02  0.00000000000E+00 0. -1.
         13    1    3    3    0    0 -0.34457758698E+02 -0.35271717406E+02  0.18554976526E+02  0.52685086477E+02  0.00000000000E+00 0.  1.
         -4    1    1    2    0  502 -0.28737540197E+02  0.20687124573E+02  0.47442682935E+02  0.59199759322E+02  0.00000000000E+00 0.  1.
<scales pt_clust_5="13000.00000" pt_clust_6="13000.00000" pt_clust_7="13000.00000" pt_clust_8="13000.00000" pt_clust_9="13000.00000"></scales>
<clustering>
<clus scale="   70.550">  5  6 -1 -1</clus>
<clus scale="   35.409">  5  9 -1 -1</clus>
<clus scale="   91.791">  7  8 -1 -1</clus>
<clus scale="   92.087">  2  7  1 -1</clus>
<clus scale="  117.021">  1  5  2 -1</clus>
</clustering>
</event>
<event>
 9    2  0.3726337E-005  0.3970870E+03  0.7546771E-02  0.1070107E+00
         21   -1    0    0  501  502  0.00000000000E+00  0.00000000000E+00  0.11984968717E+03  0.11984968717E+03  0.00000000000E+00 0. -1.
          2   -1    0    0  502    0 -0.00000000000E+00 -0.00000000000E+00 -0.74429684888E+03  0.74429684888E+03  0.00000000000E+00 0. -1.
         23    2    1    2    0    0  0.14116653962E+03 -0.99179630198E+02 -0.26209595069E+03  0.32658118131E+03  0.90533914431E+02 0.  0.
         24    2    1    2    0    0  0.95064644985E+02  0.10219661028E+03 -0.14144144815E+03  0.21412231789E+03  0.79757444086E+02 0.  0.
        -13    1    4    4    0    0  0.51287303141E+02  0.78664961956E+02 -0.13435267250E+03  0.16391828547E+03  0.00000000000E+00 0.  1.
         14    1    4    4    0    0  0.43777341843E+02  0.23531648321E+02 -0.70887756506E+01  0.50204032426E+02  0.00000000000E+00 0. -1.
        -13    1    3    3    0    0  0.16878445687E+02 -0.16719194747E+02  0.13998601147E+01  0.23798592608E+02  0.00000000000E+00 0.  1.
         13    1    3    3    0    0  0.12428809394E+03 -0.82460435450E+02 -0.26349581081E+03  0.30278258870E+03  0.00000000000E+00 0. -1.
          1    1    1    2  501    0 -0.23623118461E+03 -0.30169800791E+01 -0.22090976287E+03  0.32344303684E+03  0.00000000000E+00 0. -1.
<scales pt_clust_5="13000.00000" pt_clust_6="13000.00000" pt_clust_7="13000.00000" pt_clust_8="13000.00000" pt_clust_9="13000.00000"></scales>
<clustering>
<clus scale="   79.757">  5  6 -1 -1</clus>
<clus scale="   90.534">  7  8 -1 -1</clus>
<clus scale="  194.836">  2  7  1 -1</clus>
<clus scale="  163.472">  5  9 -1 -1</clus>
<clus scale="  397.087">  1  5  2 -1</clus>
</clustering>
</event>
<event>
 9    2  0.3726337E-005  0.5127521E+03  0.7546771E-02  0.1057726E+00
         21   -1    0    0  501  502  0.00000000000E+00  0.00000000000E+00  0.21701214432E+03  0.21701214432E+03  0.00000000000E+00 0. -1.
         -1   -1    0    0    0  501 -0.00000000000E+00 -0.00000000000E+00 -0.47366270778E+03  0.47366270778E+03  0.00000000000E+00 0.  1.
         23    2    1    2    0    0  0.22808049065E+02  0.85396768084E+02 -0.37238345622E+02  0.13295054701E+03  0.92067032457E+02 0.  0.
         24    2    1    2    0    0  0.26067823899E+02  0.15302334501E+03  0.62516100536E+02  0.18527755992E+03  0.79522549159E+02 0.  0.
        -13    1    4    4    0    0 -0.26873992044E+02  0.71691016010E+02  0.18779901358E+02  0.78832086868E+02  0.00000000000E+00 0.  1.
         14    1    4    4    0    0  0.52941815942E+02  0.81332328999E+02  0.43736199178E+02  0.10644547306E+03  0.00000000000E+00 0. -1.
        -13    1    3    3    0    0  0.38023815394E+02  0.98979976896E+02 -0.37738006810E+02  0.11254778328E+03  0.00000000000E+00 0.  1.
         13    1    3    3    0    0 -0.15215766329E+02 -0.13583208812E+02  0.49966118815E+00  0.20402763733E+02  0.00000000000E+00 0. -1.
         -2    1    1    2    0  502 -0.48875872963E+02 -0.23842011309E+03 -0.28192831837E+03  0.37244674516E+03  0.00000000000E+00 0.  1.
<scales pt_clust_5="13000.00000" pt_clust_6="13000.00000" pt_clust_7="13000.00000" pt_clust_8="13000.00000" pt_clust_9="13000.00000"></scales>
<clustering>
<clus scale="   79.523">  5  6 -1 -1</clus>
<clus scale="   92.067">  7  8 -1 -1</clus>
<clus scale="  127.629">  2  7  1 -1</clus>
<clus scale="  169.136">  5  9 -1 -1</clus>
<clus scale="  512.752">  1  5  2 -1</clus>
</clustering>
</event>
<event>
 9    2  0.3726337E-005  0.2177161E+03  0.7546771E-02  0.1145804E+00
         -3   -1    0    0    0  501 -0.00000000000E+00  0.00000000000E+00  0.12060254712E+03  0.12060254712E+03  0.00000000000E+00 0.  1.
         21   -1    0    0  501  502  0.00000000000E+00 -0.00000000000E+00 -0.47968903977E+03  0.47968903977E+03  0.00000000000E+00 0.  1.
         23    2    1    2    0    0 -0.14131895133E+03 -0.35969297345E+02  0.11329715897E+02  0.17063072905E+03  0.87872901833E+02 0.  0.
         24    2    1    2    0    0  0.35646727516E+02 -0.92270483255E+01 -0.90068648937E+02  0.12666897226E+03  0.81097715194E+02 0.  0.
        -13    1    4    4    0    0  0.67526904468E+00 -0.38367982292E+02 -0.62826210510E+02  0.73618549161E+02  0.00000000000E+00 0.  1.
         14    1    4    4    0    0  0.34971458471E+02  0.29140933966E+02 -0.27242438427E+02  0.53050423103E+02  0.00000000000E+00 0. -1.
        -11    1    3    3    0    0 -0.11535161514E+03 -0.45422414204E+02  0.40527756588E+02  0.13042886905E+03  0.00000000000E+00 0.  1.
         11    1    3    3    0    0 -0.25967336194E+02  0.94531168588E+01 -0.29198040691E+02  0.40201860001E+02  0.00000000000E+00 0. -1.
         -4    1    1    2    0  502  0.10567222382E+03  0.45196345671E+02 -0.28034755961E+03  0.30299188558E+03  0.00000000000E+00 0.  1.
<scales pt_clust_5="13000.00000" pt_clust_6="13000.00000" pt_clust_7="13000.00000" pt_clust_8="13000.00000" pt_clust_9="13000.00000"></scales>
<clustering>
<clus scale="   81.098">  5  6 -1 -1</clus>
<clus scale="   87.873">  7  8 -1 -1</clus>
<clus scale="  114.932">  5  9 -1 -1</clus>
<clus scale="  170.254">  1  7  2 -1</clus>
<clus scale="  217.716">  2  5  1 -1</clus>
</clustering>
</event>
<event>
 9    2  0.3726337E-005  0.1748316E+03  0.7546771E-02  0.1181397E+00
         21   -1    0    0  501  502  0.00000000000E+00  0.00000000000E+00  0.36253255446E+02  0.36253255446E+02  0.00000000000E+00 0.  1.
          2   -1    0    0  502    0 -0.00000000000E+00 -0.00000000000E+00 -0.85496521998E+03  0.85496521998E+03  0.00000000000E+00 0. -1.
         23    2    1    2    0    0  0.29703699407E+02 -0.10741247127E+03 -0.56476880809E+03  0.58291144688E+03  0.91663512731E+02 0.  0.
         24    2    1    2    0    0 -0.99628337354E+01  0.18127684631E+02 -0.13053392213E+03  0.15471238666E+03  0.80429762860E+02 0.  0.
        -13    1    4    4    0    0 -0.40200814961E+02  0.75526559675E+01 -0.10816663862E+03  0.11564242235E+03  0.00000000000E+00 0.  1.
         14    1    4    4    0    0  0.30237981225E+02  0.10575028664E+02 -0.22367283504E+02  0.39069964310E+02  0.00000000000E+00 0. -1.
        -13    1    3    3    0    0  0.29583435382E+02  0.65518067849E+01 -0.12381408799E+03  0.12746777713E+03  0.00000000000E+00 0. -1.
         13    1    3    3    0    0  0.12026402508E+00 -0.11396427806E+03 -0.44095472010E+03  0.45544366975E+03  0.00000000000E+00 0.  1.
          1    1    1    2  501    0 -0.19740865672E+02  0.89284786639E+02 -0.12340923431E+03  0.15359464189E+03  0.00000000000E+00 0. -1.
<scales pt_clust_5="13000.00000" pt_clust_6="13000.00000" pt_clust_7="13000.00000" pt_clust_8="13000.00000" pt_clust_9="13000.00000"></scales>
<clustering>
<clus scale="   80.430">  5  6 -1 -1</clus>
<clus scale="   91.441">  5  9 -1 -1</clus>
<clus scale="   91.664">  7  8 -1 -1</clus>
<clus scale="  144.298">  2  7  1 -1</clus>
<clus scale="  174.832">  1  5  2 -1</clus>
</clustering>
</event>
<event>
 9    2  0.3726337E-005  0.1934442E+03  0.7546771E-02  0.1165219E+00
          2   -1    0    0  502    0 -0.00000000000E+00  0.00000000000E+00  0.27859385407E+03  0.27859385407E+03  0.00000000000E+00 0. -1.
         21   -1    0    0  501  502  0.00000000000E+00 -0.00000000000E+00 -0.21392960622E+03  0.21392960622E+03  0.00000000000E+00 0. -1.
         23    2    1    2    0    0 -0.57103435054E+02 -0.10889826360E+03  0.20297001714E+03  0.25472279636E+03  0.92559391838E+02 0.  0.
         24    2    1    2    0    0 -0.81982359162E+01  0.85188874985E+02 -0.57366545820E+02  0.13113482481E+03  0.81123770897E+02 0.  0.
        -11    1    4    4    0    0  0.36200067318E+01  0.36716628610E+02  0.17762928130E+02  0.40947977739E+02  0.00000000000E+00 0.  1.
         12    1    4    4    0    0 -0.11818242648E+02  0.48472246375E+02 -0.75129473950E+02  0.90186847067E+02  0.00000000000E+00 0. -1.
        -13    1    3    3    0    0 -0.20586010358E+02  0.94174693333E+01  0.85053777033E+01  0.24182927883E+02  0.00000000000E+00 0.  1.
         13    1    3    3    0    0 -0.36517424695E+02 -0.11831573294E+03  0.19446463944E+03  0.23053986848E+03  0.00000000000E+00 0. -1.
          1    1    1    2  501    0  0.65301670970E+02  0.23709388619E+02 -0.80939223471E+02  0.10666583912E+03  0.00000000000E+00 0. -1.
<scales pt_clust_5="13000.00000" pt_clust_6="13000.00000" pt_clust_7="13000.00000" pt_clust_8="13000.00000" pt_clust_9="13000.00000"></scales>
<clustering>
<clus scale="   81.124">  5  6 -1 -1</clus>
<clus scale="   69.473">  5  9 -1 -1</clus>
<clus scale="   92.559">  7  8 -1 -1</clus>
<clus scale="  153.905">  1  7  2 -1</clus>
<clus scale="  193.444">  2  5  1 -1</clus>
</clustering>
</event>
<event>
 9    2  0.3726337E-005  0.3542969E+03  0.7546771E-02  0.1081128E+00
         -3   -1    0    0    0  501 -0.00000000000E+00  0.00000000000E+00  0.22234273026E+03  0.22234273026E+03  0.00000000000E+00 0.  1.
         21   -1    0    0  501  502  0.00000000000E+00 -0.00000000000E+00 -0.35152143939E+03  0.35152143939E+03  0.00000000000E+00 0.  1.
         23    2    1    2    0    0  0.80721466253E+02  0.16249987534E+03 -0.67478931308E+02  0.21423498038E+03  0.91766312148E+02 0.  0.
         24    2    1    2    0    0  0.99279785490E+02 -0.33382051810E+02 -0.11523105622E+02  0.13249583326E+03  0.80321396135E+02 0.  0.
        -11    1    4    4    0    0  0.34947167760E+02 -0.47784796752E+02 -0.26547442081E+02  0.64880336128E+02  0.00000000000E+00 0.  1.
         12    1    4    4    0    0  0.64332617730E+02  0.14402744942E+02  0.15024336459E+02  0.67615497128E+02  0.00000000000E+00 0. -1.
        -11    1    3    3    0    0  0.49147622394E+02  0.76745679828E+02  0.13508824655E+02  0.92129672217E+02  0.00000000000E+00 0.  1.
         11    1    3    3    0    0  0.31573843859E+02  0.85754195517E+02 -0.80987755963E+02  0.12210530816E+03  0.00000000000E+00 0. -1.
         -4    1    1    2    0  502 -0.18000125174E+03 -0.12911782353E+03 -0.50176672201E+02  0.22713335602E+03  0.00000000000E+00 0.  1.
<scales pt_clust_5="13000.00000" pt_clust_6="13000.00000" pt_clust_7="13000.00000" pt_clust_8="13000.00000" pt_clust_9="13000.00000"></scales>
<clustering>
<clus scale="   80.321">  5  6 -1 -1</clus>
<clus scale="   91.766">  7  8 -1 -1</clus>
<clus scale="  203.330">  1  7  2 -1</clus>
<clus scale="  136.021">  5  9 -1 -1</clus>
<clus scale="  354.297">  2  5  1 -1</clus>
</clustering>
</event>
<event>
 9    2  0.3726337E-005  0.4498982E+03  0.7546771E-02  0.1073001E+00
          2   -1    0    0  502    0 -0.00000000000E+00  0.00000000000E+00  0.62547978852E+03  0.62547978852E+03  0.00000000000E+00 0. -1.
         21   -1    0    0  501  502  0.00000000000E+00 -0.00000000000E+00 -0.26565608819E+03  0.26565608819E+03  0.00000000000E+00 0. -1.
         23    2    1    2    0    0 -0.55373176450E+02  0.28478314275E+02  0.41942880814E+03  0.43730639592E+03  0.10695398896E+03 0.  0.
         24    2    1    2    0    0 -0.17541873290E+03  0.39350878666E+02  0.23974469301E+02  0.19917039388E+03  0.82303384588E+02 0.  0.
        -11    1    4    4    0    0 -0.97618304116E+02  0.11901421369E+02 -0.27267337732E+02  0.10205138331E+03  0.00000000000E+00 0.  1.
         12    1    4    4    0    0 -0.77800428785E+02  0.27449457297E+02  0.51241807033E+02  0.97119010564E+02  0.00000000000E+00 0. -1.
        -13    1    3    3    0    0 -0.38652453122E+02  0.56135630862E+02  0.38120884818E+03  0.38725367282E+03  0.00000000000E+00 0. -1.
         13    1    3    3    0    0 -0.16720723328E+02 -0.27657316587E+02  0.38219959965E+02  0.50052723094E+02  0.00000000000E+00 0.  1.
          1    1    1    2  501    0  0.23079190935E+03 -0.67829192940E+02 -0.83579577118E+02  0.25465908691E+03  0.00000000000E+00 0. -1.
<scales pt_clust_5="13000.00000" pt_clust_6="13000.00000" pt_clust_7="13000.00000" pt_clust_8="13000.00000" pt_clust_9="13000.00000"></scales>
<clustering>
<clus scale="   82.303">  5  6 -1 -1</clus>
<clus scale="  106.954">  7  8 -1 -1</clus>
<clus scale="  123.759">  1  7  2 -1</clus>
<clus scale="  214.074">  5  9 -1 -1</clus>
<clus scale="  449.898">  2  5  1 -1</clus>
</clustering>
</event>
<event>
 9    2  0.3726337E-005  0.1872010E+03  0.7546771E-02  0.1191286E+00
         21   -1    0    0  501  502  0.00000000000E+00  0.00000000000E+00  0.10576855644E+03  0.10576855644E+03  0.00000000000E+00 0.  1.
         -1   -1    0    0    0  501 -0.00000000000E+00 -0.00000000000E+00 -0.62006051244E+03  0.62006051244E+03  0.00000000000E+00 0.  1.
         23    2    1    2    0    0  0.27509921639E+02 -0.15131320652E+02 -0.52966172215E+03  0.53799822173E+03  0.88965128114E+02 0.  0.
         24    2    1    2    0    0  0.53365613990E+02 -0.19410300001E+02  0.83642750139E+01  0.99609235696E+02  0.81408784764E+02 0.  0.
        -13    1    4    4    0    0  0.61544491737E+02 -0.13438725512E+02  0.34327792192E+02  0.71740651818E+02  0.00000000000E+00 0.  1.
         14    1    4    4    0    0 -0.81788777467E+01 -0.59715744888E+01 -0.25963517179E+02  0.27868583878E+02  0.00000000000E+00 0. -1.
        -11    1    3    3    0    0 -0.19044404580E+02 -0.37918691622E+02 -0.22757897494E+03  0.23150098564E+03  0.00000000000E+00 0.  1.
         11    1    3    3    0    0  0.46554326218E+02  0.22787370970E+02 -0.30208274721E+03  0.30649723609E+03  0.00000000000E+00 0. -1.
         -2    1    1    2    0  502 -0.80875535629E+02  0.34541620652E+02  0.70054911393E+01  0.88221611449E+02  0.00000000000E+00 0.  1.
<scales pt_clust_5="13000.00000" pt_clust_6="13000.00000" pt_clust_7="13000.00000" pt_clust_8="13000.00000" pt_clust_9="13000.00000"></scales>
<clustering>
<clus scale="   81.409">  5  6 -1 -1</clus>
<clus scale="   87.943">  5  9 -1 -1</clus>
<clus scale="   88.965">  7  8 -1 -1</clus>
<clus scale="   94.343">  2  7  1 -1</clus>
<clus scale="  187.201">  1  5  2 -1</clus>
</clustering>
</event>
<event>
 9    2  0.3726337E-005  0.1256438E+03  0.7546771E-02  0.1243633E+00
         -3   -1    0    0    0  501 -0.00000000000E+00  0.00000000000E+00  0.95161380030E+02  0.95161380030E+02  0.00000000000E+00 0.  1.
         21   -1    0    0  501  502  0.00000000000E+00 -0.00000000000E+00 -0.18275679494E+03  0.18275679494E+03  0.00000000000E+00 0. -1.
         23    2    1    2    0    0  0.41146292589E+02  0.26573319254E+02  0.28049384030E+02  0.10715494315E+03  0.91083781256E+02 0.  0.
         24    2    1    2    0    0 -0.49843534997E+02  0.76128128150E+00 -0.71904473096E+02  0.11845607631E+03  0.79853811645E+02 0.  0.
        -11    1    4    4    0    0  0.12665934744E+02  0.21811056604E+02 -0.76081404608E+01  0.26344485085E+02  0.00000000000E+00 0.  1.
         12    1    4    4    0    0 -0.62509469741E+02 -0.21049775322E+02 -0.64296332635E+02  0.92111591229E+02  0.00000000000E+00 0. -1.
        -13    1    3    3    0    0 -0.25081179074E+02  0.37455341617E+00 -0.92779677867E+01  0.26744841003E+02  0.00000000000E+00 0. -1.
         13    1    3    3    0    0  0.66227471663E+02  0.26198765837E+02  0.37327351817E+02  0.80410102151E+02  0.00000000000E+00 0.  1.
         -4    1    1    2    0  502  0.86972424086E+01 -0.27334600535E+02 -0.43740325846E+02  0.52307155505E+02  0.00000000000E+00 0.  1.
<scales pt_clust_5="13000.00000" pt_clust_6="13000.00000" pt_clust_7="13000.00000" pt_clust_8="13000.00000" pt_clust_9="13000.00000"></scales>
<clustering>
<clus scale="   79.854">  5  6 -1 -1</clus>
<clus scale="   28.685">  5  9 -1 -1</clus>
<clus scale="   91.084">  7  8 -1 -1</clus>
<clus scale="  103.419">  1  7  2 -1</clus>
<clus scale="  125.644">  2  5  1 -1</clus>
</clustering>
</event>
<event>
 9    2  0.3726337E-005  0.2430288E+03  0.7546771E-02  0.1145229E+00
         -1   -1    0    0    0  501 -0.00000000000E+00  0.00000000000E+00  0.50002901281E+03  0.50002901281E+03  0.00000000000E+00 0.  1.
         21   -1    0    0  501  502  0.00000000000E+00 -0.00000000000E+00 -0.23280772997E+03  0.23280772997E+03  0.00000000000E+00 0.  1.
         23    2    1    2    0    0  0.45695192269E+02  0.71108458523E+02  0.42522326696E+03  0.44296157565E+03  0.90860702580E+02 0.  0.
         24    2    1    2    0    0  0.70761237136E+01  0.96453494547E+00  0.25621886308E+02  0.85676602081E+02  0.81443214767E+02 0.  0.
        -11    1    4    4    0    0 -0.31850255936E+02 -0.27665662543E+01 -0.92501913698E+01  0.33281507364E+02  0.00000000000E+00 0.  1.
         12    1    4    4    0    0  0.38926379650E+02  0.37311011997E+01  0.34872077678E+02  0.52395094717E+02  0.00000000000E+00 0. -1.
        -13    1    3    3    0    0  0.64687411180E+02  0.56860695160E+02  0.39625562368E+03  0.40550723683E+03  0.00000000000E+00 0.  1.
         13    1    3    3    0    0 -0.18992218911E+02  0.14247763363E+02  0.28967643275E+02  0.37454338826E+02  0.00000000000E+00 0. -1.
         -2    1    1    2    0  502 -0.52771315982E+02 -0.72072993468E+02 -0.18362387043E+03  0.20419856505E+03  0.00000000000E+00 0.  1.
<scales pt_clust_5="13000.00000" pt_clust_6="13000.00000" pt_clust_7="13000.00000" pt_clust_8="13000.00000" pt_clust_9="13000.00000"></scales>
<clustering>
<clus scale="   81.443">  5  6 -1 -1</clus>
<clus scale="   89.327">  5  9 -1 -1</clus>
<clus scale="   90.861">  7  8 -1 -1</clus>
<clus scale="  124.097">  1  7  2 -1</clus>
<clus scale="  243.029">  2  5  1 -1</clus>
</clustering>
</event>
<event>
 9    2  0.3726337E-005  0.2318866E+03  0.7546771E-02  0.1162528E+00
         21   -1    0    0  501  502  0.00000000000E+00  0.00000000000E+00  0.98201689786E+02  0.98201689786E+02  0.00000000000E+00 0. -1.
          2   -1    0    0  502    0 -0.00000000000E+00 -0.00000000000E+00 -0.38606185582E+03  0.38606185582E+03  0.00000000000E+00 0. -1.
         23    2    1    2    0    0  0.25104989797E+02  0.12995567512E+02  0.21654111528E+02  0.97520096500E+02  0.90786140945E+02 0.  0.
         24    2    1    2    0    0 -0.49796628954E+02 -0.16547533042E+02 -0.33628868939E+03  0.35014887803E+03  0.82223044641E+02 0.  0.
        -11    1    4    4    0    0  0.11322827432E+02 -0.32462641233E+02 -0.11968751208E+03  0.12452762764E+03  0.00000000000E+00 0.  1.
         12    1    4    4    0    0 -0.61119456386E+02  0.15915108191E+02 -0.21660117731E+03  0.22562125039E+03  0.00000000000E+00 0. -1.
        -11    1    3    3    0    0 -0.22334331931E+02  0.12617366555E+02  0.39277135185E+02  0.46911764728E+02  0.00000000000E+00 0. -1.
         11    1    3    3    0    0  0.47439321728E+02  0.37820095669E+00 -0.17623023656E+02  0.50608331772E+02  0.00000000000E+00 0.  1.
          1    1    1    2  501    0  0.24691639158E+02  0.35519655298E+01  0.26774411828E+02  0.36594571075E+02  0.00000000000E+00 0. -1.
<scales pt_clust_5="13000.00000" pt_clust_6="13000.00000" pt_clust_7="13000.00000" pt_clust_8="13000.00000" pt_clust_9="13000.00000"></scales>
<clustering>
<clus scale="   82.223">  5  6 -1 -1</clus>
<clus scale="   24.946">  5  9 -1 -1</clus>
<clus scale="   90.786">  7  8 -1 -1</clus>
<clus scale="   95.086">  2  7  1 -1</clus>
<clus scale="  231.887">  1  5  2 -1</clus>
</clustering>
</event>
<event>
 9    2  0.3726337E-005  0.5796439E+03  0.7546771E-02  0.1057015E+00
         -1   -1    0    0    0  501 -0.00000000000E+00  0.00000000000E+00  0.27902759527E+03  0.27902759527E+03  0.00000000000E+00 0.  1.
         21   -1    0    0  501  502  0.00000000000E+00 -0.00000000000E+00 -0.43147874899E+03  0.43147874899E+03  0.00000000000E+00 0.  1.
         23    2    1    2    0    0 -0.51299801012E+01  0.76416648282E+01  0.41565866233E+02  0.99253850569E+02  0.89659878875E+02 0.  0.
         24    2    1    2    0    0 -0.19091176217E+02  0.20425538290E+03  0.10533547358E+03  0.24369441851E+03  0.78782442002E+02 0.  0.
        -11    1    4    4    0    0 -0.22509359661E+02  0.14991853803E+03  0.11249888984E+03  0.18878093000E+03  0.00000000000E+00 0.  1.
         12    1    4    4    0    0  0.34181834445E+01  0.54336844867E+02 -0.71634162547E+01  0.54913488512E+02  0.00000000000E+00 0. -1.
        -13    1    3    3    0    0  0.22833737806E+02  0.32395778619E+02  0.47037173649E+02  0.61509038030E+02  0.00000000000E+00 0. -1.
         13    1    3    3    0    0 -0.27963717907E+02 -0.24754113791E+02 -0.54713074153E+01  0.37744812539E+02  0.00000000000E+00 0.  1.
         -2    1    1    2    0  502  0.24221156318E+02 -0.21189704772E+03 -0.29935249353E+03  0.36755807518E+03  0.00000000000E+00 0.  1.
<scales pt_clust_5="13000.00000" pt_clust_6="13000.00000" pt_clust_7="13000.00000" pt_clust_8="13000.00000" pt_clust_9="13000.00000"></scales>
<clustering>
<clus scale="   78.782">  5  6 -1 -1</clus>
<clus scale="   89.660">  7  8 -1 -1</clus>
<clus scale="   90.131">  1  7  2 -1</clus>
<clus scale="  211.942">  5  9 -1 -1</clus>
<clus scale="  579.644">  2  5  1 -1</clus>
</clustering>
</event>
<event>
 9    2  0.3726337E-005  0.3590974E+03  0.7546771E-02  0.1067527E+00
          2   -1    0    0  502    0 -0.00000000000E+00  0.00000000000E+00  0.12696940056E+04  0.12696940056E+04  0.00000000000E+00 0. -1.
         21   -1    0    0  501  502  0.00000000000E+00 -0.00000000000E+00 -0.11202805089E+03  0.11202805089E+03  0.00000000000E+00 0. -1.
         23    2    1    2    0    0 -0.13826824595E+03  0.22915734025E+03  0.16807693260E+03  0.32899352610E+03  0.91409466217E+02 0.  0.
         24    2    1    2    0    0  0.55521414679E+02  0.19286391282E+02  0.34556215436E+03  0.35750055899E+03  0.70276986131E+02 0.  0.
        -11    1    4    4    0    0  0.63309131031E+02  0.75320157195E+01  0.17318379756E+03  0.18454648485E+03  0.00000000000E+00 0.  1.
         12    1    4    4    0    0 -0.77877163528E+01  0.11754375563E+02  0.17237835680E+03  0.17295407415E+03  0.00000000000E+00 0. -1.
        -13    1    3    3    0    0 -0.89171623373E+02  0.19082072636E+03  0.89840268563E+02  0.22898777670E+03  0.00000000000E+00 0. -1.
         13    1    3    3    0    0 -0.49096622576E+02  0.38336613892E+02  0.78236664033E+02  0.10000574940E+03  0.00000000000E+00 0.  1.
          1    1    1    2  501    0  0.82746831270E+02 -0.24844373154E+03  0.64402686771E+03  0.69522797135E+03  0.00000000000E+00 0. -1.
<scales pt_clust_5="13000.00000" pt_clust_6="13000.00000" pt_clust_7="13000.00000" pt_clust_8="13000.00000" pt_clust_9="13000.00000"></scales>
<clustering>
<clus scale="   70.277">  5  6 -1 -1</clus>
<clus scale="   91.409">  7  8 -1 -1</clus>
<clus scale="  261.861">  5  9 -1 -1</clus>
<clus scale="  282.820">  1  7  2 -1</clus>
<clus scale="  359.097">  2  5  1 -1</clus>
</clustering>
</event>
<event>
 9    2  0.3726337E-005  0.5354000E+03  0.7546771E-02  0.1061387E+00
         -1   -1    0    0    0  501 -0.00000000000E+00  0.00000000000E+00  0.11021884268E+03  0.11021884268E+03  0.00000000000E+00 0.  1.
         21   -1    0    0  501  502  0.00000000000E+00 -0.00000000000E+00 -0.95421226395E+03  0.95421226395E+03  0.00000000000E+00 0.  1.
         23    2    1    2    0    0  0.39223300411E+02 -0.19987494899E+02 -0.22049460907E+03  0.24260148329E+03  0.91102358994E+02 0.  0.
         24    2    1    2    0    0  0.11115507159E+03  0.62607354208E+02 -0.64630143823E+03  0.66387372151E+03  0.82144009584E+02 0.  0.
        -11    1    4    4    0    0  0.11041621919E+03  0.37452316871E+02 -0.59952341731E+03  0.61075588037E+03  0.00000000000E+00 0.  1.
         12    1    4    4    0    0  0.73885239478E+00  0.25155037336E+02 -0.46778020914E+02  0.53117841136E+02  0.00000000000E+00 0. -1.
        -11    1    3    3    0    0  0.32409388853E+02  0.30531674230E+02 -0.63629209978E+02  0.77660981062E+02  0.00000000000E+00 0. -1.
         11    1    3    3    0    0  0.68139115584E+01 -0.50519169129E+02 -0.15686539910E+03  0.16494050222E+03  0.00000000000E+00 0.  1.
         -2    1    1    2    0  502 -0.15037837200E+03 -0.42619859309E+02  0.22802626026E+02  0.15795590184E+03  0.00000000000E+00 0.  1.
<scales pt_clust_5="13000.00000" pt_clust_6="13000.00000" pt_clust_7="13000.00000" pt_clust_8="13000.00000" pt_clust_9="13000.00000"></scales>
<clustering>
<clus scale="   82.144">  5  6 -1 -1</clus>
<clus scale="   91.102">  7  8 -1 -1</clus>
<clus scale="  101.181">  1  7  2 -1</clus>
<clus scale="  129.774">  5  9 -1 -1</clus>
<clus scale="  535.400">  2  5  1 -1</clus>
</clustering>
</event>
<event>
 9    2  0.3726337E-005  0.6164292E+03  0.7546771E-02  0.1042969E+00
          2   -1    0    0  502    0 -0.00000000000E+00  0.00000000000E+00  0.61742545444E+03  0.61742545444E+03  0.00000000000E+00 0. -1.
         21   -1    0    0  501  502  0.00000000000E+00 -0.00000000000E+00 -0.21477979670E+03  0.21477979670E+03  0.00000000000E+00 0. -1.
         23    2    1    2    0    0 -0.58842578603E+02  0.30328269486E+02  0.61186371029E+02  0.12752136863E+03  0.90197973762E+02 0.  0.
         24    2    1    2    0    0 -0.23518829855E+03  0.12814283612E+03  0.18815084503E+03  0.33716418735E+03  0.80900102128E+02 0.  0.
        -13    1    4    4    0    0 -0.43332248366E+01  0.23072050326E+02  0.42191876694E+01  0.23851580416E+02  0.00000000000E+00 0.  1.
         14    1    4    4    0    0 -0.23085507372E+03  0.10507078579E+03  0.18393165736E+03  0.31331260694E+03  0.00000000000E+00 0. -1.
        -11    1    3    3    0    0 -0.78692614362E+02  0.15337883461E+02  0.63867550835E+02  0.10250288910E+03  0.00000000000E+00 0.  1.
         11    1    3    3    0    0  0.19850035759E+02  0.14990386025E+02 -0.26811798064E+01  0.25018479529E+02  0.00000000000E+00 0. -1.
          1    1    1    2  501    0  0.29403087716E+03 -0.15847110560E+03  0.15330844168E+03  0.36751969515E+03  0.00000000000E+00 0. -1.
<scales pt_clust_5="13000.00000" pt_clust_6="13000.00000" pt_clust_7="13000.00000" pt_clust_8="13000.00000" pt_clust_9="13000.00000"></scales>
<clustering>
<clus scale="   80.900">  5  6 -1 -1</clus>
<clus scale="   90.198">  7  8 -1 -1</clus>
<clus scale="  111.884">  1  7  2 -1</clus>
<clus scale="  301.066">  5  9 -1 -1</clus>
<clus scale="  616.429">  2  5  1 -1</clus>
</clustering>
</event>
<event>
 9    2  0.3726337E-005  0.4096305E+03  0.7546771E-02  0.1089867E+00
         21   -1    0    0  501  502  0.00000000000E+00  0.00000000000E+00  0.16220682502E+03  0.16220682502E+03  0.00000000000E+00 0. -1.
          2   -1    0    0  502    0 -0.00000000000E+00 -0.00000000000E+00 -0.50795524288E+03  0.50795524288E+03  0.00000000000E+00 0. -1.
         23    2    1    2    0    0  0.49779302412E+02  0.70693652283E+01  0.35964618880E+02  0.11024957687E+03  0.91288337236E+02 0.  0.
         24    2    1    2    0    0  0.22645412854E+02  0.18172310220E+03 -0.24340835008E+03  0.31493061110E+03  0.79984775581E+02 0.  0.
        -13    1    4    4    0    0 -0.22710844191E+02  0.91312321330E+02 -0.15104027840E+03  0.17795192657E+03  0.00000000000E+00 0.  1.
         14    1    4    4    0    0  0.45356257046E+02  0.90410780870E+02 -0.92368071678E+02  0.13697868453E+03  0.00000000000E+00 0. -1.
        -11    1    3    3    0    0 -0.22255284506E+02 -0.24617658845E+01 -0.97297990985E+01  0.24413663597E+02  0.00000000000E+00 0.  1.
         11    1    3    3    0    0  0.72034586919E+02  0.95311311128E+01  0.45694417979E+02  0.85835913272E+02  0.00000000000E+00 0. -1.
          1    1    1    2  501    0 -0.72424715267E+02 -0.18879246743E+03 -0.13830468666E+03  0.24498187992E+03  0.00000000000E+00 0. -1.
<scales pt_clust_5="13000.00000" pt_clust_6="13000.00000" pt_clust_7="13000.00000" pt_clust_8="13000.00000" pt_clust_9="13000.00000"></scales>
<clustering>
<clus scale="   79.985">  5  6 -1 -1</clus>
<clus scale="   91.288">  7  8 -1 -1</clus>
<clus scale="  104.219">  2  7  1 -1</clus>
<clus scale="  193.094">  5  9 -1 -1</clus>
<clus scale="  409.631">  1  5  2 -1</clus>
</clustering>
</event>
<event>
 9    2  0.3726337E-005  0.2594864E+03  0.7546771E-02  0.1147408E+00
         21   -1    0    0  501  502  0.00000000000E+00  0.00000000000E+00  0.63857708054E+02  0.63857708054E+02  0.00000000000E+00 0.  1.
         -3   -1    0    0    0  501 -0.00000000000E+00 -0.00000000000E+00 -0.55624939193E+03  0.55624939193E+03  0.00000000000E+00 0.  1.
         23    2    1    2    0    0 -0.10951693969E+02 -0.25434212235E+02 -0.23708979087E+03  0.25608475637E+03  0.92741548174E+02 0.  0.
         24    2    1    2    0    0 -0.38404822782E+02 -0.10266049822E+02  0.11538352343E+02  0.90317592113E+02  0.80273355968E+02 0.  0.
        -13    1    4    4    0    0 -0.24243359829E+01  0.29107355803E+02  0.21227955888E+02  0.36107363210E+02  0.00000000000E+00 0.  1.
         14    1    4    4    0    0 -0.35980486799E+02 -0.39373405625E+02 -0.96896035453E+01  0.54210228903E+02  0.00000000000E+00 0. -1.
        -13    1    3    3    0    0 -0.17471181288E+02  0.32963645148E+02 -0.10766029975E+03  0.11394114366E+03  0.00000000000E+00 0. -1.
         13    1    3    3    0    0  0.65194873188E+01 -0.58397857383E+02 -0.12942949112E+03  0.14214361271E+03  0.00000000000E+00 0.  1.
         -4    1    1    2    0  502  0.49356516751E+02  0.35700262057E+02 -0.26684024535E+03  0.27370475150E+03  0.00000000000E+00 0.  1.
<scales pt_clust_5="13000.00000" pt_clust_6="13000.00000" pt_clust_7="13000.00000" pt_clust_8="13000.00000" pt_clust_9="13000.00000"></scales>
<clustering>
<clus scale="   80.273">  5  6 -1 -1</clus>
<clus scale="   60.915">  5  9 -1 -1</clus>
<clus scale="   92.742">  7  8 -1 -1</clus>
<clus scale="   96.788">  2  7  1 -1</clus>
<clus scale="  259.486">  1  5  2 -1</clus>
</clustering>
</event>
<event>
 9    2  0.5908042E-005  0.2759252E+03  0.7546771E-02  0.1130379E+00
         21   -1    0    0  501  502  0.00000000000E+00  0.00000000000E+00  0.65657304480E+03  0.65657304480E+03  0.00000000000E+00 0.  1.
         -1   -1    0    0    0  501 -0.00000000000E+00 -0.00000000000E+00 -0.70248757167E+02  0.70248757167E+02  0.00000000000E+00 0.  1.
         23    2    1    2    0    0  0.72414544439E+02 -0.22095304056E+02  0.66985719050E+02  0.13873400520E+03  0.95015624693E+02 0.  0.
         24    2    1    2    0    0  0.51928199560E+02 -0.26611193564E+02  0.75147381781E+02  0.12425673772E+03  0.79924428988E+02 0.  0.
        -11    1    4    4    0    0  0.44483311073E+02 -0.24571646781E+02  0.92345873351E+02  0.10540536568E+03  0.00000000000E+00 0.  1.
         12    1    4    4    0    0  0.74448884869E+01 -0.20395467822E+01 -0.17198491570E+02  0.18851372044E+02  0.00000000000E+00 0. -1.
        -11    1    3    3    0    0  0.44406624619E+02 -0.32045585219E+02 -0.10485423935E+02  0.55756721184E+02  0.00000000000E+00 0.  1.
         11    1    3    3    0    0  0.28007919820E+02  0.99502811634E+01  0.77471142985E+02  0.82977284020E+02  0.00000000000E+00 0. -1.
         -2    1    1    2    0  502 -0.12434274400E+03  0.48706497619E+02  0.44419118680E+03  0.46383105903E+03  0.00000000000E+00 0.  1.
<scales pt_clust_5="13000.00000" pt_clust_6="13000.00000" pt_clust_7="13000.00000" pt_clust_8="13000.00000" pt_clust_9="13000.00000"></scales>
<clustering>
<clus scale="   79.924">  5  6 -1 -1</clus>
<clus scale="   95.016">  7  8 -1 -1</clus>
<clus scale="  121.491">  2  7  1 -1</clus>
<clus scale="  111.990">  5  9 -1 -1</clus>
<clus scale="  275.925">  1  5  2 -1</clus>
</clustering>
</event>
<event>
 9    2  0.3726337E-005  0.2410930E+03  0.7546771E-02  0.1136624E+00
          2   -1    0    0  502    0 -0.00000000000E+00  0.00000000000E+00  0.22154719138E+03  0.22154719138E+03  0.00000000000E+00 0. -1.
         21   -1    0    0  501  502  0.00000000000E+00 -0.00000000000E+00 -0.34811111767E+03  0.34811111767E+03  0.00000000000E+00 0. -1.
         23    2    1    2    0    0  0.10989580861E+03  0.64791289998E+02  0.14024766505E+03  0.21005540052E+03  0.90437070534E+02 0.  0.
         24    2    1    2    0    0  0.24627468231E+02  0.10143381625E+02 -0.58305810186E+02  0.10039955632E+03  0.77272912620E+02 0.  0.
        -11    1    4    4    0    0 -0.14801984396E+02 -0.16979919714E+02  0.28921188472E+01  0.22710807273E+02  0.00000000000E+00 0.  1.
         12    1    4    4    0    0  0.39429452627E+02  0.27123301338E+02 -0.61197929034E+02  0.77688749044E+02  0.00000000000E+00 0. -1.
        -11    1    3    3    0    0  0.16120346791E+02  0.60156388863E+02  0.50657432596E+02  0.80279712125E+02  0.00000000000E+00 0.  1.
         11    1    3    3    0    0  0.93775461815E+02  0.46349011349E+01  0.89590232453E+02  0.12977568839E+03  0.00000000000E+00 0. -1.
          1    1    1    2  501    0 -0.13452327684E+03 -0.74934671622E+02 -0.20850578116E+03  0.25920335221E+03  0.00000000000E+00 0. -1.
<scales pt_clust_5="13000.00000" pt_clust_6="13000.00000" pt_clust_7="13000.00000" pt_clust_8="13000.00000" pt_clust_9="13000.00000"></scales>
<clustering>
<clus scale="   77.273">  5  6 -1 -1</clus>
<clus scale="   90.437">  7  8 -1 -1</clus>
<clus scale="  153.986">  5  9 -1 -1</clus>
<clus scale="  156.377">  1  7  2 -1</clus>
<clus scale="  241.093">  2  5  1 -1</clus>
</clustering>
</event>
<event>
 9    2  0.3726337E-005  0.2497162E+03  0.7546771E-02  0.1152364E+00
         -1   -1    0    0    0  501 -0.00000000000E+00  0.00000000000E+00  0.31285707012E+03  0.31285707012E+03  0.00000000000E+00 0.  1.
         21   -1    0    0  501  502  0.00000000000E+00 -0.00000000000E+00 -0.10132688083E+03  0.10132688083E+03  0.00000000000E+00 0.  1.
         23    2    1    2    0    0  0.28765157431E+02  0.27017288562E+02  0.10511811296E+03  0.14274023288E+03  0.88133922216E+02 0.  0.
         24    2    1    2    0    0  0.52228548760E+02  0.71809903379E+02  0.67230635293E+02  0.13779500079E+03  0.81135814485E+02 0.  0.
        -11    1    4    4    0    0  0.33152478457E+02  0.88173475725E+02  0.45697707940E+02  0.10469923190E+03  0.00000000000E+00 0.  1.
         12    1    4    4    0    0  0.19076070303E+02 -0.16363572346E+02  0.21532927354E+02  0.33095768892E+02  0.00000000000E+00 0. -1.
        -11    1    3    3    0    0  0.11079990572E+02  0.42495648626E+02  0.11025843771E+03  0.11868264165E+03  0.00000000000E+00 0.  1.
         11    1    3    3    0    0  0.17685166859E+02 -0.15478360064E+02 -0.51403247446E+01  0.24057591226E+02  0.00000000000E+00 0. -1.
         -2    1    1    2    0  502 -0.80993706190E+02 -0.98827191940E+02  0.39181441038E+02  0.13364871728E+03  0.00000000000E+00 0.  1.
<scales pt_clust_5="13000.00000" pt_clust_6="13000.00000" pt_clust_7="13000.00000" pt_clust_8="13000.00000" pt_clust_9="13000.00000"></scales>
<clustering>
<clus scale="   81.136">  5  6 -1 -1</clus>
<clus scale="   88.134">  7  8 -1 -1</clus>
<clus scale="   96.566">  1  7  2 -1</clus>
<clus scale="  109.904">  5  9 -1 -1</clus>
<clus scale="  249.716">  2  5  1 -1</clus>
</clustering>
</event>
<event>
 9    2  0.3726337E-005  0.5698205E+03  0.7546771E-02  0.1058911E+00
          2   -1    0    0  502    0 -0.00000000000E+00  0.00000000000E+00  0.53002910876E+03  0.53002910876E+03  0.00000000000E+00 0. -1.
         21   -1    0    0  501  502  0.00000000000E+00 -0.00000000000E+00 -0.22026479351E+03  0.22026479351E+03  0.00000000000E+00 0. -1.
         23    2    1    2    0    0  0.16072672546E+02 -0.98184693161E+01  0.11945158347E+03  0.14953241599E+03  0.87957543713E+02 0.  0.
         24    2    1    2    0    0  0.70714165685E+02 -0.51775691924E+02  0.37133046019E+03  0.39077764407E+03  0.84496395998E+02 0.  0.
        -13    1    4    4    0    0  0.20430672892E+02 -0.44572891232E+02  0.29527703363E+03  0.29932036620E+03  0.00000000000E+00 0.  1.
         14    1    4    4    0    0  0.50283492793E+02 -0.72028006920E+01  0.76053426558E+02  0.91457277876E+02  0.00000000000E+00 0. -1.
        -13    1    3    3    0    0 -0.11929831693E+02  0.34200533937E+02  0.35679506580E+02  0.50843137153E+02  0.00000000000E+00 0.  1.
         13    1    3    3    0    0  0.28002504239E+02 -0.44019003253E+02  0.83772076886E+02  0.98689278834E+02  0.00000000000E+00 0. -1.
          1    1    1    2  501    0 -0.86786838231E+02  0.61594161240E+02 -0.18101772841E+03  0.20998384220E+03  0.00000000000E+00 0. -1.
<scales pt_clust_5="13000.00000" pt_clust_6="13000.00000" pt_clust_7="13000.00000" pt_clust_8="13000.00000" pt_clust_9="13000.00000"></scales>
<clustering>
<clus scale="   84.496">  5  6 -1 -1</clus>
<clus scale="   87.958">  7  8 -1 -1</clus>
<clus scale="   89.951">  1  7  2 -1</clus>
<clus scale="  105.735">  5  9 -1 -1</clus>
<clus scale="  569.821">  2  5  1 -1</clus>
</clustering>
</event>
<event>
 9    2  0.3726337E-005  0.2553342E+03  0.7546771E-02  0.1126956E+00
         21   -1    0    0  501  502  0.00000000000E+00  0.00000000000E+00  0.49197106169E+02  0.49197106169E+02  0.00000000000E+00 0. -1.
          2   -1    0    0  502    0 -0.00000000000E+00 -0.00000000000E+00 -0.92327096232E+03  0.92327096232E+03  0.00000000000E+00 0. -1.
         23    2    1    2    0    0 -0.46037256964E+02 -0.13254238684E+03 -0.28117048397E+03  0.32692181991E+03  0.90189367078E+02 0.  0.
         24    2    1    2    0    0 -0.61960720025E+02  0.52439522885E+02 -0.32953076187E+03  0.34983496420E+03  0.84881946107E+02 0.  0.
        -11    1    4    4    0    0 -0.54759351483E+02  0.76510183369E+01 -0.26651084379E+03  0.27218588228E+03  0.00000000000E+00 0.  1.
         12    1    4    4    0    0 -0.72013685419E+01  0.44788504548E+02 -0.63019918084E+02  0.77649081926E+02  0.00000000000E+00 0. -1.
        -13    1    3    3    0    0 -0.66993118834E+02 -0.72349147925E+02 -0.13248105522E+03  0.16514753152E+03  0.00000000000E+00 0. -1.
         13    1    3    3    0    0  0.20955861870E+02 -0.60193238919E+02 -0.14868942875E+03  0.16177428838E+03  0.00000000000E+00 0.  1.
          1    1    1    2  501    0  0.10799797699E+03  0.80102863959E+02 -0.26337261031E+03  0.29571128438E+03  0.00000000000E+00 0. -1.
<scales pt_clust_5="13000.00000" pt_clust_6="13000.00000" pt_clust_7="13000.00000" pt_clust_8="13000.00000" pt_clust_9="13000.00000"></scales>
<clustering>
<clus scale="   84.882">  5  6 -1 -1</clus>
<clus scale="   90.189">  7  8 -1 -1</clus>
<clus scale="  134.462">  5  9 -1 -1</clus>
<clus scale="  166.796">  2  7  1 -1</clus>
<clus scale="  255.334">  1  5  2 -1</clus>
</clustering>
</event>
<event>
 9    2  0.3726337E-005  0.1713808E+03  0.7546771E-02  0.1200939E+00
         21   -1    0    0  501  502  0.00000000000E+00  0.00000000000E+00  0.32502202996E+02  0.32502202996E+02  0.00000000000E+00 0. -1.
          2   -1    0    0  502    0 -0.00000000000E+00 -0.00000000000E+00 -0.57899913672E+03  0.57899913672E+03  0.00000000000E+00 0. -1.
         23    2    1    2    0    0  0.38213657858E+02  0.14589049282E+02 -0.15616302725E+03  0.18520106054E+03  0.90771238504E+02 0.  0.
         24    2    1    2    0    0 -0.97218269822E+01  0.19259118357E+02 -0.87128351292E+02  0.11988374638E+03  0.79469085102E+02 0.  0.
        -11    1    4    4    0    0 -0.20755759572E+02  0.20936160484E+02 -0.99173655469E+02  0.10346273875E+03  0.00000000000E+00 0.  1.
         12    1    4    4    0    0  0.11033932590E+02 -0.16770421266E+01  0.12045304177E+02  0.16421007625E+02  0.00000000000E+00 0. -1.
        -11    1    3    3    0    0 -0.12945487276E+02 -0.19567058536E+02 -0.80202351233E+01  0.24794749283E+02  0.00000000000E+00 0.  1.
         11    1    3    3    0    0  0.51159145134E+02  0.34156107818E+02 -0.14814279213E+03  0.16040631126E+03  0.00000000000E+00 0. -1.
          1    1    1    2  501    0 -0.28491830875E+02 -0.33848167639E+02 -0.30320555517E+03  0.30641653279E+03  0.00000000000E+00 0. -1.
<scales pt_clust_5="13000.00000" pt_clust_6="13000.00000" pt_clust_7="13000.00000" pt_clust_8="13000.00000" pt_clust_9="13000.00000"></scales>
<clustering>
<clus scale="   79.469">  5  6 -1 -1</clus>
<clus scale="   44.243">  5  9 -1 -1</clus>
<clus scale="   90.771">  7  8 -1 -1</clus>
<clus scale="   99.562">  2  7  1 -1</clus>
<clus scale="  171.381">  1  5  2 -1</clus>
</clustering>
</event>
<event>
 9    2  0.3726337E-005  0.2221841E+03  0.7546771E-02  0.1155000E+00
          2   -1    0    0  502    0 -0.00000000000E+00  0.00000000000E+00  0.14988890442E+03  0.14988890442E+03  0.00000000000E+00 0. -1.
         21   -1    0    0  501  502  0.00000000000E+00 -0.00000000000E+00 -0.26413630793E+03  0.26413630793E+03  0.00000000000E+00 0. -1.
         23    2    1    2    0    0  0.20689848886E+02  0.89890153014E+02  0.49493202430E+02  0.13802387155E+03  0.89959449620E+02 0.  0.
         24    2    1    2    0    0  0.35998670983E+02 -0.22020404525E+02  0.28240214291E+00  0.89659079822E+02  0.79106689448E+02 0.  0.
        -13    1    4    4    0    0  0.56060837661E+02 -0.33695988713E+02 -0.57948740529E+01  0.65664432837E+02  0.00000000000E+00 0.  1.
         14    1    4    4    0    0 -0.20062166678E+02  0.11675584188E+02  0.60772761958E+01  0.23994646984E+02  0.00000000000E+00 0. -1.
        -11    1    3    3    0    0  0.52077124220E+02  0.79809861802E+02  0.42393810147E+02  0.10430185064E+03  0.00000000000E+00 0. -1.
         11    1    3    3    0    0 -0.31387275334E+02  0.10080291212E+02  0.70993922836E+01  0.33722020915E+02  0.00000000000E+00 0.  1.
          1    1    1    2  501    0 -0.56688519869E+02 -0.67869748489E+02 -0.16402300808E+03  0.18634226097E+03  0.00000000000E+00 0. -1.
<scales pt_clust_5="13000.00000" pt_clust_6="13000.00000" pt_clust_7="13000.00000" pt_clust_8="13000.00000" pt_clust_9="13000.00000"></scales>
<clustering>
<clus scale="   79.107">  5  6 -1 -1</clus>
<clus scale="   88.430">  5  9 -1 -1</clus>
<clus scale="   89.959">  7  8 -1 -1</clus>
<clus scale="  128.845">  1  7  2 -1</clus>
<clus scale="  222.184">  2  5  1 -1</clus>
</clustering>
</event>
<event>
 9    2  0.3726337E-005  0.2832622E+03  0.7546771E-02  0.1103257E+00
          2   -1    0    0  502    0 -0.00000000000E+00  0.00000000000E+00  0.70602655759E+03  0.70602655759E+03  0.00000000000E+00 0. -1.
         21   -1    0    0  501  502  0.00000000000E+00 -0.00000000000E+00 -0.91423537250E+02  0.91423537250E+02  0.00000000000E+00 0. -1.
         23    2    1    2    0    0 -0.19569130393E+03  0.55978410831E+02  0.31119483440E+03  0.38236693920E+03  0.89070659159E+02 0.  0.
         24    2    1    2    0    0  0.74699564041E+02  0.31855868963E+02  0.59333501668E+02  0.12885542580E+03  0.80550822981E+02 0.  0.
        -11    1    4    4    0    0  0.13642757746E+02 -0.24882595565E+02  0.36371857924E+01  0.28609395685E+02  0.00000000000E+00 0.  1.
         12    1    4    4    0    0  0.61056806294E+02  0.56738464528E+02  0.55696315876E+02  0.10024603012E+03  0.00000000000E+00 0. -1.
        -11    1    3    3    0    0 -0.36353272676E+02 -0.40601367118E+01  0.12700111272E+02  0.38721285757E+02  0.00000000000E+00 0.  1.
         11    1    3    3    0    0 -0.15933803125E+03  0.60038547543E+02  0.29849472313E+03  0.34364565344E+03  0.00000000000E+00 0. -1.
          1    1    1    2  501    0  0.12099173989E+03 -0.87834279794E+02  0.24407468427E+03  0.28622772984E+03  0.00000000000E+00 0. -1.
<scales pt_clust_5="13000.00000" pt_clust_6="13000.00000" pt_clust_7="13000.00000" pt_clust_8="13000.00000" pt_clust_9="13000.00000"></scales>
<clustering>
<clus scale="   80.551">  5  6 -1 -1</clus>
<clus scale="   89.071">  7  8 -1 -1</clus>
<clus scale="  149.512">  5  9 -1 -1</clus>
<clus scale="  222.176">  1  7  2 -1</clus>
<clus scale="  283.262">  2  5  1 -1</clus>
</clustering>
</event>
<event>
 9    2  0.3726337E-005  0.3569115E+03  0.7546771E-02  0.1069186E+00
         -1   -1    0    0    0  501 -0.00000000000E+00  0.00000000000E+00  0.42394651093E+03  0.42394651093E+03  0.00000000000E+00 0.  1.
         21   -1    0    0  501  502  0.00000000000E+00 -0.00000000000E+00 -0.24173703490E+03  0.24173703490E+03  0.00000000000E+00 0.  1.
         23    2    1    2    0    0  0.12295401027E+03 -0.21581645249E+03  0.13216547095E+03  0.30528072349E+03  0.11846593864E+03 0.  0.
         24    2    1    2    0    0  0.32577983104E+00 -0.25723507630E+02  0.21492628146E+02  0.87722349795E+02  0.81064619975E+02 0.  0.
        -13    1    4    4    0    0  0.26574142964E+02 -0.16039144921E+01 -0.19794881662E+02  0.33175215990E+02  0.00000000000E+00 0.  1.
         14    1    4    4    0    0 -0.26248363133E+02 -0.24119593138E+02  0.41287509807E+02  0.54547133805E+02  0.00000000000E+00 0. -1.
        -11    1    3    3    0    0  0.14355200465E+03 -0.20754036580E+03  0.12692780080E+03  0.28247273867E+03  0.00000000000E+00 0.  1.
         11    1    3    3    0    0 -0.20597994376E+02 -0.82760866864E+01  0.52376701519E+01  0.22807984825E+02  0.00000000000E+00 0. -1.
         -2    1    1    2    0  502 -0.12327979010E+03  0.24153996012E+03  0.28551376931E+02  0.27268047254E+03  0.00000000000E+00 0.  1.
<scales pt_clust_5="13000.00000" pt_clust_6="13000.00000" pt_clust_7="13000.00000" pt_clust_8="13000.00000" pt_clust_9="13000.00000"></scales>
<clustering>
<clus scale="   81.065">  5  6 -1 -1</clus>
<clus scale="  118.466">  7  8 -1 -1</clus>
<clus scale="  271.182">  5  9 -1 -1</clus>
<clus scale="  275.188">  1  7  2 -1</clus>
<clus scale="  356.911">  2  5  1 -1</clus>
</clustering>
</event>
<event>
 9    2  0.3726337E-005  0.1539870E+04  0.7546771E-02  0.9432896E-01
         -3   -1    0    0    0  501 -0.00000000000E+00  0.00000000000E+00  0.49915724259E+03  0.49915724259E+03  0.00000000000E+00 0.  1.
         21   -1    0    0  501  502  0.00000000000E+00 -0.00000000000E+00 -0.18204354289E+04  0.18204354289E+04  0.00000000000E+00 0. -1.
         23    2    1    2    0    0  0.40995092470E+02  0.14752616454E+03 -0.58900605247E+03  0.61447583647E+03  0.84899098535E+02 0.  0.
         24    2    1    2    0    0 -0.35695326006E+03 -0.49722363003E+03 -0.99096737526E+03  0.11674913995E+04  0.79830201023E+02 0.  0.
        -13    1    4    4    0    0 -0.94682303006E+02 -0.19158910892E+03 -0.31529438463E+03  0.38089588359E+03  0.00000000000E+00 0.  1.
         14    1    4    4    0    0 -0.26227095705E+03 -0.30563452111E+03 -0.67567299064E+03  0.78659551593E+03  0.00000000000E+00 0. -1.
        -13    1    3    3    0    0 -0.23222801846E+02  0.36311597485E+02 -0.20766335203E+03  0.21208936422E+03  0.00000000000E+00 0. -1.
         13    1    3    3    0    0  0.64217894316E+02  0.11121456706E+03 -0.38134270043E+03  0.40238647225E+03  0.00000000000E+00 0.  1.
         -4    1    1    2    0  502  0.31595816759E+03  0.34969746548E+03  0.25869524138E+03  0.53762543554E+03  0.00000000000E+00 0.  1.
<scales pt_clust_5="13000.00000" pt_clust_6="13000.00000" pt_clust_7="13000.00000" pt_clust_8="13000.00000" pt_clust_9="13000.00000"></scales>
<clustering>
<clus scale="   79.830">  5  6 -1 -1</clus>
<clus scale="   84.899">  7  8 -1 -1</clus>
<clus scale="  175.078">  1  7  2 -1</clus>
<clus scale="  586.079">  5  9 -1 -1</clus>
<clus scale=" 1539.870">  2  5  1 -1</clus>
</clustering>
</event>
<event>
 9    2  0.3726337E-005  0.1428277E+03  0.7546771E-02  0.1227183E+00
         21   -1    0    0  501  502  0.00000000000E+00  0.00000000000E+00  0.16218016104E+03  0.16218016104E+03  0.00000000000E+00 0. -1.
          2   -1    0    0  502    0 -0.00000000000E+00 -0.00000000000E+00 -0.13499286921E+03  0.13499286921E+03  0.00000000000E+00 0. -1.
         23    2    1    2    0    0  0.33797330043E+02  0.18094657924E+02 -0.73037349521E+02  0.12268886204E+03  0.90820847170E+02 0.  0.
         24    2    1    2    0    0 -0.42498908993E+02 -0.39012169179E+02  0.11153949850E+03  0.14916054790E+03  0.80496600632E+02 0.  0.
        -11    1    4    4    0    0 -0.28920363544E+01  0.23857818009E+02  0.35263863777E+02  0.42674341739E+02  0.00000000000E+00 0.  1.
         12    1    4    4    0    0 -0.39606872639E+02 -0.62869987187E+02  0.76275634722E+02  0.10648620616E+03  0.00000000000E+00 0. -1.
        -13    1    3    3    0    0 -0.29946392390E+02 -0.57528757770E+01 -0.23956590282E+02  0.38778862991E+02  0.00000000000E+00 0.  1.
         13    1    3    3    0    0  0.63743722433E+02  0.23847533701E+02 -0.49080759239E+02  0.83909999051E+02  0.00000000000E+00 0. -1.
          1    1    1    2  501    0  0.87015789504E+01  0.20917511254E+02 -0.11314857152E+02  0.25323620311E+02  0.00000000000E+00 0. -1.
<scales pt_clust_5="13000.00000" pt_clust_6="13000.00000" pt_clust_7="13000.00000" pt_clust_8="13000.00000" pt_clust_9="13000.00000"></scales>
<clustering>
<clus scale="   80.497">  5  6 -1 -1</clus>
<clus scale="   22.655">  5  9 -1 -1</clus>
<clus scale="   90.821">  7  8 -1 -1</clus>
<clus scale="   98.580">  2  7  1 -1</clus>
<clus scale="  142.828">  1  5  2 -1</clus>
</clustering>
</event>
<event>
 9    2  0.3726337E-005  0.2615217E+03  0.7546771E-02  0.1124610E+00
         21   -1    0    0  501  502  0.00000000000E+00  0.00000000000E+00  0.11354177291E+03  0.11354177291E+03  0.00000000000E+00 0.  1.
         -1   -1    0    0    0  501 -0.00000000000E+00 -0.00000000000E+00 -0.40790698183E+03  0.40790698183E+03  0.00000000000E+00 0.  1.
         23    2    1    2    0    0 -0.55953841387E+02  0.12757410147E+03 -0.78218088402E+02  0.18216544220E+03  0.87522541371E+02 0.  0.
         24    2    1    2    0    0  0.93925592720E+02  0.26135822313E+01 -0.10469499343E+03  0.16374908933E+03  0.83808560576E+02 0.  0.
        -11    1    4    4    0    0  0.90329387990E+02 -0.17918934993E+02 -0.49071444065E+02  0.10434794291E+03  0.00000000000E+00 0.  1.
         12    1    4    4    0    0  0.35962047297E+01  0.20532517224E+02 -0.55623549368E+02  0.59401146422E+02  0.00000000000E+00 0. -1.
        -11    1    3    3    0    0  0.11340331638E+02  0.70114992516E+02 -0.12916399942E+02  0.72191056819E+02  0.00000000000E+00 0.  1.
         11    1    3    3    0    0 -0.67294173026E+02  0.57459108955E+02 -0.65301688460E+02  0.10997438539E+03  0.00000000000E+00 0. -1.
         -2    1    1    2    0  502 -0.37971751332E+02 -0.13018768370E+03 -0.11145212708E+03  0.17553422321E+03  0.00000000000E+00 0.  1.
<scales pt_clust_5="13000.00000" pt_clust_6="13000.00000" pt_clust_7="13000.00000" pt_clust_8="13000.00000" pt_clust_9="13000.00000"></scales>
<clustering>
<clus scale="   83.809">  5  6 -1 -1</clus>
<clus scale="   87.523">  7  8 -1 -1</clus>
<clus scale="  135.612">  5  9 -1 -1</clus>
<clus scale="  164.518">  2  7  1 -1</clus>
<clus scale="  261.522">  1  5  2 -1</clus>
</clustering>
</event>
<event>
 9    2  0.3726337E-005  0.3524003E+03  0.7546771E-02  0.1109241E+00
         21   -1    0    0  501  502  0.00000000000E+00  0.00000000000E+00  0.95053992065E+03  0.95053992065E+03  0.00000000000E+00 0.  1.
         -3   -1    0    0    0  501 -0.00000000000E+00 -0.00000000000E+00 -0.10483001082E+03  0.10483001082E+03  0.00000000000E+00 0.  1.
         23    2    1    2    0    0  0.30491341502E+02  0.30419901378E+02 -0.36417611850E+02  0.10545682159E+03  0.89105591630E+02 0.  0.
         24    2    1    2    0    0  0.88434479264E+02  0.11298365735E+03  0.42472074471E+03  0.45602153158E+03  0.83558137430E+02 0.  0.
        -13    1    4    4    0    0  0.51777700130E+02  0.10276462681E+03  0.38129840060E+03  0.39828377956E+03  0.00000000000E+00 0.  1.
         14    1    4    4    0    0  0.36656779134E+02  0.10219030544E+02  0.43422344104E+02  0.57737752028E+02  0.00000000000E+00 0. -1.
        -11    1    3    3    0    0 -0.19549542487E+02  0.38494047840E+02 -0.22617578006E+00  0.43174384605E+02  0.00000000000E+00 0.  1.
         11    1    3    3    0    0  0.50040883989E+02 -0.80741464620E+01 -0.36191436070E+02  0.62282436981E+02  0.00000000000E+00 0. -1.
         -4    1    1    2    0  502 -0.11892582077E+03 -0.14340355873E+03  0.45740677697E+03  0.49389157831E+03  0.00000000000E+00 0.  1.
<scales pt_clust_5="13000.00000" pt_clust_6="13000.00000" pt_clust_7="13000.00000" pt_clust_8="13000.00000" pt_clust_9="13000.00000"></scales>
<clustering>
<clus scale="   83.558">  5  6 -1 -1</clus>
<clus scale="   89.106">  7  8 -1 -1</clus>
<clus scale="   98.969">  2  7  1 -1</clus>
<clus scale="  163.236">  5  9 -1 -1</clus>
<clus scale="  352.400">  1  5  2 -1</clus>
</clustering>
</event>
<event>
 9    2  0.3726337E-005  0.4481834E+03  0.7546771E-02  0.1082178E+00
          4   -1    0    0  502    0 -0.00000000000E+00  0.00000000000E+00  0.46131093232E+03  0.46131093232E+03  0.00000000000E+00 0. -1.
         21   -1    0    0  501  502  0.00000000000E+00 -0.00000000000E+00 -0.23153793749E+03  0.23153793749E+03  0.00000000000E+00 0. -1.
         23    2    1    2    0    0 -0.32429429338E+02  0.96308753537E+01  0.22429450133E+03  0.24463201288E+03  0.91609916251E+02 0.  0.
         24    2    1    2    0    0 -0.13920961007E+03  0.91615366491E+02  0.11687765587E+03  0.21991763505E+03  0.83250758854E+02 0.  0.
        -11    1    4    4    0    0 -0.83118365244E+01  0.25123061097E+02  0.54132299481E+02  0.60254134069E+02  0.00000000000E+00 0.  1.
         12    1    4    4    0    0 -0.13089777355E+03  0.66492305395E+02  0.62745356386E+02  0.15966350098E+03  0.00000000000E+00 0. -1.
        -13    1    3    3    0    0  0.31962209286E+02  0.90451444195E+01  0.72849806850E+02  0.80065547010E+02  0.00000000000E+00 0.  1.
         13    1    3    3    0    0 -0.64391638624E+02  0.58573093420E+00  0.15144469448E+03  0.16456646587E+03  0.00000000000E+00 0. -1.
          3    1    1    2  501    0  0.17163903941E+03 -0.10124624185E+03 -0.11139916236E+03  0.22829922188E+03  0.00000000000E+00 0. -1.
<scales pt_clust_5="13000.00000" pt_clust_6="13000.00000" pt_clust_7="13000.00000" pt_clust_8="13000.00000" pt_clust_9="13000.00000"></scales>
<clustering>
<clus scale="   83.251">  5  6 -1 -1</clus>
<clus scale="   91.610">  7  8 -1 -1</clus>
<clus scale="   97.657">  1  7  2 -1</clus>
<clus scale="  190.830">  5  9 -1 -1</clus>
<clus scale="  448.183">  2  5  1 -1</clus>
</clustering>
</event>
<event>
 9    2  0.3726337E-005  0.3066898E+03  0.7546771E-02  0.1111499E+00
          2   -1    0    0  502    0 -0.00000000000E+00  0.00000000000E+00  0.36667012804E+03  0.36667012804E+03  0.00000000000E+00 0. -1.
         21   -1    0    0  501  502  0.00000000000E+00 -0.00000000000E+00 -0.13712600387E+03  0.13712600387E+03  0.00000000000E+00 0.  1.
         23    2    1    2    0    0  0.98300521353E+02 -0.31663921308E+02  0.74543389727E+02  0.16016276903E+03  0.97107153295E+02 0.  0.
         24    2    1    2    0    0  0.11956981036E+02 -0.45117760344E+02 -0.45355445747E+02  0.10239749819E+03  0.79054092126E+02 0.  0.
        -11    1    4    4    0    0  0.28397158598E+02 -0.61960588649E+02 -0.35881518855E+02  0.77025947301E+02  0.00000000000E+00 0.  1.
         12    1    4    4    0    0 -0.16440177562E+02  0.16842828305E+02 -0.94739268921E+01  0.25371550886E+02  0.00000000000E+00 0. -1.
        -13    1    3    3    0    0  0.68006795027E+02  0.28335296499E+02  0.30103781931E+02  0.79586750681E+02  0.00000000000E+00 0.  1.
         13    1    3    3    0    0  0.30293726326E+02 -0.59999217807E+02  0.44439607797E+02  0.80576018350E+02  0.00000000000E+00 0. -1.
          1    1    1    2  501    0 -0.11025750239E+03  0.76781681652E+02  0.20035618019E+03  0.24123586469E+03  0.00000000000E+00 0. -1.
<scales pt_clust_5="13000.00000" pt_clust_6="13000.00000" pt_clust_7="13000.00000" pt_clust_8="13000.00000" pt_clust_9="13000.00000"></scales>
<clustering>
<clus scale="   79.054">  5  6 -1 -1</clus>
<clus scale="   97.107">  7  8 -1 -1</clus>
<clus scale="  134.358">  5  9 -1 -1</clus>
<clus scale="  141.758">  1  7  2 -1</clus>
<clus scale="  306.690">  2  5  1 -1</clus>
</clustering>
</event>
<event>
 9    2  0.3726337E-005  0.6989683E+03  0.7546771E-02  0.9955680E-01
          2   -1    0    0  502    0 -0.00000000000E+00  0.00000000000E+00  0.18111610853E+04  0.18111610853E+04  0.00000000000E+00 0. -1.
         21   -1    0    0  501  502  0.00000000000E+00 -0.00000000000E+00 -0.16361410773E+03  0.16361410773E+03  0.00000000000E+00 0. -1.
         23    2    1    2    0    0  0.28698106737E+03  0.11626197010E+03  0.23771002929E+03  0.40118156504E+03  0.92550588230E+02 0.  0.
         24    2    1    2    0    0 -0.62677924752E+02  0.21757714797E+03  0.85666240803E+03  0.88966195850E+03  0.79746984234E+02 0.  0.
        -11    1    4    4    0    0 -0.78173844925E+02  0.13862416863E+03  0.59423791185E+03  0.61518005986E+03  0.00000000000E+00 0.  1.
         12    1    4    4    0    0  0.15495920173E+02  0.78952979340E+02  0.26242449618E+03  0.27448189864E+03  0.00000000000E+00 0. -1.
        -11    1    3    3    0    0  0.19700829888E+03  0.84254817386E+02  0.21390099140E+03  0.30276191670E+03  0.00000000000E+00 0.  1.
         11    1    3    3    0    0  0.89972768493E+02  0.32007152712E+02  0.23809037894E+02  0.98419648345E+02  0.00000000000E+00 0. -1.
          1    1    1    2  501    0 -0.22430314262E+03 -0.33383911807E+03  0.55317454022E+03  0.68393166946E+03  0.00000000000E+00 0. -1.
<scales pt_clust_5="13000.00000" pt_clust_6="13000.00000" pt_clust_7="13000.00000" pt_clust_8="13000.00000" pt_clust_9="13000.00000"></scales>
<clustering>
<clus scale="   79.747">  5  6 -1 -1</clus>
<clus scale="   92.551">  7  8 -1 -1</clus>
<clus scale="  323.173">  1  7  2 -1</clus>
<clus scale="  304.423">  5  9 -1 -1</clus>
<clus scale="  698.968">  2  5  1 -1</clus>
</clustering>
</event>
<event>
 9    2  0.3726337E-005  0.2853504E+03  0.7546771E-02  0.1117975E+00
          2   -1    0    0  502    0 -0.00000000000E+00  0.00000000000E+00  0.48955634506E+03  0.48955634506E+03  0.00000000000E+00 0. -1.
         21   -1    0    0  501  502  0.00000000000E+00 -0.00000000000E+00 -0.97362008324E+02  0.97362008324E+02  0.00000000000E+00 0. -1.
         23    2    1    2    0    0  0.63887179819E+01  0.11921779297E+03  0.10971544935E+03  0.18539724620E+03  0.89894166619E+02 0.  0.
         24    2    1    2    0    0  0.35257584454E+02  0.54456735469E+02  0.12659545605E+03  0.16446225268E+03  0.82539625419E+02 0.  0.
        -11    1    4    4    0    0 -0.25010630692E+02  0.20190366829E+01  0.29669082699E+02  0.38856950793E+02  0.00000000000E+00 0.  1.
         12    1    4    4    0    0  0.60268215146E+02  0.52437698786E+02  0.96926373349E+02  0.12560530188E+03  0.00000000000E+00 0. -1.
        -11    1    3    3    0    0  0.40082562419E+02  0.74895045809E+02  0.95744044376E+02  0.12799531917E+03  0.00000000000E+00 0.  1.
         11    1    3    3    0    0 -0.33693844437E+02  0.44322747164E+02  0.13971404977E+02  0.57401927024E+02  0.00000000000E+00 0. -1.
          1    1    1    2  501    0 -0.41646302436E+02 -0.17367452844E+03  0.15588343134E+03  0.23705885451E+03  0.00000000000E+00 0. -1.
<scales pt_clust_5="13000.00000" pt_clust_6="13000.00000" pt_clust_7="13000.00000" pt_clust_8="13000.00000" pt_clust_9="13000.00000"></scales>
<clustering>
<clus scale="   82.540">  5  6 -1 -1</clus>
<clus scale="   89.894">  7  8 -1 -1</clus>
<clus scale="  149.448">  1  7  2 -1</clus>
<clus scale="  111.832">  5  9 -1 -1</clus>
<clus scale="  285.350">  2  5  1 -1</clus>
</clustering>
</event>
<event>
 9    2  0.3726337E-005  0.1113476E+04  0.7546771E-02  0.9686252E-01
         -1   -1    0    0    0  501 -0.00000000000E+00  0.00000000000E+00  0.50263769494E+03  0.50263769494E+03  0.00000000000E+00 0.  1.
         21   -1    0    0  501  502  0.00000000000E+00 -0.00000000000E+00 -0.12066191034E+04  0.12066191034E+04  0.00000000000E+00 0.  1.
         23    2    1    2    0    0 -0.16920314610E+03  0.12436387663E+02  0.19786552344E+03  0.27637281418E+03  0.91906466921E+02 0.  0.
         24    2    1    2    0    0 -0.15678418559E+03 -0.17336858815E+03  0.17083091184E+03  0.30027431175E+03  0.79646177860E+02 0.  0.
        -13    1    4    4    0    0 -0.89913416161E+02 -0.15209288914E+03  0.11862459692E+03  0.21281086515E+03  0.00000000000E+00 0.  1.
         14    1    4    4    0    0 -0.66870769433E+02 -0.21275699006E+02  0.52206314921E+02  0.87463446595E+02  0.00000000000E+00 0. -1.
        -11    1    3    3    0    0 -0.80579476101E+02  0.49619261529E+02  0.11905924387E+03  0.15208624735E+03  0.00000000000E+00 0.  1.
         11    1    3    3    0    0 -0.88623669996E+02 -0.37182873867E+02  0.78806279572E+02  0.12428656682E+03  0.00000000000E+00 0. -1.
         -2    1    1    2    0  502  0.32598733169E+03  0.16093220049E+03 -0.10726778437E+04  0.11326096724E+04  0.00000000000E+00 0.  1.
<scales pt_clust_5="13000.00000" pt_clust_6="13000.00000" pt_clust_7="13000.00000" pt_clust_8="13000.00000" pt_clust_9="13000.00000"></scales>
<clustering>
<clus scale="   79.646">  5  6 -1 -1</clus>
<clus scale="   91.906">  7  8 -1 -1</clus>
<clus scale="  192.954">  1  7  2 -1</clus>
<clus scale="  347.182">  5  9 -1 -1</clus>
<clus scale=" 1113.476">  2  5  1 -1</clus>
</clustering>
</event>
<event>
 9    2  0.3726337E-005  0.2393014E+03  0.7546771E-02  0.1152012E+00
         -1   -1    0    0    0  501 -0.00000000000E+00  0.00000000000E+00  0.16907292930E+03  0.16907292930E+03  0.00000000000E+00 0.  1.
         21   -1    0    0  501  502  0.00000000000E+00 -0.00000000000E+00 -0.18232421785E+03  0.18232421785E+03  0.00000000000E+00 0.  1.
         23    2    1    2    0    0 -0.42365366514E+02  0.45166077721E+02 -0.17710728208E+02  0.11205414991E+03  0.91693313610E+02 0.  0.
         24    2    1    2    0    0  0.11846145337E+03 -0.45647997717E+02 -0.30823527066E+02  0.15546371242E+03  0.84273485912E+02 0.  0.
        -13    1    4    4    0    0  0.57401307391E+02  0.17842964477E+02 -0.30432349797E+02  0.67375139226E+02  0.00000000000E+00 0.  1.
         14    1    4    4    0    0  0.61060145977E+02 -0.63490962194E+02 -0.39117726872E+00  0.88088573190E+02  0.00000000000E+00 0. -1.
        -11    1    3    3    0    0 -0.60250753389E+02  0.58664046102E+02 -0.26219707075E+02  0.88085734533E+02  0.00000000000E+00 0.  1.
         11    1    3    3    0    0  0.17885386876E+02 -0.13497968381E+02  0.85089788671E+01  0.23968415372E+02  0.00000000000E+00 0. -1.
         -2    1    1    2    0  502 -0.76096086854E+02  0.48191999589E+00  0.35282966725E+02  0.83879284822E+02  0.00000000000E+00 0.  1.
<scales pt_clust_5="13000.00000" pt_clust_6="13000.00000" pt_clust_7="13000.00000" pt_clust_8="13000.00000" pt_clust_9="13000.00000"></scales>
<clustering>
<clus scale="   84.273">  5  6 -1 -1</clus>
<clus scale="   76.098">  5  9 -1 -1</clus>
<clus scale="   91.693">  7  8 -1 -1</clus>
<clus scale="  110.646">  1  7  2 -1</clus>
<clus scale="  239.301">  2  5  1 -1</clus>
</clustering>
</event>
<event>
 9    2  0.3726337E-005  0.3724317E+03  0.7546771E-02  0.1102076E+00
         21   -1    0    0  501  502  0.00000000000E+00  0.00000000000E+00  0.32016734082E+02  0.32016734082E+02  0.00000000000E+00 0.  1.
         -1   -1    0    0    0  501 -0.00000000000E+00 -0.00000000000E+00 -0.17812511703E+04  0.17812511703E+04  0.00000000000E+00 0.  1.
         23    2    1    2    0    0 -0.32248287363E+02  0.32067348149E+02 -0.28069050763E+03  0.29823436616E+03  0.89935027823E+02 0.  0.
         24    2    1    2    0    0  0.14736434282E+03 -0.10043582516E+03 -0.49426731867E+03  0.53160033383E+03  0.80592357644E+02 0.  0.
        -11    1    4    4    0    0  0.14134131307E+03 -0.80085730506E+02 -0.35102106658E+03  0.38679048617E+03  0.00000000000E+00 0.  1.
         12    1    4    4    0    0  0.60230297448E+01 -0.20350094658E+02 -0.14324625209E+03  0.14480984765E+03  0.00000000000E+00 0. -1.
        -13    1    3    3    0    0 -0.45204597329E+02 -0.10210496892E+02 -0.20841403880E+03  0.21350438271E+03  0.00000000000E+00 0.  1.
         13    1    3    3    0    0  0.12956309965E+02  0.42277845041E+02 -0.72276468833E+02  0.84729983454E+02  0.00000000000E+00 0. -1.
         -2    1    1    2    0  502 -0.11511605545E+03  0.68368477015E+02 -0.97427660996E+03  0.98343320444E+03  0.00000000000E+00 0.  1.
<scales pt_clust_5="13000.00000" pt_clust_6="13000.00000" pt_clust_7="13000.00000" pt_clust_8="13000.00000" pt_clust_9="13000.00000"></scales>
<clustering>
<clus scale="   80.592">  5  6 -1 -1</clus>
<clus scale="   89.935">  7  8 -1 -1</clus>
<clus scale="  100.780">  2  7  1 -1</clus>
<clus scale="  162.989">  5  9 -1 -1</clus>
<clus scale="  372.432">  1  5  2 -1</clus>
</clustering>
</event>
<event>
 9    2  0.3726337E-005  0.4087929E+03  0.7546771E-02  0.1093872E+00
         21   -1    0    0  501  502  0.00000000000E+00  0.00000000000E+00  0.83710686590E+02  0.83710686590E+02  0.00000000000E+00 0.  1.
          2   -1    0    0  502    0 -0.00000000000E+00 -0.00000000000E+00 -0.75988745351E+03  0.75988745351E+03  0.00000000000E+00 0. -1.
         23    2    1    2    0    0  0.91849308115E+01 -0.16502110632E+02 -0.10448457904E+03  0.14078692281E+03  0.92451326479E+02 0.  0.
         24    2    1    2    0    0 -0.75025121939E+02  0.13025440930E+03 -0.54211664557E+03  0.56809214321E+03  0.79014212048E+02 0.  0.
        -11    1    4    4    0    0 -0.64897565852E+02  0.57124501306E+02 -0.38365574299E+03  0.39327678781E+03  0.00000000000E+00 0.  1.
         12    1    4    4    0    0 -0.10127556087E+02  0.73129907991E+02 -0.15846090258E+03  0.17481535540E+03  0.00000000000E+00 0. -1.
        -11    1    3    3    0    0 -0.88250047789E+01 -0.52222848470E+02 -0.71248962035E+02  0.88777931958E+02  0.00000000000E+00 0. -1.
         11    1    3    3    0    0  0.18009935590E+02  0.35720737838E+02 -0.33235617003E+02  0.52008990850E+02  0.00000000000E+00 0.  1.
          1    1    1    2  501    0  0.65840191127E+02 -0.11375229866E+03 -0.29575542311E+02  0.13471907408E+03  0.00000000000E+00 0. -1.
<scales pt_clust_5="13000.00000" pt_clust_6="13000.00000" pt_clust_7="13000.00000" pt_clust_8="13000.00000" pt_clust_9="13000.00000"></scales>
<clustering>
<clus scale="   79.014">  5  6 -1 -1</clus>
<clus scale="   92.451">  7  8 -1 -1</clus>
<clus scale="   94.361">  2  7  1 -1</clus>
<clus scale="  133.867">  5  9 -1 -1</clus>
<clus scale="  408.793">  1  5  2 -1</clus>
</clustering>
</event>
<event>
 9    2  0.5033282E-005  0.3903251E+03  0.7546771E-02  0.1082958E+00
          2   -1    0    0  502    0 -0.00000000000E+00  0.00000000000E+00  0.22632095473E+03  0.22632095473E+03  0.00000000000E+00 0. -1.
         21   -1    0    0  501  502  0.00000000000E+00 -0.00000000000E+00 -0.34450476400E+03  0.34450476400E+03  0.00000000000E+00 0. -1.
         23    2    1    2    0    0  0.10695801333E+03 -0.16480346136E+02 -0.10755019078E+03  0.18035583419E+03  0.96174658643E+02 0.  0.
         24    2    1    2    0    0 -0.24549652343E+02  0.63816270042E+02  0.16179631153E+03  0.19358436343E+03  0.81373568115E+02 0.  0.
        -13    1    4    4    0    0 -0.11719785355E+02 -0.18629941685E+02  0.44413665479E+02  0.49568152853E+02  0.00000000000E+00 0.  1.
         14    1    4    4    0    0 -0.12829866988E+02  0.82446211727E+02  0.11738264605E+03  0.14401621058E+03  0.00000000000E+00 0. -1.
        -13    1    3    3    0    0  0.65701142919E+01 -0.38760243192E+02 -0.46005913643E+02  0.60515014205E+02  0.00000000000E+00 0.  1.
         13    1    3    3    0    0  0.10038789904E+03  0.22279897056E+02 -0.61544277138E+02  0.11984081999E+03  0.00000000000E+00 0. -1.
          1    1    1    2  501    0 -0.82408360988E+02 -0.47335923906E+02 -0.17242993003E+03  0.19688552111E+03  0.00000000000E+00 0. -1.
<scales pt_clust_5="13000.00000" pt_clust_6="13000.00000" pt_clust_7="13000.00000" pt_clust_8="13000.00000" pt_clust_9="13000.00000"></scales>
<clustering>
<clus scale="   81.374">  5  6 -1 -1</clus>
<clus scale="   95.036">  5  9 -1 -1</clus>
<clus scale="   96.175">  7  8 -1 -1</clus>
<clus scale="  144.780">  1  7  2 -1</clus>
<clus scale="  390.325">  2  5  1 -1</clus>
</clustering>
</event>
<event>
 9    2  0.3726337E-005  0.1885232E+03  0.7546771E-02  0.1186474E+00
         -3   -1    0    0    0  501 -0.00000000000E+00  0.00000000000E+00  0.11722307801E+03  0.11722307801E+03  0.00000000000E+00 0.  1.
         21   -1    0    0  501  502  0.00000000000E+00 -0.00000000000E+00 -0.18195462650E+03  0.18195462650E+03  0.00000000000E+00 0.  1.
         23    2    1    2    0    0  0.39514005120E+02  0.22574426074E+02 -0.12226596302E+02  0.10347953334E+03  0.92127969961E+02 0.  0.
         24    2    1    2    0    0  0.47463152776E+02 -0.92284549798E+01 -0.52106148118E+02  0.10770214862E+03  0.80912217202E+02 0.  0.
        -11    1    4    4    0    0  0.60592849234E+02  0.85406765685E+01 -0.58547001409E+02  0.84688770852E+02  0.00000000000E+00 0.  1.
         12    1    4    4    0    0 -0.13129696458E+02 -0.17769131548E+02  0.64408532903E+01  0.23013377766E+02  0.00000000000E+00 0. -1.
        -11    1    3    3    0    0  0.38121911330E+02  0.52982676402E+02 -0.25753804632E+02  0.70169099861E+02  0.00000000000E+00 0.  1.
         11    1    3    3    0    0  0.13920937901E+01 -0.30408250328E+02  0.13527208331E+02  0.33310433476E+02  0.00000000000E+00 0. -1.
         -4    1    1    2    0  502 -0.86977157896E+02 -0.13345971094E+02 -0.39880407443E+00  0.87996022551E+02  0.00000000000E+00 0.  1.
<scales pt_clust_5="13000.00000" pt_clust_6="13000.00000" pt_clust_7="13000.00000" pt_clust_8="13000.00000" pt_clust_9="13000.00000"></scales>
<clustering>
<clus scale="   80.912">  5  6 -1 -1</clus>
<clus scale="   87.995">  5  9 -1 -1</clus>
<clus scale="   92.128">  7  8 -1 -1</clus>
<clus scale="  102.755">  1  7  2 -1</clus>
<clus scale="  188.523">  2  5  1 -1</clus>
</clustering>
</event>
<event>
 9    2  0.3726337E-005  0.3012475E+03  0.7546771E-02  0.1110566E+00
          4   -1    0    0  502    0 -0.00000000000E+00  0.00000000000E+00  0.64967801778E+02  0.64967801778E+02  0.00000000000E+00 0. -1.
         21   -1    0    0  501  502  0.00000000000E+00 -0.00000000000E+00 -0.79500323373E+03  0.79500323373E+03  0.00000000000E+00 0. -1.
         23    2    1    2    0    0  0.32068419080E+02  0.11830969554E+03 -0.25521074342E+03  0.29764680857E+03  0.91845149764E+02 0.  0.
         24    2    1    2    0    0 -0.18268115765E+02 -0.39131335617E+02 -0.11305958804E+02  0.91889030699E+02  0.80316771458E+02 0.  0.
        -11    1    4    4    0    0 -0.99945569884E+01 -0.54706979297E+02 -0.32424457505E+02  0.64374608330E+02  0.00000000000E+00 0.  1.
         12    1    4    4    0    0 -0.82735587768E+01  0.15575643680E+02  0.21118498701E+02  0.27514422368E+02  0.00000000000E+00 0. -1.
        -11    1    3    3    0    0 -0.20201623001E+02 -0.10504861462E+01 -0.18358850951E+02  0.27317695753E+02  0.00000000000E+00 0.  1.
         11    1    3    3    0    0  0.52270042081E+02  0.11936018168E+03 -0.23685189247E+03  0.27032911282E+03  0.00000000000E+00 0. -1.
          3    1    1    2  501    0 -0.13800303315E+02 -0.79178359920E+02 -0.46351872973E+03  0.47043519624E+03  0.00000000000E+00 0. -1.
<scales pt_clust_5="13000.00000" pt_clust_6="13000.00000" pt_clust_7="13000.00000" pt_clust_8="13000.00000" pt_clust_9="13000.00000"></scales>
<clustering>
<clus scale="   80.317">  5  6 -1 -1</clus>
<clus scale="   80.372">  5  9 -1 -1</clus>
<clus scale="   91.845">  7  8 -1 -1</clus>
<clus scale="  153.170">  1  7  2 -1</clus>
<clus scale="  301.247">  2  5  1 -1</clus>
</clustering>
</event>
<event>
 9    2  0.3726337E-005  0.4279517E+03  0.7546771E-02  0.1079995E+00
         -1   -1    0    0    0  501 -0.00000000000E+00  0.00000000000E+00  0.21105247738E+03  0.21105247738E+03  0.00000000000E+00 0.  1.
         21   -1    0    0  501  502  0.00000000000E+00 -0.00000000000E+00 -0.40732028889E+03  0.40732028889E+03  0.00000000000E+00 0.  1.
         23    2    1    2    0    0 -0.10912142614E+02 -0.76533206576E+02 -0.14471342236E+03  0.18732689666E+03  0.90404563135E+02 0.  0.
         24    2    1    2    0    0  0.19914549746E+03  0.21180644054E+02  0.30326546232E+02  0.21844250737E+03  0.81791691374E+02 0.  0.
        -13    1    4    4    0    0  0.18489318671E+03  0.29084664069E+02  0.36748414828E+01  0.18720286492E+03  0.00000000000E+00 0.  1.
         14    1    4    4    0    0  0.14252310753E+02 -0.79040200151E+01  0.26651704749E+02  0.31239642447E+02  0.00000000000E+00 0. -1.
        -11    1    3    3    0    0  0.34604794496E+02 -0.77893496859E+01 -0.55348752050E+02  0.65739258622E+02  0.00000000000E+00 0. -1.
         11    1    3    3    0    0 -0.45516937110E+02 -0.68743856890E+02 -0.89364670308E+02  0.12158763804E+03  0.00000000000E+00 0.  1.
         -2    1    1    2    0  502 -0.18823335485E+03  0.55352562522E+02 -0.81880935384E+02  0.21260336224E+03  0.00000000000E+00 0.  1.
<scales pt_clust_5="13000.00000" pt_clust_6="13000.00000" pt_clust_7="13000.00000" pt_clust_8="13000.00000" pt_clust_9="13000.00000"></scales>
<clustering>
<clus scale="   81.792">  5  6 -1 -1</clus>
<clus scale="   90.405">  7  8 -1 -1</clus>
<clus scale="  118.951">  1  7  2 -1</clus>
<clus scale="  194.169">  5  9 -1 -1</clus>
<clus scale="  427.952">  2  5  1 -1</clus>
</clustering>
</event>
<event>
 9    2  0.3726337E-005  0.4980979E+03  0.7546771E-02  0.1067832E+00
         -1   -1    0    0    0  501 -0.00000000000E+00  0.00000000000E+00  0.13473935925E+03  0.13473935925E+03  0.00000000000E+00 0.  1.
         21   -1    0    0  501  502  0.00000000000E+00 -0.00000000000E+00 -0.75485954390E+03  0.75485954390E+03  0.00000000000E+00 0.  1.
         23    2    1    2    0    0 -0.64153577219E+01  0.51568971444E+02 -0.15491071352E+02  0.10622294635E+03  0.91339068358E+02 0.  0.
         24    2    1    2    0    0 -0.18596164402E+03 -0.57453170590E+02 -0.53985035703E+03  0.58030005506E+03  0.86180891516E+02 0.  0.
        -13    1    4    4    0    0 -0.11871742831E+03 -0.65366566009E+02 -0.43381552588E+03  0.45449150292E+03  0.00000000000E+00 0.  1.
         14    1    4    4    0    0 -0.67244215718E+02  0.79133954191E+01 -0.10603483115E+03  0.12580855214E+03  0.00000000000E+00 0. -1.
        -13    1    3    3    0    0  0.32156791947E+02  0.55986049117E+02 -0.38951230557E+00  0.64565073251E+02  0.00000000000E+00 0.  1.
         13    1    3    3    0    0 -0.38572149669E+02 -0.44170776735E+01 -0.15101559046E+02  0.41657873096E+02  0.00000000000E+00 0. -1.
         -2    1    1    2    0  502  0.19237700175E+03  0.58841991468E+01 -0.64778756269E+02  0.20307590173E+03  0.00000000000E+00 0.  1.
<scales pt_clust_5="13000.00000" pt_clust_6="13000.00000" pt_clust_7="13000.00000" pt_clust_8="13000.00000" pt_clust_9="13000.00000"></scales>
<clustering>
<clus scale="   86.181">  5  6 -1 -1</clus>
<clus scale="   91.339">  7  8 -1 -1</clus>
<clus scale="  105.087">  1  7  2 -1</clus>
<clus scale="  192.925">  5  9 -1 -1</clus>
<clus scale="  498.098">  2  5  1 -1</clus>
</clustering>
</event>
<event>
 9    2  0.3726337E-005  0.3402454E+03  0.7546771E-02  0.1098972E+00
          2   -1    0    0  502    0 -0.00000000000E+00  0.00000000000E+00  0.65984393721E+03  0.65984393721E+03  0.00000000000E+00 0. -1.
         21   -1    0    0  501  502  0.00000000000E+00 -0.00000000000E+00 -0.14743999586E+03  0.14743999586E+03  0.00000000000E+00 0. -1.
         23    2    1    2    0    0 -0.41530696684E+02 -0.10051633357E+03  0.43550404496E+03  0.45845658455E+03  0.93221964465E+02 0.  0.
         24    2    1    2    0    0  0.15533955166E+03  0.12324480248E+03  0.91816299837E+01  0.21445918870E+03  0.81171322777E+02 0.  0.
        -13    1    4    4    0    0  0.31647915537E+02  0.29793310104E+01  0.26073876882E+02  0.41113428789E+02  0.00000000000E+00 0.  1.
         14    1    4    4    0    0  0.12369163612E+03  0.12026547147E+03 -0.16892246898E+02  0.17334575991E+03  0.00000000000E+00 0. -1.
        -13    1    3    3    0    0  0.20802380392E+02 -0.65796949696E+02  0.26003881414E+03  0.26903933258E+03  0.00000000000E+00 0.  1.
         13    1    3    3    0    0 -0.62333077076E+02 -0.34719383869E+02  0.17546523082E+03  0.18941725196E+03  0.00000000000E+00 0. -1.
          1    1    1    2  501    0 -0.11380885498E+03 -0.22728468916E+02  0.67718266404E+02  0.13436815983E+03  0.00000000000E+00 0. -1.
<scales pt_clust_5="13000.00000" pt_clust_6="13000.00000" pt_clust_7="13000.00000" pt_clust_8="13000.00000" pt_clust_9="13000.00000"></scales>
<clustering>
<clus scale="   81.171">  5  6 -1 -1</clus>
<clus scale="   93.222">  7  8 -1 -1</clus>
<clus scale="  116.056">  5  9 -1 -1</clus>
<clus scale="  143.243">  1  7  2 -1</clus>
<clus scale="  340.245">  2  5  1 -1</clus>
</clustering>
</event>
<event>
 9    2  0.3726337E-005  0.2606238E+03  0.7546771E-02  0.1120078E+00
         21   -1    0    0  501  502  0.00000000000E+00  0.00000000000E+00  0.81069850015E+02  0.81069850015E+02  0.00000000000E+00 0. -1.
          2   -1    0    0  502    0 -0.00000000000E+00 -0.00000000000E+00 -0.61586365470E+03  0.61586365470E+03  0.00000000000E+00 0. -1.
         23    2    1    2    0    0 -0.16013376672E+03 -0.18812503290E+02 -0.21285451911E+03  0.28272381209E+03  0.92892271454E+02 0.  0.
         24    2    1    2    0    0  0.11747668010E+02  0.61696973406E+02 -0.16602927007E+03  0.19474341958E+03  0.80092176381E+02 0.  0.
        -13    1    4    4    0    0  0.40512411541E+02  0.37867617444E+02 -0.13581526391E+03  0.14670036759E+03  0.00000000000E+00 0.  1.
         14    1    4    4    0    0 -0.28764743531E+02  0.23829355963E+02 -0.30214006154E+02  0.48043051983E+02  0.00000000000E+00 0. -1.
        -13    1    3    3    0    0 -0.10892072643E+03  0.30245195437E+02 -0.15096727838E+03  0.18859908705E+03  0.00000000000E+00 0. -1.
         13    1    3    3    0    0 -0.51213040296E+02 -0.49057698728E+02 -0.61887240723E+02  0.94124725046E+02  0.00000000000E+00 0.  1.
          1    1    1    2  501    0  0.14838609871E+03 -0.42884470116E+02 -0.15591001551E+03  0.21946627305E+03  0.00000000000E+00 0. -1.
<scales pt_clust_5="13000.00000" pt_clust_6="13000.00000" pt_clust_7="13000.00000" pt_clust_8="13000.00000" pt_clust_9="13000.00000"></scales>
<clustering>
<clus scale="   80.092">  5  6 -1 -1</clus>
<clus scale="   92.892">  7  8 -1 -1</clus>
<clus scale="  154.459">  5  9 -1 -1</clus>
<clus scale="  186.080">  2  7  1 -1</clus>
<clus scale="  260.624">  1  5  2 -1</clus>
</clustering>
</event>
<event>
 9    2  0.3726337E-005  0.5340215E+03  0.7546771E-02  0.1037840E+00
         -1   -1    0    0    0  501 -0.00000000000E+00  0.00000000000E+00  0.32750435650E+03  0.32750435650E+03  0.00000000000E+00 0.  1.
         21   -1    0    0  501  502  0.00000000000E+00 -0.00000000000E+00 -0.48400269414E+03  0.48400269414E+03  0.00000000000E+00 0.  1.
         23    2    1    2    0    0  0.13983554731E+03  0.11406261572E+03  0.95041178372E+02  0.22120960559E+03  0.85653974938E+02 0.  0.
         24    2    1    2    0    0 -0.22111113413E+03  0.11339574463E+03 -0.30210401520E+02  0.26268547391E+03  0.79638315567E+02 0.  0.
        -13    1    4    4    0    0 -0.19388958578E+03  0.98291596085E+02 -0.53427464577E+02  0.22385018049E+03  0.00000000000E+00 0.  1.
         14    1    4    4    0    0 -0.27221548353E+02  0.15104148549E+02  0.23217063058E+02  0.38835293421E+02  0.00000000000E+00 0. -1.
        -13    1    3    3    0    0  0.92458411627E+02  0.44030427227E+02  0.90285437820E+02  0.13652361219E+03  0.00000000000E+00 0.  1.
         13    1    3    3    0    0  0.47377135687E+02  0.70032188490E+02  0.47557405522E+01  0.84685993404E+02  0.00000000000E+00 0. -1.
         -2    1    1    2    0  502  0.81275586817E+02 -0.22745836035E+03 -0.22132911450E+03  0.32761197114E+03  0.00000000000E+00 0.  1.
<scales pt_clust_5="13000.00000" pt_clust_6="13000.00000" pt_clust_7="13000.00000" pt_clust_8="13000.00000" pt_clust_9="13000.00000"></scales>
<clustering>
<clus scale="   79.638">  5  6 -1 -1</clus>
<clus scale="   85.654">  7  8 -1 -1</clus>
<clus scale="  199.752">  1  7  2 -1</clus>
<clus scale="  228.911">  5  9 -1 -1</clus>
<clus scale="  534.021">  2  5  1 -1</clus>
</clustering>
</event>
<event>
 9    2  0.3726337E-005  0.3336418E+03  0.7546771E-02  0.1099851E+00
         21   -1    0    0  501  502  0.00000000000E+00  0.00000000000E+00  0.27898257408E+03  0.27898257408E+03  0.00000000000E+00 0. -1.
         -1   -1    0    0    0  501 -0.00000000000E+00 -0.00000000000E+00 -0.41683868105E+03  0.41683868105E+03  0.00000000000E+00 0.  1.
         23    2    1    2    0    0  0.88793467243E+02  0.73906385677E+02 -0.29253861496E+03  0.32806655378E+03  0.93286594969E+02 0.  0.
         24    2    1    2    0    0  0.15509633097E+02 -0.12381986651E+03  0.19557170873E+03  0.24510716143E+03  0.79103219066E+02 0.  0.
        -13    1    4    4    0    0 -0.22440336327E+02 -0.79297676119E+01  0.48735878945E+02  0.54236849147E+02  0.00000000000E+00 0.  1.
         14    1    4    4    0    0  0.37949969424E+02 -0.11589009889E+03  0.14683582979E+03  0.19087031228E+03  0.00000000000E+00 0. -1.
        -11    1    3    3    0    0  0.79583321329E+02  0.54136936583E+02 -0.29065304617E+03  0.30617561331E+03  0.00000000000E+00 0.  1.
         11    1    3    3    0    0  0.92101459140E+01  0.19769449094E+02 -0.18855687873E+01  0.21890940475E+02  0.00000000000E+00 0. -1.
         -2    1    1    2    0  502 -0.10430310034E+03  0.49913480829E+02 -0.40889200740E+02  0.12264753991E+03  0.00000000000E+00 0.  1.
<scales pt_clust_5="13000.00000" pt_clust_6="13000.00000" pt_clust_7="13000.00000" pt_clust_8="13000.00000" pt_clust_9="13000.00000"></scales>
<clustering>
<clus scale="   79.103">  5  6 -1 -1</clus>
<clus scale="   93.287">  7  8 -1 -1</clus>
<clus scale="  115.631">  5  9 -1 -1</clus>
<clus scale="  148.488">  2  7  1 -1</clus>
<clus scale="  333.642">  1  5  2 -1</clus>
</clustering>
</event>
<event>
 9    2  0.3726337E-005  0.1974103E+03  0.7546771E-02  0.1177081E+00
         21   -1    0    0  501  502  0.00000000000E+00  0.00000000000E+00  0.50105207889E+02  0.50105207889E+02  0.00000000000E+00 0.  1.
         -1   -1    0    0    0  501 -0.00000000000E+00 -0.00000000000E+00 -0.49452477986E+03  0.49452477986E+03  0.00000000000E+00 0.  1.
         23    2    1    2    0    0  0.60658407841E+02  0.14153134869E+02 -0.10749625335E+03  0.15413267096E+03  0.91223254181E+02 0.  0.
         24    2    1    2    0    0 -0.77839431345E+01  0.51746259509E+02 -0.25927618083E+03  0.27574751416E+03  0.77937721769E+02 0.  0.
        -13    1    4    4    0    0 -0.83694399671E+01  0.32965926563E+02 -0.28973322585E+02  0.44679450099E+02  0.00000000000E+00 0.  1.
         14    1    4    4    0    0  0.58549683262E+00  0.18780332946E+02 -0.23030285825E+03  0.23106806406E+03  0.00000000000E+00 0. -1.
        -13    1    3    3    0    0  0.20572581781E+02 -0.21254722444E+02  0.45950204954E+01  0.29935072417E+02  0.00000000000E+00 0. -1.
         13    1    3    3    0    0  0.40085826060E+02  0.35407857313E+02 -0.11209127385E+03  0.12419759854E+03  0.00000000000E+00 0.  1.
         -2    1    1    2    0  502 -0.52874464706E+02 -0.65899394378E+02 -0.77647137785E+02  0.11474980263E+03  0.00000000000E+00 0.  1.
<scales pt_clust_5="13000.00000" pt_clust_6="13000.00000" pt_clust_7="13000.00000" pt_clust_8="13000.00000" pt_clust_9="13000.00000"></scales>
<clustering>
<clus scale="   77.938">  5  6 -1 -1</clus>
<clus scale="   84.489">  5  9 -1 -1</clus>
<clus scale="   91.223">  7  8 -1 -1</clus>
<clus scale="  110.460">  2  7  1 -1</clus>
<clus scale="  197.410">  1  5  2 -1</clus>
</clustering>
</event>
<event>
 9    2  0.3726337E-005  0.2704024E+03  0.7546771E-02  0.1137792E+00
         21   -1    0    0  501  502  0.00000000000E+00  0.00000000000E+00  0.97073583339E+02  0.97073583339E+02  0.00000000000E+00 0.  1.
         -1   -1    0    0    0  501 -0.00000000000E+00 -0.00000000000E+00 -0.41985174229E+03  0.41985174229E+03  0.00000000000E+00 0.  1.
         23    2    1    2    0    0 -0.51503861201E+02 -0.19400567006E+02 -0.18341565790E+03  0.21272248672E+03  0.92631112880E+02 0.  0.
         24    2    1    2    0    0 -0.65549170107E+02  0.80187229955E+02 -0.10515413090E+03  0.16794336908E+03  0.80130508686E+02 0.  0.
        -13    1    4    4    0    0 -0.60650852230E+02  0.43081120362E+02 -0.23332134682E+02  0.77967283630E+02  0.00000000000E+00 0.  1.
         14    1    4    4    0    0 -0.48983178775E+01  0.37106109593E+02 -0.81821996222E+02  0.89976085450E+02  0.00000000000E+00 0. -1.
        -13    1    3    3    0    0 -0.20680456690E+02 -0.55458836429E+02 -0.11681958355E+03  0.13095869168E+03  0.00000000000E+00 0.  1.
         13    1    3    3    0    0 -0.30823404511E+02  0.36058269422E+02 -0.66596074357E+02  0.81763795039E+02  0.00000000000E+00 0. -1.
         -2    1    1    2    0  502  0.11705303131E+03 -0.60786662949E+02 -0.34208370147E+02  0.13625946983E+03  0.00000000000E+00 0.  1.
<scales pt_clust_5="13000.00000" pt_clust_6="13000.00000" pt_clust_7="13000.00000" pt_clust_8="13000.00000" pt_clust_9="13000.00000"></scales>
<clustering>
<clus scale="   80.131">  5  6 -1 -1</clus>
<clus scale="   92.631">  7  8 -1 -1</clus>
<clus scale="  107.748">  2  7  1 -1</clus>
<clus scale="  118.813">  5  9 -1 -1</clus>
<clus scale="  270.402">  1  5  2 -1</clus>
</clustering>
</event>
<event>
 9    2  0.3726337E-005  0.5589378E+03  0.7546771E-02  0.1027864E+00
          2   -1    0    0  502    0 -0.00000000000E+00  0.00000000000E+00  0.13857369668E+03  0.13857369668E+03  0.00000000000E+00 0. -1.
         21   -1    0    0  501  502  0.00000000000E+00 -0.00000000000E+00 -0.11688964965E+04  0.11688964965E+04  0.00000000000E+00 0. -1.
         23    2    1    2    0    0  0.21726084353E+03 -0.20162164194E+01 -0.20671576060E+03  0.31211096562E+03  0.86461031238E+02 0.  0.
         24    2    1    2    0    0  0.10204687439E+03  0.12722140349E+03 -0.46502753949E+03  0.49916066324E+03  0.79447499415E+02 0.  0.
        -11    1    4    4    0    0  0.55380920131E+02  0.11508441018E+02 -0.15202881756E+03  0.16221051723E+03  0.00000000000E+00 0.  1.
         12    1    4    4    0    0  0.46665954260E+02  0.11571296247E+03 -0.31299872193E+03  0.33695014602E+03  0.00000000000E+00 0. -1.
        -11    1    3    3    0    0  0.12172596356E+03  0.38366920566E+02 -0.91206618692E+02  0.15686898384E+03  0.00000000000E+00 0.  1.
         11    1    3    3    0    0  0.95534879973E+02 -0.40383136986E+02 -0.11550914191E+03  0.15524198178E+03  0.00000000000E+00 0. -1.
          1    1    1    2  501    0 -0.31930771792E+03 -0.12520518707E+03 -0.35857949969E+03  0.49619856428E+03  0.00000000000E+00 0. -1.
<scales pt_clust_5="13000.00000" pt_clust_6="13000.00000" pt_clust_7="13000.00000" pt_clust_8="13000.00000" pt_clust_9="13000.00000"></scales>
<clustering>
<clus scale="   79.447">  5  6 -1 -1</clus>
<clus scale="   86.461">  7  8 -1 -1</clus>
<clus scale="  233.842">  1  7  2 -1</clus>
<clus scale="  192.805">  5  9 -1 -1</clus>
<clus scale="  558.938">  2  5  1 -1</clus>
</clustering>
</event>
<event>
 9    2  0.3726337E-005  0.2255949E+03  0.7546771E-02  0.1153221E+00
         21   -1    0    0  501  502  0.00000000000E+00  0.00000000000E+00  0.10115991863E+03  0.10115991863E+03  0.00000000000E+00 0. -1.
          2   -1    0    0  502    0 -0.00000000000E+00 -0.00000000000E+00 -0.34273023696E+03  0.34273023696E+03  0.00000000000E+00 0. -1.
         23    2    1    2    0    0  0.78900557045E+02  0.46530897409E+02 -0.15741759624E+03  0.20311067528E+03  0.89906754431E+02 0.  0.
         24    2    1    2    0    0  0.31154946102E+02  0.57572562085E+01 -0.81174163019E+02  0.11889783035E+03  0.80892970372E+02 0.  0.
        -11    1    4    4    0    0 -0.24900074461E+02  0.13403773748E+02 -0.39735876614E+02  0.48771044167E+02  0.00000000000E+00 0.  1.
         12    1    4    4    0    0  0.56055020563E+02 -0.76465175394E+01 -0.41438286405E+02  0.70126786188E+02  0.00000000000E+00 0. -1.
        -11    1    3    3    0    0  0.53850666310E+02  0.65425785219E+02 -0.14766862115E+03  0.17025407280E+03  0.00000000000E+00 0. -1.
         11    1    3    3    0    0  0.25049890736E+02 -0.18894887810E+02 -0.97489750889E+01  0.32856602480E+02  0.00000000000E+00 0.  1.
          1    1    1    2  501    0 -0.11005550315E+03 -0.52288153617E+02 -0.29785590720E+01  0.12188164996E+03  0.00000000000E+00 0. -1.
<scales pt_clust_5="13000.00000" pt_clust_6="13000.00000" pt_clust_7="13000.00000" pt_clust_8="13000.00000" pt_clust_9="13000.00000"></scales>
<clustering>
<clus scale="   80.893">  5  6 -1 -1</clus>
<clus scale="   89.907">  7  8 -1 -1</clus>
<clus scale="  121.845">  5  9 -1 -1</clus>
<clus scale="  128.350">  2  7  1 -1</clus>
<clus scale="  225.595">  1  5  2 -1</clus>
</clustering>
</event>
<event>
 9    2  0.3726337E-005  0.2756274E+03  0.7546771E-02  0.1138993E+00
         21   -1    0    0  501  502  0.00000000000E+00  0.00000000000E+00  0.38061543483E+02  0.38061543483E+02  0.00000000000E+00 0.  1.
          2   -1    0    0  502    0 -0.00000000000E+00 -0.00000000000E+00 -0.92580206396E+03  0.92580206396E+03  0.00000000000E+00 0. -1.
         23    2    1    2    0    0  0.20053897681E+02  0.32344279847E+02 -0.20461279179E+03  0.22722666593E+03  0.91198968720E+02 0.  0.
         24    2    1    2    0    0  0.48753333956E+02 -0.80662813576E+02 -0.13723618617E+03  0.18430851384E+03  0.79072627450E+02 0.  0.
        -13    1    4    4    0    0 -0.19181981740E+02 -0.35141996919E+02 -0.33413245078E+02  0.52147419088E+02  0.00000000000E+00 0.  1.
         14    1    4    4    0    0  0.67935315696E+02 -0.45520816656E+02 -0.10382294109E+03  0.13216109475E+03  0.00000000000E+00 0. -1.
        -11    1    3    3    0    0 -0.22033731299E+02  0.42462070629E+02 -0.15056136448E+03  0.15797859739E+03  0.00000000000E+00 0. -1.
         11    1    3    3    0    0  0.42087628980E+02 -0.10117790782E+02 -0.54051427308E+02  0.69248068547E+02  0.00000000000E+00 0.  1.
          1    1    1    2  501    0 -0.68807231637E+02  0.48318533729E+02 -0.54589154252E+03  0.55232842768E+03  0.00000000000E+00 0. -1.
<scales pt_clust_5="13000.00000" pt_clust_6="13000.00000" pt_clust_7="13000.00000" pt_clust_8="13000.00000" pt_clust_9="13000.00000"></scales>
<clustering>
<clus scale="   79.073">  5  6 -1 -1</clus>
<clus scale="   84.078">  5  9 -1 -1</clus>
<clus scale="   91.199">  7  8 -1 -1</clus>
<clus scale="   98.821">  2  7  1 -1</clus>
<clus scale="  275.627">  1  5  2 -1</clus>
</clustering>
</event>
<event>
 9    2  0.3726337E-005  0.1615780E+03  0.7546771E-02  0.1211195E+00
         -1   -1    0    0    0  501 -0.00000000000E+00  0.00000000000E+00  0.41866849046E+03  0.41866849046E+03  0.00000000000E+00 0.  1.
         21   -1    0    0  501  502  0.00000000000E+00 -0.00000000000E+00 -0.56125934391E+02  0.56125934391E+02  0.00000000000E+00 0. -1.
         23    2    1    2    0    0 -0.33611404970E+01 -0.23642115525E+02  0.21910996044E+02  0.97783388062E+02  0.92256448779E+02 0.  0.
         24    2    1    2    0    0 -0.41001853400E+02 -0.66849281853E+00  0.11821175921E+03  0.14891095196E+03  0.80739412511E+02 0.  0.
        -13    1    4    4    0    0  0.23271801074E+02 -0.59052541714E+01  0.19160888786E+02  0.30717884223E+02  0.00000000000E+00 0.  1.
         14    1    4    4    0    0 -0.64273654474E+02  0.52367613528E+01  0.99050870424E+02  0.11819306774E+03  0.00000000000E+00 0. -1.
        -11    1    3    3    0    0  0.12267303623E+02  0.33128154937E+02  0.15417378788E+02  0.38544220791E+02  0.00000000000E+00 0.  1.
         11    1    3    3    0    0 -0.15628444120E+02 -0.56770270461E+02  0.64936172565E+01  0.59239167271E+02  0.00000000000E+00 0. -1.
         -2    1    1    2    0  502  0.44362993897E+02  0.24310608343E+02  0.22241980082E+03  0.22810008483E+03  0.00000000000E+00 0.  1.
<scales pt_clust_5="13000.00000" pt_clust_6="13000.00000" pt_clust_7="13000.00000" pt_clust_8="13000.00000" pt_clust_9="13000.00000"></scales>
<clustering>
<clus scale="   80.739">  5  6 -1 -1</clus>
<clus scale="   50.587">  5  9 -1 -1</clus>
<clus scale="   92.256">  7  8 -1 -1</clus>
<clus scale="   95.297">  1  7  2 -1</clus>
<clus scale="  161.578">  2  5  1 -1</clus>
</clustering>
</event>
<event>
 9    2  0.3726337E-005  0.1505729E+03  0.7546771E-02  0.1223054E+00
          2   -1    0    0  502    0 -0.00000000000E+00  0.00000000000E+00  0.48955561502E+03  0.48955561502E+03  0.00000000000E+00 0. -1.
         21   -1    0    0  501  502  0.00000000000E+00 -0.00000000000E+00 -0.49845861662E+02  0.49845861662E+02  0.00000000000E+00 0.  1.
         23    2    1    2    0    0 -0.26609626786E+01 -0.19645417168E+01  0.20476875876E+02  0.93948436982E+02  0.91630050852E+02 0.  0.
         24    2    1    2    0    0 -0.32202365222E+02  0.34131232008E+02  0.34634803148E+03  0.35849127584E+03  0.79731440599E+02 0.  0.
        -13    1    4    4    0    0 -0.53497695994E+02  0.10525201527E+02  0.15033701071E+03  0.15991872978E+03  0.00000000000E+00 0.  1.
         14    1    4    4    0    0  0.21295330772E+02  0.23606030481E+02  0.19601102077E+03  0.19857254606E+03  0.00000000000E+00 0. -1.
        -11    1    3    3    0    0  0.50659013013E+01  0.42730575688E+02  0.22476137803E+02  0.48546289510E+02  0.00000000000E+00 0. -1.
         11    1    3    3    0    0 -0.77268639799E+01 -0.44695117405E+02 -0.19992619268E+01  0.45402147472E+02  0.00000000000E+00 0.  1.
          1    1    1    2  501    0  0.34863327900E+02 -0.32166690291E+02  0.72884846003E+02  0.86961763859E+02  0.00000000000E+00 0. -1.
<scales pt_clust_5="13000.00000" pt_clust_6="13000.00000" pt_clust_7="13000.00000" pt_clust_8="13000.00000" pt_clust_9="13000.00000"></scales>
<clustering>
<clus scale="   79.731">  5  6 -1 -1</clus>
<clus scale="   47.436">  5  9 -1 -1</clus>
<clus scale="   91.630">  7  8 -1 -1</clus>
<clus scale="   91.690">  1  7  2 -1</clus>
<clus scale="  150.573">  2  5  1 -1</clus>
</clustering>
</event>
<event>
 9    2  0.3726337E-005  0.1733712E+03  0.7546771E-02  0.1193670E+00
         21   -1    0    0  501  502  0.00000000000E+00  0.00000000000E+00  0.75793814166E+02  0.75793814166E+02  0.00000000000E+00 0.  1.
         -1   -1    0    0    0  501 -0.00000000000E+00 -0.00000000000E+00 -0.36011726425E+03  0.36011726425E+03  0.00000000000E+00 0.  1.
         23    2    1    2    0    0  0.16101629215E+01 -0.70140807317E+02 -0.22677916629E+03  0.25323946798E+03  0.88199276673E+02 0.  0.
         24    2    1    2    0    0  0.26495406772E+02 -0.25569641938E+01  0.32568556363E+01  0.83819864944E+02  0.79414217900E+02 0.  0.
        -13    1    4    4    0    0  0.45999614897E+02  0.69529946820E+00  0.26668078945E+02  0.53175506078E+02  0.00000000000E+00 0.  1.
         14    1    4    4    0    0 -0.19504208125E+02 -0.32522636620E+01 -0.23411223308E+02  0.30644358866E+02  0.00000000000E+00 0. -1.
        -13    1    3    3    0    0  0.73162521325E+01 -0.38374315522E+02 -0.21555833434E+03  0.21906964907E+03  0.00000000000E+00 0.  1.
         13    1    3    3    0    0 -0.57060892110E+01 -0.31766491796E+02 -0.11220831942E+02  0.34169818913E+02  0.00000000000E+00 0. -1.
         -2    1    1    2    0  502 -0.28105569694E+02  0.72697771511E+02 -0.60801139435E+02  0.98851745494E+02  0.00000000000E+00 0.  1.
<scales pt_clust_5="13000.00000" pt_clust_6="13000.00000" pt_clust_7="13000.00000" pt_clust_8="13000.00000" pt_clust_9="13000.00000"></scales>
<clustering>
<clus scale="   79.414">  5  6 -1 -1</clus>
<clus scale="   77.942">  5  9 -1 -1</clus>
<clus scale="   88.199">  7  8 -1 -1</clus>
<clus scale="  112.701">  2  7  1 -1</clus>
<clus scale="  173.371">  1  5  2 -1</clus>
</clustering>
</event>
<event>
 9    2  0.3726337E-005  0.6606008E+03  0.7546771E-02  0.9983423E-01
         -1   -1    0    0    0  501 -0.00000000000E+00  0.00000000000E+00  0.38840205271E+03  0.38840205271E+03  0.00000000000E+00 0.  1.
         21   -1    0    0  501  502  0.00000000000E+00 -0.00000000000E+00 -0.67764326128E+03  0.67764326128E+03  0.00000000000E+00 0.  1.
         23    2    1    2    0    0  0.21415925646E+03 -0.26202765437E+03 -0.15328781668E+02  0.35090791602E+03  0.91535322120E+02 0.  0.
         24    2    1    2    0    0  0.18034962629E+03  0.13837482043E+03 -0.56791737733E+02  0.24815915910E+03  0.81756272780E+02 0.  0.
        -11    1    4    4    0    0  0.14057167752E+03  0.58579356743E+02 -0.39646172320E+02  0.15736504230E+03  0.00000000000E+00 0.  1.
         12    1    4    4    0    0  0.39777948772E+02  0.79795463682E+02 -0.17145565413E+02  0.90794116804E+02  0.00000000000E+00 0. -1.
        -11    1    3    3    0    0  0.21626690367E+03 -0.22421581004E+03 -0.46233847991E+01  0.31155333217E+03  0.00000000000E+00 0.  1.
         11    1    3    3    0    0 -0.21076472116E+01 -0.37811844323E+02 -0.10705396869E+02  0.39354583850E+02  0.00000000000E+00 0. -1.
         -2    1    1    2    0  502 -0.39450888276E+03  0.12365283394E+03 -0.21712068917E+03  0.46697823887E+03  0.00000000000E+00 0.  1.
<scales pt_clust_5="13000.00000" pt_clust_6="13000.00000" pt_clust_7="13000.00000" pt_clust_8="13000.00000" pt_clust_9="13000.00000"></scales>
<clustering>
<clus scale="   81.756">  5  6 -1 -1</clus>
<clus scale="   91.535">  7  8 -1 -1</clus>
<clus scale="  350.573">  1  7  2 -1</clus>
<clus scale="  274.351">  5  9 -1 -1</clus>
<clus scale="  660.601">  2  5  1 -1</clus>
</clustering>
</event>
<event>
 9    2  0.3726337E-005  0.1801966E+03  0.7546771E-02  0.1181047E+00
          2   -1    0    0  502    0 -0.00000000000E+00  0.00000000000E+00  0.29607471610E+03  0.29607471610E+03  0.00000000000E+00 0. -1.
         21   -1    0    0  501  502  0.00000000000E+00 -0.00000000000E+00 -0.91265030361E+02  0.91265030361E+02  0.00000000000E+00 0. -1.
         23    2    1    2    0    0  0.62966412714E+02 -0.73314797799E+02  0.14693913216E+03  0.19807849023E+03  0.91127114665E+02 0.  0.
         24    2    1    2    0    0  0.16044123506E+02  0.24971149592E+02  0.42268469804E+02  0.95329375728E+02  0.80125489865E+02 0.  0.
        -11    1    4    4    0    0 -0.16171682141E+02  0.23168018765E+02  0.54042106588E+02  0.60982207907E+02  0.00000000000E+00 0.  1.
         12    1    4    4    0    0  0.32215805646E+02  0.18031308272E+01 -0.11773636784E+02  0.34347167821E+02  0.00000000000E+00 0. -1.
        -13    1    3    3    0    0  0.28225284399E+02 -0.28580349212E+02 -0.46044635171E+00  0.40171072320E+02  0.00000000000E+00 0.  1.
         13    1    3    3    0    0  0.34741128315E+02 -0.44734448587E+02  0.14739957851E+03  0.15790741792E+03  0.00000000000E+00 0. -1.
          1    1    1    2  501    0 -0.79010536219E+02  0.48343648207E+02  0.15602083772E+02  0.93931880497E+02  0.00000000000E+00 0. -1.
<scales pt_clust_5="13000.00000" pt_clust_6="13000.00000" pt_clust_7="13000.00000" pt_clust_8="13000.00000" pt_clust_9="13000.00000"></scales>
<clustering>
<clus scale="   80.125">  5  6 -1 -1</clus>
<clus scale="   91.127">  7  8 -1 -1</clus>
<clus scale="   92.627">  5  9 -1 -1</clus>
<clus scale="  132.831">  1  7  2 -1</clus>
<clus scale="  180.197">  2  5  1 -1</clus>
</clustering>
</event>
<event>
 9    2  0.3726337E-005  0.1516498E+03  0.7546771E-02  0.1216875E+00
         21   -1    0    0  501  502  0.00000000000E+00  0.00000000000E+00  0.27799599643E+02  0.27799599643E+02  0.00000000000E+00 0.  1.
         -1   -1    0    0    0  501 -0.00000000000E+00 -0.00000000000E+00 -0.71272401005E+03  0.71272401005E+03  0.00000000000E+00 0.  1.
         23    2    1    2    0    0  0.19265082702E+02 -0.35150129759E+02 -0.44583973045E+03  0.45739969670E+03  0.93993309655E+02 0.  0.
         24    2    1    2    0    0  0.11847584038E+02  0.25974444402E+02 -0.67942751030E+02  0.10893507561E+03  0.80222168198E+02 0.  0.
        -11    1    4    4    0    0  0.29055131958E+02  0.11283837830E+02  0.58833902580E+01  0.31719709491E+02  0.00000000000E+00 0.  1.
         12    1    4    4    0    0 -0.17207547920E+02  0.14690606573E+02 -0.73826141288E+02  0.77215366116E+02  0.00000000000E+00 0. -1.
        -11    1    3    3    0    0  0.49619648378E+02  0.25771487556E+01 -0.16163757848E+03  0.16910191595E+03  0.00000000000E+00 0.  1.
         11    1    3    3    0    0 -0.30354565676E+02 -0.37727278514E+02 -0.28420215196E+03  0.28829778074E+03  0.00000000000E+00 0. -1.
         -2    1    1    2    0  502 -0.31112666739E+02  0.91756853566E+01 -0.17114192893E+03  0.17418883739E+03  0.00000000000E+00 0.  1.
<scales pt_clust_5="13000.00000" pt_clust_6="13000.00000" pt_clust_7="13000.00000" pt_clust_8="13000.00000" pt_clust_9="13000.00000"></scales>
<clustering>
<clus scale="   80.222">  5  6 -1 -1</clus>
<clus scale="   32.438">  5  9 -1 -1</clus>
<clus scale="   93.993">  7  8 -1 -1</clus>
<clus scale="  102.183">  2  7  1 -1</clus>
<clus scale="  151.650">  1  5  2 -1</clus>
</clustering>
</event>
<event>
 9    2  0.4955598E-005  0.4128480E+03  0.7546771E-02  0.1086141E+00
         21   -1    0    0  501  502  0.00000000000E+00  0.00000000000E+00  0.95978079139E+02  0.95978079139E+02  0.00000000000E+00 0.  1.
         -1   -1    0    0    0  501 -0.00000000000E+00 -0.00000000000E+00 -0.10051769833E+04  0.10051769833E+04  0.00000000000E+00 0.  1.
         23    2    1    2    0    0  0.55056568491E+02 -0.16942852084E+02 -0.52601112682E+03  0.53788217608E+03  0.96494786585E+02 0.  0.
         24    2    1    2    0    0  0.16221137548E+03 -0.21235498577E+02 -0.23928595027E+03  0.29988974002E+03  0.76893520111E+02 0.  0.
        -11    1    4    4    0    0  0.16302068577E+03 -0.26001735151E+02 -0.19566288709E+03  0.25599960860E+03  0.00000000000E+00 0.  1.
         12    1    4    4    0    0 -0.80931029085E+00  0.47662365736E+01 -0.43623063184E+02  0.43890131417E+02  0.00000000000E+00 0. -1.
        -11    1    3    3    0    0  0.79331503326E+02  0.28943038754E+01 -0.41525285876E+03  0.42277275352E+03  0.00000000000E+00 0.  1.
         11    1    3    3    0    0 -0.24274934836E+02 -0.19837155959E+02 -0.11075826806E+03  0.11510942256E+03  0.00000000000E+00 0. -1.
         -2    1    1    2    0  502 -0.21726794397E+03  0.38178350661E+02 -0.14390182704E+03  0.26338314631E+03  0.00000000000E+00 0.  1.
<scales pt_clust_5="13000.00000" pt_clust_6="13000.00000" pt_clust_7="13000.00000" pt_clust_8="13000.00000" pt_clust_9="13000.00000"></scales>
<clustering>
<clus scale="   76.894">  5  6 -1 -1</clus>
<clus scale="   96.495">  7  8 -1 -1</clus>
<clus scale="  112.381">  2  7  1 -1</clus>
<clus scale="  196.025">  5  9 -1 -1</clus>
<clus scale="  412.848">  1  5  2 -1</clus>
</clustering>
</event>
<event>
 9    2  0.3726337E-005  0.2574502E+03  0.7546771E-02  0.1143939E+00
          2   -1    0    0  502    0 -0.00000000000E+00  0.00000000000E+00  0.57857230606E+03  0.57857230606E+03  0.00000000000E+00 0. -1.
         21   -1    0    0  501  502  0.00000000000E+00 -0.00000000000E+00 -0.59132149385E+02  0.59132149385E+02  0.00000000000E+00 0. -1.
         23    2    1    2    0    0  0.16417754141E+02  0.51893815329E+02  0.20283446929E+03  0.22963611379E+03  0.92889246446E+02 0.  0.
         24    2    1    2    0    0 -0.68742802866E+02 -0.29699877031E+02  0.43572272492E+02  0.12918175669E+03  0.95821332130E+02 0.  0.
        -11    1    4    4    0    0 -0.21974192171E+02 -0.32417413206E+02  0.66384210484E+02  0.77075399461E+02  0.00000000000E+00 0.  1.
         12    1    4    4    0    0 -0.46768610696E+02  0.27175361747E+01 -0.22811937992E+02  0.52106357234E+02  0.00000000000E+00 0. -1.
        -11    1    3    3    0    0 -0.38213131896E+02  0.27816058546E+02  0.76842614487E+02  0.90215098312E+02  0.00000000000E+00 0. -1.
         11    1    3    3    0    0  0.54630886037E+02  0.24077756784E+02  0.12599185480E+03  0.13942101548E+03  0.00000000000E+00 0.  1.
          1    1    1    2  501    0  0.52325048725E+02 -0.22193938298E+02  0.27303341489E+03  0.27888658496E+03  0.00000000000E+00 0. -1.
<scales pt_clust_5="13000.00000" pt_clust_6="13000.00000" pt_clust_7="13000.00000" pt_clust_8="13000.00000" pt_clust_9="13000.00000"></scales>
<clustering>
<clus scale="   92.889">  7  8 -1 -1</clus>
<clus scale="   95.821">  5  6 -1 -1</clus>
<clus scale="   56.837">  5  9 -1 -1</clus>
<clus scale="  107.661">  1  7  2 -1</clus>
<clus scale="  257.450">  2  5  1 -1</clus>
</clustering>
</event>
<event>
 9    2  0.3726337E-005  0.2032796E+03  0.7546771E-02  0.1167784E+00
         -3   -1    0    0    0  501 -0.00000000000E+00  0.00000000000E+00  0.79781410366E+03  0.79781410366E+03  0.00000000000E+00 0.  1.
         21   -1    0    0  501  502  0.00000000000E+00 -0.00000000000E+00 -0.34859649969E+02  0.34859649969E+02  0.00000000000E+00 0.  1.
         23    2    1    2    0    0  0.46184213749E+02 -0.72052653244E+02  0.22198783586E+03  0.25477455860E+03  0.91142251466E+02 0.  0.
         24    2    1    2    0    0  0.26111779565E+02  0.98917422318E+01  0.12442970621E+03  0.15058936802E+03  0.80092036926E+02 0.  0.
        -13    1    4    4    0    0  0.28846287004E+02  0.23393599626E+02  0.14611864958E+02  0.39910842824E+02  0.00000000000E+00 0.  1.
         14    1    4    4    0    0 -0.27345074392E+01 -0.13501857394E+02  0.10981784125E+03  0.11067852520E+03  0.00000000000E+00 0. -1.
        -11    1    3    3    0    0  0.17511345022E+02 -0.87255636825E+02  0.13277313420E+03  0.15984022813E+03  0.00000000000E+00 0.  1.
         11    1    3    3    0    0  0.28672868727E+02  0.15202983581E+02  0.89214701657E+02  0.94934330474E+02  0.00000000000E+00 0. -1.
         -4    1    1    2    0  502 -0.72295993314E+02  0.62160911013E+02  0.41653691162E+03  0.42730982700E+03  0.00000000000E+00 0.  1.
<scales pt_clust_5="13000.00000" pt_clust_6="13000.00000" pt_clust_7="13000.00000" pt_clust_8="13000.00000" pt_clust_9="13000.00000"></scales>
<clustering>
<clus scale="   80.092">  5  6 -1 -1</clus>
<clus scale="   91.142">  7  8 -1 -1</clus>
<clus scale="   95.345">  5  9 -1 -1</clus>
<clus scale="  125.026">  1  7  2 -1</clus>
<clus scale="  203.280">  2  5  1 -1</clus>
</clustering>
</event>
<event>
 9    2  0.3726337E-005  0.2595380E+03  0.7546771E-02  0.1144375E+00
          4   -1    0    0  502    0 -0.00000000000E+00  0.00000000000E+00  0.16862046615E+03  0.16862046615E+03  0.00000000000E+00 0. -1.
         21   -1    0    0  501  502  0.00000000000E+00 -0.00000000000E+00 -0.20788276845E+03  0.20788276845E+03  0.00000000000E+00 0. -1.
         23    2    1    2    0    0  0.18238510139E+02  0.46349951874E+02  0.29338013041E+02  0.10805213011E+03  0.91288457765E+02 0.  0.
         24    2    1    2    0    0 -0.12042081629E+03 -0.88607622732E+01 -0.58999403469E+02  0.15918610307E+03  0.85320570183E+02 0.  0.
        -13    1    4    4    0    0 -0.48964430543E+02 -0.28845055169E+02  0.10188064513E+02  0.57735165407E+02  0.00000000000E+00 0.  1.
         14    1    4    4    0    0 -0.71456385745E+02  0.19984292896E+02 -0.69187467982E+02  0.10145093766E+03  0.00000000000E+00 0. -1.
        -11    1    3    3    0    0 -0.36568856352E+02  0.10903633292E+02  0.54487968266E+01  0.38546852799E+02  0.00000000000E+00 0.  1.
         11    1    3    3    0    0  0.54807366490E+02  0.35446318582E+02  0.23889216214E+02  0.69505277310E+02  0.00000000000E+00 0. -1.
          3    1    1    2  501    0  0.10218230615E+03 -0.37489189600E+02 -0.96009118724E+01  0.10926500142E+03  0.00000000000E+00 0. -1.
<scales pt_clust_5="13000.00000" pt_clust_6="13000.00000" pt_clust_7="13000.00000" pt_clust_8="13000.00000" pt_clust_9="13000.00000"></scales>
<clustering>
<clus scale="   85.321">  5  6 -1 -1</clus>
<clus scale="   91.288">  7  8 -1 -1</clus>
<clus scale="  103.993">  1  7  2 -1</clus>
<clus scale="  112.202">  5  9 -1 -1</clus>
<clus scale="  259.538">  2  5  1 -1</clus>
</clustering>
</event>
<event>
 9    2  0.3726337E-005  0.3325395E+03  0.7546771E-02  0.1098100E+00
         21   -1    0    0  501  502  0.00000000000E+00  0.00000000000E+00  0.16621743281E+03  0.16621743281E+03  0.00000000000E+00 0. -1.
          2   -1    0    0  502    0 -0.00000000000E+00 -0.00000000000E+00 -0.36037985485E+03  0.36037985485E+03  0.00000000000E+00 0. -1.
         23    2    1    2    0    0 -0.63004803746E+02  0.11115537577E+03 -0.61914092701E+02  0.16872564020E+03  0.91158455045E+02 0.  0.
         24    2    1    2    0    0  0.16223220856E+03 -0.10498889919E+03 -0.26063089645E+02  0.21240890850E+03  0.84239547251E+02 0.  0.
        -11    1    4    4    0    0  0.34656872967E+02  0.87149491485E+01 -0.20984679479E+02  0.41441596921E+02  0.00000000000E+00 0.  1.
         12    1    4    4    0    0  0.12757533559E+03 -0.11370384834E+03 -0.50784101657E+01  0.17096731158E+03  0.00000000000E+00 0. -1.
        -13    1    3    3    0    0 -0.23781406575E+02 -0.95765260239E+01 -0.26640004710E+02  0.36972354542E+02  0.00000000000E+00 0.  1.
         13    1    3    3    0    0 -0.39223397170E+02  0.12073190180E+03 -0.35274087990E+02  0.13175328565E+03  0.00000000000E+00 0. -1.
          1    1    1    2  501    0 -0.99227404810E+02 -0.61664765794E+01 -0.10618523969E+03  0.14546273897E+03  0.00000000000E+00 0. -1.
<scales pt_clust_5="13000.00000" pt_clust_6="13000.00000" pt_clust_7="13000.00000" pt_clust_8="13000.00000" pt_clust_9="13000.00000"></scales>
<clustering>
<clus scale="   84.240">  5  6 -1 -1</clus>
<clus scale="   91.158">  7  8 -1 -1</clus>
<clus scale="   99.419">  5  9 -1 -1</clus>
<clus scale="  156.955">  2  7  1 -1</clus>
<clus scale="  332.539">  1  5  2 -1</clus>
</clustering>
</event>
<event>
 9    2  0.3726337E-005  0.1632203E+03  0.7546771E-02  0.1198689E+00
         21   -1    0    0  501  502  0.00000000000E+00  0.00000000000E+00  0.44626477296E+02  0.44626477296E+02  0.00000000000E+00 0. -1.
          2   -1    0    0  502    0 -0.00000000000E+00 -0.00000000000E+00 -0.45537565659E+03  0.45537565659E+03  0.00000000000E+00 0. -1.
         23    2    1    2    0    0 -0.33560065511E+01  0.79548594107E+02 -0.19428137188E+03  0.22889481133E+03  0.91150104705E+02 0.  0.
         24    2    1    2    0    0 -0.85047147347E+01 -0.40306741514E+02 -0.57481261863E+02  0.10692047360E+03  0.80193070936E+02 0.  0.
        -11    1    4    4    0    0 -0.35260650723E+02 -0.14048359505E+02 -0.58132206546E+02  0.69426387866E+02  0.00000000000E+00 0.  1.
         12    1    4    4    0    0  0.26755935989E+02 -0.26258382009E+02  0.65094468322E+00  0.37494085738E+02  0.00000000000E+00 0. -1.
        -11    1    3    3    0    0 -0.34199025970E+02  0.45558768223E+02 -0.16474142583E+03  0.17431268492E+03  0.00000000000E+00 0. -1.
         11    1    3    3    0    0  0.30843019419E+02  0.33989825883E+02 -0.29539946054E+02  0.54582126409E+02  0.00000000000E+00 0.  1.
          1    1    1    2  501    0  0.11860721286E+02 -0.39241852592E+02 -0.15898654555E+03  0.16418684895E+03  0.00000000000E+00 0. -1.
<scales pt_clust_5="13000.00000" pt_clust_6="13000.00000" pt_clust_7="13000.00000" pt_clust_8="13000.00000" pt_clust_9="13000.00000"></scales>
<clustering>
<clus scale="   80.193">  5  6 -1 -1</clus>
<clus scale="   40.995">  5  9 -1 -1</clus>
<clus scale="   91.150">  7  8 -1 -1</clus>
<clus scale="  121.027">  2  7  1 -1</clus>
<clus scale="  163.220">  1  5  2 -1</clus>
</clustering>
</event>
<event>
 9    2  0.3726337E-005  0.3575313E+03  0.7546771E-02  0.1097939E+00
         21   -1    0    0  501  502  0.00000000000E+00  0.00000000000E+00  0.13800220498E+03  0.13800220498E+03  0.00000000000E+00 0.  1.
          2   -1    0    0  502    0 -0.00000000000E+00 -0.00000000000E+00 -0.44249764217E+03  0.44249764217E+03  0.00000000000E+00 0. -1.
         23    2    1    2    0    0  0.85718531995E+02 -0.96062563938E+01 -0.13366327059E+03  0.18425212125E+03  0.92967883669E+02 0.  0.
         24    2    1    2    0    0 -0.16611740313E+03  0.10773836471E+03 -0.46347450728E+02  0.21851102836E+03  0.79977724853E+02 0.  0.
        -11    1    4    4    0    0 -0.10674026316E+03  0.23629383948E+02 -0.35700230792E+02  0.11500581743E+03  0.00000000000E+00 0.  1.
         12    1    4    4    0    0 -0.59377139966E+02  0.84108980764E+02 -0.10647219936E+02  0.10350521092E+03  0.00000000000E+00 0. -1.
        -11    1    3    3    0    0  0.21168039176E+02 -0.33863675018E+02 -0.99665733845E+02  0.10736895674E+03  0.00000000000E+00 0.  1.
         11    1    3    3    0    0  0.64550492820E+02  0.24257418624E+02 -0.33997536741E+02  0.76883164516E+02  0.00000000000E+00 0. -1.
          1    1    1    2  501    0  0.80398871131E+02 -0.98132108318E+02 -0.12448471588E+03  0.17773669753E+03  0.00000000000E+00 0. -1.
<scales pt_clust_5="13000.00000" pt_clust_6="13000.00000" pt_clust_7="13000.00000" pt_clust_8="13000.00000" pt_clust_9="13000.00000"></scales>
<clustering>
<clus scale="   79.978">  5  6 -1 -1</clus>
<clus scale="   92.968">  7  8 -1 -1</clus>
<clus scale="  126.819">  2  7  1 -1</clus>
<clus scale="  162.965">  5  9 -1 -1</clus>
<clus scale="  357.531">  1  5  2 -1</clus>
</clustering>
</event>
<event>
 9    2  0.3726337E-005  0.7522570E+03  0.7546771E-02  0.1021061E+00
          2   -1    0    0  502    0 -0.00000000000E+00  0.00000000000E+00  0.59146337345E+03  0.59146337345E+03  0.00000000000E+00 0. -1.
         21   -1    0    0  501  502  0.00000000000E+00 -0.00000000000E+00 -0.32235556458E+03  0.32235556458E+03  0.00000000000E+00 0. -1.
         23    2    1    2    0    0 -0.59327881817E+02  0.43927938235E+02  0.94894004904E+01  0.11802230043E+03  0.91595596827E+02 0.  0.
         24    2    1    2    0    0 -0.15576070626E+03 -0.19804192049E+03 -0.15302288998E+03  0.30560579582E+03  0.80603335526E+02 0.  0.
        -13    1    4    4    0    0 -0.81891945604E+02 -0.43228332700E+02 -0.45696403637E+02  0.10326248500E+03  0.00000000000E+00 0.  1.
         14    1    4    4    0    0 -0.73868760657E+02 -0.15481358779E+03 -0.10732648634E+03  0.20234331083E+03  0.00000000000E+00 0. -1.
        -11    1    3    3    0    0 -0.49228230982E+02  0.19587574083E+02 -0.36972730822E+02  0.64607078626E+02  0.00000000000E+00 0. -1.
         11    1    3    3    0    0 -0.10099650835E+02  0.24340364152E+02  0.46462131313E+02  0.53415221802E+02  0.00000000000E+00 0.  1.
          1    1    1    2  501    0  0.21508858808E+03  0.15411398226E+03  0.41264129836E+03  0.49019084177E+03  0.00000000000E+00 0. -1.
<scales pt_clust_5="13000.00000" pt_clust_6="13000.00000" pt_clust_7="13000.00000" pt_clust_8="13000.00000" pt_clust_9="13000.00000"></scales>
<clustering>
<clus scale="   80.603">  5  6 -1 -1</clus>
<clus scale="   91.596">  7  8 -1 -1</clus>
<clus scale="  117.640">  1  7  2 -1</clus>
<clus scale="  252.493">  5  9 -1 -1</clus>
<clus scale="  752.257">  2  5  1 -1</clus>
</clustering>
</event>
<event>
 9    2  0.3726337E-005  0.2433122E+03  0.7546771E-02  0.1127653E+00
         21   -1    0    0  501  502  0.00000000000E+00  0.00000000000E+00  0.66862281640E+02  0.66862281640E+02  0.00000000000E+00 0.  1.
         -1   -1    0    0    0  501 -0.00000000000E+00 -0.00000000000E+00 -0.70830227981E+03  0.70830227981E+03  0.00000000000E+00 0.  1.
         23    2    1    2    0    0 -0.13150522008E+03 -0.10032646026E+03 -0.32203841876E+03  0.37364467550E+03  0.92426072275E+02 0.  0.
         24    2    1    2    0    0  0.44203930082E+01  0.32324341012E+02 -0.60761898170E+02  0.10542982160E+03  0.79743564738E+02 0.  0.
        -11    1    4    4    0    0  0.17982718520E+02 -0.18216176933E+02 -0.43234797864E+02  0.50243954998E+02  0.00000000000E+00 0.  1.
         12    1    4    4    0    0 -0.13562325512E+02  0.50540517946E+02 -0.17527100306E+02  0.55185866602E+02  0.00000000000E+00 0. -1.
        -11    1    3    3    0    0 -0.74161770787E+02 -0.35037868735E+02 -0.24193539441E+03  0.25546106466E+03  0.00000000000E+00 0.  1.
         11    1    3    3    0    0 -0.57343449291E+02 -0.65288591530E+02 -0.80103024356E+02  0.11818361084E+03  0.00000000000E+00 0. -1.
         -2    1    1    2    0  502  0.12708482707E+03  0.68002119252E+02 -0.25863968124E+03  0.29609006435E+03  0.00000000000E+00 0.  1.
<scales pt_clust_5="13000.00000" pt_clust_6="13000.00000" pt_clust_7="13000.00000" pt_clust_8="13000.00000" pt_clust_9="13000.00000"></scales>
<clustering>
<clus scale="   79.744">  5  6 -1 -1</clus>
<clus scale="   92.426">  7  8 -1 -1</clus>
<clus scale="  144.135">  5  9 -1 -1</clus>
<clus scale="  189.477">  2  7  1 -1</clus>
<clus scale="  243.312">  1  5  2 -1</clus>
</clustering>
</event>
<event>
 9    2  0.3726337E-005  0.2530987E+03  0.7546771E-02  0.1115341E+00
         21   -1    0    0  501  502  0.00000000000E+00  0.00000000000E+00  0.10292147508E+03  0.10292147508E+03  0.00000000000E+00 0. -1.
          2   -1    0    0  502    0 -0.00000000000E+00 -0.00000000000E+00 -0.58139767142E+03  0.58139767142E+03  0.00000000000E+00 0. -1.
         23    2    1    2    0    0 -0.11884322955E+03  0.17353103576E+03 -0.16878075368E+03  0.28435637760E+03  0.90193531263E+02 0.  0.
         24    2    1    2    0    0  0.30997566538E+02 -0.57019991894E+02 -0.16220818101E+03  0.19249186444E+03  0.80805292405E+02 0.  0.
        -13    1    4    4    0    0  0.50429609827E+02 -0.84672719384E+01 -0.86310934349E+02  0.10032157111E+03  0.00000000000E+00 0.  1.
         14    1    4    4    0    0 -0.19432043289E+02 -0.48552719955E+02 -0.75897246664E+02  0.92170293330E+02  0.00000000000E+00 0. -1.
        -11    1    3    3    0    0 -0.66358837264E+01  0.76690645354E+02 -0.34492930706E+02  0.84351954965E+02  0.00000000000E+00 0.  1.
         11    1    3    3    0    0 -0.11220734583E+03  0.96840390410E+02 -0.13428782297E+03  0.20000442263E+03  0.00000000000E+00 0. -1.
          1    1    1    2  501    0  0.87845663016E+02 -0.11651104387E+03 -0.14748726165E+03  0.20747090447E+03  0.00000000000E+00 0. -1.
<scales pt_clust_5="13000.00000" pt_clust_6="13000.00000" pt_clust_7="13000.00000" pt_clust_8="13000.00000" pt_clust_9="13000.00000"></scales>
<clustering>
<clus scale="   80.805">  5  6 -1 -1</clus>
<clus scale="   90.194">  7  8 -1 -1</clus>
<clus scale="  145.917">  5  9 -1 -1</clus>
<clus scale="  228.849">  2  7  1 -1</clus>
<clus scale="  253.099">  1  5  2 -1</clus>
</clustering>
</event>
<event>
 9    2  0.3726337E-005  0.5810296E+03  0.7546771E-02  0.1019879E+00
         21   -1    0    0  501  502  0.00000000000E+00  0.00000000000E+00  0.17849061878E+03  0.17849061878E+03  0.00000000000E+00 0. -1.
          2   -1    0    0  502    0 -0.00000000000E+00 -0.00000000000E+00 -0.10180864760E+04  0.10180864760E+04  0.00000000000E+00 0. -1.
         23    2    1    2    0    0 -0.24674476166E+03 -0.10897563400E+02 -0.19449673547E+03  0.32839033448E+03  0.94918372199E+02 0.  0.
         24    2    1    2    0    0 -0.43147391929E+02 -0.18627165707E+03 -0.36273872806E+03  0.41803061615E+03  0.81310414719E+02 0.  0.
        -13    1    4    4    0    0 -0.54322051738E+02 -0.11075038115E+03 -0.16460200373E+03  0.20569480271E+03  0.00000000000E+00 0.  1.
         14    1    4    4    0    0  0.11174659809E+02 -0.75521275916E+02 -0.19813672433E+03  0.21233581344E+03  0.00000000000E+00 0. -1.
        -11    1    3    3    0    0 -0.19025129548E+03 -0.41617427501E+02 -0.11510593868E+03  0.22622321459E+03  0.00000000000E+00 0. -1.
         11    1    3    3    0    0 -0.56493466184E+02  0.30719864102E+02 -0.79390796791E+02  0.10216711989E+03  0.00000000000E+00 0.  1.
          1    1    1    2  501    0  0.28989215359E+03  0.19716922047E+03 -0.28236039373E+03  0.45015614420E+03  0.00000000000E+00 0. -1.
<scales pt_clust_5="13000.00000" pt_clust_6="13000.00000" pt_clust_7="13000.00000" pt_clust_8="13000.00000" pt_clust_9="13000.00000"></scales>
<clustering>
<clus scale="   81.310">  5  6 -1 -1</clus>
<clus scale="   94.918">  7  8 -1 -1</clus>
<clus scale="  264.596">  2  7  1 -1</clus>
<clus scale="  256.667">  5  9 -1 -1</clus>
<clus scale="  581.030">  1  5  2 -1</clus>
</clustering>
</event>
<event>
 9    2  0.3726337E-005  0.4598176E+03  0.7546771E-02  0.1069209E+00
         21   -1    0    0  501  502  0.00000000000E+00  0.00000000000E+00  0.33850321591E+03  0.33850321591E+03  0.00000000000E+00 0. -1.
          2   -1    0    0  502    0 -0.00000000000E+00 -0.00000000000E+00 -0.48829786257E+03  0.48829786257E+03  0.00000000000E+00 0. -1.
         23    2    1    2    0    0  0.89139767176E+02 -0.17425183107E+02 -0.31338511895E+03  0.33874974148E+03  0.91058330071E+02 0.  0.
         24    2    1    2    0    0 -0.10086211246E+03 -0.17302074537E+03  0.19910044890E+03  0.29396881978E+03  0.81653745742E+02 0.  0.
        -11    1    4    4    0    0 -0.63446189728E+01 -0.22137157733E+02 -0.45397248396E+01  0.23471622100E+02  0.00000000000E+00 0.  1.
         12    1    4    4    0    0 -0.94517493489E+02 -0.15088358764E+03  0.20364017373E+03  0.27049719768E+03  0.00000000000E+00 0. -1.
        -11    1    3    3    0    0  0.45428632296E+02 -0.38489787900E+02 -0.25947624782E+03  0.26622011116E+03  0.00000000000E+00 0.  1.
         11    1    3    3    0    0  0.43711134879E+02  0.21064604793E+02 -0.53908871133E+02  0.72529630320E+02  0.00000000000E+00 0. -1.
          1    1    1    2  501    0  0.11722345286E+02  0.19044592848E+03 -0.35509976605E+02  0.19408251722E+03  0.00000000000E+00 0. -1.
<scales pt_clust_5="13000.00000" pt_clust_6="13000.00000" pt_clust_7="13000.00000" pt_clust_8="13000.00000" pt_clust_9="13000.00000"></scales>
<clustering>
<clus scale="   81.654">  5  6 -1 -1</clus>
<clus scale="   91.058">  7  8 -1 -1</clus>
<clus scale="  128.612">  2  7  1 -1</clus>
<clus scale="  193.184">  5  9 -1 -1</clus>
<clus scale="  459.818">  1  5  2 -1</clus>
</clustering>
</event>
<event>
 9    2  0.3726337E-005  0.4807429E+03  0.7546771E-02  0.1072495E+00
          2   -1    0    0  502    0 -0.00000000000E+00  0.00000000000E+00  0.22047102833E+03  0.22047102833E+03  0.00000000000E+00 0. -1.
         21   -1    0    0  501  502  0.00000000000E+00 -0.00000000000E+00 -0.54168042482E+03  0.54168042482E+03  0.00000000000E+00 0.  1.
         23    2    1    2    0    0  0.82760477721E+01 -0.49017544087E+02 -0.25740827705E+03  0.27719343773E+03  0.90033150747E+02 0.  0.
         24    2    1    2    0    0 -0.11095682831E+03  0.11357827730E+03  0.15514678458E+03  0.23465896300E+03  0.76045126929E+02 0.  0.
        -13    1    4    4    0    0 -0.91459342961E+02  0.43636036114E+02  0.10793644104E+03  0.14805130991E+03  0.00000000000E+00 0.  1.
         14    1    4    4    0    0 -0.19497485346E+02  0.69942241182E+02  0.47210343545E+02  0.86607653091E+02  0.00000000000E+00 0. -1.
        -13    1    3    3    0    0 -0.29607499795E+02 -0.15520820326E+02 -0.19003900814E+03  0.19295679444E+03  0.00000000000E+00 0.  1.
         13    1    3    3    0    0  0.37883547567E+02 -0.33496723761E+02 -0.67369268909E+02  0.84236643287E+02  0.00000000000E+00 0. -1.
          1    1    1    2  501    0  0.10268078054E+03 -0.64560733209E+02 -0.21894790403E+03  0.25029905242E+03  0.00000000000E+00 0. -1.
<scales pt_clust_5="13000.00000" pt_clust_6="13000.00000" pt_clust_7="13000.00000" pt_clust_8="13000.00000" pt_clust_9="13000.00000"></scales>
<clustering>
<clus scale="   76.045">  5  6 -1 -1</clus>
<clus scale="   90.033">  7  8 -1 -1</clus>
<clus scale="  102.845">  1  7  2 -1</clus>
<clus scale="  123.785">  5  9 -1 -1</clus>
<clus scale="  480.743">  2  5  1 -1</clus>
</clustering>
</event>
<event>
 9    2  0.3726337E-005  0.1495582E+03  0.7546771E-02  0.1219659E+00
         21   -1    0    0  501  502  0.00000000000E+00  0.00000000000E+00  0.26926774015E+03  0.26926774015E+03  0.00000000000E+00 0.  1.
         -3   -1    0    0    0  501 -0.00000000000E+00 -0.00000000000E+00 -0.58914975347E+02  0.58914975347E+02  0.00000000000E+00 0.  1.
         23    2    1    2    0    0 -0.24383194551E+02 -0.25649991218E+02  0.10445978819E+03  0.14493157501E+03  0.94025804229E+02 0.  0.
         24    2    1    2    0    0 -0.34431170515E+02  0.12156287098E+02  0.55657524005E+02  0.10473483461E+03  0.80860032056E+02 0.  0.
        -11    1    4    4    0    0 -0.32996697917E+02  0.28204259166E+02 -0.33787969165E+01  0.43539391098E+02  0.00000000000E+00 0.  1.
         12    1    4    4    0    0 -0.14344725976E+01 -0.16047972068E+02  0.59036320921E+02  0.61195443515E+02  0.00000000000E+00 0. -1.
        -13    1    3    3    0    0  0.15607109920E+02 -0.40043379128E+02  0.90516357556E+02  0.10020112313E+03  0.00000000000E+00 0.  1.
         13    1    3    3    0    0 -0.39990304471E+02  0.14393387911E+02  0.13943430630E+02  0.44730451875E+02  0.00000000000E+00 0. -1.
         -4    1    1    2    0  502  0.58814365066E+02  0.13493704119E+02  0.50235452613E+02  0.78516305875E+02  0.00000000000E+00 0.  1.
<scales pt_clust_5="13000.00000" pt_clust_6="13000.00000" pt_clust_7="13000.00000" pt_clust_8="13000.00000" pt_clust_9="13000.00000"></scales>
<clustering>
<clus scale="   80.860">  5  6 -1 -1</clus>
<clus scale="   60.342">  5  9 -1 -1</clus>
<clus scale="   94.026">  7  8 -1 -1</clus>
<clus scale="  100.466">  2  7  1 -1</clus>
<clus scale="  149.558">  1  5  2 -1</clus>
</clustering>
</event>
<event>
 9    2  0.3726337E-005  0.4248282E+03  0.7546771E-02  0.1076582E+00
         -1   -1    0    0    0  501 -0.00000000000E+00  0.00000000000E+00  0.44402666377E+03  0.44402666377E+03  0.00000000000E+00 0.  1.
         21   -1    0    0  501  502  0.00000000000E+00 -0.00000000000E+00 -0.19437441676E+03  0.19437441676E+03  0.00000000000E+00 0.  1.
         23    2    1    2    0    0 -0.85418943764E+02 -0.42607578008E+02 -0.20562848992E+02  0.13491805066E+03  0.93103426243E+02 0.  0.
         24    2    1    2    0    0  0.14663179058E+03 -0.96022256616E+02 -0.42287790113E+01  0.18997914760E+03  0.73164459774E+02 0.  0.
        -11    1    4    4    0    0  0.12035688680E+03 -0.66873545306E+02 -0.32673822590E+02  0.14151123611E+03  0.00000000000E+00 0.  1.
         12    1    4    4    0    0  0.26274903783E+02 -0.29148711310E+02  0.28445043579E+02  0.48467911488E+02  0.00000000000E+00 0. -1.
        -13    1    3    3    0    0 -0.38707207838E+01 -0.49088811356E+02  0.42716440264E+01  0.49426114782E+02  0.00000000000E+00 0. -1.
         13    1    3    3    0    0 -0.81548222980E+02  0.64812333482E+01 -0.24834493019E+02  0.85491935880E+02  0.00000000000E+00 0.  1.
         -2    1    1    2    0  502 -0.61212846821E+02  0.13862983462E+03  0.27444387502E+03  0.31350388227E+03  0.00000000000E+00 0.  1.
<scales pt_clust_5="13000.00000" pt_clust_6="13000.00000" pt_clust_7="13000.00000" pt_clust_8="13000.00000" pt_clust_9="13000.00000"></scales>
<clustering>
<clus scale="   73.164">  5  6 -1 -1</clus>
<clus scale="   93.103">  7  8 -1 -1</clus>
<clus scale="  133.342">  1  7  2 -1</clus>
<clus scale="  164.914">  5  9 -1 -1</clus>
<clus scale="  424.828">  2  5  1 -1</clus>
</clustering>
</event>
<event>
 9    2  0.3726337E-005  0.1494559E+03  0.7546771E-02  0.1212835E+00
         21   -1    0    0  501  502  0.00000000000E+00  0.00000000000E+00  0.17243027460E+03  0.17243027460E+03  0.00000000000E+00 0. -1.
         -3   -1    0    0    0  501 -0.00000000000E+00 -0.00000000000E+00 -0.14991432394E+03  0.14991432394E+03  0.00000000000E+00 0.  1.
         23    2    1    2    0    0  0.72134289291E+02 -0.12021518105E+02 -0.79966117863E+02  0.14112746561E+03  0.90412991069E+02 0.  0.
         24    2    1    2    0    0 -0.36525712107E+02  0.24954376427E+02  0.10791778998E+03  0.14294473216E+03  0.82644410031E+02 0.  0.
        -13    1    4    4    0    0 -0.84234200749E+01  0.38787321267E+02  0.11141073629E+02  0.41225402586E+02  0.00000000000E+00 0.  1.
         14    1    4    4    0    0 -0.28102292032E+02 -0.13832944840E+02  0.96776716355E+02  0.10171932957E+03  0.00000000000E+00 0. -1.
        -13    1    3    3    0    0  0.30638948498E+02 -0.44775207059E+02 -0.67881577826E+02  0.86899211391E+02  0.00000000000E+00 0. -1.
         13    1    3    3    0    0  0.41495340793E+02  0.32753688954E+02 -0.12084540037E+02  0.54228254218E+02  0.00000000000E+00 0.  1.
         -4    1    1    2    0  502 -0.35608577184E+02 -0.12932858322E+02 -0.54357214569E+01  0.38272400776E+02  0.00000000000E+00 0.  1.
<scales pt_clust_5="13000.00000" pt_clust_6="13000.00000" pt_clust_7="13000.00000" pt_clust_8="13000.00000" pt_clust_9="13000.00000"></scales>
<clustering>
<clus scale="   82.644">  5  6 -1 -1</clus>
<clus scale="   37.884">  5  9 -1 -1</clus>
<clus scale="   90.413">  7  8 -1 -1</clus>
<clus scale="  116.286">  2  7  1 -1</clus>
<clus scale="  149.456">  1  5  2 -1</clus>
</clustering>
</event>
<event>
 9    2  0.3726337E-005  0.7249349E+03  0.7546771E-02  0.9909545E-01
         21   -1    0    0  501  502  0.00000000000E+00  0.00000000000E+00  0.14772445992E+03  0.14772445992E+03  0.00000000000E+00 0. -1.
          2   -1    0    0  502    0 -0.00000000000E+00 -0.00000000000E+00 -0.20490908253E+04  0.20490908253E+04  0.00000000000E+00 0. -1.
         23    2    1    2    0    0  0.32112846668E+03  0.34464854039E+02 -0.90015603323E+03  0.96071142237E+03  0.91510844359E+02 0.  0.
         24    2    1    2    0    0  0.56226429684E+02 -0.17459533022E+03 -0.71313234399E+03  0.74110669576E+03  0.83883572416E+02 0.  0.
        -13    1    4    4    0    0  0.38987458762E+02 -0.89035188013E+02 -0.52223577275E+03  0.53120381116E+03  0.00000000000E+00 0.  1.
         14    1    4    4    0    0  0.17238970922E+02 -0.85560142211E+02 -0.19089657124E+03  0.20990288461E+03  0.00000000000E+00 0. -1.
        -13    1    3    3    0    0  0.26558104976E+03  0.54590237111E+00 -0.64849620752E+03  0.70077166264E+03  0.00000000000E+00 0. -1.
         13    1    3    3    0    0  0.55547416924E+02  0.33918951668E+02 -0.25165982571E+03  0.25993975973E+03  0.00000000000E+00 0.  1.
          1    1    1    2  501    0 -0.37735489636E+03  0.14013047619E+03 -0.28807798817E+03  0.49499716710E+03  0.00000000000E+00 0. -1.
<scales pt_clust_5="13000.00000" pt_clust_6="13000.00000" pt_clust_7="13000.00000" pt_clust_8="13000.00000" pt_clust_9="13000.00000"></scales>
<clustering>
<clus scale="   83.884">  5  6 -1 -1</clus>
<clus scale="   91.511">  7  8 -1 -1</clus>
<clus scale="  335.687">  2  7  1 -1</clus>
<clus scale="  305.558">  5  9 -1 -1</clus>
<clus scale="  724.935">  1  5  2 -1</clus>
</clustering>
</event>
<event>
 9    2  0.3726337E-005  0.1529860E+03  0.7546771E-02  0.1208988E+00
         -1   -1    0    0    0  501 -0.00000000000E+00  0.00000000000E+00  0.19488276877E+03  0.19488276877E+03  0.00000000000E+00 0.  1.
         21   -1    0    0  501  502  0.00000000000E+00 -0.00000000000E+00 -0.17852466846E+03  0.17852466846E+03  0.00000000000E+00 0.  1.
         23    2    1    2    0    0 -0.25337310015E+02  0.74504778807E+02  0.13552011539E+03  0.17948913500E+03  0.87508322833E+02 0.  0.
         24    2    1    2    0    0  0.13096943017E+01 -0.37119617125E+02 -0.35220433693E+02  0.98938484814E+02  0.84668551145E+02 0.  0.
        -11    1    4    4    0    0 -0.30326535431E+01  0.22368177385E+02 -0.32059159636E+02  0.39208698826E+02  0.00000000000E+00 0.  1.
         12    1    4    4    0    0  0.43423478449E+01 -0.59487794510E+02 -0.31612740574E+01  0.59729785988E+02  0.00000000000E+00 0. -1.
        -13    1    3    3    0    0 -0.18237957908E+02  0.90576801114E+01 -0.77738767502E+01  0.21796739146E+02  0.00000000000E+00 0. -1.
         13    1    3    3    0    0 -0.70993521065E+01  0.65447098696E+02  0.14329399214E+03  0.15769239585E+03  0.00000000000E+00 0.  1.
         -2    1    1    2    0  502  0.24027615713E+02 -0.37385161682E+02 -0.83941581388E+02  0.94979817418E+02  0.00000000000E+00 0.  1.
<scales pt_clust_5="13000.00000" pt_clust_6="13000.00000" pt_clust_7="13000.00000" pt_clust_8="13000.00000" pt_clust_9="13000.00000"></scales>
<clustering>
<clus scale="   84.669">  5  6 -1 -1</clus>
<clus scale="   44.441">  5  9 -1 -1</clus>
<clus scale="   87.508">  7  8 -1 -1</clus>
<clus scale="  117.689">  1  7  2 -1</clus>
<clus scale="  152.986">  2  5  1 -1</clus>
</clustering>
</event>
<event>
 9    2  0.3726337E-005  0.4402252E+03  0.7546771E-02  0.1051004E+00
         21   -1    0    0  501  502  0.00000000000E+00  0.00000000000E+00  0.15051103646E+03  0.15051103646E+03  0.00000000000E+00 0.  1.
         -3   -1    0    0    0  501 -0.00000000000E+00 -0.00000000000E+00 -0.78193544674E+03  0.78193544674E+03  0.00000000000E+00 0.  1.
         23    2    1    2    0    0 -0.70022292213E+02 -0.21522810181E+03 -0.19172530923E+03  0.31024595402E+03  0.90926896842E+02 0.  0.
         24    2    1    2    0    0 -0.47700589651E+02 -0.79056096709E+02 -0.12545035199E+03  0.17586641363E+03  0.81645526207E+02 0.  0.
        -11    1    4    4    0    0 -0.55311157460E+02 -0.15684917706E+02 -0.75047731076E+02  0.94538366406E+02  0.00000000000E+00 0.  1.
         12    1    4    4    0    0  0.76105678096E+01 -0.63371179003E+02 -0.50402620912E+02  0.81328047225E+02  0.00000000000E+00 0. -1.
        -11    1    3    3    0    0 -0.39717293839E+02 -0.12540231191E+03 -0.16641480366E+03  0.21212517564E+03  0.00000000000E+00 0.  1.
         11    1    3    3    0    0 -0.30304998374E+02 -0.89825789902E+02 -0.25310505571E+02  0.98120778382E+02  0.00000000000E+00 0. -1.
         -4    1    1    2    0  502  0.11772288186E+03  0.29428419852E+03 -0.31424874907E+03  0.44633411555E+03  0.00000000000E+00 0.  1.
<scales pt_clust_5="13000.00000" pt_clust_6="13000.00000" pt_clust_7="13000.00000" pt_clust_8="13000.00000" pt_clust_9="13000.00000"></scales>
<clustering>
<clus scale="   81.646">  5  6 -1 -1</clus>
<clus scale="   90.927">  7  8 -1 -1</clus>
<clus scale="  243.914">  2  7  1 -1</clus>
<clus scale="  155.568">  5  9 -1 -1</clus>
<clus scale="  440.225">  1  5  2 -1</clus>
</clustering>
</event>
<event>
 9    2  0.3726337E-005  0.2503958E+03  0.7546771E-02  0.1149813E+00
         -3   -1    0    0    0  501 -0.00000000000E+00  0.00000000000E+00  0.16793508536E+03  0.16793508536E+03  0.00000000000E+00 0.  1.
         21   -1    0    0  501  502  0.00000000000E+00 -0.00000000000E+00 -0.19152062723E+03  0.19152062723E+03  0.00000000000E+00 0.  1.
         23    2    1    2    0    0 -0.71174462423E+00  0.46589556269E+02  0.24119085767E+02  0.10455609866E+03  0.90438676107E+02 0.  0.
         24    2    1    2    0    0  0.79406144931E+00  0.26090076615E+02  0.75416150440E+02  0.11192737255E+03  0.78478139290E+02 0.  0.
        -13    1    4    4    0    0  0.38916854911E+02  0.14357584785E+02  0.48442953933E+02  0.63776027023E+02  0.00000000000E+00 0.  1.
         14    1    4    4    0    0 -0.38122793462E+02  0.11732491829E+02  0.26973196507E+02  0.48151345523E+02  0.00000000000E+00 0. -1.
        -13    1    3    3    0    0  0.22262943796E+02  0.65865296752E+02  0.26652149919E+02  0.74459472722E+02  0.00000000000E+00 0.  1.
         13    1    3    3    0    0 -0.22974688420E+02 -0.19275740483E+02 -0.25330641516E+01  0.30096625943E+02  0.00000000000E+00 0. -1.
         -4    1    1    2    0  502 -0.82316825083E-01 -0.72679632884E+02 -0.12312077807E+03  0.14297224138E+03  0.00000000000E+00 0.  1.
<scales pt_clust_5="13000.00000" pt_clust_6="13000.00000" pt_clust_7="13000.00000" pt_clust_8="13000.00000" pt_clust_9="13000.00000"></scales>
<clustering>
<clus scale="   78.478">  5  6 -1 -1</clus>
<clus scale="   72.680">  5  9 -1 -1</clus>
<clus scale="   90.439">  7  8 -1 -1</clus>
<clus scale="  101.736">  1  7  2 -1</clus>
<clus scale="  250.396">  2  5  1 -1</clus>
</clustering>
</event>
<event>
 9    2  0.3726337E-005  0.1504091E+03  0.7546771E-02  0.1220503E+00
         21   -1    0    0  501  502  0.00000000000E+00  0.00000000000E+00  0.16953713275E+03  0.16953713275E+03  0.00000000000E+00 0. -1.
          2   -1    0    0  502    0 -0.00000000000E+00 -0.00000000000E+00 -0.93059982723E+02  0.93059982723E+02  0.00000000000E+00 0. -1.
         23    2    1    2    0    0 -0.33848020735E+02  0.42803083852E+02  0.52379140066E+02  0.11026981356E+03  0.80237553389E+02 0.  0.
         24    2    1    2    0    0  0.29983426126E+02  0.25077201711E+02  0.49509365653E+00  0.80356711270E+02  0.70207435792E+02 0.  0.
        -13    1    4    4    0    0  0.47374408311E+01  0.38757076808E+02 -0.21143005595E+02  0.44402489051E+02  0.00000000000E+00 0.  1.
         14    1    4    4    0    0  0.25245985295E+02 -0.13679875097E+02  0.21638099251E+02  0.35954222219E+02  0.00000000000E+00 0. -1.
        -13    1    3    3    0    0  0.23602530338E+02  0.27070856952E+02  0.10376174801E+02  0.37384164268E+02  0.00000000000E+00 0.  1.
         13    1    3    3    0    0 -0.57450551073E+02  0.15732226900E+02  0.42002965266E+02  0.72885649294E+02  0.00000000000E+00 0. -1.
          1    1    1    2  501    0  0.38645946085E+01 -0.67880285563E+02  0.23602916308E+02  0.71970590646E+02  0.00000000000E+00 0. -1.
<scales pt_clust_5="13000.00000" pt_clust_6="13000.00000" pt_clust_7="13000.00000" pt_clust_8="13000.00000" pt_clust_9="13000.00000"></scales>
<clustering>
<clus scale="   70.207">  5  6 -1 -1</clus>
<clus scale="   67.990">  5  9 -1 -1</clus>
<clus scale="   80.238">  7  8 -1 -1</clus>
<clus scale="   97.035">  2  7  1 -1</clus>
<clus scale="  150.409">  1  5  2 -1</clus>
</clustering>
</event>
<event>
 9    2  0.3726337E-005  0.1946694E+03  0.7546771E-02  0.1174090E+00
          2   -1    0    0  502    0 -0.00000000000E+00  0.00000000000E+00  0.42925288352E+03  0.42925288352E+03  0.00000000000E+00 0. -1.
         21   -1    0    0  501  502  0.00000000000E+00 -0.00000000000E+00 -0.58951597252E+02  0.58951597252E+02  0.00000000000E+00 0.  1.
         23    2    1    2    0    0  0.81033770491E+02 -0.13637820717E+02  0.15235472245E+03  0.19597701375E+03  0.91883438947E+02 0.  0.
         24    2    1    2    0    0  0.23292346806E+02  0.70709362424E+01  0.13710181968E+03  0.16008006683E+03  0.78969533861E+02 0.  0.
        -11    1    4    4    0    0 -0.12864590360E+02 -0.16591373109E+02  0.10276393719E+03  0.10488659654E+03  0.00000000000E+00 0.  1.
         12    1    4    4    0    0  0.36156937166E+02  0.23662309352E+02  0.34337882490E+02  0.55193470293E+02  0.00000000000E+00 0. -1.
        -11    1    3    3    0    0  0.14647324595E+02 -0.16147953815E+02 -0.73489740867E+01  0.23006693598E+02  0.00000000000E+00 0.  1.
         11    1    3    3    0    0  0.66386445896E+02  0.25101330979E+01  0.15970369654E+03  0.17297032016E+03  0.00000000000E+00 0. -1.
          1    1    1    2  501    0 -0.10432611730E+03  0.65668844743E+01  0.80844744145E+02  0.13214740019E+03  0.00000000000E+00 0. -1.
<scales pt_clust_5="13000.00000" pt_clust_6="13000.00000" pt_clust_7="13000.00000" pt_clust_8="13000.00000" pt_clust_9="13000.00000"></scales>
<clustering>
<clus scale="   78.970">  5  6 -1 -1</clus>
<clus scale="   91.883">  7  8 -1 -1</clus>
<clus scale="  104.533">  5  9 -1 -1</clus>
<clus scale="  123.268">  1  7  2 -1</clus>
<clus scale="  194.669">  2  5  1 -1</clus>
</clustering>
</event>
<event>
 9    2  0.3726337E-005  0.1580592E+03  0.7546771E-02  0.1201947E+00
         21   -1    0    0  501  502  0.00000000000E+00  0.00000000000E+00  0.26947576130E+03  0.26947576130E+03  0.00000000000E+00 0. -1.
          2   -1    0    0  502    0 -0.00000000000E+00 -0.00000000000E+00 -0.76472921965E+02  0.76472921965E+02  0.00000000000E+00 0. -1.
         23    2    1    2    0    0 -0.42514118091E+02  0.70520033630E+02  0.53788397862E+02  0.13532256957E+03  0.92943427465E+02 0.  0.
         24    2    1    2    0    0  0.10691389159E+02 -0.88984015442E+02  0.10017348865E+03  0.15698097694E+03  0.81091543858E+02 0.  0.
        -11    1    4    4    0    0  0.29649217566E+01 -0.25786139051E+02 -0.11533937831E+02  0.28403299986E+02  0.00000000000E+00 0.  1.
         12    1    4    4    0    0  0.77264674019E+01 -0.63197876391E+02  0.11170742648E+03  0.12857767695E+03  0.00000000000E+00 0. -1.
        -13    1    3    3    0    0  0.15995443798E+01  0.31025642529E+02  0.67710901819E+02  0.74497753401E+02  0.00000000000E+00 0.  1.
         13    1    3    3    0    0 -0.44113662471E+02  0.39494391100E+02 -0.13922503958E+02  0.60824816164E+02  0.00000000000E+00 0. -1.
          1    1    1    2  501    0  0.31822728933E+02  0.18463981812E+02  0.39040952819E+02  0.53645136761E+02  0.00000000000E+00 0. -1.
<scales pt_clust_5="13000.00000" pt_clust_6="13000.00000" pt_clust_7="13000.00000" pt_clust_8="13000.00000" pt_clust_9="13000.00000"></scales>
<clustering>
<clus scale="   81.092">  5  6 -1 -1</clus>
<clus scale="   36.791">  5  9 -1 -1</clus>
<clus scale="   92.943">  7  8 -1 -1</clus>
<clus scale="  124.173">  2  7  1 -1</clus>
<clus scale="  158.059">  1  5  2 -1</clus>
</clustering>
</event>
<event>
 9    2  0.3726337E-005  0.2242493E+03  0.7546771E-02  0.1166724E+00
         21   -1    0    0  501  502  0.00000000000E+00  0.00000000000E+00  0.22516041605E+03  0.22516041605E+03  0.00000000000E+00 0.  1.
         -1   -1    0    0    0  501 -0.00000000000E+00 -0.00000000000E+00 -0.19032303726E+03  0.19032303726E+03  0.00000000000E+00 0.  1.
         23    2    1    2    0    0 -0.25853024082E+02 -0.11304059293E+02 -0.11222636925E+03  0.14731276888E+03  0.91159932588E+02 0.  0.
         24    2    1    2    0    0 -0.53046012071E+02  0.44027064694E+02  0.86883533605E+01  0.10555579322E+03  0.79462419891E+02 0.  0.
        -13    1    4    4    0    0 -0.47546201837E+02  0.27154286102E+02  0.41195099086E+02  0.68520309045E+02  0.00000000000E+00 0.  1.
         14    1    4    4    0    0 -0.54998102339E+01  0.16872778593E+02 -0.32506745726E+02  0.37035484170E+02  0.00000000000E+00 0. -1.
        -11    1    3    3    0    0  0.33999644442E+02 -0.14097820736E+01 -0.31820742045E+02  0.46588871332E+02  0.00000000000E+00 0. -1.
         11    1    3    3    0    0 -0.59852668524E+02 -0.98942772197E+01 -0.80405627206E+02  0.10072389755E+03  0.00000000000E+00 0.  1.
         -2    1    1    2    0  502  0.78899036153E+02 -0.32723005401E+02  0.13837539468E+03  0.16261489121E+03  0.00000000000E+00 0.  1.
<scales pt_clust_5="13000.00000" pt_clust_6="13000.00000" pt_clust_7="13000.00000" pt_clust_8="13000.00000" pt_clust_9="13000.00000"></scales>
<clustering>
<clus scale="   79.462">  5  6 -1 -1</clus>
<clus scale="   85.416">  5  9 -1 -1</clus>
<clus scale="   91.160">  7  8 -1 -1</clus>
<clus scale="   95.427">  2  7  1 -1</clus>
<clus scale="  224.249">  1  5  2 -1</clus>
</clustering>
</event>
<event>
 9    2  0.3726337E-005  0.2849007E+03  0.7546771E-02  0.1135955E+00
          2   -1    0    0  502    0 -0.00000000000E+00  0.00000000000E+00  0.94369144339E+03  0.94369144339E+03  0.00000000000E+00 0. -1.
         21   -1    0    0  501  502  0.00000000000E+00 -0.00000000000E+00 -0.41416029412E+02  0.41416029412E+02  0.00000000000E+00 0. -1.
         23    2    1    2    0    0 -0.20418712981E+02 -0.32580528924E+02  0.12879840234E+03  0.16082895159E+03  0.88309164415E+02 0.  0.
         24    2    1    2    0    0  0.22285445912E+02 -0.35954044248E+02  0.74415776134E+03  0.74971250449E+03  0.80676708075E+02 0.  0.
        -11    1    4    4    0    0  0.37964496449E+02 -0.50227844404E+01  0.15971919450E+03  0.16424601197E+03  0.00000000000E+00 0.  1.
         12    1    4    4    0    0 -0.15679050537E+02 -0.30931259808E+02  0.58443856683E+03  0.58546649252E+03  0.00000000000E+00 0. -1.
        -11    1    3    3    0    0 -0.41833352439E+02  0.90054399732E+01  0.32375204360E+02  0.53658933858E+02  0.00000000000E+00 0.  1.
         11    1    3    3    0    0  0.21414639458E+02 -0.41585968897E+02  0.96423197979E+02  0.10717001773E+03  0.00000000000E+00 0. -1.
          1    1    1    2  501    0 -0.18667329315E+01  0.68534573172E+02  0.29319250297E+02  0.74566016722E+02  0.00000000000E+00 0. -1.
<scales pt_clust_5="13000.00000" pt_clust_6="13000.00000" pt_clust_7="13000.00000" pt_clust_8="13000.00000" pt_clust_9="13000.00000"></scales>
<clustering>
<clus scale="   80.677">  5  6 -1 -1</clus>
<clus scale="   68.560">  5  9 -1 -1</clus>
<clus scale="   88.309">  7  8 -1 -1</clus>
<clus scale="   96.317">  1  7  2 -1</clus>
<clus scale="  284.901">  2  5  1 -1</clus>
</clustering>
</event>
<event>
 9    2  0.3726337E-005  0.5990221E+03  0.7546771E-02  0.1010616E+00
          2   -1    0    0  502    0 -0.00000000000E+00  0.00000000000E+00  0.56544725520E+03  0.56544725520E+03  0.00000000000E+00 0. -1.
         21   -1    0    0  501  502  0.00000000000E+00 -0.00000000000E+00 -0.37597697297E+03  0.37597697297E+03  0.00000000000E+00 0. -1.
         23    2    1    2    0    0 -0.20845138178E+03  0.22568268284E+03  0.32095189961E+02  0.32207425347E+03  0.91197980385E+02 0.  0.
         24    2    1    2    0    0  0.34427202022E+02  0.10146208819E+03  0.20811908225E+03  0.24534052445E+03  0.73475390190E+02 0.  0.
        -11    1    4    4    0    0 -0.29415268068E+01  0.54989742077E+02  0.15840123382E+03  0.16770055215E+03  0.00000000000E+00 0.  1.
         12    1    4    4    0    0  0.37368728829E+02  0.46472346113E+02  0.49717848424E+02  0.77639972305E+02  0.00000000000E+00 0. -1.
        -11    1    3    3    0    0 -0.11863193490E+02  0.60213757915E+02  0.21046759319E+02  0.64879874228E+02  0.00000000000E+00 0.  1.
         11    1    3    3    0    0 -0.19658818829E+03  0.16546892493E+03  0.11048430642E+02  0.25719437924E+03  0.00000000000E+00 0. -1.
          1    1    1    2  501    0  0.17402417976E+03 -0.32714477103E+03 -0.50743989981E+02  0.37400945025E+03  0.00000000000E+00 0. -1.
<scales pt_clust_5="13000.00000" pt_clust_6="13000.00000" pt_clust_7="13000.00000" pt_clust_8="13000.00000" pt_clust_9="13000.00000"></scales>
<clustering>
<clus scale="   73.475">  5  6 -1 -1</clus>
<clus scale="   91.198">  7  8 -1 -1</clus>
<clus scale="  320.471">  1  7  2 -1</clus>
<clus scale="  249.011">  5  9 -1 -1</clus>
<clus scale="  599.022">  2  5  1 -1</clus>
</clustering>
</event>
<event>
 9    2  0.3726337E-005  0.5777842E+03  0.7546771E-02  0.1041481E+00
          2   -1    0    0  502    0 -0.00000000000E+00  0.00000000000E+00  0.32756742262E+03  0.32756742262E+03  0.00000000000E+00 0. -1.
         21   -1    0    0  501  502  0.00000000000E+00 -0.00000000000E+00 -0.40370380131E+03  0.40370380131E+03  0.00000000000E+00 0. -1.
         23    2    1    2    0    0 -0.60342039232E+01  0.10778666513E+03 -0.57857769269E+02  0.15319801170E+03  0.92020283242E+02 0.  0.
         24    2    1    2    0    0 -0.19461972163E+03 -0.31708815332E+02 -0.20356016455E+03  0.29456114592E+03  0.80294726338E+02 0.  0.
        -11    1    4    4    0    0 -0.37992597071E+02 -0.41134506089E+02 -0.54014650311E+02  0.77801461886E+02  0.00000000000E+00 0.  1.
         12    1    4    4    0    0 -0.15662712456E+03  0.94256907569E+01 -0.14954551424E+03  0.21675968404E+03  0.00000000000E+00 0. -1.
        -13    1    3    3    0    0 -0.23582140884E+02  0.41962141929E+02  0.17863744934E+02  0.51342498059E+02  0.00000000000E+00 0.  1.
         13    1    3    3    0    0  0.17547936961E+02  0.65824523204E+02 -0.75721514203E+02  0.10185551364E+03  0.00000000000E+00 0. -1.
          1    1    1    2  501    0  0.20065392556E+03 -0.76077849800E+02  0.18528155512E+03  0.28351206631E+03  0.00000000000E+00 0. -1.
<scales pt_clust_5="13000.00000" pt_clust_6="13000.00000" pt_clust_7="13000.00000" pt_clust_8="13000.00000" pt_clust_9="13000.00000"></scales>
<clustering>
<clus scale="   80.295">  5  6 -1 -1</clus>
<clus scale="   92.020">  7  8 -1 -1</clus>
<clus scale="  141.852">  1  7  2 -1</clus>
<clus scale="  196.115">  5  9 -1 -1</clus>
<clus scale="  577.784">  2  5  1 -1</clus>
</clustering>
</event>
<event>
 9    2  0.3726337E-005  0.2854214E+03  0.7546771E-02  0.1098657E+00
         21   -1    0    0  501  502  0.00000000000E+00  0.00000000000E+00  0.66856605337E+02  0.66856605337E+02  0.00000000000E+00 0. -1.
         -1   -1    0    0    0  501 -0.00000000000E+00 -0.00000000000E+00 -0.17679733612E+04  0.17679733612E+04  0.00000000000E+00 0.  1.
         23    2    1    2    0    0 -0.97831971716E+02 -0.20387489441E+03 -0.22835629993E+03  0.33466706127E+03  0.93377593269E+02 0.  0.
         24    2    1    2    0    0  0.32244997324E+02  0.36713313501E+02 -0.73960559930E+03  0.74533796585E+03  0.78260038289E+02 0.  0.
        -11    1    4    4    0    0  0.51545930740E+02  0.35389171067E+02 -0.37154300212E+03  0.37676727409E+03  0.00000000000E+00 0.  1.
         12    1    4    4    0    0 -0.19300933416E+02  0.13241424339E+01 -0.36806259718E+03  0.36857069176E+03  0.00000000000E+00 0. -1.
        -11    1    3    3    0    0 -0.21971421952E+02 -0.39568809859E+02 -0.10861187548E+03  0.11766466585E+03  0.00000000000E+00 0.  1.
         11    1    3    3    0    0 -0.75860549764E+02 -0.16430608455E+03 -0.11974442445E+03  0.21700239542E+03  0.00000000000E+00 0. -1.
         -2    1    1    2    0  502  0.65586974392E+02  0.16716158091E+03 -0.73315485665E+03  0.75482493942E+03  0.00000000000E+00 0.  1.
<scales pt_clust_5="13000.00000" pt_clust_6="13000.00000" pt_clust_7="13000.00000" pt_clust_8="13000.00000" pt_clust_9="13000.00000"></scales>
<clustering>
<clus scale="   78.260">  5  6 -1 -1</clus>
<clus scale="   93.378">  7  8 -1 -1</clus>
<clus scale="  179.568">  5  9 -1 -1</clus>
<clus scale="  244.654">  2  7  1 -1</clus>
<clus scale="  285.421">  1  5  2 -1</clus>
</clustering>
</event>
<event>
 9    2  0.3726337E-005  0.4074381E+03  0.7546771E-02  0.1086632E+00
         21   -1    0    0  501  502  0.00000000000E+00  0.00000000000E+00  0.14650999496E+03  0.14650999496E+03  0.00000000000E+00 0.  1.
         -3   -1    0    0    0  501 -0.00000000000E+00 -0.00000000000E+00 -0.52610574247E+03  0.52610574247E+03  0.00000000000E+00 0.  1.
         23    2    1    2    0    0  0.22137927336E+02 -0.64951566656E+02 -0.19212080933E+03  0.22411524918E+03  0.92781709948E+02 0.  0.
         24    2    1    2    0    0  0.15750316854E+03 -0.54129828856E+02 -0.44859932591E+02  0.19006221341E+03  0.79836989807E+02 0.  0.
        -11    1    4    4    0    0  0.12764184260E+03 -0.44290729476E+02  0.21185749996E+00  0.13510793309E+03  0.00000000000E+00 0.  1.
         12    1    4    4    0    0  0.29861325941E+02 -0.98390993798E+01 -0.45071790091E+02  0.54954280320E+02  0.00000000000E+00 0. -1.
        -13    1    3    3    0    0  0.48003949259E+02 -0.13097269065E+02 -0.12982893139E+03  0.13903765327E+03  0.00000000000E+00 0.  1.
         13    1    3    3    0    0 -0.25866021923E+02 -0.51854297591E+02 -0.62291877938E+02  0.85077595910E+02  0.00000000000E+00 0. -1.
         -4    1    1    2    0  502 -0.17964109588E+03  0.11908139551E+03 -0.14261500559E+03  0.25843827484E+03  0.00000000000E+00 0.  1.
<scales pt_clust_5="13000.00000" pt_clust_6="13000.00000" pt_clust_7="13000.00000" pt_clust_8="13000.00000" pt_clust_9="13000.00000"></scales>
<clustering>
<clus scale="   79.837">  5  6 -1 -1</clus>
<clus scale="   92.782">  7  8 -1 -1</clus>
<clus scale="  115.400">  2  7  1 -1</clus>
<clus scale="  183.175">  5  9 -1 -1</clus>
<clus scale="  407.438">  1  5  2 -1</clus>
</clustering>
</event>
<event>
 9    2  0.3726337E-005  0.3088146E+03  0.7546771E-02  0.1119788E+00
         21   -1    0    0  501  502  0.00000000000E+00  0.00000000000E+00  0.25233050519E+03  0.25233050519E+03  0.00000000000E+00 0. -1.
         -1   -1    0    0    0  501 -0.00000000000E+00 -0.00000000000E+00 -0.36830227794E+03  0.36830227794E+03  0.00000000000E+00 0.  1.
         23    2    1    2    0    0  0.17647287364E+02  0.55602512877E+02 -0.25739589756E+03  0.28097526832E+03  0.96391841652E+02 0.  0.
         24    2    1    2    0    0 -0.74846714603E+02  0.78799826061E+02 -0.66692286130E+00  0.13587913269E+03  0.81555199963E+02 0.  0.
        -11    1    4    4    0    0 -0.35953174612E+02  0.38166041547E+02 -0.41087422438E+02  0.66614216010E+02  0.00000000000E+00 0.  1.
         12    1    4    4    0    0 -0.38893539991E+02  0.40633784515E+02  0.40420499577E+02  0.69264916683E+02  0.00000000000E+00 0. -1.
        -11    1    3    3    0    0 -0.30232892621E+02  0.48599451230E+02 -0.18691562229E+03  0.19548243991E+03  0.00000000000E+00 0.  1.
         11    1    3    3    0    0  0.47880179985E+02  0.70030616478E+01 -0.70480275273E+02  0.85492828416E+02  0.00000000000E+00 0. -1.
         -2    1    1    2    0  502  0.57199427239E+02 -0.13440233894E+03  0.14209104768E+03  0.20377838212E+03  0.00000000000E+00 0.  1.
<scales pt_clust_5="13000.00000" pt_clust_6="13000.00000" pt_clust_7="13000.00000" pt_clust_8="13000.00000" pt_clust_9="13000.00000"></scales>
<clustering>
<clus scale="   81.555">  5  6 -1 -1</clus>
<clus scale="   96.392">  7  8 -1 -1</clus>
<clus scale="  112.670">  2  7  1 -1</clus>
<clus scale="  132.825">  5  9 -1 -1</clus>
<clus scale="  308.815">  1  5  2 -1</clus>
</clustering>
</event>
<event>
 9    2  0.3726337E-005  0.3911545E+03  0.7546771E-02  0.1087456E+00
         -1   -1    0    0    0  501 -0.00000000000E+00  0.00000000000E+00  0.95250180871E+03  0.95250180871E+03  0.00000000000E+00 0.  1.
         21   -1    0    0  501  502  0.00000000000E+00 -0.00000000000E+00 -0.71254575723E+02  0.71254575723E+02  0.00000000000E+00 0.  1.
         23    2    1    2    0    0  0.33379478445E+02  0.80846355991E+02  0.17737810639E+03  0.21850263153E+03  0.92898248103E+02 0.  0.
         24    2    1    2    0    0 -0.44118276540E+02  0.11294249744E+03  0.10764886045E+03  0.17823856388E+03  0.74015393312E+02 0.  0.
        -13    1    4    4    0    0 -0.45676720158E+02  0.70435032034E+02  0.28987238077E+02  0.88812817055E+02  0.00000000000E+00 0.  1.
         14    1    4    4    0    0  0.15584436176E+01  0.42507465403E+02  0.78661622373E+02  0.89425746828E+02  0.00000000000E+00 0. -1.
        -13    1    3    3    0    0  0.58366604165E+02  0.62950618322E+02  0.83639674119E+02  0.11985422778E+03  0.00000000000E+00 0.  1.
         13    1    3    3    0    0 -0.24987125720E+02  0.17895737668E+02  0.93738432276E+02  0.98648403758E+02  0.00000000000E+00 0. -1.
         -2    1    1    2    0  502  0.10738798095E+02 -0.19378885343E+03  0.59622026614E+03  0.62701518901E+03  0.00000000000E+00 0.  1.
<scales pt_clust_5="13000.00000" pt_clust_6="13000.00000" pt_clust_7="13000.00000" pt_clust_8="13000.00000" pt_clust_9="13000.00000"></scales>
<clustering>
<clus scale="   74.015">  5  6 -1 -1</clus>
<clus scale="   92.898">  7  8 -1 -1</clus>
<clus scale="  127.595">  1  7  2 -1</clus>
<clus scale="  133.711">  5  9 -1 -1</clus>
<clus scale="  391.155">  2  5  1 -1</clus>
</clustering>
</event>
<event>
 9    2  0.3726337E-005  0.1686363E+03  0.7546771E-02  0.1189837E+00
          2   -1    0    0  502    0 -0.00000000000E+00  0.00000000000E+00  0.40835194996E+03  0.40835194996E+03  0.00000000000E+00 0. -1.
         21   -1    0    0  501  502  0.00000000000E+00 -0.00000000000E+00 -0.12911215815E+03  0.12911215815E+03  0.00000000000E+00 0. -1.
         23    2    1    2    0    0 -0.24617297665E+02  0.97356538109E+02  0.33445213929E+03  0.36001948172E+03  0.87587024639E+02 0.  0.
         24    2    1    2    0    0 -0.12374438553E+02 -0.36205583261E+02 -0.28639187027E+01  0.88854639247E+02  0.80143458227E+02 0.  0.
        -13    1    4    4    0    0  0.30327267803E+02 -0.67014464502E+01  0.14292437685E+02  0.34189564664E+02  0.00000000000E+00 0.  1.
         14    1    4    4    0    0 -0.42701706356E+02 -0.29504136811E+02 -0.17156356388E+02  0.54665074583E+02  0.00000000000E+00 0. -1.
        -13    1    3    3    0    0  0.24595244911E+02  0.73394965207E+02  0.21827269915E+03  0.23159170577E+03  0.00000000000E+00 0. -1.
         13    1    3    3    0    0 -0.49212542575E+02  0.23961572902E+02  0.11617944015E+03  0.12842777595E+03  0.00000000000E+00 0.  1.
          1    1    1    2  501    0  0.36991736217E+02 -0.61150954848E+02 -0.52348428778E+02  0.88589987147E+02  0.00000000000E+00 0. -1.
<scales pt_clust_5="13000.00000" pt_clust_6="13000.00000" pt_clust_7="13000.00000" pt_clust_8="13000.00000" pt_clust_9="13000.00000"></scales>
<clustering>
<clus scale="   80.143">  5  6 -1 -1</clus>
<clus scale="   71.469">  5  9 -1 -1</clus>
<clus scale="   87.587">  7  8 -1 -1</clus>
<clus scale="  133.251">  1  7  2 -1</clus>
<clus scale="  168.636">  2  5  1 -1</clus>
</clustering>
</event>
<event>
 9    2  0.3726337E-005  0.2753779E+03  0.7546771E-02  0.1117434E+00
         -1   -1    0    0    0  501 -0.00000000000E+00  0.00000000000E+00  0.13634250887E+03  0.13634250887E+03  0.00000000000E+00 0.  1.
         21   -1    0    0  501  502  0.00000000000E+00 -0.00000000000E+00 -0.40750184880E+03  0.40750184880E+03  0.00000000000E+00 0. -1.
         23    2    1    2    0    0 -0.13889388488E+02  0.14060422222E+03 -0.17534310874E+02  0.16946671635E+03  0.91918732999E+02 0.  0.
         24    2    1    2    0    0 -0.23304746459E+02  0.37394874705E+02 -0.10805352643E+03  0.14144386412E+03  0.79933186238E+02 0.  0.
        -11    1    4    4    0    0  0.95268001217E+01  0.33543946375E+02 -0.10205428951E+03  0.10784727287E+03  0.00000000000E+00 0.  1.
         12    1    4    4    0    0 -0.32831546581E+02  0.38509283305E+01 -0.59992369197E+01  0.33596591249E+02  0.00000000000E+00 0. -1.
        -13    1    3    3    0    0  0.92657836867E+01  0.28277443093E+02  0.32740681703E+02  0.44242748260E+02  0.00000000000E+00 0.  1.
         13    1    3    3    0    0 -0.23155172175E+02  0.11232677912E+03 -0.50274992576E+02  0.12522396809E+03  0.00000000000E+00 0. -1.
         -2    1    1    2    0  502  0.37194134948E+02 -0.17799909692E+03 -0.14557150264E+03  0.23293377720E+03  0.00000000000E+00 0.  1.
<scales pt_clust_5="13000.00000" pt_clust_6="13000.00000" pt_clust_7="13000.00000" pt_clust_8="13000.00000" pt_clust_9="13000.00000"></scales>
<clustering>
<clus scale="   79.933">  5  6 -1 -1</clus>
<clus scale="   91.919">  7  8 -1 -1</clus>
<clus scale="  168.557">  1  7  2 -1</clus>
<clus scale="   80.961">  5  9 -1 -1</clus>
<clus scale="  275.378">  2  5  1 -1</clus>
</clustering>
</event>
<event>
 9    2  0.3726337E-005  0.4888818E+03  0.7546771E-02  0.1043715E+00
         21   -1    0    0  501  502  0.00000000000E+00  0.00000000000E+00  0.17980937024E+03  0.17980937024E+03  0.00000000000E+00 0.  1.
         -3   -1    0    0    0  501 -0.00000000000E+00 -0.00000000000E+00 -0.80895719199E+03  0.80895719199E+03  0.00000000000E+00 0.  1.
         23    2    1    2    0    0  0.19521206108E+03  0.41111480538E+02 -0.39867955889E+02  0.22309289832E+03  0.91559187146E+02 0.  0.
         24    2    1    2    0    0  0.62854162777E+02  0.13903691849E+03 -0.17647889020E+03  0.24658189256E+03  0.79849361753E+02 0.  0.
        -13    1    4    4    0    0  0.28635229576E+02  0.56900017030E+01 -0.58075051707E+02  0.65000493252E+02  0.00000000000E+00 0.  1.
         14    1    4    4    0    0  0.34218933201E+02  0.13334691679E+03 -0.11840383849E+03  0.18158139931E+03  0.00000000000E+00 0. -1.
        -11    1    3    3    0    0  0.14785831466E+03  0.65689228001E+02 -0.48811946072E+02  0.16899633715E+03  0.00000000000E+00 0.  1.
         11    1    3    3    0    0  0.47353746418E+02 -0.24577747464E+02  0.89439901829E+01  0.54096561172E+02  0.00000000000E+00 0. -1.
         -4    1    1    2    0  502 -0.25806622386E+03 -0.18014839903E+03 -0.41280097566E+03  0.51909177134E+03  0.00000000000E+00 0.  1.
<scales pt_clust_5="13000.00000" pt_clust_6="13000.00000" pt_clust_7="13000.00000" pt_clust_8="13000.00000" pt_clust_9="13000.00000"></scales>
<clustering>
<clus scale="   79.849">  5  6 -1 -1</clus>
<clus scale="   91.559">  7  8 -1 -1</clus>
<clus scale="  219.502">  2  7  1 -1</clus>
<clus scale="  195.942">  5  9 -1 -1</clus>
<clus scale="  488.882">  1  5  2 -1</clus>
</clustering>
</event>
<event>
 9    2  0.3726337E-005  0.4770744E+03  0.7546771E-02  0.1074646E+00
         21   -1    0    0  501  502  0.00000000000E+00  0.00000000000E+00  0.11458129462E+03  0.11458129462E+03  0.00000000000E+00 0.  1.
         -1   -1    0    0    0  501 -0.00000000000E+00 -0.00000000000E+00 -0.72875010888E+03  0.72875010888E+03  0.00000000000E+00 0.  1.
         23    2    1    2    0    0  0.41362054723E+02 -0.11216033139E+02 -0.13073246627E+03  0.16413281504E+03  0.89509688103E+02 0.  0.
         24    2    1    2    0    0  0.39842742851E+02  0.22729141738E+03 -0.21538020842E+03  0.32545166651E+03  0.79254782094E+02 0.  0.
        -13    1    4    4    0    0  0.11322850342E+02  0.20581801256E+03 -0.16679174279E+03  0.26515796555E+03  0.00000000000E+00 0.  1.
         14    1    4    4    0    0  0.28519892509E+02  0.21473404825E+02 -0.48588465629E+02  0.60293700961E+02  0.00000000000E+00 0. -1.
        -13    1    3    3    0    0  0.43175683747E+02  0.33334077348E+02 -0.68131871293E+02  0.87276871310E+02  0.00000000000E+00 0.  1.
         13    1    3    3    0    0 -0.18136290236E+01 -0.44550110487E+02 -0.62600594976E+02  0.76855943726E+02  0.00000000000E+00 0. -1.
         -2    1    1    2    0  502 -0.81204797574E+02 -0.21607538425E+03 -0.26805613958E+03  0.35374692195E+03  0.00000000000E+00 0.  1.
<scales pt_clust_5="13000.00000" pt_clust_6="13000.00000" pt_clust_7="13000.00000" pt_clust_8="13000.00000" pt_clust_9="13000.00000"></scales>
<clustering>
<clus scale="   79.255">  5  6 -1 -1</clus>
<clus scale="   89.510">  7  8 -1 -1</clus>
<clus scale="   99.240">  2  7  1 -1</clus>
<clus scale="  229.799">  5  9 -1 -1</clus>
<clus scale="  477.074">  1  5  2 -1</clus>
</clustering>
</event>
<event>
 9    2  0.3726337E-005  0.2896218E+03  0.7546771E-02  0.1134085E+00
         -3   -1    0    0    0  501 -0.00000000000E+00  0.00000000000E+00  0.29408354625E+03  0.29408354625E+03  0.00000000000E+00 0.  1.
         21   -1    0    0  501  502  0.00000000000E+00 -0.00000000000E+00 -0.17495694582E+03  0.17495694582E+03  0.00000000000E+00 0.  1.
         23    2    1    2    0    0 -0.62226242489E+00 -0.29446382050E+02  0.14969688721E+03  0.17780975122E+03  0.91321809892E+02 0.  0.
         24    2    1    2    0    0  0.49796051155E+02  0.12045700478E+03 -0.88163051979E+02  0.17283343704E+03  0.71478224053E+02 0.  0.
        -13    1    4    4    0    0  0.40685218119E+02  0.12776287504E+03 -0.89300245965E+02  0.16109988561E+03  0.00000000000E+00 0.  1.
         14    1    4    4    0    0  0.91108330363E+01 -0.73058702694E+01  0.11371939860E+01  0.11733551430E+02  0.00000000000E+00 0. -1.
        -11    1    3    3    0    0  0.42309020107E+02 -0.21152372904E+02  0.49392936557E+02  0.68389606255E+02  0.00000000000E+00 0. -1.
         11    1    3    3    0    0 -0.42931282532E+02 -0.82940091457E+01  0.10030395066E+03  0.10942014497E+03  0.00000000000E+00 0.  1.
         -4    1    1    2    0  502 -0.49173788730E+02 -0.91010622726E+02  0.57592765199E+02  0.11839730381E+03  0.00000000000E+00 0.  1.
<scales pt_clust_5="13000.00000" pt_clust_6="13000.00000" pt_clust_7="13000.00000" pt_clust_8="13000.00000" pt_clust_9="13000.00000"></scales>
<clustering>
<clus scale="   71.478">  5  6 -1 -1</clus>
<clus scale="   91.322">  7  8 -1 -1</clus>
<clus scale="   95.954">  1  7  2 -1</clus>
<clus scale="  121.477">  5  9 -1 -1</clus>
<clus scale="  289.622">  2  5  1 -1</clus>
</clustering>
</event>
<event>
 9    2  0.3726337E-005  0.1881489E+03  0.7546771E-02  0.1193440E+00
          2   -1    0    0  502    0 -0.00000000000E+00  0.00000000000E+00  0.26330461336E+03  0.26330461336E+03  0.00000000000E+00 0. -1.
         21   -1    0    0  501  502  0.00000000000E+00 -0.00000000000E+00 -0.76242224089E+02  0.76242224089E+02  0.00000000000E+00 0. -1.
         23    2    1    2    0    0  0.34955860405E+00  0.38801513873E+01  0.95553942273E+02  0.13032494584E+03  0.88537324664E+02 0.  0.
         24    2    1    2    0    0  0.65344497503E+02  0.16538225714E+02  0.14492116992E+02  0.10595459660E+03  0.80454576136E+02 0.  0.
        -11    1    4    4    0    0  0.56565354933E+02 -0.28810930698E+01  0.42463851133E+02  0.70789255746E+02  0.00000000000E+00 0.  1.
         12    1    4    4    0    0  0.87791425702E+01  0.19419318783E+02 -0.27971734141E+02  0.35165340851E+02  0.00000000000E+00 0. -1.
        -13    1    3    3    0    0  0.30373712585E+02 -0.68244399699E+01  0.16680799079E+01  0.31175597631E+02  0.00000000000E+00 0. -1.
         13    1    3    3    0    0 -0.30024153981E+02  0.10704591357E+02  0.93885862365E+02  0.99149348210E+02  0.00000000000E+00 0.  1.
          1    1    1    2  501    0 -0.65694056107E+02 -0.20418377101E+02  0.77016330008E+02  0.10326729501E+03  0.00000000000E+00 0. -1.
<scales pt_clust_5="13000.00000" pt_clust_6="13000.00000" pt_clust_7="13000.00000" pt_clust_8="13000.00000" pt_clust_9="13000.00000"></scales>
<clustering>
<clus scale="   80.455">  5  6 -1 -1</clus>
<clus scale="   68.794">  5  9 -1 -1</clus>
<clus scale="   88.537">  7  8 -1 -1</clus>
<clus scale="   88.623">  1  7  2 -1</clus>
<clus scale="  188.149">  2  5  1 -1</clus>
</clustering>
</event>
<event>
 9    2  0.3726337E-005  0.2293588E+03  0.7546771E-02  0.1157073E+00
         21   -1    0    0  501  502  0.00000000000E+00  0.00000000000E+00  0.36301835859E+02  0.36301835859E+02  0.00000000000E+00 0. -1.
         -1   -1    0    0    0  501 -0.00000000000E+00 -0.00000000000E+00 -0.80526681580E+03  0.80526681580E+03  0.00000000000E+00 0.  1.
         23    2    1    2    0    0 -0.65613940630E+02 -0.50379370322E+01 -0.28292051132E+03  0.30412592072E+03  0.90099888537E+02 0.  0.
         24    2    1    2    0    0  0.71047167364E+02 -0.72896404996E+02 -0.18258815261E+03  0.22409146264E+03  0.80727717052E+02 0.  0.
        -11    1    4    4    0    0  0.46049391880E+02  0.59290778151E+01 -0.54091704131E+02  0.71285432677E+02  0.00000000000E+00 0.  1.
         12    1    4    4    0    0  0.24997775484E+02 -0.78825482811E+02 -0.12849644848E+03  0.15280602996E+03  0.00000000000E+00 0. -1.
        -11    1    3    3    0    0 -0.17724359956E+02  0.40277447421E+02 -0.13951757813E+03  0.14629278968E+03  0.00000000000E+00 0.  1.
         11    1    3    3    0    0 -0.47889580674E+02 -0.45315384453E+02 -0.14340293319E+03  0.15783313104E+03  0.00000000000E+00 0. -1.
         -2    1    1    2    0  502 -0.54332267341E+01  0.77934342028E+02 -0.30345631601E+03  0.31335126830E+03  0.00000000000E+00 0.  1.
<scales pt_clust_5="13000.00000" pt_clust_6="13000.00000" pt_clust_7="13000.00000" pt_clust_8="13000.00000" pt_clust_9="13000.00000"></scales>
<clustering>
<clus scale="   80.728">  5  6 -1 -1</clus>
<clus scale="   78.124">  5  9 -1 -1</clus>
<clus scale="   90.100">  7  8 -1 -1</clus>
<clus scale="  111.573">  2  7  1 -1</clus>
<clus scale="  229.359">  1  5  2 -1</clus>
</clustering>
</event>
<event>
 9    2  0.3726337E-005  0.3935102E+03  0.7546771E-02  0.1086059E+00
         -1   -1    0    0    0  501 -0.00000000000E+00  0.00000000000E+00  0.12899313126E+04  0.12899313126E+04  0.00000000000E+00 0.  1.
         21   -1    0    0  501  502  0.00000000000E+00 -0.00000000000E+00 -0.54112671108E+02  0.54112671108E+02  0.00000000000E+00 0.  1.
         23    2    1    2    0    0 -0.90713482745E+02  0.15855843278E+02  0.23406458708E+03  0.26777196985E+03  0.91843634477E+02 0.  0.
         24    2    1    2    0    0 -0.40448403279E+02  0.14876205287E+03  0.34482714180E+03  0.38644923909E+03  0.81676404009E+02 0.  0.
        -11    1    4    4    0    0  0.12634915891E+02  0.79869006122E+02  0.11388088147E+03  0.13966944692E+03  0.00000000000E+00 0.  1.
         12    1    4    4    0    0 -0.53083319169E+02  0.68893046744E+02  0.23094626033E+03  0.24677979218E+03  0.00000000000E+00 0. -1.
        -11    1    3    3    0    0 -0.75488205485E+02  0.51408345917E+02  0.16086978940E+03  0.18498750320E+03  0.00000000000E+00 0.  1.
         11    1    3    3    0    0 -0.15225277261E+02 -0.35552502639E+02  0.73194797676E+02  0.82784466649E+02  0.00000000000E+00 0. -1.
         -2    1    1    2    0  502  0.13116188602E+03 -0.16461789614E+03  0.65692691264E+03  0.68982277480E+03  0.00000000000E+00 0.  1.
<scales pt_clust_5="13000.00000" pt_clust_6="13000.00000" pt_clust_7="13000.00000" pt_clust_8="13000.00000" pt_clust_9="13000.00000"></scales>
<clustering>
<clus scale="   81.676">  5  6 -1 -1</clus>
<clus scale="   91.844">  7  8 -1 -1</clus>
<clus scale="  130.060">  1  7  2 -1</clus>
<clus scale="  170.467">  5  9 -1 -1</clus>
<clus scale="  393.510">  2  5  1 -1</clus>
</clustering>
</event>
<event>
 9    2  0.3726337E-005  0.4323685E+03  0.7546771E-02  0.1058906E+00
         -3   -1    0    0    0  501 -0.00000000000E+00  0.00000000000E+00  0.16758590022E+04  0.16758590022E+04  0.00000000000E+00 0.  1.
         21   -1    0    0  501  502  0.00000000000E+00 -0.00000000000E+00 -0.62408065757E+02  0.62408065757E+02  0.00000000000E+00 0. -1.
         23    2    1    2    0    0  0.19570743853E+02 -0.18484398034E+03  0.39646387226E+03  0.44675631495E+03  0.88641366522E+02 0.  0.
         24    2    1    2    0    0 -0.45088253309E+02  0.23706950231E+03  0.12057770269E+04  0.12323135118E+04  0.80395604940E+02 0.  0.
        -13    1    4    4    0    0 -0.66559750896E+02  0.20679801569E+03  0.10298163578E+04  0.10524815203E+04  0.00000000000E+00 0.  1.
         14    1    4    4    0    0  0.21471497586E+02  0.30271486613E+02  0.17596066907E+03  0.17983199151E+03  0.00000000000E+00 0. -1.
        -11    1    3    3    0    0  0.44027507716E+02 -0.41503375749E+02  0.11419920254E+03  0.12923780211E+03  0.00000000000E+00 0.  1.
         11    1    3    3    0    0 -0.24456763863E+02 -0.14334060459E+03  0.28226466972E+03  0.31751851284E+03  0.00000000000E+00 0. -1.
         -4    1    1    2    0  502  0.25517509456E+02 -0.52225521969E+02  0.11210037336E+02  0.59197241244E+02  0.00000000000E+00 0.  1.
<scales pt_clust_5="13000.00000" pt_clust_6="13000.00000" pt_clust_7="13000.00000" pt_clust_8="13000.00000" pt_clust_9="13000.00000"></scales>
<clustering>
<clus scale="   80.396">  5  6 -1 -1</clus>
<clus scale="   58.126">  5  9 -1 -1</clus>
<clus scale="   88.641">  7  8 -1 -1</clus>
<clus scale="  205.931">  1  7  2 -1</clus>
<clus scale="  432.368">  2  5  1 -1</clus>
</clustering>
</event>
<event>
 9    2  0.3726337E-005  0.9462109E+03  0.7546771E-02  0.9947676E-01
         21   -1    0    0  501  502  0.00000000000E+00  0.00000000000E+00  0.20629590685E+03  0.20629590685E+03  0.00000000000E+00 0.  1.
          2   -1    0    0  502    0 -0.00000000000E+00 -0.00000000000E+00 -0.14132775477E+04  0.14132775477E+04  0.00000000000E+00 0. -1.
         23    2    1    2    0    0  0.92080165854E+02 -0.33213134331E+02 -0.15557081368E+03  0.20508424806E+03  0.90969233799E+02 0.  0.
         24    2    1    2    0    0  0.23586925501E+03 -0.34358227983E+03 -0.33310844741E+03  0.53956982989E+03  0.80568449926E+02 0.  0.
        -13    1    4    4    0    0  0.13169966295E+03 -0.25759785942E+03 -0.22203901164E+03  0.36469546349E+03  0.00000000000E+00 0.  1.
         14    1    4    4    0    0  0.10416959206E+03 -0.85984420403E+02 -0.11106943578E+03  0.17487436640E+03  0.00000000000E+00 0. -1.
        -13    1    3    3    0    0  0.93158863834E+02  0.69817948488E+01 -0.10830173519E+03  0.14302651927E+03  0.00000000000E+00 0.  1.
         13    1    3    3    0    0 -0.10786979793E+01 -0.40194929180E+02 -0.47269078493E+02  0.62057728791E+02  0.00000000000E+00 0. -1.
          1    1    1    2  501    0 -0.32794942086E+03  0.37679541416E+03 -0.71830237976E+03  0.87491937660E+03  0.00000000000E+00 0. -1.
<scales pt_clust_5="13000.00000" pt_clust_6="13000.00000" pt_clust_7="13000.00000" pt_clust_8="13000.00000" pt_clust_9="13000.00000"></scales>
<clustering>
<clus scale="   80.568">  5  6 -1 -1</clus>
<clus scale="   90.969">  7  8 -1 -1</clus>
<clus scale="  133.631">  2  7  1 -1</clus>
<clus scale="  445.346">  5  9 -1 -1</clus>
<clus scale="  946.211">  1  5  2 -1</clus>
</clustering>
</event>
<event>
 9    2  0.3726337E-005  0.1953332E+04  0.7546771E-02  0.9217302E-01
         21   -1    0    0  501  502  0.00000000000E+00  0.00000000000E+00  0.90220323943E+03  0.90220323943E+03  0.00000000000E+00 0. -1.
          2   -1    0    0  502    0 -0.00000000000E+00 -0.00000000000E+00 -0.17829233648E+04  0.17829233648E+04  0.00000000000E+00 0. -1.
         23    2    1    2    0    0  0.12154571378E+03 -0.11023471622E+03 -0.69851565892E+03  0.72331523723E+03  0.91300347546E+02 0.  0.
         24    2    1    2    0    0  0.41472982692E+03 -0.30854878537E+03  0.68347249755E+03  0.86073567353E+03  0.80796426129E+02 0.  0.
        -13    1    4    4    0    0  0.11315097416E+03 -0.12351338693E+03  0.18653281511E+03  0.25070538649E+03  0.00000000000E+00 0.  1.
         14    1    4    4    0    0  0.30157885276E+03 -0.18503539844E+03  0.49693968244E+03  0.61003028703E+03  0.00000000000E+00 0. -1.
        -11    1    3    3    0    0  0.12449869093E+03 -0.61348083744E+02 -0.51305619621E+03  0.53149804505E+03  0.00000000000E+00 0. -1.
         11    1    3    3    0    0 -0.29529771547E+01 -0.48886632477E+02 -0.18545946270E+03  0.19181719218E+03  0.00000000000E+00 0.  1.
          1    1    1    2  501    0 -0.53627554069E+03  0.41878350159E+03 -0.86567696399E+03  0.11010756935E+04  0.00000000000E+00 0. -1.
<scales pt_clust_5="13000.00000" pt_clust_6="13000.00000" pt_clust_7="13000.00000" pt_clust_8="13000.00000" pt_clust_9="13000.00000"></scales>
<clustering>
<clus scale="   80.796">  5  6 -1 -1</clus>
<clus scale="   91.300">  7  8 -1 -1</clus>
<clus scale="  187.779">  2  7  1 -1</clus>
<clus scale="  530.422">  5  9 -1 -1</clus>
<clus scale=" 1953.332">  1  5  2 -1</clus>
</clustering>
</event>
<event>
 9    2  0.3726337E-005  0.2890659E+03  0.7546771E-02  0.1120134E+00
         -3   -1    0    0    0  501 -0.00000000000E+00  0.00000000000E+00  0.31717141979E+03  0.31717141979E+03  0.00000000000E+00 0.  1.
         21   -1    0    0  501  502  0.00000000000E+00 -0.00000000000E+00 -0.16095711501E+03  0.16095711501E+03  0.00000000000E+00 0.  1.
         23    2    1    2    0    0 -0.18981902218E+02 -0.97908628349E+02  0.12932963824E+03  0.18781511100E+03  0.92746689842E+02 0.  0.
         24    2    1    2    0    0 -0.49459893473E+02  0.20512799861E+02 -0.91676118413E+02  0.13305232437E+03  0.80195725033E+02 0.  0.
        -11    1    4    4    0    0 -0.39983660782E+02  0.16879514903E+02 -0.10654761996E+03  0.11504784427E+03  0.00000000000E+00 0.  1.
         12    1    4    4    0    0 -0.94762326910E+01  0.36332849581E+01  0.14871501544E+02  0.18004480103E+02  0.00000000000E+00 0. -1.
        -11    1    3    3    0    0  0.37081462724E+02 -0.31689057609E+02  0.37912862859E+02  0.61778769979E+02  0.00000000000E+00 0. -1.
         11    1    3    3    0    0 -0.56063364942E+02 -0.66219570739E+02  0.91416775379E+02  0.12603634102E+03  0.00000000000E+00 0.  1.
         -4    1    1    2    0  502  0.68441795691E+02  0.77395828487E+02  0.11856078495E+03  0.15726109942E+03  0.00000000000E+00 0.  1.
<scales pt_clust_5="13000.00000" pt_clust_6="13000.00000" pt_clust_7="13000.00000" pt_clust_8="13000.00000" pt_clust_9="13000.00000"></scales>
<clustering>
<clus scale="   80.196">  5  6 -1 -1</clus>
<clus scale="   92.747">  7  8 -1 -1</clus>
<clus scale="  103.317">  5  9 -1 -1</clus>
<clus scale="  136.192">  1  7  2 -1</clus>
<clus scale="  289.066">  2  5  1 -1</clus>
</clustering>
</event>
<event>
 9    2  0.3726337E-005  0.1331835E+03  0.7546771E-02  0.1238076E+00
         21   -1    0    0  501  502  0.00000000000E+00  0.00000000000E+00  0.65024539806E+02  0.65024539806E+02  0.00000000000E+00 0.  1.
         -1   -1    0    0    0  501 -0.00000000000E+00 -0.00000000000E+00 -0.27323818996E+03  0.27323818996E+03  0.00000000000E+00 0.  1.
         23    2    1    2    0    0  0.14913175920E+01  0.34888569756E+02 -0.17629222863E+03  0.20130713771E+03  0.90698277200E+02 0.  0.
         24    2    1    2    0    0 -0.32637332588E+02 -0.11840803305E+02 -0.17793190764E+01  0.87865673256E+02  0.80695789599E+02 0.  0.
        -11    1    4    4    0    0 -0.13616287313E+02  0.25529890349E+02  0.24893170740E+02  0.38168685213E+02  0.00000000000E+00 0.  1.
         12    1    4    4    0    0 -0.19021045275E+02 -0.37370693654E+02 -0.26672489816E+02  0.49696988042E+02  0.00000000000E+00 0. -1.
        -11    1    3    3    0    0 -0.38160940523E+02  0.62767781090E+01 -0.12320596113E+03  0.12913312582E+03  0.00000000000E+00 0.  1.
         11    1    3    3    0    0  0.39652258115E+02  0.28611791647E+02 -0.53086267504E+02  0.72174011891E+02  0.00000000000E+00 0. -1.
         -2    1    1    2    0  502  0.31146014996E+02 -0.23047766451E+02 -0.30142102447E+02  0.49089918807E+02  0.00000000000E+00 0.  1.
<scales pt_clust_5="13000.00000" pt_clust_6="13000.00000" pt_clust_7="13000.00000" pt_clust_8="13000.00000" pt_clust_9="13000.00000"></scales>
<clustering>
<clus scale="   80.696">  5  6 -1 -1</clus>
<clus scale="   38.746">  5  9 -1 -1</clus>
<clus scale="   90.698">  7  8 -1 -1</clus>
<clus scale="   97.189">  2  7  1 -1</clus>
<clus scale="  133.184">  1  5  2 -1</clus>
</clustering>
</event>
<event>
 9    2  0.3726337E-005  0.1403077E+03  0.7546771E-02  0.1223107E+00
          2   -1    0    0  502    0 -0.00000000000E+00  0.00000000000E+00  0.24553773612E+03  0.24553773612E+03  0.00000000000E+00 0. -1.
         21   -1    0    0  501  502  0.00000000000E+00 -0.00000000000E+00 -0.80060636195E+02  0.80060636195E+02  0.00000000000E+00 0.  1.
         23    2    1    2    0    0 -0.13389901758E+02 -0.65734512795E+02  0.62441965188E+01  0.11336887570E+03  0.91176731378E+02 0.  0.
         24    2    1    2    0    0 -0.18670201377E+02  0.31322957520E+02  0.78224857881E+02  0.11855821613E+03  0.81284796447E+02 0.  0.
        -13    1    4    4    0    0 -0.42552200079E+02  0.10444733619E+02  0.74752760136E+02  0.86647315826E+02  0.00000000000E+00 0.  1.
         14    1    4    4    0    0  0.23881998702E+02  0.20878223901E+02  0.34720977454E+01  0.31910900301E+02  0.00000000000E+00 0. -1.
        -11    1    3    3    0    0 -0.39228093900E+02 -0.71004019255E+02 -0.10998384700E+02  0.81861948226E+02  0.00000000000E+00 0.  1.
         11    1    3    3    0    0  0.25838192142E+02  0.52695064596E+01  0.17242581219E+02  0.31506927470E+02  0.00000000000E+00 0. -1.
          1    1    1    2  501    0  0.32060103135E+02  0.34411555275E+02  0.81008045529E+02  0.93671280497E+02  0.00000000000E+00 0. -1.
<scales pt_clust_5="13000.00000" pt_clust_6="13000.00000" pt_clust_7="13000.00000" pt_clust_8="13000.00000" pt_clust_9="13000.00000"></scales>
<clustering>
<clus scale="   81.285">  5  6 -1 -1</clus>
<clus scale="   47.032">  5  9 -1 -1</clus>
<clus scale="   91.177">  7  8 -1 -1</clus>
<clus scale="  113.197">  1  7  2 -1</clus>
<clus scale="  140.308">  2  5  1 -1</clus>
</clustering>
</event>
<event>
 9    2  0.3726337E-005  0.3225273E+03  0.7546771E-02  0.1101091E+00
         21   -1    0    0  501  502  0.00000000000E+00  0.00000000000E+00  0.29466745132E+03  0.29466745132E+03  0.00000000000E+00 0.  1.
          4   -1    0    0  502    0 -0.00000000000E+00 -0.00000000000E+00 -0.22108264790E+03  0.22108264790E+03  0.00000000000E+00 0. -1.
         23    2    1    2    0    0 -0.12995521615E+03 -0.65560245338E+01 -0.55180561447E+02  0.16846872666E+03  0.91681393093E+02 0.  0.
         24    2    1    2    0    0  0.46630633405E+02  0.66164371772E+02  0.19447941091E+03  0.22556663641E+03  0.80659321419E+02 0.  0.
        -13    1    4    4    0    0  0.69419561085E+02  0.55992116118E+02  0.14739554305E+03  0.17227779497E+03  0.00000000000E+00 0.  1.
         14    1    4    4    0    0 -0.22788927680E+02  0.10172255654E+02  0.47083867859E+02  0.53288841444E+02  0.00000000000E+00 0. -1.
        -13    1    3    3    0    0 -0.11624341772E+03  0.25154020320E+02 -0.60626157290E+02  0.13349452367E+03  0.00000000000E+00 0. -1.
         13    1    3    3    0    0 -0.13711798422E+02 -0.31710044854E+02  0.54455958429E+01  0.34974202988E+02  0.00000000000E+00 0.  1.
          3    1    1    2  501    0  0.83324582741E+02 -0.59608347239E+02 -0.65714046044E+02  0.12171473615E+03  0.00000000000E+00 0. -1.
<scales pt_clust_5="13000.00000" pt_clust_6="13000.00000" pt_clust_7="13000.00000" pt_clust_8="13000.00000" pt_clust_9="13000.00000"></scales>
<clustering>
<clus scale="   80.659">  5  6 -1 -1</clus>
<clus scale="   91.681">  7  8 -1 -1</clus>
<clus scale="  102.451">  5  9 -1 -1</clus>
<clus scale="  159.175">  2  7  1 -1</clus>
<clus scale="  322.527">  1  5  2 -1</clus>
</clustering>
</event>
<event>
 9    2  0.3726337E-005  0.1484731E+03  0.7546771E-02  0.1206132E+00
         -1   -1    0    0    0  501 -0.00000000000E+00  0.00000000000E+00  0.44834004848E+03  0.44834004848E+03  0.00000000000E+00 0.  1.
         21   -1    0    0  501  502  0.00000000000E+00 -0.00000000000E+00 -0.51494057314E+02  0.51494057314E+02  0.00000000000E+00 0.  1.
         23    2    1    2    0    0  0.10092192017E+03  0.11247360596E+02  0.10543393018E+03  0.17277867357E+03  0.91784635509E+02 0.  0.
         24    2    1    2    0    0 -0.80961017652E+02 -0.19239746810E+02  0.20941857838E+03  0.24228959562E+03  0.89012656047E+02 0.  0.
        -11    1    4    4    0    0 -0.77920036293E+02 -0.48927325473E+02  0.15750129399E+03  0.18240633992E+03  0.00000000000E+00 0.  1.
         12    1    4    4    0    0 -0.30409813586E+01  0.29687578663E+02  0.51917284395E+02  0.59883255702E+02  0.00000000000E+00 0. -1.
        -13    1    3    3    0    0  0.51571414735E+02 -0.15128422847E+02  0.37370204853E+00  0.53745880296E+02  0.00000000000E+00 0.  1.
         13    1    3    3    0    0  0.49350505435E+02  0.26375783443E+02  0.10506022813E+03  0.11903279327E+03  0.00000000000E+00 0. -1.
         -2    1    1    2    0  502 -0.19960902518E+02  0.79923862139E+01  0.81993482596E+02  0.84765836602E+02  0.00000000000E+00 0.  1.
<scales pt_clust_5="13000.00000" pt_clust_6="13000.00000" pt_clust_7="13000.00000" pt_clust_8="13000.00000" pt_clust_9="13000.00000"></scales>
<clustering>
<clus scale="   89.013">  5  6 -1 -1</clus>
<clus scale="   21.502">  5  9 -1 -1</clus>
<clus scale="   91.785">  7  8 -1 -1</clus>
<clus scale="  136.880">  1  7  2 -1</clus>
<clus scale="  148.473">  2  5  1 -1</clus>
</clustering>
</event>
<event>
 9    2  0.3726337E-005  0.2038701E+03  0.7546771E-02  0.1179687E+00
         21   -1    0    0  501  502  0.00000000000E+00  0.00000000000E+00  0.13847795878E+03  0.13847795878E+03  0.00000000000E+00 0.  1.
         -1   -1    0    0    0  501 -0.00000000000E+00 -0.00000000000E+00 -0.16350158289E+03  0.16350158289E+03  0.00000000000E+00 0.  1.
         23    2    1    2    0    0  0.12947294826E+02 -0.20736526194E+02  0.10101721799E+02  0.95105667390E+02  0.91353200406E+02 0.  0.
         24    2    1    2    0    0  0.28497073212E+02 -0.63970292286E+02 -0.79401829711E+01  0.10873156014E+03  0.82796281251E+02 0.  0.
        -11    1    4    4    0    0 -0.71832670880E+01 -0.49906266150E+02 -0.35361665187E+02  0.61584755353E+02  0.00000000000E+00 0.  1.
         12    1    4    4    0    0  0.35680340300E+02 -0.14064026136E+02  0.27421482216E+02  0.47146804791E+02  0.00000000000E+00 0. -1.
        -13    1    3    3    0    0  0.34336273053E+02 -0.42075597209E+02 -0.14424354686E+02  0.56190724641E+02  0.00000000000E+00 0.  1.
         13    1    3    3    0    0 -0.21388978227E+02  0.21339071014E+02  0.24526076485E+02  0.38914942748E+02  0.00000000000E+00 0. -1.
         -2    1    1    2    0  502 -0.41444368038E+02  0.84706818480E+02 -0.27185162938E+02  0.98142314131E+02  0.00000000000E+00 0.  1.
<scales pt_clust_5="13000.00000" pt_clust_6="13000.00000" pt_clust_7="13000.00000" pt_clust_8="13000.00000" pt_clust_9="13000.00000"></scales>
<clustering>
<clus scale="   82.796">  5  6 -1 -1</clus>
<clus scale="   91.353">  7  8 -1 -1</clus>
<clus scale="   94.302">  5  9 -1 -1</clus>
<clus scale="   94.568">  2  7  1 -1</clus>
<clus scale="  203.870">  1  5  2 -1</clus>
</clustering>
</event>
<event>
 9    2  0.3726337E-005  0.2005787E+03  0.7546771E-02  0.1171950E+00
         21   -1    0    0  501  502  0.00000000000E+00  0.00000000000E+00  0.54030819491E+02  0.54030819491E+02  0.00000000000E+00 0.  1.
         -1   -1    0    0    0  501 -0.00000000000E+00 -0.00000000000E+00 -0.52269830948E+03  0.52269830948E+03  0.00000000000E+00 0.  1.
         23    2    1    2    0    0  0.52946631403E+02  0.54705334668E+02 -0.26824948425E+03  0.29318162976E+03  0.90563032251E+02 0.  0.
         24    2    1    2    0    0  0.25334409830E+02 -0.81279060054E+02 -0.10708538260E+03  0.15886765786E+03  0.80768407327E+02 0.  0.
        -11    1    4    4    0    0 -0.18297149498E+02 -0.55248665629E+02 -0.27312861903E+02  0.64289914908E+02  0.00000000000E+00 0.  1.
         12    1    4    4    0    0  0.43631559328E+02 -0.26030394425E+02 -0.79772520696E+02  0.94577742950E+02  0.00000000000E+00 0. -1.
        -11    1    3    3    0    0  0.67880378686E+02  0.34373254104E+02 -0.25184997738E+03  0.26309252652E+03  0.00000000000E+00 0.  1.
         11    1    3    3    0    0 -0.14933747283E+02  0.20332080563E+02 -0.16399506878E+02  0.30089103240E+02  0.00000000000E+00 0. -1.
         -2    1    1    2    0  502 -0.78281041233E+02  0.26573725386E+02 -0.93332623139E+02  0.12467984135E+03  0.00000000000E+00 0.  1.
<scales pt_clust_5="13000.00000" pt_clust_6="13000.00000" pt_clust_7="13000.00000" pt_clust_8="13000.00000" pt_clust_9="13000.00000"></scales>
<clustering>
<clus scale="   80.768">  5  6 -1 -1</clus>
<clus scale="   82.669">  5  9 -1 -1</clus>
<clus scale="   90.563">  7  8 -1 -1</clus>
<clus scale="  118.312">  2  7  1 -1</clus>
<clus scale="  200.579">  1  5  2 -1</clus>
</clustering>
</event>
<event>
 9    2  0.3726337E-005  0.1265579E+03  0.7546771E-02  0.1248865E+00
         -1   -1    0    0    0  501 -0.00000000000E+00  0.00000000000E+00  0.19725054986E+03  0.19725054986E+03  0.00000000000E+00 0.  1.
         21   -1    0    0  501  502  0.00000000000E+00 -0.00000000000E+00 -0.12812544023E+03  0.12812544023E+03  0.00000000000E+00 0.  1.
         23    2    1    2    0    0  0.95346317757E+01 -0.18755515150E+02  0.14977836833E+03  0.17530313779E+03  0.88628166785E+02 0.  0.
         24    2    1    2    0    0 -0.15775875170E+02  0.46726338065E+02 -0.80394823550E+02  0.12141300509E+03  0.76456270141E+02 0.  0.
        -13    1    4    4    0    0 -0.30619662493E+02  0.27555361231E+02 -0.87020684624E+02  0.96278041194E+02  0.00000000000E+00 0.  1.
         14    1    4    4    0    0  0.14843787323E+02  0.19170976833E+02  0.66258610738E+01  0.25134963891E+02  0.00000000000E+00 0. -1.
        -11    1    3    3    0    0  0.35705607930E+02 -0.42532216048E+02  0.97095712389E+02  0.11185462531E+03  0.00000000000E+00 0.  1.
         11    1    3    3    0    0 -0.26170976155E+02  0.23776700898E+02  0.52682655945E+02  0.63448512480E+02  0.00000000000E+00 0. -1.
         -2    1    1    2    0  502  0.62412433940E+01 -0.27970822915E+02 -0.25843515777E+00  0.28659847215E+02  0.00000000000E+00 0.  1.
<scales pt_clust_5="13000.00000" pt_clust_6="13000.00000" pt_clust_7="13000.00000" pt_clust_8="13000.00000" pt_clust_9="13000.00000"></scales>
<clustering>
<clus scale="   76.456">  5  6 -1 -1</clus>
<clus scale="   28.659">  5  9 -1 -1</clus>
<clus scale="   88.628">  7  8 -1 -1</clus>
<clus scale="   91.091">  1  7  2 -1</clus>
<clus scale="  126.558">  2  5  1 -1</clus>
</clustering>
</event>
<event>
 9    2  0.3726337E-005  0.3071277E+03  0.7546771E-02  0.1105121E+00
         21   -1    0    0  501  502  0.00000000000E+00  0.00000000000E+00  0.36248674720E+02  0.36248674720E+02  0.00000000000E+00 0.  1.
          2   -1    0    0  502    0 -0.00000000000E+00 -0.00000000000E+00 -0.15797889122E+04  0.15797889122E+04  0.00000000000E+00 0. -1.
         23    2    1    2    0    0  0.29249204854E+02 -0.13488759511E+03 -0.43196091162E+03  0.46280906620E+03  0.92476068758E+02 0.  0.
         24    2    1    2    0    0 -0.10054379791E+02 -0.43284507919E+02 -0.17070315893E+03  0.19543851184E+03  0.84154644928E+02 0.  0.
        -11    1    4    4    0    0 -0.25010737159E+02 -0.29505338595E+02 -0.20330625844E+02  0.43697097456E+02  0.00000000000E+00 0.  1.
         12    1    4    4    0    0  0.14956357367E+02 -0.13779169323E+02 -0.15037253308E+03  0.15174141438E+03  0.00000000000E+00 0. -1.
        -11    1    3    3    0    0  0.40505074817E+02 -0.10182843482E+03 -0.40239729022E+03  0.41705307864E+03  0.00000000000E+00 0.  1.
         11    1    3    3    0    0 -0.11255869963E+02 -0.33059160292E+02 -0.29563621397E+02  0.45755987564E+02  0.00000000000E+00 0. -1.
          1    1    1    2  501    0 -0.19194825062E+02  0.17817210303E+03 -0.94087616696E+03  0.95779000890E+03  0.00000000000E+00 0. -1.
<scales pt_clust_5="13000.00000" pt_clust_6="13000.00000" pt_clust_7="13000.00000" pt_clust_8="13000.00000" pt_clust_9="13000.00000"></scales>
<clustering>
<clus scale="   84.155">  5  6 -1 -1</clus>
<clus scale="   92.476">  7  8 -1 -1</clus>
<clus scale="  166.139">  2  7  1 -1</clus>
<clus scale="   65.309">  5  9 -1 -1</clus>
<clus scale="  307.128">  1  5  2 -1</clus>
</clustering>
</event>
<event>
 9    2  0.3726337E-005  0.1354802E+03  0.7546771E-02  0.1232028E+00
         -1   -1    0    0    0  501 -0.00000000000E+00  0.00000000000E+00  0.72326001166E+02  0.72326001166E+02  0.00000000000E+00 0.  1.
         21   -1    0    0  501  502  0.00000000000E+00 -0.00000000000E+00 -0.21283220805E+03  0.21283220805E+03  0.00000000000E+00 0. -1.
         23    2    1    2    0    0  0.49316682605E+02  0.12713189501E+02 -0.97745240912E+02  0.14309000214E+03  0.91251609423E+02 0.  0.
         24    2    1    2    0    0 -0.31044783967E+01 -0.26767113697E+02 -0.20220673161E+02  0.88765811221E+02  0.82124158790E+02 0.  0.
        -13    1    4    4    0    0  0.37653834405E+02 -0.24910742667E+02 -0.15297064146E+02  0.47669240786E+02  0.00000000000E+00 0.  1.
         14    1    4    4    0    0 -0.40758312802E+02 -0.18563710297E+01 -0.49236090150E+01  0.41096570436E+02  0.00000000000E+00 0. -1.
        -11    1    3    3    0    0  0.24276044335E+02 -0.37457833680E+02 -0.24733803084E+02  0.51031134100E+02  0.00000000000E+00 0.  1.
         11    1    3    3    0    0  0.25040638270E+02  0.50171023181E+02 -0.73011437827E+02  0.92058868044E+02  0.00000000000E+00 0. -1.
         -2    1    1    2    0  502 -0.46212204208E+02  0.14053924196E+02 -0.22540292807E+02  0.53302395846E+02  0.00000000000E+00 0.  1.
<scales pt_clust_5="13000.00000" pt_clust_6="13000.00000" pt_clust_7="13000.00000" pt_clust_8="13000.00000" pt_clust_9="13000.00000"></scales>
<clustering>
<clus scale="   82.124">  5  6 -1 -1</clus>
<clus scale="   48.302">  5  9 -1 -1</clus>
<clus scale="   91.252">  7  8 -1 -1</clus>
<clus scale="  104.502">  1  7  2 -1</clus>
<clus scale="  135.480">  2  5  1 -1</clus>
</clustering>
</event>
<event>
 9    2  0.3726337E-005  0.5900403E+03  0.7546771E-02  0.1013990E+00
          2   -1    0    0  502    0 -0.00000000000E+00  0.00000000000E+00  0.19959348102E+04  0.19959348102E+04  0.00000000000E+00 0. -1.
         21   -1    0    0  501  502  0.00000000000E+00 -0.00000000000E+00 -0.10083341727E+03  0.10083341727E+03  0.00000000000E+00 0. -1.
         23    2    1    2    0    0  0.17619554423E+03 -0.22832306236E+03  0.74894184881E+03  0.80764864855E+03  0.90587835802E+02 0.  0.
         24    2    1    2    0    0  0.88040953673E+02 -0.49146425237E+02  0.69266483570E+02  0.14609337308E+03  0.79867686043E+02 0.  0.
        -13    1    4    4    0    0  0.31765981616E+01 -0.25666316529E+02  0.49500624168E+02  0.55849461708E+02  0.00000000000E+00 0.  1.
         14    1    4    4    0    0  0.84864355512E+02 -0.23480108707E+02  0.19765859402E+02  0.90243911369E+02  0.00000000000E+00 0. -1.
        -13    1    3    3    0    0  0.11888586804E+03 -0.19126484920E+03  0.48033280873E+03  0.53050513597E+03  0.00000000000E+00 0. -1.
         13    1    3    3    0    0  0.57309676186E+02 -0.37058213164E+02  0.26860904008E+03  0.27714351257E+03  0.00000000000E+00 0.  1.
          1    1    1    2  501    0 -0.26423649790E+03  0.27746948760E+03  0.10768930606E+04  0.11430262059E+04  0.00000000000E+00 0. -1.
<scales pt_clust_5="13000.00000" pt_clust_6="13000.00000" pt_clust_7="13000.00000" pt_clust_8="13000.00000" pt_clust_9="13000.00000"></scales>
<clustering>
<clus scale="   79.868">  5  6 -1 -1</clus>
<clus scale="   90.588">  7  8 -1 -1</clus>
<clus scale="  302.295">  1  7  2 -1</clus>
<clus scale="  124.681">  5  9 -1 -1</clus>
<clus scale="  590.040">  2  5  1 -1</clus>
</clustering>
</event>
<event>
 9    2  0.4771342E-005  0.1284369E+04  0.7546771E-02  0.9739583E-01
          2   -1    0    0  502    0 -0.00000000000E+00  0.00000000000E+00  0.62366166507E+03  0.62366166507E+03  0.00000000000E+00 0. -1.
         21   -1    0    0  501  502  0.00000000000E+00 -0.00000000000E+00 -0.77545453621E+03  0.77545453621E+03  0.00000000000E+00 0. -1.
         23    2    1    2    0    0  0.49398481236E+02 -0.12886167138E+02  0.44330427913E+01  0.10528104211E+03  0.91968378842E+02 0.  0.
         24    2    1    2    0    0  0.10365463127E+03  0.13590505928E+03  0.53922393707E+03  0.57119458576E+03  0.79286397135E+02 0.  0.
        -11    1    4    4    0    0  0.18819937766E+02  0.89478307228E+02  0.24672179391E+03  0.26312012677E+03  0.00000000000E+00 0.  1.
         12    1    4    4    0    0  0.84834693502E+02  0.46426752049E+02  0.29250214317E+03  0.30807445899E+03  0.00000000000E+00 0. -1.
        -13    1    3    3    0    0  0.13934229850E+02  0.39024606811E+02  0.84268525724E+01  0.42285866936E+02  0.00000000000E+00 0.  1.
         13    1    3    3    0    0  0.35464251386E+02 -0.51910773948E+02 -0.39938097811E+01  0.62995175171E+02  0.00000000000E+00 0. -1.
          1    1    1    2  501    0 -0.15305311250E+03 -0.12301889214E+03 -0.69544985101E+03  0.72264057341E+03  0.00000000000E+00 0. -1.
<scales pt_clust_5="13000.00000" pt_clust_6="13000.00000" pt_clust_7="13000.00000" pt_clust_8="13000.00000" pt_clust_9="13000.00000"></scales>
<clustering>
<clus scale="   79.286">  5  6 -1 -1</clus>
<clus scale="   91.968">  7  8 -1 -1</clus>
<clus scale="  105.188">  1  7  2 -1</clus>
<clus scale="  195.639">  5  9 -1 -1</clus>
<clus scale=" 1284.369">  2  5  1 -1</clus>
</clustering>
</event>
<event>
 9    2  0.4200526E-005  0.4831336E+03  0.7546771E-02  0.1047156E+00
         21   -1    0    0  501  502  0.00000000000E+00  0.00000000000E+00  0.24653569460E+03  0.24653569460E+03  0.00000000000E+00 0. -1.
          2   -1    0    0  502    0 -0.00000000000E+00 -0.00000000000E+00 -0.48193174162E+03  0.48193174162E+03  0.00000000000E+00 0. -1.
         23    2    1    2    0    0  0.17904614913E+03 -0.50814517503E+02 -0.61065876331E+02  0.21484396770E+03  0.88256730621E+02 0.  0.
         24    2    1    2    0    0  0.12444769279E+03  0.50984826899E+02 -0.13753193956E+03  0.20790684989E+03  0.78889435400E+02 0.  0.
        -11    1    4    4    0    0  0.78072095987E+02 -0.98436002948E+01 -0.79823801970E+02  0.11208919662E+03  0.00000000000E+00 0.  1.
         12    1    4    4    0    0  0.46375596803E+02  0.60828427194E+02 -0.57708137589E+02  0.95817653268E+02  0.00000000000E+00 0. -1.
        -11    1    3    3    0    0  0.41692398717E+02  0.26322272523E+01  0.20347414096E+02  0.46467214157E+02  0.00000000000E+00 0.  1.
         11    1    3    3    0    0  0.13735375041E+03 -0.53446744755E+02 -0.81413290427E+02  0.16837675355E+03  0.00000000000E+00 0. -1.
          1    1    1    2  501    0 -0.30349384192E+03 -0.17030939676E+00 -0.36798231123E+02  0.30571661862E+03  0.00000000000E+00 0. -1.
<scales pt_clust_5="13000.00000" pt_clust_6="13000.00000" pt_clust_7="13000.00000" pt_clust_8="13000.00000" pt_clust_9="13000.00000"></scales>
<clustering>
<clus scale="   78.889">  5  6 -1 -1</clus>
<clus scale="   88.257">  7  8 -1 -1</clus>
<clus scale="  205.983">  2  7  1 -1</clus>
<clus scale="  215.859">  5  9 -1 -1</clus>
<clus scale="  483.134">  1  5  2 -1</clus>
</clustering>
</event>
<event>
 9    2  0.3726337E-005  0.2447330E+03  0.7546771E-02  0.1139440E+00
         -3   -1    0    0    0  501 -0.00000000000E+00  0.00000000000E+00  0.30492922213E+03  0.30492922213E+03  0.00000000000E+00 0.  1.
         21   -1    0    0  501  502  0.00000000000E+00 -0.00000000000E+00 -0.12665410727E+03  0.12665410727E+03  0.00000000000E+00 0. -1.
         23    2    1    2    0    0 -0.10515262690E+03 -0.31613218916E+01  0.22435435350E+02  0.14144499056E+03  0.91849157302E+02 0.  0.
         24    2    1    2    0    0  0.39437352512E+00  0.76554056750E+02  0.41562476310E+02  0.11861555799E+03  0.80507962495E+02 0.  0.
        -13    1    4    4    0    0  0.37787090688E+02  0.21248755351E+02  0.24139868375E+02  0.49619623857E+02  0.00000000000E+00 0.  1.
         14    1    4    4    0    0 -0.37392717162E+02  0.55305301399E+02  0.17422607935E+02  0.68995934133E+02  0.00000000000E+00 0. -1.
        -11    1    3    3    0    0 -0.74158714232E+02 -0.32250593752E+02 -0.17923722422E+02  0.82830402144E+02  0.00000000000E+00 0. -1.
         11    1    3    3    0    0 -0.30993912664E+02  0.29089271860E+02  0.40359157772E+02  0.58614588420E+02  0.00000000000E+00 0.  1.
         -4    1    1    2    0  502  0.10475825337E+03 -0.73392734858E+02  0.11427720320E+03  0.17152278085E+03  0.00000000000E+00 0.  1.
<scales pt_clust_5="13000.00000" pt_clust_6="13000.00000" pt_clust_7="13000.00000" pt_clust_8="13000.00000" pt_clust_9="13000.00000"></scales>
<clustering>
<clus scale="   80.508">  5  6 -1 -1</clus>
<clus scale="   91.849">  7  8 -1 -1</clus>
<clus scale="  127.909">  5  9 -1 -1</clus>
<clus scale="  139.654">  1  7  2 -1</clus>
<clus scale="  244.733">  2  5  1 -1</clus>
</clustering>
</event>
<event>
 9    2  0.3726337E-005  0.7364545E+03  0.7546771E-02  0.1014653E+00
         -1   -1    0    0    0  501 -0.00000000000E+00  0.00000000000E+00  0.67403833204E+03  0.67403833204E+03  0.00000000000E+00 0.  1.
         21   -1    0    0  501  502  0.00000000000E+00 -0.00000000000E+00 -0.29849325027E+03  0.29849325027E+03  0.00000000000E+00 0.  1.
         23    2    1    2    0    0  0.11165752926E+03 -0.50409373519E+02  0.16551314197E+02  0.15323814504E+03  0.90550948734E+02 0.  0.
         24    2    1    2    0    0  0.18375923857E+03 -0.23164383228E+03  0.25273202233E+03  0.39725477065E+03  0.80694206061E+02 0.  0.
        -11    1    4    4    0    0  0.92110638946E+02 -0.62487964460E+02  0.11906703640E+03  0.16299102634E+03  0.00000000000E+00 0.  1.
         12    1    4    4    0    0  0.91648599628E+02 -0.16915586782E+03  0.13366498593E+03  0.23426374431E+03  0.00000000000E+00 0. -1.
        -11    1    3    3    0    0  0.38290233713E+02  0.65419158803E+01  0.41726637891E+02  0.57009218298E+02  0.00000000000E+00 0. -1.
         11    1    3    3    0    0  0.73367295542E+02 -0.56951289399E+02 -0.25175323695E+02  0.96228926746E+02  0.00000000000E+00 0.  1.
         -2    1    1    2    0  502 -0.29541676783E+03  0.28205320580E+03  0.10626174524E+03  0.42203866662E+03  0.00000000000E+00 0.  1.
<scales pt_clust_5="13000.00000" pt_clust_6="13000.00000" pt_clust_7="13000.00000" pt_clust_8="13000.00000" pt_clust_9="13000.00000"></scales>
<clustering>
<clus scale="   80.694">  5  6 -1 -1</clus>
<clus scale="   90.551">  7  8 -1 -1</clus>
<clus scale="  152.342">  1  7  2 -1</clus>
<clus scale="  357.091">  5  9 -1 -1</clus>
<clus scale="  736.454">  2  5  1 -1</clus>
</clustering>
</event>
<event>
 9    2  0.3726337E-005  0.3320876E+03  0.7546771E-02  0.1116132E+00
         -1   -1    0    0    0  501 -0.00000000000E+00  0.00000000000E+00  0.14837535368E+03  0.14837535368E+03  0.00000000000E+00 0.  1.
         21   -1    0    0  501  502  0.00000000000E+00 -0.00000000000E+00 -0.34284287104E+03  0.34284287104E+03  0.00000000000E+00 0.  1.
         23    2    1    2    0    0  0.13676454884E+02  0.34176783586E+02 -0.11072096582E+03  0.14873366303E+03  0.92235959860E+02 0.  0.
         24    2    1    2    0    0 -0.10258091942E+03 -0.99429429933E+02 -0.14211652022E+03  0.21770890336E+03  0.82407552570E+02 0.  0.
        -13    1    4    4    0    0 -0.49651184688E+02 -0.97848331264E+02 -0.78374958838E+02  0.13484127797E+03  0.00000000000E+00 0.  1.
         14    1    4    4    0    0 -0.52929734727E+02 -0.15810986691E+01 -0.63741561379E+02  0.82867625393E+02  0.00000000000E+00 0. -1.
        -11    1    3    3    0    0  0.19098526982E+02  0.59069359828E+02 -0.40726074525E+02  0.74246590155E+02  0.00000000000E+00 0.  1.
         11    1    3    3    0    0 -0.54220720987E+01 -0.24892576242E+02 -0.69994891297E+02  0.74487072875E+02  0.00000000000E+00 0. -1.
         -2    1    1    2    0  502  0.88904464532E+02  0.65252646347E+02  0.58369968674E+02  0.12477565833E+03  0.00000000000E+00 0.  1.
<scales pt_clust_5="13000.00000" pt_clust_6="13000.00000" pt_clust_7="13000.00000" pt_clust_8="13000.00000" pt_clust_9="13000.00000"></scales>
<clustering>
<clus scale="   82.408">  5  6 -1 -1</clus>
<clus scale="   92.236">  7  8 -1 -1</clus>
<clus scale="   99.311">  1  7  2 -1</clus>
<clus scale="  133.114">  5  9 -1 -1</clus>
<clus scale="  332.088">  2  5  1 -1</clus>
</clustering>
</event>
<event>
 9    2  0.3726337E-005  0.1944415E+03  0.7546771E-02  0.1185400E+00
         -3   -1    0    0    0  501 -0.00000000000E+00  0.00000000000E+00  0.29794507103E+03  0.29794507103E+03  0.00000000000E+00 0.  1.
         21   -1    0    0  501  502  0.00000000000E+00 -0.00000000000E+00 -0.71672982910E+02  0.71672982910E+02  0.00000000000E+00 0.  1.
         23    2    1    2    0    0 -0.26738677903E+02  0.87862144022E+01  0.95067288295E+02  0.13504995928E+03  0.91698133779E+02 0.  0.
         24    2    1    2    0    0  0.38999658675E+02  0.29816882803E+02 -0.55203264566E+01  0.91969739408E+02  0.77575376801E+02 0.  0.
        -13    1    4    4    0    0  0.23869891109E+02  0.12121479179E+02 -0.41338415074E+02  0.49250040811E+02  0.00000000000E+00 0.  1.
         14    1    4    4    0    0  0.15129767566E+02  0.17695403623E+02  0.35818088618E+02  0.42719698597E+02  0.00000000000E+00 0. -1.
        -11    1    3    3    0    0 -0.10045132225E+02  0.49438476660E+02  0.62671132063E+02  0.80453330881E+02  0.00000000000E+00 0.  1.
         11    1    3    3    0    0 -0.16693545677E+02 -0.40652262258E+02  0.32396156232E+02  0.54596628399E+02  0.00000000000E+00 0. -1.
         -4    1    1    2    0  502 -0.12260980772E+02 -0.38603097205E+02  0.13672512628E+03  0.14259835525E+03  0.00000000000E+00 0.  1.
<scales pt_clust_5="13000.00000" pt_clust_6="13000.00000" pt_clust_7="13000.00000" pt_clust_8="13000.00000" pt_clust_9="13000.00000"></scales>
<clustering>
<clus scale="   77.575">  5  6 -1 -1</clus>
<clus scale="   40.503">  5  9 -1 -1</clus>
<clus scale="   91.698">  7  8 -1 -1</clus>
<clus scale="   95.920">  1  7  2 -1</clus>
<clus scale="  194.441">  2  5  1 -1</clus>
</clustering>
</event>
<event>
 9    2  0.3726337E-005  0.1165268E+04  0.7546771E-02  0.9627894E-01
         21   -1    0    0  501  502  0.00000000000E+00  0.00000000000E+00  0.36481308064E+03  0.36481308064E+03  0.00000000000E+00 0. -1.
         -1   -1    0    0    0  501 -0.00000000000E+00 -0.00000000000E+00 -0.12966990307E+04  0.12966990307E+04  0.00000000000E+00 0.  1.
         23    2    1    2    0    0 -0.12774093311E+03  0.13273517077E+03 -0.90265407422E+02  0.22409248608E+03  0.90184405449E+02 0.  0.
         24    2    1    2    0    0 -0.38751947440E+03  0.20164495838E+03 -0.67976981933E+02  0.44957970031E+03  0.81663973547E+02 0.  0.
        -11    1    4    4    0    0 -0.60333543536E+02  0.50697137726E+00 -0.82690461965E+01  0.60899676687E+02  0.00000000000E+00 0.  1.
         12    1    4    4    0    0 -0.32718593087E+03  0.20113798700E+03 -0.59707935736E+02  0.38868002362E+03  0.00000000000E+00 0. -1.
        -11    1    3    3    0    0 -0.65786457462E+02  0.23427668295E+02 -0.66079304459E+02  0.96141500430E+02  0.00000000000E+00 0.  1.
         11    1    3    3    0    0 -0.61954475648E+02  0.10930750248E+03 -0.24186102963E+02  0.12795098565E+03  0.00000000000E+00 0. -1.
         -2    1    1    2    0  502  0.51526040751E+03 -0.33438012915E+03 -0.77364356076E+03  0.98783992500E+03  0.00000000000E+00 0.  1.
<scales pt_clust_5="13000.00000" pt_clust_6="13000.00000" pt_clust_7="13000.00000" pt_clust_8="13000.00000" pt_clust_9="13000.00000"></scales>
<clustering>
<clus scale="   81.664">  5  6 -1 -1</clus>
<clus scale="   90.184">  7  8 -1 -1</clus>
<clus scale="  205.109">  2  7  1 -1</clus>
<clus scale="  476.678">  5  9 -1 -1</clus>
<clus scale=" 1165.268">  1  5  2 -1</clus>
</clustering>
</event>
<event>
 9    2  0.3726337E-005  0.1560074E+03  0.7546771E-02  0.1217626E+00
         21   -1    0    0  501  502  0.00000000000E+00  0.00000000000E+00  0.28503965692E+02  0.28503965692E+02  0.00000000000E+00 0. -1.
          2   -1    0    0  502    0 -0.00000000000E+00 -0.00000000000E+00 -0.54114637820E+03  0.54114637820E+03  0.00000000000E+00 0. -1.
         23    2    1    2    0    0 -0.80674172259E+01 -0.27377636262E+02 -0.18950989288E+03  0.21082877040E+03  0.87864399738E+02 0.  0.
         24    2    1    2    0    0 -0.71971231769E+01 -0.28691199045E+02 -0.26053490179E+03  0.27340973446E+03  0.77456209347E+02 0.  0.
        -11    1    4    4    0    0 -0.36245266903E+02  0.66820898321E+01 -0.12755398584E+03  0.13277194357E+03  0.00000000000E+00 0.  1.
         12    1    4    4    0    0  0.29048143726E+02 -0.35373288877E+02 -0.13298091595E+03  0.14063779089E+03  0.00000000000E+00 0. -1.
        -11    1    3    3    0    0 -0.11883701851E+02  0.18932252190E+02 -0.84425094650E+01  0.23894110336E+02  0.00000000000E+00 0.  1.
         11    1    3    3    0    0  0.38162846249E+01 -0.46309888452E+02 -0.18106738342E+03  0.18693466007E+03  0.00000000000E+00 0. -1.
          1    1    1    2  501    0  0.15264540403E+02  0.56068835306E+02 -0.62597617837E+02  0.85411839023E+02  0.00000000000E+00 0. -1.
<scales pt_clust_5="13000.00000" pt_clust_6="13000.00000" pt_clust_7="13000.00000" pt_clust_8="13000.00000" pt_clust_9="13000.00000"></scales>
<clustering>
<clus scale="   77.456">  5  6 -1 -1</clus>
<clus scale="   58.110">  5  9 -1 -1</clus>
<clus scale="   87.864">  7  8 -1 -1</clus>
<clus scale="   92.384">  2  7  1 -1</clus>
<clus scale="  156.007">  1  5  2 -1</clus>
</clustering>
</event>
<event>
 9    2  0.3726337E-005  0.3321174E+03  0.7546771E-02  0.1089173E+00
         -3   -1    0    0    0  501 -0.00000000000E+00  0.00000000000E+00  0.46713715470E+03  0.46713715470E+03  0.00000000000E+00 0.  1.
         21   -1    0    0  501  502  0.00000000000E+00 -0.00000000000E+00 -0.31363721820E+03  0.31363721820E+03  0.00000000000E+00 0.  1.
         23    2    1    2    0    0 -0.17341439313E+03  0.29185516739E+02 -0.20929628014E+03  0.28891761718E+03  0.93509948697E+02 0.  0.
         24    2    1    2    0    0 -0.48926482541E+02 -0.54000636956E+02  0.10185821327E+03  0.14814190765E+03  0.79126858298E+02 0.  0.
        -11    1    4    4    0    0 -0.37975840820E+02 -0.74841794605E+02  0.82133545092E+02  0.11742818203E+03  0.00000000000E+00 0.  1.
         12    1    4    4    0    0 -0.10950641721E+02  0.20841157649E+02  0.19724668181E+02  0.30713725615E+02  0.00000000000E+00 0. -1.
        -13    1    3    3    0    0 -0.12625043101E+03 -0.95414792921E+01 -0.18285351325E+03  0.22240867443E+03  0.00000000000E+00 0.  1.
         13    1    3    3    0    0 -0.47163962120E+02  0.38726996031E+02 -0.26442766898E+02  0.66508942750E+02  0.00000000000E+00 0. -1.
         -4    1    1    2    0  502  0.22234087567E+03  0.24815120217E+02  0.26093800336E+03  0.34371484807E+03  0.00000000000E+00 0.  1.
<scales pt_clust_5="13000.00000" pt_clust_6="13000.00000" pt_clust_7="13000.00000" pt_clust_8="13000.00000" pt_clust_9="13000.00000"></scales>
<clustering>
<clus scale="   79.127">  5  6 -1 -1</clus>
<clus scale="   93.510">  7  8 -1 -1</clus>
<clus scale="  199.170">  1  7  2 -1</clus>
<clus scale="  109.534">  5  9 -1 -1</clus>
<clus scale="  332.117">  2  5  1 -1</clus>
</clustering>
</event>
<event>
 9    2  0.3726337E-005  0.2456857E+03  0.7546771E-02  0.1126346E+00
         -3   -1    0    0    0  501 -0.00000000000E+00  0.00000000000E+00  0.21573500119E+03  0.21573500119E+03  0.00000000000E+00 0.  1.
         21   -1    0    0  501  502  0.00000000000E+00 -0.00000000000E+00 -0.24172353826E+03  0.24172353826E+03  0.00000000000E+00 0.  1.
         23    2    1    2    0    0 -0.14210375008E+03  0.87219361798E+02  0.56500319358E+02  0.19829475262E+03  0.91256944779E+02 0.  0.
         24    2    1    2    0    0  0.16677782622E+02 -0.25528127993E+02 -0.82130569236E+02  0.11938678581E+03  0.81104503397E+02 0.  0.
        -13    1    4    4    0    0 -0.16569670061E+02 -0.39243761459E+02 -0.69018036605E+02  0.81105586467E+02  0.00000000000E+00 0.  1.
         14    1    4    4    0    0  0.33247452682E+02  0.13715633466E+02 -0.13112532631E+02  0.38281199344E+02  0.00000000000E+00 0. -1.
        -13    1    3    3    0    0 -0.97219894275E+02  0.23624224190E+02  0.66030945060E+02  0.11987450737E+03  0.00000000000E+00 0.  1.
         13    1    3    3    0    0 -0.44883855810E+02  0.63595137608E+02 -0.95306257024E+01  0.78420245256E+02  0.00000000000E+00 0. -1.
         -4    1    1    2    0  502  0.12542596746E+03 -0.61691233805E+02 -0.35828718517E+00  0.13977700101E+03  0.00000000000E+00 0.  1.
<scales pt_clust_5="13000.00000" pt_clust_6="13000.00000" pt_clust_7="13000.00000" pt_clust_8="13000.00000" pt_clust_9="13000.00000"></scales>
<clustering>
<clus scale="   81.105">  5  6 -1 -1</clus>
<clus scale="   91.257">  7  8 -1 -1</clus>
<clus scale="  139.777">  5  9 -1 -1</clus>
<clus scale="  190.075">  1  7  2 -1</clus>
<clus scale="  245.686">  2  5  1 -1</clus>
</clustering>
</event>
<event>
 9    2  0.3726337E-005  0.3570820E+03  0.7546771E-02  0.1099702E+00
         21   -1    0    0  501  502  0.00000000000E+00  0.00000000000E+00  0.75893387257E+02  0.75893387257E+02  0.00000000000E+00 0. -1.
          2   -1    0    0  502    0 -0.00000000000E+00 -0.00000000000E+00 -0.80037006367E+03  0.80037006367E+03  0.00000000000E+00 0. -1.
         23    2    1    2    0    0 -0.19796691837E+02  0.78202984066E+02 -0.28604519318E+03  0.31081697919E+03  0.90982010797E+02 0.  0.
         24    2    1    2    0    0  0.84139060039E+02 -0.19253042015E+03 -0.25905338387E+03  0.34321414844E+03  0.80869969010E+02 0.  0.
        -11    1    4    4    0    0 -0.93190410312E+01 -0.69654839827E+02 -0.70811141146E+02  0.99764016295E+02  0.00000000000E+00 0.  1.
         12    1    4    4    0    0  0.93458101070E+02 -0.12287558032E+03 -0.18824224272E+03  0.24345013214E+03  0.00000000000E+00 0. -1.
        -11    1    3    3    0    0 -0.55693137736E+02  0.37068311564E+02 -0.16371284316E+03  0.17685496976E+03  0.00000000000E+00 0. -1.
         11    1    3    3    0    0  0.35896445899E+02  0.41134672503E+02 -0.12233235002E+03  0.13396200943E+03  0.00000000000E+00 0.  1.
          1    1    1    2  501    0 -0.64342368202E+02  0.11432743608E+03 -0.17937809937E+03  0.22223232330E+03  0.00000000000E+00 0. -1.
<scales pt_clust_5="13000.00000" pt_clust_6="13000.00000" pt_clust_7="13000.00000" pt_clust_8="13000.00000" pt_clust_9="13000.00000"></scales>
<clustering>
<clus scale="   80.870">  5  6 -1 -1</clus>
<clus scale="   90.982">  7  8 -1 -1</clus>
<clus scale="  121.595">  2  7  1 -1</clus>
<clus scale="  162.558">  5  9 -1 -1</clus>
<clus scale="  357.082">  1  5  2 -1</clus>
</clustering>
</event>
<event>
 9    2  0.3726337E-005  0.2461308E+03  0.7546771E-02  0.1149256E+00
         21   -1    0    0  501  502  0.00000000000E+00  0.00000000000E+00  0.32409161147E+02  0.32409161147E+02  0.00000000000E+00 0. -1.
          2   -1    0    0  502    0 -0.00000000000E+00 -0.00000000000E+00 -0.97791671764E+03  0.97791671764E+03  0.00000000000E+00 0. -1.
         23    2    1    2    0    0  0.56510094217E+02  0.25448044166E+02 -0.33175431836E+03  0.34905936269E+03  0.89109579912E+02 0.  0.
         24    2    1    2    0    0  0.71026982474E+02 -0.42209194632E+02 -0.20739944285E+03  0.23503881986E+03  0.73500133311E+02 0.  0.
        -11    1    4    4    0    0  0.54825256923E+02  0.78656240077E+00 -0.15951581392E+03  0.16867638355E+03  0.00000000000E+00 0.  1.
         12    1    4    4    0    0  0.16201725551E+02 -0.42995757033E+02 -0.47883628929E+02  0.66362436310E+02  0.00000000000E+00 0. -1.
        -13    1    3    3    0    0  0.60620753056E+02  0.52489727036E+02 -0.22519965440E+03  0.23905006063E+03  0.00000000000E+00 0. -1.
         13    1    3    3    0    0 -0.41106588392E+01 -0.27041682869E+02 -0.10655466396E+03  0.11000930206E+03  0.00000000000E+00 0.  1.
          1    1    1    2  501    0 -0.12753707669E+03  0.16761150466E+02 -0.40635379529E+03  0.42622769624E+03  0.00000000000E+00 0. -1.
<scales pt_clust_5="13000.00000" pt_clust_6="13000.00000" pt_clust_7="13000.00000" pt_clust_8="13000.00000" pt_clust_9="13000.00000"></scales>
<clustering>
<clus scale="   73.500">  5  6 -1 -1</clus>
<clus scale="   89.110">  7  8 -1 -1</clus>
<clus scale="  108.543">  2  7  1 -1</clus>
<clus scale="   96.587">  5  9 -1 -1</clus>
<clus scale="  246.131">  1  5  2 -1</clus>
</clustering>
</event>
<event>
 9    2  0.3726337E-005  0.4733390E+03  0.7546771E-02  0.1037042E+00
         -3   -1    0    0    0  501 -0.00000000000E+00  0.00000000000E+00  0.36637566800E+03  0.36637566800E+03  0.00000000000E+00 0.  1.
         21   -1    0    0  501  502  0.00000000000E+00 -0.00000000000E+00 -0.41754343669E+03  0.41754343669E+03  0.00000000000E+00 0.  1.
         23    2    1    2    0    0  0.59944289709E+02  0.27287947018E+03 -0.94862661460E+02  0.30856761160E+03  0.90324544126E+02 0.  0.
         24    2    1    2    0    0 -0.11551177670E+03  0.50474708344E+02  0.21288362535E+02  0.14649328203E+03  0.71529158811E+02 0.  0.
        -11    1    4    4    0    0 -0.68207916463E+02  0.79909706876E+01 -0.18960447052E+02  0.71243764872E+02  0.00000000000E+00 0.  1.
         12    1    4    4    0    0 -0.47303860241E+02  0.42483737656E+02  0.40248809587E+02  0.75249517155E+02  0.00000000000E+00 0. -1.
        -13    1    3    3    0    0  0.39029706318E+02  0.22069665343E+03 -0.11096758880E+03  0.25008825757E+03  0.00000000000E+00 0.  1.
         13    1    3    3    0    0  0.20914583391E+02  0.52182816757E+02  0.16104927341E+02  0.58479354030E+02  0.00000000000E+00 0. -1.
         -4    1    1    2    0  502  0.55567486995E+02 -0.32335417853E+03  0.22406530234E+02  0.32885821106E+03  0.00000000000E+00 0.  1.
<scales pt_clust_5="13000.00000" pt_clust_6="13000.00000" pt_clust_7="13000.00000" pt_clust_8="13000.00000" pt_clust_9="13000.00000"></scales>
<clustering>
<clus scale="   71.529">  5  6 -1 -1</clus>
<clus scale="   90.325">  7  8 -1 -1</clus>
<clus scale="  293.624">  1  7  2 -1</clus>
<clus scale="  168.745">  5  9 -1 -1</clus>
<clus scale="  473.339">  2  5  1 -1</clus>
</clustering>
</event>
<event>
 9    2  0.3726337E-005  0.2723037E+03  0.7546771E-02  0.1143246E+00
         -1   -1    0    0    0  501 -0.00000000000E+00  0.00000000000E+00  0.91755397932E+03  0.91755397932E+03  0.00000000000E+00 0.  1.
         21   -1    0    0  501  502  0.00000000000E+00 -0.00000000000E+00 -0.36638381760E+02  0.36638381760E+02  0.00000000000E+00 0.  1.
         23    2    1    2    0    0 -0.40932057925E+01  0.10293627746E+02  0.18348702416E+03  0.20548953796E+03  0.91846334009E+02 0.  0.
         24    2    1    2    0    0  0.71982030527E+01 -0.11176259241E+03  0.22464158599E+03  0.26513987244E+03  0.85396830247E+02 0.  0.
        -13    1    4    4    0    0 -0.17285215368E+02 -0.34843203132E+02  0.17166756943E+02  0.42514997574E+02  0.00000000000E+00 0.  1.
         14    1    4    4    0    0  0.24483418421E+02 -0.76919389274E+02  0.20747482904E+03  0.22262487487E+03  0.00000000000E+00 0. -1.
        -13    1    3    3    0    0  0.32439048239E+02  0.13865888154E+02  0.15517022579E+03  0.15912998987E+03  0.00000000000E+00 0. -1.
         13    1    3    3    0    0 -0.36532254032E+02 -0.35722604076E+01  0.28316798367E+02  0.46359548087E+02  0.00000000000E+00 0.  1.
         -2    1    1    2    0  502 -0.31049972602E+01  0.10146896466E+03  0.47278698741E+03  0.48356295067E+03  0.00000000000E+00 0.  1.
<scales pt_clust_5="13000.00000" pt_clust_6="13000.00000" pt_clust_7="13000.00000" pt_clust_8="13000.00000" pt_clust_9="13000.00000"></scales>
<clustering>
<clus scale="   85.397">  5  6 -1 -1</clus>
<clus scale="   91.846">  7  8 -1 -1</clus>
<clus scale="   92.512">  1  7  2 -1</clus>
<clus scale="  108.432">  5  9 -1 -1</clus>
<clus scale="  272.304">  2  5  1 -1</clus>
</clustering>
</event>
<event>
 9    2  0.3726337E-005  0.6391213E+03  0.7546771E-02  0.1027652E+00
         21   -1    0    0  501  502  0.00000000000E+00  0.00000000000E+00  0.30998617507E+03  0.30998617507E+03  0.00000000000E+00 0.  1.
          2   -1    0    0  502    0 -0.00000000000E+00 -0.00000000000E+00 -0.51305947144E+03  0.51305947144E+03  0.00000000000E+00 0. -1.
         23    2    1    2    0    0 -0.97227268230E+02 -0.84206223578E+02 -0.57341274146E+02  0.16751996427E+03  0.90725337873E+02 0.  0.
         24    2    1    2    0    0  0.64704404416E+02 -0.24906883669E+03  0.39758427255E+02  0.27272454677E+03  0.81092542892E+02 0.  0.
        -13    1    4    4    0    0  0.80162078980E+02 -0.23519327071E+03  0.41331920518E+02  0.25189315423E+03  0.00000000000E+00 0.  1.
         14    1    4    4    0    0 -0.15457674563E+02 -0.13875565977E+02 -0.15734932630E+01  0.20831392540E+02  0.00000000000E+00 0. -1.
        -13    1    3    3    0    0 -0.37866475181E+02 -0.55007934997E+02 -0.73616832854E+02  0.99394068911E+02  0.00000000000E+00 0.  1.
         13    1    3    3    0    0 -0.59360793049E+02 -0.29198288581E+02  0.16275558708E+02  0.68125895361E+02  0.00000000000E+00 0. -1.
          1    1    1    2  501    0  0.32522863814E+02  0.33327506027E+03 -0.18549044947E+03  0.38280113546E+03  0.00000000000E+00 0. -1.
<scales pt_clust_5="13000.00000" pt_clust_6="13000.00000" pt_clust_7="13000.00000" pt_clust_8="13000.00000" pt_clust_9="13000.00000"></scales>
<clustering>
<clus scale="   81.093">  5  6 -1 -1</clus>
<clus scale="   90.725">  7  8 -1 -1</clus>
<clus scale="  157.400">  2  7  1 -1</clus>
<clus scale="  275.968">  5  9 -1 -1</clus>
<clus scale="  639.121">  1  5  2 -1</clus>
</clustering>
</event>
<event>
 9    2  0.3726337E-005  0.1934436E+03  0.7546771E-02  0.1178952E+00
         21   -1    0    0  501  502  0.00000000000E+00  0.00000000000E+00  0.12281776402E+03  0.12281776402E+03  0.00000000000E+00 0. -1.
          4   -1    0    0  502    0 -0.00000000000E+00 -0.00000000000E+00 -0.19311196705E+03  0.19311196705E+03  0.00000000000E+00 0. -1.
         23    2    1    2    0    0  0.13471851965E+02 -0.62287913022E+02 -0.43413674169E+02  0.12062747064E+03  0.92762948765E+02 0.  0.
         24    2    1    2    0    0 -0.28838226647E+02 -0.24576793765E+02 -0.53879049773E+02  0.10304976515E+03  0.79250488861E+02 0.  0.
        -11    1    4    4    0    0 -0.48379007058E+02  0.22386269407E+01 -0.12513434194E+02  0.50021253581E+02  0.00000000000E+00 0.  1.
         12    1    4    4    0    0  0.19540780411E+02 -0.26815420706E+02 -0.41365615579E+02  0.53028511566E+02  0.00000000000E+00 0. -1.
        -11    1    3    3    0    0  0.10916868111E+02 -0.38099556817E+02 -0.72552183478E+02  0.82671479764E+02  0.00000000000E+00 0.  1.
         11    1    3    3    0    0  0.25549838546E+01 -0.24188356205E+02  0.29138509309E+02  0.37955990873E+02  0.00000000000E+00 0. -1.
          3    1    1    2  501    0  0.15366374682E+02  0.86864706787E+02  0.26998520906E+02  0.92252495290E+02  0.00000000000E+00 0. -1.
<scales pt_clust_5="13000.00000" pt_clust_6="13000.00000" pt_clust_7="13000.00000" pt_clust_8="13000.00000" pt_clust_9="13000.00000"></scales>
<clustering>
<clus scale="   79.250">  5  6 -1 -1</clus>
<clus scale="   88.213">  5  9 -1 -1</clus>
<clus scale="   92.763">  7  8 -1 -1</clus>
<clus scale="  112.544">  2  7  1 -1</clus>
<clus scale="  193.444">  1  5  2 -1</clus>
</clustering>
</event>
<event>
 9    2  0.3726337E-005  0.4996139E+03  0.7546771E-02  0.1040705E+00
         21   -1    0    0  501  502  0.00000000000E+00  0.00000000000E+00  0.10992562964E+03  0.10992562964E+03  0.00000000000E+00 0. -1.
          2   -1    0    0  502    0 -0.00000000000E+00 -0.00000000000E+00 -0.17854380053E+04  0.17854380053E+04  0.00000000000E+00 0. -1.
         23    2    1    2    0    0  0.65062992761E+02 -0.19413660845E+03 -0.11443889798E+04  0.11661817990E+04  0.91823937529E+02 0.  0.
         24    2    1    2    0    0  0.13502088042E+03 -0.48250452754E+02 -0.28873505436E+03  0.33227233510E+03  0.80487444465E+02 0.  0.
        -11    1    4    4    0    0  0.51906581166E+02 -0.15645157308E+02 -0.19675501292E+03  0.20408723435E+03  0.00000000000E+00 0.  1.
         12    1    4    4    0    0  0.83114299249E+02 -0.32605295445E+02 -0.91980041443E+02  0.12818510075E+03  0.00000000000E+00 0. -1.
        -11    1    3    3    0    0 -0.13764834117E+02 -0.92362586985E+02 -0.40105425367E+03  0.41178250633E+03  0.00000000000E+00 0. -1.
         11    1    3    3    0    0  0.78827826878E+02 -0.10177402147E+03 -0.74333472613E+03  0.75439929269E+03  0.00000000000E+00 0.  1.
          1    1    1    2  501    0 -0.20008387318E+03  0.24238706120E+03 -0.24238834146E+03  0.39690950079E+03  0.00000000000E+00 0. -1.
<scales pt_clust_5="13000.00000" pt_clust_6="13000.00000" pt_clust_7="13000.00000" pt_clust_8="13000.00000" pt_clust_9="13000.00000"></scales>
<clustering>
<clus scale="   80.487">  5  6 -1 -1</clus>
<clus scale="   91.824">  7  8 -1 -1</clus>
<clus scale="  224.397">  2  7  1 -1</clus>
<clus scale="  220.513">  5  9 -1 -1</clus>
<clus scale="  499.614">  1  5  2 -1</clus>
</clustering>
</event>
<event>
 9    2  0.3726337E-005  0.1405831E+03  0.7546771E-02  0.1230783E+00
         -1   -1    0    0    0  501 -0.00000000000E+00  0.00000000000E+00  0.15290019561E+03  0.15290019561E+03  0.00000000000E+00 0.  1.
         21   -1    0    0  501  502  0.00000000000E+00 -0.00000000000E+00 -0.10535399031E+03  0.10535399031E+03  0.00000000000E+00 0.  1.
         23    2    1    2    0    0  0.13398845205E+02 -0.15209491232E+02  0.65997522464E+02  0.11646538751E+03  0.93795819946E+02 0.  0.
         24    2    1    2    0    0  0.15526803073E+02 -0.17742215100E+02 -0.40971733886E+02  0.92497042021E+02  0.79505672721E+02 0.  0.
        -11    1    4    4    0    0  0.35120919768E+02 -0.21875462373E+02 -0.54428646244E+02  0.68370259553E+02  0.00000000000E+00 0.  1.
         12    1    4    4    0    0 -0.19594116695E+02  0.41332472738E+01  0.13456912358E+02  0.24126782469E+02  0.00000000000E+00 0. -1.
        -11    1    3    3    0    0 -0.20496872326E+02  0.20209829183E+02 -0.59593099555E+01  0.29395107517E+02  0.00000000000E+00 0. -1.
         11    1    3    3    0    0  0.33895717532E+02 -0.35419320415E+02  0.71956832420E+02  0.87070279990E+02  0.00000000000E+00 0.  1.
         -2    1    1    2    0  502 -0.28925648278E+02  0.32951706332E+02  0.22520416729E+02  0.49291756392E+02  0.00000000000E+00 0.  1.
<scales pt_clust_5="13000.00000" pt_clust_6="13000.00000" pt_clust_7="13000.00000" pt_clust_8="13000.00000" pt_clust_9="13000.00000"></scales>
<clustering>
<clus scale="   79.506">  5  6 -1 -1</clus>
<clus scale="   43.846">  5  9 -1 -1</clus>
<clus scale="   93.796">  7  8 -1 -1</clus>
<clus scale="   95.961">  1  7  2 -1</clus>
<clus scale="  140.583">  2  5  1 -1</clus>
</clustering>
</event>
<event>
 9    2  0.3726337E-005  0.4578273E+03  0.7546771E-02  0.1076564E+00
         21   -1    0    0  501  502  0.00000000000E+00  0.00000000000E+00  0.53935123086E+03  0.53935123086E+03  0.00000000000E+00 0.  1.
         -3   -1    0    0    0  501 -0.00000000000E+00 -0.00000000000E+00 -0.18716240980E+03  0.18716240980E+03  0.00000000000E+00 0.  1.
         23    2    1    2    0    0  0.15559206793E+02  0.50195770751E+02 -0.49431617388E+02  0.11749409761E+03  0.92734426506E+02 0.  0.
         24    2    1    2    0    0 -0.25543750512E+02  0.15027034644E+03  0.14821083581E+02  0.17324426129E+03  0.80995366182E+02 0.  0.
        -11    1    4    4    0    0 -0.46676248079E+02  0.12048391791E+03  0.31654254440E+02  0.13303021625E+03  0.00000000000E+00 0.  1.
         12    1    4    4    0    0  0.21132497567E+02  0.29786428528E+02 -0.16833170860E+02  0.40214045047E+02  0.00000000000E+00 0. -1.
        -11    1    3    3    0    0  0.45923959772E+02  0.27897773232E+02  0.19649590700E+01  0.53769479229E+02  0.00000000000E+00 0. -1.
         11    1    3    3    0    0 -0.30364752979E+02  0.22297997519E+02 -0.51396576458E+02  0.63724618386E+02  0.00000000000E+00 0.  1.
         -4    1    1    2    0  502  0.99845437195E+01 -0.20046611719E+03  0.38679935487E+03  0.43577528175E+03  0.00000000000E+00 0.  1.
<scales pt_clust_5="13000.00000" pt_clust_6="13000.00000" pt_clust_7="13000.00000" pt_clust_8="13000.00000" pt_clust_9="13000.00000"></scales>
<clustering>
<clus scale="   80.995">  5  6 -1 -1</clus>
<clus scale="   92.734">  7  8 -1 -1</clus>
<clus scale="  106.590">  2  7  1 -1</clus>
<clus scale="  189.107">  5  9 -1 -1</clus>
<clus scale="  457.827">  1  5  2 -1</clus>
</clustering>
</event>
<event>
 9    2  0.3726337E-005  0.3612694E+03  0.7546771E-02  0.1086043E+00
         21   -1    0    0  501  502  0.00000000000E+00  0.00000000000E+00  0.37056737231E+02  0.37056737231E+02  0.00000000000E+00 0.  1.
          2   -1    0    0  502    0 -0.00000000000E+00 -0.00000000000E+00 -0.18910612016E+04  0.18910612016E+04  0.00000000000E+00 0. -1.
         23    2    1    2    0    0  0.26070035414E+02  0.14265306072E+03 -0.58127089728E+03  0.60510384189E+03  0.85119098713E+02 0.  0.
         24    2    1    2    0    0 -0.12887251739E+03  0.34035255644E+02 -0.49861034759E+03  0.52235569886E+03  0.80477779832E+02 0.  0.
        -11    1    4    4    0    0 -0.93150850976E+02 -0.42080649373E+01 -0.22116668107E+03  0.24001976931E+03  0.00000000000E+00 0.  1.
         12    1    4    4    0    0 -0.35721666417E+02  0.38243320581E+02 -0.27744366652E+03  0.28233592955E+03  0.00000000000E+00 0. -1.
        -11    1    3    3    0    0 -0.12346131269E+02  0.12094578139E+03 -0.46824167400E+03  0.48376706612E+03  0.00000000000E+00 0.  1.
         11    1    3    3    0    0  0.38416166683E+02  0.21707279326E+02 -0.11302922329E+03  0.12133677577E+03  0.00000000000E+00 0. -1.
          1    1    1    2  501    0  0.10280248198E+03 -0.17668831636E+03 -0.77412321946E+03  0.80065839804E+03  0.00000000000E+00 0. -1.
<scales pt_clust_5="13000.00000" pt_clust_6="13000.00000" pt_clust_7="13000.00000" pt_clust_8="13000.00000" pt_clust_9="13000.00000"></scales>
<clustering>
<clus scale="   80.478">  5  6 -1 -1</clus>
<clus scale="   85.119">  7  8 -1 -1</clus>
<clus scale="  168.151">  2  7  1 -1</clus>
<clus scale="  148.984">  5  9 -1 -1</clus>
<clus scale="  361.269">  1  5  2 -1</clus>
</clustering>
</event>
<event>
 9    2  0.3726337E-005  0.1124643E+03  0.7546771E-02  0.1266586E+00
         21   -1    0    0  501  502  0.00000000000E+00  0.00000000000E+00  0.19823785166E+02  0.19823785166E+02  0.00000000000E+00 0. -1.
         -3   -1    0    0    0  501 -0.00000000000E+00 -0.00000000000E+00 -0.55269581329E+03  0.55269581329E+03  0.00000000000E+00 0.  1.
         23    2    1    2    0    0  0.16026565375E+02  0.59388703001E+01 -0.30455872007E+03  0.31800989415E+03  0.89900822167E+02 0.  0.
         24    2    1    2    0    0 -0.25979392641E+02 -0.27519518148E+02 -0.16778833938E+03  0.18948620882E+03  0.79497445128E+02 0.  0.
        -13    1    4    4    0    0 -0.45662664517E+01 -0.27204664214E+02 -0.16568732085E+03  0.16796795180E+03  0.00000000000E+00 0.  1.
         14    1    4    4    0    0 -0.21413126189E+02 -0.31485393364E+00 -0.21010185300E+01  0.21518257017E+02  0.00000000000E+00 0. -1.
        -13    1    3    3    0    0  0.52097376246E+02  0.23232438103E+01 -0.21831255132E+03  0.22445468170E+03  0.00000000000E+00 0.  1.
         13    1    3    3    0    0 -0.36070810871E+02  0.36156264898E+01 -0.86246168753E+02  0.93555212449E+02  0.00000000000E+00 0. -1.
         -4    1    1    2    0  502  0.99528272655E+01  0.21580647847E+02 -0.60524968681E+02  0.65023495491E+02  0.00000000000E+00 0.  1.
<scales pt_clust_5="13000.00000" pt_clust_6="13000.00000" pt_clust_7="13000.00000" pt_clust_8="13000.00000" pt_clust_9="13000.00000"></scales>
<clustering>
<clus scale="   79.497">  5  6 -1 -1</clus>
<clus scale="   23.765">  5  9 -1 -1</clus>
<clus scale="   89.901">  7  8 -1 -1</clus>
<clus scale="   91.511">  2  7  1 -1</clus>
<clus scale="  112.464">  1  5  2 -1</clus>
</clustering>
</event>
<event>
 9    2  0.3726337E-005  0.1873703E+03  0.7546771E-02  0.1188210E+00
         -3   -1    0    0    0  501 -0.00000000000E+00  0.00000000000E+00  0.55875637175E+02  0.55875637175E+02  0.00000000000E+00 0.  1.
         21   -1    0    0  501  502  0.00000000000E+00 -0.00000000000E+00 -0.46429145210E+03  0.46429145210E+03  0.00000000000E+00 0.  1.
         23    2    1    2    0    0  0.31685478640E+02 -0.19137198279E+02 -0.42978978634E+02  0.10949483206E+03  0.93657480901E+02 0.  0.
         24    2    1    2    0    0  0.34792895865E+02 -0.33758519682E+02 -0.13192776811E+03  0.16218922726E+03  0.80933467650E+02 0.  0.
        -11    1    4    4    0    0  0.37588713532E+02  0.31896495875E+01 -0.11577834737E+03  0.12176908872E+03  0.00000000000E+00 0.  1.
         12    1    4    4    0    0 -0.27958176667E+01 -0.36948169269E+02 -0.16149420744E+02  0.40420138534E+02  0.00000000000E+00 0. -1.
        -13    1    3    3    0    0  0.34911701176E+02  0.31746378501E+02 -0.85043357222E+01  0.47947712698E+02  0.00000000000E+00 0. -1.
         13    1    3    3    0    0 -0.32262225364E+01 -0.50883576780E+02 -0.34474642912E+02  0.61547119361E+02  0.00000000000E+00 0.  1.
         -4    1    1    2    0  502 -0.66478374505E+02  0.52895717961E+02 -0.23350906818E+03  0.24848302996E+03  0.00000000000E+00 0.  1.
<scales pt_clust_5="13000.00000" pt_clust_6="13000.00000" pt_clust_7="13000.00000" pt_clust_8="13000.00000" pt_clust_9="13000.00000"></scales>
<clustering>
<clus scale="   80.933">  5  6 -1 -1</clus>
<clus scale="   84.955">  5  9 -1 -1</clus>
<clus scale="   93.657">  7  8 -1 -1</clus>
<clus scale="  100.707">  1  7  2 -1</clus>
<clus scale="  187.370">  2  5  1 -1</clus>
</clustering>
</event>
<event>
 9    2  0.3726337E-005  0.1434075E+03  0.7546771E-02  0.1222553E+00
         -3   -1    0    0    0  501 -0.00000000000E+00  0.00000000000E+00  0.37801245297E+02  0.37801245297E+02  0.00000000000E+00 0.  1.
         21   -1    0    0  501  502  0.00000000000E+00 -0.00000000000E+00 -0.49722302329E+03  0.49722302329E+03  0.00000000000E+00 0.  1.
         23    2    1    2    0    0  0.39115897394E+02  0.38042669436E+02 -0.94526525361E+02  0.14296016404E+03  0.92331177710E+02 0.  0.
         24    2    1    2    0    0 -0.62444773761E+02 -0.48844963723E+02 -0.33039139006E+03  0.34903571199E+03  0.79889156737E+02 0.  0.
        -13    1    4    4    0    0 -0.41292094199E+02 -0.69254314707E+02 -0.20597286493E+03  0.22119226531E+03  0.00000000000E+00 0.  1.
         14    1    4    4    0    0 -0.21152679562E+02  0.20409350984E+02 -0.12441852513E+03  0.12784344667E+03  0.00000000000E+00 0. -1.
        -13    1    3    3    0    0  0.23429483151E+02  0.24039628714E+01 -0.10080427189E+03  0.10351918156E+03  0.00000000000E+00 0.  1.
         13    1    3    3    0    0  0.15686414243E+02  0.35638706565E+02  0.62777465316E+01  0.39440982480E+02  0.00000000000E+00 0. -1.
         -4    1    1    2    0  502  0.23328876367E+02  0.10802294287E+02 -0.34503862571E+02  0.43028392565E+02  0.00000000000E+00 0.  1.
<scales pt_clust_5="13000.00000" pt_clust_6="13000.00000" pt_clust_7="13000.00000" pt_clust_8="13000.00000" pt_clust_9="13000.00000"></scales>
<clustering>
<clus scale="   79.889">  5  6 -1 -1</clus>
<clus scale="   25.708">  5  9 -1 -1</clus>
<clus scale="   92.331">  7  8 -1 -1</clus>
<clus scale="  107.249">  1  7  2 -1</clus>
<clus scale="  143.408">  2  5  1 -1</clus>
</clustering>
</event>
<event>
 9    2  0.3726337E-005  0.2847725E+03  0.7546771E-02  0.1127543E+00
         21   -1    0    0  501  502  0.00000000000E+00  0.00000000000E+00  0.11155158908E+04  0.11155158908E+04  0.00000000000E+00 0.  1.
         -1   -1    0    0    0  501 -0.00000000000E+00 -0.00000000000E+00 -0.36690696066E+02  0.36690696066E+02  0.00000000000E+00 0.  1.
         23    2    1    2    0    0 -0.74032275532E+02  0.25500210640E+01  0.27574317359E+03  0.30012907481E+03  0.92498018043E+02 0.  0.
         24    2    1    2    0    0 -0.36361108846E+02 -0.92955812635E+02  0.28551315280E+03  0.31520002142E+03  0.88715160721E+02 0.  0.
        -13    1    4    4    0    0 -0.19465074784E+02 -0.80144200652E+02  0.28186642360E+03  0.29368463152E+03  0.00000000000E+00 0.  1.
         14    1    4    4    0    0 -0.16896034062E+02 -0.12811611983E+02  0.36467291914E+01  0.21515389897E+02  0.00000000000E+00 0. -1.
        -13    1    3    3    0    0 -0.26797383749E+02 -0.83266425633E+01  0.96756934148E+01  0.29682516659E+02  0.00000000000E+00 0.  1.
         13    1    3    3    0    0 -0.47234891783E+02  0.10876663627E+02  0.26606748017E+03  0.27044655816E+03  0.00000000000E+00 0. -1.
         -2    1    1    2    0  502  0.11039338438E+03  0.90405791571E+02  0.51756886837E+03  0.53687749066E+03  0.00000000000E+00 0.  1.
<scales pt_clust_5="13000.00000" pt_clust_6="13000.00000" pt_clust_7="13000.00000" pt_clust_8="13000.00000" pt_clust_9="13000.00000"></scales>
<clustering>
<clus scale="   88.715">  5  6 -1 -1</clus>
<clus scale="   92.498">  7  8 -1 -1</clus>
<clus scale="  118.504">  2  7  1 -1</clus>
<clus scale="  122.280">  5  9 -1 -1</clus>
<clus scale="  284.772">  1  5  2 -1</clus>
</clustering>
</event>
<event>
 9    2  0.3726337E-005  0.3259842E+03  0.7546771E-02  0.1114956E+00
         -1   -1    0    0    0  501 -0.00000000000E+00  0.00000000000E+00  0.23001982424E+03  0.23001982424E+03  0.00000000000E+00 0.  1.
         21   -1    0    0  501  502  0.00000000000E+00 -0.00000000000E+00 -0.20487738866E+03  0.20487738866E+03  0.00000000000E+00 0. -1.
         23    2    1    2    0    0  0.49858122319E+02  0.26290819905E+02  0.39900036325E+01  0.10822745835E+03  0.92305054252E+02 0.  0.
         24    2    1    2    0    0 -0.64321880888E+02  0.47287600954E+02 -0.12136083865E+03  0.16563244016E+03  0.79575313441E+02 0.  0.
        -11    1    4    4    0    0 -0.70957220410E+01  0.47007888448E+02 -0.86275167307E+02  0.98506321328E+02  0.00000000000E+00 0.  1.
         12    1    4    4    0    0 -0.57226158847E+02  0.27971250625E+00 -0.35085671345E+02  0.67126118830E+02  0.00000000000E+00 0. -1.
        -11    1    3    3    0    0 -0.24606211084E+02  0.56995546009E+01  0.16204553542E+02  0.30008967027E+02  0.00000000000E+00 0. -1.
         11    1    3    3    0    0  0.74464333403E+02  0.20591265304E+02 -0.12214549910E+02  0.78218491327E+02  0.00000000000E+00 0.  1.
         -2    1    1    2    0  502  0.14463758569E+02 -0.73578420858E+02  0.14251327060E+03  0.16103731438E+03  0.00000000000E+00 0.  1.
<scales pt_clust_5="13000.00000" pt_clust_6="13000.00000" pt_clust_7="13000.00000" pt_clust_8="13000.00000" pt_clust_9="13000.00000"></scales>
<clustering>
<clus scale="   79.575">  5  6 -1 -1</clus>
<clus scale="   74.987">  5  9 -1 -1</clus>
<clus scale="   92.305">  7  8 -1 -1</clus>
<clus scale="  108.154">  1  7  2 -1</clus>
<clus scale="  325.984">  2  5  1 -1</clus>
</clustering>
</event>
<event>
 9    2  0.3726337E-005  0.1745863E+03  0.7546771E-02  0.1191184E+00
         21   -1    0    0  501  502  0.00000000000E+00  0.00000000000E+00  0.90275038780E+02  0.90275038780E+02  0.00000000000E+00 0. -1.
          2   -1    0    0  502    0 -0.00000000000E+00 -0.00000000000E+00 -0.23505160696E+03  0.23505160696E+03  0.00000000000E+00 0. -1.
         23    2    1    2    0    0 -0.50437097370E+02 -0.48376819188E+02 -0.63603048988E+02  0.13279218999E+03  0.93296304616E+02 0.  0.
         24    2    1    2    0    0  0.41764067758E+02 -0.14162357586E+02 -0.89706358147E+02  0.12882276597E+03  0.81260473861E+02 0.  0.
        -11    1    4    4    0    0 -0.20786046698E+02  0.14712991222E+00 -0.47962761680E+02  0.52273395647E+02  0.00000000000E+00 0.  1.
         12    1    4    4    0    0  0.62550114455E+02 -0.14309487498E+02 -0.41743596467E+02  0.76549370323E+02  0.00000000000E+00 0. -1.
        -11    1    3    3    0    0 -0.34233056806E+01 -0.60994097055E+02 -0.12768769605E+02  0.62410258568E+02  0.00000000000E+00 0. -1.
         11    1    3    3    0    0 -0.47013791690E+02  0.12617277867E+02 -0.50834279383E+02  0.70381931418E+02  0.00000000000E+00 0.  1.
          1    1    1    2  501    0  0.86730296128E+01  0.62539176775E+02  0.85328389553E+01  0.63711689783E+02  0.00000000000E+00 0. -1.
<scales pt_clust_5="13000.00000" pt_clust_6="13000.00000" pt_clust_7="13000.00000" pt_clust_8="13000.00000" pt_clust_9="13000.00000"></scales>
<clustering>
<clus scale="   81.260">  5  6 -1 -1</clus>
<clus scale="   63.138">  5  9 -1 -1</clus>
<clus scale="   93.296">  7  8 -1 -1</clus>
<clus scale="  116.569">  2  7  1 -1</clus>
<clus scale="  174.586">  1  5  2 -1</clus>
</clustering>
</event>
<event>
 9    2  0.3726337E-005  0.2083243E+03  0.7546771E-02  0.1177941E+00
         -1   -1    0    0    0  501 -0.00000000000E+00  0.00000000000E+00  0.11013822627E+04  0.11013822627E+04  0.00000000000E+00 0.  1.
         21   -1    0    0  501  502  0.00000000000E+00 -0.00000000000E+00 -0.20501071952E+02  0.20501071952E+02  0.00000000000E+00 0.  1.
         23    2    1    2    0    0  0.20912065423E+02 -0.58110012835E+01  0.32573722752E+03  0.33853065984E+03  0.89594553655E+02 0.  0.
         24    2    1    2    0    0 -0.24134987392E+02  0.88748379328E+02  0.38176166966E+03  0.40085648783E+03  0.80530608872E+02 0.  0.
        -13    1    4    4    0    0 -0.26893122937E+02  0.69015092556E+02  0.14099539266E+03  0.15926714605E+03  0.00000000000E+00 0.  1.
         14    1    4    4    0    0  0.27581355452E+01  0.19733286772E+02  0.24076627700E+03  0.24158934177E+03  0.00000000000E+00 0. -1.
        -11    1    3    3    0    0  0.48168314947E+02 -0.13669509345E+02  0.28192706120E+03  0.28633880262E+03  0.00000000000E+00 0.  1.
         11    1    3    3    0    0 -0.27256249524E+02  0.78585080615E+01  0.43810166322E+02  0.52191857221E+02  0.00000000000E+00 0. -1.
         -2    1    1    2    0  502  0.32229219682E+01 -0.82937378045E+02  0.37338229362E+03  0.38249618703E+03  0.00000000000E+00 0.  1.
<scales pt_clust_5="13000.00000" pt_clust_6="13000.00000" pt_clust_7="13000.00000" pt_clust_8="13000.00000" pt_clust_9="13000.00000"></scales>
<clustering>
<clus scale="   80.531">  5  6 -1 -1</clus>
<clus scale="   83.000">  5  9 -1 -1</clus>
<clus scale="   89.595">  7  8 -1 -1</clus>
<clus scale="   92.186">  1  7  2 -1</clus>
<clus scale="  208.324">  2  5  1 -1</clus>
</clustering>
</event>
<event>
 9    2  0.3726337E-005  0.5920843E+03  0.7546771E-02  0.1044169E+00
          2   -1    0    0  502    0 -0.00000000000E+00  0.00000000000E+00  0.35874849566E+03  0.35874849566E+03  0.00000000000E+00 0. -1.
         21   -1    0    0  501  502  0.00000000000E+00 -0.00000000000E+00 -0.36183860857E+03  0.36183860857E+03  0.00000000000E+00 0. -1.
         23    2    1    2    0    0  0.60501402365E+01 -0.56173055038E+02  0.36155398565E+02  0.12720360038E+03  0.10808111211E+03 0.  0.
         24    2    1    2    0    0  0.74397760672E+02  0.26375574802E+03  0.12980772910E+03  0.31384560421E+03  0.80912887355E+02 0.  0.
        -11    1    4    4    0    0 -0.44840568560E+01  0.12570146399E+03  0.44615293915E+02  0.13345969154E+03  0.00000000000E+00 0.  1.
         12    1    4    4    0    0  0.78881817528E+02  0.13805428402E+03  0.85192435189E+02  0.18038591266E+03  0.00000000000E+00 0. -1.
        -13    1    3    3    0    0  0.21705815907E+02 -0.82405093065E+02  0.43656132493E+02  0.95747583320E+02  0.00000000000E+00 0.  1.
         13    1    3    3    0    0 -0.15655675671E+02  0.26232038027E+02 -0.75007339280E+01  0.31456017059E+02  0.00000000000E+00 0. -1.
          1    1    1    2  501    0 -0.80447900908E+02 -0.20758269298E+03 -0.16905324059E+03  0.27953789964E+03  0.00000000000E+00 0. -1.
<scales pt_clust_5="13000.00000" pt_clust_6="13000.00000" pt_clust_7="13000.00000" pt_clust_8="13000.00000" pt_clust_9="13000.00000"></scales>
<clustering>
<clus scale="   80.913">  5  6 -1 -1</clus>
<clus scale="  108.081">  7  8 -1 -1</clus>
<clus scale="  121.957">  1  7  2 -1</clus>
<clus scale="  232.691">  5  9 -1 -1</clus>
<clus scale="  592.084">  2  5  1 -1</clus>
</clustering>
</event>
<event>
 9    2  0.3726337E-005  0.3756525E+03  0.7546771E-02  0.1089976E+00
          4   -1    0    0  502    0 -0.00000000000E+00  0.00000000000E+00  0.31313018232E+03  0.31313018232E+03  0.00000000000E+00 0. -1.
         21   -1    0    0  501  502  0.00000000000E+00 -0.00000000000E+00 -0.20821447738E+03  0.20821447738E+03  0.00000000000E+00 0. -1.
         23    2    1    2    0    0 -0.55092372094E+02 -0.80505824931E+02  0.20096670768E+02  0.13623545734E+03  0.92950881382E+02 0.  0.
         24    2    1    2    0    0 -0.89655922823E+02 -0.81323962996E+02 -0.14283297493E+02  0.14644160656E+03  0.81174873516E+02 0.  0.
        -11    1    4    4    0    0  0.98467986021E+01 -0.25084379376E+02  0.11457535883E+02  0.29282429201E+02  0.00000000000E+00 0.  1.
         12    1    4    4    0    0 -0.99502721425E+02 -0.56239583619E+02 -0.25740833377E+02  0.11715917736E+03  0.00000000000E+00 0. -1.
        -13    1    3    3    0    0 -0.81531683207E+02 -0.61215775304E+02  0.16979338804E+02  0.10335900763E+03  0.00000000000E+00 0.  1.
         13    1    3    3    0    0  0.26439311113E+02 -0.19290049627E+02  0.31173319637E+01  0.32876449707E+02  0.00000000000E+00 0. -1.
          3    1    1    2  501    0  0.14474829492E+03  0.16182978793E+03  0.99102331666E+02  0.23866759580E+03  0.00000000000E+00 0. -1.
<scales pt_clust_5="13000.00000" pt_clust_6="13000.00000" pt_clust_7="13000.00000" pt_clust_8="13000.00000" pt_clust_9="13000.00000"></scales>
<clustering>
<clus scale="   81.175">  5  6 -1 -1</clus>
<clus scale="   92.951">  7  8 -1 -1</clus>
<clus scale="  134.745">  1  7  2 -1</clus>
<clus scale="  147.869">  5  9 -1 -1</clus>
<clus scale="  375.653">  2  5  1 -1</clus>
</clustering>
</event>
<event>
 9    2  0.3726337E-005  0.2341590E+03  0.7546771E-02  0.1136334E+00
         -3   -1    0    0    0  501 -0.00000000000E+00  0.00000000000E+00  0.53953314354E+03  0.53953314354E+03  0.00000000000E+00 0.  1.
         21   -1    0    0  501  502  0.00000000000E+00 -0.00000000000E+00 -0.76651283645E+02  0.76651283645E+02  0.00000000000E+00 0. -1.
         23    2    1    2    0    0  0.14494310205E+03  0.23416570083E+02  0.17856547684E+03  0.24785541277E+03  0.89385891132E+02 0.  0.
         24    2    1    2    0    0 -0.67513579942E+02 -0.65320836418E+02  0.80943395330E+02  0.14671703241E+03  0.78416574814E+02 0.  0.
        -13    1    4    4    0    0 -0.42702661589E+02 -0.80558196391E+02  0.72245005161E+02  0.11632919274E+03  0.00000000000E+00 0.  1.
         14    1    4    4    0    0 -0.24810918353E+02  0.15237359974E+02  0.86983901689E+01  0.30387839673E+02  0.00000000000E+00 0. -1.
        -13    1    3    3    0    0  0.11799039197E+03 -0.21057984982E+02  0.12673250835E+03  0.17443136187E+03  0.00000000000E+00 0. -1.
         13    1    3    3    0    0  0.26952710079E+02  0.44474555065E+02  0.51832968489E+02  0.73424050905E+02  0.00000000000E+00 0.  1.
         -4    1    1    2    0  502 -0.77429522109E+02  0.41904266334E+02  0.20337298772E+03  0.22161198200E+03  0.00000000000E+00 0.  1.
<scales pt_clust_5="13000.00000" pt_clust_6="13000.00000" pt_clust_7="13000.00000" pt_clust_8="13000.00000" pt_clust_9="13000.00000"></scales>
<clustering>
<clus scale="   78.417">  5  6 -1 -1</clus>
<clus scale="   88.042">  5  9 -1 -1</clus>
<clus scale="   89.386">  7  8 -1 -1</clus>
<clus scale="  171.892">  1  7  2 -1</clus>
<clus scale="  234.159">  2  5  1 -1</clus>
</clustering>
</event>
<event>
 9    2  0.3726337E-005  0.1374866E+03  0.7546771E-02  0.1227295E+00
         -3   -1    0    0    0  501 -0.00000000000E+00  0.00000000000E+00  0.10418732420E+03  0.10418732420E+03  0.00000000000E+00 0.  1.
         21   -1    0    0  501  502  0.00000000000E+00 -0.00000000000E+00 -0.17770143121E+03  0.17770143121E+03  0.00000000000E+00 0. -1.
         23    2    1    2    0    0  0.85358590932E+01  0.28396468347E+02  0.24609277961E+02  0.11297824248E+03  0.10620379658E+03 0.  0.
         24    2    1    2    0    0  0.20060059604E+02 -0.38329748861E+02 -0.29097943307E+02  0.93538713007E+02  0.77660961153E+02 0.  0.
        -11    1    4    4    0    0 -0.13653629382E+02 -0.50857094847E+02 -0.13669936117E+02  0.54403426776E+02  0.00000000000E+00 0.  1.
         12    1    4    4    0    0  0.33713688986E+02  0.12527345985E+02 -0.15428007190E+02  0.39135286231E+02  0.00000000000E+00 0. -1.
        -13    1    3    3    0    0  0.46914487843E+02 -0.13738853569E+02 -0.42964689300E+01  0.49073260665E+02  0.00000000000E+00 0. -1.
         13    1    3    3    0    0 -0.38378628750E+02  0.42135321917E+02  0.28905746891E+02  0.63904981817E+02  0.00000000000E+00 0.  1.
         -4    1    1    2    0  502 -0.28595918697E+02  0.99332805140E+01 -0.69025441659E+02  0.75371799926E+02  0.00000000000E+00 0.  1.
<scales pt_clust_5="13000.00000" pt_clust_6="13000.00000" pt_clust_7="13000.00000" pt_clust_8="13000.00000" pt_clust_9="13000.00000"></scales>
<clustering>
<clus scale="   77.661">  5  6 -1 -1</clus>
<clus scale="   30.272">  5  9 -1 -1</clus>
<clus scale="  106.204">  7  8 -1 -1</clus>
<clus scale="  110.265">  1  7  2 -1</clus>
<clus scale="  137.487">  2  5  1 -1</clus>
</clustering>
</event>
<event>
 9    2  0.3726337E-005  0.3187975E+03  0.7546771E-02  0.1097197E+00
         21   -1    0    0  501  502  0.00000000000E+00  0.00000000000E+00  0.25583949309E+03  0.25583949309E+03  0.00000000000E+00 0.  1.
         -3   -1    0    0    0  501 -0.00000000000E+00 -0.00000000000E+00 -0.27100038669E+03  0.27100038669E+03  0.00000000000E+00 0.  1.
         23    2    1    2    0    0 -0.72734019384E+02  0.13739880904E+03  0.72413486307E+02  0.19623267124E+03  0.95367069586E+02 0.  0.
         24    2    1    2    0    0  0.69040039065E+02 -0.17912406071E+02  0.73553971600E+02  0.12997572636E+03  0.79975755194E+02 0.  0.
        -13    1    4    4    0    0  0.82550349440E+02 -0.24068530165E+02  0.43298153117E+02  0.96273487525E+02  0.00000000000E+00 0.  1.
         14    1    4    4    0    0 -0.13510310375E+02  0.61561240942E+01  0.30255818483E+02  0.33702238833E+02  0.00000000000E+00 0. -1.
        -13    1    3    3    0    0 -0.19205956674E+02  0.12304646969E+03  0.64511117221E+02  0.14025329486E+03  0.00000000000E+00 0. -1.
         13    1    3    3    0    0 -0.53528062710E+02  0.14352339349E+02  0.79023690852E+01  0.55979376376E+02  0.00000000000E+00 0.  1.
         -4    1    1    2    0  502  0.36939803195E+01 -0.11948640297E+03 -0.16112835151E+03  0.20063148218E+03  0.00000000000E+00 0.  1.
<scales pt_clust_5="13000.00000" pt_clust_6="13000.00000" pt_clust_7="13000.00000" pt_clust_8="13000.00000" pt_clust_9="13000.00000"></scales>
<clustering>
<clus scale="   79.976">  5  6 -1 -1</clus>
<clus scale="   95.367">  7  8 -1 -1</clus>
<clus scale="  119.544">  5  9 -1 -1</clus>
<clus scale="  182.383">  2  7  1 -1</clus>
<clus scale="  318.798">  1  5  2 -1</clus>
</clustering>
</event>
<event>
 9    2  0.3726337E-005  0.2048681E+03  0.7546771E-02  0.1172452E+00
          2   -1    0    0  502    0 -0.00000000000E+00  0.00000000000E+00  0.94521742478E+02  0.94521742478E+02  0.00000000000E+00 0. -1.
         21   -1    0    0  501  502  0.00000000000E+00 -0.00000000000E+00 -0.26232840239E+03  0.26232840239E+03  0.00000000000E+00 0. -1.
         23    2    1    2    0    0 -0.41912659161E+02 -0.21944738109E+02 -0.51262800077E+02  0.12115246298E+03  0.99054540960E+02 0.  0.
         24    2    1    2    0    0 -0.43178859640E+02 -0.27798481465E+02 -0.95865452261E+02  0.13498744902E+03  0.79964097965E+02 0.  0.
        -11    1    4    4    0    0 -0.32779147290E+02 -0.51377634716E+01  0.27269450451E+01  0.33291220161E+02  0.00000000000E+00 0.  1.
         12    1    4    4    0    0 -0.10399712350E+02 -0.22660717993E+02 -0.98592397306E+02  0.10169622886E+03  0.00000000000E+00 0. -1.
        -13    1    3    3    0    0  0.18090281841E+02 -0.39119655597E+02 -0.48456852352E+01  0.43371493132E+02  0.00000000000E+00 0. -1.
         13    1    3    3    0    0 -0.60002941001E+02  0.17174917488E+02 -0.46417114842E+02  0.77780969843E+02  0.00000000000E+00 0.  1.
          1    1    1    2  501    0  0.85091518800E+02  0.49743219574E+02 -0.20678407569E+02  0.10071023287E+03  0.00000000000E+00 0. -1.
<scales pt_clust_5="13000.00000" pt_clust_6="13000.00000" pt_clust_7="13000.00000" pt_clust_8="13000.00000" pt_clust_9="13000.00000"></scales>
<clustering>
<clus scale="   79.964">  5  6 -1 -1</clus>
<clus scale="   98.565">  5  9 -1 -1</clus>
<clus scale="   99.055">  7  8 -1 -1</clus>
<clus scale="  109.773">  1  7  2 -1</clus>
<clus scale="  204.868">  2  5  1 -1</clus>
</clustering>
</event>
<event>
 9    2  0.3726337E-005  0.1731194E+03  0.7546771E-02  0.1202054E+00
         -3   -1    0    0    0  501 -0.00000000000E+00  0.00000000000E+00  0.82419112851E+03  0.82419112851E+03  0.00000000000E+00 0.  1.
         21   -1    0    0  501  502  0.00000000000E+00 -0.00000000000E+00 -0.21934064502E+02  0.21934064502E+02  0.00000000000E+00 0. -1.
         23    2    1    2    0    0 -0.89170139888E+01 -0.31070249665E+02  0.24149120628E+03  0.25924472877E+03  0.88571740031E+02 0.  0.
         24    2    1    2    0    0  0.62443740945E+02 -0.32783735310E+01  0.29217106254E+03  0.31085854044E+03  0.85785394241E+02 0.  0.
        -13    1    4    4    0    0 -0.38422315006E+01 -0.32578698755E+02  0.11045719012E+03  0.11522554060E+03  0.00000000000E+00 0.  1.
         14    1    4    4    0    0  0.66285972445E+02  0.29300325224E+02  0.18171387241E+03  0.19563299984E+03  0.00000000000E+00 0. -1.
        -13    1    3    3    0    0  0.17318606810E+02 -0.39655498849E+02  0.22012326508E+03  0.22433623104E+03  0.00000000000E+00 0.  1.
         13    1    3    3    0    0 -0.26235620799E+02  0.85852491837E+01  0.21367941202E+02  0.34908497726E+02  0.00000000000E+00 0. -1.
         -4    1    1    2    0  502 -0.53526726956E+02  0.34348623196E+02  0.26859479519E+03  0.27602192380E+03  0.00000000000E+00 0.  1.
<scales pt_clust_5="13000.00000" pt_clust_6="13000.00000" pt_clust_7="13000.00000" pt_clust_8="13000.00000" pt_clust_9="13000.00000"></scales>
<clustering>
<clus scale="   85.785">  5  6 -1 -1</clus>
<clus scale="   63.600">  5  9 -1 -1</clus>
<clus scale="   88.572">  7  8 -1 -1</clus>
<clus scale="   94.286">  1  7  2 -1</clus>
<clus scale="  173.119">  2  5  1 -1</clus>
</clustering>
</event>
<event>
 9    2  0.3726337E-005  0.3238417E+03  0.7546771E-02  0.1105234E+00
         21   -1    0    0  501  502  0.00000000000E+00  0.00000000000E+00  0.15172308797E+03  0.15172308797E+03  0.00000000000E+00 0. -1.
          2   -1    0    0  502    0 -0.00000000000E+00 -0.00000000000E+00 -0.60205012677E+03  0.60205012677E+03  0.00000000000E+00 0. -1.
         23    2    1    2    0    0  0.98086878556E+02 -0.43422070742E+02 -0.40229239123E+03  0.42638843643E+03  0.91985970191E+02 0.  0.
         24    2    1    2    0    0  0.22622696456E+02  0.14326606637E+03 -0.40000954713E+02  0.17052762934E+03  0.80266081378E+02 0.  0.
        -13    1    4    4    0    0  0.12644955848E+02  0.55424802311E+02 -0.56998417158E+02  0.80502317843E+02  0.00000000000E+00 0.  1.
         14    1    4    4    0    0  0.99777406081E+01  0.87841264063E+02  0.16997462445E+02  0.90025311493E+02  0.00000000000E+00 0. -1.
        -13    1    3    3    0    0  0.14519485628E+02 -0.47192021016E+02 -0.85452836373E+02  0.98691892041E+02  0.00000000000E+00 0.  1.
         13    1    3    3    0    0  0.83567392928E+02  0.37699502743E+01 -0.31683955485E+03  0.32769654439E+03  0.00000000000E+00 0. -1.
          1    1    1    2  501    0 -0.12070957501E+03 -0.99843995632E+02 -0.80336928566E+01  0.15685714897E+03  0.00000000000E+00 0. -1.
<scales pt_clust_5="13000.00000" pt_clust_6="13000.00000" pt_clust_7="13000.00000" pt_clust_8="13000.00000" pt_clust_9="13000.00000"></scales>
<clustering>
<clus scale="   80.266">  5  6 -1 -1</clus>
<clus scale="   91.986">  7  8 -1 -1</clus>
<clus scale="  141.308">  2  7  1 -1</clus>
<clus scale="  142.011">  5  9 -1 -1</clus>
<clus scale="  323.842">  1  5  2 -1</clus>
</clustering>
</event>
<event>
 9    2  0.3726337E-005  0.1338255E+03  0.7546771E-02  0.1239412E+00
         21   -1    0    0  501  502  0.00000000000E+00  0.00000000000E+00  0.52645080208E+02  0.52645080208E+02  0.00000000000E+00 0. -1.
          2   -1    0    0  502    0 -0.00000000000E+00 -0.00000000000E+00 -0.28571897406E+03  0.28571897406E+03  0.00000000000E+00 0. -1.
         23    2    1    2    0    0 -0.24221460143E+02  0.14533788332E+02 -0.16181267184E+03  0.18674803228E+03  0.88845802703E+02 0.  0.
         24    2    1    2    0    0 -0.15264748781E+02 -0.33668928876E+02 -0.43210113525E+02  0.99537437270E+02  0.81694419518E+02 0.  0.
        -11    1    4    4    0    0 -0.10454716169E+02 -0.27521302279E+02 -0.67705055833E+02  0.73828840941E+02  0.00000000000E+00 0.  1.
         12    1    4    4    0    0 -0.48100326123E+01 -0.61476265976E+01  0.24494942308E+02  0.25708596329E+02  0.00000000000E+00 0. -1.
        -11    1    3    3    0    0  0.16119083102E+02  0.39004238239E+02 -0.50271890991E+02  0.65638544046E+02  0.00000000000E+00 0.  1.
         11    1    3    3    0    0 -0.40340543246E+02 -0.24470449907E+02 -0.11154078085E+03  0.12110948824E+03  0.00000000000E+00 0. -1.
          1    1    1    2  501    0  0.39486208925E+02  0.19135140545E+02 -0.28051108484E+02  0.52078584716E+02  0.00000000000E+00 0. -1.
<scales pt_clust_5="13000.00000" pt_clust_6="13000.00000" pt_clust_7="13000.00000" pt_clust_8="13000.00000" pt_clust_9="13000.00000"></scales>
<clustering>
<clus scale="   81.694">  5  6 -1 -1</clus>
<clus scale="   43.878">  5  9 -1 -1</clus>
<clus scale="   88.846">  7  8 -1 -1</clus>
<clus scale="   93.228">  2  7  1 -1</clus>
<clus scale="  133.825">  1  5  2 -1</clus>
</clustering>
</event>
<event>
 9    2  0.3726337E-005  0.2008377E+03  0.7546771E-02  0.1161863E+00
         21   -1    0    0  501  502  0.00000000000E+00  0.00000000000E+00  0.20411633967E+03  0.20411633967E+03  0.00000000000E+00 0.  1.
         -1   -1    0    0    0  501 -0.00000000000E+00 -0.00000000000E+00 -0.15507823743E+03  0.15507823743E+03  0.00000000000E+00 0.  1.
         23    2    1    2    0    0 -0.11330708099E+03  0.49707532182E+01  0.54444577563E+02  0.15828411413E+03  0.96054389638E+02 0.  0.
         24    2    1    2    0    0  0.14676941116E+00 -0.23790917118E+02  0.16045490397E+02  0.84207243127E+02  0.79166740203E+02 0.  0.
        -13    1    4    4    0    0  0.40372846656E+01 -0.19615614336E+02  0.47861990267E+02  0.51882965467E+02  0.00000000000E+00 0.  1.
         14    1    4    4    0    0 -0.38905152544E+01 -0.41753027814E+01 -0.31816499870E+02  0.32324277660E+02  0.00000000000E+00 0. -1.
        -13    1    3    3    0    0 -0.12701361488E+03 -0.10898466282E+02  0.44018611257E+02  0.13486613018E+03  0.00000000000E+00 0.  1.
         13    1    3    3    0    0  0.13706533889E+02  0.15869219500E+02  0.10425966305E+02  0.23417983948E+02  0.00000000000E+00 0. -1.
         -2    1    1    2    0  502  0.11316031158E+03  0.18820163899E+02 -0.21451965721E+02  0.11670321984E+03  0.00000000000E+00 0.  1.
<scales pt_clust_5="13000.00000" pt_clust_6="13000.00000" pt_clust_7="13000.00000" pt_clust_8="13000.00000" pt_clust_9="13000.00000"></scales>
<clustering>
<clus scale="   79.167">  5  6 -1 -1</clus>
<clus scale="   96.054">  7  8 -1 -1</clus>
<clus scale="  114.715">  5  9 -1 -1</clus>
<clus scale="  148.626">  2  7  1 -1</clus>
<clus scale="  200.838">  1  5  2 -1</clus>
</clustering>
</event>
<event>
 9    2  0.3726337E-005  0.4480741E+03  0.7546771E-02  0.1044130E+00
         21   -1    0    0  501  502  0.00000000000E+00  0.00000000000E+00  0.47865759751E+02  0.47865759751E+02  0.00000000000E+00 0.  1.
          2   -1    0    0  502    0 -0.00000000000E+00 -0.00000000000E+00 -0.28082498101E+04  0.28082498101E+04  0.00000000000E+00 0. -1.
         23    2    1    2    0    0  0.62795161232E+02 -0.25890892849E+03 -0.93322484139E+03  0.97481784419E+03  0.91565054721E+02 0.  0.
         24    2    1    2    0    0  0.41263191186E+02 -0.30360585223E+02 -0.15599625668E+03  0.18209479330E+03  0.78735414939E+02 0.  0.
        -13    1    4    4    0    0  0.52480591728E+02  0.52672636614E+01 -0.64844722886E+02  0.83587048403E+02  0.00000000000E+00 0.  1.
         14    1    4    4    0    0 -0.11217400542E+02 -0.35627848885E+02 -0.91151533792E+02  0.98507744892E+02  0.00000000000E+00 0. -1.
        -11    1    3    3    0    0 -0.16463778086E+02 -0.14499461597E+02 -0.11930901387E+03  0.12130923776E+03  0.00000000000E+00 0. -1.
         11    1    3    3    0    0  0.79258939318E+02 -0.24440946689E+03 -0.81391582752E+03  0.85350860643E+03  0.00000000000E+00 0.  1.
          1    1    1    2  501    0 -0.10405835242E+03  0.28926951371E+03 -0.16711629523E+04  0.16992029323E+04  0.00000000000E+00 0. -1.
<scales pt_clust_5="13000.00000" pt_clust_6="13000.00000" pt_clust_7="13000.00000" pt_clust_8="13000.00000" pt_clust_9="13000.00000"></scales>
<clustering>
<clus scale="   78.735">  5  6 -1 -1</clus>
<clus scale="   91.565">  7  8 -1 -1</clus>
<clus scale="  281.711">  2  7  1 -1</clus>
<clus scale="   71.555">  5  9 -1 -1</clus>
<clus scale="  448.074">  1  5  2 -1</clus>
</clustering>
</event>
<event>
 9    2  0.3726337E-005  0.2104612E+03  0.7546771E-02  0.1175819E+00
         21   -1    0    0  501  502  0.00000000000E+00  0.00000000000E+00  0.10363707296E+03  0.10363707296E+03  0.00000000000E+00 0.  1.
         -1   -1    0    0    0  501 -0.00000000000E+00 -0.00000000000E+00 -0.25923570955E+03  0.25923570955E+03  0.00000000000E+00 0.  1.
         23    2    1    2    0    0  0.69901051644E+01  0.17717241117E+02 -0.11522106361E+03  0.14857326950E+03  0.91844219791E+02 0.  0.
         24    2    1    2    0    0 -0.76869332692E+02  0.42273677084E+02 -0.23077355694E+02  0.12059084626E+03  0.79458352444E+02 0.  0.
        -11    1    4    4    0    0 -0.46839107533E+02  0.28847940755E+02  0.26525925642E+02  0.61071518824E+02  0.00000000000E+00 0.  1.
         12    1    4    4    0    0 -0.30030225160E+02  0.13425736330E+02 -0.49603281337E+02  0.59519327436E+02  0.00000000000E+00 0. -1.
        -13    1    3    3    0    0  0.39001415928E+02  0.65014382577E+01 -0.14203825408E+02  0.42013424045E+02  0.00000000000E+00 0. -1.
         13    1    3    3    0    0 -0.32011310763E+02  0.11215802859E+02 -0.10101723820E+03  0.10655984546E+03  0.00000000000E+00 0.  1.
         -2    1    1    2    0  502  0.69879227528E+02 -0.59990918201E+02 -0.17300217285E+02  0.93708666753E+02  0.00000000000E+00 0.  1.
<scales pt_clust_5="13000.00000" pt_clust_6="13000.00000" pt_clust_7="13000.00000" pt_clust_8="13000.00000" pt_clust_9="13000.00000"></scales>
<clustering>
<clus scale="   79.458">  5  6 -1 -1</clus>
<clus scale="   91.844">  7  8 -1 -1</clus>
<clus scale="   92.098">  5  9 -1 -1</clus>
<clus scale="   93.798">  2  7  1 -1</clus>
<clus scale="  210.461">  1  5  2 -1</clus>
</clustering>
</event>
<event>
 9    2  0.3726337E-005  0.1320864E+03  0.7546771E-02  0.1243904E+00
          4   -1    0    0  502    0 -0.00000000000E+00  0.00000000000E+00  0.85733397422E+02  0.85733397422E+02  0.00000000000E+00 0. -1.
         21   -1    0    0  501  502  0.00000000000E+00 -0.00000000000E+00 -0.14511863633E+03  0.14511863633E+03  0.00000000000E+00 0. -1.
         23    2    1    2    0    0  0.16053091025E+02  0.19427753075E+00 -0.40755500657E+02  0.97458297312E+02  0.87059573890E+02 0.  0.
         24    2    1    2    0    0  0.19196430000E+02 -0.19919691109E+02 -0.31874703915E+02  0.90884328207E+02  0.80490169247E+02 0.  0.
        -11    1    4    4    0    0 -0.92195003889E+01  0.27664125360E+02 -0.62395094757E+01  0.29820035175E+02  0.00000000000E+00 0.  1.
         12    1    4    4    0    0  0.28415930389E+02 -0.47583816468E+02 -0.25635194440E+02  0.61064293032E+02  0.00000000000E+00 0. -1.
        -11    1    3    3    0    0 -0.35261866001E+02  0.70037409319E+01 -0.23249768193E+02  0.42813587819E+02  0.00000000000E+00 0. -1.
         11    1    3    3    0    0  0.51314957026E+02 -0.68094634012E+01 -0.17505732465E+02  0.54644709493E+02  0.00000000000E+00 0.  1.
          3    1    1    2  501    0 -0.35249521025E+02  0.19725413578E+02  0.13244965661E+02  0.42509408237E+02  0.00000000000E+00 0. -1.
<scales pt_clust_5="13000.00000" pt_clust_6="13000.00000" pt_clust_7="13000.00000" pt_clust_8="13000.00000" pt_clust_9="13000.00000"></scales>
<clustering>
<clus scale="   80.490">  5  6 -1 -1</clus>
<clus scale="   40.393">  5  9 -1 -1</clus>
<clus scale="   87.060">  7  8 -1 -1</clus>
<clus scale="   88.527">  1  7  2 -1</clus>
<clus scale="  132.086">  2  5  1 -1</clus>
</clustering>
</event>
<event>
 9    2  0.3726337E-005  0.4057946E+03  0.7546771E-02  0.1085885E+00
         21   -1    0    0  501  502  0.00000000000E+00  0.00000000000E+00  0.11046998371E+03  0.11046998371E+03  0.00000000000E+00 0. -1.
          4   -1    0    0  502    0 -0.00000000000E+00 -0.00000000000E+00 -0.62363658124E+03  0.62363658124E+03  0.00000000000E+00 0. -1.
         23    2    1    2    0    0  0.45729323213E+02 -0.61113291179E+02 -0.11702060616E+03  0.16700790344E+03  0.91497607544E+02 0.  0.
         24    2    1    2    0    0  0.10558073878E+03  0.80991228323E+02 -0.13378534734E+02  0.15502974361E+03  0.78411509015E+02 0.  0.
        -11    1    4    4    0    0  0.78277062740E+02  0.73945703668E+02 -0.41316010541E+02  0.11533550351E+03  0.00000000000E+00 0.  1.
         12    1    4    4    0    0  0.27303676036E+02  0.70455246551E+01  0.27937475808E+02  0.39694240101E+02  0.00000000000E+00 0. -1.
        -11    1    3    3    0    0  0.73867531120E+02 -0.48138745958E+02 -0.86747606750E+02  0.12368871530E+03  0.00000000000E+00 0.  1.
         11    1    3    3    0    0 -0.28138207907E+02 -0.12974545221E+02 -0.30272999409E+02  0.43319188141E+02  0.00000000000E+00 0. -1.
          3    1    1    2  501    0 -0.15131006199E+03 -0.19877937145E+02 -0.38276745663E+03  0.41206891790E+03  0.00000000000E+00 0. -1.
<scales pt_clust_5="13000.00000" pt_clust_6="13000.00000" pt_clust_7="13000.00000" pt_clust_8="13000.00000" pt_clust_9="13000.00000"></scales>
<clustering>
<clus scale="   78.412">  5  6 -1 -1</clus>
<clus scale="   91.498">  7  8 -1 -1</clus>
<clus scale="  119.155">  2  7  1 -1</clus>
<clus scale="  133.576">  5  9 -1 -1</clus>
<clus scale="  405.795">  1  5  2 -1</clus>
</clustering>
</event>
<event>
 9    2  0.6279433E-005  0.6964758E+03  0.7546771E-02  0.9947412E-01
          2   -1    0    0  502    0 -0.00000000000E+00  0.00000000000E+00  0.76679785230E+03  0.76679785230E+03  0.00000000000E+00 0. -1.
         21   -1    0    0  501  502  0.00000000000E+00 -0.00000000000E+00 -0.35834678069E+03  0.35834678069E+03  0.00000000000E+00 0. -1.
         23    2    1    2    0    0 -0.16898139875E+03  0.27460825246E+03  0.41526484780E+02  0.33792663966E+03  0.92225589782E+02 0.  0.
         24    2    1    2    0    0 -0.69344621246E+02  0.14175613181E+03 -0.12908605339E+02  0.17530962914E+03  0.75255276061E+02 0.  0.
        -13    1    4    4    0    0 -0.45535276334E+02  0.18349649265E+02 -0.15996836443E+01  0.49119548112E+02  0.00000000000E+00 0.  1.
         14    1    4    4    0    0 -0.23809344912E+02  0.12340648254E+03 -0.11308921695E+02  0.12619008102E+03  0.00000000000E+00 0. -1.
        -11    1    3    3    0    0 -0.14824994733E+03  0.16576043952E+03  0.95004381907E+01  0.22258667642E+03  0.00000000000E+00 0. -1.
         11    1    3    3    0    0 -0.20731451414E+02  0.10884781294E+03  0.32026046589E+02  0.11533996324E+03  0.00000000000E+00 0.  1.
          1    1    1    2  501    0  0.23832601999E+03 -0.41636438427E+03  0.37983319217E+03  0.61190836419E+03  0.00000000000E+00 0. -1.
<scales pt_clust_5="13000.00000" pt_clust_6="13000.00000" pt_clust_7="13000.00000" pt_clust_8="13000.00000" pt_clust_9="13000.00000"></scales>
<clustering>
<clus scale="   75.255">  5  6 -1 -1</clus>
<clus scale="   92.226">  7  8 -1 -1</clus>
<clus scale="  335.366">  1  7  2 -1</clus>
<clus scale="  203.014">  5  9 -1 -1</clus>
<clus scale="  696.476">  2  5  1 -1</clus>
</clustering>
</event>
<event>
 9    2  0.3726337E-005  0.2136715E+03  0.7546771E-02  0.1148931E+00
         -3   -1    0    0    0  501 -0.00000000000E+00  0.00000000000E+00  0.13034484848E+03  0.13034484848E+03  0.00000000000E+00 0.  1.
         21   -1    0    0  501  502  0.00000000000E+00 -0.00000000000E+00 -0.27905998914E+03  0.27905998914E+03  0.00000000000E+00 0.  1.
         23    2    1    2    0    0 -0.98797242328E+02  0.10183301950E+03 -0.76495496023E+02  0.18385840573E+03  0.88439207904E+02 0.  0.
         24    2    1    2    0    0  0.60227256599E+02  0.31695650648E+01 -0.38013266122E+02  0.10857095199E+03  0.81885741341E+02 0.  0.
        -11    1    4    4    0    0  0.72509382625E+02 -0.82622143278E+01 -0.49548238196E+02  0.88209425021E+02  0.00000000000E+00 0.  1.
         12    1    4    4    0    0 -0.12282126026E+02  0.11431779393E+02  0.11534972074E+02  0.20361526970E+02  0.00000000000E+00 0. -1.
        -11    1    3    3    0    0 -0.66367878455E+02  0.72267837821E+02 -0.28870438057E+01  0.98161452189E+02  0.00000000000E+00 0.  1.
         11    1    3    3    0    0 -0.32429363872E+02  0.29565181682E+02 -0.73608452217E+02  0.85696953545E+02  0.00000000000E+00 0. -1.
         -4    1    1    2    0  502  0.38569985728E+02 -0.10500258457E+03 -0.34206378514E+02  0.11697547989E+03  0.00000000000E+00 0.  1.
<scales pt_clust_5="13000.00000" pt_clust_6="13000.00000" pt_clust_7="13000.00000" pt_clust_8="13000.00000" pt_clust_9="13000.00000"></scales>
<clustering>
<clus scale="   81.886">  5  6 -1 -1</clus>
<clus scale="   88.439">  7  8 -1 -1</clus>
<clus scale="  111.862">  5  9 -1 -1</clus>
<clus scale="  167.190">  1  7  2 -1</clus>
<clus scale="  213.672">  2  5  1 -1</clus>
</clustering>
</event>
<event>
 9    2  0.3726337E-005  0.7950460E+03  0.7546771E-02  0.9859526E-01
         21   -1    0    0  501  502  0.00000000000E+00  0.00000000000E+00  0.23228765795E+03  0.23228765795E+03  0.00000000000E+00 0.  1.
          2   -1    0    0  502    0 -0.00000000000E+00 -0.00000000000E+00 -0.13007438380E+04  0.13007438380E+04  0.00000000000E+00 0. -1.
         23    2    1    2    0    0  0.27310114222E+03 -0.80398938951E+02 -0.36113446490E+03  0.46888762252E+03  0.91592999470E+02 0.  0.
         24    2    1    2    0    0 -0.35745984181E+03 -0.22751728304E+03 -0.22666609349E+03  0.48711820970E+03  0.79780822838E+02 0.  0.
        -11    1    4    4    0    0 -0.18649562456E+03 -0.96539575993E+02 -0.15174736407E+03  0.25909027425E+03  0.00000000000E+00 0.  1.
         12    1    4    4    0    0 -0.17096421725E+03 -0.13097770704E+03 -0.74918729421E+02  0.22802793544E+03  0.00000000000E+00 0. -1.
        -11    1    3    3    0    0  0.18146761653E+02  0.17913037907E+02 -0.37108088411E+02  0.45024350201E+02  0.00000000000E+00 0. -1.
         11    1    3    3    0    0  0.25495438056E+03 -0.98311976858E+02 -0.32402637649E+03  0.42386327232E+03  0.00000000000E+00 0.  1.
          1    1    1    2  501    0  0.84358699593E+02  0.30791622199E+03 -0.48065562162E+03  0.57702566369E+03  0.00000000000E+00 0. -1.
<scales pt_clust_5="13000.00000" pt_clust_6="13000.00000" pt_clust_7="13000.00000" pt_clust_8="13000.00000" pt_clust_9="13000.00000"></scales>
<clustering>
<clus scale="   79.781">  5  6 -1 -1</clus>
<clus scale="   91.593">  7  8 -1 -1</clus>
<clus scale="  299.061">  2  7  1 -1</clus>
<clus scale="  358.846">  5  9 -1 -1</clus>
<clus scale="  795.046">  1  5  2 -1</clus>
</clustering>
</event>
<event>
 9    2  0.3726337E-005  0.2028369E+03  0.7546771E-02  0.1178519E+00
         -3   -1    0    0    0  501 -0.00000000000E+00  0.00000000000E+00  0.54064689680E+03  0.54064689680E+03  0.00000000000E+00 0.  1.
         21   -1    0    0  501  502  0.00000000000E+00 -0.00000000000E+00 -0.51452783950E+02  0.51452783950E+02  0.00000000000E+00 0. -1.
         23    2    1    2    0    0  0.11688982443E+02  0.12310016459E+02  0.29598699353E+03  0.31197148800E+03  0.97106849248E+02 0.  0.
         24    2    1    2    0    0 -0.59325795774E+02 -0.74086355668E+02  0.11288259224E+03  0.16815671548E+03  0.80782814947E+02 0.  0.
        -11    1    4    4    0    0  0.19779521159E+02 -0.21792789935E+02  0.32487805892E+02  0.43836202870E+02  0.00000000000E+00 0.  1.
         12    1    4    4    0    0 -0.79105316933E+02 -0.52293565734E+02  0.80394786346E+02  0.12432051261E+03  0.00000000000E+00 0. -1.
        -13    1    3    3    0    0  0.49218731474E+02  0.15612060048E+02  0.23235068890E+03  0.23801903827E+03  0.00000000000E+00 0.  1.
         13    1    3    3    0    0 -0.37529749031E+02 -0.33020435891E+01  0.63636304630E+02  0.73952449731E+02  0.00000000000E+00 0. -1.
         -4    1    1    2    0  502  0.47636813332E+02  0.61776339209E+02  0.80324527085E+02  0.11197147727E+03  0.00000000000E+00 0.  1.
<scales pt_clust_5="13000.00000" pt_clust_6="13000.00000" pt_clust_7="13000.00000" pt_clust_8="13000.00000" pt_clust_9="13000.00000"></scales>
<clustering>
<clus scale="   80.783">  5  6 -1 -1</clus>
<clus scale="   78.010">  5  9 -1 -1</clus>
<clus scale="   97.107">  7  8 -1 -1</clus>
<clus scale="   98.579">  1  7  2 -1</clus>
<clus scale="  202.837">  2  5  1 -1</clus>
</clustering>
</event>
<event>
 9    2  0.3726337E-005  0.3995847E+03  0.7546771E-02  0.1082914E+00
         21   -1    0    0  501  502  0.00000000000E+00  0.00000000000E+00  0.10091803578E+03  0.10091803578E+03  0.00000000000E+00 0.  1.
         -1   -1    0    0    0  501 -0.00000000000E+00 -0.00000000000E+00 -0.84203084414E+03  0.84203084414E+03  0.00000000000E+00 0.  1.
         23    2    1    2    0    0  0.59287405443E+02 -0.77988930491E+02 -0.38387884161E+03  0.40696000080E+03  0.93038741884E+02 0.  0.
         24    2    1    2    0    0  0.14031304199E+03 -0.29986251233E+02 -0.97601944771E+02  0.19115882630E+03  0.80178751751E+02 0.  0.
        -11    1    4    4    0    0  0.12692182369E+03  0.21033563609E+01 -0.61562573228E+02  0.14107984923E+03  0.00000000000E+00 0.  1.
         12    1    4    4    0    0  0.13391218309E+02 -0.32089607594E+02 -0.36039371543E+02  0.50078977072E+02  0.00000000000E+00 0. -1.
        -13    1    3    3    0    0  0.62601320187E+02 -0.43126390179E+02 -0.35026255384E+03  0.35841689056E+03  0.00000000000E+00 0.  1.
         13    1    3    3    0    0 -0.33139147440E+01 -0.34862540312E+02 -0.33616287773E+02  0.48543110238E+02  0.00000000000E+00 0. -1.
         -2    1    1    2    0  502 -0.19960044744E+03  0.10797518172E+03 -0.25963202198E+03  0.34483005281E+03  0.00000000000E+00 0.  1.
<scales pt_clust_5="13000.00000" pt_clust_6="13000.00000" pt_clust_7="13000.00000" pt_clust_8="13000.00000" pt_clust_9="13000.00000"></scales>
<clustering>
<clus scale="   80.179">  5  6 -1 -1</clus>
<clus scale="   93.039">  7  8 -1 -1</clus>
<clus scale="  135.105">  2  7  1 -1</clus>
<clus scale="  168.762">  5  9 -1 -1</clus>
<clus scale="  399.585">  1  5  2 -1</clus>
</clustering>
</event>
<event>
 9    2  0.3726337E-005  0.1540213E+03  0.7546771E-02  0.1213106E+00
         -3   -1    0    0    0  501 -0.00000000000E+00  0.00000000000E+00  0.14247156042E+03  0.14247156042E+03  0.00000000000E+00 0.  1.
         21   -1    0    0  501  502  0.00000000000E+00 -0.00000000000E+00 -0.12209930966E+03  0.12209930966E+03  0.00000000000E+00 0.  1.
         23    2    1    2    0    0 -0.21391679669E+01  0.39584592984E+02 -0.14561569912E+02  0.10663751418E+03  0.97918354102E+02 0.  0.
         24    2    1    2    0    0  0.35403647504E+02 -0.65078695916E+02  0.14791536051E+02  0.11143403857E+03  0.81915203069E+02 0.  0.
        -11    1    4    4    0    0  0.27510608889E+02 -0.84653927017E+02  0.15320649967E+02  0.90320779870E+02  0.00000000000E+00 0.  1.
         12    1    4    4    0    0  0.78930386149E+01  0.19575231102E+02 -0.52911391557E+00  0.21113258697E+02  0.00000000000E+00 0. -1.
        -11    1    3    3    0    0  0.33970717071E+02  0.55673387389E+02 -0.23461629211E+01  0.65261322099E+02  0.00000000000E+00 0.  1.
         11    1    3    3    0    0 -0.36109885038E+02 -0.16088794405E+02 -0.12215406991E+02  0.41376192077E+02  0.00000000000E+00 0. -1.
         -4    1    1    2    0  502 -0.33264479537E+02  0.25494102932E+02  0.20142284627E+02  0.46499317341E+02  0.00000000000E+00 0.  1.
<scales pt_clust_5="13000.00000" pt_clust_6="13000.00000" pt_clust_7="13000.00000" pt_clust_8="13000.00000" pt_clust_9="13000.00000"></scales>
<clustering>
<clus scale="   81.915">  5  6 -1 -1</clus>
<clus scale="   41.910">  5  9 -1 -1</clus>
<clus scale="   97.918">  7  8 -1 -1</clus>
<clus scale="  105.639">  1  7  2 -1</clus>
<clus scale="  154.021">  2  5  1 -1</clus>
</clustering>
</event>
<event>
 9    2  0.3726337E-005  0.4657172E+03  0.7546771E-02  0.1066900E+00
         21   -1    0    0  501  502  0.00000000000E+00  0.00000000000E+00  0.12594255302E+04  0.12594255302E+04  0.00000000000E+00 0. -1.
          2   -1    0    0  502    0 -0.00000000000E+00 -0.00000000000E+00 -0.11318975660E+03  0.11318975660E+03  0.00000000000E+00 0. -1.
         23    2    1    2    0    0 -0.73309740661E+02 -0.61127979776E+02 -0.36835985868E+01  0.13196743905E+03  0.91054313919E+02 0.  0.
         24    2    1    2    0    0 -0.18442344243E+03  0.48144561383E+02  0.46676844658E+03  0.51038067064E+03  0.79282667271E+02 0.  0.
        -11    1    4    4    0    0 -0.26419267851E+02  0.27049163545E+02  0.41115134115E+02  0.55857758776E+02  0.00000000000E+00 0.  1.
         12    1    4    4    0    0 -0.15800417458E+03  0.21095397838E+02  0.42565331246E+03  0.45452291186E+03  0.00000000000E+00 0. -1.
        -11    1    3    3    0    0  0.12824289382E+01 -0.22562416725E+02  0.33273720489E+02  0.40222478139E+02  0.00000000000E+00 0.  1.
         11    1    3    3    0    0 -0.74592169599E+02 -0.38565563051E+02 -0.36957319076E+02  0.91744960909E+02  0.00000000000E+00 0. -1.
          1    1    1    2  501    0  0.25773318309E+03  0.12983418393E+02  0.68315092559E+03  0.73026717710E+03  0.00000000000E+00 0. -1.
<scales pt_clust_5="13000.00000" pt_clust_6="13000.00000" pt_clust_7="13000.00000" pt_clust_8="13000.00000" pt_clust_9="13000.00000"></scales>
<clustering>
<clus scale="   79.283">  5  6 -1 -1</clus>
<clus scale="   91.054">  7  8 -1 -1</clus>
<clus scale="  131.916">  2  7  1 -1</clus>
<clus scale="  220.462">  5  9 -1 -1</clus>
<clus scale="  465.717">  1  5  2 -1</clus>
</clustering>
</event>
<event>
 9    2  0.3726337E-005  0.6772744E+03  0.7546771E-02  0.1022613E+00
         21   -1    0    0  501  502  0.00000000000E+00  0.00000000000E+00  0.61521079131E+02  0.61521079131E+02  0.00000000000E+00 0.  1.
         -1   -1    0    0    0  501 -0.00000000000E+00 -0.00000000000E+00 -0.28671214760E+04  0.28671214760E+04  0.00000000000E+00 0.  1.
         23    2    1    2    0    0  0.80102283261E+02  0.97198040501E+02 -0.70387069959E+03  0.72048306149E+03  0.88306541657E+02 0.  0.
         24    2    1    2    0    0  0.58842431364E+02  0.21379375708E+03 -0.33955680721E+03  0.41336846781E+03  0.80027886162E+02 0.  0.
        -13    1    4    4    0    0  0.55176653989E+02  0.21594306863E+03 -0.30077602286E+03  0.37435556355E+03  0.00000000000E+00 0.  1.
         14    1    4    4    0    0  0.36657773753E+01 -0.21493115526E+01 -0.38780784350E+02  0.39012904259E+02  0.00000000000E+00 0. -1.
        -11    1    3    3    0    0  0.87582563161E+02  0.55614642750E+02 -0.58945346024E+03  0.59851405635E+03  0.00000000000E+00 0.  1.
         11    1    3    3    0    0 -0.74802798998E+01  0.41583397751E+02 -0.11441723934E+03  0.12196900514E+03  0.00000000000E+00 0. -1.
         -2    1    1    2    0  502 -0.13894471463E+03 -0.31099179758E+03 -0.17621728901E+04  0.17947910259E+04  0.00000000000E+00 0.  1.
<scales pt_clust_5="13000.00000" pt_clust_6="13000.00000" pt_clust_7="13000.00000" pt_clust_8="13000.00000" pt_clust_9="13000.00000"></scales>
<clustering>
<clus scale="   80.028">  5  6 -1 -1</clus>
<clus scale="   88.307">  7  8 -1 -1</clus>
<clus scale="  153.824">  2  7  1 -1</clus>
<clus scale="  241.995">  5  9 -1 -1</clus>
<clus scale="  677.274">  1  5  2 -1</clus>
</clustering>
</event>
<event>
 9    2  0.3726337E-005  0.3553776E+03  0.7546771E-02  0.1074067E+00
          2   -1    0    0  502    0 -0.00000000000E+00  0.00000000000E+00  0.11121410032E+04  0.11121410032E+04  0.00000000000E+00 0. -1.
         21   -1    0    0  501  502  0.00000000000E+00 -0.00000000000E+00 -0.83948048295E+02  0.83948048295E+02  0.00000000000E+00 0. -1.
         23    2    1    2    0    0  0.22487906620E+03 -0.23907931255E+02  0.53723586691E+03  0.59000978338E+03  0.91361831136E+02 0.  0.
         24    2    1    2    0    0 -0.18048781510E+01 -0.54016786036E+02  0.24796776247E+03  0.26714244914E+03  0.83402674701E+02 0.  0.
        -11    1    4    4    0    0  0.31885402487E+02 -0.40525185148E+02  0.20252567814E+03  0.20898712838E+03  0.00000000000E+00 0.  1.
         12    1    4    4    0    0 -0.33690280638E+02 -0.13491600888E+02  0.45442084337E+02  0.58155320761E+02  0.00000000000E+00 0. -1.
        -13    1    3    3    0    0  0.20014500329E+03  0.11248425394E+02  0.45552018355E+03  0.49767779440E+03  0.00000000000E+00 0. -1.
         13    1    3    3    0    0  0.24734062910E+02 -0.35156356650E+02  0.81715683366E+02  0.92331988980E+02  0.00000000000E+00 0.  1.
          1    1    1    2  501    0 -0.22307418805E+03  0.77924717291E+02  0.24298932549E+03  0.33893681895E+03  0.00000000000E+00 0. -1.
<scales pt_clust_5="13000.00000" pt_clust_6="13000.00000" pt_clust_7="13000.00000" pt_clust_8="13000.00000" pt_clust_9="13000.00000"></scales>
<clustering>
<clus scale="   83.403">  5  6 -1 -1</clus>
<clus scale="   91.362">  7  8 -1 -1</clus>
<clus scale="  236.293">  5  9 -1 -1</clus>
<clus scale="  243.904">  1  7  2 -1</clus>
<clus scale="  355.378">  2  5  1 -1</clus>
</clustering>
</event>
<event>
 9    2  0.3726337E-005  0.5830003E+03  0.7546771E-02  0.1031576E+00
         -3   -1    0    0    0  501 -0.00000000000E+00  0.00000000000E+00  0.75413339506E+03  0.75413339506E+03  0.00000000000E+00 0.  1.
         21   -1    0    0  501  502  0.00000000000E+00 -0.00000000000E+00 -0.33729138087E+03  0.33729138087E+03  0.00000000000E+00 0.  1.
         23    2    1    2    0    0 -0.25296003843E+02  0.15813276230E+03  0.47104273937E+03  0.50591040457E+03  0.91750840924E+02 0.  0.
         24    2    1    2    0    0 -0.14024048045E+03 -0.10670768358E+03  0.19890700938E+03  0.27874020091E+03  0.84131915060E+02 0.  0.
        -11    1    4    4    0    0 -0.11074561543E+03 -0.32781952300E+02  0.11173894392E+03  0.16070108687E+03  0.00000000000E+00 0.  1.
         12    1    4    4    0    0 -0.29494865026E+02 -0.73925731276E+02  0.87168065464E+02  0.11803911404E+03  0.00000000000E+00 0. -1.
        -11    1    3    3    0    0  0.77432038731E+01  0.43055172484E+02  0.42628680406E+02  0.61081171215E+02  0.00000000000E+00 0. -1.
         11    1    3    3    0    0 -0.33039207717E+02  0.11507758982E+03  0.42841405896E+03  0.44482923335E+03  0.00000000000E+00 0.  1.
         -4    1    1    2    0  502  0.16553648430E+03 -0.51425078724E+02 -0.25310773456E+03  0.30677417044E+03  0.00000000000E+00 0.  1.
<scales pt_clust_5="13000.00000" pt_clust_6="13000.00000" pt_clust_7="13000.00000" pt_clust_8="13000.00000" pt_clust_9="13000.00000"></scales>
<clustering>
<clus scale="   84.132">  5  6 -1 -1</clus>
<clus scale="   91.751">  7  8 -1 -1</clus>
<clus scale="  173.340">  5  9 -1 -1</clus>
<clus scale="  184.565">  1  7  2 -1</clus>
<clus scale="  583.000">  2  5  1 -1</clus>
</clustering>
</event>
<event>
 9    2  0.3726337E-005  0.1360888E+03  0.7546771E-02  0.1235264E+00
         -1   -1    0    0    0  501 -0.00000000000E+00  0.00000000000E+00  0.29709855625E+02  0.29709855625E+02  0.00000000000E+00 0.  1.
         21   -1    0    0  501  502  0.00000000000E+00 -0.00000000000E+00 -0.67933250946E+03  0.67933250946E+03  0.00000000000E+00 0.  1.
         23    2    1    2    0    0 -0.55252678120E+01  0.28611849661E+02 -0.86077041979E+02  0.12929776079E+03  0.91975470990E+02 0.  0.
         24    2    1    2    0    0 -0.30314965580E+02 -0.43550416907E+02 -0.35759140581E+03  0.37016211908E+03  0.79578545738E+02 0.  0.
        -11    1    4    4    0    0 -0.47347180072E+02 -0.36039953923E+02 -0.14467644840E+03  0.15643499755E+03  0.00000000000E+00 0.  1.
         12    1    4    4    0    0  0.17032214492E+02 -0.75104629835E+01 -0.21291495741E+03  0.21372712152E+03  0.00000000000E+00 0. -1.
        -11    1    3    3    0    0 -0.16309390438E+02 -0.31466914637E+02 -0.31650513600E+02  0.47517554066E+02  0.00000000000E+00 0.  1.
         11    1    3    3    0    0  0.10784122626E+02  0.60078764298E+02 -0.54426528379E+02  0.81780206723E+02  0.00000000000E+00 0. -1.
         -2    1    1    2    0  502  0.35840233392E+02  0.14938567246E+02 -0.20595420605E+03  0.20958248522E+03  0.00000000000E+00 0.  1.
<scales pt_clust_5="13000.00000" pt_clust_6="13000.00000" pt_clust_7="13000.00000" pt_clust_8="13000.00000" pt_clust_9="13000.00000"></scales>
<clustering>
<clus scale="   79.579">  5  6 -1 -1</clus>
<clus scale="   38.829">  5  9 -1 -1</clus>
<clus scale="   91.975">  7  8 -1 -1</clus>
<clus scale="   96.481">  1  7  2 -1</clus>
<clus scale="  136.089">  2  5  1 -1</clus>
</clustering>
</event>
<event>
 9    2  0.3726337E-005  0.3701493E+03  0.7546771E-02  0.1095808E+00
         21   -1    0    0  501  502  0.00000000000E+00  0.00000000000E+00  0.49480757616E+03  0.49480757616E+03  0.00000000000E+00 0.  1.
         -3   -1    0    0    0  501 -0.00000000000E+00 -0.00000000000E+00 -0.19014116411E+03  0.19014116411E+03  0.00000000000E+00 0.  1.
         23    2    1    2    0    0  0.50044728812E+02 -0.61539550276E+02  0.29039179855E+03  0.31452432673E+03  0.91140355011E+02 0.  0.
         24    2    1    2    0    0 -0.96783772713E+02 -0.80997560047E+02 -0.10122271988E+03  0.18110721922E+03  0.81400752077E+02 0.  0.
        -11    1    4    4    0    0 -0.10054791418E+03 -0.59839364184E+02 -0.10731750007E+03  0.15876926142E+03  0.00000000000E+00 0.  1.
         12    1    4    4    0    0  0.37641414623E+01 -0.21158195864E+02  0.60947801852E+01  0.22337957800E+02  0.00000000000E+00 0. -1.
        -13    1    3    3    0    0  0.59597841445E+02 -0.10471912512E+02  0.21209944403E+03  0.22056232183E+03  0.00000000000E+00 0. -1.
         13    1    3    3    0    0 -0.95531126334E+01 -0.51067637764E+02  0.78292354527E+02  0.93962004901E+02  0.00000000000E+00 0.  1.
         -4    1    1    2    0  502  0.46739043901E+02  0.14253711032E+03  0.11549733339E+03  0.18931719432E+03  0.00000000000E+00 0.  1.
<scales pt_clust_5="13000.00000" pt_clust_6="13000.00000" pt_clust_7="13000.00000" pt_clust_8="13000.00000" pt_clust_9="13000.00000"></scales>
<clustering>
<clus scale="   81.401">  5  6 -1 -1</clus>
<clus scale="   91.140">  7  8 -1 -1</clus>
<clus scale="  120.823">  2  7  1 -1</clus>
<clus scale="  141.792">  5  9 -1 -1</clus>
<clus scale="  370.149">  1  5  2 -1</clus>
</clustering>
</event>
<event>
 9    2  0.3726337E-005  0.6555107E+03  0.7546771E-02  0.1010927E+00
          2   -1    0    0  502    0 -0.00000000000E+00  0.00000000000E+00  0.69433243098E+03  0.69433243098E+03  0.00000000000E+00 0. -1.
         21   -1    0    0  501  502  0.00000000000E+00 -0.00000000000E+00 -0.29021814864E+03  0.29021814864E+03  0.00000000000E+00 0. -1.
         23    2    1    2    0    0 -0.28401012320E+02 -0.22335958712E+03  0.11415012351E+03  0.26777059300E+03  0.89301271648E+02 0.  0.
         24    2    1    2    0    0  0.31328093848E+01 -0.17986003834E+03 -0.31853090609E+02  0.20026194196E+03  0.82041319648E+02 0.  0.
        -13    1    4    4    0    0  0.35480711599E+02 -0.11369937108E+03 -0.41188320336E+02  0.12602740024E+03  0.00000000000E+00 0.  1.
         14    1    4    4    0    0 -0.32347902214E+02 -0.66160667258E+02  0.93352297266E+01  0.74234541716E+02  0.00000000000E+00 0. -1.
        -13    1    3    3    0    0  0.24240091548E+02 -0.40059125228E+02  0.44915963823E+02  0.64882658380E+02  0.00000000000E+00 0.  1.
         13    1    3    3    0    0 -0.52641103868E+02 -0.18330046189E+03  0.69234159690E+02  0.20288793462E+03  0.00000000000E+00 0. -1.
          1    1    1    2  501    0  0.25268202935E+02  0.40321962546E+03  0.32181724943E+03  0.51651804467E+03  0.00000000000E+00 0. -1.
<scales pt_clust_5="13000.00000" pt_clust_6="13000.00000" pt_clust_7="13000.00000" pt_clust_8="13000.00000" pt_clust_9="13000.00000"></scales>
<clustering>
<clus scale="   82.041">  5  6 -1 -1</clus>
<clus scale="   89.301">  7  8 -1 -1</clus>
<clus scale="  242.221">  1  7  2 -1</clus>
<clus scale="  217.230">  5  9 -1 -1</clus>
<clus scale="  655.511">  2  5  1 -1</clus>
</clustering>
</event>
<event>
 9    2  0.3726337E-005  0.1400553E+03  0.7546771E-02  0.1227959E+00
         21   -1    0    0  501  502  0.00000000000E+00  0.00000000000E+00  0.75912680236E+03  0.75912680236E+03  0.00000000000E+00 0.  1.
         -3   -1    0    0    0  501 -0.00000000000E+00 -0.00000000000E+00 -0.26325807221E+02  0.26325807221E+02  0.00000000000E+00 0.  1.
         23    2    1    2    0    0 -0.38549790139E+02  0.29478925387E+02  0.52416689869E+03  0.53416855495E+03  0.90719424852E+02 0.  0.
         24    2    1    2    0    0 -0.10020801363E+02 -0.28925700387E+02  0.10226999424E+03  0.13435360242E+03  0.81575892020E+02 0.  0.
        -13    1    4    4    0    0 -0.35960045339E+02 -0.36576065645E+02  0.35681319242E+02  0.62482717464E+02  0.00000000000E+00 0.  1.
         14    1    4    4    0    0  0.25939243976E+02  0.76503652586E+01  0.66588674993E+02  0.71870884954E+02  0.00000000000E+00 0. -1.
        -13    1    3    3    0    0 -0.57326492757E+02  0.48648878162E+02  0.41470165396E+03  0.42146233748E+03  0.00000000000E+00 0.  1.
         13    1    3    3    0    0  0.18776702618E+02 -0.19169952775E+02  0.10946524473E+03  0.11270621746E+03  0.00000000000E+00 0. -1.
         -4    1    1    2    0  502  0.48570591503E+02 -0.55322500014E+00  0.10636410221E+03  0.11693045222E+03  0.00000000000E+00 0.  1.
<scales pt_clust_5="13000.00000" pt_clust_6="13000.00000" pt_clust_7="13000.00000" pt_clust_8="13000.00000" pt_clust_9="13000.00000"></scales>
<clustering>
<clus scale="   81.576">  5  6 -1 -1</clus>
<clus scale="   48.574">  5  9 -1 -1</clus>
<clus scale="   90.719">  7  8 -1 -1</clus>
<clus scale="  102.884">  2  7  1 -1</clus>
<clus scale="  140.055">  1  5  2 -1</clus>
</clustering>
</event>
<event>
 9    2  0.3726337E-005  0.2636121E+03  0.7546771E-02  0.1140385E+00
         21   -1    0    0  501  502  0.00000000000E+00  0.00000000000E+00  0.33967357774E+02  0.33967357774E+02  0.00000000000E+00 0.  1.
          2   -1    0    0  502    0 -0.00000000000E+00 -0.00000000000E+00 -0.11252018761E+04  0.11252018761E+04  0.00000000000E+00 0. -1.
         23    2    1    2    0    0  0.35336055985E+01  0.57030039042E+02 -0.17978669253E+03  0.21036552930E+03  0.93088610390E+02 0.  0.
         24    2    1    2    0    0 -0.82748846870E+01  0.80584402392E+02 -0.28054610508E+03  0.30305050449E+03  0.81062763154E+02 0.  0.
        -13    1    4    4    0    0 -0.82749226424E+01  0.95696276895E+02 -0.26244609752E+03  0.27947129703E+03  0.00000000000E+00 0.  1.
         14    1    4    4    0    0  0.37955407752E-04 -0.15111874503E+02 -0.18100007552E+02  0.23579207459E+02  0.00000000000E+00 0. -1.
        -11    1    3    3    0    0 -0.14667947419E+02 -0.13724164065E+02 -0.10075970060E+03  0.10274248696E+03  0.00000000000E+00 0. -1.
         11    1    3    3    0    0  0.18201553017E+02  0.70754203107E+02 -0.79026991929E+02  0.10762304234E+03  0.00000000000E+00 0.  1.
          1    1    1    2  501    0  0.47412790884E+01 -0.13761444143E+03 -0.63090172070E+03  0.64575320007E+03  0.00000000000E+00 0. -1.
<scales pt_clust_5="13000.00000" pt_clust_6="13000.00000" pt_clust_7="13000.00000" pt_clust_8="13000.00000" pt_clust_9="13000.00000"></scales>
<clustering>
<clus scale="   81.063">  5  6 -1 -1</clus>
<clus scale="   93.089">  7  8 -1 -1</clus>
<clus scale="  109.226">  2  7  1 -1</clus>
<clus scale="   98.736">  5  9 -1 -1</clus>
<clus scale="  263.612">  1  5  2 -1</clus>
</clustering>
</event>
<event>
 9    2  0.3726337E-005  0.2622486E+03  0.7546771E-02  0.1145833E+00
          2   -1    0    0  502    0 -0.00000000000E+00  0.00000000000E+00  0.56595152794E+03  0.56595152794E+03  0.00000000000E+00 0. -1.
         21   -1    0    0  501  502  0.00000000000E+00 -0.00000000000E+00 -0.57810380761E+02  0.57810380761E+02  0.00000000000E+00 0. -1.
         23    2    1    2    0    0  0.62724098713E+01  0.27668526245E+02  0.10863239769E+03  0.14586908779E+03  0.93123050185E+02 0.  0.
         24    2    1    2    0    0  0.92485831157E+02 -0.84729632701E+02  0.23549183252E+03  0.27811617289E+03  0.78482245230E+02 0.  0.
        -13    1    4    4    0    0  0.53920526438E+02 -0.26924089400E+02  0.17800217921E+03  0.18792845864E+03  0.00000000000E+00 0.  1.
         14    1    4    4    0    0  0.38565304719E+02 -0.57805543301E+02  0.57489653305E+02  0.90187714249E+02  0.00000000000E+00 0. -1.
        -11    1    3    3    0    0 -0.30176978753E+02  0.24042504288E+01  0.94641901317E+02  0.99365587361E+02  0.00000000000E+00 0.  1.
         11    1    3    3    0    0  0.36449388624E+02  0.25264275816E+02  0.13990496370E+02  0.46503500430E+02  0.00000000000E+00 0. -1.
          1    1    1    2  501    0 -0.98758241028E+02  0.57061106457E+02  0.16401691697E+03  0.19977664802E+03  0.00000000000E+00 0. -1.
<scales pt_clust_5="13000.00000" pt_clust_6="13000.00000" pt_clust_7="13000.00000" pt_clust_8="13000.00000" pt_clust_9="13000.00000"></scales>
<clustering>
<clus scale="   78.482">  5  6 -1 -1</clus>
<clus scale="   93.123">  7  8 -1 -1</clus>
<clus scale="   97.349">  1  7  2 -1</clus>
<clus scale="  118.081">  5  9 -1 -1</clus>
<clus scale="  262.249">  2  5  1 -1</clus>
</clustering>
</event>
<event>
 9    2  0.3726337E-005  0.2158330E+03  0.7546771E-02  0.1162809E+00
         -3   -1    0    0    0  501 -0.00000000000E+00  0.00000000000E+00  0.34001925358E+03  0.34001925358E+03  0.00000000000E+00 0.  1.
         21   -1    0    0  501  502  0.00000000000E+00 -0.00000000000E+00 -0.81524509367E+02  0.81524509367E+02  0.00000000000E+00 0.  1.
         23    2    1    2    0    0 -0.52160073217E+02  0.53095700824E+02  0.91265199257E+02  0.14850603241E+03  0.90470317689E+02 0.  0.
         24    2    1    2    0    0 -0.13528880541E+02  0.11408299452E+02  0.15865384159E+03  0.18057504950E+03  0.84398620514E+02 0.  0.
        -13    1    4    4    0    0  0.16486047834E+02  0.16427171831E+02  0.48290036524E+01  0.23768908764E+02  0.00000000000E+00 0.  1.
         14    1    4    4    0    0 -0.30014928375E+02 -0.50188723794E+01  0.15382483793E+03  0.15680614073E+03  0.00000000000E+00 0. -1.
        -11    1    3    3    0    0 -0.31216279306E+01  0.64231563603E+02  0.66296022229E+02  0.92361252088E+02  0.00000000000E+00 0. -1.
         11    1    3    3    0    0 -0.49038445286E+02 -0.11135862780E+02  0.24969177028E+02  0.56144780322E+02  0.00000000000E+00 0.  1.
         -4    1    1    2    0  502  0.65688953758E+02 -0.64504000275E+02  0.85757033690E+01  0.92462681043E+02  0.00000000000E+00 0.  1.
<scales pt_clust_5="13000.00000" pt_clust_6="13000.00000" pt_clust_7="13000.00000" pt_clust_8="13000.00000" pt_clust_9="13000.00000"></scales>
<clustering>
<clus scale="   84.399">  5  6 -1 -1</clus>
<clus scale="   90.470">  7  8 -1 -1</clus>
<clus scale="   92.064">  5  9 -1 -1</clus>
<clus scale="  117.152">  1  7  2 -1</clus>
<clus scale="  215.833">  2  5  1 -1</clus>
</clustering>
</event>
<event>
 9    2  0.3726337E-005  0.4644574E+03  0.7546771E-02  0.1067270E+00
         -1   -1    0    0    0  501 -0.00000000000E+00  0.00000000000E+00  0.83209002879E+02  0.83209002879E+02  0.00000000000E+00 0.  1.
         21   -1    0    0  501  502  0.00000000000E+00 -0.00000000000E+00 -0.10864331419E+04  0.10864331419E+04  0.00000000000E+00 0.  1.
         23    2    1    2    0    0  0.90711185425E+01  0.93032604320E+02 -0.29054591085E+03  0.31897712866E+03  0.92693751878E+02 0.  0.
         24    2    1    2    0    0 -0.80433604536E+02  0.42060134428E+02  0.54193791882E+00  0.12126412649E+03  0.80411908515E+02 0.  0.
        -13    1    4    4    0    0 -0.50993393728E+02  0.65343521722E+02 -0.62446262611E+01  0.83120980457E+02  0.00000000000E+00 0.  1.
         14    1    4    4    0    0 -0.29440210808E+02 -0.23283387294E+02  0.67865641799E+01  0.38143146038E+02  0.00000000000E+00 0. -1.
        -13    1    3    3    0    0  0.36726614470E+02  0.20610767817E+02 -0.45674046078E+02  0.62127018644E+02  0.00000000000E+00 0. -1.
         13    1    3    3    0    0 -0.27655495927E+02  0.72421836503E+02 -0.24487186478E+03  0.25685011002E+03  0.00000000000E+00 0.  1.
         -2    1    1    2    0  502  0.71362485993E+02 -0.13509273875E+03 -0.71322016609E+03  0.72940088963E+03  0.00000000000E+00 0.  1.
<scales pt_clust_5="13000.00000" pt_clust_6="13000.00000" pt_clust_7="13000.00000" pt_clust_8="13000.00000" pt_clust_9="13000.00000"></scales>
<clustering>
<clus scale="   80.412">  5  6 -1 -1</clus>
<clus scale="   92.694">  7  8 -1 -1</clus>
<clus scale="  131.642">  1  7  2 -1</clus>
<clus scale="  143.761">  5  9 -1 -1</clus>
<clus scale="  464.457">  2  5  1 -1</clus>
</clustering>
</event>
<event>
 9    2  0.3726337E-005  0.3875603E+03  0.7546771E-02  0.1093078E+00
         21   -1    0    0  501  502  0.00000000000E+00  0.00000000000E+00  0.31186789913E+03  0.31186789913E+03  0.00000000000E+00 0. -1.
          4   -1    0    0  502    0 -0.00000000000E+00 -0.00000000000E+00 -0.22044595644E+03  0.22044595644E+03  0.00000000000E+00 0. -1.
         23    2    1    2    0    0  0.60930298715E+02  0.33754703508E+02 -0.44639675029E+02  0.12156365303E+03  0.89068175246E+02 0.  0.
         24    2    1    2    0    0 -0.14387536950E+01  0.14883216411E+03 -0.10388378654E+02  0.16924490323E+03  0.79892651549E+02 0.  0.
        -13    1    4    4    0    0  0.44635175043E+01  0.44727712793E+02 -0.40719694984E+02  0.60651338318E+02  0.00000000000E+00 0.  1.
         14    1    4    4    0    0 -0.59022711993E+01  0.10410445132E+03  0.30331316330E+02  0.10859356491E+03  0.00000000000E+00 0. -1.
        -11    1    3    3    0    0  0.20947724886E+02 -0.18813620152E+02  0.15585556746E+02  0.32181812569E+02  0.00000000000E+00 0.  1.
         11    1    3    3    0    0  0.39982573828E+02  0.52568323660E+02 -0.60225231775E+02  0.89381840464E+02  0.00000000000E+00 0. -1.
          3    1    1    2  501    0 -0.59491545020E+02 -0.18258686762E+03  0.14644999638E+03  0.24150529931E+03  0.00000000000E+00 0. -1.
<scales pt_clust_5="13000.00000" pt_clust_6="13000.00000" pt_clust_7="13000.00000" pt_clust_8="13000.00000" pt_clust_9="13000.00000"></scales>
<clustering>
<clus scale="   79.893">  5  6 -1 -1</clus>
<clus scale="   89.068">  7  8 -1 -1</clus>
<clus scale="  113.071">  2  7  1 -1</clus>
<clus scale="  175.169">  5  9 -1 -1</clus>
<clus scale="  387.560">  1  5  2 -1</clus>
</clustering>
</event>
<event>
 9    2  0.3726337E-005  0.2933495E+03  0.7546771E-02  0.1117014E+00
         21   -1    0    0  501  502  0.00000000000E+00  0.00000000000E+00  0.52660651005E+02  0.52660651005E+02  0.00000000000E+00 0. -1.
          2   -1    0    0  502    0 -0.00000000000E+00 -0.00000000000E+00 -0.98353586515E+03  0.98353586515E+03  0.00000000000E+00 0. -1.
         23    2    1    2    0    0 -0.85279897804E+01 -0.10584076241E+03 -0.46294539281E+03  0.48391735513E+03  0.92642194845E+02 0.  0.
         24    2    1    2    0    0  0.98733522237E+02 -0.27097389529E+02 -0.18672442807E+03  0.22841798162E+03  0.82620732010E+02 0.  0.
        -11    1    4    4    0    0  0.57337579939E+02 -0.21850406227E+02 -0.17444452855E+03  0.18492142078E+03  0.00000000000E+00 0.  1.
         12    1    4    4    0    0  0.41395942297E+02 -0.52469833019E+01 -0.12279899526E+02  0.43496560839E+02  0.00000000000E+00 0. -1.
        -13    1    3    3    0    0 -0.46886486915E+02 -0.31136650050E+02 -0.20907281780E+03  0.21651622751E+03  0.00000000000E+00 0.  1.
         13    1    3    3    0    0  0.38358497135E+02 -0.74704112364E+02 -0.25387257501E+03  0.26740112761E+03  0.00000000000E+00 0. -1.
          1    1    1    2  501    0 -0.90205532456E+02  0.13293815194E+03 -0.28120539326E+03  0.32386117940E+03  0.00000000000E+00 0. -1.
<scales pt_clust_5="13000.00000" pt_clust_6="13000.00000" pt_clust_7="13000.00000" pt_clust_8="13000.00000" pt_clust_9="13000.00000"></scales>
<clustering>
<clus scale="   82.621">  5  6 -1 -1</clus>
<clus scale="   92.642">  7  8 -1 -1</clus>
<clus scale="  140.917">  2  7  1 -1</clus>
<clus scale="  118.315">  5  9 -1 -1</clus>
<clus scale="  293.350">  1  5  2 -1</clus>
</clustering>
</event>
<event>
 9    2  0.3726337E-005  0.2787356E+03  0.7546771E-02  0.1129943E+00
         21   -1    0    0  501  502  0.00000000000E+00  0.00000000000E+00  0.99327491644E+02  0.99327491644E+02  0.00000000000E+00 0. -1.
          2   -1    0    0  502    0 -0.00000000000E+00 -0.00000000000E+00 -0.46151895875E+03  0.46151895875E+03  0.00000000000E+00 0. -1.
         23    2    1    2    0    0  0.57981877655E+02  0.50931589346E+02 -0.22149971078E+02  0.12116276304E+03  0.90740668933E+02 0.  0.
         24    2    1    2    0    0 -0.99236313658E+01 -0.14141388442E+03 -0.13657302721E+03  0.21187662302E+03  0.78378226931E+02 0.  0.
        -13    1    4    4    0    0 -0.29191939814E+02 -0.34463724486E+02 -0.73382876363E+02  0.86168231959E+02  0.00000000000E+00 0.  1.
         14    1    4    4    0    0  0.19268308449E+02 -0.10695015993E+03 -0.63190150843E+02  0.12570839106E+03  0.00000000000E+00 0. -1.
        -11    1    3    3    0    0  0.16254919251E+02  0.25168278140E+02  0.34857855955E+02  0.45964494408E+02  0.00000000000E+00 0.  1.
         11    1    3    3    0    0  0.41726958404E+02  0.25763311205E+02 -0.57007827033E+02  0.75198268630E+02  0.00000000000E+00 0. -1.
          1    1    1    2  501    0 -0.48058246289E+02  0.90482295070E+02 -0.20346846882E+03  0.22780706433E+03  0.00000000000E+00 0. -1.
<scales pt_clust_5="13000.00000" pt_clust_6="13000.00000" pt_clust_7="13000.00000" pt_clust_8="13000.00000" pt_clust_9="13000.00000"></scales>
<clustering>
<clus scale="   78.378">  5  6 -1 -1</clus>
<clus scale="   90.741">  7  8 -1 -1</clus>
<clus scale="  102.453">  5  9 -1 -1</clus>
<clus scale="  119.121">  2  7  1 -1</clus>
<clus scale="  278.736">  1  5  2 -1</clus>
</clustering>
</event>
<event>
 9    2  0.3726337E-005  0.6664296E+03  0.7546771E-02  0.1035967E+00
         21   -1    0    0  501  502  0.00000000000E+00  0.00000000000E+00  0.70986595678E+03  0.70986595678E+03  0.00000000000E+00 0. -1.
          4   -1    0    0  502    0 -0.00000000000E+00 -0.00000000000E+00 -0.22121220134E+03  0.22121220134E+03  0.00000000000E+00 0. -1.
         23    2    1    2    0    0 -0.29039893687E+02 -0.47313762133E+02  0.69691996950E+01  0.10879571521E+03  0.93306111225E+02 0.  0.
         24    2    1    2    0    0 -0.21034448882E+03 -0.19879353553E+03  0.33131129125E+03  0.44746808455E+03  0.81834230258E+02 0.  0.
        -11    1    4    4    0    0 -0.10913668912E+03 -0.87497233972E+02  0.21848343464E+03  0.25942550776E+03  0.00000000000E+00 0.  1.
         12    1    4    4    0    0 -0.10120779970E+03 -0.11129630156E+03  0.11282785660E+03  0.18804257679E+03  0.00000000000E+00 0. -1.
        -11    1    3    3    0    0 -0.49385002809E+01  0.19907085079E+02  0.27671904597E+02  0.34444377268E+02  0.00000000000E+00 0. -1.
         11    1    3    3    0    0 -0.24101393406E+02 -0.67220847212E+02 -0.20702704902E+02  0.74351337945E+02  0.00000000000E+00 0.  1.
          3    1    1    2  501    0  0.23938438250E+03  0.24610729766E+03  0.15037326450E+03  0.37481435835E+03  0.00000000000E+00 0. -1.
<scales pt_clust_5="13000.00000" pt_clust_6="13000.00000" pt_clust_7="13000.00000" pt_clust_8="13000.00000" pt_clust_9="13000.00000"></scales>
<clustering>
<clus scale="   81.834">  5  6 -1 -1</clus>
<clus scale="   93.306">  7  8 -1 -1</clus>
<clus scale="  108.572">  2  7  1 -1</clus>
<clus scale="  307.740">  5  9 -1 -1</clus>
<clus scale="  666.430">  1  5  2 -1</clus>
</clustering>
</event>
<event>
 9    2  0.3726337E-005  0.1874642E+03  0.7546771E-02  0.1192929E+00
         21   -1    0    0  501  502  0.00000000000E+00  0.00000000000E+00  0.53225993565E+02  0.53225993565E+02  0.00000000000E+00 0.  1.
         -1   -1    0    0    0  501 -0.00000000000E+00 -0.00000000000E+00 -0.42228615634E+03  0.42228615634E+03  0.00000000000E+00 0.  1.
         23    2    1    2    0    0 -0.10365872694E+02 -0.23063859968E+02 -0.21342448078E+03  0.23186221436E+03  0.87009680474E+02 0.  0.
         24    2    1    2    0    0  0.78371311193E+02  0.15470610693E+02 -0.12305477465E+03  0.16786133071E+03  0.81569274670E+02 0.  0.
        -13    1    4    4    0    0  0.87711930159E+02  0.41932666495E+01 -0.68483544895E+02  0.11135960712E+03  0.00000000000E+00 0.  1.
         14    1    4    4    0    0 -0.93406189655E+01  0.11277344043E+02 -0.54571229752E+02  0.56501723585E+02  0.00000000000E+00 0. -1.
        -13    1    3    3    0    0  0.28184251430E+02  0.18660767803E+02 -0.79343241080E+02  0.86243412437E+02  0.00000000000E+00 0. -1.
         13    1    3    3    0    0 -0.38550124124E+02 -0.41724627771E+02 -0.13408123971E+03  0.14561880192E+03  0.00000000000E+00 0.  1.
         -2    1    1    2    0  502 -0.68005438499E+02  0.75932492748E+01 -0.32580907345E+02  0.75788604839E+02  0.00000000000E+00 0.  1.
<scales pt_clust_5="13000.00000" pt_clust_6="13000.00000" pt_clust_7="13000.00000" pt_clust_8="13000.00000" pt_clust_9="13000.00000"></scales>
<clustering>
<clus scale="   81.569">  5  6 -1 -1</clus>
<clus scale="   68.428">  5  9 -1 -1</clus>
<clus scale="   87.010">  7  8 -1 -1</clus>
<clus scale="   90.609">  2  7  1 -1</clus>
<clus scale="  187.464">  1  5  2 -1</clus>
</clustering>
</event>
<event>
 9    2  0.3726337E-005  0.4858668E+03  0.7546771E-02  0.1022640E+00
          2   -1    0    0  502    0 -0.00000000000E+00  0.00000000000E+00  0.25797011425E+03  0.25797011425E+03  0.00000000000E+00 0. -1.
         21   -1    0    0  501  502  0.00000000000E+00 -0.00000000000E+00 -0.82271374884E+03  0.82271374884E+03  0.00000000000E+00 0. -1.
         23    2    1    2    0    0  0.30091634441E+02  0.40528561995E+03 -0.37093419870E+03  0.55758861148E+03  0.90282554754E+02 0.  0.
         24    2    1    2    0    0 -0.67364132675E+02 -0.13223586383E+03 -0.18101897925E+03  0.24721664748E+03  0.79523266321E+02 0.  0.
        -13    1    4    4    0    0 -0.27588272668E+02 -0.10906734378E+03 -0.16240146200E+03  0.19756273213E+03  0.00000000000E+00 0.  1.
         14    1    4    4    0    0 -0.39775860006E+02 -0.23168520051E+02 -0.18617517257E+02  0.49653915348E+02  0.00000000000E+00 0. -1.
        -13    1    3    3    0    0  0.49755661002E+02  0.38116049616E+03 -0.35163706829E+03  0.52096792361E+03  0.00000000000E+00 0. -1.
         13    1    3    3    0    0 -0.19664026562E+02  0.24125123789E+02 -0.19297130410E+02  0.36620687876E+02  0.00000000000E+00 0.  1.
          1    1    1    2  501    0  0.37272498234E+02 -0.27304975612E+03 -0.12790456635E+02  0.27587860414E+03  0.00000000000E+00 0. -1.
<scales pt_clust_5="13000.00000" pt_clust_6="13000.00000" pt_clust_7="13000.00000" pt_clust_8="13000.00000" pt_clust_9="13000.00000"></scales>
<clustering>
<clus scale="   79.523">  5  6 -1 -1</clus>
<clus scale="   90.283">  7  8 -1 -1</clus>
<clus scale="  275.582">  5  9 -1 -1</clus>
<clus scale="  416.309">  1  7  2 -1</clus>
<clus scale="  485.867">  2  5  1 -1</clus>
</clustering>
</event>
<event>
 9    2  0.3726337E-005  0.1850599E+03  0.7546771E-02  0.1190631E+00
         21   -1    0    0  501  502  0.00000000000E+00  0.00000000000E+00  0.66430393597E+02  0.66430393597E+02  0.00000000000E+00 0.  1.
         -3   -1    0    0    0  501 -0.00000000000E+00 -0.00000000000E+00 -0.58756223510E+03  0.58756223510E+03  0.00000000000E+00 0.  1.
         23    2    1    2    0    0  0.31878621790E+02 -0.26633548564E+02 -0.44158061033E+03  0.45255887601E+03  0.89947253419E+02 0.  0.
         24    2    1    2    0    0  0.14245328972E+01  0.54464440512E+02 -0.11116524135E+03  0.14773920642E+03  0.80627276122E+02 0.  0.
        -11    1    4    4    0    0  0.18839538512E+02  0.68670500296E+02 -0.65086646689E+02  0.96471951362E+02  0.00000000000E+00 0.  1.
         12    1    4    4    0    0 -0.17415005615E+02 -0.14206059785E+02 -0.46078594664E+02  0.51267255060E+02  0.00000000000E+00 0. -1.
        -13    1    3    3    0    0  0.59728556775E+02 -0.34515793796E+02 -0.34040294600E+03  0.34732262547E+03  0.00000000000E+00 0.  1.
         13    1    3    3    0    0 -0.27849934985E+02  0.78822452316E+01 -0.10117766433E+03  0.10523625054E+03  0.00000000000E+00 0. -1.
         -4    1    1    2    0  502 -0.33303154687E+02 -0.27830891947E+02  0.31614010184E+02  0.53694546265E+02  0.00000000000E+00 0.  1.
<scales pt_clust_5="13000.00000" pt_clust_6="13000.00000" pt_clust_7="13000.00000" pt_clust_8="13000.00000" pt_clust_9="13000.00000"></scales>
<clustering>
<clus scale="   80.627">  5  6 -1 -1</clus>
<clus scale="   43.401">  5  9 -1 -1</clus>
<clus scale="   89.947">  7  8 -1 -1</clus>
<clus scale="   99.076">  2  7  1 -1</clus>
<clus scale="  185.060">  1  5  2 -1</clus>
</clustering>
</event>
<event>
 9    2  0.3726337E-005  0.1222265E+03  0.7546771E-02  0.1248078E+00
         21   -1    0    0  501  502  0.00000000000E+00  0.00000000000E+00  0.23429357053E+02  0.23429357053E+02  0.00000000000E+00 0. -1.
          2   -1    0    0  502    0 -0.00000000000E+00 -0.00000000000E+00 -0.54238382065E+03  0.54238382065E+03  0.00000000000E+00 0. -1.
         23    2    1    2    0    0 -0.41316713599E+02 -0.17693190836E+02 -0.21831161438E+03  0.24127437065E+03  0.92375544043E+02 0.  0.
         24    2    1    2    0    0  0.25006947456E+02 -0.14803556045E+02 -0.22631595437E+03  0.24179501981E+03  0.80008922681E+02 0.  0.
        -13    1    4    4    0    0  0.16381156832E+02  0.28814274660E+02 -0.50214565667E+02  0.60167327749E+02  0.00000000000E+00 0.  1.
         14    1    4    4    0    0  0.86257906237E+01 -0.43617830705E+02 -0.17610138870E+03  0.18162769206E+03  0.00000000000E+00 0. -1.
        -11    1    3    3    0    0 -0.40639221546E+02  0.20437334334E+02 -0.18540366857E+03  0.19090246537E+03  0.00000000000E+00 0.  1.
         11    1    3    3    0    0 -0.67749205309E+00 -0.38130525169E+02 -0.32907945806E+02  0.50371905288E+02  0.00000000000E+00 0. -1.
          1    1    1    2  501    0  0.16309766144E+02  0.32496746881E+02 -0.74326894847E+02  0.82743787241E+02  0.00000000000E+00 0. -1.
<scales pt_clust_5="13000.00000" pt_clust_6="13000.00000" pt_clust_7="13000.00000" pt_clust_8="13000.00000" pt_clust_9="13000.00000"></scales>
<clustering>
<clus scale="   80.009">  5  6 -1 -1</clus>
<clus scale="   36.360">  5  9 -1 -1</clus>
<clus scale="   92.376">  7  8 -1 -1</clus>
<clus scale="  102.730">  2  7  1 -1</clus>
<clus scale="  122.226">  1  5  2 -1</clus>
</clustering>
</event>
<event>
 9    2  0.3726337E-005  0.1581131E+03  0.7546771E-02  0.1210068E+00
         21   -1    0    0  501  502  0.00000000000E+00  0.00000000000E+00  0.70477728248E+03  0.70477728248E+03  0.00000000000E+00 0. -1.
          4   -1    0    0  502    0 -0.00000000000E+00 -0.00000000000E+00 -0.62328711121E+02  0.62328711121E+02  0.00000000000E+00 0. -1.
         23    2    1    2    0    0  0.29504977296E+02  0.38392083333E+02 -0.13427273780E+01  0.10418293797E+03  0.92237659876E+02 0.  0.
         24    2    1    2    0    0  0.19532861805E+02  0.45078058433E+01  0.23135458629E+03  0.24537167923E+03  0.79249374567E+02 0.  0.
        -11    1    4    4    0    0 -0.20591648791E+02 -0.21736142877E+02  0.12773971457E+03  0.13120179338E+03  0.00000000000E+00 0.  1.
         12    1    4    4    0    0  0.40124510596E+02  0.26243948720E+02  0.10361487171E+03  0.11416988585E+03  0.00000000000E+00 0. -1.
        -13    1    3    3    0    0  0.61006020289E+02  0.37666773637E+02 -0.74625597834E+01  0.72084742812E+02  0.00000000000E+00 0. -1.
         13    1    3    3    0    0 -0.31501042993E+02  0.72530969611E+00  0.61198324053E+01  0.32098195159E+02  0.00000000000E+00 0.  1.
          3    1    1    2  501    0 -0.49037839101E+02 -0.42899889177E+02  0.41243671245E+03  0.41755137640E+03  0.00000000000E+00 0. -1.
<scales pt_clust_5="13000.00000" pt_clust_6="13000.00000" pt_clust_7="13000.00000" pt_clust_8="13000.00000" pt_clust_9="13000.00000"></scales>
<clustering>
<clus scale="   79.249">  5  6 -1 -1</clus>
<clus scale="   65.155">  5  9 -1 -1</clus>
<clus scale="   92.238">  7  8 -1 -1</clus>
<clus scale="  104.174">  2  7  1 -1</clus>
<clus scale="  158.113">  1  5  2 -1</clus>
</clustering>
</event>
<event>
 9    2  0.3794589E-005  0.2456437E+03  0.7546771E-02  0.1147253E+00
         21   -1    0    0  501  502  0.00000000000E+00  0.00000000000E+00  0.85805288189E+02  0.85805288189E+02  0.00000000000E+00 0.  1.
         -1   -1    0    0    0  501 -0.00000000000E+00 -0.00000000000E+00 -0.45896927462E+03  0.45896927462E+03  0.00000000000E+00 0.  1.
         23    2    1    2    0    0 -0.89163893752E+02  0.67412726083E+01 -0.23867612518E+03  0.26472492311E+03  0.71535637824E+02 0.  0.
         24    2    1    2    0    0 -0.51368051251E+02 -0.18613267070E+02 -0.54453167355E+02  0.11789007617E+03  0.89150391043E+02 0.  0.
        -13    1    4    4    0    0 -0.48474529012E+02  0.93068240829E+01  0.74511853464E+01  0.49919105566E+02  0.00000000000E+00 0.  1.
         14    1    4    4    0    0 -0.28935222395E+01 -0.27920091153E+02 -0.61904352702E+02  0.67970970600E+02  0.00000000000E+00 0. -1.
        -13    1    3    3    0    0 -0.37538155565E+02 -0.37133242929E+01 -0.18759731553E+03  0.19135217453E+03  0.00000000000E+00 0.  1.
         13    1    3    3    0    0 -0.51625738187E+02  0.10454596901E+02 -0.51078809645E+02  0.73372748582E+02  0.00000000000E+00 0. -1.
         -2    1    1    2    0  502  0.14053194500E+03  0.11871994462E+02 -0.80034693897E+02  0.16215956354E+03  0.00000000000E+00 0.  1.
<scales pt_clust_5="13000.00000" pt_clust_6="13000.00000" pt_clust_7="13000.00000" pt_clust_8="13000.00000" pt_clust_9="13000.00000"></scales>
<clustering>
<clus scale="   71.536">  7  8 -1 -1</clus>
<clus scale="   89.150">  5  6 -1 -1</clus>
<clus scale="  114.512">  2  7  1 -1</clus>
<clus scale="   89.840">  5  9 -1 -1</clus>
<clus scale="  245.644">  1  5  2 -1</clus>
</clustering>
</event>
<event>
 9    2  0.3726337E-005  0.3056758E+03  0.7546771E-02  0.1120306E+00
          2   -1    0    0  502    0 -0.00000000000E+00  0.00000000000E+00  0.87209792440E+02  0.87209792440E+02  0.00000000000E+00 0. -1.
         21   -1    0    0  501  502  0.00000000000E+00 -0.00000000000E+00 -0.50666916954E+03  0.50666916954E+03  0.00000000000E+00 0. -1.
         23    2    1    2    0    0 -0.59872922138E+02 -0.49254643327E+02 -0.11877157576E+03  0.16510064332E+03  0.84502949788E+02 0.  0.
         24    2    1    2    0    0  0.11850035140E+03 -0.75872417787E+02 -0.12365299461E+03  0.20420031511E+03  0.81294209829E+02 0.  0.
        -11    1    4    4    0    0  0.57137635056E+02 -0.40656884532E+02 -0.10727026201E+02  0.70941952967E+02  0.00000000000E+00 0.  1.
         12    1    4    4    0    0  0.61362716340E+02 -0.35215533254E+02 -0.11292596841E+03  0.13325836214E+03  0.00000000000E+00 0. -1.
        -11    1    3    3    0    0 -0.90563550379E+01 -0.55335035905E+02 -0.90958444450E+02  0.10685233915E+03  0.00000000000E+00 0. -1.
         11    1    3    3    0    0 -0.50816567100E+02  0.60803925787E+01 -0.27813131309E+02  0.58248304173E+02  0.00000000000E+00 0.  1.
          1    1    1    2  501    0 -0.58627429258E+02  0.12512706111E+03 -0.17703480674E+03  0.22457800355E+03  0.00000000000E+00 0. -1.
<scales pt_clust_5="13000.00000" pt_clust_6="13000.00000" pt_clust_7="13000.00000" pt_clust_8="13000.00000" pt_clust_9="13000.00000"></scales>
<clustering>
<clus scale="   81.294">  5  6 -1 -1</clus>
<clus scale="   84.503">  7  8 -1 -1</clus>
<clus scale="  114.680">  1  7  2 -1</clus>
<clus scale="  133.988">  5  9 -1 -1</clus>
<clus scale="  305.676">  2  5  1 -1</clus>
</clustering>
</event>
<event>
 9    2  0.3726337E-005  0.4365541E+03  0.7546771E-02  0.1078625E+00
         21   -1    0    0  501  502  0.00000000000E+00  0.00000000000E+00  0.98689504853E+02  0.98689504853E+02  0.00000000000E+00 0.  1.
          2   -1    0    0  502    0 -0.00000000000E+00 -0.00000000000E+00 -0.80468485515E+03  0.80468485515E+03  0.00000000000E+00 0. -1.
         23    2    1    2    0    0 -0.24672281138E+02  0.68050248603E+02 -0.83888657474E+02  0.14337684353E+03  0.90994805430E+02 0.  0.
         24    2    1    2    0    0 -0.18608713864E+03 -0.80962371938E+02 -0.23962960859E+03  0.32310510876E+03  0.76100152139E+02 0.  0.
        -11    1    4    4    0    0 -0.88535535209E+02 -0.78798011422E+02 -0.14368633231E+03  0.18626172364E+03  0.00000000000E+00 0.  1.
         12    1    4    4    0    0 -0.97551603435E+02 -0.21643605165E+01 -0.95943276274E+02  0.13684338512E+03  0.00000000000E+00 0. -1.
        -11    1    3    3    0    0 -0.55154130078E+02  0.65402385864E+02 -0.64658705805E+02  0.10723897788E+03  0.00000000000E+00 0.  1.
         11    1    3    3    0    0  0.30481848940E+02  0.26478627384E+01 -0.19229951669E+02  0.36137865641E+02  0.00000000000E+00 0. -1.
          1    1    1    2  501    0  0.21075941978E+03  0.12912123336E+02 -0.38247708424E+03  0.43689240772E+03  0.00000000000E+00 0. -1.
<scales pt_clust_5="13000.00000" pt_clust_6="13000.00000" pt_clust_7="13000.00000" pt_clust_8="13000.00000" pt_clust_9="13000.00000"></scales>
<clustering>
<clus scale="   76.100">  5  6 -1 -1</clus>
<clus scale="   90.995">  7  8 -1 -1</clus>
<clus scale="  116.274">  2  7  1 -1</clus>
<clus scale="  203.234">  5  9 -1 -1</clus>
<clus scale="  436.554">  1  5  2 -1</clus>
</clustering>
</event>
<event>
 9    2  0.3916601E-005  0.2662771E+03  0.7546771E-02  0.1129817E+00
          2   -1    0    0  502    0 -0.00000000000E+00  0.00000000000E+00  0.40916892521E+03  0.40916892521E+03  0.00000000000E+00 0. -1.
         21   -1    0    0  501  502  0.00000000000E+00 -0.00000000000E+00 -0.99725564380E+02  0.99725564380E+02  0.00000000000E+00 0. -1.
         23    2    1    2    0    0  0.11127829800E+03  0.66137467667E+01  0.11914470505E+03  0.18160707739E+03  0.79743768187E+02 0.  0.
         24    2    1    2    0    0  0.85818963895E+01 -0.68764947239E+02  0.15683093035E+03  0.18818555541E+03  0.77560270989E+02 0.  0.
        -11    1    4    4    0    0  0.30115057410E+02 -0.12566017453E+01  0.69277950794E+02  0.75550845111E+02  0.00000000000E+00 0.  1.
         12    1    4    4    0    0 -0.21533161020E+02 -0.67508345494E+02  0.87552979553E+02  0.11263471030E+03  0.00000000000E+00 0. -1.
        -11    1    3    3    0    0  0.19614940708E+02  0.34467929929E+02  0.48076920130E+02  0.62323144511E+02  0.00000000000E+00 0.  1.
         11    1    3    3    0    0  0.91663357288E+02 -0.27854183163E+02  0.71067784917E+02  0.11928393287E+03  0.00000000000E+00 0. -1.
          1    1    1    2  501    0 -0.11986019439E+03  0.62151200473E+02  0.33467725436E+02  0.13910185680E+03  0.00000000000E+00 0. -1.
<scales pt_clust_5="13000.00000" pt_clust_6="13000.00000" pt_clust_7="13000.00000" pt_clust_8="13000.00000" pt_clust_9="13000.00000"></scales>
<clustering>
<clus scale="   77.560">  5  6 -1 -1</clus>
<clus scale="   79.744">  7  8 -1 -1</clus>
<clus scale="  135.016">  5  9 -1 -1</clus>
<clus scale="  137.061">  1  7  2 -1</clus>
<clus scale="  266.277">  2  5  1 -1</clus>
</clustering>
</event>
<event>
 9    2  0.3726337E-005  0.1839336E+03  0.7546771E-02  0.1192137E+00
          2   -1    0    0  502    0 -0.00000000000E+00  0.00000000000E+00  0.34073193569E+03  0.34073193569E+03  0.00000000000E+00 0. -1.
         21   -1    0    0  501  502  0.00000000000E+00 -0.00000000000E+00 -0.59038524622E+02  0.59038524622E+02  0.00000000000E+00 0. -1.
         23    2    1    2    0    0  0.32937022294E+02 -0.18650644791E+02  0.12152521697E+03  0.15587415592E+03  0.89975997541E+02 0.  0.
         24    2    1    2    0    0 -0.47352147165E+01 -0.39866050777E+02  0.15375452779E+03  0.17862241431E+03  0.81570753437E+02 0.  0.
        -13    1    4    4    0    0  0.52105622071E+01  0.24120142779E+02  0.29116485866E+02  0.38166752487E+02  0.00000000000E+00 0.  1.
         14    1    4    4    0    0 -0.99457769236E+01 -0.63986193557E+02  0.12463804192E+03  0.14045566182E+03  0.00000000000E+00 0. -1.
        -13    1    3    3    0    0 -0.27247870703E+02  0.77959082895E+01  0.19132671950E+02  0.34194762463E+02  0.00000000000E+00 0.  1.
         13    1    3    3    0    0  0.60184892998E+02 -0.26446553081E+02  0.10239254502E+03  0.12167939345E+03  0.00000000000E+00 0. -1.
          1    1    1    2  501    0 -0.28201807578E+02  0.58516695568E+02  0.64136663044E+01  0.65273890081E+02  0.00000000000E+00 0. -1.
<scales pt_clust_5="13000.00000" pt_clust_6="13000.00000" pt_clust_7="13000.00000" pt_clust_8="13000.00000" pt_clust_9="13000.00000"></scales>
<clustering>
<clus scale="   81.571">  5  6 -1 -1</clus>
<clus scale="   64.958">  5  9 -1 -1</clus>
<clus scale="   89.976">  7  8 -1 -1</clus>
<clus scale="   97.613">  1  7  2 -1</clus>
<clus scale="  183.934">  2  5  1 -1</clus>
</clustering>
</event>
<event>
 9    2  0.3726337E-005  0.2277310E+03  0.7546771E-02  0.1165540E+00
         21   -1    0    0  501  502  0.00000000000E+00  0.00000000000E+00  0.31259971319E+02  0.31259971319E+02  0.00000000000E+00 0. -1.
          2   -1    0    0  502    0 -0.00000000000E+00 -0.00000000000E+00 -0.83870115883E+03  0.83870115883E+03  0.00000000000E+00 0. -1.
         23    2    1    2    0    0  0.18882387542E+00 -0.16661870729E+02 -0.28666096169E+03  0.30156564280E+03  0.92139439813E+02 0.  0.
         24    2    1    2    0    0 -0.13311695649E+02 -0.51429107534E+02 -0.47631052405E+03  0.48601742316E+03  0.80740732887E+02 0.  0.
        -13    1    4    4    0    0 -0.43711906662E+02 -0.48496692200E+02 -0.29358200887E+03  0.30075414522E+03  0.00000000000E+00 0.  1.
         14    1    4    4    0    0  0.30400211013E+02 -0.29324153347E+01 -0.18272851519E+03  0.18526327794E+03  0.00000000000E+00 0. -1.
        -13    1    3    3    0    0  0.39960977939E+02 -0.31001756040E+02 -0.13659254769E+03  0.14565545894E+03  0.00000000000E+00 0.  1.
         13    1    3    3    0    0 -0.39772154063E+02  0.14339885311E+02 -0.15006841400E+03  0.15591018386E+03  0.00000000000E+00 0. -1.
          1    1    1    2  501    0  0.13122871773E+02  0.68090978263E+02 -0.44469701764E+02  0.82378064188E+02  0.00000000000E+00 0. -1.
<scales pt_clust_5="13000.00000" pt_clust_6="13000.00000" pt_clust_7="13000.00000" pt_clust_8="13000.00000" pt_clust_9="13000.00000"></scales>
<clustering>
<clus scale="   80.741">  5  6 -1 -1</clus>
<clus scale="   69.344">  5  9 -1 -1</clus>
<clus scale="   92.139">  7  8 -1 -1</clus>
<clus scale="   93.634">  2  7  1 -1</clus>
<clus scale="  227.731">  1  5  2 -1</clus>
</clustering>
</event>
<event>
 9    2  0.3726337E-005  0.1630364E+03  0.7546771E-02  0.1194235E+00
         21   -1    0    0  501  502  0.00000000000E+00  0.00000000000E+00  0.17590944096E+03  0.17590944096E+03  0.00000000000E+00 0. -1.
          2   -1    0    0  502    0 -0.00000000000E+00 -0.00000000000E+00 -0.39351639651E+03  0.39351639651E+03  0.00000000000E+00 0. -1.
         23    2    1    2    0    0 -0.21699995607E+02  0.96006121758E+02 -0.34010622673E+03  0.36549705064E+03  0.90707129485E+02 0.  0.
         24    2    1    2    0    0  0.41819128595E+02 -0.35805823255E+02  0.48973661371E+02  0.10679552400E+03  0.77304385016E+02 0.  0.
        -13    1    4    4    0    0  0.17585303557E+02  0.23574157546E+02  0.24036198588E+02  0.37983189015E+02  0.00000000000E+00 0.  1.
         14    1    4    4    0    0  0.24233825038E+02 -0.59379980801E+02  0.24937462784E+02  0.68812334984E+02  0.00000000000E+00 0. -1.
        -13    1    3    3    0    0 -0.47904515322E+02  0.92972846344E+02 -0.29788608182E+03  0.31571333594E+03  0.00000000000E+00 0. -1.
         13    1    3    3    0    0  0.26204519715E+02  0.30332754143E+01 -0.42220144908E+02  0.49783714700E+02  0.00000000000E+00 0.  1.
          1    1    1    2  501    0 -0.20119132988E+02 -0.60200298502E+02  0.73525609808E+02  0.97133262838E+02  0.00000000000E+00 0. -1.
<scales pt_clust_5="13000.00000" pt_clust_6="13000.00000" pt_clust_7="13000.00000" pt_clust_8="13000.00000" pt_clust_9="13000.00000"></scales>
<clustering>
<clus scale="   77.304">  5  6 -1 -1</clus>
<clus scale="   63.473">  5  9 -1 -1</clus>
<clus scale="   90.707">  7  8 -1 -1</clus>
<clus scale="  133.850">  2  7  1 -1</clus>
<clus scale="  163.036">  1  5  2 -1</clus>
</clustering>
</event>
<event>
 9    2  0.3726337E-005  0.4045462E+03  0.7546771E-02  0.1085990E+00
          2   -1    0    0  502    0 -0.00000000000E+00  0.00000000000E+00  0.80560772112E+03  0.80560772112E+03  0.00000000000E+00 0. -1.
         21   -1    0    0  501  502  0.00000000000E+00 -0.00000000000E+00 -0.10698149371E+03  0.10698149371E+03  0.00000000000E+00 0.  1.
         23    2    1    2    0    0 -0.59056801055E+01 -0.79964934331E+02  0.37747317585E+03  0.39606536869E+03  0.89176846836E+02 0.  0.
         24    2    1    2    0    0  0.27191491973E+01 -0.65096475881E+02 -0.53208327337E+02  0.11502738448E+03  0.78455262009E+02 0.  0.
        -13    1    4    4    0    0  0.36215687162E+02 -0.26691900559E+02 -0.56855641122E+01  0.45347096835E+02  0.00000000000E+00 0.  1.
         14    1    4    4    0    0 -0.33496537964E+02 -0.38404575322E+02 -0.47522763225E+02  0.69680287641E+02  0.00000000000E+00 0. -1.
        -11    1    3    3    0    0 -0.44000916587E+02 -0.29219037344E+02  0.12420540394E+03  0.13496968241E+03  0.00000000000E+00 0.  1.
         11    1    3    3    0    0  0.38095236482E+02 -0.50745896987E+02  0.25326777191E+03  0.26109568628E+03  0.00000000000E+00 0. -1.
          1    1    1    2  501    0  0.31865309082E+01  0.14506141021E+03  0.37436137890E+03  0.40149646165E+03  0.00000000000E+00 0. -1.
<scales pt_clust_5="13000.00000" pt_clust_6="13000.00000" pt_clust_7="13000.00000" pt_clust_8="13000.00000" pt_clust_9="13000.00000"></scales>
<clustering>
<clus scale="   78.455">  5  6 -1 -1</clus>
<clus scale="   89.177">  7  8 -1 -1</clus>
<clus scale="  119.924">  1  7  2 -1</clus>
<clus scale="   71.034">  5  9 -1 -1</clus>
<clus scale="  404.546">  2  5  1 -1</clus>
</clustering>
</event>
<event>
 9    2  0.3726337E-005  0.2199649E+03  0.7546771E-02  0.1170511E+00
         21   -1    0    0  501  502  0.00000000000E+00  0.00000000000E+00  0.16918815821E+03  0.16918815821E+03  0.00000000000E+00 0.  1.
          2   -1    0    0  502    0 -0.00000000000E+00 -0.00000000000E+00 -0.14657838109E+03  0.14657838109E+03  0.00000000000E+00 0. -1.
         23    2    1    2    0    0 -0.25895136047E+01 -0.11101093254E+02  0.24147760334E+02  0.95796304149E+02  0.91999335363E+02 0.  0.
         24    2    1    2    0    0 -0.63059931660E+02  0.64420811885E+02 -0.43375465882E+02  0.12561337522E+03  0.75965077563E+02 0.  0.
        -11    1    4    4    0    0 -0.54840864523E+02  0.34763564898E+02 -0.61887157436E+02  0.89699755415E+02  0.00000000000E+00 0.  1.
         12    1    4    4    0    0 -0.82190671371E+01  0.29657246987E+02  0.18511691554E+02  0.35913619806E+02  0.00000000000E+00 0. -1.
        -11    1    3    3    0    0 -0.42202853609E+02  0.77615641900E+01 -0.48812423538E+01  0.43187373830E+02  0.00000000000E+00 0. -1.
         11    1    3    3    0    0  0.39613340005E+02 -0.18862657444E+02  0.29029002688E+02  0.52608930318E+02  0.00000000000E+00 0.  1.
          1    1    1    2  501    0  0.65649445264E+02 -0.53319718631E+02  0.41837482671E+02  0.94356859923E+02  0.00000000000E+00 0. -1.
<scales pt_clust_5="13000.00000" pt_clust_6="13000.00000" pt_clust_7="13000.00000" pt_clust_8="13000.00000" pt_clust_9="13000.00000"></scales>
<clustering>
<clus scale="   75.965">  5  6 -1 -1</clus>
<clus scale="   84.575">  5  9 -1 -1</clus>
<clus scale="   91.999">  7  8 -1 -1</clus>
<clus scale="   92.703">  2  7  1 -1</clus>
<clus scale="  219.965">  1  5  2 -1</clus>
</clustering>
</event>
<event>
 9    2  0.3726337E-005  0.5333389E+03  0.7546771E-02  0.1025524E+00
         21   -1    0    0  501  502  0.00000000000E+00  0.00000000000E+00  0.11389685213E+03  0.11389685213E+03  0.00000000000E+00 0. -1.
          2   -1    0    0  502    0 -0.00000000000E+00 -0.00000000000E+00 -0.17947569435E+04  0.17947569435E+04  0.00000000000E+00 0. -1.
         23    2    1    2    0    0  0.11404925894E+03  0.24923114018E+03 -0.10165769307E+04  0.10567603197E+04  0.90500400740E+02 0.  0.
         24    2    1    2    0    0 -0.14965472507E+03  0.42019660393E+02 -0.70043916341E+02  0.18916045463E+03  0.81934966794E+02 0.  0.
        -11    1    4    4    0    0 -0.52870529478E+02  0.23443942746E+01 -0.65843064762E+02  0.84475429855E+02  0.00000000000E+00 0.  1.
         12    1    4    4    0    0 -0.96784195590E+02  0.39675266118E+02 -0.42008515787E+01  0.10468502477E+03  0.00000000000E+00 0. -1.
        -13    1    3    3    0    0  0.53798244643E+02  0.31396732156E+02 -0.19925605150E+03  0.20876537064E+03  0.00000000000E+00 0.  1.
         13    1    3    3    0    0  0.60251014292E+02  0.21783440802E+03 -0.81732087917E+03  0.84799494902E+03  0.00000000000E+00 0. -1.
          1    1    1    2  501    0  0.35605466133E+02 -0.29125080057E+03 -0.59423924434E+03  0.66273302133E+03  0.00000000000E+00 0. -1.
<scales pt_clust_5="13000.00000" pt_clust_6="13000.00000" pt_clust_7="13000.00000" pt_clust_8="13000.00000" pt_clust_9="13000.00000"></scales>
<clustering>
<clus scale="   81.935">  5  6 -1 -1</clus>
<clus scale="   90.500">  7  8 -1 -1</clus>
<clus scale="  288.641">  2  7  1 -1</clus>
<clus scale="  155.251">  5  9 -1 -1</clus>
<clus scale="  533.339">  1  5  2 -1</clus>
</clustering>
</event>
<event>
 9    2  0.3726337E-005  0.1851661E+03  0.7546771E-02  0.1183506E+00
         -1   -1    0    0    0  501 -0.00000000000E+00  0.00000000000E+00  0.81910230976E+02  0.81910230976E+02  0.00000000000E+00 0.  1.
         21   -1    0    0  501  502  0.00000000000E+00 -0.00000000000E+00 -0.29583956221E+03  0.29583956221E+03  0.00000000000E+00 0.  1.
         23    2    1    2    0    0  0.70497127531E+01  0.71417607291E+02 -0.13092851607E+03  0.17483203087E+03  0.90960373880E+02 0.  0.
         24    2    1    2    0    0 -0.16963387175E+02  0.24856939831E+02 -0.56121604653E+02  0.10247095390E+03  0.80280993528E+02 0.  0.
        -13    1    4    4    0    0 -0.30617238191E+02  0.39430193427E+02 -0.82469099261E+01  0.50598092370E+02  0.00000000000E+00 0.  1.
         14    1    4    4    0    0  0.13653851017E+02 -0.14573253596E+02 -0.47874694726E+02  0.51872861528E+02  0.00000000000E+00 0. -1.
        -11    1    3    3    0    0 -0.28048009999E+02 -0.18323529101E+01 -0.11431547022E+02  0.30343510829E+02  0.00000000000E+00 0. -1.
         11    1    3    3    0    0  0.35097722752E+02  0.73249960201E+02 -0.11949696904E+03  0.14448852004E+03  0.00000000000E+00 0.  1.
         -2    1    1    2    0  502  0.99136744215E+01 -0.96274547122E+02 -0.26879210514E+02  0.10044680842E+03  0.00000000000E+00 0.  1.
<scales pt_clust_5="13000.00000" pt_clust_6="13000.00000" pt_clust_7="13000.00000" pt_clust_8="13000.00000" pt_clust_9="13000.00000"></scales>
<clustering>
<clus scale="   80.281">  5  6 -1 -1</clus>
<clus scale="   90.960">  7  8 -1 -1</clus>
<clus scale="   96.784">  5  9 -1 -1</clus>
<clus scale="  115.862">  1  7  2 -1</clus>
<clus scale="  185.166">  2  5  1 -1</clus>
</clustering>
</event>
<event>
 9    2  0.3733640E-005  0.6446020E+03  0.7546771E-02  0.1026142E+00
          2   -1    0    0  502    0 -0.00000000000E+00  0.00000000000E+00  0.16523251402E+04  0.16523251402E+04  0.00000000000E+00 0. -1.
         21   -1    0    0  501  502  0.00000000000E+00 -0.00000000000E+00 -0.15460480924E+03  0.15460480924E+03  0.00000000000E+00 0. -1.
         23    2    1    2    0    0  0.10689050735E+03 -0.78319878284E+02 -0.16378218259E+02  0.16132788040E+03  0.90547529317E+02 0.  0.
         24    2    1    2    0    0 -0.29426758379E+03  0.90933803809E+02  0.13738326676E+04  0.14112011359E+04  0.95969161763E+02 0.  0.
        -11    1    4    4    0    0 -0.66187184914E+02  0.65471142645E+02  0.39214792840E+03  0.40304740628E+03  0.00000000000E+00 0.  1.
         12    1    4    4    0    0 -0.22808039887E+03  0.25462661164E+02  0.98168473918E+03  0.10081537296E+04  0.00000000000E+00 0. -1.
        -11    1    3    3    0    0  0.44521356150E+02 -0.39224491171E+02  0.37424235540E+02  0.70151872867E+02  0.00000000000E+00 0.  1.
         11    1    3    3    0    0  0.62369151203E+02 -0.39095387113E+02 -0.53802453799E+02  0.91176007536E+02  0.00000000000E+00 0. -1.
          1    1    1    2  501    0  0.18737707643E+03 -0.12613925525E+02  0.14026588166E+03  0.23440093312E+03  0.00000000000E+00 0. -1.
<scales pt_clust_5="13000.00000" pt_clust_6="13000.00000" pt_clust_7="13000.00000" pt_clust_8="13000.00000" pt_clust_9="13000.00000"></scales>
<clustering>
<clus scale="   90.548">  7  8 -1 -1</clus>
<clus scale="   95.969">  5  6 -1 -1</clus>
<clus scale="  160.494">  1  7  2 -1</clus>
<clus scale="  201.247">  5  9 -1 -1</clus>
<clus scale="  644.602">  2  5  1 -1</clus>
</clustering>
</event>
<event>
 9    2  0.3726337E-005  0.3491848E+03  0.7546771E-02  0.1078464E+00
         -1   -1    0    0    0  501 -0.00000000000E+00  0.00000000000E+00  0.19253628264E+04  0.19253628264E+04  0.00000000000E+00 0.  1.
         21   -1    0    0  501  502  0.00000000000E+00 -0.00000000000E+00 -0.46654331259E+02  0.46654331259E+02  0.00000000000E+00 0.  1.
         23    2    1    2    0    0 -0.63649589117E+02 -0.19982105981E+03  0.49731113758E+03  0.54717025172E+03  0.89984391267E+02 0.  0.
         24    2    1    2    0    0 -0.22217555863E+02 -0.40104086430E+02  0.40918753011E+03  0.41979507096E+03  0.81801645905E+02 0.  0.
        -11    1    4    4    0    0 -0.38728559336E+02 -0.21584067616E+02  0.97338084122E+02  0.10696016036E+03  0.00000000000E+00 0.  1.
         12    1    4    4    0    0  0.16511003473E+02 -0.18520018814E+02  0.31184944598E+03  0.31283491061E+03  0.00000000000E+00 0. -1.
        -13    1    3    3    0    0 -0.58885666580E+01 -0.60032673467E+02  0.25083350189E+03  0.25798457855E+03  0.00000000000E+00 0.  1.
         13    1    3    3    0    0 -0.57761022459E+02 -0.13978838634E+03  0.24647763569E+03  0.28918567317E+03  0.00000000000E+00 0. -1.
         -2    1    1    2    0  502  0.85867144980E+02  0.23992514624E+03  0.97220982746E+03  0.10050518350E+04  0.00000000000E+00 0.  1.
<scales pt_clust_5="13000.00000" pt_clust_6="13000.00000" pt_clust_7="13000.00000" pt_clust_8="13000.00000" pt_clust_9="13000.00000"></scales>
<clustering>
<clus scale="   81.802">  5  6 -1 -1</clus>
<clus scale="   89.984">  7  8 -1 -1</clus>
<clus scale="  228.204">  1  7  2 -1</clus>
<clus scale="  107.284">  5  9 -1 -1</clus>
<clus scale="  349.185">  2  5  1 -1</clus>
</clustering>
</event>
<event>
 9    2  0.3726337E-005  0.4487866E+03  0.7546771E-02  0.1068105E+00
         -1   -1    0    0    0  501 -0.00000000000E+00  0.00000000000E+00  0.10502520609E+04  0.10502520609E+04  0.00000000000E+00 0.  1.
         21   -1    0    0  501  502  0.00000000000E+00 -0.00000000000E+00 -0.87316566291E+02  0.87316566291E+02  0.00000000000E+00 0.  1.
         23    2    1    2    0    0 -0.10536331933E+03  0.30081644161E+02  0.13789299062E+03  0.19836442241E+03  0.91255864688E+02 0.  0.
         24    2    1    2    0    0  0.16611928007E+03  0.14782201256E+03  0.30351784894E+03  0.38483161918E+03  0.80779501639E+02 0.  0.
        -11    1    4    4    0    0  0.14169873809E+03  0.14650246952E+03  0.22980389178E+03  0.30716662355E+03  0.00000000000E+00 0.  1.
         12    1    4    4    0    0  0.24420541987E+02  0.13195430458E+01  0.73713957166E+02  0.77664995627E+02  0.00000000000E+00 0. -1.
        -13    1    3    3    0    0 -0.37419324734E+02 -0.32128280048E+02  0.36399167494E+02  0.61297076901E+02  0.00000000000E+00 0.  1.
         13    1    3    3    0    0 -0.67943994599E+02  0.62209924209E+02  0.10149382313E+03  0.13706734551E+03  0.00000000000E+00 0. -1.
         -2    1    1    2    0  502 -0.60755960741E+02 -0.17790365672E+03  0.52152465501E+03  0.55437258556E+03  0.00000000000E+00 0.  1.
<scales pt_clust_5="13000.00000" pt_clust_6="13000.00000" pt_clust_7="13000.00000" pt_clust_8="13000.00000" pt_clust_9="13000.00000"></scales>
<clustering>
<clus scale="   80.780">  5  6 -1 -1</clus>
<clus scale="   91.256">  7  8 -1 -1</clus>
<clus scale="  142.597">  1  7  2 -1</clus>
<clus scale="  202.698">  5  9 -1 -1</clus>
<clus scale="  448.787">  2  5  1 -1</clus>
</clustering>
</event>
<event>
 9    2  0.3726337E-005  0.2827123E+03  0.7546771E-02  0.1109139E+00
         21   -1    0    0  501  502  0.00000000000E+00  0.00000000000E+00  0.30263684987E+03  0.30263684987E+03  0.00000000000E+00 0.  1.
         -1   -1    0    0    0  501 -0.00000000000E+00 -0.00000000000E+00 -0.21679029343E+03  0.21679029343E+03  0.00000000000E+00 0.  1.
         23    2    1    2    0    0  0.14990407297E+03 -0.80107125223E+02 -0.59978877600E+02  0.20132134456E+03  0.89690776632E+02 0.  0.
         24    2    1    2    0    0 -0.20781465025E+02  0.89993394415E+02 -0.38989557822E+01  0.12014676483E+03  0.76742184715E+02 0.  0.
        -11    1    4    4    0    0 -0.23372132435E+02  0.99041756728E+02  0.11176988240E+02  0.10237407492E+03  0.00000000000E+00 0.  1.
         12    1    4    4    0    0  0.25906674098E+01 -0.90483623128E+01 -0.15075944023E+02  0.17772689902E+02  0.00000000000E+00 0. -1.
        -11    1    3    3    0    0  0.13254453564E+03 -0.94129782771E+02 -0.69825873786E+02  0.17692971085E+03  0.00000000000E+00 0.  1.
         11    1    3    3    0    0  0.17359537327E+02  0.14022657548E+02  0.98469961860E+01  0.24391633705E+02  0.00000000000E+00 0. -1.
         -2    1    1    2    0  502 -0.12912260794E+03 -0.98862691917E+01  0.14972438983E+03  0.19795903392E+03  0.00000000000E+00 0.  1.
<scales pt_clust_5="13000.00000" pt_clust_6="13000.00000" pt_clust_7="13000.00000" pt_clust_8="13000.00000" pt_clust_9="13000.00000"></scales>
<clustering>
<clus scale="   76.742">  5  6 -1 -1</clus>
<clus scale="   89.691">  7  8 -1 -1</clus>
<clus scale="  129.501">  5  9 -1 -1</clus>
<clus scale="  192.179">  2  7  1 -1</clus>
<clus scale="  282.712">  1  5  2 -1</clus>
</clustering>
</event>
<event>
 9    2  0.3726337E-005  0.2266012E+03  0.7546771E-02  0.1141510E+00
         -3   -1    0    0    0  501 -0.00000000000E+00  0.00000000000E+00  0.54420700054E+03  0.54420700054E+03  0.00000000000E+00 0.  1.
         21   -1    0    0  501  502  0.00000000000E+00 -0.00000000000E+00 -0.72186900175E+02  0.72186900175E+02  0.00000000000E+00 0.  1.
         23    2    1    2    0    0 -0.88490176732E+02  0.77237723144E+02  0.23469709160E+03  0.28826233099E+03  0.11923199825E+03 0.  0.
         24    2    1    2    0    0  0.79193538902E+01 -0.60774529320E+02  0.28901511926E+02  0.10407306266E+03  0.78991426116E+02 0.  0.
        -11    1    4    4    0    0  0.46218713825E+01 -0.54703089186E+02 -0.17143548415E+02  0.57512528321E+02  0.00000000000E+00 0.  1.
         12    1    4    4    0    0  0.32974825077E+01 -0.60714401343E+01  0.46045060341E+02  0.46560534340E+02  0.00000000000E+00 0. -1.
        -13    1    3    3    0    0  0.28822446941E+02  0.48003707748E+01  0.35008974526E+02  0.45600496758E+02  0.00000000000E+00 0. -1.
         13    1    3    3    0    0 -0.11731262367E+03  0.72437352369E+02  0.19968811707E+03  0.24266183423E+03  0.00000000000E+00 0.  1.
         -4    1    1    2    0  502  0.80570822842E+02 -0.16463193823E+02  0.20842149684E+03  0.22405850707E+03  0.00000000000E+00 0.  1.
<scales pt_clust_5="13000.00000" pt_clust_6="13000.00000" pt_clust_7="13000.00000" pt_clust_8="13000.00000" pt_clust_9="13000.00000"></scales>
<clustering>
<clus scale="   78.991">  5  6 -1 -1</clus>
<clus scale="   82.236">  5  9 -1 -1</clus>
<clus scale="  119.232">  7  8 -1 -1</clus>
<clus scale="  167.369">  1  7  2 -1</clus>
<clus scale="  226.601">  2  5  1 -1</clus>
</clustering>
</event>
<event>
 9    2  0.3726337E-005  0.6062243E+03  0.7546771E-02  0.1047516E+00
         -3   -1    0    0    0  501 -0.00000000000E+00  0.00000000000E+00  0.13673422391E+03  0.13673422391E+03  0.00000000000E+00 0.  1.
         21   -1    0    0  501  502  0.00000000000E+00 -0.00000000000E+00 -0.92269880297E+03  0.92269880297E+03  0.00000000000E+00 0. -1.
         23    2    1    2    0    0 -0.49093158122E+02  0.34104105684E+02 -0.95494897112E+02  0.14059882020E+03  0.84116137985E+02 0.  0.
         24    2    1    2    0    0 -0.49261473825E+02  0.25432310937E+03 -0.18640895804E+03  0.32981713953E+03  0.83211231947E+02 0.  0.
        -11    1    4    4    0    0 -0.44414438730E+02  0.15586572476E+03 -0.16004848489E+03  0.22777682946E+03  0.00000000000E+00 0.  1.
         12    1    4    4    0    0 -0.48470350944E+01  0.98457384610E+02 -0.26360473154E+02  0.10204031007E+03  0.00000000000E+00 0. -1.
        -11    1    3    3    0    0 -0.34969264793E+02 -0.62480012055E+01 -0.90906724831E+02  0.97600817715E+02  0.00000000000E+00 0.  1.
         11    1    3    3    0    0 -0.14123893329E+02  0.40352106889E+02 -0.45881722811E+01  0.42998002489E+02  0.00000000000E+00 0. -1.
         -4    1    1    2    0  502  0.98354631947E+02 -0.28842721506E+03 -0.50406072391E+03  0.58901706715E+03  0.00000000000E+00 0.  1.
<scales pt_clust_5="13000.00000" pt_clust_6="13000.00000" pt_clust_7="13000.00000" pt_clust_8="13000.00000" pt_clust_9="13000.00000"></scales>
<clustering>
<clus scale="   83.211">  5  6 -1 -1</clus>
<clus scale="   84.116">  7  8 -1 -1</clus>
<clus scale="  103.193">  1  7  2 -1</clus>
<clus scale="  287.136">  5  9 -1 -1</clus>
<clus scale="  606.224">  2  5  1 -1</clus>
</clustering>
</event>
<event>
 9    2  0.3726337E-005  0.3769329E+03  0.7546771E-02  0.1095890E+00
          2   -1    0    0  502    0 -0.00000000000E+00  0.00000000000E+00  0.59345164203E+03  0.59345164203E+03  0.00000000000E+00 0. -1.
         21   -1    0    0  501  502  0.00000000000E+00 -0.00000000000E+00 -0.25958680581E+03  0.25958680581E+03  0.00000000000E+00 0. -1.
         23    2    1    2    0    0 -0.33244915362E+02  0.58767218813E+02  0.44551950196E+03  0.45991612873E+03  0.92067412461E+02 0.  0.
         24    2    1    2    0    0  0.14466501119E+03 -0.77729868156E+02  0.55848646792E+02  0.19105455935E+03  0.80080431023E+02 0.  0.
        -13    1    4    4    0    0  0.10358481508E+03 -0.89310450007E+02  0.26653593849E+02  0.13934340480E+03  0.00000000000E+00 0.  1.
         14    1    4    4    0    0  0.41080196112E+02  0.11580581851E+02  0.29195052944E+02  0.51711154551E+02  0.00000000000E+00 0. -1.
        -11    1    3    3    0    0  0.21932418549E+02 -0.11232897392E+02  0.11320290804E+03  0.11585381891E+03  0.00000000000E+00 0.  1.
         11    1    3    3    0    0 -0.55177333910E+02  0.70000116205E+02  0.33231659391E+03  0.34406230982E+03  0.00000000000E+00 0. -1.
          1    1    1    2  501    0 -0.11142009583E+03  0.18962649343E+02 -0.16750331253E+03  0.20206775976E+03  0.00000000000E+00 0. -1.
<scales pt_clust_5="13000.00000" pt_clust_6="13000.00000" pt_clust_7="13000.00000" pt_clust_8="13000.00000" pt_clust_9="13000.00000"></scales>
<clustering>
<clus scale="   80.080">  5  6 -1 -1</clus>
<clus scale="   92.067">  7  8 -1 -1</clus>
<clus scale="  113.022">  5  9 -1 -1</clus>
<clus scale="  114.172">  1  7  2 -1</clus>
<clus scale="  376.933">  2  5  1 -1</clus>
</clustering>
</event>
<event>
 9    2  0.3726337E-005  0.3132231E+03  0.7546771E-02  0.1123822E+00
         21   -1    0    0  501  502  0.00000000000E+00  0.00000000000E+00  0.14411312431E+03  0.14411312431E+03  0.00000000000E+00 0. -1.
          2   -1    0    0  502    0 -0.00000000000E+00 -0.00000000000E+00 -0.36111804024E+03  0.36111804024E+03  0.00000000000E+00 0. -1.
         23    2    1    2    0    0  0.30909115856E+02  0.12438786314E+02  0.34466120900E+02  0.10355169183E+03  0.91787485763E+02 0.  0.
         24    2    1    2    0    0  0.31065277712E+02  0.45467955086E+02  0.35532718392E+02  0.10240506408E+03  0.78688224366E+02 0.  0.
        -13    1    4    4    0    0  0.45101224975E+02  0.55991376591E+00  0.30034281540E+01  0.45204585811E+02  0.00000000000E+00 0.  1.
         14    1    4    4    0    0 -0.14035947263E+02  0.44908041320E+02  0.32529290238E+02  0.57200478269E+02  0.00000000000E+00 0. -1.
        -11    1    3    3    0    0  0.29558552645E+02  0.50625325022E+02  0.14280154020E+02  0.60337006612E+02  0.00000000000E+00 0. -1.
         11    1    3    3    0    0  0.13505632112E+01 -0.38186538708E+02  0.20185966880E+02  0.43214685216E+02  0.00000000000E+00 0.  1.
          1    1    1    2  501    0 -0.61974393568E+02 -0.57906741400E+02 -0.28700375522E+03  0.29927440864E+03  0.00000000000E+00 0. -1.
<scales pt_clust_5="13000.00000" pt_clust_6="13000.00000" pt_clust_7="13000.00000" pt_clust_8="13000.00000" pt_clust_9="13000.00000"></scales>
<clustering>
<clus scale="   78.688">  5  6 -1 -1</clus>
<clus scale="   84.818">  5  9 -1 -1</clus>
<clus scale="   91.787">  7  8 -1 -1</clus>
<clus scale="   97.648">  2  7  1 -1</clus>
<clus scale="  313.223">  1  5  2 -1</clus>
</clustering>
</event>
<event>
 9    2  0.3726337E-005  0.2704529E+03  0.7546771E-02  0.1143822E+00
         21   -1    0    0  501  502  0.00000000000E+00  0.00000000000E+00  0.10017311725E+03  0.10017311725E+03  0.00000000000E+00 0.  1.
          2   -1    0    0  502    0 -0.00000000000E+00 -0.00000000000E+00 -0.37884514398E+03  0.37884514398E+03  0.00000000000E+00 0. -1.
         23    2    1    2    0    0  0.14554079986E+02  0.12034471122E+02 -0.15680828155E+03  0.18237783884E+03  0.91193142283E+02 0.  0.
         24    2    1    2    0    0  0.56344134098E+02  0.61385639870E+02  0.23707475316E+02  0.11885389395E+03  0.81371650415E+02 0.  0.
        -13    1    4    4    0    0  0.71952056151E+02  0.34309899731E+02  0.14384204780E+00  0.79713789864E+02  0.00000000000E+00 0.  1.
         14    1    4    4    0    0 -0.15607922053E+02  0.27075740139E+02  0.23563633268E+02  0.39140104084E+02  0.00000000000E+00 0. -1.
        -13    1    3    3    0    0  0.49698019824E+02  0.23109234532E+02 -0.10913368458E+03  0.12212326152E+03  0.00000000000E+00 0. -1.
         13    1    3    3    0    0 -0.35143939838E+02 -0.11074763410E+02 -0.47674596966E+02  0.60254577318E+02  0.00000000000E+00 0.  1.
          1    1    1    2  501    0 -0.70898214084E+02 -0.73420110992E+02 -0.14557122050E+03  0.17778652844E+03  0.00000000000E+00 0. -1.
<scales pt_clust_5="13000.00000" pt_clust_6="13000.00000" pt_clust_7="13000.00000" pt_clust_8="13000.00000" pt_clust_9="13000.00000"></scales>
<clustering>
<clus scale="   81.372">  5  6 -1 -1</clus>
<clus scale="   91.193">  7  8 -1 -1</clus>
<clus scale="   93.128">  2  7  1 -1</clus>
<clus scale="   87.579">  5  9 -1 -1</clus>
<clus scale="  270.453">  1  5  2 -1</clus>
</clustering>
</event>
<event>
 9    2  0.3726337E-005  0.4075882E+03  0.7546771E-02  0.1094324E+00
         21   -1    0    0  501  502  0.00000000000E+00  0.00000000000E+00  0.26613915224E+03  0.26613915224E+03  0.00000000000E+00 0. -1.
          2   -1    0    0  502    0 -0.00000000000E+00 -0.00000000000E+00 -0.30131978637E+03  0.30131978637E+03  0.00000000000E+00 0. -1.
         23    2    1    2    0    0 -0.16922324699E+02  0.13495922667E+02 -0.11863932865E+03  0.15141384315E+03  0.91555210625E+02 0.  0.
         24    2    1    2    0    0  0.17217981097E+03 -0.88436485239E+02  0.11727766729E+03  0.24036157922E+03  0.80948985735E+02 0.  0.
        -13    1    4    4    0    0  0.15056183963E+02 -0.35000694894E+02  0.17360578902E+01  0.38141201024E+02  0.00000000000E+00 0.  1.
         14    1    4    4    0    0  0.15712362701E+03 -0.53435790345E+02  0.11554160940E+03  0.20222037819E+03  0.00000000000E+00 0. -1.
        -13    1    3    3    0    0 -0.11487218134E+02  0.52975322929E+02 -0.69941340690E+02  0.88488033978E+02  0.00000000000E+00 0.  1.
         13    1    3    3    0    0 -0.54351065649E+01 -0.39479400261E+02 -0.48697987959E+02  0.62925809170E+02  0.00000000000E+00 0. -1.
          1    1    1    2  501    0 -0.15525748627E+03  0.74940562572E+02 -0.33818972772E+02  0.17568351625E+03  0.00000000000E+00 0. -1.
<scales pt_clust_5="13000.00000" pt_clust_6="13000.00000" pt_clust_7="13000.00000" pt_clust_8="13000.00000" pt_clust_9="13000.00000"></scales>
<clustering>
<clus scale="   80.949">  5  6 -1 -1</clus>
<clus scale="   91.555">  7  8 -1 -1</clus>
<clus scale="   94.079">  2  7  1 -1</clus>
<clus scale="  185.718">  5  9 -1 -1</clus>
<clus scale="  407.588">  1  5  2 -1</clus>
</clustering>
</event>
<event>
 9    2  0.3726337E-005  0.1881330E+03  0.7546771E-02  0.1191214E+00
          2   -1    0    0  502    0 -0.00000000000E+00  0.00000000000E+00  0.53017034455E+03  0.53017034455E+03  0.00000000000E+00 0. -1.
         21   -1    0    0  501  502  0.00000000000E+00 -0.00000000000E+00 -0.51903329564E+02  0.51903329564E+02  0.00000000000E+00 0. -1.
         23    2    1    2    0    0  0.67606342196E+01 -0.12948211069E+02  0.32900104368E+03  0.34191879016E+03  0.91942427510E+02 0.  0.
         24    2    1    2    0    0 -0.47198098409E+02 -0.55171360553E+02  0.70196250139E+02  0.12822863434E+03  0.79016008577E+02 0.  0.
        -13    1    4    4    0    0 -0.41161500837E+02  0.30629199903E+01  0.53064667455E+02  0.67227297745E+02  0.00000000000E+00 0.  1.
         14    1    4    4    0    0 -0.60365975728E+01 -0.58234280543E+02  0.17131582684E+02  0.61001336591E+02  0.00000000000E+00 0. -1.
        -13    1    3    3    0    0 -0.34795304593E+02  0.18550951036E+02  0.11193390860E+03  0.11867624405E+03  0.00000000000E+00 0.  1.
         13    1    3    3    0    0  0.41555938813E+02 -0.31499162105E+02  0.21706713508E+03  0.22324254611E+03  0.00000000000E+00 0. -1.
          1    1    1    2  501    0  0.40437464190E+02  0.68119571622E+02  0.79069721166E+02  0.11192624962E+03  0.00000000000E+00 0. -1.
<scales pt_clust_5="13000.00000" pt_clust_6="13000.00000" pt_clust_7="13000.00000" pt_clust_8="13000.00000" pt_clust_9="13000.00000"></scales>
<clustering>
<clus scale="   79.016">  5  6 -1 -1</clus>
<clus scale="   79.218">  5  9 -1 -1</clus>
<clus scale="   91.942">  7  8 -1 -1</clus>
<clus scale="   93.096">  1  7  2 -1</clus>
<clus scale="  188.133">  2  5  1 -1</clus>
</clustering>
</event>
<event>
 9    2  0.3726337E-005  0.2523954E+03  0.7546771E-02  0.1149861E+00
         -3   -1    0    0    0  501 -0.00000000000E+00  0.00000000000E+00  0.45932260302E+03  0.45932260302E+03  0.00000000000E+00 0.  1.
         21   -1    0    0  501  502  0.00000000000E+00 -0.00000000000E+00 -0.12743910202E+03  0.12743910202E+03  0.00000000000E+00 0. -1.
         23    2    1    2    0    0  0.25302570779E+02  0.22661365033E+02  0.31895783299E+03  0.33403553346E+03  0.93230257084E+02 0.  0.
         24    2    1    2    0    0 -0.26475255177E+02 -0.95921862068E+02 -0.66894929473E+02  0.14437579826E+03  0.80420748406E+02 0.  0.
        -11    1    4    4    0    0  0.28063427493E+02 -0.28835696696E+02 -0.12105287658E+02  0.42018940443E+02  0.00000000000E+00 0.  1.
         12    1    4    4    0    0 -0.54538682670E+02 -0.67086165372E+02 -0.54789641815E+02  0.10235685782E+03  0.00000000000E+00 0. -1.
        -11    1    3    3    0    0 -0.19678661259E+02  0.43305846910E+02  0.19114776970E+03  0.19697745035E+03  0.00000000000E+00 0.  1.
         11    1    3    3    0    0  0.44981232038E+02 -0.20644481877E+02  0.12781006329E+03  0.13705808311E+03  0.00000000000E+00 0. -1.
         -4    1    1    2    0  502  0.11726843977E+01  0.73260497035E+02  0.79820597486E+02  0.10835037332E+03  0.00000000000E+00 0.  1.
<scales pt_clust_5="13000.00000" pt_clust_6="13000.00000" pt_clust_7="13000.00000" pt_clust_8="13000.00000" pt_clust_9="13000.00000"></scales>
<clustering>
<clus scale="   80.421">  5  6 -1 -1</clus>
<clus scale="   73.270">  5  9 -1 -1</clus>
<clus scale="   93.230">  7  8 -1 -1</clus>
<clus scale="   99.225">  1  7  2 -1</clus>
<clus scale="  252.395">  2  5  1 -1</clus>
</clustering>
</event>
<event>
 9    2  0.3726337E-005  0.4336829E+03  0.7546771E-02  0.1076900E+00
         21   -1    0    0  501  502  0.00000000000E+00  0.00000000000E+00  0.14459113247E+04  0.14459113247E+04  0.00000000000E+00 0. -1.
          4   -1    0    0  502    0 -0.00000000000E+00 -0.00000000000E+00 -0.59805523120E+02  0.59805523120E+02  0.00000000000E+00 0. -1.
         23    2    1    2    0    0  0.62492637005E+02 -0.84182886673E+02  0.14467817283E+03  0.19071743784E+03  0.66702918358E+02 0.  0.
         24    2    1    2    0    0 -0.17476436688E+01 -0.14850994650E+03  0.30964845006E+03  0.35268535174E+03  0.80290324693E+02 0.  0.
        -11    1    4    4    0    0 -0.16822193625E+02 -0.17130982572E+02  0.11700255541E+02  0.26708664174E+02  0.00000000000E+00 0.  1.
         12    1    4    4    0    0  0.15074549956E+02 -0.13137896393E+03  0.29794819452E+03  0.32597668756E+03  0.00000000000E+00 0. -1.
        -11    1    3    3    0    0 -0.88693337940E+01 -0.32090086184E+02  0.23508250949E+02  0.40756307192E+02  0.00000000000E+00 0.  1.
         11    1    3    3    0    0  0.71361970798E+02 -0.52092800489E+02  0.12116992188E+03  0.14996113065E+03  0.00000000000E+00 0. -1.
          3    1    1    2  501    0 -0.60744993336E+02  0.23269283317E+03  0.93177917865E+03  0.96231405819E+03  0.00000000000E+00 0. -1.
<scales pt_clust_5="13000.00000" pt_clust_6="13000.00000" pt_clust_7="13000.00000" pt_clust_8="13000.00000" pt_clust_9="13000.00000"></scales>
<clustering>
<clus scale="   66.703">  7  8 -1 -1</clus>
<clus scale="   80.290">  5  6 -1 -1</clus>
<clus scale="  124.263">  2  7  1 -1</clus>
<clus scale="  200.794">  5  9 -1 -1</clus>
<clus scale="  433.683">  1  5  2 -1</clus>
</clustering>
</event>
<event>
 9    2  0.3726337E-005  0.1754845E+03  0.7546771E-02  0.1181386E+00
         21   -1    0    0  501  502  0.00000000000E+00  0.00000000000E+00  0.84634596782E+02  0.84634596782E+02  0.00000000000E+00 0. -1.
          2   -1    0    0  502    0 -0.00000000000E+00 -0.00000000000E+00 -0.32795283493E+03  0.32795283493E+03  0.00000000000E+00 0. -1.
         23    2    1    2    0    0  0.85608808515E+02  0.67710988518E+02 -0.17111781583E+03  0.22283041644E+03  0.91969785987E+02 0.  0.
         24    2    1    2    0    0 -0.71826157871E+02 -0.10994142456E+02 -0.19858766664E+02  0.11135796552E+03  0.82014375249E+02 0.  0.
        -13    1    4    4    0    0  0.17374577631E+01  0.20939825131E+02 -0.22932765284E+02  0.31103163176E+02  0.00000000000E+00 0.  1.
         14    1    4    4    0    0 -0.73563615634E+02 -0.31933967587E+02  0.30739986195E+01  0.80254802339E+02  0.00000000000E+00 0. -1.
        -13    1    3    3    0    0  0.55874647598E+02  0.88288835870E+02 -0.14258145790E+03  0.17676641910E+03  0.00000000000E+00 0. -1.
         13    1    3    3    0    0  0.29734160917E+02 -0.20577847352E+02 -0.28536357923E+02  0.46063997336E+02  0.00000000000E+00 0.  1.
          1    1    1    2  501    0 -0.13782650644E+02 -0.56716846063E+02 -0.52341655654E+02  0.78399049756E+02  0.00000000000E+00 0. -1.
<scales pt_clust_5="13000.00000" pt_clust_6="13000.00000" pt_clust_7="13000.00000" pt_clust_8="13000.00000" pt_clust_9="13000.00000"></scales>
<clustering>
<clus scale="   82.014">  5  6 -1 -1</clus>
<clus scale="   58.368">  5  9 -1 -1</clus>
<clus scale="   91.970">  7  8 -1 -1</clus>
<clus scale="  142.731">  2  7  1 -1</clus>
<clus scale="  175.485">  1  5  2 -1</clus>
</clustering>
</event>
<event>
 9    2  0.3726337E-005  0.3398165E+03  0.7546771E-02  0.1101787E+00
          2   -1    0    0  502    0 -0.00000000000E+00  0.00000000000E+00  0.63974941813E+03  0.63974941813E+03  0.00000000000E+00 0. -1.
         21   -1    0    0  501  502  0.00000000000E+00 -0.00000000000E+00 -0.96376438232E+02  0.96376438232E+02  0.00000000000E+00 0. -1.
         23    2    1    2    0    0  0.18392593756E+02  0.96624623034E+02  0.26516764317E+03  0.29695225465E+03  0.90510536823E+02 0.  0.
         24    2    1    2    0    0 -0.13114009437E+03  0.40873373743E+02  0.10159536202E+03  0.18855680024E+03  0.79772754129E+02 0.  0.
        -11    1    4    4    0    0 -0.34687334289E+02  0.23309376301E+02  0.76794505645E+02  0.87429596138E+02  0.00000000000E+00 0.  1.
         12    1    4    4    0    0 -0.96452760079E+02  0.17563997443E+02  0.24800856378E+02  0.10112720411E+03  0.00000000000E+00 0. -1.
        -13    1    3    3    0    0  0.50986847654E+02  0.34655254613E+02  0.98876270015E+02  0.11652107997E+03  0.00000000000E+00 0.  1.
         13    1    3    3    0    0 -0.32594253898E+02  0.61969368421E+02  0.16629137316E+03  0.18043117468E+03  0.00000000000E+00 0. -1.
          1    1    1    2  501    0  0.11274750061E+03 -0.13749799678E+03  0.17660997470E+03  0.25061680147E+03  0.00000000000E+00 0. -1.
<scales pt_clust_5="13000.00000" pt_clust_6="13000.00000" pt_clust_7="13000.00000" pt_clust_8="13000.00000" pt_clust_9="13000.00000"></scales>
<clustering>
<clus scale="   79.773">  5  6 -1 -1</clus>
<clus scale="   90.511">  7  8 -1 -1</clus>
<clus scale="  133.667">  1  7  2 -1</clus>
<clus scale="  147.291">  5  9 -1 -1</clus>
<clus scale="  339.816">  2  5  1 -1</clus>
</clustering>
</event>
<event>
 9    2  0.3726337E-005  0.4292823E+03  0.7546771E-02  0.1080866E+00
          2   -1    0    0  502    0 -0.00000000000E+00  0.00000000000E+00  0.14834664376E+03  0.14834664376E+03  0.00000000000E+00 0. -1.
         21   -1    0    0  501  502  0.00000000000E+00 -0.00000000000E+00 -0.50111248508E+03  0.50111248508E+03  0.00000000000E+00 0. -1.
         23    2    1    2    0    0  0.42676615664E+02  0.54997044079E+02 -0.59683371857E+02  0.12967007402E+03  0.91685630495E+02 0.  0.
         24    2    1    2    0    0  0.72123341135E+01  0.17630014334E+03 -0.13099722100E+03  0.23298088898E+03  0.77369660818E+02 0.  0.
        -11    1    4    4    0    0 -0.26940282537E+02  0.13312204203E+03 -0.78309770814E+02  0.15677907100E+03  0.00000000000E+00 0.  1.
         12    1    4    4    0    0  0.34152616650E+02  0.43178101304E+02 -0.52687450185E+02  0.76201817979E+02  0.00000000000E+00 0. -1.
        -11    1    3    3    0    0 -0.22253814976E+02  0.35567782467E+02 -0.42564423820E+02  0.59766458869E+02  0.00000000000E+00 0. -1.
         11    1    3    3    0    0  0.64930430641E+02  0.19429261612E+02 -0.17118948038E+02  0.69903615156E+02  0.00000000000E+00 0.  1.
          1    1    1    2  501    0 -0.49888949778E+02 -0.23129718742E+03 -0.16208524846E+03  0.28680816583E+03  0.00000000000E+00 0. -1.
<scales pt_clust_5="13000.00000" pt_clust_6="13000.00000" pt_clust_7="13000.00000" pt_clust_8="13000.00000" pt_clust_9="13000.00000"></scales>
<clustering>
<clus scale="   77.370">  5  6 -1 -1</clus>
<clus scale="   91.686">  7  8 -1 -1</clus>
<clus scale="  115.118">  1  7  2 -1</clus>
<clus scale="  202.768">  5  9 -1 -1</clus>
<clus scale="  429.282">  2  5  1 -1</clus>
</clustering>
</event>
<event>
 9    2  0.3726337E-005  0.1756456E+03  0.7546771E-02  0.1199127E+00
         -1   -1    0    0    0  501 -0.00000000000E+00  0.00000000000E+00  0.16245878264E+03  0.16245878264E+03  0.00000000000E+00 0.  1.
         21   -1    0    0  501  502  0.00000000000E+00 -0.00000000000E+00 -0.11546425021E+03  0.11546425021E+03  0.00000000000E+00 0.  1.
         23    2    1    2    0    0 -0.21301289609E+01 -0.32924053100E+02  0.33092912456E+02  0.10172816306E+03  0.90360099504E+02 0.  0.
         24    2    1    2    0    0 -0.63594726646E+02  0.35538429440E+02  0.23204875029E+02  0.10976338507E+03  0.78754461802E+02 0.  0.
        -13    1    4    4    0    0 -0.63896531622E+02  0.52875205956E+02  0.27972945282E+01  0.82984209431E+02  0.00000000000E+00 0.  1.
         14    1    4    4    0    0  0.30180497682E+00 -0.17336776516E+02  0.20407580501E+02  0.26779175643E+02  0.00000000000E+00 0. -1.
        -13    1    3    3    0    0 -0.38177893396E+02 -0.41885178185E+02  0.88208470539E+01  0.57356142117E+02  0.00000000000E+00 0.  1.
         13    1    3    3    0    0  0.36047764435E+02  0.89611250856E+01  0.24272065402E+02  0.44372020941E+02  0.00000000000E+00 0. -1.
         -2    1    1    2    0  502  0.65724855607E+02 -0.26143763398E+01 -0.93032550566E+01  0.66431484725E+02  0.00000000000E+00 0.  1.
<scales pt_clust_5="13000.00000" pt_clust_6="13000.00000" pt_clust_7="13000.00000" pt_clust_8="13000.00000" pt_clust_9="13000.00000"></scales>
<clustering>
<clus scale="   78.754">  5  6 -1 -1</clus>
<clus scale="   65.777">  5  9 -1 -1</clus>
<clus scale="   90.360">  7  8 -1 -1</clus>
<clus scale="   96.195">  1  7  2 -1</clus>
<clus scale="  175.646">  2  5  1 -1</clus>
</clustering>
</event>
<event>
 9    2  0.3726337E-005  0.1593554E+03  0.7546771E-02  0.1213444E+00
          2   -1    0    0  502    0 -0.00000000000E+00  0.00000000000E+00  0.60406568981E+02  0.60406568981E+02  0.00000000000E+00 0. -1.
         21   -1    0    0  501  502  0.00000000000E+00 -0.00000000000E+00 -0.26916331860E+03  0.26916331860E+03  0.00000000000E+00 0. -1.
         23    2    1    2    0    0  0.12687886119E+02 -0.18999780463E+02 -0.64138784013E+02  0.11437578881E+03  0.91902466450E+02 0.  0.
         24    2    1    2    0    0  0.38482875791E+01 -0.17548713345E+02 -0.15295897608E+03  0.17422081606E+03  0.81447392385E+02 0.  0.
        -13    1    4    4    0    0  0.35793285352E+02  0.11174401436E+02 -0.48738227239E+02  0.61493424999E+02  0.00000000000E+00 0.  1.
         14    1    4    4    0    0 -0.31944997773E+02 -0.28723114781E+02 -0.10422074885E+03  0.11272739106E+03  0.00000000000E+00 0. -1.
        -13    1    3    3    0    0 -0.20769267296E+02  0.10218708589E+02  0.12116360414E+02  0.26126436016E+02  0.00000000000E+00 0.  1.
         13    1    3    3    0    0  0.33457153415E+02 -0.29218489052E+02 -0.76255144427E+02  0.88249352795E+02  0.00000000000E+00 0. -1.
          1    1    1    2  501    0 -0.16536173698E+02  0.36548493808E+02  0.83410104800E+01  0.40973282710E+02  0.00000000000E+00 0. -1.
<scales pt_clust_5="13000.00000" pt_clust_6="13000.00000" pt_clust_7="13000.00000" pt_clust_8="13000.00000" pt_clust_9="13000.00000"></scales>
<clustering>
<clus scale="   81.447">  5  6 -1 -1</clus>
<clus scale="   40.115">  5  9 -1 -1</clus>
<clus scale="   91.902">  7  8 -1 -1</clus>
<clus scale="   94.700">  1  7  2 -1</clus>
<clus scale="  159.355">  2  5  1 -1</clus>
</clustering>
</event>
<event>
 9    2  0.3726337E-005  0.2391072E+03  0.7546771E-02  0.1140740E+00
         -1   -1    0    0    0  501 -0.00000000000E+00  0.00000000000E+00  0.19654785664E+03  0.19654785664E+03  0.00000000000E+00 0.  1.
         21   -1    0    0  501  502  0.00000000000E+00 -0.00000000000E+00 -0.20408647582E+03  0.20408647582E+03  0.00000000000E+00 0.  1.
         23    2    1    2    0    0  0.37091254386E+00  0.11238243093E+03  0.52119830951E+02  0.15419696662E+03  0.91816552848E+02 0.  0.
         24    2    1    2    0    0 -0.54461923120E+02 -0.33262149446E+02  0.38009124462E+02  0.10959873279E+03  0.80589807244E+02 0.  0.
        -13    1    4    4    0    0 -0.69710012915E+02 -0.12093406802E+02  0.10225397948E+02  0.71486328426E+02  0.00000000000E+00 0.  1.
         14    1    4    4    0    0  0.15248089795E+02 -0.21168742645E+02  0.27783726514E+02  0.38112404366E+02  0.00000000000E+00 0. -1.
        -13    1    3    3    0    0  0.37301066087E+02  0.55114142220E+02 -0.29017173223E+01  0.66613498387E+02  0.00000000000E+00 0. -1.
         13    1    3    3    0    0 -0.36930153543E+02  0.57268288713E+02  0.55021548273E+02  0.87583468230E+02  0.00000000000E+00 0.  1.
         -2    1    1    2    0  502  0.54091010576E+02 -0.79120281487E+02 -0.97667574599E+02  0.13683863305E+03  0.00000000000E+00 0.  1.
<scales pt_clust_5="13000.00000" pt_clust_6="13000.00000" pt_clust_7="13000.00000" pt_clust_8="13000.00000" pt_clust_9="13000.00000"></scales>
<clustering>
<clus scale="   80.590">  5  6 -1 -1</clus>
<clus scale="   91.817">  7  8 -1 -1</clus>
<clus scale="   95.843">  5  9 -1 -1</clus>
<clus scale="  145.121">  1  7  2 -1</clus>
<clus scale="  239.107">  2  5  1 -1</clus>
</clustering>
</event>
<event>
 9    2  0.3726337E-005  0.5555203E+03  0.7546771E-02  0.1061187E+00
          4   -1    0    0  502    0 -0.00000000000E+00  0.00000000000E+00  0.33831563665E+03  0.33831563665E+03  0.00000000000E+00 0. -1.
         21   -1    0    0  501  502  0.00000000000E+00 -0.00000000000E+00 -0.30912624870E+03  0.30912624870E+03  0.00000000000E+00 0.  1.
         23    2    1    2    0    0 -0.73723729403E+01  0.54767194450E+01 -0.11323941914E+01  0.91094701156E+02  0.90623484392E+02 0.  0.
         24    2    1    2    0    0 -0.15553053273E+03  0.17999104685E+03 -0.10776842298E+03  0.27349642185E+03  0.81238760545E+02 0.  0.
        -13    1    4    4    0    0 -0.15305309984E+03  0.17838833286E+03 -0.84093706220E+02  0.24963853888E+03  0.00000000000E+00 0.  1.
         14    1    4    4    0    0 -0.24774328925E+01  0.16027139930E+01 -0.23674716764E+02  0.23857882968E+02  0.00000000000E+00 0. -1.
        -13    1    3    3    0    0 -0.35392293244E+01  0.45779947566E+02  0.13796984952E+02  0.47944619481E+02  0.00000000000E+00 0. -1.
         13    1    3    3    0    0 -0.38331436159E+01 -0.40303228121E+02 -0.14929379143E+02  0.43150081675E+02  0.00000000000E+00 0.  1.
          3    1    1    2  501    0  0.16290290567E+03 -0.18546776629E+03  0.13809020512E+03  0.28285076235E+03  0.00000000000E+00 0. -1.
<scales pt_clust_5="13000.00000" pt_clust_6="13000.00000" pt_clust_7="13000.00000" pt_clust_8="13000.00000" pt_clust_9="13000.00000"></scales>
<clustering>
<clus scale="   81.239">  5  6 -1 -1</clus>
<clus scale="   90.623">  7  8 -1 -1</clus>
<clus scale="   91.088">  1  7  2 -1</clus>
<clus scale="  240.412">  5  9 -1 -1</clus>
<clus scale="  555.520">  2  5  1 -1</clus>
</clustering>
</event>
<event>
 9    2  0.3726337E-005  0.4293531E+03  0.7546771E-02  0.1072803E+00
         -1   -1    0    0    0  501 -0.00000000000E+00  0.00000000000E+00  0.20955737736E+03  0.20955737736E+03  0.00000000000E+00 0.  1.
         21   -1    0    0  501  502  0.00000000000E+00 -0.00000000000E+00 -0.46299279997E+03  0.46299279997E+03  0.00000000000E+00 0. -1.
         23    2    1    2    0    0 -0.10251423090E+03 -0.40794194123E+02 -0.19097698071E+03  0.23867789572E+03  0.91222787370E+02 0.  0.
         24    2    1    2    0    0 -0.55536818164E+02 -0.95592205999E+02  0.98479301076E+02  0.17027724873E+03  0.84106840831E+02 0.  0.
        -13    1    4    4    0    0 -0.40130134760E+02 -0.81262805255E+02  0.25246998241E+02  0.94082315841E+02  0.00000000000E+00 0.  1.
         14    1    4    4    0    0 -0.15406683404E+02 -0.14329400744E+02  0.73232302835E+02  0.76194932888E+02  0.00000000000E+00 0. -1.
        -13    1    3    3    0    0 -0.27150914962E+02  0.80666904641E+01 -0.77355747596E+00  0.28334467871E+02  0.00000000000E+00 0.  1.
         13    1    3    3    0    0 -0.75363315934E+02 -0.48860884587E+02 -0.19020342323E+03  0.21034342785E+03  0.00000000000E+00 0. -1.
         -2    1    1    2    0  502  0.15805104906E+03  0.13638640012E+03 -0.16093774297E+03  0.26359503288E+03  0.00000000000E+00 0.  1.
<scales pt_clust_5="13000.00000" pt_clust_6="13000.00000" pt_clust_7="13000.00000" pt_clust_8="13000.00000" pt_clust_9="13000.00000"></scales>
<clustering>
<clus scale="   84.107">  5  6 -1 -1</clus>
<clus scale="   91.223">  7  8 -1 -1</clus>
<clus scale="  143.161">  1  7  2 -1</clus>
<clus scale="  180.220">  5  9 -1 -1</clus>
<clus scale="  429.353">  2  5  1 -1</clus>
</clustering>
</event>
<event>
 9    2  0.3726337E-005  0.4861363E+03  0.7546771E-02  0.1034628E+00
          4   -1    0    0  502    0 -0.00000000000E+00  0.00000000000E+00  0.15705314989E+03  0.15705314989E+03  0.00000000000E+00 0. -1.
         21   -1    0    0  501  502  0.00000000000E+00 -0.00000000000E+00 -0.96196275599E+03  0.96196275599E+03  0.00000000000E+00 0. -1.
         23    2    1    2    0    0  0.11409443402E+03 -0.25174141619E+03 -0.31684323596E+03  0.43014926971E+03  0.90815623967E+02 0.  0.
         24    2    1    2    0    0  0.94227535779E+01 -0.84262918601E+02 -0.18214003377E+03  0.21796714381E+03  0.84531982950E+02 0.  0.
        -13    1    4    4    0    0 -0.31521871218E+02 -0.17038491994E+02 -0.30249750290E+02  0.46893346726E+02  0.00000000000E+00 0.  1.
         14    1    4    4    0    0  0.40944624796E+02 -0.67224426607E+02 -0.15189028348E+03  0.17107379708E+03  0.00000000000E+00 0. -1.
        -13    1    3    3    0    0 -0.77543722116E+01 -0.24277374876E+02 -0.63958719698E+02  0.68849393931E+02  0.00000000000E+00 0.  1.
         13    1    3    3    0    0  0.12184880623E+03 -0.22746404131E+03 -0.25288451626E+03  0.36129987578E+03  0.00000000000E+00 0. -1.
          3    1    1    2  501    0 -0.12351718760E+03  0.33600433479E+03 -0.30592633637E+03  0.47089949237E+03  0.00000000000E+00 0. -1.
<scales pt_clust_5="13000.00000" pt_clust_6="13000.00000" pt_clust_7="13000.00000" pt_clust_8="13000.00000" pt_clust_9="13000.00000"></scales>
<clustering>
<clus scale="   84.532">  5  6 -1 -1</clus>
<clus scale="   90.816">  7  8 -1 -1</clus>
<clus scale="  290.928">  1  7  2 -1</clus>
<clus scale="  132.567">  5  9 -1 -1</clus>
<clus scale="  486.136">  2  5  1 -1</clus>
</clustering>
</event>
<event>
 9    2  0.3726337E-005  0.5894865E+03  0.7546771E-02  0.1032572E+00
         -1   -1    0    0    0  501 -0.00000000000E+00  0.00000000000E+00  0.69191842179E+03  0.69191842179E+03  0.00000000000E+00 0.  1.
         21   -1    0    0  501  502  0.00000000000E+00 -0.00000000000E+00 -0.21597471783E+03  0.21597471783E+03  0.00000000000E+00 0.  1.
         23    2    1    2    0    0  0.82615684650E+01  0.14782672012E+03  0.49362995637E+02  0.18024941153E+03  0.90178447121E+02 0.  0.
         24    2    1    2    0    0 -0.22061083761E+03  0.95068015918E+02  0.26710775845E+03  0.36775251307E+03  0.78665665455E+02 0.  0.
        -11    1    4    4    0    0 -0.14124366511E+03  0.64181747965E+02  0.11389557776E+03  0.19246109305E+03  0.00000000000E+00 0.  1.
         12    1    4    4    0    0 -0.79367172496E+02  0.30886267953E+02  0.15321218069E+03  0.17529142001E+03  0.00000000000E+00 0. -1.
        -13    1    3    3    0    0  0.42987390319E+02  0.88078398060E+02  0.50155076877E+01  0.98137022823E+02  0.00000000000E+00 0.  1.
         13    1    3    3    0    0 -0.34725821854E+02  0.59748322060E+02  0.44347487949E+02  0.82112388711E+02  0.00000000000E+00 0. -1.
         -2    1    1    2    0  502  0.21234926914E+03 -0.24289473604E+03  0.15947294987E+03  0.35989121501E+03  0.00000000000E+00 0.  1.
<scales pt_clust_5="13000.00000" pt_clust_6="13000.00000" pt_clust_7="13000.00000" pt_clust_8="13000.00000" pt_clust_9="13000.00000"></scales>
<clustering>
<clus scale="   78.666">  5  6 -1 -1</clus>
<clus scale="   90.178">  7  8 -1 -1</clus>
<clus scale="  173.359">  1  7  2 -1</clus>
<clus scale="  278.916">  5  9 -1 -1</clus>
<clus scale="  589.486">  2  5  1 -1</clus>
</clustering>
</event>
<event>
 9    2  0.3726337E-005  0.1357131E+03  0.7546771E-02  0.1231802E+00
          4   -1    0    0  502    0 -0.00000000000E+00  0.00000000000E+00  0.96088822780E+02  0.96088822780E+02  0.00000000000E+00 0. -1.
         21   -1    0    0  501  502  0.00000000000E+00 -0.00000000000E+00 -0.15008110450E+03  0.15008110450E+03  0.00000000000E+00 0. -1.
         23    2    1    2    0    0 -0.38056718532E+02 -0.34857292027E+02 -0.22240798658E+02  0.10679196769E+03  0.90810388206E+02 0.  0.
         24    2    1    2    0    0  0.10826177374E+02 -0.10375892658E+02 -0.27463370387E+02  0.86406917694E+02  0.80542246352E+02 0.  0.
        -13    1    4    4    0    0  0.34902591624E+02 -0.28010616135E+02  0.15569523583E+01  0.44779566980E+02  0.00000000000E+00 0.  1.
         14    1    4    4    0    0 -0.24076414250E+02  0.17634723477E+02 -0.29020322746E+02  0.41627350714E+02  0.00000000000E+00 0. -1.
        -11    1    3    3    0    0  0.13474365431E+01  0.26783252333E+02 -0.20253429609E+02  0.33605945928E+02  0.00000000000E+00 0.  1.
         11    1    3    3    0    0 -0.39404155076E+02 -0.61640544360E+02 -0.19873690494E+01  0.73186021766E+02  0.00000000000E+00 0. -1.
          3    1    1    2  501    0  0.27230541159E+02  0.45233184685E+02 -0.42881126726E+01  0.52971041889E+02  0.00000000000E+00 0. -1.
<scales pt_clust_5="13000.00000" pt_clust_6="13000.00000" pt_clust_7="13000.00000" pt_clust_8="13000.00000" pt_clust_9="13000.00000"></scales>
<clustering>
<clus scale="   80.542">  5  6 -1 -1</clus>
<clus scale="   52.797">  5  9 -1 -1</clus>
<clus scale="   90.810">  7  8 -1 -1</clus>
<clus scale="  104.450">  1  7  2 -1</clus>
<clus scale="  135.713">  2  5  1 -1</clus>
</clustering>
</event>
<event>
 9    2  0.3726337E-005  0.4200970E+03  0.7546771E-02  0.1081098E+00
         21   -1    0    0  501  502  0.00000000000E+00  0.00000000000E+00  0.64472921605E+03  0.64472921605E+03  0.00000000000E+00 0.  1.
         -1   -1    0    0    0  501 -0.00000000000E+00 -0.00000000000E+00 -0.17207721387E+03  0.17207721387E+03  0.00000000000E+00 0.  1.
         23    2    1    2    0    0 -0.18513519308E+02 -0.78224763753E+02 -0.61952789219E+02  0.13689192267E+03  0.91866132705E+02 0.  0.
         24    2    1    2    0    0 -0.12910395089E+03 -0.84663358650E+02  0.35664348284E+03  0.39708295798E+03  0.81514337547E+02 0.  0.
        -11    1    4    4    0    0 -0.85055036606E+02 -0.75751363552E+02  0.31810363608E+03  0.33787949274E+03  0.00000000000E+00 0.  1.
         12    1    4    4    0    0 -0.44048914288E+02 -0.89119950977E+01  0.38539846767E+02  0.59203465232E+02  0.00000000000E+00 0. -1.
        -11    1    3    3    0    0 -0.39555825169E+02  0.18958495673E+00 -0.29983795536E+02  0.49635947074E+02  0.00000000000E+00 0. -1.
         11    1    3    3    0    0  0.21042305861E+02 -0.78414348710E+02 -0.31968993684E+02  0.87255975593E+02  0.00000000000E+00 0.  1.
         -2    1    1    2    0  502  0.14761747020E+03  0.16288812240E+03  0.17796130855E+03  0.28283154928E+03  0.00000000000E+00 0.  1.
<scales pt_clust_5="13000.00000" pt_clust_6="13000.00000" pt_clust_7="13000.00000" pt_clust_8="13000.00000" pt_clust_9="13000.00000"></scales>
<clustering>
<clus scale="   81.514">  5  6 -1 -1</clus>
<clus scale="   91.866">  7  8 -1 -1</clus>
<clus scale="  122.071">  2  7  1 -1</clus>
<clus scale="  171.327">  5  9 -1 -1</clus>
<clus scale="  420.097">  1  5  2 -1</clus>
</clustering>
</event>
<event>
 9    2  0.3726337E-005  0.6512749E+03  0.7546771E-02  0.1041390E+00
         21   -1    0    0  501  502  0.00000000000E+00  0.00000000000E+00  0.74088972761E+03  0.74088972761E+03  0.00000000000E+00 0. -1.
         -3   -1    0    0    0  501 -0.00000000000E+00 -0.00000000000E+00 -0.21196885989E+03  0.21196885989E+03  0.00000000000E+00 0.  1.
         23    2    1    2    0    0 -0.20062509035E+02 -0.40725986734E+02 -0.19773842102E+02  0.10125723775E+03  0.88322777929E+02 0.  0.
         24    2    1    2    0    0  0.15275485533E+03 -0.17204561741E+03  0.54916999276E+03  0.60084401648E+03  0.80573636504E+02 0.  0.
        -11    1    4    4    0    0  0.68823426096E+02 -0.23291239724E+02  0.15015684061E+03  0.16681193785E+03  0.00000000000E+00 0.  1.
         12    1    4    4    0    0  0.83931429231E+02 -0.14875437769E+03  0.39901315215E+03  0.43403207863E+03  0.00000000000E+00 0. -1.
        -11    1    3    3    0    0 -0.13088234915E+02 -0.68133192069E+02 -0.22272791702E+02  0.72866391463E+02  0.00000000000E+00 0. -1.
         11    1    3    3    0    0 -0.69742741202E+01  0.27407205335E+02  0.24989495998E+01  0.28390846287E+02  0.00000000000E+00 0.  1.
         -4    1    1    2    0  502 -0.13269234629E+03  0.21277160414E+03 -0.47528294149E+00  0.25075733327E+03  0.00000000000E+00 0.  1.
<scales pt_clust_5="13000.00000" pt_clust_6="13000.00000" pt_clust_7="13000.00000" pt_clust_8="13000.00000" pt_clust_9="13000.00000"></scales>
<clustering>
<clus scale="   80.574">  5  6 -1 -1</clus>
<clus scale="   88.323">  7  8 -1 -1</clus>
<clus scale="   99.308">  2  7  1 -1</clus>
<clus scale="  233.107">  5  9 -1 -1</clus>
<clus scale="  651.275">  1  5  2 -1</clus>
</clustering>
</event>
<event>
 9    2  0.3726337E-005  0.1183023E+03  0.7546771E-02  0.1255903E+00
         -3   -1    0    0    0  501 -0.00000000000E+00  0.00000000000E+00  0.11601324424E+03  0.11601324424E+03  0.00000000000E+00 0.  1.
         21   -1    0    0  501  502  0.00000000000E+00 -0.00000000000E+00 -0.24250006741E+03  0.24250006741E+03  0.00000000000E+00 0.  1.
         23    2    1    2    0    0  0.29039402013E+01  0.34726389097E+02  0.76548543432E+02  0.12352650259E+03  0.90469676529E+02 0.  0.
         24    2    1    2    0    0 -0.16326182095E+02 -0.45657990608E+01 -0.16816529780E+03  0.18696869304E+03  0.79939564986E+02 0.  0.
        -11    1    4    4    0    0  0.25187595935E+01 -0.33329994519E+02 -0.13542086127E+03  0.13948491801E+03  0.00000000000E+00 0.  1.
         12    1    4    4    0    0 -0.18844941688E+02  0.28764195459E+02 -0.32744436530E+02  0.47483775032E+02  0.00000000000E+00 0. -1.
        -11    1    3    3    0    0  0.23328532450E+02  0.58647541392E+02  0.37618724145E+02  0.73477363480E+02  0.00000000000E+00 0.  1.
         11    1    3    3    0    0 -0.20424592249E+02 -0.23921152295E+02  0.38929819287E+02  0.50049139107E+02  0.00000000000E+00 0. -1.
         -4    1    1    2    0  502  0.13422241894E+02 -0.30160590036E+02 -0.34870068798E+02  0.48018116027E+02  0.00000000000E+00 0.  1.
<scales pt_clust_5="13000.00000" pt_clust_6="13000.00000" pt_clust_7="13000.00000" pt_clust_8="13000.00000" pt_clust_9="13000.00000"></scales>
<clustering>
<clus scale="   79.940">  5  6 -1 -1</clus>
<clus scale="   33.012">  5  9 -1 -1</clus>
<clus scale="   90.470">  7  8 -1 -1</clus>
<clus scale="   96.949">  1  7  2 -1</clus>
<clus scale="  118.302">  2  5  1 -1</clus>
</clustering>
</event>
<event>
 9    2  0.3726337E-005  0.1495168E+03  0.7546771E-02  0.1215510E+00
          2   -1    0    0  502    0 -0.00000000000E+00  0.00000000000E+00  0.69196521255E+03  0.69196521255E+03  0.00000000000E+00 0. -1.
         21   -1    0    0  501  502  0.00000000000E+00 -0.00000000000E+00 -0.24320345731E+02  0.24320345731E+02  0.00000000000E+00 0. -1.
         23    2    1    2    0    0 -0.63794675629E+01  0.69656608444E+02  0.29636788751E+03  0.31603331418E+03  0.84559979978E+02 0.  0.
         24    2    1    2    0    0  0.58657554464E+01 -0.10629901955E+01  0.18661457124E+03  0.20326099223E+03  0.80339876316E+02 0.  0.
        -13    1    4    4    0    0  0.33659346917E+02 -0.23016938208E+02  0.13210618859E+03  0.13825619749E+03  0.00000000000E+00 0.  1.
         14    1    4    4    0    0 -0.27793591470E+02  0.21953948013E+02  0.54508382652E+02  0.65004794742E+02  0.00000000000E+00 0. -1.
        -11    1    3    3    0    0 -0.44694294851E+02  0.35459912250E+02  0.18030089062E+03  0.18911212687E+03  0.00000000000E+00 0.  1.
         11    1    3    3    0    0  0.38314827288E+02  0.34196696193E+02  0.11606699689E+03  0.12692118731E+03  0.00000000000E+00 0. -1.
          1    1    1    2  501    0  0.51371211640E+00 -0.68593618248E+02  0.18466240806E+03  0.19699125188E+03  0.00000000000E+00 0. -1.
<scales pt_clust_5="13000.00000" pt_clust_6="13000.00000" pt_clust_7="13000.00000" pt_clust_8="13000.00000" pt_clust_9="13000.00000"></scales>
<clustering>
<clus scale="   80.340">  5  6 -1 -1</clus>
<clus scale="   68.596">  5  9 -1 -1</clus>
<clus scale="   84.560">  7  8 -1 -1</clus>
<clus scale="  109.741">  1  7  2 -1</clus>
<clus scale="  149.517">  2  5  1 -1</clus>
</clustering>
</event>
<event>
 9    2  0.3726337E-005  0.1573981E+03  0.7546771E-02  0.1215382E+00
          2   -1    0    0  502    0 -0.00000000000E+00  0.00000000000E+00  0.17525156681E+03  0.17525156681E+03  0.00000000000E+00 0. -1.
         21   -1    0    0  501  502  0.00000000000E+00 -0.00000000000E+00 -0.91037885567E+02  0.91037885567E+02  0.00000000000E+00 0. -1.
         23    2    1    2    0    0  0.27575208970E+02 -0.96154197359E+00  0.20750443626E+02  0.96578720294E+02  0.90197292589E+02 0.  0.
         24    2    1    2    0    0 -0.15520821839E+01 -0.88604067788E+01 -0.20029096949E+02  0.81707074565E+02  0.78701750565E+02 0.  0.
        -11    1    4    4    0    0  0.38297623153E+02 -0.87525761598E+01 -0.81163680431E+01  0.40114722469E+02  0.00000000000E+00 0.  1.
         12    1    4    4    0    0 -0.39849705337E+02 -0.10783061900E+00 -0.11912728906E+02  0.41592352096E+02  0.00000000000E+00 0. -1.
        -13    1    3    3    0    0  0.10159511832E+02 -0.45347529331E+02  0.13149908350E+02  0.48296316492E+02  0.00000000000E+00 0. -1.
         13    1    3    3    0    0  0.17415697138E+02  0.44385987357E+02  0.76005352754E+01  0.48282403803E+02  0.00000000000E+00 0.  1.
          1    1    1    2  501    0 -0.26023126786E+02  0.98219487524E+01  0.83492334570E+02  0.88003657520E+02  0.00000000000E+00 0. -1.
<scales pt_clust_5="13000.00000" pt_clust_6="13000.00000" pt_clust_7="13000.00000" pt_clust_8="13000.00000" pt_clust_9="13000.00000"></scales>
<clustering>
<clus scale="   78.702">  5  6 -1 -1</clus>
<clus scale="   27.815">  5  9 -1 -1</clus>
<clus scale="   90.197">  7  8 -1 -1</clus>
<clus scale="   94.323">  1  7  2 -1</clus>
<clus scale="  157.398">  2  5  1 -1</clus>
</clustering>
</event>
<event>
 9    2  0.3726337E-005  0.3205640E+03  0.7546771E-02  0.1099476E+00
          2   -1    0    0  502    0 -0.00000000000E+00  0.00000000000E+00  0.15947780630E+03  0.15947780630E+03  0.00000000000E+00 0. -1.
         21   -1    0    0  501  502  0.00000000000E+00 -0.00000000000E+00 -0.88343234138E+03  0.88343234138E+03  0.00000000000E+00 0. -1.
         23    2    1    2    0    0  0.12082346166E+03 -0.73794764983E+02  0.72818425424E+02  0.18406882108E+03  0.92384152238E+02 0.  0.
         24    2    1    2    0    0  0.37885621079E+02  0.45639353720E+01 -0.74944443114E+02  0.11653553433E+03  0.80670387494E+02 0.  0.
        -13    1    4    4    0    0  0.61172599201E+01  0.34759294808E+02 -0.74694738067E+01  0.36075233657E+02  0.00000000000E+00 0.  1.
         14    1    4    4    0    0  0.31768361159E+02 -0.30195359436E+02 -0.67474969307E+02  0.80460300678E+02  0.00000000000E+00 0. -1.
        -11    1    3    3    0    0  0.57400377957E+02 -0.35072390308E+02 -0.15112438963E+02  0.68943903015E+02  0.00000000000E+00 0.  1.
         11    1    3    3    0    0  0.63423083707E+02 -0.38722374675E+02  0.87930864387E+02  0.11512491806E+03  0.00000000000E+00 0. -1.
          1    1    1    2  501    0 -0.15870908274E+03  0.69230829611E+02 -0.72182851739E+03  0.74230579227E+03  0.00000000000E+00 0. -1.
<scales pt_clust_5="13000.00000" pt_clust_6="13000.00000" pt_clust_7="13000.00000" pt_clust_8="13000.00000" pt_clust_9="13000.00000"></scales>
<clustering>
<clus scale="   80.670">  5  6 -1 -1</clus>
<clus scale="   92.384">  7  8 -1 -1</clus>
<clus scale="  169.053">  1  7  2 -1</clus>
<clus scale="  127.041">  5  9 -1 -1</clus>
<clus scale="  320.564">  2  5  1 -1</clus>
</clustering>
</event>
<event>
 9    2  0.3726337E-005  0.2014837E+03  0.7546771E-02  0.1171929E+00
         21   -1    0    0  501  502  0.00000000000E+00  0.00000000000E+00  0.71633165623E+03  0.71633165623E+03  0.00000000000E+00 0.  1.
         -3   -1    0    0    0  501 -0.00000000000E+00 -0.00000000000E+00 -0.46239436637E+02  0.46239436637E+02  0.00000000000E+00 0.  1.
         23    2    1    2    0    0 -0.71969778190E+02 -0.14464299812E+02  0.44681749722E+03  0.46182655069E+03  0.90824127635E+02 0.  0.
         24    2    1    2    0    0  0.34931527446E+01  0.56639170851E+02  0.52568999312E+02  0.11204315939E+03  0.81055364330E+02 0.  0.
        -11    1    4    4    0    0  0.16428915943E+02  0.64169020733E+02  0.10088146144E+02  0.67002561096E+02  0.00000000000E+00 0.  1.
         12    1    4    4    0    0 -0.12935763198E+02 -0.75298498815E+01  0.42480853168E+02  0.45040598294E+02  0.00000000000E+00 0. -1.
        -11    1    3    3    0    0 -0.81612085483E+02 -0.37726955733E+02  0.37801859583E+03  0.38856391299E+03  0.00000000000E+00 0.  1.
         11    1    3    3    0    0  0.96423072936E+01  0.23262655921E+02  0.68798901390E+02  0.73262637701E+02  0.00000000000E+00 0. -1.
         -4    1    1    2    0  502  0.68476625445E+02 -0.42174871039E+02  0.17070572307E+03  0.18870138279E+03  0.00000000000E+00 0.  1.
<scales pt_clust_5="13000.00000" pt_clust_6="13000.00000" pt_clust_7="13000.00000" pt_clust_8="13000.00000" pt_clust_9="13000.00000"></scales>
<clustering>
<clus scale="   81.055">  5  6 -1 -1</clus>
<clus scale="   80.422">  5  9 -1 -1</clus>
<clus scale="   90.824">  7  8 -1 -1</clus>
<clus scale="  116.781">  2  7  1 -1</clus>
<clus scale="  201.484">  1  5  2 -1</clus>
</clustering>
</event>
<event>
 9    2  0.3726337E-005  0.1996508E+03  0.7546771E-02  0.1176898E+00
         21   -1    0    0  501  502  0.00000000000E+00  0.00000000000E+00  0.13475354220E+03  0.13475354220E+03  0.00000000000E+00 0. -1.
          2   -1    0    0  502    0 -0.00000000000E+00 -0.00000000000E+00 -0.17504622382E+03  0.17504622382E+03  0.00000000000E+00 0. -1.
         23    2    1    2    0    0 -0.47431768213E+02  0.87129303110E+01 -0.20537003838E+02  0.10917393553E+03  0.95767906324E+02 0.  0.
         24    2    1    2    0    0 -0.38827903363E+02 -0.44742376872E+02  0.16288238531E+02  0.10043593148E+03  0.79451766811E+02 0.  0.
        -11    1    4    4    0    0 -0.17055502126E+02 -0.55866036676E+02 -0.15404282340E+02  0.60408576553E+02  0.00000000000E+00 0.  1.
         12    1    4    4    0    0 -0.21772401237E+02  0.11123659804E+02  0.31692520871E+02  0.40027354924E+02  0.00000000000E+00 0. -1.
        -13    1    3    3    0    0  0.28970442175E+02  0.10382831166E+01  0.22534009733E+01  0.29076491666E+02  0.00000000000E+00 0.  1.
         13    1    3    3    0    0 -0.76402210389E+02  0.76746471943E+01 -0.22790404811E+02  0.80097443862E+02  0.00000000000E+00 0. -1.
          1    1    1    2  501    0  0.86259671576E+02  0.36029446561E+02 -0.36043916312E+02  0.10018989901E+03  0.00000000000E+00 0. -1.
<scales pt_clust_5="13000.00000" pt_clust_6="13000.00000" pt_clust_7="13000.00000" pt_clust_8="13000.00000" pt_clust_9="13000.00000"></scales>
<clustering>
<clus scale="   79.452">  5  6 -1 -1</clus>
<clus scale="   93.482">  5  9 -1 -1</clus>
<clus scale="   95.768">  7  8 -1 -1</clus>
<clus scale="  107.225">  2  7  1 -1</clus>
<clus scale="  199.651">  1  5  2 -1</clus>
</clustering>
</event>
<event>
 9    2  0.3726337E-005  0.1576599E+03  0.7546771E-02  0.1214013E+00
         -3   -1    0    0    0  501 -0.00000000000E+00  0.00000000000E+00  0.20955543954E+03  0.20955543954E+03  0.00000000000E+00 0.  1.
         21   -1    0    0  501  502  0.00000000000E+00 -0.00000000000E+00 -0.11474999112E+03  0.11474999112E+03  0.00000000000E+00 0.  1.
         23    2    1    2    0    0 -0.25647281245E+02 -0.13357273746E+02  0.13077601224E+03  0.16259421687E+03  0.92186301502E+02 0.  0.
         24    2    1    2    0    0 -0.73058091615E+01 -0.38424633191E+02  0.56735270424E+01  0.87539100726E+02  0.78109397409E+02 0.  0.
        -13    1    4    4    0    0  0.32052078506E+01 -0.30948572940E+02 -0.33842177792E+02  0.45971518597E+02  0.00000000000E+00 0.  1.
         14    1    4    4    0    0 -0.10511017012E+02 -0.74760602506E+01  0.39515704835E+02  0.41567582129E+02  0.00000000000E+00 0. -1.
        -11    1    3    3    0    0 -0.47068662876E+02 -0.23937849655E+02  0.33750500682E+02  0.62670375517E+02  0.00000000000E+00 0.  1.
         11    1    3    3    0    0  0.21421381631E+02  0.10580575909E+02  0.97025511558E+02  0.99923841353E+02  0.00000000000E+00 0. -1.
         -4    1    1    2    0  502  0.32953090407E+02  0.51781906937E+02 -0.41644090859E+02  0.74172113067E+02  0.00000000000E+00 0.  1.
<scales pt_clust_5="13000.00000" pt_clust_6="13000.00000" pt_clust_7="13000.00000" pt_clust_8="13000.00000" pt_clust_9="13000.00000"></scales>
<clustering>
<clus scale="   78.109">  5  6 -1 -1</clus>
<clus scale="   61.378">  5  9 -1 -1</clus>
<clus scale="   92.186">  7  8 -1 -1</clus>
<clus scale="   96.615">  1  7  2 -1</clus>
<clus scale="  157.660">  2  5  1 -1</clus>
</clustering>
</event>
<event>
 9    2  0.3726337E-005  0.4916098E+03  0.7546771E-02  0.1023883E+00
          2   -1    0    0  502    0 -0.00000000000E+00  0.00000000000E+00  0.75705340524E+03  0.75705340524E+03  0.00000000000E+00 0. -1.
         21   -1    0    0  501  502  0.00000000000E+00 -0.00000000000E+00 -0.27995751745E+03  0.27995751745E+03  0.00000000000E+00 0. -1.
         23    2    1    2    0    0  0.37668442127E+03  0.89778513539E+01  0.58916013028E+02  0.39160053106E+03  0.88927635143E+02 0.  0.
         24    2    1    2    0    0 -0.18698724744E+03 -0.11690237800E+03  0.91196497366E+02  0.25228083244E+03  0.81843879417E+02 0.  0.
        -11    1    4    4    0    0 -0.77136687152E+01 -0.32299257048E+02 -0.19266743997E+01  0.33263414815E+02  0.00000000000E+00 0.  1.
         12    1    4    4    0    0 -0.17927357873E+03 -0.84603120951E+02  0.93123171766E+02  0.21901741763E+03  0.00000000000E+00 0. -1.
        -11    1    3    3    0    0  0.17268265133E+03  0.48056715256E+02  0.21220511100E+02  0.18049669261E+03  0.00000000000E+00 0. -1.
         11    1    3    3    0    0  0.20400176995E+03 -0.39078863902E+02  0.37695501928E+02  0.21110383845E+03  0.00000000000E+00 0.  1.
          1    1    1    2  501    0 -0.18969717383E+03  0.10792452665E+03  0.32698337740E+03  0.39312955918E+03  0.00000000000E+00 0. -1.
<scales pt_clust_5="13000.00000" pt_clust_6="13000.00000" pt_clust_7="13000.00000" pt_clust_8="13000.00000" pt_clust_9="13000.00000"></scales>
<clustering>
<clus scale="   81.844">  5  6 -1 -1</clus>
<clus scale="   88.928">  7  8 -1 -1</clus>
<clus scale="  218.249">  5  9 -1 -1</clus>
<clus scale="  387.143">  1  7  2 -1</clus>
<clus scale="  491.610">  2  5  1 -1</clus>
</clustering>
</event>
<event>
 9    2  0.3726337E-005  0.3413680E+03  0.7546771E-02  0.1108686E+00
         21   -1    0    0  501  502  0.00000000000E+00  0.00000000000E+00  0.21251921696E+03  0.21251921696E+03  0.00000000000E+00 0.  1.
          2   -1    0    0  502    0 -0.00000000000E+00 -0.00000000000E+00 -0.28945822497E+03  0.28945822497E+03  0.00000000000E+00 0. -1.
         23    2    1    2    0    0 -0.38433233968E+02 -0.43970001169E+02  0.69546948048E+02  0.13050705928E+03  0.93727477633E+02 0.  0.
         24    2    1    2    0    0  0.16781382813E+03  0.83370469526E+02 -0.94713094719E+02  0.22665268959E+03  0.85374207381E+02 0.  0.
        -13    1    4    4    0    0  0.98942405511E+02  0.83108276940E+02 -0.90297159325E+02  0.15763934244E+03  0.00000000000E+00 0.  1.
         14    1    4    4    0    0  0.68871422622E+02  0.26219258587E+00 -0.44159353939E+01  0.69013347146E+02  0.00000000000E+00 0. -1.
        -13    1    3    3    0    0 -0.47372127429E+02 -0.24425385565E+02  0.87532520995E+02  0.10248248703E+03  0.00000000000E+00 0.  1.
         13    1    3    3    0    0  0.89388934605E+01 -0.19544615604E+02 -0.17985572947E+02  0.28024572247E+02  0.00000000000E+00 0. -1.
          1    1    1    2  501    0 -0.12938059416E+03 -0.39400468356E+02 -0.51772861339E+02  0.14481769306E+03  0.00000000000E+00 0. -1.
<scales pt_clust_5="13000.00000" pt_clust_6="13000.00000" pt_clust_7="13000.00000" pt_clust_8="13000.00000" pt_clust_9="13000.00000"></scales>
<clustering>
<clus scale="   85.374">  5  6 -1 -1</clus>
<clus scale="   93.727">  7  8 -1 -1</clus>
<clus scale="  110.432">  2  7  1 -1</clus>
<clus scale="  154.508">  5  9 -1 -1</clus>
<clus scale="  341.368">  1  5  2 -1</clus>
</clustering>
</event>
<event>
 9    2  0.3726337E-005  0.2830064E+03  0.7546771E-02  0.1129663E+00
         21   -1    0    0  501  502  0.00000000000E+00  0.00000000000E+00  0.28469220559E+03  0.28469220559E+03  0.00000000000E+00 0.  1.
         -1   -1    0    0    0  501 -0.00000000000E+00 -0.00000000000E+00 -0.16980639561E+03  0.16980639561E+03  0.00000000000E+00 0.  1.
         23    2    1    2    0    0  0.59990928174E+02  0.36281419010E+02  0.12722157808E+03  0.17122343304E+03  0.90647014640E+02 0.  0.
         24    2    1    2    0    0 -0.56423127747E+02  0.83092711833E+02  0.63088268969E+02  0.14202468964E+03  0.78121153858E+02 0.  0.
        -13    1    4    4    0    0 -0.49821096343E+02  0.69831349947E+02  0.81546506395E+02  0.11835705210E+03  0.00000000000E+00 0.  1.
         14    1    4    4    0    0 -0.66020314046E+01  0.13261361885E+02 -0.18458237426E+02  0.23667637537E+02  0.00000000000E+00 0. -1.
        -13    1    3    3    0    0  0.43422646306E+02 -0.39290812480E+01  0.11930026539E+03  0.12701778306E+03  0.00000000000E+00 0.  1.
         13    1    3    3    0    0  0.16568281868E+02  0.40210500258E+02  0.79213126915E+01  0.44205649976E+02  0.00000000000E+00 0. -1.
         -2    1    1    2    0  502 -0.35678004263E+01 -0.11937413084E+03 -0.75424037069E+02  0.14125047852E+03  0.00000000000E+00 0.  1.
<scales pt_clust_5="13000.00000" pt_clust_6="13000.00000" pt_clust_7="13000.00000" pt_clust_8="13000.00000" pt_clust_9="13000.00000"></scales>
<clustering>
<clus scale="   78.121">  5  6 -1 -1</clus>
<clus scale="   90.647">  7  8 -1 -1</clus>
<clus scale="  114.596">  2  7  1 -1</clus>
<clus scale="  101.197">  5  9 -1 -1</clus>
<clus scale="  283.006">  1  5  2 -1</clus>
</clustering>
</event>
<event>
 9    2  0.3726337E-005  0.3448798E+03  0.7546771E-02  0.1076936E+00
         -1   -1    0    0    0  501 -0.00000000000E+00  0.00000000000E+00  0.49842926187E+02  0.49842926187E+02  0.00000000000E+00 0.  1.
         21   -1    0    0  501  502  0.00000000000E+00 -0.00000000000E+00 -0.17569195456E+04  0.17569195456E+04  0.00000000000E+00 0. -1.
         23    2    1    2    0    0 -0.81580839173E+01 -0.22903221619E+03 -0.69486763691E+03  0.73741260769E+03  0.91727917058E+02 0.  0.
         24    2    1    2    0    0  0.90979108752E+02  0.22140913073E+03 -0.64156723089E+03  0.68949101975E+03  0.80561486904E+02 0.  0.
        -13    1    4    4    0    0  0.53258352427E+02  0.20403921673E+03 -0.54489774941E+03  0.58427905267E+03  0.00000000000E+00 0.  1.
         14    1    4    4    0    0  0.37720756325E+02  0.17369913996E+02 -0.96669481476E+02  0.10521196709E+03  0.00000000000E+00 0. -1.
        -13    1    3    3    0    0  0.10070377916E+02 -0.95068954998E+02 -0.42442937936E+03  0.43506300323E+03  0.00000000000E+00 0. -1.
         13    1    3    3    0    0 -0.18228461834E+02 -0.13396326119E+03 -0.27043825755E+03  0.30234960446E+03  0.00000000000E+00 0.  1.
         -2    1    1    2    0  502 -0.82821024835E+02  0.76230854623E+01 -0.37064175159E+03  0.37985884432E+03  0.00000000000E+00 0.  1.
<scales pt_clust_5="13000.00000" pt_clust_6="13000.00000" pt_clust_7="13000.00000" pt_clust_8="13000.00000" pt_clust_9="13000.00000"></scales>
<clustering>
<clus scale="   80.561">  5  6 -1 -1</clus>
<clus scale="   83.171">  5  9 -1 -1</clus>
<clus scale="   91.728">  7  8 -1 -1</clus>
<clus scale="  246.853">  1  7  2 -1</clus>
<clus scale="  344.880">  2  5  1 -1</clus>
</clustering>
</event>
<event>
 9    2  0.3726337E-005  0.4381371E+03  0.7546771E-02  0.1054026E+00
         21   -1    0    0  501  502  0.00000000000E+00  0.00000000000E+00  0.13320511782E+03  0.13320511782E+03  0.00000000000E+00 0.  1.
          2   -1    0    0  502    0 -0.00000000000E+00 -0.00000000000E+00 -0.84684065507E+03  0.84684065507E+03  0.00000000000E+00 0. -1.
         23    2    1    2    0    0 -0.17296389693E+03 -0.11415512656E+03 -0.31040486228E+03  0.38459714673E+03  0.92821787207E+02 0.  0.
         24    2    1    2    0    0 -0.53622796450E+02 -0.30326261986E+02 -0.28308780672E+03  0.30108369951E+03  0.81960974450E+02 0.  0.
        -13    1    4    4    0    0 -0.34730235819E+02  0.50196675749E+01 -0.34236686070E+02  0.49025881080E+02  0.00000000000E+00 0.  1.
         14    1    4    4    0    0 -0.18892560631E+02 -0.35345929561E+02 -0.24885112065E+03  0.25205781843E+03  0.00000000000E+00 0. -1.
        -13    1    3    3    0    0 -0.48464619937E+02 -0.71936378762E+02 -0.17802128470E+03  0.19802838125E+03  0.00000000000E+00 0. -1.
         13    1    3    3    0    0 -0.12449927699E+03 -0.42218747795E+02 -0.13238357758E+03  0.18656876547E+03  0.00000000000E+00 0.  1.
          1    1    1    2  501    0  0.22658669338E+03  0.14448138854E+03 -0.12014286825E+03  0.29436492665E+03  0.00000000000E+00 0. -1.
<scales pt_clust_5="13000.00000" pt_clust_6="13000.00000" pt_clust_7="13000.00000" pt_clust_8="13000.00000" pt_clust_9="13000.00000"></scales>
<clustering>
<clus scale="   81.961">  5  6 -1 -1</clus>
<clus scale="   92.822">  7  8 -1 -1</clus>
<clus scale="  227.077">  2  7  1 -1</clus>
<clus scale="  182.731">  5  9 -1 -1</clus>
<clus scale="  438.137">  1  5  2 -1</clus>
</clustering>
</event>
<event>
 9    2  0.3726337E-005  0.1533594E+03  0.7546771E-02  0.1202407E+00
         21   -1    0    0  501  502  0.00000000000E+00  0.00000000000E+00  0.66500433148E+02  0.66500433148E+02  0.00000000000E+00 0. -1.
          4   -1    0    0  502    0 -0.00000000000E+00 -0.00000000000E+00 -0.32397090349E+03  0.32397090349E+03  0.00000000000E+00 0. -1.
         23    2    1    2    0    0 -0.37812348456E+02  0.98322541437E+02 -0.15854277531E+03  0.20797260636E+03  0.83783635284E+02 0.  0.
         24    2    1    2    0    0  0.14258515452E+02 -0.88543754755E+02 -0.59549243769E+02  0.13558316632E+03  0.82421967861E+02 0.  0.
        -13    1    4    4    0    0  0.40988973925E+02 -0.69934824373E+02 -0.63230119932E+02  0.10280575718E+03  0.00000000000E+00 0.  1.
         14    1    4    4    0    0 -0.26730458474E+02 -0.18608930382E+02  0.36808761627E+01  0.32777409134E+02  0.00000000000E+00 0. -1.
        -11    1    3    3    0    0 -0.64575214948E+02  0.64485621296E+02 -0.10231218266E+03  0.13709900241E+03  0.00000000000E+00 0. -1.
         11    1    3    3    0    0  0.26762866492E+02  0.33836920141E+02 -0.56230592645E+02  0.70873603949E+02  0.00000000000E+00 0.  1.
          3    1    1    2  501    0  0.23553833005E+02 -0.97787866816E+01 -0.39378451266E+02  0.46915563966E+02  0.00000000000E+00 0. -1.
<scales pt_clust_5="13000.00000" pt_clust_6="13000.00000" pt_clust_7="13000.00000" pt_clust_8="13000.00000" pt_clust_9="13000.00000"></scales>
<clustering>
<clus scale="   82.422">  5  6 -1 -1</clus>
<clus scale="   25.503">  5  9 -1 -1</clus>
<clus scale="   83.784">  7  8 -1 -1</clus>
<clus scale="  134.599">  2  7  1 -1</clus>
<clus scale="  153.359">  1  5  2 -1</clus>
</clustering>
</event>
<event>
 9    2  0.3726337E-005  0.3034447E+03  0.7546771E-02  0.1129300E+00
         21   -1    0    0  501  502  0.00000000000E+00  0.00000000000E+00  0.68507058118E+03  0.68507058118E+03  0.00000000000E+00 0. -1.
          2   -1    0    0  502    0 -0.00000000000E+00 -0.00000000000E+00 -0.58484784260E+02  0.58484784260E+02  0.00000000000E+00 0. -1.
         23    2    1    2    0    0  0.22456168092E+02 -0.48013009283E+01  0.11122512619E+03  0.14549575536E+03  0.90943136936E+02 0.  0.
         24    2    1    2    0    0  0.12383907489E+03  0.28175918714E+02  0.31018524347E+03  0.34498723539E+03  0.81678078175E+02 0.  0.
        -13    1    4    4    0    0  0.83465800332E+01  0.29094833162E+02  0.33417824966E+02  0.45087977782E+02  0.00000000000E+00 0.  1.
         14    1    4    4    0    0  0.11549249486E+03 -0.91891444775E+00  0.27676741850E+03  0.29989925761E+03  0.00000000000E+00 0. -1.
        -11    1    3    3    0    0 -0.45801282957E+01 -0.25274301900E+02  0.10847118787E+03  0.11147092226E+03  0.00000000000E+00 0. -1.
         11    1    3    3    0    0  0.27036296387E+02  0.20473000972E+02  0.27539383212E+01  0.34024833099E+02  0.00000000000E+00 0.  1.
          1    1    1    2  501    0 -0.14629524298E+03 -0.23374617786E+02  0.20517542726E+03  0.25307237468E+03  0.00000000000E+00 0. -1.
<scales pt_clust_5="13000.00000" pt_clust_6="13000.00000" pt_clust_7="13000.00000" pt_clust_8="13000.00000" pt_clust_9="13000.00000"></scales>
<clustering>
<clus scale="   81.678">  5  6 -1 -1</clus>
<clus scale="   90.943">  7  8 -1 -1</clus>
<clus scale="   93.798">  2  7  1 -1</clus>
<clus scale="  135.831">  5  9 -1 -1</clus>
<clus scale="  303.445">  1  5  2 -1</clus>
</clustering>
</event>
<event>
 9    2  0.3726337E-005  0.4441944E+03  0.7546771E-02  0.1039279E+00
          2   -1    0    0  502    0 -0.00000000000E+00  0.00000000000E+00  0.10431860359E+03  0.10431860359E+03  0.00000000000E+00 0. -1.
         21   -1    0    0  501  502  0.00000000000E+00 -0.00000000000E+00 -0.15821591027E+04  0.15821591027E+04  0.00000000000E+00 0. -1.
         23    2    1    2    0    0 -0.86660442584E+02  0.30885128555E+03 -0.88627540057E+03  0.94670884121E+03  0.88737790629E+02 0.  0.
         24    2    1    2    0    0 -0.63385190434E+02 -0.18286852683E+03 -0.15404211875E+03  0.26038206370E+03  0.81309681319E+02 0.  0.
        -11    1    4    4    0    0  0.16340886716E+02 -0.19609195885E+02 -0.65158375132E+01  0.26343904046E+02  0.00000000000E+00 0.  1.
         12    1    4    4    0    0 -0.79726077150E+02 -0.16325933095E+03 -0.14752628124E+03  0.23403815966E+03  0.00000000000E+00 0. -1.
        -11    1    3    3    0    0 -0.76694445757E+02  0.26160747394E+03 -0.63836056443E+03  0.69413595113E+03  0.00000000000E+00 0.  1.
         11    1    3    3    0    0 -0.99659968266E+01  0.47243811611E+02 -0.24791483614E+03  0.25257289009E+03  0.00000000000E+00 0. -1.
          1    1    1    2  501    0  0.15004563302E+03 -0.12598275872E+03 -0.43752297975E+03  0.47938680133E+03  0.00000000000E+00 0. -1.
<scales pt_clust_5="13000.00000" pt_clust_6="13000.00000" pt_clust_7="13000.00000" pt_clust_8="13000.00000" pt_clust_9="13000.00000"></scales>
<clustering>
<clus scale="   81.310">  5  6 -1 -1</clus>
<clus scale="   88.738">  7  8 -1 -1</clus>
<clus scale="  195.922">  5  9 -1 -1</clus>
<clus scale="  332.827">  1  7  2 -1</clus>
<clus scale="  444.194">  2  5  1 -1</clus>
</clustering>
</event>
<event>
 9    2  0.3726337E-005  0.1026609E+04  0.7546771E-02  0.9858137E-01
         21   -1    0    0  501  502  0.00000000000E+00  0.00000000000E+00  0.15587981574E+04  0.15587981574E+04  0.00000000000E+00 0.  1.
         -1   -1    0    0    0  501 -0.00000000000E+00 -0.00000000000E+00 -0.22019702207E+03  0.22019702207E+03  0.00000000000E+00 0.  1.
         23    2    1    2    0    0  0.10107759297E+03  0.40578277316E+02  0.10828950816E+03  0.17662418069E+03  0.87213572556E+02 0.  0.
         24    2    1    2    0    0 -0.45607184926E+03  0.11198198193E+03  0.22807421272E+03  0.52823162716E+03  0.80432017683E+02 0.  0.
        -13    1    4    4    0    0 -0.39041670682E+03  0.66092553010E+02  0.19749771602E+03  0.44249155739E+03  0.00000000000E+00 0.  1.
         14    1    4    4    0    0 -0.65655142439E+02  0.45889428917E+02  0.30576496698E+02  0.85740069777E+02  0.00000000000E+00 0. -1.
        -13    1    3    3    0    0  0.81189193317E+02  0.12899599482E+02  0.23899172452E+02  0.85611069507E+02  0.00000000000E+00 0.  1.
         13    1    3    3    0    0  0.19888399654E+02  0.27678677834E+02  0.84390335706E+02  0.91013111187E+02  0.00000000000E+00 0. -1.
         -2    1    1    2    0  502  0.35499425629E+03 -0.15256025924E+03  0.10022374144E+04  0.10741393716E+04  0.00000000000E+00 0.  1.
<scales pt_clust_5="13000.00000" pt_clust_6="13000.00000" pt_clust_7="13000.00000" pt_clust_8="13000.00000" pt_clust_9="13000.00000"></scales>
<clustering>
<clus scale="   80.432">  5  6 -1 -1</clus>
<clus scale="   87.214">  7  8 -1 -1</clus>
<clus scale="  139.533">  2  7  1 -1</clus>
<clus scale="  401.516">  5  9 -1 -1</clus>
<clus scale=" 1026.609">  1  5  2 -1</clus>
</clustering>
</event>
<event>
 9    2  0.3726337E-005  0.2055111E+03  0.7546771E-02  0.1155951E+00
         -1   -1    0    0    0  501 -0.00000000000E+00  0.00000000000E+00  0.11659513228E+03  0.11659513228E+03  0.00000000000E+00 0.  1.
         21   -1    0    0  501  502  0.00000000000E+00 -0.00000000000E+00 -0.28579667823E+03  0.28579667823E+03  0.00000000000E+00 0.  1.
         23    2    1    2    0    0 -0.51582344666E+02  0.12313962446E+03 -0.65137220106E+02  0.17203516988E+03  0.86770598941E+02 0.  0.
         24    2    1    2    0    0 -0.18215596632E+02 -0.15407333704E+02 -0.57017387801E+02  0.93640096431E+02  0.70344091830E+02 0.  0.
        -13    1    4    4    0    0 -0.26924652631E+02 -0.13249194034E+02 -0.70968965101E+02  0.77052398206E+02  0.00000000000E+00 0.  1.
         14    1    4    4    0    0  0.87090559996E+01 -0.21581396695E+01  0.13951577300E+02  0.16587698225E+02  0.00000000000E+00 0. -1.
        -13    1    3    3    0    0 -0.15807534089E+02  0.17130237782E+02  0.20577322046E+02  0.31092593379E+02  0.00000000000E+00 0. -1.
         13    1    3    3    0    0 -0.35774810577E+02  0.10600938667E+03 -0.85714542152E+02  0.14094257650E+03  0.00000000000E+00 0.  1.
         -2    1    1    2    0  502  0.69797941298E+02 -0.10773229075E+03 -0.47046938042E+02  0.13671654420E+03  0.00000000000E+00 0.  1.
<scales pt_clust_5="13000.00000" pt_clust_6="13000.00000" pt_clust_7="13000.00000" pt_clust_8="13000.00000" pt_clust_9="13000.00000"></scales>
<clustering>
<clus scale="   70.344">  5  6 -1 -1</clus>
<clus scale="   86.771">  7  8 -1 -1</clus>
<clus scale="  128.367">  5  9 -1 -1</clus>
<clus scale="  159.227">  1  7  2 -1</clus>
<clus scale="  205.511">  2  5  1 -1</clus>
</clustering>
</event>
<event>
 9    2  0.3726337E-005  0.4038070E+03  0.7546771E-02  0.1092948E+00
          4   -1    0    0  502    0 -0.00000000000E+00  0.00000000000E+00  0.36072312467E+03  0.36072312467E+03  0.00000000000E+00 0. -1.
         21   -1    0    0  501  502  0.00000000000E+00 -0.00000000000E+00 -0.17801250940E+03  0.17801250940E+03  0.00000000000E+00 0. -1.
         23    2    1    2    0    0 -0.34831460323E+02  0.33624069518E+02  0.14727185108E+02  0.10138163318E+03  0.87849512724E+02 0.  0.
         24    2    1    2    0    0 -0.52669034896E+02 -0.47269491106E-01  0.27728016272E+03  0.29337652379E+03  0.80071634188E+02 0.  0.
        -13    1    4    4    0    0 -0.53331620049E+02 -0.22202210593E+02  0.10645345471E+03  0.12111786769E+03  0.00000000000E+00 0.  1.
         14    1    4    4    0    0  0.66258515360E+00  0.22154941102E+02  0.17082670801E+03  0.17225865611E+03  0.00000000000E+00 0. -1.
        -13    1    3    3    0    0 -0.22630643098E+02 -0.23173820791E+02 -0.15484481518E+02  0.35901826485E+02  0.00000000000E+00 0.  1.
         13    1    3    3    0    0 -0.12200817225E+02  0.56797890308E+02  0.30211666626E+02  0.65479806694E+02  0.00000000000E+00 0. -1.
          3    1    1    2  501    0  0.87500495219E+02 -0.33576800026E+02 -0.10929673256E+03  0.14397747710E+03  0.00000000000E+00 0. -1.
<scales pt_clust_5="13000.00000" pt_clust_6="13000.00000" pt_clust_7="13000.00000" pt_clust_8="13000.00000" pt_clust_9="13000.00000"></scales>
<clustering>
<clus scale="   80.072">  5  6 -1 -1</clus>
<clus scale="   87.850">  7  8 -1 -1</clus>
<clus scale="   93.722">  5  9 -1 -1</clus>
<clus scale="  100.306">  1  7  2 -1</clus>
<clus scale="  403.807">  2  5  1 -1</clus>
</clustering>
</event>
<event>
 9    2  0.3726337E-005  0.1623442E+03  0.7546771E-02  0.1204813E+00
          2   -1    0    0  502    0 -0.00000000000E+00  0.00000000000E+00  0.21883629333E+03  0.21883629333E+03  0.00000000000E+00 0. -1.
         21   -1    0    0  501  502  0.00000000000E+00 -0.00000000000E+00 -0.10911609238E+03  0.10911609238E+03  0.00000000000E+00 0.  1.
         23    2    1    2    0    0 -0.19208969789E+02  0.53364505245E+02  0.12485748262E+03  0.16490395848E+03  0.91581491662E+02 0.  0.
         24    2    1    2    0    0  0.47006070534E+01 -0.19595367564E+02  0.42705898778E+02  0.94516093457E+02  0.81874440428E+02 0.  0.
        -13    1    4    4    0    0 -0.31362871762E+02 -0.46103012450E+01  0.45398345666E+02  0.55370519159E+02  0.00000000000E+00 0.  1.
         14    1    4    4    0    0  0.36063478816E+02 -0.14985066319E+02 -0.26924468881E+01  0.39145574298E+02  0.00000000000E+00 0. -1.
        -13    1    3    3    0    0  0.10325697197E+02  0.19165571004E+02 -0.90511458635E+01  0.23576733785E+02  0.00000000000E+00 0. -1.
         13    1    3    3    0    0 -0.29534666985E+02  0.34198934241E+02  0.13390862848E+03  0.14132722469E+03  0.00000000000E+00 0.  1.
          1    1    1    2  501    0  0.14508362735E+02 -0.33769137681E+02 -0.57843180447E+02  0.68532333779E+02  0.00000000000E+00 0. -1.
<scales pt_clust_5="13000.00000" pt_clust_6="13000.00000" pt_clust_7="13000.00000" pt_clust_8="13000.00000" pt_clust_9="13000.00000"></scales>
<clustering>
<clus scale="   81.874">  5  6 -1 -1</clus>
<clus scale="   36.754">  5  9 -1 -1</clus>
<clus scale="   91.581">  7  8 -1 -1</clus>
<clus scale="  107.722">  1  7  2 -1</clus>
<clus scale="  162.344">  2  5  1 -1</clus>
</clustering>
</event>
<event>
 9    2  0.3726337E-005  0.1785089E+03  0.7546771E-02  0.1192045E+00
         21   -1    0    0  501  502  0.00000000000E+00  0.00000000000E+00  0.23158190036E+02  0.23158190036E+02  0.00000000000E+00 0.  1.
          2   -1    0    0  502    0 -0.00000000000E+00 -0.00000000000E+00 -0.88302711974E+03  0.88302711974E+03  0.00000000000E+00 0. -1.
         23    2    1    2    0    0 -0.14141993610E+01 -0.40748345385E+02 -0.34834020169E+03  0.36440391367E+03  0.98928704514E+02 0.  0.
         24    2    1    2    0    0  0.24137945053E+02 -0.20241616757E+02 -0.14256342124E+03  0.16711949291E+03  0.81315634377E+02 0.  0.
        -11    1    4    4    0    0 -0.20534596273E+02 -0.33109248295E+02 -0.48632522478E+02  0.62313836419E+02  0.00000000000E+00 0.  1.
         12    1    4    4    0    0  0.44672541326E+02  0.12867631538E+02 -0.93930898763E+02  0.10480565649E+03  0.00000000000E+00 0. -1.
        -11    1    3    3    0    0 -0.36764930272E+02  0.14365621105E+02 -0.98200390023E+02  0.10583641986E+03  0.00000000000E+00 0. -1.
         11    1    3    3    0    0  0.35350730911E+02 -0.55113966490E+02 -0.25013981166E+03  0.25856749381E+03  0.00000000000E+00 0.  1.
          1    1    1    2  501    0 -0.22723745692E+02  0.60989962143E+02 -0.36896530677E+03  0.37466190319E+03  0.00000000000E+00 0. -1.
<scales pt_clust_5="13000.00000" pt_clust_6="13000.00000" pt_clust_7="13000.00000" pt_clust_8="13000.00000" pt_clust_9="13000.00000"></scales>
<clustering>
<clus scale="   81.316">  5  6 -1 -1</clus>
<clus scale="   65.086">  5  9 -1 -1</clus>
<clus scale="   98.929">  7  8 -1 -1</clus>
<clus scale="  107.001">  2  7  1 -1</clus>
<clus scale="  178.509">  1  5  2 -1</clus>
</clustering>
</event>
<event>
 9    2  0.3726337E-005  0.2472269E+03  0.7546771E-02  0.1129071E+00
         -1   -1    0    0    0  501 -0.00000000000E+00  0.00000000000E+00  0.72674611821E+02  0.72674611821E+02  0.00000000000E+00 0.  1.
         21   -1    0    0  501  502  0.00000000000E+00 -0.00000000000E+00 -0.89463629460E+03  0.89463629460E+03  0.00000000000E+00 0.  1.
         23    2    1    2    0    0 -0.66017245214E+02  0.13653825722E+03 -0.93201985718E+02  0.19775789345E+03  0.86142915730E+02 0.  0.
         24    2    1    2    0    0  0.44771535601E+02  0.13569413481E+02 -0.25426826017E+03  0.27143072210E+03  0.82666011065E+02 0.  0.
        -13    1    4    4    0    0  0.62263235821E+02  0.16984242102E+02 -0.12248320771E+03  0.13844605875E+03  0.00000000000E+00 0.  1.
         14    1    4    4    0    0 -0.17491700220E+02 -0.34148286213E+01 -0.13178505247E+03  0.13298466334E+03  0.00000000000E+00 0. -1.
        -13    1    3    3    0    0  0.15053135039E+02  0.37086574727E+02 -0.46163576384E+02  0.61098990859E+02  0.00000000000E+00 0. -1.
         13    1    3    3    0    0 -0.81070380253E+02  0.99451682495E+02 -0.47038409334E+02  0.13665890259E+03  0.00000000000E+00 0.  1.
         -2    1    1    2    0  502  0.21245709613E+02 -0.15010767070E+03 -0.47449143689E+03  0.49812229087E+03  0.00000000000E+00 0.  1.
<scales pt_clust_5="13000.00000" pt_clust_6="13000.00000" pt_clust_7="13000.00000" pt_clust_8="13000.00000" pt_clust_9="13000.00000"></scales>
<clustering>
<clus scale="   82.666">  5  6 -1 -1</clus>
<clus scale="   86.143">  7  8 -1 -1</clus>
<clus scale="  151.604">  5  9 -1 -1</clus>
<clus scale="  174.418">  1  7  2 -1</clus>
<clus scale="  247.227">  2  5  1 -1</clus>
</clustering>
</event>
<event>
 9    2  0.3726337E-005  0.1355596E+03  0.7546771E-02  0.1243231E+00
         21   -1    0    0  501  502  0.00000000000E+00  0.00000000000E+00  0.67605777496E+02  0.67605777496E+02  0.00000000000E+00 0. -1.
          4   -1    0    0  502    0 -0.00000000000E+00 -0.00000000000E+00 -0.19496568139E+03  0.19496568139E+03  0.00000000000E+00 0. -1.
         23    2    1    2    0    0 -0.20802946763E+01 -0.66708940522E+01 -0.88959623849E+02  0.12167797604E+03  0.82721742753E+02 0.  0.
         24    2    1    2    0    0 -0.36633582190E+02  0.24022621350E+02 -0.72491473575E+01  0.88260415580E+02  0.76277422219E+02 0.  0.
        -13    1    4    4    0    0  0.13908958174E+02  0.22889426107E+02 -0.23004390503E+02  0.35307037930E+02  0.00000000000E+00 0.  1.
         14    1    4    4    0    0 -0.50542540365E+02  0.11331952431E+01  0.15755243145E+02  0.52953377650E+02  0.00000000000E+00 0. -1.
        -11    1    3    3    0    0 -0.56192556397E+01  0.37789354444E+02 -0.36743402376E+02  0.53006499238E+02  0.00000000000E+00 0.  1.
         11    1    3    3    0    0  0.35389609634E+01 -0.44460248496E+02 -0.52216221473E+02  0.68671476800E+02  0.00000000000E+00 0. -1.
          3    1    1    2  501    0  0.38713876867E+02 -0.17351727297E+02 -0.31151132687E+02  0.52633067267E+02  0.00000000000E+00 0. -1.
<scales pt_clust_5="13000.00000" pt_clust_6="13000.00000" pt_clust_7="13000.00000" pt_clust_8="13000.00000" pt_clust_9="13000.00000"></scales>
<clustering>
<clus scale="   76.277">  5  6 -1 -1</clus>
<clus scale="   42.425">  5  9 -1 -1</clus>
<clus scale="   82.722">  7  8 -1 -1</clus>
<clus scale="   83.016">  2  7  1 -1</clus>
<clus scale="  135.560">  1  5  2 -1</clus>
</clustering>
</event>
<event>
 9    2  0.3726337E-005  0.6386695E+03  0.7546771E-02  0.1033101E+00
          2   -1    0    0  502    0 -0.00000000000E+00  0.00000000000E+00  0.58038284209E+03  0.58038284209E+03  0.00000000000E+00 0. -1.
         21   -1    0    0  501  502  0.00000000000E+00 -0.00000000000E+00 -0.25750046198E+03  0.25750046198E+03  0.00000000000E+00 0. -1.
         23    2    1    2    0    0 -0.67738962055E+02 -0.61337677239E+02  0.64994106469E+02  0.14911263934E+03  0.98282591057E+02 0.  0.
         24    2    1    2    0    0 -0.12441174067E+03  0.63848680314E+02 -0.16086113805E+03  0.22803292210E+03  0.81041795590E+02 0.  0.
        -13    1    4    4    0    0 -0.28347808574E+02  0.29999288251E+02 -0.46300684148E+01  0.41533036008E+02  0.00000000000E+00 0.  1.
         14    1    4    4    0    0 -0.96063932091E+02  0.33849392063E+02 -0.15623106964E+03  0.18649988609E+03  0.00000000000E+00 0. -1.
        -13    1    3    3    0    0  0.16181002229E+02 -0.46169469982E+02  0.23639577865E+02  0.54334836277E+02  0.00000000000E+00 0.  1.
         13    1    3    3    0    0 -0.83919964284E+02 -0.15168207257E+02  0.41354528604E+02  0.94777803060E+02  0.00000000000E+00 0. -1.
          1    1    1    2  501    0  0.19215070272E+03 -0.25110030752E+01  0.41874941169E+03  0.46073774263E+03  0.00000000000E+00 0. -1.
<scales pt_clust_5="13000.00000" pt_clust_6="13000.00000" pt_clust_7="13000.00000" pt_clust_8="13000.00000" pt_clust_9="13000.00000"></scales>
<clustering>
<clus scale="   81.042">  5  6 -1 -1</clus>
<clus scale="   98.283">  7  8 -1 -1</clus>
<clus scale="  134.203">  1  7  2 -1</clus>
<clus scale="  142.258">  5  9 -1 -1</clus>
<clus scale="  638.669">  2  5  1 -1</clus>
</clustering>
</event>
<event>
 9    2  0.3726337E-005  0.2032130E+03  0.7546771E-02  0.1169951E+00
         21   -1    0    0  501  502  0.00000000000E+00  0.00000000000E+00  0.55915603028E+02  0.55915603028E+02  0.00000000000E+00 0.  1.
         -3   -1    0    0    0  501 -0.00000000000E+00 -0.00000000000E+00 -0.48431226897E+03  0.48431226897E+03  0.00000000000E+00 0.  1.
         23    2    1    2    0    0  0.65857188654E+02  0.22936628450E+02 -0.21349234013E+03  0.24445871174E+03  0.96528877694E+02 0.  0.
         24    2    1    2    0    0 -0.11472466951E+03 -0.22391738290E+02 -0.12608046341E+03  0.19438865857E+03  0.90705719723E+02 0.  0.
        -11    1    4    4    0    0 -0.10465381546E+03 -0.63059982583E+01 -0.50332412466E+02  0.11629934845E+03  0.00000000000E+00 0.  1.
         12    1    4    4    0    0 -0.10070854043E+02 -0.16085740031E+02 -0.75748050943E+02  0.78089310121E+02  0.00000000000E+00 0. -1.
        -13    1    3    3    0    0  0.77873206204E+02  0.59302228868E+01 -0.89732655417E+02  0.11895946047E+03  0.00000000000E+00 0.  1.
         13    1    3    3    0    0 -0.12016017550E+02  0.17006405564E+02 -0.12375968471E+03  0.12549925126E+03  0.00000000000E+00 0. -1.
         -4    1    1    2    0  502  0.48867480854E+02 -0.54489016071E+00 -0.88823862404E+02  0.10138050169E+03  0.00000000000E+00 0.  1.
<scales pt_clust_5="13000.00000" pt_clust_6="13000.00000" pt_clust_7="13000.00000" pt_clust_8="13000.00000" pt_clust_9="13000.00000"></scales>
<clustering>
<clus scale="   90.706">  5  6 -1 -1</clus>
<clus scale="   48.871">  5  9 -1 -1</clus>
<clus scale="   96.529">  7  8 -1 -1</clus>
<clus scale="  119.084">  2  7  1 -1</clus>
<clus scale="  203.213">  1  5  2 -1</clus>
</clustering>
</event>
<event>
 9    2  0.3726337E-005  0.2155587E+03  0.7546771E-02  0.1157850E+00
          2   -1    0    0  502    0 -0.00000000000E+00  0.00000000000E+00  0.37450457014E+03  0.37450457014E+03  0.00000000000E+00 0. -1.
         21   -1    0    0  501  502  0.00000000000E+00 -0.00000000000E+00 -0.12263882404E+03  0.12263882404E+03  0.00000000000E+00 0. -1.
         23    2    1    2    0    0  0.75218629909E+02  0.57258085315E+02  0.24871107450E+03  0.28156156429E+03  0.92105294555E+02 0.  0.
         24    2    1    2    0    0  0.10251193735E+02  0.22210541305E+01  0.56295675427E+02  0.98676632957E+02  0.80360778776E+02 0.  0.
        -13    1    4    4    0    0 -0.20035312815E+02  0.96034100966E+01  0.62989249904E+02  0.66792850280E+02  0.00000000000E+00 0.  1.
         14    1    4    4    0    0  0.30286506549E+02 -0.73823559661E+01 -0.66935744765E+01  0.31883782678E+02  0.00000000000E+00 0. -1.
        -13    1    3    3    0    0 -0.26957004150E+01  0.46446985920E+02  0.13889274705E+03  0.14647793173E+03  0.00000000000E+00 0.  1.
         13    1    3    3    0    0  0.77914330324E+02  0.10811099394E+02  0.10981832746E+03  0.13508363256E+03  0.00000000000E+00 0. -1.
          1    1    1    2  501    0 -0.85469823644E+02 -0.59479139445E+02 -0.53141003829E+02  0.11690519694E+03  0.00000000000E+00 0. -1.
<scales pt_clust_5="13000.00000" pt_clust_6="13000.00000" pt_clust_7="13000.00000" pt_clust_8="13000.00000" pt_clust_9="13000.00000"></scales>
<clustering>
<clus scale="   80.361">  5  6 -1 -1</clus>
<clus scale="   92.105">  7  8 -1 -1</clus>
<clus scale="  104.129">  5  9 -1 -1</clus>
<clus scale="  131.984">  1  7  2 -1</clus>
<clus scale="  215.559">  2  5  1 -1</clus>
</clustering>
</event>
<event>
 9    2  0.3726337E-005  0.1668411E+03  0.7546771E-02  0.1205226E+00
         21   -1    0    0  501  502  0.00000000000E+00  0.00000000000E+00  0.92035992106E+02  0.92035992106E+02  0.00000000000E+00 0.  1.
          2   -1    0    0  502    0 -0.00000000000E+00 -0.00000000000E+00 -0.19295695702E+03  0.19295695702E+03  0.00000000000E+00 0. -1.
         23    2    1    2    0    0 -0.16292342271E+02 -0.35014710543E+02 -0.51251938572E+02  0.11091552601E+03  0.90465586450E+02 0.  0.
         24    2    1    2    0    0  0.63080951892E+01  0.82666660444E+02 -0.48188948469E+02  0.12536824380E+03  0.80755513647E+02 0.  0.
        -11    1    4    4    0    0  0.33702377224E+02  0.54133978638E+02 -0.56213873158E+02  0.85007866749E+02  0.00000000000E+00 0.  1.
         12    1    4    4    0    0 -0.27394282035E+02  0.28532681806E+02  0.80249246886E+01  0.40360377048E+02  0.00000000000E+00 0. -1.
        -11    1    3    3    0    0 -0.38456839140E+02  0.14279240006E+02 -0.36452658213E+02  0.54878242160E+02  0.00000000000E+00 0. -1.
         11    1    3    3    0    0  0.22164496869E+02 -0.49293950549E+02 -0.14799280359E+02  0.56037283851E+02  0.00000000000E+00 0.  1.
          1    1    1    2  501    0  0.99842470815E+01 -0.47651949901E+02 -0.14800778699E+01  0.48709179316E+02  0.00000000000E+00 0. -1.
<scales pt_clust_5="13000.00000" pt_clust_6="13000.00000" pt_clust_7="13000.00000" pt_clust_8="13000.00000" pt_clust_9="13000.00000"></scales>
<clustering>
<clus scale="   80.756">  5  6 -1 -1</clus>
<clus scale="   48.687">  5  9 -1 -1</clus>
<clus scale="   90.466">  7  8 -1 -1</clus>
<clus scale="   98.364">  2  7  1 -1</clus>
<clus scale="  166.841">  1  5  2 -1</clus>
</clustering>
</event>
<event>
 9    2  0.3726337E-005  0.2309639E+03  0.7546771E-02  0.1161896E+00
         21   -1    0    0  501  502  0.00000000000E+00  0.00000000000E+00  0.72491541277E+02  0.72491541277E+02  0.00000000000E+00 0.  1.
         -3   -1    0    0    0  501 -0.00000000000E+00 -0.00000000000E+00 -0.38380289735E+03  0.38380289735E+03  0.00000000000E+00 0.  1.
         23    2    1    2    0    0  0.31448454973E+02 -0.13792807462E+02 -0.58350874441E+02  0.11375494081E+03  0.91411788921E+02 0.  0.
         24    2    1    2    0    0  0.45406983855E+01 -0.87832211418E+02 -0.11489891294E+03  0.16737140605E+03  0.84120818257E+02 0.  0.
        -13    1    4    4    0    0  0.20500904221E+01 -0.92246275398E+02 -0.55329668669E+02  0.10758694359E+03  0.00000000000E+00 0.  1.
         14    1    4    4    0    0  0.24906079634E+01  0.44140639796E+01 -0.59569244275E+02  0.59784462466E+02  0.00000000000E+00 0. -1.
        -13    1    3    3    0    0 -0.89231400438E+01 -0.40542059758E+02 -0.51795449809E+01  0.41834300806E+02  0.00000000000E+00 0. -1.
         13    1    3    3    0    0  0.40371595017E+02  0.26749252297E+02 -0.53171329460E+02  0.71920640008E+02  0.00000000000E+00 0.  1.
         -4    1    1    2    0  502 -0.35989153359E+02  0.10162501888E+03 -0.13806156869E+03  0.17516809176E+03  0.00000000000E+00 0.  1.
<scales pt_clust_5="13000.00000" pt_clust_6="13000.00000" pt_clust_7="13000.00000" pt_clust_8="13000.00000" pt_clust_9="13000.00000"></scales>
<clustering>
<clus scale="   84.121">  5  6 -1 -1</clus>
<clus scale="   91.412">  7  8 -1 -1</clus>
<clus scale="   97.649">  2  7  1 -1</clus>
<clus scale="   96.353">  5  9 -1 -1</clus>
<clus scale="  230.964">  1  5  2 -1</clus>
</clustering>
</event>
<event>
 9    2  0.3726337E-005  0.2384283E+03  0.7546771E-02  0.1142633E+00
         -1   -1    0    0    0  501 -0.00000000000E+00  0.00000000000E+00  0.40275124210E+02  0.40275124210E+02  0.00000000000E+00 0.  1.
         21   -1    0    0  501  502  0.00000000000E+00 -0.00000000000E+00 -0.90287588011E+03  0.90287588011E+03  0.00000000000E+00 0.  1.
         23    2    1    2    0    0  0.58982419539E+02  0.81894110660E+02 -0.37872202638E+03  0.40371918710E+03  0.96815482191E+02 0.  0.
         24    2    1    2    0    0  0.13488105760E+02  0.26982339216E+02 -0.93795919697E+02  0.12800666377E+03  0.81719372184E+02 0.  0.
        -11    1    4    4    0    0 -0.11520547896E+02  0.32593616762E+02 -0.42084770905E+01  0.34824964564E+02  0.00000000000E+00 0.  1.
         12    1    4    4    0    0  0.25008653656E+02 -0.56112775459E+01 -0.89587442607E+02  0.93181699202E+02  0.00000000000E+00 0. -1.
        -11    1    3    3    0    0  0.77004178638E+01  0.47308497007E+02 -0.50134155840E+02  0.69360103129E+02  0.00000000000E+00 0. -1.
         11    1    3    3    0    0  0.51282001675E+02  0.34585613653E+02 -0.32858787054E+03  0.33435908397E+03  0.00000000000E+00 0.  1.
         -2    1    1    2    0  502 -0.72470525299E+02 -0.10887644988E+03 -0.39008280983E+03  0.41142515346E+03  0.00000000000E+00 0.  1.
<scales pt_clust_5="13000.00000" pt_clust_6="13000.00000" pt_clust_7="13000.00000" pt_clust_8="13000.00000" pt_clust_9="13000.00000"></scales>
<clustering>
<clus scale="   81.719">  5  6 -1 -1</clus>
<clus scale="   96.815">  7  8 -1 -1</clus>
<clus scale="  130.790">  5  9 -1 -1</clus>
<clus scale="  139.853">  1  7  2 -1</clus>
<clus scale="  238.428">  2  5  1 -1</clus>
</clustering>
</event>
<event>
 9    2  0.3726337E-005  0.5023929E+03  0.7546771E-02  0.1065895E+00
         21   -1    0    0  501  502  0.00000000000E+00  0.00000000000E+00  0.68969396535E+03  0.68969396535E+03  0.00000000000E+00 0.  1.
         -1   -1    0    0    0  501 -0.00000000000E+00 -0.00000000000E+00 -0.22039152171E+03  0.22039152171E+03  0.00000000000E+00 0.  1.
         23    2    1    2    0    0  0.36261466033E+02 -0.10670662748E+02 -0.10250041347E+03  0.14893033977E+03  0.10121835002E+03 0.  0.
         24    2    1    2    0    0  0.10220701326E+03 -0.16307504408E+03  0.83679491773E+02  0.22484785647E+03  0.80712809723E+02 0.  0.
        -11    1    4    4    0    0  0.29913915135E+02 -0.11236997117E+03  0.69342590734E+02  0.13538924488E+03  0.00000000000E+00 0.  1.
         12    1    4    4    0    0  0.72293098129E+02 -0.50705072905E+02  0.14336901039E+02  0.89458611585E+02  0.00000000000E+00 0. -1.
        -11    1    3    3    0    0  0.31487914253E+02 -0.32035565026E+02 -0.11518173685E+03  0.12363089692E+03  0.00000000000E+00 0.  1.
         11    1    3    3    0    0  0.47735517800E+01  0.21364902278E+02  0.12681323379E+02  0.25299442851E+02  0.00000000000E+00 0. -1.
         -2    1    1    2    0  502 -0.13846847930E+03  0.17374570682E+03  0.48812336534E+03  0.53630729082E+03  0.00000000000E+00 0.  1.
<scales pt_clust_5="13000.00000" pt_clust_6="13000.00000" pt_clust_7="13000.00000" pt_clust_8="13000.00000" pt_clust_9="13000.00000"></scales>
<clustering>
<clus scale="   80.713">  5  6 -1 -1</clus>
<clus scale="  101.218">  7  8 -1 -1</clus>
<clus scale="  108.046">  2  7  1 -1</clus>
<clus scale="  214.370">  5  9 -1 -1</clus>
<clus scale="  502.393">  1  5  2 -1</clus>
</clustering>
</event>
<event>
 9    2  0.3726337E-005  0.4557926E+03  0.7546771E-02  0.1071152E+00
          2   -1    0    0  502    0 -0.00000000000E+00  0.00000000000E+00  0.21610199197E+03  0.21610199197E+03  0.00000000000E+00 0. -1.
         21   -1    0    0  501  502  0.00000000000E+00 -0.00000000000E+00 -0.42536276367E+03  0.42536276367E+03  0.00000000000E+00 0. -1.
         23    2    1    2    0    0  0.35082588297E+02  0.76650282931E+02 -0.12695874034E+03  0.17830110903E+03  0.92556522493E+02 0.  0.
         24    2    1    2    0    0 -0.34499738027E+02  0.11823617165E+03 -0.19114046112E+03  0.23994430676E+03  0.76606594099E+02 0.  0.
        -13    1    4    4    0    0 -0.20589317259E+02  0.11226962432E+03 -0.11395574659E+03  0.16128949350E+03  0.00000000000E+00 0.  1.
         14    1    4    4    0    0 -0.13910420767E+02  0.59665473253E+01 -0.77184714527E+02  0.78654813264E+02  0.00000000000E+00 0. -1.
        -13    1    3    3    0    0 -0.27350200535E+02  0.26493669063E+02 -0.71118374347E+02  0.80670757648E+02  0.00000000000E+00 0. -1.
         13    1    3    3    0    0  0.62432788832E+02  0.50156613868E+02 -0.55840365995E+02  0.97630351379E+02  0.00000000000E+00 0.  1.
          1    1    1    2  501    0 -0.58285027019E+00 -0.19488645458E+03  0.10883842976E+03  0.22321933986E+03  0.00000000000E+00 0. -1.
<scales pt_clust_5="13000.00000" pt_clust_6="13000.00000" pt_clust_7="13000.00000" pt_clust_8="13000.00000" pt_clust_9="13000.00000"></scales>
<clustering>
<clus scale="   76.607">  5  6 -1 -1</clus>
<clus scale="   92.557">  7  8 -1 -1</clus>
<clus scale="  125.191">  1  7  2 -1</clus>
<clus scale="  131.526">  5  9 -1 -1</clus>
<clus scale="  455.793">  2  5  1 -1</clus>
</clustering>
</event>
<event>
 9    2  0.3726337E-005  0.3572641E+03  0.7546771E-02  0.1081536E+00
         21   -1    0    0  501  502  0.00000000000E+00  0.00000000000E+00  0.21288672795E+03  0.21288672795E+03  0.00000000000E+00 0.  1.
         -1   -1    0    0    0  501 -0.00000000000E+00 -0.00000000000E+00 -0.74593852217E+03  0.74593852217E+03  0.00000000000E+00 0.  1.
         23    2    1    2    0    0 -0.14777287370E+03  0.92293981669E+02 -0.56698314526E+03  0.59995343904E+03  0.90106829641E+02 0.  0.
         24    2    1    2    0    0  0.11116525183E+03 -0.41001547213E+02 -0.12349720570E+03  0.18929945990E+03  0.80894286640E+02 0.  0.
        -11    1    4    4    0    0  0.12011575772E+03 -0.24106395599E+02 -0.11614440119E+03  0.16881479642E+03  0.00000000000E+00 0.  1.
         12    1    4    4    0    0 -0.89505058849E+01 -0.16895151614E+02 -0.73528045133E+01  0.20484663480E+02  0.00000000000E+00 0. -1.
        -13    1    3    3    0    0 -0.73062855220E+01  0.45067395248E+02 -0.97989800664E+02  0.10810389890E+03  0.00000000000E+00 0. -1.
         13    1    3    3    0    0 -0.14046658817E+03  0.47226586421E+02 -0.46899334460E+03  0.49184954014E+03  0.00000000000E+00 0.  1.
         -2    1    1    2    0  502  0.36607621862E+02 -0.51292434456E+02  0.15742855674E+03  0.16957235119E+03  0.00000000000E+00 0.  1.
<scales pt_clust_5="13000.00000" pt_clust_6="13000.00000" pt_clust_7="13000.00000" pt_clust_8="13000.00000" pt_clust_9="13000.00000"></scales>
<clustering>
<clus scale="   80.894">  5  6 -1 -1</clus>
<clus scale="   63.016">  5  9 -1 -1</clus>
<clus scale="   90.107">  7  8 -1 -1</clus>
<clus scale="  196.149">  2  7  1 -1</clus>
<clus scale="  357.264">  1  5  2 -1</clus>
</clustering>
</event>
<event>
 9    2  0.3726337E-005  0.2817928E+03  0.7546771E-02  0.1126431E+00
         21   -1    0    0  501  502  0.00000000000E+00  0.00000000000E+00  0.19729085359E+03  0.19729085359E+03  0.00000000000E+00 0. -1.
          2   -1    0    0  502    0 -0.00000000000E+00 -0.00000000000E+00 -0.21305946123E+03  0.21305946123E+03  0.00000000000E+00 0. -1.
         23    2    1    2    0    0 -0.29364540436E+02  0.82102093949E+02  0.16216988538E+02  0.12674803733E+03  0.90548573618E+02 0.  0.
         24    2    1    2    0    0 -0.26229113612E+02  0.17991495998E+02 -0.11390412239E+03  0.14281866319E+03  0.80070975576E+02 0.  0.
        -11    1    4    4    0    0  0.26634566603E+02  0.39022655344E+01 -0.61174343691E+02  0.66835081660E+02  0.00000000000E+00 0.  1.
         12    1    4    4    0    0 -0.52863680215E+02  0.14089230464E+02 -0.52729778695E+02  0.75983581530E+02  0.00000000000E+00 0. -1.
        -13    1    3    3    0    0 -0.46657478785E+02  0.15780640381E+02 -0.14925434213E+02  0.51465692688E+02  0.00000000000E+00 0.  1.
         13    1    3    3    0    0  0.17292938349E+02  0.66321453568E+02  0.31142422751E+02  0.75282344643E+02  0.00000000000E+00 0. -1.
          1    1    1    2  501    0  0.55593654048E+02 -0.10009358995E+03  0.81918526203E+02  0.14078361430E+03  0.00000000000E+00 0. -1.
<scales pt_clust_5="13000.00000" pt_clust_6="13000.00000" pt_clust_7="13000.00000" pt_clust_8="13000.00000" pt_clust_9="13000.00000"></scales>
<clustering>
<clus scale="   80.071">  5  6 -1 -1</clus>
<clus scale="   90.549">  7  8 -1 -1</clus>
<clus scale="  114.496">  5  9 -1 -1</clus>
<clus scale="  125.706">  2  7  1 -1</clus>
<clus scale="  281.793">  1  5  2 -1</clus>
</clustering>
</event>
<event>
 9    2  0.4483051E-005  0.8063379E+03  0.7546771E-02  0.9859100E-01
          2   -1    0    0  502    0 -0.00000000000E+00  0.00000000000E+00  0.40012303141E+03  0.40012303141E+03  0.00000000000E+00 0. -1.
         21   -1    0    0  501  502  0.00000000000E+00 -0.00000000000E+00 -0.11427939334E+04  0.11427939334E+04  0.00000000000E+00 0. -1.
         23    2    1    2    0    0  0.21337962548E+02  0.27146909154E+03  0.16315434113E+03  0.33019270908E+03  0.90868640332E+02 0.  0.
         24    2    1    2    0    0  0.34833939951E+02  0.93353377352E+02  0.85041578289E+02  0.15533701625E+03  0.83482106733E+02 0.  0.
        -11    1    4    4    0    0  0.30801742659E+01  0.27058512687E+02  0.76659887291E+02  0.81353481190E+02  0.00000000000E+00 0.  1.
         12    1    4    4    0    0  0.31753765685E+02  0.66294864665E+02  0.83816909978E+01  0.73983535061E+02  0.00000000000E+00 0. -1.
        -13    1    3    3    0    0  0.85958805720E+01  0.12313508541E+03  0.12675701851E+03  0.17692789538E+03  0.00000000000E+00 0. -1.
         13    1    3    3    0    0  0.12742081976E+02  0.14833400612E+03  0.36397322629E+02  0.15326481371E+03  0.00000000000E+00 0.  1.
          1    1    1    2  501    0 -0.56171902499E+02 -0.36482246889E+03 -0.99086682143E+03  0.10573872395E+04  0.00000000000E+00 0. -1.
<scales pt_clust_5="13000.00000" pt_clust_6="13000.00000" pt_clust_7="13000.00000" pt_clust_8="13000.00000" pt_clust_9="13000.00000"></scales>
<clustering>
<clus scale="   83.482">  5  6 -1 -1</clus>
<clus scale="   90.869">  7  8 -1 -1</clus>
<clus scale="  287.068">  1  7  2 -1</clus>
<clus scale="  310.293">  5  9 -1 -1</clus>
<clus scale="  806.338">  2  5  1 -1</clus>
</clustering>
</event>
<event>
 9    2  0.3726337E-005  0.2238273E+03  0.7546771E-02  0.1165444E+00
         21   -1    0    0  501  502  0.00000000000E+00  0.00000000000E+00  0.11350737938E+03  0.11350737938E+03  0.00000000000E+00 0.  1.
         -1   -1    0    0    0  501 -0.00000000000E+00 -0.00000000000E+00 -0.30876666603E+03  0.30876666603E+03  0.00000000000E+00 0.  1.
         23    2    1    2    0    0 -0.36238700284E+02 -0.11200979376E+02 -0.17050642374E+03  0.19708221176E+03  0.91270215940E+02 0.  0.
         24    2    1    2    0    0 -0.46226139147E+02 -0.59247468694E+02  0.21889761456E+02  0.10712842701E+03  0.73145196224E+02 0.  0.
        -13    1    4    4    0    0 -0.30790266690E+02 -0.12488005461E+01  0.34015350640E+02  0.45898192827E+02  0.00000000000E+00 0.  1.
         14    1    4    4    0    0 -0.15435872456E+02 -0.57998668148E+02 -0.12125589184E+02  0.61230234186E+02  0.00000000000E+00 0. -1.
        -11    1    3    3    0    0 -0.25925188394E+02  0.37608338825E+02 -0.56618075753E+02  0.72746883401E+02  0.00000000000E+00 0. -1.
         11    1    3    3    0    0 -0.10313511890E+02 -0.48809318201E+02 -0.11388834799E+03  0.12433532836E+03  0.00000000000E+00 0.  1.
         -2    1    1    2    0  502  0.82464839430E+02  0.70448448070E+02 -0.46642624363E+02  0.11806340663E+03  0.00000000000E+00 0.  1.
<scales pt_clust_5="13000.00000" pt_clust_6="13000.00000" pt_clust_7="13000.00000" pt_clust_8="13000.00000" pt_clust_9="13000.00000"></scales>
<clustering>
<clus scale="   73.145">  5  6 -1 -1</clus>
<clus scale="   91.270">  7  8 -1 -1</clus>
<clus scale="   98.838">  2  7  1 -1</clus>
<clus scale="   86.079">  5  9 -1 -1</clus>
<clus scale="  223.827">  1  5  2 -1</clus>
</clustering>
</event>
<event>
 9    2  0.3726337E-005  0.2399872E+03  0.7546771E-02  0.1153835E+00
         21   -1    0    0  501  502  0.00000000000E+00  0.00000000000E+00  0.22565623379E+02  0.22565623379E+02  0.00000000000E+00 0. -1.
          2   -1    0    0  502    0 -0.00000000000E+00 -0.00000000000E+00 -0.13201635841E+04  0.13201635841E+04  0.00000000000E+00 0. -1.
         23    2    1    2    0    0 -0.39492829552E+02  0.35693448032E+02 -0.41197352593E+03  0.42516477675E+03  0.90604610843E+02 0.  0.
         24    2    1    2    0    0 -0.15229692923E+02  0.42477809252E+02 -0.15105401857E+03  0.17682223784E+03  0.80077958539E+02 0.  0.
        -13    1    4    4    0    0 -0.33955020307E+02  0.41416356476E+02 -0.14853897538E+03  0.15789897148E+03  0.00000000000E+00 0.  1.
         14    1    4    4    0    0  0.18725327383E+02  0.10614527765E+01 -0.25150431938E+01  0.18923266364E+02  0.00000000000E+00 0. -1.
        -13    1    3    3    0    0  0.27429474341E+02  0.59080594221E+01 -0.69602473284E+02  0.75045223139E+02  0.00000000000E+00 0.  1.
         13    1    3    3    0    0 -0.66922303893E+02  0.29785388610E+02 -0.34237105265E+03  0.35011955361E+03  0.00000000000E+00 0. -1.
          1    1    1    2  501    0  0.54722522475E+02 -0.78171257284E+02 -0.73457041622E+03  0.74074219288E+03  0.00000000000E+00 0. -1.
<scales pt_clust_5="13000.00000" pt_clust_6="13000.00000" pt_clust_7="13000.00000" pt_clust_8="13000.00000" pt_clust_9="13000.00000"></scales>
<clustering>
<clus scale="   80.078">  5  6 -1 -1</clus>
<clus scale="   90.605">  7  8 -1 -1</clus>
<clus scale="   95.422">  5  9 -1 -1</clus>
<clus scale="  105.085">  2  7  1 -1</clus>
<clus scale="  239.987">  1  5  2 -1</clus>
</clustering>
</event>
<event>
 9    2  0.3726337E-005  0.4298616E+03  0.7546771E-02  0.1068581E+00
         -1   -1    0    0    0  501 -0.00000000000E+00  0.00000000000E+00  0.18891985999E+03  0.18891985999E+03  0.00000000000E+00 0.  1.
         21   -1    0    0  501  502  0.00000000000E+00 -0.00000000000E+00 -0.48998505047E+03  0.48998505047E+03  0.00000000000E+00 0.  1.
         23    2    1    2    0    0 -0.25739412639E+01  0.13160307117E+03 -0.11419564790E+02  0.16056562508E+03  0.91240999458E+02 0.  0.
         24    2    1    2    0    0  0.10778214288E+03 -0.97621641072E+01 -0.32615421236E+03  0.35327308891E+03  0.81932990505E+02 0.  0.
        -11    1    4    4    0    0  0.11393677919E+03 -0.11112796298E+02 -0.32741151502E+03  0.34684778227E+03  0.00000000000E+00 0.  1.
         12    1    4    4    0    0 -0.61546363113E+01  0.13506321908E+01  0.12573026612E+01  0.64253066403E+01  0.00000000000E+00 0. -1.
        -11    1    3    3    0    0 -0.41932895970E+02  0.60141758151E+02  0.14951332669E+02  0.74826072906E+02  0.00000000000E+00 0.  1.
         11    1    3    3    0    0  0.39358954707E+02  0.71461313015E+02 -0.26370897460E+02  0.85739552170E+02  0.00000000000E+00 0. -1.
         -2    1    1    2    0  502 -0.10520820162E+03 -0.12184090706E+03  0.36508586672E+02  0.16506619648E+03  0.00000000000E+00 0.  1.
<scales pt_clust_5="13000.00000" pt_clust_6="13000.00000" pt_clust_7="13000.00000" pt_clust_8="13000.00000" pt_clust_9="13000.00000"></scales>
<clustering>
<clus scale="   81.933">  5  6 -1 -1</clus>
<clus scale="   91.241">  7  8 -1 -1</clus>
<clus scale="  160.159">  1  7  2 -1</clus>
<clus scale="  107.636">  5  9 -1 -1</clus>
<clus scale="  429.862">  2  5  1 -1</clus>
</clustering>
</event>
<event>
 9    2  0.3726337E-005  0.1632678E+03  0.7546771E-02  0.1206194E+00
         21   -1    0    0  501  502  0.00000000000E+00  0.00000000000E+00  0.25063316601E+03  0.25063316601E+03  0.00000000000E+00 0.  1.
         -1   -1    0    0    0  501 -0.00000000000E+00 -0.00000000000E+00 -0.71641522737E+02  0.71641522737E+02  0.00000000000E+00 0.  1.
         23    2    1    2    0    0 -0.41154742066E+02 -0.20077913083E+02  0.50657399496E+02  0.11460652052E+03  0.92041550578E+02 0.  0.
         24    2    1    2    0    0 -0.29198658455E+02  0.20819208653E+01  0.41682291646E+02  0.94610583308E+02  0.79729875122E+02 0.  0.
        -11    1    4    4    0    0 -0.39101853235E+02  0.28573605626E+02  0.55807447282E+01  0.48749877708E+02  0.00000000000E+00 0.  1.
         12    1    4    4    0    0  0.99031947801E+01 -0.26491684760E+02  0.36101546918E+02  0.45860705600E+02  0.00000000000E+00 0. -1.
        -13    1    3    3    0    0  0.15952494900E+02 -0.14580277595E+02  0.52948800964E+02  0.57189527991E+02  0.00000000000E+00 0. -1.
         13    1    3    3    0    0 -0.57107236966E+02 -0.54976354882E+01 -0.22914014688E+01  0.57416992525E+02  0.00000000000E+00 0.  1.
         -2    1    1    2    0  502  0.70353400521E+02  0.17995992218E+02  0.86651952136E+02  0.11305758493E+03  0.00000000000E+00 0.  1.
<scales pt_clust_5="13000.00000" pt_clust_6="13000.00000" pt_clust_7="13000.00000" pt_clust_8="13000.00000" pt_clust_9="13000.00000"></scales>
<clustering>
<clus scale="   79.730">  5  6 -1 -1</clus>
<clus scale="   72.619">  5  9 -1 -1</clus>
<clus scale="   92.042">  7  8 -1 -1</clus>
<clus scale="  102.803">  2  7  1 -1</clus>
<clus scale="  163.268">  1  5  2 -1</clus>
</clustering>
</event>
<event>
 9    2  0.3726337E-005  0.2727270E+03  0.7546771E-02  0.1125771E+00
         21   -1    0    0  501  502  0.00000000000E+00  0.00000000000E+00  0.83391165848E+02  0.83391165848E+02  0.00000000000E+00 0. -1.
          2   -1    0    0  502    0 -0.00000000000E+00 -0.00000000000E+00 -0.78785236591E+03  0.78785236591E+03  0.00000000000E+00 0. -1.
         23    2    1    2    0    0  0.19864055771E+02 -0.83044716627E+02 -0.30524820110E+02  0.14421515015E+03  0.11213937408E+03 0.  0.
         24    2    1    2    0    0 -0.10687797366E+03 -0.19564220209E+01 -0.22284789000E+03  0.25982666795E+03  0.80137297564E+02 0.  0.
        -13    1    4    4    0    0 -0.24638637147E+02 -0.26412220795E+00 -0.14328110602E+03  0.14538434422E+03  0.00000000000E+00 0.  1.
         14    1    4    4    0    0 -0.82239336514E+02 -0.16922998130E+01 -0.79566783977E+02  0.11444232373E+03  0.00000000000E+00 0. -1.
        -13    1    3    3    0    0 -0.43095541532E+02 -0.58430677167E+02 -0.23193168280E+02  0.76218716789E+02  0.00000000000E+00 0.  1.
         13    1    3    3    0    0  0.62959597302E+02 -0.24614039459E+02 -0.73316518304E+01  0.67996433359E+02  0.00000000000E+00 0. -1.
          1    1    1    2  501    0  0.87013917891E+02  0.85001138647E+02 -0.45108848995E+03  0.46720171365E+03  0.00000000000E+00 0. -1.
<scales pt_clust_5="13000.00000" pt_clust_6="13000.00000" pt_clust_7="13000.00000" pt_clust_8="13000.00000" pt_clust_9="13000.00000"></scales>
<clustering>
<clus scale="   80.137">  5  6 -1 -1</clus>
<clus scale="  112.139">  7  8 -1 -1</clus>
<clus scale="  121.641">  5  9 -1 -1</clus>
<clus scale="  140.948">  2  7  1 -1</clus>
<clus scale="  272.727">  1  5  2 -1</clus>
</clustering>
</event>
<event>
 9    2  0.3726337E-005  0.5039365E+03  0.7546771E-02  0.1062927E+00
         21   -1    0    0  501  502  0.00000000000E+00  0.00000000000E+00  0.10101169757E+03  0.10101169757E+03  0.00000000000E+00 0.  1.
          2   -1    0    0  502    0 -0.00000000000E+00 -0.00000000000E+00 -0.97206857062E+03  0.97206857062E+03  0.00000000000E+00 0. -1.
         23    2    1    2    0    0  0.51239220180E+02 -0.49971909254E+02 -0.22958556336E+03  0.25733676061E+03  0.91597096338E+02 0.  0.
         24    2    1    2    0    0  0.20298374135E+03 -0.81023802512E+01 -0.17033736297E+03  0.27725568690E+03  0.81165576924E+02 0.  0.
        -11    1    4    4    0    0  0.18437074423E+03  0.94452747013E+01 -0.11828092422E+03  0.21925364667E+03  0.00000000000E+00 0.  1.
         12    1    4    4    0    0  0.18612997118E+02 -0.17547654952E+02 -0.52056438746E+02  0.58002040231E+02  0.00000000000E+00 0. -1.
        -11    1    3    3    0    0  0.17109380473E+02  0.25186932066E+02 -0.91795195626E+02  0.96713341308E+02  0.00000000000E+00 0. -1.
         11    1    3    3    0    0  0.34129839707E+02 -0.75158841320E+02 -0.13779036773E+03  0.16062341930E+03  0.00000000000E+00 0.  1.
          1    1    1    2  501    0 -0.25422296153E+03  0.58074289505E+02 -0.47113394672E+03  0.53848782068E+03  0.00000000000E+00 0. -1.
<scales pt_clust_5="13000.00000" pt_clust_6="13000.00000" pt_clust_7="13000.00000" pt_clust_8="13000.00000" pt_clust_9="13000.00000"></scales>
<clustering>
<clus scale="   81.166">  5  6 -1 -1</clus>
<clus scale="   91.597">  7  8 -1 -1</clus>
<clus scale="  116.244">  2  7  1 -1</clus>
<clus scale="  219.976">  5  9 -1 -1</clus>
<clus scale="  503.937">  1  5  2 -1</clus>
</clustering>
</event>
<event>
 9    2  0.3726337E-005  0.2031277E+03  0.7546771E-02  0.1179846E+00
         21   -1    0    0  501  502  0.00000000000E+00  0.00000000000E+00  0.62174862124E+02  0.62174862124E+02  0.00000000000E+00 0.  1.
         -1   -1    0    0    0  501 -0.00000000000E+00 -0.00000000000E+00 -0.51619148894E+03  0.51619148894E+03  0.00000000000E+00 0.  1.
         23    2    1    2    0    0 -0.42031821306E+02  0.13909992891E+02 -0.32274833212E+03  0.33651466067E+03  0.84353239748E+02 0.  0.
         24    2    1    2    0    0 -0.54968630003E+02  0.16805518465E+02 -0.43391769650E+02  0.10740908611E+03  0.79686199370E+02 0.  0.
        -11    1    4    4    0    0 -0.21464665697E+02  0.22370968517E+02  0.19007392254E+02  0.36365822776E+02  0.00000000000E+00 0.  1.
         12    1    4    4    0    0 -0.33503964306E+02 -0.55654500524E+01 -0.62399161905E+02  0.71043263332E+02  0.00000000000E+00 0. -1.
        -11    1    3    3    0    0 -0.57576488455E+02  0.30860654620E+02 -0.28433303773E+03  0.29174082397E+03  0.00000000000E+00 0.  1.
         11    1    3    3    0    0  0.15544667149E+02 -0.16950661729E+02 -0.38415294389E+02  0.44773836700E+02  0.00000000000E+00 0. -1.
         -2    1    1    2    0  502  0.97000451309E+02 -0.30715511356E+02 -0.87876525041E+02  0.13444260428E+03  0.00000000000E+00 0.  1.
<scales pt_clust_5="13000.00000" pt_clust_6="13000.00000" pt_clust_7="13000.00000" pt_clust_8="13000.00000" pt_clust_9="13000.00000"></scales>
<clustering>
<clus scale="   79.686">  5  6 -1 -1</clus>
<clus scale="   84.353">  7  8 -1 -1</clus>
<clus scale="   95.266">  2  7  1 -1</clus>
<clus scale="   75.370">  5  9 -1 -1</clus>
<clus scale="  203.128">  1  5  2 -1</clus>
</clustering>
</event>
<event>
 9    2  0.3726337E-005  0.1851576E+03  0.7546771E-02  0.1196490E+00
         -3   -1    0    0    0  501 -0.00000000000E+00  0.00000000000E+00  0.15588566635E+03  0.15588566635E+03  0.00000000000E+00 0.  1.
         21   -1    0    0  501  502  0.00000000000E+00 -0.00000000000E+00 -0.12009305783E+03  0.12009305783E+03  0.00000000000E+00 0. -1.
         23    2    1    2    0    0  0.28129987002E+02 -0.10509285941E+01 -0.20173733615E+01  0.87000113951E+02  0.82295500561E+02 0.  0.
         24    2    1    2    0    0  0.13339647664E+02  0.24549627711E+02 -0.43699496861E+02  0.94555548515E+02  0.79059947562E+02 0.  0.
        -11    1    4    4    0    0  0.51987749681E+01  0.44667032145E+02 -0.54217099635E+02  0.70439086554E+02  0.00000000000E+00 0.  1.
         12    1    4    4    0    0  0.81408726954E+01 -0.20117404434E+02  0.10517602774E+02  0.24116461961E+02  0.00000000000E+00 0. -1.
        -13    1    3    3    0    0  0.37621661305E+02 -0.21823669377E+02 -0.28523413950E+02  0.52011989846E+02  0.00000000000E+00 0. -1.
         13    1    3    3    0    0 -0.94916743027E+01  0.20772740783E+02  0.26506040588E+02  0.34988124105E+02  0.00000000000E+00 0.  1.
         -4    1    1    2    0  502 -0.41469634666E+02 -0.23498699117E+02  0.81509478741E+02  0.94423061718E+02  0.00000000000E+00 0.  1.
<scales pt_clust_5="13000.00000" pt_clust_6="13000.00000" pt_clust_7="13000.00000" pt_clust_8="13000.00000" pt_clust_9="13000.00000"></scales>
<clustering>
<clus scale="   79.060">  5  6 -1 -1</clus>
<clus scale="   47.665">  5  9 -1 -1</clus>
<clus scale="   82.296">  7  8 -1 -1</clus>
<clus scale="   86.977">  1  7  2 -1</clus>
<clus scale="  185.158">  2  5  1 -1</clus>
</clustering>
</event>
<event>
 9    2  0.3726337E-005  0.3701619E+03  0.7546771E-02  0.1076282E+00
          2   -1    0    0  502    0 -0.00000000000E+00  0.00000000000E+00  0.13294443432E+04  0.13294443432E+04  0.00000000000E+00 0. -1.
         21   -1    0    0  501  502  0.00000000000E+00 -0.00000000000E+00 -0.61845211017E+02  0.61845211017E+02  0.00000000000E+00 0. -1.
         23    2    1    2    0    0 -0.13900533116E+02  0.18096521567E+03  0.46173129459E+03  0.50447344040E+03  0.91411320762E+02 0.  0.
         24    2    1    2    0    0 -0.37292280249E+02 -0.51980381003E+02  0.42898460966E+02  0.11132913044E+03  0.80381733967E+02 0.  0.
        -13    1    4    4    0    0  0.41122074597E+00 -0.63345862339E+02  0.25883967781E+02  0.68431331757E+02  0.00000000000E+00 0.  1.
         14    1    4    4    0    0 -0.37703500995E+02  0.11365481337E+02  0.17014493185E+02  0.42897798681E+02  0.00000000000E+00 0. -1.
        -13    1    3    3    0    0  0.23811493980E+02  0.65572432015E+02  0.25846628032E+03  0.26771542568E+03  0.00000000000E+00 0. -1.
         13    1    3    3    0    0 -0.37712027096E+02  0.11539278366E+03  0.20326501427E+03  0.23675801472E+03  0.00000000000E+00 0.  1.
          1    1    1    2  501    0  0.51192813365E+02 -0.12898483467E+03  0.76296937662E+03  0.77548698337E+03  0.00000000000E+00 0. -1.
<scales pt_clust_5="13000.00000" pt_clust_6="13000.00000" pt_clust_7="13000.00000" pt_clust_8="13000.00000" pt_clust_9="13000.00000"></scales>
<clustering>
<clus scale="   80.382">  5  6 -1 -1</clus>
<clus scale="   91.411">  7  8 -1 -1</clus>
<clus scale="  138.773">  5  9 -1 -1</clus>
<clus scale="  203.218">  1  7  2 -1</clus>
<clus scale="  370.162">  2  5  1 -1</clus>
</clustering>
</event>
<event>
 9    2  0.3726337E-005  0.2862022E+03  0.7546771E-02  0.1121621E+00
         21   -1    0    0  501  502  0.00000000000E+00  0.00000000000E+00  0.37845062531E+02  0.37845062531E+02  0.00000000000E+00 0. -1.
          4   -1    0    0  502    0 -0.00000000000E+00 -0.00000000000E+00 -0.14538980375E+04  0.14538980375E+04  0.00000000000E+00 0. -1.
         23    2    1    2    0    0 -0.26084913769E+02  0.92528646042E+02 -0.19298573417E+03  0.23563595692E+03  0.95072801227E+02 0.  0.
         24    2    1    2    0    0 -0.40596618620E+02  0.40466907318E+02 -0.20367731942E+03  0.22591781305E+03  0.79175449325E+02 0.  0.
        -13    1    4    4    0    0  0.23185990578E+02  0.19369947966E+02 -0.54580025039E+02  0.62384005776E+02  0.00000000000E+00 0.  1.
         14    1    4    4    0    0 -0.63782609198E+02  0.21096959352E+02 -0.14909729438E+03  0.16353380727E+03  0.00000000000E+00 0. -1.
        -13    1    3    3    0    0 -0.32081606816E+02  0.68474570236E+02 -0.19654682366E+03  0.21059119202E+03  0.00000000000E+00 0.  1.
         13    1    3    3    0    0  0.59966930476E+01  0.24054075806E+02  0.35610894888E+01  0.25044764897E+02  0.00000000000E+00 0. -1.
          3    1    1    2  501    0  0.66681532388E+02 -0.13299555336E+03 -0.10193899214E+04  0.10301893301E+04  0.00000000000E+00 0. -1.
<scales pt_clust_5="13000.00000" pt_clust_6="13000.00000" pt_clust_7="13000.00000" pt_clust_8="13000.00000" pt_clust_9="13000.00000"></scales>
<clustering>
<clus scale="   79.175">  5  6 -1 -1</clus>
<clus scale="   95.073">  7  8 -1 -1</clus>
<clus scale="  135.207">  2  7  1 -1</clus>
<clus scale="   72.304">  5  9 -1 -1</clus>
<clus scale="  286.202">  1  5  2 -1</clus>
</clustering>
</event>
<event>
 9    2  0.3726337E-005  0.4999903E+03  0.7546771E-02  0.1038562E+00
          2   -1    0    0  502    0 -0.00000000000E+00  0.00000000000E+00  0.12249440842E+03  0.12249440842E+03  0.00000000000E+00 0. -1.
         21   -1    0    0  501  502  0.00000000000E+00 -0.00000000000E+00 -0.11143257031E+04  0.11143257031E+04  0.00000000000E+00 0.  1.
         23    2    1    2    0    0  0.15157389516E+03 -0.15870958095E+03 -0.29672051203E+03  0.38056706129E+03  0.92870065678E+02 0.  0.
         24    2    1    2    0    0 -0.51271077011E+02 -0.14212935930E+03 -0.16007087695E+03  0.23429451143E+03  0.80260540280E+02 0.  0.
        -13    1    4    4    0    0 -0.66316150726E+02 -0.10402464533E+03 -0.88493595229E+02  0.15182251177E+03  0.00000000000E+00 0.  1.
         14    1    4    4    0    0  0.15045073715E+02 -0.38104713973E+02 -0.71577281720E+02  0.82471999663E+02  0.00000000000E+00 0. -1.
        -13    1    3    3    0    0  0.10908185733E+03 -0.47121177313E+02 -0.15272013415E+03  0.19350115329E+03  0.00000000000E+00 0. -1.
         13    1    3    3    0    0  0.42492037829E+02 -0.11158840364E+03 -0.14400037788E+03  0.18706590800E+03  0.00000000000E+00 0.  1.
          1    1    1    2  501    0 -0.10030281815E+03  0.30083894025E+03 -0.53503990575E+03  0.62195853885E+03  0.00000000000E+00 0. -1.
<scales pt_clust_5="13000.00000" pt_clust_6="13000.00000" pt_clust_7="13000.00000" pt_clust_8="13000.00000" pt_clust_9="13000.00000"></scales>
<clustering>
<clus scale="   80.261">  5  6 -1 -1</clus>
<clus scale="   92.870">  7  8 -1 -1</clus>
<clus scale="  238.303">  1  7  2 -1</clus>
<clus scale="  216.030">  5  9 -1 -1</clus>
<clus scale="  499.990">  2  5  1 -1</clus>
</clustering>
</event>
<event>
 9    2  0.3726337E-005  0.2717304E+03  0.7546771E-02  0.1137464E+00
          2   -1    0    0  502    0 -0.00000000000E+00  0.00000000000E+00  0.10948458992E+04  0.10948458992E+04  0.00000000000E+00 0. -1.
         21   -1    0    0  501  502  0.00000000000E+00 -0.00000000000E+00 -0.33968832005E+02  0.33968832005E+02  0.00000000000E+00 0. -1.
         23    2    1    2    0    0 -0.78533784800E+01  0.56267825697E+02  0.40441666333E+03  0.41833766759E+03  0.90696321777E+02 0.  0.
         24    2    1    2    0    0 -0.79590422235E+02 -0.83804778208E+02  0.19611774941E+03  0.24109442488E+03  0.79413310670E+02 0.  0.
        -13    1    4    4    0    0 -0.17231451880E+02 -0.12091751820E+02  0.11268155350E+03  0.11463099884E+03  0.00000000000E+00 0.  1.
         14    1    4    4    0    0 -0.62358970355E+02 -0.71713026388E+02  0.83436195915E+02  0.12646342604E+03  0.00000000000E+00 0. -1.
        -13    1    3    3    0    0  0.36941781831E+02  0.37567306684E+02  0.27744379338E+03  0.28240229507E+03  0.00000000000E+00 0.  1.
         13    1    3    3    0    0 -0.44795160311E+02  0.18700519013E+02  0.12697286995E+03  0.13593537252E+03  0.00000000000E+00 0. -1.
          1    1    1    2  501    0  0.87443800715E+02  0.27536952511E+02  0.46034265441E+03  0.46938263869E+03  0.00000000000E+00 0. -1.
<scales pt_clust_5="13000.00000" pt_clust_6="13000.00000" pt_clust_7="13000.00000" pt_clust_8="13000.00000" pt_clust_9="13000.00000"></scales>
<clustering>
<clus scale="   79.413">  5  6 -1 -1</clus>
<clus scale="   90.696">  7  8 -1 -1</clus>
<clus scale="   91.677">  5  9 -1 -1</clus>
<clus scale="  107.021">  1  7  2 -1</clus>
<clus scale="  271.730">  2  5  1 -1</clus>
</clustering>
</event>
<event>
 9    2  0.3726337E-005  0.9590056E+03  0.7546771E-02  0.9928159E-01
          2   -1    0    0  502    0 -0.00000000000E+00  0.00000000000E+00  0.16245445272E+04  0.16245445272E+04  0.00000000000E+00 0. -1.
         21   -1    0    0  501  502  0.00000000000E+00 -0.00000000000E+00 -0.19253623413E+03  0.19253623413E+03  0.00000000000E+00 0. -1.
         23    2    1    2    0    0  0.51510587705E+02  0.89176227566E+02  0.32441442030E+03  0.35200194183E+03  0.89749154593E+02 0.  0.
         24    2    1    2    0    0 -0.43897288790E+03  0.17854335693E+03  0.46761293416E+03  0.67048684132E+03  0.79472143329E+02 0.  0.
        -11    1    4    4    0    0 -0.30161655523E+03  0.84205708296E+02  0.32256152699E+03  0.44956544172E+03  0.00000000000E+00 0.  1.
         12    1    4    4    0    0 -0.13735633268E+03  0.94337648638E+02  0.14505140717E+03  0.22092139960E+03  0.00000000000E+00 0. -1.
        -13    1    3    3    0    0  0.12334326531E+01  0.66454948986E+02  0.25396819798E+03  0.26252166993E+03  0.00000000000E+00 0.  1.
         13    1    3    3    0    0  0.50277155052E+02  0.22721278581E+02  0.70446222321E+02  0.89480271902E+02  0.00000000000E+00 0. -1.
          1    1    1    2  501    0  0.38746230020E+03 -0.26771958450E+03  0.63998093864E+03  0.79459197820E+03  0.00000000000E+00 0. -1.
<scales pt_clust_5="13000.00000" pt_clust_6="13000.00000" pt_clust_7="13000.00000" pt_clust_8="13000.00000" pt_clust_9="13000.00000"></scales>
<clustering>
<clus scale="   79.472">  5  6 -1 -1</clus>
<clus scale="   89.749">  7  8 -1 -1</clus>
<clus scale="  136.604">  1  7  2 -1</clus>
<clus scale="  469.821">  5  9 -1 -1</clus>
<clus scale="  959.006">  2  5  1 -1</clus>
</clustering>
</event>
<event>
 9    2  0.3726337E-005  0.3907066E+03  0.7546771E-02  0.1081040E+00
         21   -1    0    0  501  502  0.00000000000E+00  0.00000000000E+00  0.81266706289E+02  0.81266706289E+02  0.00000000000E+00 0. -1.
          2   -1    0    0  502    0 -0.00000000000E+00 -0.00000000000E+00 -0.11117085821E+04  0.11117085821E+04  0.00000000000E+00 0. -1.
         23    2    1    2    0    0  0.12069667829E+03 -0.16782412831E+02 -0.56600271470E+03  0.58605238431E+03  0.90823931763E+02 0.  0.
         24    2    1    2    0    0  0.11843016626E+03  0.27645241112E+02 -0.22638318430E+03  0.26932803309E+03  0.80611907529E+02 0.  0.
        -11    1    4    4    0    0  0.63990127776E+02  0.39694773958E+02 -0.18545956002E+03  0.20016408253E+03  0.00000000000E+00 0.  1.
         12    1    4    4    0    0  0.54440038487E+02 -0.12049532846E+02 -0.40923624279E+02  0.69163950556E+02  0.00000000000E+00 0. -1.
        -11    1    3    3    0    0  0.10966642304E+03  0.18093845449E+02 -0.47795349037E+03  0.49070729620E+03  0.00000000000E+00 0. -1.
         11    1    3    3    0    0  0.11030255251E+02 -0.34876258280E+02 -0.88049224326E+02  0.95345088111E+02  0.00000000000E+00 0.  1.
          1    1    1    2  501    0 -0.23912684455E+03 -0.10862828281E+02 -0.23805597682E+03  0.33759487100E+03  0.00000000000E+00 0. -1.
<scales pt_clust_5="13000.00000" pt_clust_6="13000.00000" pt_clust_7="13000.00000" pt_clust_8="13000.00000" pt_clust_9="13000.00000"></scales>
<clustering>
<clus scale="   80.612">  5  6 -1 -1</clus>
<clus scale="   90.824">  7  8 -1 -1</clus>
<clus scale="  151.981">  2  7  1 -1</clus>
<clus scale="  175.406">  5  9 -1 -1</clus>
<clus scale="  390.707">  1  5  2 -1</clus>
</clustering>
</event>
<event>
 9    2  0.3726337E-005  0.3799726E+03  0.7546771E-02  0.1104265E+00
         21   -1    0    0  501  502  0.00000000000E+00  0.00000000000E+00  0.44647615214E+02  0.44647615214E+02  0.00000000000E+00 0. -1.
          2   -1    0    0  502    0 -0.00000000000E+00 -0.00000000000E+00 -0.12539149987E+04  0.12539149987E+04  0.00000000000E+00 0. -1.
         23    2    1    2    0    0 -0.33680145428E+02  0.37604713065E+02 -0.17374664530E+03  0.19552934345E+03  0.74130700515E+02 0.  0.
         24    2    1    2    0    0  0.66060257085E+02  0.14032174741E+03 -0.31690976229E+03  0.36201503070E+03  0.81048964580E+02 0.  0.
        -13    1    4    4    0    0 -0.18859386872E+02  0.25149805887E+02 -0.67771282404E+02  0.74707000529E+02  0.00000000000E+00 0.  1.
         14    1    4    4    0    0  0.84919643957E+02  0.11517194152E+03 -0.24913847989E+03  0.28730803018E+03  0.00000000000E+00 0. -1.
        -13    1    3    3    0    0 -0.17614301228E+02  0.55264730187E+02 -0.80156079402E+02  0.98941654905E+02  0.00000000000E+00 0. -1.
         13    1    3    3    0    0 -0.16065844200E+02 -0.17660017122E+02 -0.93590565893E+02  0.96587688547E+02  0.00000000000E+00 0.  1.
          1    1    1    2  501    0 -0.32380111657E+02 -0.17792646047E+03 -0.71861097590E+03  0.74101823975E+03  0.00000000000E+00 0. -1.
<scales pt_clust_5="13000.00000" pt_clust_6="13000.00000" pt_clust_7="13000.00000" pt_clust_8="13000.00000" pt_clust_9="13000.00000"></scales>
<clustering>
<clus scale="   74.131">  7  8 -1 -1</clus>
<clus scale="   81.049">  5  6 -1 -1</clus>
<clus scale="   89.687">  2  7  1 -1</clus>
<clus scale="  162.015">  5  9 -1 -1</clus>
<clus scale="  379.973">  1  5  2 -1</clus>
</clustering>
</event>
<event>
 9    2  0.3726337E-005  0.3846945E+03  0.7546771E-02  0.1051829E+00
          2   -1    0    0  502    0 -0.00000000000E+00  0.00000000000E+00  0.18176755964E+04  0.18176755964E+04  0.00000000000E+00 0. -1.
         21   -1    0    0  501  502  0.00000000000E+00 -0.00000000000E+00 -0.82361236962E+02  0.82361236962E+02  0.00000000000E+00 0. -1.
         23    2    1    2    0    0  0.33909490586E+03 -0.63036211671E+02  0.11085344408E+04  0.11646165754E+04  0.92326822235E+02 0.  0.
         24    2    1    2    0    0 -0.11019331616E+03 -0.12859572722E+01  0.13385038946E+03  0.18814263196E+03  0.73058213706E+02 0.  0.
        -13    1    4    4    0    0 -0.98396155766E+02 -0.14782185821E+02  0.69569958095E+02  0.12140961888E+03  0.00000000000E+00 0.  1.
         14    1    4    4    0    0 -0.11797160395E+02  0.13496228549E+02  0.64280431367E+02  0.66733013083E+02  0.00000000000E+00 0. -1.
        -13    1    3    3    0    0  0.14785474691E+03  0.16061212098E+02  0.41392335981E+03  0.43983125914E+03  0.00000000000E+00 0.  1.
         13    1    3    3    0    0  0.19124015895E+03 -0.79097423769E+02  0.69461108095E+03  0.72478531623E+03  0.00000000000E+00 0. -1.
          1    1    1    2  501    0 -0.22890158970E+03  0.64322168943E+02  0.49292952922E+03  0.54727762604E+03  0.00000000000E+00 0. -1.
<scales pt_clust_5="13000.00000" pt_clust_6="13000.00000" pt_clust_7="13000.00000" pt_clust_8="13000.00000" pt_clust_9="13000.00000"></scales>
<clustering>
<clus scale="   73.058">  5  6 -1 -1</clus>
<clus scale="   92.327">  7  8 -1 -1</clus>
<clus scale="  237.767">  5  9 -1 -1</clus>
<clus scale="  357.048">  1  7  2 -1</clus>
<clus scale="  384.695">  2  5  1 -1</clus>
</clustering>
</event>
<event>
 9    2  0.3726337E-005  0.3368637E+03  0.7546771E-02  0.1081604E+00
         -3   -1    0    0    0  501 -0.00000000000E+00  0.00000000000E+00  0.74706679660E+02  0.74706679660E+02  0.00000000000E+00 0.  1.
         21   -1    0    0  501  502  0.00000000000E+00 -0.00000000000E+00 -0.10900285790E+04  0.10900285790E+04  0.00000000000E+00 0. -1.
         23    2    1    2    0    0  0.16848944085E+03 -0.12921348128E+03 -0.39700668035E+03  0.46061106710E+03  0.97280190521E+02 0.  0.
         24    2    1    2    0    0 -0.22128658120E+02  0.43097686217E+02 -0.39308297746E+02  0.10072844769E+03  0.79082171404E+02 0.  0.
        -11    1    4    4    0    0 -0.47611410464E+02  0.35898650276E+02 -0.87072145653E+01  0.60260891825E+02  0.00000000000E+00 0.  1.
         12    1    4    4    0    0  0.25482752344E+02  0.71990359411E+01 -0.30601083181E+02  0.40467555861E+02  0.00000000000E+00 0. -1.
        -13    1    3    3    0    0  0.11970668707E+03 -0.36520162420E+02 -0.25600963797E+03  0.28496376599E+03  0.00000000000E+00 0. -1.
         13    1    3    3    0    0  0.48782753784E+02 -0.92693318856E+02 -0.14099704238E+03  0.17564730111E+03  0.00000000000E+00 0.  1.
         -4    1    1    2    0  502 -0.14636078273E+03  0.86115795058E+02 -0.57900692119E+03  0.60339574383E+03  0.00000000000E+00 0.  1.
<scales pt_clust_5="13000.00000" pt_clust_6="13000.00000" pt_clust_7="13000.00000" pt_clust_8="13000.00000" pt_clust_9="13000.00000"></scales>
<clustering>
<clus scale="   79.082">  5  6 -1 -1</clus>
<clus scale="   97.280">  7  8 -1 -1</clus>
<clus scale="  169.816">  5  9 -1 -1</clus>
<clus scale="  233.556">  1  7  2 -1</clus>
<clus scale="  336.864">  2  5  1 -1</clus>
</clustering>
</event>
<event>
 9    2  0.3726337E-005  0.1162821E+03  0.7546771E-02  0.1256939E+00
         -1   -1    0    0    0  501 -0.00000000000E+00  0.00000000000E+00  0.25650297109E+03  0.25650297109E+03  0.00000000000E+00 0.  1.
         21   -1    0    0  501  502  0.00000000000E+00 -0.00000000000E+00 -0.50271167636E+02  0.50271167636E+02  0.00000000000E+00 0.  1.
         23    2    1    2    0    0  0.37355534294E+02  0.18183598465E+02  0.49452079682E+02  0.11157830543E+03  0.90984234136E+02 0.  0.
         24    2    1    2    0    0 -0.45608649132E+02  0.42865835234E+01  0.11995223490E+03  0.15127218454E+03  0.79976318286E+02 0.  0.
        -11    1    4    4    0    0 -0.65476154820E+02  0.66007993703E+01  0.63774852974E+02  0.91640216467E+02  0.00000000000E+00 0.  1.
         12    1    4    4    0    0  0.19867505688E+02 -0.23142158469E+01  0.56177381921E+02  0.59631968077E+02  0.00000000000E+00 0. -1.
        -13    1    3    3    0    0  0.39806911372E+02  0.52152085199E+02  0.36961140659E+02  0.75303094906E+02  0.00000000000E+00 0.  1.
         13    1    3    3    0    0 -0.24513770775E+01 -0.33968486734E+02  0.12490939024E+02  0.36275210520E+02  0.00000000000E+00 0. -1.
         -2    1    1    2    0  502  0.82531148378E+01 -0.22470181988E+02  0.36827488878E+02  0.43923648758E+02  0.00000000000E+00 0.  1.
<scales pt_clust_5="13000.00000" pt_clust_6="13000.00000" pt_clust_7="13000.00000" pt_clust_8="13000.00000" pt_clust_9="13000.00000"></scales>
<clustering>
<clus scale="   79.976">  5  6 -1 -1</clus>
<clus scale="   23.938">  5  9 -1 -1</clus>
<clus scale="   90.984">  7  8 -1 -1</clus>
<clus scale="  100.021">  1  7  2 -1</clus>
<clus scale="  116.282">  2  5  1 -1</clus>
</clustering>
</event>
<event>
 9    2  0.3726337E-005  0.2564187E+03  0.7546771E-02  0.1137200E+00
          2   -1    0    0  502    0 -0.00000000000E+00  0.00000000000E+00  0.31631957412E+03  0.31631957412E+03  0.00000000000E+00 0. -1.
         21   -1    0    0  501  502  0.00000000000E+00 -0.00000000000E+00 -0.13399804330E+03  0.13399804330E+03  0.00000000000E+00 0. -1.
         23    2    1    2    0    0 -0.79366612641E+02  0.35227189787E+02  0.14106426499E+03  0.19060097502E+03  0.94284626086E+02 0.  0.
         24    2    1    2    0    0  0.73050595930E+02 -0.12537922080E+03  0.24168790691E+02  0.16774220713E+03  0.80603840083E+02 0.  0.
        -13    1    4    4    0    0  0.30388165961E+02 -0.11394757321E+01  0.19842042827E+02  0.36310407585E+02  0.00000000000E+00 0.  1.
         14    1    4    4    0    0  0.42662429969E+02 -0.12423974507E+03  0.43267478632E+01  0.13143179955E+03  0.00000000000E+00 0. -1.
        -11    1    3    3    0    0 -0.94586627429E+02  0.48826949405E+02  0.10726874668E+03  0.15112010154E+03  0.00000000000E+00 0.  1.
         11    1    3    3    0    0  0.15220014789E+02 -0.13599759618E+02  0.33795518317E+02  0.39480873472E+02  0.00000000000E+00 0. -1.
          1    1    1    2  501    0  0.63160167112E+01  0.90152031011E+02  0.17088475134E+02  0.91974435279E+02  0.00000000000E+00 0. -1.
<scales pt_clust_5="13000.00000" pt_clust_6="13000.00000" pt_clust_7="13000.00000" pt_clust_8="13000.00000" pt_clust_9="13000.00000"></scales>
<clustering>
<clus scale="   80.604">  5  6 -1 -1</clus>
<clus scale="   90.373">  5  9 -1 -1</clus>
<clus scale="   94.285">  7  8 -1 -1</clus>
<clus scale="  128.178">  1  7  2 -1</clus>
<clus scale="  256.419">  2  5  1 -1</clus>
</clustering>
</event>
<event>
 9    2  0.3726337E-005  0.2138875E+03  0.7546771E-02  0.1155030E+00
         21   -1    0    0  501  502  0.00000000000E+00  0.00000000000E+00  0.35270678577E+03  0.35270678577E+03  0.00000000000E+00 0. -1.
          2   -1    0    0  502    0 -0.00000000000E+00 -0.00000000000E+00 -0.11225848130E+03  0.11225848130E+03  0.00000000000E+00 0. -1.
         23    2    1    2    0    0  0.75140903755E+02 -0.39925428414E+02  0.20103382019E+03  0.24747647505E+03  0.11657535586E+03 0.  0.
         24    2    1    2    0    0  0.35564493566E+01 -0.82647531142E+00 -0.47836807643E+02  0.93123286403E+02  0.79813876685E+02 0.  0.
        -11    1    4    4    0    0 -0.17279482137E+01  0.38795367254E+02 -0.15915125359E+02  0.41968530360E+02  0.00000000000E+00 0.  1.
         12    1    4    4    0    0  0.52843975703E+01 -0.39621842565E+02 -0.31921682284E+02  0.51154756043E+02  0.00000000000E+00 0. -1.
        -11    1    3    3    0    0  0.20073006557E+02  0.41442950156E+02  0.66382768228E+02  0.80790566451E+02  0.00000000000E+00 0.  1.
         11    1    3    3    0    0  0.55067897197E+02 -0.81368378570E+02  0.13465105196E+03  0.16668590860E+03  0.00000000000E+00 0. -1.
          1    1    1    2  501    0 -0.78697353111E+02  0.40751903725E+02  0.87251291923E+02  0.12436550561E+03  0.00000000000E+00 0. -1.
<scales pt_clust_5="13000.00000" pt_clust_6="13000.00000" pt_clust_7="13000.00000" pt_clust_8="13000.00000" pt_clust_9="13000.00000"></scales>
<clustering>
<clus scale="   79.814">  5  6 -1 -1</clus>
<clus scale="   88.623">  5  9 -1 -1</clus>
<clus scale="  116.575">  7  8 -1 -1</clus>
<clus scale="  144.326">  2  7  1 -1</clus>
<clus scale="  213.888">  1  5  2 -1</clus>
</clustering>
</event>
<event>
 9    2  0.3726337E-005  0.5709548E+03  0.7546771E-02  0.1043011E+00
          2   -1    0    0  502    0 -0.00000000000E+00  0.00000000000E+00  0.16490883422E+04  0.16490883422E+04  0.00000000000E+00 0. -1.
         21   -1    0    0  501  502  0.00000000000E+00 -0.00000000000E+00 -0.94576156637E+02  0.94576156637E+02  0.00000000000E+00 0. -1.
         23    2    1    2    0    0 -0.83929944155E+02 -0.67989616388E+02  0.71303091570E+03  0.72676719558E+03  0.90059127034E+02 0.  0.
         24    2    1    2    0    0  0.26545053305E+03  0.10462745731E+02  0.76112599569E+03  0.81021872400E+03  0.81044092077E+02 0.  0.
        -13    1    4    4    0    0  0.12593342963E+03 -0.35257742637E+02  0.37189976678E+03  0.39422299989E+03  0.00000000000E+00 0.  1.
         14    1    4    4    0    0  0.13951710342E+03  0.45720488368E+02  0.38922622891E+03  0.41599572410E+03  0.00000000000E+00 0. -1.
        -13    1    3    3    0    0 -0.77411484049E+02 -0.89279667376E+02  0.58511856508E+03  0.59693142996E+03  0.00000000000E+00 0.  1.
         13    1    3    3    0    0 -0.65184601064E+01  0.21290050988E+02  0.12791235062E+03  0.12983576562E+03  0.00000000000E+00 0. -1.
          1    1    1    2  501    0 -0.18152058889E+03  0.57526870657E+02  0.80355274177E+02  0.20667857926E+03  0.00000000000E+00 0. -1.
<scales pt_clust_5="13000.00000" pt_clust_6="13000.00000" pt_clust_7="13000.00000" pt_clust_8="13000.00000" pt_clust_9="13000.00000"></scales>
<clustering>
<clus scale="   81.044">  5  6 -1 -1</clus>
<clus scale="   90.059">  7  8 -1 -1</clus>
<clus scale="  140.632">  1  7  2 -1</clus>
<clus scale="  200.089">  5  9 -1 -1</clus>
<clus scale="  570.955">  2  5  1 -1</clus>
</clustering>
</event>
<event>
 9    2  0.3726337E-005  0.1667731E+03  0.7546771E-02  0.1206531E+00
          2   -1    0    0  502    0 -0.00000000000E+00  0.00000000000E+00  0.13090198834E+03  0.13090198834E+03  0.00000000000E+00 0. -1.
         21   -1    0    0  501  502  0.00000000000E+00 -0.00000000000E+00 -0.35087121500E+03  0.35087121500E+03  0.00000000000E+00 0. -1.
         23    2    1    2    0    0  0.65660901487E+01 -0.25523055805E+02  0.88958333364E+02  0.13070413363E+03  0.92062183093E+02 0.  0.
         24    2    1    2    0    0  0.35623413263E+02  0.42004750769E+02 -0.28116204072E+03  0.29794163302E+03  0.81753879961E+02 0.  0.
        -13    1    4    4    0    0  0.43225003263E+02  0.12129248150E+02 -0.61588321664E+02  0.76214440450E+02  0.00000000000E+00 0.  1.
         14    1    4    4    0    0 -0.76015900006E+01  0.29875502619E+02 -0.21957371905E+03  0.22172719257E+03  0.00000000000E+00 0. -1.
        -11    1    3    3    0    0  0.97801662994E+01  0.34377538161E+02  0.34845792609E+02  0.49916891384E+02  0.00000000000E+00 0.  1.
         11    1    3    3    0    0 -0.32140761508E+01 -0.59900593966E+02  0.54112540755E+02  0.80787242247E+02  0.00000000000E+00 0. -1.
          1    1    1    2  501    0 -0.42189503411E+02 -0.16481694964E+02 -0.27765519304E+02  0.53127436690E+02  0.00000000000E+00 0. -1.
<scales pt_clust_5="13000.00000" pt_clust_6="13000.00000" pt_clust_7="13000.00000" pt_clust_8="13000.00000" pt_clust_9="13000.00000"></scales>
<clustering>
<clus scale="   81.754">  5  6 -1 -1</clus>
<clus scale="   45.295">  5  9 -1 -1</clus>
<clus scale="   92.062">  7  8 -1 -1</clus>
<clus scale="   95.760">  1  7  2 -1</clus>
<clus scale="  166.773">  2  5  1 -1</clus>
</clustering>
</event>
<event>
 9    2  0.3726337E-005  0.2122885E+03  0.7546771E-02  0.1158126E+00
         21   -1    0    0  501  502  0.00000000000E+00  0.00000000000E+00  0.71047474289E+02  0.71047474289E+02  0.00000000000E+00 0. -1.
          2   -1    0    0  502    0 -0.00000000000E+00 -0.00000000000E+00 -0.43075879871E+03  0.43075879871E+03  0.00000000000E+00 0. -1.
         23    2    1    2    0    0 -0.60376765089E+02  0.80807548449E+02 -0.13108912376E+03  0.18982149241E+03  0.93126940050E+02 0.  0.
         24    2    1    2    0    0 -0.28845721352E+02 -0.16236195010E+02 -0.47466170678E+02  0.99976245453E+02  0.81526208224E+02 0.  0.
        -11    1    4    4    0    0 -0.56681863826E+02 -0.70262735064E+01 -0.39972082840E+02  0.69713482288E+02  0.00000000000E+00 0.  1.
         12    1    4    4    0    0  0.27836142473E+02 -0.92099215035E+01 -0.74940878376E+01  0.30262763166E+02  0.00000000000E+00 0. -1.
        -11    1    3    3    0    0  0.78547102525E+01  0.23508773651E+02 -0.86900797498E+02  0.90366517680E+02  0.00000000000E+00 0.  1.
         11    1    3    3    0    0 -0.68231475342E+02  0.57298774798E+02 -0.44188326265E+02  0.99454974731E+02  0.00000000000E+00 0. -1.
          1    1    1    2  501    0  0.89222486442E+02 -0.64571353439E+02 -0.18115602998E+03  0.21200853514E+03  0.00000000000E+00 0. -1.
<scales pt_clust_5="13000.00000" pt_clust_6="13000.00000" pt_clust_7="13000.00000" pt_clust_8="13000.00000" pt_clust_9="13000.00000"></scales>
<clustering>
<clus scale="   81.526">  5  6 -1 -1</clus>
<clus scale="   93.127">  7  8 -1 -1</clus>
<clus scale="  110.137">  5  9 -1 -1</clus>
<clus scale="  137.288">  2  7  1 -1</clus>
<clus scale="  212.288">  1  5  2 -1</clus>
</clustering>
</event>
<event>
 9    2  0.3726337E-005  0.2402967E+03  0.7546771E-02  0.1141558E+00
          2   -1    0    0  502    0 -0.00000000000E+00  0.00000000000E+00  0.15455471858E+04  0.15455471858E+04  0.00000000000E+00 0. -1.
         21   -1    0    0  501  502  0.00000000000E+00 -0.00000000000E+00 -0.25045389288E+02  0.25045389288E+02  0.00000000000E+00 0.  1.
         23    2    1    2    0    0  0.83229717289E+02  0.67715147924E+02  0.37958952493E+03  0.40464946746E+03  0.90224481043E+02 0.  0.
         24    2    1    2    0    0 -0.10239048606E+03  0.30049880629E+02  0.50373970185E+03  0.52102914478E+03  0.79566799115E+02 0.  0.
        -11    1    4    4    0    0 -0.24903780779E+02 -0.26920974427E+02  0.12498854312E+03  0.13025771790E+03  0.00000000000E+00 0.  1.
         12    1    4    4    0    0 -0.77486705282E+02  0.56970855056E+02  0.37875115873E+03  0.39077142687E+03  0.00000000000E+00 0. -1.
        -11    1    3    3    0    0  0.37834626657E+02  0.64855189072E+02  0.32516081034E+03  0.33371725623E+03  0.00000000000E+00 0. -1.
         11    1    3    3    0    0  0.45395090632E+02  0.28599588519E+01  0.54428714593E+02  0.70932211233E+02  0.00000000000E+00 0.  1.
          1    1    1    2  501    0  0.19160768771E+02 -0.97765028553E+02  0.63717256969E+03  0.64491396281E+03  0.00000000000E+00 0. -1.
<scales pt_clust_5="13000.00000" pt_clust_6="13000.00000" pt_clust_7="13000.00000" pt_clust_8="13000.00000" pt_clust_9="13000.00000"></scales>
<clustering>
<clus scale="   79.567">  5  6 -1 -1</clus>
<clus scale="   90.224">  7  8 -1 -1</clus>
<clus scale="   99.625">  5  9 -1 -1</clus>
<clus scale="  140.189">  1  7  2 -1</clus>
<clus scale="  240.297">  2  5  1 -1</clus>
</clustering>
</event>
<event>
 9    2  0.3726337E-005  0.2049923E+03  0.7546771E-02  0.1169663E+00
         21   -1    0    0  501  502  0.00000000000E+00  0.00000000000E+00  0.19063224035E+03  0.19063224035E+03  0.00000000000E+00 0.  1.
         -1   -1    0    0    0  501 -0.00000000000E+00 -0.00000000000E+00 -0.21085774006E+03  0.21085774006E+03  0.00000000000E+00 0.  1.
         23    2    1    2    0    0 -0.42100412022E+02  0.49517216350E+02 -0.12517951656E+03  0.17119196401E+03  0.97017409603E+02 0.  0.
         24    2    1    2    0    0  0.79758737378E+02  0.25396936959E+02  0.81033987520E+02  0.14310600050E+03  0.83104510408E+02 0.  0.
        -13    1    4    4    0    0  0.61086742840E+02  0.42546193562E+02  0.89467134624E+02  0.11638787272E+03  0.00000000000E+00 0.  1.
         14    1    4    4    0    0  0.18671994538E+02 -0.17149256604E+02 -0.84331471044E+01  0.26718127782E+02  0.00000000000E+00 0. -1.
        -11    1    3    3    0    0 -0.17944562947E+02 -0.27672164654E+02 -0.20225152161E+02  0.38688665212E+02  0.00000000000E+00 0. -1.
         11    1    3    3    0    0 -0.24155849075E+02  0.77189381004E+02 -0.10495436440E+03  0.13250329879E+03  0.00000000000E+00 0.  1.
         -2    1    1    2    0  502 -0.37658325356E+02 -0.74914153308E+02  0.23920029339E+02  0.87192015908E+02  0.00000000000E+00 0.  1.
<scales pt_clust_5="13000.00000" pt_clust_6="13000.00000" pt_clust_7="13000.00000" pt_clust_8="13000.00000" pt_clust_9="13000.00000"></scales>
<clustering>
<clus scale="   83.105">  5  6 -1 -1</clus>
<clus scale="   83.847">  5  9 -1 -1</clus>
<clus scale="   97.017">  7  8 -1 -1</clus>
<clus scale="  116.777">  2  7  1 -1</clus>
<clus scale="  204.992">  1  5  2 -1</clus>
</clustering>
</event>
<event>
 9    2  0.3726337E-005  0.1595340E+03  0.7546771E-02  0.1210543E+00
         -1   -1    0    0    0  501 -0.00000000000E+00  0.00000000000E+00  0.11931051087E+03  0.11931051087E+03  0.00000000000E+00 0.  1.
         21   -1    0    0  501  502  0.00000000000E+00 -0.00000000000E+00 -0.35405747274E+03  0.35405747274E+03  0.00000000000E+00 0.  1.
         23    2    1    2    0    0 -0.17114876822E+02  0.26529579536E+02  0.74755877340E+02  0.12516816593E+03  0.95298955751E+02 0.  0.
         24    2    1    2    0    0 -0.31248577092E+02  0.16635918944E+02 -0.12605581468E+03  0.15363595994E+03  0.80378556843E+02 0.  0.
        -13    1    4    4    0    0 -0.50995210470E+02 -0.11464413442E+02 -0.63239799472E+02  0.82043991271E+02  0.00000000000E+00 0.  1.
         14    1    4    4    0    0  0.19746633379E+02  0.28100332386E+02 -0.62816015212E+02  0.71591968664E+02  0.00000000000E+00 0. -1.
        -11    1    3    3    0    0 -0.35547831332E+02  0.52279024881E+02  0.67885826425E+02  0.92764379933E+02  0.00000000000E+00 0.  1.
         11    1    3    3    0    0  0.18432954511E+02 -0.25749445345E+02  0.68700509156E+01  0.32403786001E+02  0.00000000000E+00 0. -1.
         -2    1    1    2    0  502  0.48363453914E+02 -0.43165498480E+02 -0.18344702453E+03  0.19456385775E+03  0.00000000000E+00 0.  1.
<scales pt_clust_5="13000.00000" pt_clust_6="13000.00000" pt_clust_7="13000.00000" pt_clust_8="13000.00000" pt_clust_9="13000.00000"></scales>
<clustering>
<clus scale="   80.379">  5  6 -1 -1</clus>
<clus scale="   64.825">  5  9 -1 -1</clus>
<clus scale="   95.299">  7  8 -1 -1</clus>
<clus scale="  100.392">  1  7  2 -1</clus>
<clus scale="  159.534">  2  5  1 -1</clus>
</clustering>
</event>
<event>
 9    2  0.3726337E-005  0.1864286E+03  0.7546771E-02  0.1189922E+00
         21   -1    0    0  501  502  0.00000000000E+00  0.00000000000E+00  0.28506641658E+02  0.28506641658E+02  0.00000000000E+00 0. -1.
          2   -1    0    0  502    0 -0.00000000000E+00 -0.00000000000E+00 -0.71175718539E+03  0.71175718539E+03  0.00000000000E+00 0. -1.
         23    2    1    2    0    0  0.31581239568E+02 -0.23415538045E+02 -0.23986544243E+03  0.25927946309E+03  0.90248254232E+02 0.  0.
         24    2    1    2    0    0  0.24100903591E+02 -0.44699105030E+02 -0.27496464846E+03  0.29096974715E+03  0.80492063626E+02 0.  0.
        -13    1    4    4    0    0  0.24360638541E+02  0.85046918790E+01 -0.26941982585E+02  0.37304703721E+02  0.00000000000E+00 0.  1.
         14    1    4    4    0    0 -0.25973495006E+00 -0.53203796909E+02 -0.24802266588E+03  0.25366504343E+03  0.00000000000E+00 0. -1.
        -13    1    3    3    0    0  0.57005457765E+02 -0.31433105561E+02 -0.20681230333E+03  0.21681556944E+03  0.00000000000E+00 0. -1.
         13    1    3    3    0    0 -0.25424218197E+02  0.80175675162E+01 -0.33053139099E+02  0.42463893652E+02  0.00000000000E+00 0.  1.
          1    1    1    2  501    0 -0.55682143160E+02  0.68114643074E+02 -0.16842045283E+03  0.19001461681E+03  0.00000000000E+00 0. -1.
<scales pt_clust_5="13000.00000" pt_clust_6="13000.00000" pt_clust_7="13000.00000" pt_clust_8="13000.00000" pt_clust_9="13000.00000"></scales>
<clustering>
<clus scale="   80.492">  5  6 -1 -1</clus>
<clus scale="   87.978">  5  9 -1 -1</clus>
<clus scale="   90.248">  7  8 -1 -1</clus>
<clus scale="   98.440">  2  7  1 -1</clus>
<clus scale="  186.429">  1  5  2 -1</clus>
</clustering>
</event>
<event>
 9    2  0.3726337E-005  0.4037019E+03  0.7546771E-02  0.1052065E+00
         21   -1    0    0  501  502  0.00000000000E+00  0.00000000000E+00  0.47502916121E+02  0.47502916121E+02  0.00000000000E+00 0. -1.
          2   -1    0    0  502    0 -0.00000000000E+00 -0.00000000000E+00 -0.26605384751E+04  0.26605384751E+04  0.00000000000E+00 0. -1.
         23    2    1    2    0    0 -0.27705663753E+03  0.10000739854E+03 -0.11748172526E+04  0.12142384824E+04  0.86125809224E+02 0.  0.
         24    2    1    2    0    0  0.14972291926E+03 -0.12180081876E+03 -0.44086825013E+03  0.48812106863E+03  0.81516695567E+02 0.  0.
        -11    1    4    4    0    0  0.28296534109E+02 -0.32958396460E+02 -0.19573245040E+03  0.20049474278E+03  0.00000000000E+00 0.  1.
         12    1    4    4    0    0  0.12142638515E+03 -0.88842422305E+02 -0.24513579973E+03  0.28762632585E+03  0.00000000000E+00 0. -1.
        -13    1    3    3    0    0 -0.99421075948E+01  0.28148115856E+02 -0.96796378267E+02  0.10129511723E+03  0.00000000000E+00 0.  1.
         13    1    3    3    0    0 -0.26711452993E+03  0.71859282687E+02 -0.10780208743E+04  0.11129433652E+04  0.00000000000E+00 0. -1.
          1    1    1    2  501    0  0.12733371826E+03  0.21793420222E+02 -0.99735005626E+03  0.10056818402E+04  0.00000000000E+00 0. -1.
<scales pt_clust_5="13000.00000" pt_clust_6="13000.00000" pt_clust_7="13000.00000" pt_clust_8="13000.00000" pt_clust_9="13000.00000"></scales>
<clustering>
<clus scale="   81.517">  5  6 -1 -1</clus>
<clus scale="   86.126">  7  8 -1 -1</clus>
<clus scale="  129.185">  5  9 -1 -1</clus>
<clus scale="  306.887">  2  7  1 -1</clus>
<clus scale="  403.702">  1  5  2 -1</clus>
</clustering>
</event>
<event>
 9    2  0.3726337E-005  0.5486762E+03  0.7546771E-02  0.1049893E+00
         21   -1    0    0  501  502  0.00000000000E+00  0.00000000000E+00  0.13044371379E+03  0.13044371379E+03  0.00000000000E+00 0.  1.
         -1   -1    0    0    0  501 -0.00000000000E+00 -0.00000000000E+00 -0.90792695995E+03  0.90792695995E+03  0.00000000000E+00 0.  1.
         23    2    1    2    0    0 -0.14846480492E+02  0.92407672954E+02 -0.87106234045E+02  0.15651697677E+03  0.90279964577E+02 0.  0.
         24    2    1    2    0    0  0.14599252310E+03 -0.15294050496E+03 -0.70138649630E+03  0.73699267053E+03  0.80688068243E+02 0.  0.
        -13    1    4    4    0    0  0.13139194552E+03 -0.16079175253E+03 -0.61733627986E+03  0.65132320200E+03  0.00000000000E+00 0.  1.
         14    1    4    4    0    0  0.14600577582E+02  0.78512475708E+01 -0.84050216437E+02  0.85669468525E+02  0.00000000000E+00 0. -1.
        -11    1    3    3    0    0  0.47230297805E+01  0.98656848559E+02 -0.92453831463E+02  0.13528928904E+03  0.00000000000E+00 0.  1.
         11    1    3    3    0    0 -0.19569510272E+02 -0.62491756050E+01  0.53475974186E+01  0.21227687726E+02  0.00000000000E+00 0. -1.
         -2    1    1    2    0  502 -0.13114604261E+03  0.60532832007E+02  0.11009484185E+02  0.14486102645E+03  0.00000000000E+00 0.  1.
<scales pt_clust_5="13000.00000" pt_clust_6="13000.00000" pt_clust_7="13000.00000" pt_clust_8="13000.00000" pt_clust_9="13000.00000"></scales>
<clustering>
<clus scale="   80.688">  5  6 -1 -1</clus>
<clus scale="   90.280">  7  8 -1 -1</clus>
<clus scale="  130.039">  2  7  1 -1</clus>
<clus scale="  149.033">  5  9 -1 -1</clus>
<clus scale="  548.676">  1  5  2 -1</clus>
</clustering>
</event>
<event>
 9    2  0.3726337E-005  0.2795691E+03  0.7546771E-02  0.1120702E+00
         -3   -1    0    0    0  501 -0.00000000000E+00  0.00000000000E+00  0.67602536039E+02  0.67602536039E+02  0.00000000000E+00 0.  1.
         21   -1    0    0  501  502  0.00000000000E+00 -0.00000000000E+00 -0.73607763669E+03  0.73607763669E+03  0.00000000000E+00 0.  1.
         23    2    1    2    0    0 -0.11609949980E+03 -0.73475905538E+01 -0.13154841980E+03  0.19832974403E+03  0.92177110377E+02 0.  0.
         24    2    1    2    0    0  0.41352217690E+02  0.22827034599E+02 -0.45902467084E+02  0.10842835444E+03  0.86131249535E+02 0.  0.
        -13    1    4    4    0    0 -0.22407685984E+02 -0.10928031041E+02 -0.47704183264E+01  0.25382733198E+02  0.00000000000E+00 0.  1.
         14    1    4    4    0    0  0.63759903675E+02  0.33755065641E+02 -0.41132048758E+02  0.83045621245E+02  0.00000000000E+00 0. -1.
        -11    1    3    3    0    0 -0.98833839884E+02  0.28963246980E+02 -0.11625338602E+03  0.15531209657E+03  0.00000000000E+00 0.  1.
         11    1    3    3    0    0 -0.17265659912E+02 -0.36310837534E+02 -0.15295033780E+02  0.43017647459E+02  0.00000000000E+00 0. -1.
         -4    1    1    2    0  502  0.74747282106E+02 -0.15479444045E+02 -0.49102421377E+03  0.49692207425E+03  0.00000000000E+00 0.  1.
<scales pt_clust_5="13000.00000" pt_clust_6="13000.00000" pt_clust_7="13000.00000" pt_clust_8="13000.00000" pt_clust_9="13000.00000"></scales>
<clustering>
<clus scale="   86.131">  5  6 -1 -1</clus>
<clus scale="   76.333">  5  9 -1 -1</clus>
<clus scale="   92.177">  7  8 -1 -1</clus>
<clus scale="  148.424">  1  7  2 -1</clus>
<clus scale="  279.569">  2  5  1 -1</clus>
</clustering>
</event>
<event>
 9    2  0.3726337E-005  0.4415939E+03  0.7546771E-02  0.1062834E+00
         21   -1    0    0  501  502  0.00000000000E+00  0.00000000000E+00  0.11597656851E+04  0.11597656851E+04  0.00000000000E+00 0.  1.
         -1   -1    0    0    0  501 -0.00000000000E+00 -0.00000000000E+00 -0.95802645673E+02  0.95802645673E+02  0.00000000000E+00 0.  1.
         23    2    1    2    0    0  0.10651221681E+03 -0.10266098498E+03  0.11225425091E+03  0.20639970741E+03  0.90087136741E+02 0.  0.
         24    2    1    2    0    0 -0.23106530008E+03 -0.68816695732E+00  0.37066674406E+03  0.44600664247E+03  0.90202236664E+02 0.  0.
        -13    1    4    4    0    0 -0.18659435084E+03 -0.36871833157E+02  0.27228286538E+03  0.33213693354E+03  0.00000000000E+00 0.  1.
         14    1    4    4    0    0 -0.44470949240E+02  0.36183666200E+02  0.98383878683E+02  0.11386970893E+03  0.00000000000E+00 0. -1.
        -11    1    3    3    0    0  0.71202870604E+02 -0.68606057616E+02  0.12132387659E+03  0.15651237317E+03  0.00000000000E+00 0. -1.
         11    1    3    3    0    0  0.35309346211E+02 -0.34054927366E+02 -0.90696256892E+01  0.49887334243E+02  0.00000000000E+00 0.  1.
         -2    1    1    2    0  502  0.12455308326E+03  0.10334915194E+03  0.58104204441E+03  0.60316198084E+03  0.00000000000E+00 0.  1.
<scales pt_clust_5="13000.00000" pt_clust_6="13000.00000" pt_clust_7="13000.00000" pt_clust_8="13000.00000" pt_clust_9="13000.00000"></scales>
<clustering>
<clus scale="   90.087">  7  8 -1 -1</clus>
<clus scale="   90.202">  5  6 -1 -1</clus>
<clus scale="  161.847">  5  9 -1 -1</clus>
<clus scale="  173.205">  2  7  1 -1</clus>
<clus scale="  441.594">  1  5  2 -1</clus>
</clustering>
</event>
<event>
 9    2  0.3726337E-005  0.4854077E+03  0.7546771E-02  0.1029976E+00
          2   -1    0    0  502    0 -0.00000000000E+00  0.00000000000E+00  0.12324090803E+04  0.12324090803E+04  0.00000000000E+00 0. -1.
         21   -1    0    0  501  502  0.00000000000E+00 -0.00000000000E+00 -0.18331782098E+03  0.18331782098E+03  0.00000000000E+00 0.  1.
         23    2    1    2    0    0 -0.24887132261E+03 -0.20474437932E+03  0.10029089857E+03  0.34996765550E+03  0.92530532691E+02 0.  0.
         24    2    1    2    0    0  0.18502920478E+02 -0.51170846507E+02  0.61000229233E+02  0.11352436034E+03  0.78777781300E+02 0.  0.
        -11    1    4    4    0    0  0.37605503540E+02 -0.43880367019E+02  0.70348964346E+02  0.91041953466E+02  0.00000000000E+00 0.  1.
         12    1    4    4    0    0 -0.19102583062E+02 -0.72904794886E+01 -0.93487351136E+01  0.22482406879E+02  0.00000000000E+00 0. -1.
        -11    1    3    3    0    0 -0.14104285854E+03 -0.15905932940E+03  0.94704972826E+02  0.23272728695E+03  0.00000000000E+00 0. -1.
         11    1    3    3    0    0 -0.10782846408E+03 -0.45685049915E+02  0.55859257403E+01  0.11724036855E+03  0.00000000000E+00 0.  1.
          1    1    1    2  501    0  0.23036840214E+03  0.25591522582E+03  0.88780013149E+03  0.95223488541E+03  0.00000000000E+00 0. -1.
<scales pt_clust_5="13000.00000" pt_clust_6="13000.00000" pt_clust_7="13000.00000" pt_clust_8="13000.00000" pt_clust_9="13000.00000"></scales>
<clustering>
<clus scale="   78.778">  5  6 -1 -1</clus>
<clus scale="   92.531">  7  8 -1 -1</clus>
<clus scale="  335.290">  1  7  2 -1</clus>
<clus scale="   68.976">  5  9 -1 -1</clus>
<clus scale="  485.408">  2  5  1 -1</clus>
</clustering>
</event>
<event>
 9    2  0.3726337E-005  0.2795866E+03  0.7546771E-02  0.1130701E+00
         21   -1    0    0  501  502  0.00000000000E+00  0.00000000000E+00  0.33697533940E+03  0.33697533940E+03  0.00000000000E+00 0.  1.
         -1   -1    0    0    0  501 -0.00000000000E+00 -0.00000000000E+00 -0.18559249433E+03  0.18559249433E+03  0.00000000000E+00 0.  1.
         23    2    1    2    0    0 -0.72579174118E+02 -0.33718009074E+01 -0.95061971553E+02  0.14986993073E+03  0.90250275035E+02 0.  0.
         24    2    1    2    0    0  0.11000810471E+02  0.35635016213E+02 -0.24715941813E+02  0.92767613741E+02  0.81265491865E+02 0.  0.
        -13    1    4    4    0    0 -0.16101274517E+02  0.51254050916E+02 -0.13798773281E+01  0.53741351283E+02  0.00000000000E+00 0.  1.
         14    1    4    4    0    0  0.27102084988E+02 -0.15619034703E+02 -0.23336064485E+02  0.39026262458E+02  0.00000000000E+00 0. -1.
        -13    1    3    3    0    0 -0.28386578357E+02 -0.44959766222E+02 -0.58362813013E+02  0.78951860982E+02  0.00000000000E+00 0.  1.
         13    1    3    3    0    0 -0.44192595761E+02  0.41587965315E+02 -0.36699158540E+02  0.70918069747E+02  0.00000000000E+00 0. -1.
         -2    1    1    2    0  502  0.61578363647E+02 -0.32263215305E+02  0.27116075843E+03  0.27993028926E+03  0.00000000000E+00 0.  1.
<scales pt_clust_5="13000.00000" pt_clust_6="13000.00000" pt_clust_7="13000.00000" pt_clust_8="13000.00000" pt_clust_9="13000.00000"></scales>
<clustering>
<clus scale="   81.265">  5  6 -1 -1</clus>
<clus scale="   69.518">  5  9 -1 -1</clus>
<clus scale="   90.250">  7  8 -1 -1</clus>
<clus scale="  115.863">  2  7  1 -1</clus>
<clus scale="  279.587">  1  5  2 -1</clus>
</clustering>
</event>
<event>
 9    2  0.3726337E-005  0.3030354E+03  0.7546771E-02  0.1112473E+00
          2   -1    0    0  502    0 -0.00000000000E+00  0.00000000000E+00  0.46256795121E+03  0.46256795121E+03  0.00000000000E+00 0. -1.
         21   -1    0    0  501  502  0.00000000000E+00 -0.00000000000E+00 -0.12712787802E+03  0.12712787802E+03  0.00000000000E+00 0. -1.
         23    2    1    2    0    0  0.25863527003E+02  0.10757046838E+03  0.22573879589E+03  0.26741514507E+03  0.91173066986E+02 0.  0.
         24    2    1    2    0    0  0.79162539672E+02  0.29075297998E+02 -0.34351098644E+01  0.11611962516E+03  0.79748897967E+02 0.  0.
        -13    1    4    4    0    0  0.20679724465E+02  0.44511723886E+02  0.17508797030E+02  0.52110483980E+02  0.00000000000E+00 0.  1.
         14    1    4    4    0    0  0.58482815207E+02 -0.15436425888E+02 -0.20943906895E+02  0.64009141181E+02  0.00000000000E+00 0. -1.
        -13    1    3    3    0    0 -0.24326591142E+02  0.25393072018E+02  0.20485370640E+02  0.40696947716E+02  0.00000000000E+00 0.  1.
         13    1    3    3    0    0  0.50190118145E+02  0.82177396364E+02  0.20525342525E+03  0.22671819735E+03  0.00000000000E+00 0. -1.
          1    1    1    2  501    0 -0.10502606668E+03 -0.13664576638E+03  0.11313638716E+03  0.20616105901E+03  0.00000000000E+00 0. -1.
<scales pt_clust_5="13000.00000" pt_clust_6="13000.00000" pt_clust_7="13000.00000" pt_clust_8="13000.00000" pt_clust_9="13000.00000"></scales>
<clustering>
<clus scale="   79.749">  5  6 -1 -1</clus>
<clus scale="   91.173">  7  8 -1 -1</clus>
<clus scale="  143.363">  1  7  2 -1</clus>
<clus scale="  103.174">  5  9 -1 -1</clus>
<clus scale="  303.035">  2  5  1 -1</clus>
</clustering>
</event>
<event>
 9    2  0.3726337E-005  0.2304921E+03  0.7546771E-02  0.1163227E+00
         21   -1    0    0  501  502  0.00000000000E+00  0.00000000000E+00  0.12031637772E+03  0.12031637772E+03  0.00000000000E+00 0. -1.
         -3   -1    0    0    0  501 -0.00000000000E+00 -0.00000000000E+00 -0.31942499210E+03  0.31942499210E+03  0.00000000000E+00 0.  1.
         23    2    1    2    0    0 -0.48746878161E+01  0.27502128246E+02 -0.18587850760E+03  0.20886986475E+03  0.91080575171E+02 0.  0.
         24    2    1    2    0    0 -0.91522793410E+02 -0.47351294082E+02 -0.34945646585E+02  0.13008446008E+03  0.71289562863E+02 0.  0.
        -13    1    4    4    0    0 -0.42053479307E+02 -0.53620168956E+02 -0.41506490175E+02  0.79789763550E+02  0.00000000000E+00 0.  1.
         14    1    4    4    0    0 -0.49469314104E+02  0.62688748740E+01  0.65608435901E+01  0.50294696526E+02  0.00000000000E+00 0. -1.
        -13    1    3    3    0    0  0.29428449228E+02  0.43626363247E+02 -0.74447192513E+02  0.91168402790E+02  0.00000000000E+00 0.  1.
         13    1    3    3    0    0 -0.34303137044E+02 -0.16124235001E+02 -0.11143131508E+03  0.11770146196E+03  0.00000000000E+00 0. -1.
         -4    1    1    2    0  502  0.96397481227E+02  0.19849165836E+02  0.21715539802E+02  0.10078704500E+03  0.00000000000E+00 0.  1.
<scales pt_clust_5="13000.00000" pt_clust_6="13000.00000" pt_clust_7="13000.00000" pt_clust_8="13000.00000" pt_clust_9="13000.00000"></scales>
<clustering>
<clus scale="   71.290">  5  6 -1 -1</clus>
<clus scale="   91.081">  7  8 -1 -1</clus>
<clus scale="   95.267">  2  7  1 -1</clus>
<clus scale="   99.084">  5  9 -1 -1</clus>
<clus scale="  230.492">  1  5  2 -1</clus>
</clustering>
</event>
<event>
 9    2  0.3726337E-005  0.3191729E+03  0.7546771E-02  0.1119456E+00
         21   -1    0    0  501  502  0.00000000000E+00  0.00000000000E+00  0.38739253831E+03  0.38739253831E+03  0.00000000000E+00 0.  1.
         -1   -1    0    0    0  501 -0.00000000000E+00 -0.00000000000E+00 -0.13520726260E+03  0.13520726260E+03  0.00000000000E+00 0.  1.
         23    2    1    2    0    0 -0.47469584987E+02 -0.17128209214E+02 -0.17948354281E+02  0.10445685162E+03  0.89679169155E+02 0.  0.
         24    2    1    2    0    0 -0.64300097847E+02  0.62160833442E+02 -0.99965768738E+01  0.11319486839E+03  0.68663490178E+02 0.  0.
        -13    1    4    4    0    0 -0.36144709300E+02  0.60183300689E+01  0.21966869325E+02  0.42722402263E+02  0.00000000000E+00 0.  1.
         14    1    4    4    0    0 -0.28155388547E+02  0.56142503373E+02 -0.31963446198E+02  0.70472466127E+02  0.00000000000E+00 0. -1.
        -11    1    3    3    0    0 -0.69727001898E+02 -0.88648877286E+01 -0.31605539227E+02  0.77067185870E+02  0.00000000000E+00 0.  1.
         11    1    3    3    0    0  0.22257416911E+02 -0.82633214853E+01  0.13657184946E+02  0.27389665755E+02  0.00000000000E+00 0. -1.
         -2    1    1    2    0  502  0.11176968283E+03 -0.45032624228E+02  0.28013020686E+03  0.30494808089E+03  0.00000000000E+00 0.  1.
<scales pt_clust_5="13000.00000" pt_clust_6="13000.00000" pt_clust_7="13000.00000" pt_clust_8="13000.00000" pt_clust_9="13000.00000"></scales>
<clustering>
<clus scale="   68.663">  5  6 -1 -1</clus>
<clus scale="   89.679">  7  8 -1 -1</clus>
<clus scale="  102.903">  2  7  1 -1</clus>
<clus scale="  114.330">  5  9 -1 -1</clus>
<clus scale="  319.173">  1  5  2 -1</clus>
</clustering>
</event>
<event>
 9    2  0.3726337E-005  0.2756353E+03  0.7546771E-02  0.1132377E+00
          2   -1    0    0  502    0 -0.00000000000E+00  0.00000000000E+00  0.10810925636E+04  0.10810925636E+04  0.00000000000E+00 0. -1.
         21   -1    0    0  501  502  0.00000000000E+00 -0.00000000000E+00 -0.38291958879E+02  0.38291958879E+02  0.00000000000E+00 0. -1.
         23    2    1    2    0    0 -0.60767139921E+02  0.38473656525E+02  0.46414852322E+03  0.47843751415E+03  0.91080929968E+02 0.  0.
         24    2    1    2    0    0  0.42512182219E+02  0.69530182270E+02  0.48047671422E+03  0.49385358420E+03  0.79948469918E+02 0.  0.
        -11    1    4    4    0    0  0.47804276612E+01  0.51753974465E+02  0.11741758633E+03  0.12840644821E+03  0.00000000000E+00 0.  1.
         12    1    4    4    0    0  0.37731754558E+02  0.17776207806E+02  0.36305912789E+03  0.36544713600E+03  0.00000000000E+00 0. -1.
        -13    1    3    3    0    0  0.16098025530E+02 -0.15328361035E+02  0.87799358319E+02  0.90569489339E+02  0.00000000000E+00 0.  1.
         13    1    3    3    0    0 -0.76865165451E+02  0.53802017560E+02  0.37634916490E+03  0.38786802481E+03  0.00000000000E+00 0. -1.
          1    1    1    2  501    0  0.18254957702E+02 -0.10800383880E+03  0.98175367257E+02  0.14709342409E+03  0.00000000000E+00 0. -1.
<scales pt_clust_5="13000.00000" pt_clust_6="13000.00000" pt_clust_7="13000.00000" pt_clust_8="13000.00000" pt_clust_9="13000.00000"></scales>
<clustering>
<clus scale="   79.948">  5  6 -1 -1</clus>
<clus scale="   91.081">  7  8 -1 -1</clus>
<clus scale="  109.536">  5  9 -1 -1</clus>
<clus scale="  116.054">  1  7  2 -1</clus>
<clus scale="  275.635">  2  5  1 -1</clus>
</clustering>
</event>
<event>
 9    2  0.3726337E-005  0.2697640E+03  0.7546771E-02  0.1145458E+00
         21   -1    0    0  501  502  0.00000000000E+00  0.00000000000E+00  0.41236812791E+03  0.41236812791E+03  0.00000000000E+00 0.  1.
         -1   -1    0    0    0  501 -0.00000000000E+00 -0.00000000000E+00 -0.98700186428E+02  0.98700186428E+02  0.00000000000E+00 0.  1.
         23    2    1    2    0    0 -0.60818419037E+01  0.73974152481E+01 -0.87684894598E+01  0.90666269310E+02  0.89731685763E+02 0.  0.
         24    2    1    2    0    0 -0.94889307251E+02  0.67328782609E+02  0.15233457724E+03  0.20894562342E+03  0.83158310011E+02 0.  0.
        -13    1    4    4    0    0 -0.91402532545E+02  0.71660061798E+02  0.16107778924E+03  0.19858409201E+03  0.00000000000E+00 0.  1.
         14    1    4    4    0    0 -0.34867747065E+01 -0.43312791887E+01 -0.87432119934E+01  0.10361531413E+02  0.00000000000E+00 0. -1.
        -11    1    3    3    0    0 -0.11707835092E+02 -0.39942989880E+02  0.24326573642E+01  0.41694527997E+02  0.00000000000E+00 0.  1.
         11    1    3    3    0    0  0.56259931881E+01  0.47340405128E+02 -0.11201146824E+02  0.48971741313E+02  0.00000000000E+00 0. -1.
         -2    1    1    2    0  502  0.10097114915E+03 -0.74726197857E+02  0.17010185369E+03  0.21145642161E+03  0.00000000000E+00 0.  1.
<scales pt_clust_5="13000.00000" pt_clust_6="13000.00000" pt_clust_7="13000.00000" pt_clust_8="13000.00000" pt_clust_9="13000.00000"></scales>
<clustering>
<clus scale="   83.158">  5  6 -1 -1</clus>
<clus scale="   89.732">  7  8 -1 -1</clus>
<clus scale="   90.241">  2  7  1 -1</clus>
<clus scale="  121.698">  5  9 -1 -1</clus>
<clus scale="  269.764">  1  5  2 -1</clus>
</clustering>
</event>
<event>
 9    2  0.3726337E-005  0.4898173E+03  0.7546771E-02  0.1060699E+00
          2   -1    0    0  502    0 -0.00000000000E+00  0.00000000000E+00  0.70669307064E+03  0.70669307064E+03  0.00000000000E+00 0. -1.
         21   -1    0    0  501  502  0.00000000000E+00 -0.00000000000E+00 -0.14569043002E+03  0.14569043002E+03  0.00000000000E+00 0. -1.
         23    2    1    2    0    0 -0.97657180019E+02  0.14620840114E+02  0.47766238083E+02  0.14292412050E+03  0.91624215929E+02 0.  0.
         24    2    1    2    0    0  0.50254343425E+01 -0.79498523847E+02 -0.55813162214E+02  0.12928082031E+03  0.85165433954E+02 0.  0.
        -13    1    4    4    0    0 -0.39993299356E+02 -0.42305436757E+02 -0.27845791833E+02  0.64533728355E+02  0.00000000000E+00 0.  1.
         14    1    4    4    0    0  0.45018733699E+02 -0.37193087090E+02 -0.27967370381E+02  0.64747091959E+02  0.00000000000E+00 0. -1.
        -13    1    3    3    0    0 -0.58162251358E+02  0.53687676924E+02  0.28250166741E+02  0.84043358199E+02  0.00000000000E+00 0.  1.
         13    1    3    3    0    0 -0.39494928661E+02 -0.39066836810E+02  0.19516071342E+02  0.58880762299E+02  0.00000000000E+00 0. -1.
          1    1    1    2  501    0  0.92631745677E+02  0.64877683733E+02  0.56904956475E+03  0.58017855984E+03  0.00000000000E+00 0. -1.
<scales pt_clust_5="13000.00000" pt_clust_6="13000.00000" pt_clust_7="13000.00000" pt_clust_8="13000.00000" pt_clust_9="13000.00000"></scales>
<clustering>
<clus scale="   85.165">  5  6 -1 -1</clus>
<clus scale="   91.624">  7  8 -1 -1</clus>
<clus scale="  113.092">  5  9 -1 -1</clus>
<clus scale="  134.706">  1  7  2 -1</clus>
<clus scale="  489.817">  2  5  1 -1</clus>
</clustering>
</event>
<event>
 9    2  0.3726337E-005  0.3505375E+03  0.7546771E-02  0.1099284E+00
         21   -1    0    0  501  502  0.00000000000E+00  0.00000000000E+00  0.37721435178E+03  0.37721435178E+03  0.00000000000E+00 0. -1.
          2   -1    0    0  502    0 -0.00000000000E+00 -0.00000000000E+00 -0.15430862203E+03  0.15430862203E+03  0.00000000000E+00 0. -1.
         23    2    1    2    0    0  0.61954955108E+01 -0.94819985856E+02  0.38938578009E+02  0.13564360271E+03  0.88621443315E+02 0.  0.
         24    2    1    2    0    0 -0.12048783798E+03 -0.50931682967E+02  0.31022018654E+02  0.15567424575E+03  0.78490443469E+02 0.  0.
        -13    1    4    4    0    0 -0.23152124613E+02 -0.40737956026E+01 -0.24720233330E+02  0.34113144396E+02  0.00000000000E+00 0.  1.
         14    1    4    4    0    0 -0.97335713370E+02 -0.46857887364E+02  0.55742251983E+02  0.12156110135E+03  0.00000000000E+00 0. -1.
        -13    1    3    3    0    0  0.22203895405E+02  0.60225483175E+00 -0.13094051867E+02  0.25784295149E+02  0.00000000000E+00 0.  1.
         13    1    3    3    0    0 -0.16008399895E+02 -0.95422240688E+02  0.52032629875E+02  0.10985930756E+03  0.00000000000E+00 0. -1.
          1    1    1    2  501    0  0.11429234247E+03  0.14575166882E+03  0.15294513309E+03  0.24020512536E+03  0.00000000000E+00 0. -1.
<scales pt_clust_5="13000.00000" pt_clust_6="13000.00000" pt_clust_7="13000.00000" pt_clust_8="13000.00000" pt_clust_9="13000.00000"></scales>
<clustering>
<clus scale="   78.490">  5  6 -1 -1</clus>
<clus scale="   88.621">  7  8 -1 -1</clus>
<clus scale="  129.934">  2  7  1 -1</clus>
<clus scale="  158.237">  5  9 -1 -1</clus>
<clus scale="  350.538">  1  5  2 -1</clus>
</clustering>
</event>
<event>
 9    2  0.3726337E-005  0.4092315E+03  0.7546771E-02  0.1059280E+00
          2   -1    0    0  502    0 -0.00000000000E+00  0.00000000000E+00  0.13468468139E+04  0.13468468139E+04  0.00000000000E+00 0. -1.
         21   -1    0    0  501  502  0.00000000000E+00 -0.00000000000E+00 -0.89180683922E+02  0.89180683922E+02  0.00000000000E+00 0. -1.
         23    2    1    2    0    0  0.16189011822E+03 -0.15255485434E+03  0.72825810812E+03  0.76689131316E+03  0.91000110932E+02 0.  0.
         24    2    1    2    0    0  0.59687923989E+02  0.79204225705E+02  0.51355053186E+02  0.13714766565E+03  0.79600144886E+02 0.  0.
        -13    1    4    4    0    0  0.90519571467E+01  0.20841810588E+02  0.55293617020E+02  0.59780457341E+02  0.00000000000E+00 0.  1.
         14    1    4    4    0    0  0.50635966843E+02  0.58362415117E+02 -0.39385638347E+01  0.77367208309E+02  0.00000000000E+00 0. -1.
        -11    1    3    3    0    0 -0.27084419846E+01 -0.41849115120E+02  0.13227642143E+03  0.13876503796E+03  0.00000000000E+00 0.  1.
         11    1    3    3    0    0  0.16459856020E+03 -0.11070573922E+03  0.59598168670E+03  0.62812627520E+03  0.00000000000E+00 0. -1.
          1    1    1    2  501    0 -0.22157804221E+03  0.73350628639E+02  0.47805296868E+03  0.53198851903E+03  0.00000000000E+00 0. -1.
<scales pt_clust_5="13000.00000" pt_clust_6="13000.00000" pt_clust_7="13000.00000" pt_clust_8="13000.00000" pt_clust_9="13000.00000"></scales>
<clustering>
<clus scale="   79.600">  5  6 -1 -1</clus>
<clus scale="   91.000">  7  8 -1 -1</clus>
<clus scale="  233.404">  5  9 -1 -1</clus>
<clus scale="  240.338">  1  7  2 -1</clus>
<clus scale="  409.231">  2  5  1 -1</clus>
</clustering>
</event>
<event>
 9    2  0.3726337E-005  0.1144299E+03  0.7546771E-02  0.1261869E+00
         -3   -1    0    0    0  501 -0.00000000000E+00  0.00000000000E+00  0.21702053824E+03  0.21702053824E+03  0.00000000000E+00 0.  1.
         21   -1    0    0  501  502  0.00000000000E+00 -0.00000000000E+00 -0.58452605196E+02  0.58452605196E+02  0.00000000000E+00 0.  1.
         23    2    1    2    0    0 -0.12406442207E+02  0.22423626068E+02  0.12314602711E+03  0.15568621545E+03  0.91741565684E+02 0.  0.
         24    2    1    2    0    0 -0.15335481620E+02 -0.10618304385E+02  0.12153997388E+02  0.81703131879E+02  0.78611428697E+02 0.  0.
        -11    1    4    4    0    0 -0.69785985384E+01 -0.23768556192E+02 -0.28739378455E+02  0.37942021229E+02  0.00000000000E+00 0.  1.
         12    1    4    4    0    0 -0.83568830820E+01  0.13150251807E+02  0.40893375843E+02  0.43761110650E+02  0.00000000000E+00 0. -1.
        -11    1    3    3    0    0 -0.50416059357E+02  0.26617124963E+02  0.73162893964E+02  0.92752678859E+02  0.00000000000E+00 0.  1.
         11    1    3    3    0    0  0.38009617150E+02 -0.41934988946E+01  0.49983133144E+02  0.62933536590E+02  0.00000000000E+00 0. -1.
         -4    1    1    2    0  502  0.27741923828E+02 -0.11805321683E+02  0.23267908543E+02  0.38083796104E+02  0.00000000000E+00 0.  1.
<scales pt_clust_5="13000.00000" pt_clust_6="13000.00000" pt_clust_7="13000.00000" pt_clust_8="13000.00000" pt_clust_9="13000.00000"></scales>
<clustering>
<clus scale="   78.611">  5  6 -1 -1</clus>
<clus scale="   30.149">  5  9 -1 -1</clus>
<clus scale="   91.742">  7  8 -1 -1</clus>
<clus scale="   95.254">  1  7  2 -1</clus>
<clus scale="  114.430">  2  5  1 -1</clus>
</clustering>
</event>
<event>
 9    2  0.3726337E-005  0.2060693E+03  0.7546771E-02  0.1158636E+00
         21   -1    0    0  501  502  0.00000000000E+00  0.00000000000E+00  0.34795089142E+02  0.34795089142E+02  0.00000000000E+00 0.  1.
          2   -1    0    0  502    0 -0.00000000000E+00 -0.00000000000E+00 -0.94826889004E+03  0.94826889004E+03  0.00000000000E+00 0. -1.
         23    2    1    2    0    0 -0.76968221489E+01 -0.11670717822E+03 -0.27914703397E+03  0.31610444401E+03  0.91209354943E+02 0.  0.
         24    2    1    2    0    0 -0.57908110883E+02  0.84675753493E+02 -0.35959017423E+03  0.38268815994E+03  0.81374454345E+02 0.  0.
        -13    1    4    4    0    0 -0.66470326184E+02  0.91577843171E+02 -0.27478244178E+03  0.29717031469E+03  0.00000000000E+00 0.  1.
         14    1    4    4    0    0  0.85622153011E+01 -0.69020896780E+01 -0.84807732450E+02  0.85517845249E+02  0.00000000000E+00 0. -1.
        -11    1    3    3    0    0  0.38901821784E+02 -0.76092108422E+02 -0.18016854208E+03  0.19940928829E+03  0.00000000000E+00 0.  1.
         11    1    3    3    0    0 -0.46598643933E+02 -0.40615069801E+02 -0.98978491894E+02  0.11669515572E+03  0.00000000000E+00 0. -1.
          1    1    1    2  501    0  0.65604933032E+02  0.32031424730E+02 -0.27473659269E+03  0.28427137522E+03  0.00000000000E+00 0. -1.
<scales pt_clust_5="13000.00000" pt_clust_6="13000.00000" pt_clust_7="13000.00000" pt_clust_8="13000.00000" pt_clust_9="13000.00000"></scales>
<clustering>
<clus scale="   81.374">  5  6 -1 -1</clus>
<clus scale="   73.007">  5  9 -1 -1</clus>
<clus scale="   91.209">  7  8 -1 -1</clus>
<clus scale="  148.321">  2  7  1 -1</clus>
<clus scale="  206.069">  1  5  2 -1</clus>
</clustering>
</event>
<event>
 9    2  0.3726337E-005  0.2345576E+03  0.7546771E-02  0.1159484E+00
          2   -1    0    0  502    0 -0.00000000000E+00  0.00000000000E+00  0.41774473455E+03  0.41774473455E+03  0.00000000000E+00 0. -1.
         21   -1    0    0  501  502  0.00000000000E+00 -0.00000000000E+00 -0.68434537667E+02  0.68434537667E+02  0.00000000000E+00 0. -1.
         23    2    1    2    0    0 -0.12768524063E+02 -0.37610327760E+02  0.14359569857E+03  0.17419257454E+03  0.90253844329E+02 0.  0.
         24    2    1    2    0    0  0.43661329795E+02 -0.63388295214E+02  0.45132655614E+02  0.11978468028E+03  0.79918867213E+02 0.  0.
        -13    1    4    4    0    0 -0.75094413200E+01 -0.37445706372E+02  0.49183800621E+02  0.62270529773E+02  0.00000000000E+00 0.  1.
         14    1    4    4    0    0  0.51170771115E+02 -0.25942588841E+02 -0.40511450074E+01  0.57514150503E+02  0.00000000000E+00 0. -1.
        -11    1    3    3    0    0  0.34912370058E+02 -0.28754676982E+02  0.42488492438E+02  0.62056240791E+02  0.00000000000E+00 0. -1.
         11    1    3    3    0    0 -0.47680894121E+02 -0.88556507781E+01  0.10110720613E+03  0.11213633375E+03  0.00000000000E+00 0.  1.
          1    1    1    2  501    0 -0.30892805732E+02  0.10099862297E+03  0.16058184270E+03  0.19220201740E+03  0.00000000000E+00 0. -1.
<scales pt_clust_5="13000.00000" pt_clust_6="13000.00000" pt_clust_7="13000.00000" pt_clust_8="13000.00000" pt_clust_9="13000.00000"></scales>
<clustering>
<clus scale="   79.919">  5  6 -1 -1</clus>
<clus scale="   90.254">  7  8 -1 -1</clus>
<clus scale="   98.607">  1  7  2 -1</clus>
<clus scale="   85.136">  5  9 -1 -1</clus>
<clus scale="  234.558">  2  5  1 -1</clus>
</clustering>
</event>
<event>
 9    2  0.4126755E-005  0.3102708E+03  0.7546771E-02  0.1102596E+00
          4   -1    0    0  502    0 -0.00000000000E+00  0.00000000000E+00  0.28606412290E+03  0.28606412290E+03  0.00000000000E+00 0. -1.
         21   -1    0    0  501  502  0.00000000000E+00 -0.00000000000E+00 -0.24923117451E+03  0.24923117451E+03  0.00000000000E+00 0. -1.
         23    2    1    2    0    0 -0.66239577759E+02  0.12940129397E+03  0.12516382917E+03  0.21269601250E+03  0.91876183302E+02 0.  0.
         24    2    1    2    0    0  0.73409246331E+02  0.32320489100E+02  0.35019714561E+02  0.11907850308E+03  0.80745142426E+02 0.  0.
        -13    1    4    4    0    0 -0.44620458331E+01  0.20234280828E+02  0.34534152232E+02  0.40273361469E+02  0.00000000000E+00 0.  1.
         14    1    4    4    0    0  0.77871292164E+02  0.12086208272E+02  0.48556232969E+00  0.78805141612E+02  0.00000000000E+00 0. -1.
        -13    1    3    3    0    0  0.20761718266E+02  0.30033277365E+02  0.11031393169E+02  0.38141032103E+02  0.00000000000E+00 0.  1.
         13    1    3    3    0    0 -0.87001296025E+02  0.99368016607E+02  0.11413243600E+03  0.17455498040E+03  0.00000000000E+00 0. -1.
          3    1    1    2  501    0 -0.71696685718E+01 -0.16172178307E+03 -0.12335059534E+03  0.20352078183E+03  0.00000000000E+00 0. -1.
<scales pt_clust_5="13000.00000" pt_clust_6="13000.00000" pt_clust_7="13000.00000" pt_clust_8="13000.00000" pt_clust_9="13000.00000"></scales>
<clustering>
<clus scale="   80.745">  5  6 -1 -1</clus>
<clus scale="   91.876">  7  8 -1 -1</clus>
<clus scale="  161.881">  5  9 -1 -1</clus>
<clus scale="  171.970">  1  7  2 -1</clus>
<clus scale="  310.271">  2  5  1 -1</clus>
</clustering>
</event>
<event>
 9    2  0.3726337E-005  0.2940067E+03  0.7546771E-02  0.1097906E+00
          2   -1    0    0  502    0 -0.00000000000E+00  0.00000000000E+00  0.10579036549E+04  0.10579036549E+04  0.00000000000E+00 0. -1.
         21   -1    0    0  501  502  0.00000000000E+00 -0.00000000000E+00 -0.68275256423E+02  0.68275256423E+02  0.00000000000E+00 0. -1.
         23    2    1    2    0    0  0.44842850072E+02 -0.20436882145E+03  0.56815754616E+03  0.61229410627E+03  0.91233650250E+02 0.  0.
         24    2    1    2    0    0 -0.38120399911E+02  0.18800238582E+02  0.65179107692E+02  0.11210787991E+03  0.80704688826E+02 0.  0.
        -13    1    4    4    0    0 -0.47308989531E+02  0.31829201074E+02  0.14294534401E+02  0.58784115586E+02  0.00000000000E+00 0.  1.
         14    1    4    4    0    0  0.91885896206E+01 -0.13028962492E+02  0.50884573291E+02  0.53323764325E+02  0.00000000000E+00 0. -1.
        -11    1    3    3    0    0  0.58503649577E+02 -0.63343207809E+02  0.19885766589E+03  0.21674734202E+03  0.00000000000E+00 0.  1.
         11    1    3    3    0    0 -0.13660799506E+02 -0.14102561364E+03  0.36929988027E+03  0.39554676425E+03  0.00000000000E+00 0. -1.
          1    1    1    2  501    0 -0.67224501612E+01  0.18556858287E+03  0.35629174461E+03  0.40177692512E+03  0.00000000000E+00 0. -1.
<scales pt_clust_5="13000.00000" pt_clust_6="13000.00000" pt_clust_7="13000.00000" pt_clust_8="13000.00000" pt_clust_9="13000.00000"></scales>
<clustering>
<clus scale="   80.705">  5  6 -1 -1</clus>
<clus scale="   91.234">  7  8 -1 -1</clus>
<clus scale="  185.690">  5  9 -1 -1</clus>
<clus scale="  228.257">  1  7  2 -1</clus>
<clus scale="  294.007">  2  5  1 -1</clus>
</clustering>
</event>
<event>
 9    2  0.3726337E-005  0.1234371E+03  0.7546771E-02  0.1251995E+00
         21   -1    0    0  501  502  0.00000000000E+00  0.00000000000E+00  0.55111191035E+02  0.55111191035E+02  0.00000000000E+00 0.  1.
         -1   -1    0    0    0  501 -0.00000000000E+00 -0.00000000000E+00 -0.21598181696E+03  0.21598181696E+03  0.00000000000E+00 0.  1.
         23    2    1    2    0    0  0.41798400257E+01  0.13784837088E+02 -0.89452600395E+02  0.12848424196E+03  0.91098517646E+02 0.  0.
         24    2    1    2    0    0 -0.33016130858E+02 -0.18604454562E+01 -0.34495991645E+02  0.94266658399E+02  0.81257019956E+02 0.  0.
        -13    1    4    4    0    0 -0.35380182303E+02  0.13832924641E+02  0.16085767724E+02  0.41253594112E+02  0.00000000000E+00 0.  1.
         14    1    4    4    0    0  0.23640514445E+01 -0.15693370097E+02 -0.50581759369E+02  0.53013064287E+02  0.00000000000E+00 0. -1.
        -11    1    3    3    0    0 -0.34768165699E+02 -0.88596753702E+01 -0.10165965701E+02  0.37291635153E+02  0.00000000000E+00 0.  1.
         11    1    3    3    0    0  0.38948005725E+02  0.22644512459E+02 -0.79286634694E+02  0.91192606803E+02  0.00000000000E+00 0. -1.
         -2    1    1    2    0  502  0.28836290833E+02 -0.11924391632E+02 -0.36922033881E+02  0.48342107636E+02  0.00000000000E+00 0.  1.
<scales pt_clust_5="13000.00000" pt_clust_6="13000.00000" pt_clust_7="13000.00000" pt_clust_8="13000.00000" pt_clust_9="13000.00000"></scales>
<clustering>
<clus scale="   81.257">  5  6 -1 -1</clus>
<clus scale="   31.205">  5  9 -1 -1</clus>
<clus scale="   91.099">  7  8 -1 -1</clus>
<clus scale="   92.230">  2  7  1 -1</clus>
<clus scale="  123.437">  1  5  2 -1</clus>
</clustering>
</event>
<event>
 9    2  0.3726337E-005  0.1631853E+03  0.7546771E-02  0.1197264E+00
         21   -1    0    0  501  502  0.00000000000E+00  0.00000000000E+00  0.50882659930E+02  0.50882659930E+02  0.00000000000E+00 0. -1.
          2   -1    0    0  502    0 -0.00000000000E+00 -0.00000000000E+00 -0.40943424606E+03  0.40943424606E+03  0.00000000000E+00 0. -1.
         23    2    1    2    0    0  0.57648816112E+01  0.83830270982E+02 -0.16980336165E+03  0.21080669868E+03  0.92442059642E+02 0.  0.
         24    2    1    2    0    0 -0.36330332144E+02 -0.93521341616E+02 -0.14280073226E+03  0.19348043257E+03  0.83525410979E+02 0.  0.
        -11    1    4    4    0    0 -0.54163795960E+01 -0.28295730080E+02 -0.11087096206E+03  0.11455285128E+03  0.00000000000E+00 0.  1.
         12    1    4    4    0    0 -0.30913952548E+02 -0.65225611536E+02 -0.31929770209E+02  0.78927581287E+02  0.00000000000E+00 0. -1.
        -11    1    3    3    0    0 -0.20139966143E+02  0.89794271480E+02 -0.98938698013E+02  0.13512029970E+03  0.00000000000E+00 0. -1.
         11    1    3    3    0    0  0.25904847754E+02 -0.59640004983E+01 -0.70864663634E+02  0.75686398984E+02  0.00000000000E+00 0.  1.
          1    1    1    2  501    0  0.30565450532E+02  0.96910706340E+01 -0.45947492219E+02  0.56029774741E+02  0.00000000000E+00 0. -1.
<scales pt_clust_5="13000.00000" pt_clust_6="13000.00000" pt_clust_7="13000.00000" pt_clust_8="13000.00000" pt_clust_9="13000.00000"></scales>
<clustering>
<clus scale="   83.525">  5  6 -1 -1</clus>
<clus scale="   32.065">  5  9 -1 -1</clus>
<clus scale="   92.442">  7  8 -1 -1</clus>
<clus scale="  124.925">  2  7  1 -1</clus>
<clus scale="  163.185">  1  5  2 -1</clus>
</clustering>
</event>
<event>
 9    2  0.3726337E-005  0.5534976E+03  0.7546771E-02  0.1043988E+00
         21   -1    0    0  501  502  0.00000000000E+00  0.00000000000E+00  0.24107195063E+03  0.24107195063E+03  0.00000000000E+00 0.  1.
          2   -1    0    0  502    0 -0.00000000000E+00 -0.00000000000E+00 -0.54647374137E+03  0.54647374137E+03  0.00000000000E+00 0. -1.
         23    2    1    2    0    0  0.85584309355E+02  0.81434328257E+02 -0.15106781204E+03  0.21293400948E+03  0.92537477448E+02 0.  0.
         24    2    1    2    0    0 -0.18804432751E+03 -0.10189974146E+03  0.13596219519E+03  0.26608492998E+03  0.81063216204E+02 0.  0.
        -11    1    4    4    0    0 -0.13603186129E+03 -0.11126499249E+03  0.10060401862E+03  0.20249872691E+03  0.00000000000E+00 0.  1.
         12    1    4    4    0    0 -0.52012466222E+02  0.93652510318E+01  0.35358176573E+02  0.63586203063E+02  0.00000000000E+00 0. -1.
        -13    1    3    3    0    0  0.24170042090E+02 -0.12782754743E+02 -0.67475083054E+02  0.72804372029E+02  0.00000000000E+00 0.  1.
         13    1    3    3    0    0  0.61414267265E+02  0.94217083000E+02 -0.83592728982E+02  0.14012963745E+03  0.00000000000E+00 0. -1.
          1    1    1    2  501    0  0.10246001815E+03  0.20465413202E+02 -0.29029617390E+03  0.30852675255E+03  0.00000000000E+00 0. -1.
<scales pt_clust_5="13000.00000" pt_clust_6="13000.00000" pt_clust_7="13000.00000" pt_clust_8="13000.00000" pt_clust_9="13000.00000"></scales>
<clustering>
<clus scale="   81.063">  5  6 -1 -1</clus>
<clus scale="   92.537">  7  8 -1 -1</clus>
<clus scale="  104.484">  5  9 -1 -1</clus>
<clus scale="  150.065">  2  7  1 -1</clus>
<clus scale="  553.498">  1  5  2 -1</clus>
</clustering>
</event>
<event>
 9    2  0.3726337E-005  0.4177358E+03  0.7546771E-02  0.1067431E+00
          2   -1    0    0  502    0 -0.00000000000E+00  0.00000000000E+00  0.19929254406E+03  0.19929254406E+03  0.00000000000E+00 0. -1.
         21   -1    0    0  501  502  0.00000000000E+00 -0.00000000000E+00 -0.44841473186E+03  0.44841473186E+03  0.00000000000E+00 0.  1.
         23    2    1    2    0    0  0.59501660129E+02 -0.14325652023E+03 -0.76833577466E+02  0.19583717822E+03  0.91574688648E+02 0.  0.
         24    2    1    2    0    0 -0.37085694512E+02  0.78064666985E+01 -0.26953431258E+03  0.28362646745E+03  0.79742947795E+02 0.  0.
        -13    1    4    4    0    0 -0.46243202687E+02  0.21611790105E+02 -0.25902779950E+03  0.26400928806E+03  0.00000000000E+00 0.  1.
         14    1    4    4    0    0  0.91575081747E+01 -0.13805323407E+02 -0.10506513074E+02  0.19617179392E+02  0.00000000000E+00 0. -1.
        -13    1    3    3    0    0 -0.16967348059E+02 -0.42011522197E+02  0.38599481461E+01  0.45472608207E+02  0.00000000000E+00 0. -1.
         13    1    3    3    0    0  0.76469008188E+02 -0.10124499803E+03 -0.80693525612E+02  0.15036457001E+03  0.00000000000E+00 0.  1.
          1    1    1    2  501    0 -0.22415965617E+02  0.13545005353E+03  0.97245702238E+02  0.16824363025E+03  0.00000000000E+00 0. -1.
<scales pt_clust_5="13000.00000" pt_clust_6="13000.00000" pt_clust_7="13000.00000" pt_clust_8="13000.00000" pt_clust_9="13000.00000"></scales>
<clustering>
<clus scale="   79.743">  5  6 -1 -1</clus>
<clus scale="   91.575">  7  8 -1 -1</clus>
<clus scale="  137.292">  5  9 -1 -1</clus>
<clus scale="  180.136">  1  7  2 -1</clus>
<clus scale="  417.736">  2  5  1 -1</clus>
</clustering>
</event>
<event>
 9    2  0.3726337E-005  0.4567558E+03  0.7546771E-02  0.1068429E+00
         -3   -1    0    0    0  501 -0.00000000000E+00  0.00000000000E+00  0.10855402225E+03  0.10855402225E+03  0.00000000000E+00 0.  1.
         21   -1    0    0  501  502  0.00000000000E+00 -0.00000000000E+00 -0.91054854368E+03  0.91054854368E+03  0.00000000000E+00 0.  1.
         23    2    1    2    0    0  0.52333627733E+02  0.82018129717E+02 -0.57961303355E+02  0.14605542441E+03  0.92232814769E+02 0.  0.
         24    2    1    2    0    0  0.58377319042E+02  0.15989965286E+03 -0.35237079278E+03  0.39957002206E+03  0.80716891427E+02 0.  0.
        -11    1    4    4    0    0 -0.56457772407E+01  0.95984965710E+02 -0.20879281830E+03  0.22986828710E+03  0.00000000000E+00 0.  1.
         12    1    4    4    0    0  0.64023096282E+02  0.63914687146E+02 -0.14357797448E+03  0.16970173496E+03  0.00000000000E+00 0. -1.
        -13    1    3    3    0    0  0.16524936844E+02  0.74671079585E+02  0.12285659469E+01  0.76487600553E+02  0.00000000000E+00 0.  1.
         13    1    3    3    0    0  0.35808690889E+02  0.73470501323E+01 -0.59189869302E+02  0.69567823861E+02  0.00000000000E+00 0. -1.
         -4    1    1    2    0  502 -0.11071094677E+03 -0.24191778257E+03 -0.39166242530E+03  0.47347711946E+03  0.00000000000E+00 0.  1.
<scales pt_clust_5="13000.00000" pt_clust_6="13000.00000" pt_clust_7="13000.00000" pt_clust_8="13000.00000" pt_clust_9="13000.00000"></scales>
<clustering>
<clus scale="   80.717">  5  6 -1 -1</clus>
<clus scale="   92.233">  7  8 -1 -1</clus>
<clus scale="  134.062">  1  7  2 -1</clus>
<clus scale="  205.120">  5  9 -1 -1</clus>
<clus scale="  456.756">  2  5  1 -1</clus>
</clustering>
</event>
<event>
 9    2  0.3726337E-005  0.5171191E+03  0.7546771E-02  0.1058014E+00
         21   -1    0    0  501  502  0.00000000000E+00  0.00000000000E+00  0.11870970136E+03  0.11870970136E+03  0.00000000000E+00 0. -1.
          2   -1    0    0  502    0 -0.00000000000E+00 -0.00000000000E+00 -0.86860592785E+03  0.86860592785E+03  0.00000000000E+00 0. -1.
         23    2    1    2    0    0 -0.70581353215E+02 -0.49915596705E+02 -0.17388863592E+03  0.21323752163E+03  0.88089095296E+02 0.  0.
         24    2    1    2    0    0 -0.10938435451E+03 -0.83552502730E+02 -0.51889894416E+03  0.54285789433E+03  0.80576804733E+02 0.  0.
        -13    1    4    4    0    0 -0.55152807221E+02  0.52567245951E+01 -0.17500800882E+03  0.18356815751E+03  0.00000000000E+00 0.  1.
         14    1    4    4    0    0 -0.54231547284E+02 -0.88809227325E+02 -0.34389093534E+03  0.35928973682E+03  0.00000000000E+00 0. -1.
        -13    1    3    3    0    0 -0.50233017815E+02  0.15760139324E+02 -0.94823587328E+02  0.10845852103E+03  0.00000000000E+00 0.  1.
         13    1    3    3    0    0 -0.20348335400E+02 -0.65675736029E+02 -0.79065048596E+02  0.10477900060E+03  0.00000000000E+00 0. -1.
          1    1    1    2  501    0  0.17996570772E+03  0.13346809944E+03 -0.57108646411E+02  0.23122021325E+03  0.00000000000E+00 0. -1.
<scales pt_clust_5="13000.00000" pt_clust_6="13000.00000" pt_clust_7="13000.00000" pt_clust_8="13000.00000" pt_clust_9="13000.00000"></scales>
<clustering>
<clus scale="   80.577">  5  6 -1 -1</clus>
<clus scale="   88.089">  7  8 -1 -1</clus>
<clus scale="  123.422">  2  7  1 -1</clus>
<clus scale="  205.600">  5  9 -1 -1</clus>
<clus scale="  517.119">  1  5  2 -1</clus>
</clustering>
</event>
<event>
 9    2  0.3726337E-005  0.4791648E+03  0.7546771E-02  0.1072585E+00
         21   -1    0    0  501  502  0.00000000000E+00  0.00000000000E+00  0.11042680299E+03  0.11042680299E+03  0.00000000000E+00 0. -1.
          2   -1    0    0  502    0 -0.00000000000E+00 -0.00000000000E+00 -0.92554696201E+03  0.92554696201E+03  0.00000000000E+00 0. -1.
         23    2    1    2    0    0 -0.23763355507E+02  0.46050776287E+02 -0.16899320013E+02  0.10497676206E+03  0.89717124862E+02 0.  0.
         24    2    1    2    0    0 -0.66065187911E+01 -0.15223550590E+03 -0.80221470907E+03  0.82048240180E+03  0.80147594325E+02 0.  0.
        -13    1    4    4    0    0 -0.40596233483E+02 -0.55849034388E+02 -0.28265196722E+03  0.29096271821E+03  0.00000000000E+00 0.  1.
         14    1    4    4    0    0  0.33989714691E+02 -0.96386471510E+02 -0.51956274185E+03  0.52951968359E+03  0.00000000000E+00 0. -1.
        -13    1    3    3    0    0 -0.39551904590E+02  0.65180040117E+02 -0.24701267985E+01  0.76281664329E+02  0.00000000000E+00 0. -1.
         13    1    3    3    0    0  0.15788549083E+02 -0.19129263830E+02 -0.14429193214E+02  0.28695097728E+02  0.00000000000E+00 0.  1.
          1    1    1    2  501    0  0.30369874298E+02  0.10618472961E+03  0.39938700608E+01  0.11051460114E+03  0.00000000000E+00 0. -1.
<scales pt_clust_5="13000.00000" pt_clust_6="13000.00000" pt_clust_7="13000.00000" pt_clust_8="13000.00000" pt_clust_9="13000.00000"></scales>
<clustering>
<clus scale="   80.148">  5  6 -1 -1</clus>
<clus scale="   89.717">  7  8 -1 -1</clus>
<clus scale="  103.608">  2  7  1 -1</clus>
<clus scale="  112.789">  5  9 -1 -1</clus>
<clus scale="  479.165">  1  5  2 -1</clus>
</clustering>
</event>
<event>
 9    2  0.3726337E-005  0.3497479E+03  0.7546771E-02  0.1085592E+00
         21   -1    0    0  501  502  0.00000000000E+00  0.00000000000E+00  0.65020814981E+02  0.65020814981E+02  0.00000000000E+00 0.  1.
         -1   -1    0    0    0  501 -0.00000000000E+00 -0.00000000000E+00 -0.11580881679E+04  0.11580881679E+04  0.00000000000E+00 0.  1.
         23    2    1    2    0    0  0.16285882950E+03 -0.85576322501E+01 -0.26940674554E+03  0.32826798665E+03  0.92647963295E+02 0.  0.
         24    2    1    2    0    0 -0.17292960905E+03 -0.77795565098E+02 -0.29745892041E+03  0.36150572582E+03  0.79042905018E+02 0.  0.
        -13    1    4    4    0    0 -0.13101652472E+03 -0.54805924035E+02 -0.15032567690E+03  0.20680142212E+03  0.00000000000E+00 0.  1.
         14    1    4    4    0    0 -0.41913084330E+02 -0.22989641063E+02 -0.14713324352E+03  0.15470430370E+03  0.00000000000E+00 0. -1.
        -13    1    3    3    0    0  0.15843738013E+03 -0.30991895366E+02 -0.21197194079E+03  0.26644887818E+03  0.00000000000E+00 0.  1.
         13    1    3    3    0    0  0.44214493748E+01  0.22434263116E+02 -0.57434804747E+02  0.61819108473E+02  0.00000000000E+00 0. -1.
         -2    1    1    2    0  502  0.10070779546E+02  0.86353197348E+02 -0.52620168702E+03  0.53333527046E+03  0.00000000000E+00 0.  1.
<scales pt_clust_5="13000.00000" pt_clust_6="13000.00000" pt_clust_7="13000.00000" pt_clust_8="13000.00000" pt_clust_9="13000.00000"></scales>
<clustering>
<clus scale="   79.043">  5  6 -1 -1</clus>
<clus scale="   86.939">  5  9 -1 -1</clus>
<clus scale="   92.648">  7  8 -1 -1</clus>
<clus scale="  187.563">  2  7  1 -1</clus>
<clus scale="  349.748">  1  5  2 -1</clus>
</clustering>
</event>
<event>
 9    2  0.3726337E-005  0.3371018E+03  0.7546771E-02  0.1112937E+00
          2   -1    0    0  502    0 -0.00000000000E+00  0.00000000000E+00  0.37774892135E+03  0.37774892135E+03  0.00000000000E+00 0. -1.
         21   -1    0    0  501  502  0.00000000000E+00 -0.00000000000E+00 -0.12825930428E+03  0.12825930428E+03  0.00000000000E+00 0.  1.
         23    2    1    2    0    0  0.39941628692E+02 -0.32400501797E+02  0.64849516342E+02  0.12165212648E+03  0.89155223554E+02 0.  0.
         24    2    1    2    0    0  0.86878299808E+02  0.12193945792E+02 -0.38701391626E+02  0.12672647862E+03  0.82856933191E+02 0.  0.
        -11    1    4    4    0    0  0.32365266380E+02 -0.33310761529E+02 -0.29747684345E+02  0.55154709911E+02  0.00000000000E+00 0.  1.
         12    1    4    4    0    0  0.54513033427E+02  0.45504707321E+02 -0.89537072809E+01  0.71571768707E+02  0.00000000000E+00 0. -1.
        -11    1    3    3    0    0 -0.20453570056E+02 -0.12015693598E+02 -0.78296903977E+01  0.24980581907E+02  0.00000000000E+00 0.  1.
         11    1    3    3    0    0  0.60395198748E+02 -0.20384808199E+02  0.72679206740E+02  0.96671544569E+02  0.00000000000E+00 0. -1.
          1    1    1    2  501    0 -0.12681992850E+03  0.20206556006E+02  0.22334149236E+03  0.25762962054E+03  0.00000000000E+00 0. -1.
<scales pt_clust_5="13000.00000" pt_clust_6="13000.00000" pt_clust_7="13000.00000" pt_clust_8="13000.00000" pt_clust_9="13000.00000"></scales>
<clustering>
<clus scale="   82.857">  5  6 -1 -1</clus>
<clus scale="   89.155">  7  8 -1 -1</clus>
<clus scale="  102.926">  1  7  2 -1</clus>
<clus scale="   93.334">  5  9 -1 -1</clus>
<clus scale="  337.102">  2  5  1 -1</clus>
</clustering>
</event>
<event>
 9    2  0.3726337E-005  0.4284551E+03  0.7546771E-02  0.1058315E+00
         -1   -1    0    0    0  501 -0.00000000000E+00  0.00000000000E+00  0.74549251961E+02  0.74549251961E+02  0.00000000000E+00 0.  1.
         21   -1    0    0  501  502  0.00000000000E+00 -0.00000000000E+00 -0.14384410759E+04  0.14384410759E+04  0.00000000000E+00 0.  1.
         23    2    1    2    0    0 -0.27401222110E+02 -0.18718177986E+03 -0.33130857134E+03  0.39504492386E+03  0.10250500834E+03 0.  0.
         24    2    1    2    0    0 -0.27124145938E+02  0.30588571756E+01 -0.20804775698E+02  0.88105633586E+02  0.81146090957E+02 0.  0.
        -13    1    4    4    0    0  0.92344349212E+01 -0.28342520329E+02 -0.26297768440E+02  0.39751048689E+02  0.00000000000E+00 0.  1.
         14    1    4    4    0    0 -0.36358580859E+02  0.31401377505E+02  0.54929927418E+01  0.48354584897E+02  0.00000000000E+00 0. -1.
        -13    1    3    3    0    0  0.13978728164E+02 -0.16860525647E+03 -0.24845010293E+03  0.30058375039E+03  0.00000000000E+00 0.  1.
         13    1    3    3    0    0 -0.41379950274E+02 -0.18576523394E+02 -0.82858468411E+02  0.94461173471E+02  0.00000000000E+00 0. -1.
         -2    1    1    2    0  502  0.54525368048E+02  0.18412292269E+03 -0.10117784769E+04  0.10298397704E+04  0.00000000000E+00 0.  1.
<scales pt_clust_5="13000.00000" pt_clust_6="13000.00000" pt_clust_7="13000.00000" pt_clust_8="13000.00000" pt_clust_9="13000.00000"></scales>
<clustering>
<clus scale="   81.146">  5  6 -1 -1</clus>
<clus scale="  102.505">  7  8 -1 -1</clus>
<clus scale="  192.027">  5  9 -1 -1</clus>
<clus scale="  215.163">  1  7  2 -1</clus>
<clus scale="  428.455">  2  5  1 -1</clus>
</clustering>
</event>
<event>
 9    2  0.3726337E-005  0.6658411E+03  0.7546771E-02  0.1018504E+00
         -1   -1    0    0    0  501 -0.00000000000E+00  0.00000000000E+00  0.86529467768E+03  0.86529467768E+03  0.00000000000E+00 0.  1.
         21   -1    0    0  501  502  0.00000000000E+00 -0.00000000000E+00 -0.21682847336E+03  0.21682847336E+03  0.00000000000E+00 0.  1.
         23    2    1    2    0    0  0.14470780786E+03 -0.65612185932E+02  0.58223009346E+02  0.19233023377E+03  0.91409471097E+02 0.  0.
         24    2    1    2    0    0  0.15732238168E+03 -0.19074624730E+03  0.16074302264E+03  0.30548796289E+03  0.79687599432E+02 0.  0.
        -11    1    4    4    0    0  0.10443851892E+03 -0.16856676266E+03  0.10048966822E+03  0.22230684003E+03  0.00000000000E+00 0.  1.
         12    1    4    4    0    0  0.52883862767E+02 -0.22179484641E+02  0.60253354422E+02  0.83181122854E+02  0.00000000000E+00 0. -1.
        -13    1    3    3    0    0  0.12177634785E+03 -0.87135693309E+02  0.36552331649E+02  0.15413689011E+03  0.00000000000E+00 0.  1.
         13    1    3    3    0    0  0.22931460011E+02  0.21523507377E+02  0.21670677697E+02  0.38193343660E+02  0.00000000000E+00 0. -1.
         -2    1    1    2    0  502 -0.30203018954E+03  0.25635843323E+03  0.42950017233E+03  0.58430495438E+03  0.00000000000E+00 0.  1.
<scales pt_clust_5="13000.00000" pt_clust_6="13000.00000" pt_clust_7="13000.00000" pt_clust_8="13000.00000" pt_clust_9="13000.00000"></scales>
<clustering>
<clus scale="   79.688">  5  6 -1 -1</clus>
<clus scale="   91.409">  7  8 -1 -1</clus>
<clus scale="  183.306">  1  7  2 -1</clus>
<clus scale="  293.032">  5  9 -1 -1</clus>
<clus scale="  665.841">  2  5  1 -1</clus>
</clustering>
</event>
<event>
 9    2  0.3726337E-005  0.1691776E+03  0.7546771E-02  0.1202572E+00
         -1   -1    0    0    0  501 -0.00000000000E+00  0.00000000000E+00  0.20494517924E+02  0.20494517924E+02  0.00000000000E+00 0.  1.
         21   -1    0    0  501  502  0.00000000000E+00 -0.00000000000E+00 -0.99439572338E+03  0.99439572338E+03  0.00000000000E+00 0.  1.
         23    2    1    2    0    0 -0.35767533189E+02 -0.86500786797E+01 -0.54019702334E+03  0.54935787369E+03  0.92882232248E+02 0.  0.
         24    2    1    2    0    0 -0.20091228717E+02  0.47784326625E+02 -0.19674448035E+03  0.21895258153E+03  0.80900204379E+02 0.  0.
        -11    1    4    4    0    0 -0.22459696044E+02  0.69930886747E+02 -0.14255209709E+03  0.16036167638E+03  0.00000000000E+00 0.  1.
         12    1    4    4    0    0  0.23684673265E+01 -0.22146560122E+02 -0.54192383259E+02  0.58590905147E+02  0.00000000000E+00 0. -1.
        -11    1    3    3    0    0 -0.65610623540E+02  0.72808524325E+01 -0.34776336089E+03  0.35397333220E+03  0.00000000000E+00 0.  1.
         11    1    3    3    0    0  0.29843090351E+02 -0.15930931112E+02 -0.19243366246E+03  0.19538454149E+03  0.00000000000E+00 0. -1.
         -2    1    1    2    0  502  0.55858761907E+02 -0.39134247946E+02 -0.23695970177E+03  0.24657978608E+03  0.00000000000E+00 0.  1.
<scales pt_clust_5="13000.00000" pt_clust_6="13000.00000" pt_clust_7="13000.00000" pt_clust_8="13000.00000" pt_clust_9="13000.00000"></scales>
<clustering>
<clus scale="   80.900">  5  6 -1 -1</clus>
<clus scale="   68.203">  5  9 -1 -1</clus>
<clus scale="   92.882">  7  8 -1 -1</clus>
<clus scale="   99.906">  1  7  2 -1</clus>
<clus scale="  169.178">  2  5  1 -1</clus>
</clustering>
</event>
<event>
 9    2  0.3726337E-005  0.2560144E+03  0.7546771E-02  0.1140396E+00
         -3   -1    0    0    0  501 -0.00000000000E+00  0.00000000000E+00  0.68057013517E+02  0.68057013517E+02  0.00000000000E+00 0.  1.
         21   -1    0    0  501  502  0.00000000000E+00 -0.00000000000E+00 -0.51733609756E+03  0.51733609756E+03  0.00000000000E+00 0. -1.
         23    2    1    2    0    0 -0.54939213013E+02 -0.53728752163E+02 -0.13819378667E+03  0.18250670114E+03  0.91137683486E+02 0.  0.
         24    2    1    2    0    0 -0.58033484531E+02 -0.18428898268E+01 -0.23907312711E+03  0.25784575892E+03  0.77182858931E+02 0.  0.
        -13    1    4    4    0    0 -0.42467041288E+02 -0.36586478205E+02 -0.16962585764E+03  0.17864756243E+03  0.00000000000E+00 0.  1.
         14    1    4    4    0    0 -0.15566443243E+02  0.34743588378E+02 -0.69447269476E+02  0.79198196484E+02  0.00000000000E+00 0. -1.
        -13    1    3    3    0    0  0.21726726908E+02 -0.86795009424E+01 -0.58858189548E+02  0.63337752373E+02  0.00000000000E+00 0.  1.
         13    1    3    3    0    0 -0.76665939920E+02 -0.45049251220E+02 -0.79335597119E+02  0.11916894876E+03  0.00000000000E+00 0. -1.
         -4    1    1    2    0  502  0.11297269754E+03  0.55571641989E+02 -0.72012170260E+02  0.14504065102E+03  0.00000000000E+00 0.  1.
<scales pt_clust_5="13000.00000" pt_clust_6="13000.00000" pt_clust_7="13000.00000" pt_clust_8="13000.00000" pt_clust_9="13000.00000"></scales>
<clustering>
<clus scale="   77.183">  5  6 -1 -1</clus>
<clus scale="   91.138">  7  8 -1 -1</clus>
<clus scale="  119.211">  1  7  2 -1</clus>
<clus scale="   70.446">  5  9 -1 -1</clus>
<clus scale="  256.014">  2  5  1 -1</clus>
</clustering>
</event>
<event>
 9    2  0.3726337E-005  0.1783726E+03  0.7546771E-02  0.1190473E+00
          2   -1    0    0  502    0 -0.00000000000E+00  0.00000000000E+00  0.45438681251E+02  0.45438681251E+02  0.00000000000E+00 0. -1.
         21   -1    0    0  501  502  0.00000000000E+00 -0.00000000000E+00 -0.46555464310E+03  0.46555464310E+03  0.00000000000E+00 0. -1.
         23    2    1    2    0    0  0.41433753714E+02  0.48976135989E+02 -0.18677660264E+03  0.21728591931E+03  0.90621485270E+02 0.  0.
         24    2    1    2    0    0  0.14880846052E+02  0.26261263712E+02 -0.11547060264E+03  0.14295912401E+03  0.78694075451E+02 0.  0.
        -13    1    4    4    0    0  0.34117616709E+02  0.91727780469E+01 -0.13546414432E+02  0.37837243173E+02  0.00000000000E+00 0.  1.
         14    1    4    4    0    0 -0.19236770656E+02  0.17088485665E+02 -0.10192418821E+03  0.10512188083E+03  0.00000000000E+00 0. -1.
        -13    1    3    3    0    0  0.32853268530E+02  0.20871590153E+02 -0.18365637872E+03  0.18773552135E+03  0.00000000000E+00 0.  1.
         13    1    3    3    0    0  0.85804851838E+01  0.28104545836E+02 -0.31202239194E+01  0.29550397966E+02  0.00000000000E+00 0. -1.
          1    1    1    2  501    0 -0.56314599766E+02 -0.75237399701E+02 -0.11786875656E+03  0.15074828103E+03  0.00000000000E+00 0. -1.
<scales pt_clust_5="13000.00000" pt_clust_6="13000.00000" pt_clust_7="13000.00000" pt_clust_8="13000.00000" pt_clust_9="13000.00000"></scales>
<clustering>
<clus scale="   78.694">  5  6 -1 -1</clus>
<clus scale="   90.621">  7  8 -1 -1</clus>
<clus scale="   93.979">  5  9 -1 -1</clus>
<clus scale="  111.030">  1  7  2 -1</clus>
<clus scale="  178.373">  2  5  1 -1</clus>
</clustering>
</event>
<event>
 9    2  0.3726337E-005  0.5104353E+03  0.7546771E-02  0.1019342E+00
          2   -1    0    0  502    0 -0.00000000000E+00  0.00000000000E+00  0.83425651696E+03  0.83425651696E+03  0.00000000000E+00 0. -1.
         21   -1    0    0  501  502  0.00000000000E+00 -0.00000000000E+00 -0.35523283270E+03  0.35523283270E+03  0.00000000000E+00 0. -1.
         23    2    1    2    0    0 -0.29557443081E+03 -0.24926931983E+03 -0.10847292826E+03  0.41122432059E+03  0.88541672230E+02 0.  0.
         24    2    1    2    0    0  0.16282717153E+01  0.11517317258E+03  0.35124861959E+03  0.37801606241E+03  0.79076164085E+02 0.  0.
        -11    1    4    4    0    0  0.58867135592E+01  0.12164420293E+03  0.26760260341E+03  0.29401210665E+03  0.00000000000E+00 0.  1.
         12    1    4    4    0    0 -0.42584418439E+01 -0.64710303594E+01  0.83646016177E+02  0.84003955759E+02  0.00000000000E+00 0. -1.
        -11    1    3    3    0    0 -0.13372283524E+03 -0.16001572947E+03 -0.31051367344E+02  0.21083410008E+03  0.00000000000E+00 0.  1.
         11    1    3    3    0    0 -0.16185159557E+03 -0.89253590357E+02 -0.77421560913E+02  0.20039022051E+03  0.00000000000E+00 0. -1.
          1    1    1    2  501    0  0.29394615909E+03  0.13409614726E+03  0.23624799293E+03  0.40024896666E+03  0.00000000000E+00 0. -1.
<scales pt_clust_5="13000.00000" pt_clust_6="13000.00000" pt_clust_7="13000.00000" pt_clust_8="13000.00000" pt_clust_9="13000.00000"></scales>
<clustering>
<clus scale="   79.076">  5  6 -1 -1</clus>
<clus scale="   88.542">  7  8 -1 -1</clus>
<clus scale="  323.089">  5  9 -1 -1</clus>
<clus scale="  396.660">  1  7  2 -1</clus>
<clus scale="  510.435">  2  5  1 -1</clus>
</clustering>
</event>
<event>
 9    2  0.3726337E-005  0.4933446E+03  0.7546771E-02  0.1071490E+00
          4   -1    0    0  502    0 -0.00000000000E+00  0.00000000000E+00  0.75835359656E+02  0.75835359656E+02  0.00000000000E+00 0. -1.
         21   -1    0    0  501  502  0.00000000000E+00 -0.00000000000E+00 -0.11606923296E+04  0.11606923296E+04  0.00000000000E+00 0. -1.
         23    2    1    2    0    0  0.16595358695E+02 -0.34041228794E+02 -0.14247258680E+03  0.17281851177E+03  0.90186411579E+02 0.  0.
         24    2    1    2    0    0  0.21463843770E+03  0.80754100926E+01 -0.28045644767E+03  0.36207402722E+03  0.79416062338E+02 0.  0.
        -11    1    4    4    0    0  0.41269392905E+02  0.92235359175E+01 -0.14708047158E+02  0.44772347009E+02  0.00000000000E+00 0.  1.
         12    1    4    4    0    0  0.17336904479E+03 -0.11481258249E+01 -0.26574840051E+03  0.31730168021E+03  0.00000000000E+00 0. -1.
        -13    1    3    3    0    0 -0.30735534248E+02  0.76575440482E+01 -0.69392316379E+02  0.76279778571E+02  0.00000000000E+00 0.  1.
         13    1    3    3    0    0  0.47330892942E+02 -0.41698772842E+02 -0.73080270418E+02  0.96538733199E+02  0.00000000000E+00 0. -1.
          3    1    1    2  501    0 -0.23123379639E+03  0.25965818701E+02 -0.66192793546E+03  0.70163515026E+03  0.00000000000E+00 0. -1.
<scales pt_clust_5="13000.00000" pt_clust_6="13000.00000" pt_clust_7="13000.00000" pt_clust_8="13000.00000" pt_clust_9="13000.00000"></scales>
<clustering>
<clus scale="   79.416">  5  6 -1 -1</clus>
<clus scale="   90.186">  7  8 -1 -1</clus>
<clus scale="   97.815">  1  7  2 -1</clus>
<clus scale="  226.289">  5  9 -1 -1</clus>
<clus scale="  493.345">  2  5  1 -1</clus>
</clustering>
</event>
<event>
 9    2  0.3726337E-005  0.3210169E+03  0.7546771E-02  0.1116207E+00
         21   -1    0    0  501  502  0.00000000000E+00  0.00000000000E+00  0.18009568859E+03  0.18009568859E+03  0.00000000000E+00 0. -1.
          2   -1    0    0  502    0 -0.00000000000E+00 -0.00000000000E+00 -0.30631897035E+03  0.30631897035E+03  0.00000000000E+00 0. -1.
         23    2    1    2    0    0 -0.50282393121E+02  0.36938175562E+02 -0.12373915942E+03  0.16538818905E+03  0.90272507616E+02 0.  0.
         24    2    1    2    0    0  0.48663942301E+02 -0.15157272605E+03 -0.65598660162E+02  0.19015575340E+03  0.80706603040E+02 0.  0.
        -13    1    4    4    0    0  0.12439903961E+02 -0.78284035554E+02 -0.73401554313E+02  0.10803207676E+03  0.00000000000E+00 0.  1.
         14    1    4    4    0    0  0.36224038340E+02 -0.73288690496E+02  0.78028941512E+01  0.82123676644E+02  0.00000000000E+00 0. -1.
        -11    1    3    3    0    0 -0.14522223742E+02 -0.30079425882E+02 -0.31681514603E+02  0.46036781070E+02  0.00000000000E+00 0. -1.
         11    1    3    3    0    0 -0.35760169379E+02  0.67017601444E+02 -0.92057644818E+02  0.11935140798E+03  0.00000000000E+00 0.  1.
          1    1    1    2  501    0  0.16184508202E+01  0.11463455049E+03  0.63114537822E+02  0.13087071648E+03  0.00000000000E+00 0. -1.
<scales pt_clust_5="13000.00000" pt_clust_6="13000.00000" pt_clust_7="13000.00000" pt_clust_8="13000.00000" pt_clust_9="13000.00000"></scales>
<clustering>
<clus scale="   80.707">  5  6 -1 -1</clus>
<clus scale="   90.273">  7  8 -1 -1</clus>
<clus scale="  109.735">  2  7  1 -1</clus>
<clus scale="  122.695">  5  9 -1 -1</clus>
<clus scale="  321.017">  1  5  2 -1</clus>
</clustering>
</event>
<event>
 9    2  0.3726337E-005  0.5265113E+03  0.7546771E-02  0.1065115E+00
         21   -1    0    0  501  502  0.00000000000E+00  0.00000000000E+00  0.23405633521E+03  0.23405633521E+03  0.00000000000E+00 0.  1.
         -1   -1    0    0    0  501 -0.00000000000E+00 -0.00000000000E+00 -0.54449936000E+03  0.54449936000E+03  0.00000000000E+00 0.  1.
         23    2    1    2    0    0 -0.21607997383E+01  0.29290787948E+02 -0.22574386363E+03  0.24527520760E+03  0.91307262484E+02 0.  0.
         24    2    1    2    0    0  0.74704853146E+02 -0.13350565037E+03  0.17382565145E+03  0.24525539153E+03  0.80810124406E+02 0.  0.
        -13    1    4    4    0    0  0.53596460709E+02 -0.63705361066E+02  0.38916333158E+02  0.91899045781E+02  0.00000000000E+00 0.  1.
         14    1    4    4    0    0  0.21108392437E+02 -0.69800289305E+02  0.13490931829E+03  0.15335634575E+03  0.00000000000E+00 0. -1.
        -11    1    3    3    0    0 -0.32869993754E+02  0.40389501826E+02 -0.76773161161E+02  0.92767810267E+02  0.00000000000E+00 0. -1.
         11    1    3    3    0    0  0.30709194016E+02 -0.11098713878E+02 -0.14897070247E+03  0.15250739733E+03  0.00000000000E+00 0.  1.
         -2    1    1    2    0  502 -0.72544053407E+02  0.10421486242E+03 -0.25852481261E+03  0.28802509608E+03  0.00000000000E+00 0.  1.
<scales pt_clust_5="13000.00000" pt_clust_6="13000.00000" pt_clust_7="13000.00000" pt_clust_8="13000.00000" pt_clust_9="13000.00000"></scales>
<clustering>
<clus scale="   80.810">  5  6 -1 -1</clus>
<clus scale="   91.307">  7  8 -1 -1</clus>
<clus scale="   95.915">  2  7  1 -1</clus>
<clus scale="  149.916">  5  9 -1 -1</clus>
<clus scale="  526.511">  1  5  2 -1</clus>
</clustering>
</event>
<event>
 9    2  0.3726337E-005  0.1953673E+03  0.7546771E-02  0.1157251E+00
         -1   -1    0    0    0  501 -0.00000000000E+00  0.00000000000E+00  0.81681239162E+03  0.81681239162E+03  0.00000000000E+00 0.  1.
         21   -1    0    0  501  502  0.00000000000E+00 -0.00000000000E+00 -0.53608185587E+02  0.53608185587E+02  0.00000000000E+00 0.  1.
         23    2    1    2    0    0 -0.11116350674E+03 -0.10985432331E+03  0.56164587168E+03  0.58971764582E+03  0.88856733162E+02 0.  0.
         24    2    1    2    0    0  0.80248781182E+02  0.45283901147E+02  0.10822018014E+03  0.16307185256E+03  0.79939496644E+02 0.  0.
        -11    1    4    4    0    0  0.83374083723E+02  0.27406883642E+02  0.47698047712E+02  0.99887330844E+02  0.00000000000E+00 0.  1.
         12    1    4    4    0    0 -0.31253025405E+01  0.17877017505E+02  0.60522132431E+02  0.63184521719E+02  0.00000000000E+00 0. -1.
        -13    1    3    3    0    0 -0.10247767071E+03 -0.57880007320E+02  0.46474025992E+03  0.47941138642E+03  0.00000000000E+00 0.  1.
         13    1    3    3    0    0 -0.86858360332E+01 -0.51974315993E+02  0.96905611764E+02  0.11030625940E+03  0.00000000000E+00 0. -1.
         -2    1    1    2    0  502  0.30914725559E+02  0.64570422165E+02  0.93338154204E+02  0.11763107882E+03  0.00000000000E+00 0.  1.
<scales pt_clust_5="13000.00000" pt_clust_6="13000.00000" pt_clust_7="13000.00000" pt_clust_8="13000.00000" pt_clust_9="13000.00000"></scales>
<clustering>
<clus scale="   79.939">  5  6 -1 -1</clus>
<clus scale="   71.590">  5  9 -1 -1</clus>
<clus scale="   88.857">  7  8 -1 -1</clus>
<clus scale="  179.780">  1  7  2 -1</clus>
<clus scale="  195.367">  2  5  1 -1</clus>
</clustering>
</event>
<event>
 9    2  0.3726337E-005  0.3386209E+03  0.7546771E-02  0.1099546E+00
          2   -1    0    0  502    0 -0.00000000000E+00  0.00000000000E+00  0.98340498844E+03  0.98340498844E+03  0.00000000000E+00 0. -1.
         21   -1    0    0  501  502  0.00000000000E+00 -0.00000000000E+00 -0.60082927209E+02  0.60082927209E+02  0.00000000000E+00 0. -1.
         23    2    1    2    0    0  0.10611136119E+03 -0.28589665062E+02  0.34161285389E+03  0.37039824090E+03  0.91752520360E+02 0.  0.
         24    2    1    2    0    0  0.29309281246E+02  0.27174755478E+01  0.50971861445E+03  0.51755586475E+03  0.84761952466E+02 0.  0.
        -13    1    4    4    0    0  0.11266547558E+02 -0.37664090596E+02  0.14758527451E+03  0.15273156866E+03  0.00000000000E+00 0.  1.
         14    1    4    4    0    0  0.18042733688E+02  0.40381566143E+02  0.36213333994E+03  0.36482429609E+03  0.00000000000E+00 0. -1.
        -11    1    3    3    0    0  0.11099287409E+02  0.21171694066E+02  0.14005467157E+03  0.14208006841E+03  0.00000000000E+00 0.  1.
         11    1    3    3    0    0  0.95012073781E+02 -0.49761359128E+02  0.20155818232E+03  0.22831817249E+03  0.00000000000E+00 0. -1.
          1    1    1    2  501    0 -0.13542064244E+03  0.25872189514E+02  0.71990592890E+02  0.15553381000E+03  0.00000000000E+00 0. -1.
<scales pt_clust_5="13000.00000" pt_clust_6="13000.00000" pt_clust_7="13000.00000" pt_clust_8="13000.00000" pt_clust_9="13000.00000"></scales>
<clustering>
<clus scale="   84.762">  5  6 -1 -1</clus>
<clus scale="   91.753">  7  8 -1 -1</clus>
<clus scale="  137.870">  5  9 -1 -1</clus>
<clus scale="  143.163">  1  7  2 -1</clus>
<clus scale="  338.621">  2  5  1 -1</clus>
</clustering>
</event>
<event>
 9    2  0.3726337E-005  0.2675202E+03  0.7546771E-02  0.1125611E+00
         21   -1    0    0  501  502  0.00000000000E+00  0.00000000000E+00  0.25490872828E+02  0.25490872828E+02  0.00000000000E+00 0.  1.
          2   -1    0    0  502    0 -0.00000000000E+00 -0.00000000000E+00 -0.17208363361E+04  0.17208363361E+04  0.00000000000E+00 0. -1.
         23    2    1    2    0    0 -0.83058659662E+02  0.97223091847E+02 -0.54131952284E+03  0.56169945830E+03  0.78284002949E+02 0.  0.
         24    2    1    2    0    0  0.91946397641E+01  0.70026524700E+01 -0.86018778699E+03  0.86422213327E+03  0.82603197303E+02 0.  0.
        -13    1    4    4    0    0 -0.26364095566E+02  0.20216818356E+02 -0.18429749694E+03  0.18726813039E+03  0.00000000000E+00 0.  1.
         14    1    4    4    0    0  0.35558735330E+02 -0.13214165886E+02 -0.67589029004E+03  0.67695400288E+03  0.00000000000E+00 0. -1.
        -13    1    3    3    0    0 -0.80245802566E+02  0.37635173122E+02 -0.28170099480E+03  0.29531550172E+03  0.00000000000E+00 0.  1.
         13    1    3    3    0    0 -0.28128570956E+01  0.59587918725E+02 -0.25961852804E+03  0.26638395658E+03  0.00000000000E+00 0. -1.
          1    1    1    2  501    0  0.73864019898E+02 -0.10422574432E+03 -0.29383815344E+03  0.32040561735E+03  0.00000000000E+00 0. -1.
<scales pt_clust_5="13000.00000" pt_clust_6="13000.00000" pt_clust_7="13000.00000" pt_clust_8="13000.00000" pt_clust_9="13000.00000"></scales>
<clustering>
<clus scale="   78.284">  7  8 -1 -1</clus>
<clus scale="   82.603">  5  6 -1 -1</clus>
<clus scale="  127.746">  5  9 -1 -1</clus>
<clus scale="  149.932">  2  7  1 -1</clus>
<clus scale="  267.520">  1  5  2 -1</clus>
</clustering>
</event>
<event>
 9    2  0.3726337E-005  0.3081111E+03  0.7546771E-02  0.1112013E+00
         21   -1    0    0  501  502  0.00000000000E+00  0.00000000000E+00  0.15030411350E+03  0.15030411350E+03  0.00000000000E+00 0.  1.
          2   -1    0    0  502    0 -0.00000000000E+00 -0.00000000000E+00 -0.36920163946E+03  0.36920163946E+03  0.00000000000E+00 0. -1.
         23    2    1    2    0    0  0.72990114424E+01 -0.10404852569E+03  0.58767221361E+01  0.13811892068E+03  0.90348929832E+02 0.  0.
         24    2    1    2    0    0  0.50911244950E+02  0.12029887591E+02  0.32195798918E+02  0.10229998419E+03  0.81804915747E+02 0.  0.
        -11    1    4    4    0    0  0.52255713986E+02  0.32941597615E+02  0.46164003502E+02  0.77116299944E+02  0.00000000000E+00 0.  1.
         12    1    4    4    0    0 -0.13444690360E+01 -0.20911710024E+02 -0.13968204585E+02  0.25183684251E+02  0.00000000000E+00 0. -1.
        -11    1    3    3    0    0 -0.22792518496E+02 -0.19505153171E+02  0.32778903759E+02  0.44434293414E+02  0.00000000000E+00 0.  1.
         11    1    3    3    0    0  0.30091529938E+02 -0.84543372517E+02 -0.26902181623E+02  0.93684627269E+02  0.00000000000E+00 0. -1.
          1    1    1    2  501    0 -0.58210256393E+02  0.92018638098E+02 -0.25697004702E+03  0.27908684808E+03  0.00000000000E+00 0. -1.
<scales pt_clust_5="13000.00000" pt_clust_6="13000.00000" pt_clust_7="13000.00000" pt_clust_8="13000.00000" pt_clust_9="13000.00000"></scales>
<clustering>
<clus scale="   81.805">  5  6 -1 -1</clus>
<clus scale="   90.349">  7  8 -1 -1</clus>
<clus scale="  108.885">  5  9 -1 -1</clus>
<clus scale="  137.994">  2  7  1 -1</clus>
<clus scale="  308.111">  1  5  2 -1</clus>
</clustering>
</event>
<event>
 9    2  0.3726337E-005  0.2600103E+03  0.7546771E-02  0.1138778E+00
         -1   -1    0    0    0  501 -0.00000000000E+00  0.00000000000E+00  0.25982975833E+03  0.25982975833E+03  0.00000000000E+00 0.  1.
         21   -1    0    0  501  502  0.00000000000E+00 -0.00000000000E+00 -0.13779385119E+03  0.13779385119E+03  0.00000000000E+00 0.  1.
         23    2    1    2    0    0 -0.72066705583E+02 -0.40781461259E+02  0.42193939142E+02  0.12563081106E+03  0.84534221184E+02 0.  0.
         24    2    1    2    0    0 -0.56328424980E+02 -0.18330960024E+02  0.81847804407E+02  0.13062939697E+03  0.82801332776E+02 0.  0.
        -13    1    4    4    0    0 -0.64260668544E+01 -0.42067102076E+02  0.18044880816E+02  0.46222863779E+02  0.00000000000E+00 0.  1.
         14    1    4    4    0    0 -0.49902358126E+02  0.23736142052E+02  0.63802923591E+02  0.84406533188E+02  0.00000000000E+00 0. -1.
        -11    1    3    3    0    0 -0.73611797494E+02 -0.15536616580E+02  0.58704293633E+02  0.95426816336E+02  0.00000000000E+00 0.  1.
         11    1    3    3    0    0  0.15450919115E+01 -0.25244844678E+02 -0.16510354491E+02  0.30203994723E+02  0.00000000000E+00 0. -1.
         -2    1    1    2    0  502  0.12839513056E+03  0.59112421282E+02 -0.20058364010E+01  0.14136340149E+03  0.00000000000E+00 0.  1.
<scales pt_clust_5="13000.00000" pt_clust_6="13000.00000" pt_clust_7="13000.00000" pt_clust_8="13000.00000" pt_clust_9="13000.00000"></scales>
<clustering>
<clus scale="   82.801">  5  6 -1 -1</clus>
<clus scale="   84.534">  7  8 -1 -1</clus>
<clus scale="  118.333">  1  7  2 -1</clus>
<clus scale="  108.700">  5  9 -1 -1</clus>
<clus scale="  260.010">  2  5  1 -1</clus>
</clustering>
</event>
<event>
 9    2  0.3726337E-005  0.9489317E+03  0.7546771E-02  0.9927761E-01
          2   -1    0    0  502    0 -0.00000000000E+00  0.00000000000E+00  0.52059639871E+03  0.52059639871E+03  0.00000000000E+00 0. -1.
         21   -1    0    0  501  502  0.00000000000E+00 -0.00000000000E+00 -0.60232227967E+03  0.60232227967E+03  0.00000000000E+00 0. -1.
         23    2    1    2    0    0  0.90954317340E+02 -0.57877608246E+02  0.76985319488E+02  0.16080609537E+03  0.91155666373E+02 0.  0.
         24    2    1    2    0    0  0.27369847587E+03  0.31788098586E+03  0.10757521304E+03  0.44107336187E+03  0.83750267025E+02 0.  0.
        -13    1    4    4    0    0  0.10539841539E+03  0.66297840677E+02  0.41590368115E+02  0.13127828596E+03  0.00000000000E+00 0.  1.
         14    1    4    4    0    0  0.16830006048E+03  0.25158314519E+03  0.65984844921E+02  0.30979507591E+03  0.00000000000E+00 0. -1.
        -11    1    3    3    0    0 -0.18227174657E+02 -0.12833648674E+02  0.63140134292E+01  0.23168927465E+02  0.00000000000E+00 0.  1.
         11    1    3    3    0    0  0.10918149200E+03 -0.45043959571E+02  0.70671306059E+02  0.13763716790E+03  0.00000000000E+00 0. -1.
          1    1    1    2  501    0 -0.36465279321E+03 -0.26000337762E+03 -0.26628641348E+03  0.52103922115E+03  0.00000000000E+00 0. -1.
<scales pt_clust_5="13000.00000" pt_clust_6="13000.00000" pt_clust_7="13000.00000" pt_clust_8="13000.00000" pt_clust_9="13000.00000"></scales>
<clustering>
<clus scale="   83.750">  5  6 -1 -1</clus>
<clus scale="   91.156">  7  8 -1 -1</clus>
<clus scale="  141.180">  1  7  2 -1</clus>
<clus scale="  436.179">  5  9 -1 -1</clus>
<clus scale="  948.932">  2  5  1 -1</clus>
</clustering>
</event>
<event>
 9    2  0.3726337E-005  0.5268165E+03  0.7546771E-02  0.1043193E+00
         -1   -1    0    0    0  501 -0.00000000000E+00  0.00000000000E+00  0.24139098955E+03  0.24139098955E+03  0.00000000000E+00 0.  1.
         21   -1    0    0  501  502  0.00000000000E+00 -0.00000000000E+00 -0.53441329352E+03  0.53441329352E+03  0.00000000000E+00 0.  1.
         23    2    1    2    0    0  0.10818235836E+03 -0.10736841987E+03 -0.11421088471E+02  0.17844775032E+03  0.92096460769E+02 0.  0.
         24    2    1    2    0    0 -0.99695931166E+02 -0.72549101486E+02  0.97431704136E+02  0.17770395250E+03  0.82964492083E+02 0.  0.
        -11    1    4    4    0    0 -0.84860151220E+02 -0.22503753099E+02  0.88662139241E+02  0.12477435275E+03  0.00000000000E+00 0.  1.
         12    1    4    4    0    0 -0.14835779945E+02 -0.50045348387E+02  0.87695648947E+01  0.52929599754E+02  0.00000000000E+00 0. -1.
        -11    1    3    3    0    0  0.15257947854E+02 -0.79302731239E+02 -0.99360211079E+01  0.81366164160E+02  0.00000000000E+00 0.  1.
         11    1    3    3    0    0  0.92924410507E+02 -0.28065688636E+02 -0.14850673627E+01  0.97081586162E+02  0.00000000000E+00 0. -1.
         -2    1    1    2    0  502 -0.84864271953E+01  0.17991752136E+03 -0.37903291963E+03  0.41965258024E+03  0.00000000000E+00 0.  1.
<scales pt_clust_5="13000.00000" pt_clust_6="13000.00000" pt_clust_7="13000.00000" pt_clust_8="13000.00000" pt_clust_9="13000.00000"></scales>
<clustering>
<clus scale="   82.964">  5  6 -1 -1</clus>
<clus scale="   92.096">  7  8 -1 -1</clus>
<clus scale="  178.082">  1  7  2 -1</clus>
<clus scale="  166.194">  5  9 -1 -1</clus>
<clus scale="  526.816">  2  5  1 -1</clus>
</clustering>
</event>
<event>
 9    2  0.3726337E-005  0.3591950E+03  0.7546771E-02  0.1071917E+00
          2   -1    0    0  502    0 -0.00000000000E+00  0.00000000000E+00  0.10396600696E+04  0.10396600696E+04  0.00000000000E+00 0. -1.
         21   -1    0    0  501  502  0.00000000000E+00 -0.00000000000E+00 -0.98176725628E+02  0.98176725628E+02  0.00000000000E+00 0.  1.
         23    2    1    2    0    0  0.11779616196E+03  0.20158386242E+03  0.56209631086E+03  0.61538531117E+03  0.90745959461E+02 0.  0.
         24    2    1    2    0    0 -0.61784261008E+02 -0.15875956396E+03  0.58995047087E+02  0.19439313819E+03  0.72707513624E+02 0.  0.
        -11    1    4    4    0    0 -0.62610406721E+02 -0.74027126709E+02  0.12550063884E+02  0.97762889800E+02  0.00000000000E+00 0.  1.
         12    1    4    4    0    0  0.82614571246E+00 -0.84732437247E+02  0.46444983203E+02  0.96630248387E+02  0.00000000000E+00 0. -1.
        -11    1    3    3    0    0  0.11207654542E+03  0.14932203738E+03  0.50168917844E+03  0.53530389000E+03  0.00000000000E+00 0.  1.
         11    1    3    3    0    0  0.57196165395E+01  0.52261825038E+02  0.60407132417E+02  0.80081421170E+02  0.00000000000E+00 0. -1.
          1    1    1    2  501    0 -0.56011900949E+02 -0.42824298465E+02  0.32039198598E+03  0.32805834583E+03  0.00000000000E+00 0. -1.
<scales pt_clust_5="13000.00000" pt_clust_6="13000.00000" pt_clust_7="13000.00000" pt_clust_8="13000.00000" pt_clust_9="13000.00000"></scales>
<clustering>
<clus scale="   72.708">  5  6 -1 -1</clus>
<clus scale="   70.507">  5  9 -1 -1</clus>
<clus scale="   90.746">  7  8 -1 -1</clus>
<clus scale="  250.493">  1  7  2 -1</clus>
<clus scale="  359.195">  2  5  1 -1</clus>
</clustering>
</event>
<event>
 9    2  0.3726337E-005  0.5133461E+03  0.7546771E-02  0.1051971E+00
          2   -1    0    0  502    0 -0.00000000000E+00  0.00000000000E+00  0.40590516843E+03  0.40590516843E+03  0.00000000000E+00 0. -1.
         21   -1    0    0  501  502  0.00000000000E+00 -0.00000000000E+00 -0.27735886550E+03  0.27735886550E+03  0.00000000000E+00 0. -1.
         23    2    1    2    0    0  0.11682608601E+03 -0.54609707541E+01  0.74229178227E+02  0.16705228282E+03  0.93372039299E+02 0.  0.
         24    2    1    2    0    0 -0.71373657678E+02  0.24405167719E+03 -0.17834554375E+01  0.26693535124E+03  0.81215028656E+02 0.  0.
        -13    1    4    4    0    0  0.16396520544E+02  0.54196729922E+02  0.97506964449E+01  0.57456135454E+02  0.00000000000E+00 0.  1.
         14    1    4    4    0    0 -0.87770178222E+02  0.18985494727E+03 -0.11534151882E+02  0.20947921579E+03  0.00000000000E+00 0. -1.
        -13    1    3    3    0    0  0.83263922806E+02 -0.47336897211E+02  0.43303632347E+02  0.10511359214E+03  0.00000000000E+00 0. -1.
         13    1    3    3    0    0  0.33562163202E+02  0.41875926456E+02  0.30925545880E+02  0.61938690682E+02  0.00000000000E+00 0.  1.
          1    1    1    2  501    0 -0.45452428329E+02 -0.23859070644E+03  0.56100580141E+02  0.24927639987E+03  0.00000000000E+00 0. -1.
<scales pt_clust_5="13000.00000" pt_clust_6="13000.00000" pt_clust_7="13000.00000" pt_clust_8="13000.00000" pt_clust_9="13000.00000"></scales>
<clustering>
<clus scale="   81.215">  5  6 -1 -1</clus>
<clus scale="   93.372">  7  8 -1 -1</clus>
<clus scale="  149.655">  1  7  2 -1</clus>
<clus scale="  242.117">  5  9 -1 -1</clus>
<clus scale="  513.346">  2  5  1 -1</clus>
</clustering>
</event>
<event>
 9    2  0.3726337E-005  0.2640028E+03  0.7546771E-02  0.1130439E+00
         21   -1    0    0  501  502  0.00000000000E+00  0.00000000000E+00  0.37615673133E+03  0.37615673133E+03  0.00000000000E+00 0. -1.
          4   -1    0    0  502    0 -0.00000000000E+00 -0.00000000000E+00 -0.13065620185E+03  0.13065620185E+03  0.00000000000E+00 0. -1.
         23    2    1    2    0    0 -0.67440740540E+02 -0.10074091170E+03 -0.10723321345E+02  0.13891602859E+03  0.66975283522E+02 0.  0.
         24    2    1    2    0    0  0.88559923193E+02  0.22973381324E+02  0.26049882220E+03  0.28719941988E+03  0.79077393546E+02 0.  0.
        -13    1    4    4    0    0  0.40204684920E+02  0.36405072560E+02  0.61637336856E+02  0.82103028521E+02  0.00000000000E+00 0.  1.
         14    1    4    4    0    0  0.48355238273E+02 -0.13431691236E+02  0.19886148534E+03  0.20509639136E+03  0.00000000000E+00 0. -1.
        -13    1    3    3    0    0 -0.56991918529E+02 -0.35524466120E+02 -0.24426470612E+02  0.71461310772E+02  0.00000000000E+00 0. -1.
         13    1    3    3    0    0 -0.10448822011E+02 -0.65216445583E+02  0.13703149267E+02  0.67454717817E+02  0.00000000000E+00 0.  1.
          3    1    1    2  501    0 -0.21119182653E+02  0.77767530380E+02 -0.42749713691E+01  0.80697484704E+02  0.00000000000E+00 0. -1.
<scales pt_clust_5="13000.00000" pt_clust_6="13000.00000" pt_clust_7="13000.00000" pt_clust_8="13000.00000" pt_clust_9="13000.00000"></scales>
<clustering>
<clus scale="   66.975">  7  8 -1 -1</clus>
<clus scale="   79.077">  5  6 -1 -1</clus>
<clus scale="   80.584">  5  9 -1 -1</clus>
<clus scale="  138.502">  2  7  1 -1</clus>
<clus scale="  264.003">  1  5  2 -1</clus>
</clustering>
</event>
<event>
 9    2  0.3726337E-005  0.1200958E+03  0.7546771E-02  0.1253954E+00
          2   -1    0    0  502    0 -0.00000000000E+00  0.00000000000E+00  0.52096148739E+03  0.52096148739E+03  0.00000000000E+00 0. -1.
         21   -1    0    0  501  502  0.00000000000E+00 -0.00000000000E+00 -0.38897481739E+02  0.38897481739E+02  0.00000000000E+00 0.  1.
         23    2    1    2    0    0  0.92463644138E+01 -0.16444525016E+02  0.40698188295E+03  0.41822448672E+03  0.94453960151E+02 0.  0.
         24    2    1    2    0    0 -0.30670157577E+02 -0.63022331164E+01  0.50714735066E+02  0.10200919377E+03  0.82785956258E+02 0.  0.
        -13    1    4    4    0    0 -0.30945653367E+02  0.34902551500E+02  0.20708933580E+02  0.51036080311E+02  0.00000000000E+00 0.  1.
         14    1    4    4    0    0  0.27549579002E+00 -0.41204784617E+02  0.30005801486E+02  0.50973113463E+02  0.00000000000E+00 0. -1.
        -11    1    3    3    0    0 -0.33490574433E+02  0.19797015729E+02  0.13310265607E+03  0.13867176159E+03  0.00000000000E+00 0.  1.
         11    1    3    3    0    0  0.42736938847E+02 -0.36241540745E+02  0.27387922687E+03  0.27955272514E+03  0.00000000000E+00 0. -1.
          1    1    1    2  501    0  0.21423793163E+02  0.22746758133E+02  0.24367387637E+02  0.39625288633E+02  0.00000000000E+00 0. -1.
<scales pt_clust_5="13000.00000" pt_clust_6="13000.00000" pt_clust_7="13000.00000" pt_clust_8="13000.00000" pt_clust_9="13000.00000"></scales>
<clustering>
<clus scale="   82.786">  5  6 -1 -1</clus>
<clus scale="   31.247">  5  9 -1 -1</clus>
<clus scale="   94.454">  7  8 -1 -1</clus>
<clus scale="   96.320">  1  7  2 -1</clus>
<clus scale="  120.096">  2  5  1 -1</clus>
</clustering>
</event>
<event>
 9    2  0.3726337E-005  0.2542476E+03  0.7546771E-02  0.1114549E+00
          2   -1    0    0  502    0 -0.00000000000E+00  0.00000000000E+00  0.82768302027E+03  0.82768302027E+03  0.00000000000E+00 0. -1.
         21   -1    0    0  501  502  0.00000000000E+00 -0.00000000000E+00 -0.81602200184E+02  0.81602200184E+02  0.00000000000E+00 0.  1.
         23    2    1    2    0    0 -0.18191652707E+03  0.10677851241E+03  0.19271634436E+03  0.30030730824E+03  0.92464136090E+02 0.  0.
         24    2    1    2    0    0  0.12403439888E+03 -0.39098161592E+02  0.25211528943E+03  0.29484093111E+03  0.80348348775E+02 0.  0.
        -11    1    4    4    0    0  0.83129297277E+01  0.20332421318E+02  0.48105887304E+02  0.52883726709E+02  0.00000000000E+00 0.  1.
         12    1    4    4    0    0  0.11572146916E+03 -0.59430582911E+02  0.20400940212E+03  0.24195720440E+03  0.00000000000E+00 0. -1.
        -11    1    3    3    0    0 -0.14695938908E+03  0.39365422604E+02  0.10823007775E+03  0.18670952912E+03  0.00000000000E+00 0.  1.
         11    1    3    3    0    0 -0.34957137993E+02  0.67413089808E+02  0.84486266617E+02  0.11359777912E+03  0.00000000000E+00 0. -1.
          1    1    1    2  501    0  0.57882128188E+02 -0.67680350820E+02  0.30124918630E+03  0.31413698110E+03  0.00000000000E+00 0. -1.
<scales pt_clust_5="13000.00000" pt_clust_6="13000.00000" pt_clust_7="13000.00000" pt_clust_8="13000.00000" pt_clust_9="13000.00000"></scales>
<clustering>
<clus scale="   80.348">  5  6 -1 -1</clus>
<clus scale="   89.056">  5  9 -1 -1</clus>
<clus scale="   92.464">  7  8 -1 -1</clus>
<clus scale="  230.315">  1  7  2 -1</clus>
<clus scale="  254.248">  2  5  1 -1</clus>
</clustering>
</event>
<event>
 9    2  0.3726337E-005  0.2121473E+03  0.7546771E-02  0.1162692E+00
          2   -1    0    0  502    0 -0.00000000000E+00  0.00000000000E+00  0.39937485478E+03  0.39937485478E+03  0.00000000000E+00 0. -1.
         21   -1    0    0  501  502  0.00000000000E+00 -0.00000000000E+00 -0.84165690820E+02  0.84165690820E+02  0.00000000000E+00 0. -1.
         23    2    1    2    0    0 -0.81939719775E+02 -0.14276274446E+02  0.21696117584E+03  0.24974759725E+03  0.91562988276E+02 0.  0.
         24    2    1    2    0    0  0.48538875170E+02  0.89217769740E+02  0.75729621398E+02  0.14871109965E+03  0.77872862815E+02 0.  0.
        -11    1    4    4    0    0  0.22404294073E+02  0.21349430308E+02  0.69062860184E+02  0.75679780815E+02  0.00000000000E+00 0.  1.
         12    1    4    4    0    0  0.26134581097E+02  0.67868339431E+02  0.66667612139E+01  0.73031318839E+02  0.00000000000E+00 0. -1.
        -13    1    3    3    0    0 -0.92652705753E+02  0.70375642250E+01  0.19983522472E+03  0.22038186911E+03  0.00000000000E+00 0. -1.
         13    1    3    3    0    0  0.10712985978E+02 -0.21313838671E+02  0.17125951118E+02  0.29365728139E+02  0.00000000000E+00 0.  1.
          1    1    1    2  501    0  0.33400844604E+02 -0.74941495293E+02  0.22518366718E+02  0.85081848691E+02  0.00000000000E+00 0. -1.
<scales pt_clust_5="13000.00000" pt_clust_6="13000.00000" pt_clust_7="13000.00000" pt_clust_8="13000.00000" pt_clust_9="13000.00000"></scales>
<clustering>
<clus scale="   77.873">  5  6 -1 -1</clus>
<clus scale="   82.048">  5  9 -1 -1</clus>
<clus scale="   91.563">  7  8 -1 -1</clus>
<clus scale="  123.700">  1  7  2 -1</clus>
<clus scale="  212.147">  2  5  1 -1</clus>
</clustering>
</event>
<event>
 9    2  0.3726337E-005  0.1661127E+03  0.7546771E-02  0.1203705E+00
         21   -1    0    0  501  502  0.00000000000E+00  0.00000000000E+00  0.25591579836E+03  0.25591579836E+03  0.00000000000E+00 0.  1.
         -1   -1    0    0    0  501 -0.00000000000E+00 -0.00000000000E+00 -0.13572588634E+03  0.13572588634E+03  0.00000000000E+00 0.  1.
         23    2    1    2    0    0  0.32037160732E+02 -0.36404821743E+02 -0.80793907330E+02  0.13089672910E+03  0.90854870613E+02 0.  0.
         24    2    1    2    0    0 -0.69600001496E+01 -0.74877147429E+01  0.36978950852E+02  0.89126146514E+02  0.80445756335E+02 0.  0.
        -13    1    4    4    0    0 -0.25756074330E+02 -0.30288337215E+02  0.43430295352E+02  0.58880805790E+02  0.00000000000E+00 0.  1.
         14    1    4    4    0    0  0.18796074180E+02  0.22800622472E+02 -0.64513445000E+01  0.30245340725E+02  0.00000000000E+00 0. -1.
        -13    1    3    3    0    0  0.52644975946E+02  0.67010270071E+01 -0.29178582172E+02  0.60562256505E+02  0.00000000000E+00 0.  1.
         13    1    3    3    0    0 -0.20607815215E+02 -0.43105848750E+02 -0.51615325158E+02  0.70334472597E+02  0.00000000000E+00 0. -1.
         -2    1    1    2    0  502 -0.25077160582E+02  0.43892536486E+02  0.16400486849E+03  0.17161880908E+03  0.00000000000E+00 0.  1.
<scales pt_clust_5="13000.00000" pt_clust_6="13000.00000" pt_clust_7="13000.00000" pt_clust_8="13000.00000" pt_clust_9="13000.00000"></scales>
<clustering>
<clus scale="   80.446">  5  6 -1 -1</clus>
<clus scale="   50.551">  5  9 -1 -1</clus>
<clus scale="   90.855">  7  8 -1 -1</clus>
<clus scale="  102.987">  2  7  1 -1</clus>
<clus scale="  166.113">  1  5  2 -1</clus>
</clustering>
</event>
<event>
 9    2  0.3726337E-005  0.4491685E+03  0.7546771E-02  0.1058392E+00
          2   -1    0    0  502    0 -0.00000000000E+00  0.00000000000E+00  0.97613559670E+03  0.97613559670E+03  0.00000000000E+00 0. -1.
         21   -1    0    0  501  502  0.00000000000E+00 -0.00000000000E+00 -0.10672190763E+03  0.10672190763E+03  0.00000000000E+00 0. -1.
         23    2    1    2    0    0 -0.72609411525E+02 -0.14727980930E+03  0.34720310992E+03  0.39404968340E+03  0.88100423253E+02 0.  0.
         24    2    1    2    0    0  0.85069250413E+02 -0.12038457087E+03  0.29088848755E+03  0.33481717409E+03  0.75876251919E+02 0.  0.
        -13    1    4    4    0    0  0.75041887514E+02 -0.62114198782E+02  0.23080380497E+03  0.25051917085E+03  0.00000000000E+00 0.  1.
         14    1    4    4    0    0  0.10027362899E+02 -0.58270372088E+02  0.60084682582E+02  0.84298003244E+02  0.00000000000E+00 0. -1.
        -11    1    3    3    0    0 -0.38140172378E+02 -0.55334969252E+02  0.58485329851E+02  0.89090770448E+02  0.00000000000E+00 0.  1.
         11    1    3    3    0    0 -0.34469239147E+02 -0.91944840044E+02  0.28871778007E+03  0.30495891295E+03  0.00000000000E+00 0. -1.
          1    1    1    2  501    0 -0.12459838888E+02  0.26766438017E+03  0.23132209160E+03  0.35399064685E+03  0.00000000000E+00 0. -1.
<scales pt_clust_5="13000.00000" pt_clust_6="13000.00000" pt_clust_7="13000.00000" pt_clust_8="13000.00000" pt_clust_9="13000.00000"></scales>
<clustering>
<clus scale="   75.876">  5  6 -1 -1</clus>
<clus scale="   88.100">  7  8 -1 -1</clus>
<clus scale="  186.347">  1  7  2 -1</clus>
<clus scale="  202.154">  5  9 -1 -1</clus>
<clus scale="  449.168">  2  5  1 -1</clus>
</clustering>
</event>
<event>
 9    2  0.3726337E-005  0.4345677E+03  0.7546771E-02  0.1081820E+00
          2   -1    0    0  502    0 -0.00000000000E+00  0.00000000000E+00  0.12379310731E+04  0.12379310731E+04  0.00000000000E+00 0. -1.
         21   -1    0    0  501  502  0.00000000000E+00 -0.00000000000E+00 -0.61590660844E+02  0.61590660844E+02  0.00000000000E+00 0. -1.
         23    2    1    2    0    0 -0.56949213182E+02 -0.21799665912E+02  0.14961293245E+03  0.18461438913E+03  0.89330872602E+02 0.  0.
         24    2    1    2    0    0  0.22306203030E+03  0.90518787850E+02  0.63486597773E+03  0.68377949540E+03  0.80927549962E+02 0.  0.
        -11    1    4    4    0    0  0.82384912078E+02  0.65541288849E+02  0.34345039654E+03  0.35922292406E+03  0.00000000000E+00 0.  1.
         12    1    4    4    0    0  0.14067711822E+03  0.24977499001E+02  0.29141558119E+03  0.32455657135E+03  0.00000000000E+00 0. -1.
        -11    1    3    3    0    0 -0.19285600265E+02 -0.35745509299E+02  0.13657712560E+02  0.42851008447E+02  0.00000000000E+00 0. -1.
         11    1    3    3    0    0 -0.37663612917E+02  0.13945843386E+02  0.13595521989E+03  0.14176338068E+03  0.00000000000E+00 0.  1.
          1    1    1    2  501    0 -0.16611281712E+03 -0.68719121938E+02  0.39186150206E+03  0.43112784940E+03  0.00000000000E+00 0. -1.
<scales pt_clust_5="13000.00000" pt_clust_6="13000.00000" pt_clust_7="13000.00000" pt_clust_8="13000.00000" pt_clust_9="13000.00000"></scales>
<clustering>
<clus scale="   80.928">  5  6 -1 -1</clus>
<clus scale="   89.331">  7  8 -1 -1</clus>
<clus scale="  108.159">  1  7  2 -1</clus>
<clus scale="  203.192">  5  9 -1 -1</clus>
<clus scale="  434.568">  2  5  1 -1</clus>
</clustering>
</event>
<event>
 9    2  0.3726337E-005  0.1864579E+03  0.7546771E-02  0.1172918E+00
          2   -1    0    0  502    0 -0.00000000000E+00  0.00000000000E+00  0.10734192769E+04  0.10734192769E+04  0.00000000000E+00 0. -1.
         21   -1    0    0  501  502  0.00000000000E+00 -0.00000000000E+00 -0.27592077810E+02  0.27592077810E+02  0.00000000000E+00 0.  1.
         23    2    1    2    0    0  0.73038850513E+02  0.81741750043E+02  0.30862781431E+03  0.34059733591E+03  0.93482779568E+02 0.  0.
         24    2    1    2    0    0 -0.37640966496E+01 -0.74160392153E+00  0.23029318888E+03  0.24242376153E+03  0.75628096019E+02 0.  0.
        -13    1    4    4    0    0  0.28854128704E+02 -0.21727724024E+02  0.93366552847E+02  0.10010977937E+03  0.00000000000E+00 0.  1.
         14    1    4    4    0    0 -0.32618225353E+02  0.20986120103E+02  0.13692663604E+03  0.14231398216E+03  0.00000000000E+00 0. -1.
        -11    1    3    3    0    0  0.82951447944E+02  0.58367112590E+02  0.15737682749E+03  0.18723014816E+03  0.00000000000E+00 0.  1.
         11    1    3    3    0    0 -0.99125974311E+01  0.23374637453E+02  0.15125098682E+03  0.15336718775E+03  0.00000000000E+00 0. -1.
          1    1    1    2  501    0 -0.69274753864E+02 -0.81000146121E+02  0.50690619589E+03  0.51799025727E+03  0.00000000000E+00 0. -1.
<scales pt_clust_5="13000.00000" pt_clust_6="13000.00000" pt_clust_7="13000.00000" pt_clust_8="13000.00000" pt_clust_9="13000.00000"></scales>
<clustering>
<clus scale="   75.628">  5  6 -1 -1</clus>
<clus scale="   93.483">  7  8 -1 -1</clus>
<clus scale="  106.583">  5  9 -1 -1</clus>
<clus scale="  144.067">  1  7  2 -1</clus>
<clus scale="  186.458">  2  5  1 -1</clus>
</clustering>
</event>
<event>
 9    2  0.3726337E-005  0.1987305E+03  0.7546771E-02  0.1181090E+00
         21   -1    0    0  501  502  0.00000000000E+00  0.00000000000E+00  0.19299848642E+02  0.19299848642E+02  0.00000000000E+00 0. -1.
          2   -1    0    0  502    0 -0.00000000000E+00 -0.00000000000E+00 -0.12225239396E+04  0.12225239396E+04  0.00000000000E+00 0. -1.
         23    2    1    2    0    0 -0.38768189689E+02 -0.40807208267E+01 -0.26696423092E+03  0.28470501641E+03  0.90925359309E+02 0.  0.
         24    2    1    2    0    0 -0.58346926193E+02  0.15746067605E+02 -0.50367037020E+03  0.51360880264E+03  0.80360798249E+02 0.  0.
        -11    1    4    4    0    0 -0.49636455206E+02 -0.84076297011E+01 -0.13559752204E+03  0.14464146676E+03  0.00000000000E+00 0.  1.
         12    1    4    4    0    0 -0.87104709868E+01  0.24153697306E+02 -0.36807284816E+03  0.36896733588E+03  0.00000000000E+00 0. -1.
        -13    1    3    3    0    0  0.78246379675E-01 -0.34320007867E+02 -0.41133161123E+02  0.53570570339E+02  0.00000000000E+00 0. -1.
         13    1    3    3    0    0 -0.38846436069E+02  0.30239287040E+02 -0.22583106979E+03  0.23113444607E+03  0.00000000000E+00 0.  1.
          1    1    1    2  501    0  0.97115115883E+02 -0.11665346778E+02 -0.43258948988E+03  0.44350996923E+03  0.00000000000E+00 0. -1.
<scales pt_clust_5="13000.00000" pt_clust_6="13000.00000" pt_clust_7="13000.00000" pt_clust_8="13000.00000" pt_clust_9="13000.00000"></scales>
<clustering>
<clus scale="   80.361">  5  6 -1 -1</clus>
<clus scale="   90.925">  7  8 -1 -1</clus>
<clus scale="   97.813">  5  9 -1 -1</clus>
<clus scale="   98.930">  2  7  1 -1</clus>
<clus scale="  198.731">  1  5  2 -1</clus>
</clustering>
</event>
<event>
 9    2  0.3726337E-005  0.1606008E+03  0.7546771E-02  0.1204844E+00
         21   -1    0    0  501  502  0.00000000000E+00  0.00000000000E+00  0.26517596714E+02  0.26517596714E+02  0.00000000000E+00 0.  1.
          2   -1    0    0  502    0 -0.00000000000E+00 -0.00000000000E+00 -0.83520652811E+03  0.83520652811E+03  0.00000000000E+00 0. -1.
         23    2    1    2    0    0  0.22034420498E+02 -0.58883938492E+02 -0.16986363528E+03  0.20302055570E+03  0.91710727550E+02 0.  0.
         24    2    1    2    0    0 -0.63490013600E+02  0.22669690092E+02 -0.38508253545E+03  0.39905876063E+03  0.80090190730E+02 0.  0.
        -13    1    4    4    0    0 -0.57382886636E+01  0.41583649812E+02 -0.19622295459E+03  0.20066284109E+03  0.00000000000E+00 0.  1.
         14    1    4    4    0    0 -0.57751724937E+02 -0.18913959720E+02 -0.18885958086E+03  0.19839591954E+03  0.00000000000E+00 0. -1.
        -11    1    3    3    0    0 -0.21251929596E+02 -0.35011481058E+02 -0.13861489956E+03  0.14453905595E+03  0.00000000000E+00 0. -1.
         11    1    3    3    0    0  0.43286350094E+02 -0.23872457434E+02 -0.31248735728E+02  0.58481499750E+02  0.00000000000E+00 0.  1.
          1    1    1    2  501    0  0.41455593102E+02  0.36214248400E+02 -0.25374276066E+03  0.25964480849E+03  0.00000000000E+00 0. -1.
<scales pt_clust_5="13000.00000" pt_clust_6="13000.00000" pt_clust_7="13000.00000" pt_clust_8="13000.00000" pt_clust_9="13000.00000"></scales>
<clustering>
<clus scale="   80.090">  5  6 -1 -1</clus>
<clus scale="   55.046">  5  9 -1 -1</clus>
<clus scale="   91.711">  7  8 -1 -1</clus>
<clus scale="  111.192">  2  7  1 -1</clus>
<clus scale="  160.601">  1  5  2 -1</clus>
</clustering>
</event>
<event>
 9    2  0.3726337E-005  0.1236588E+03  0.7546771E-02  0.1248874E+00
         21   -1    0    0  501  502  0.00000000000E+00  0.00000000000E+00  0.27849382735E+03  0.27849382735E+03  0.00000000000E+00 0. -1.
         -1   -1    0    0    0  501 -0.00000000000E+00 -0.00000000000E+00 -0.46752068842E+02  0.46752068842E+02  0.00000000000E+00 0.  1.
         23    2    1    2    0    0 -0.33303226351E+02 -0.12780224711E+02  0.14254017449E+03  0.17277152549E+03  0.90883769988E+02 0.  0.
         24    2    1    2    0    0  0.11395183553E+02  0.23106818512E+02  0.95647811584E+02  0.12741135554E+03  0.80133478588E+02 0.  0.
        -11    1    4    4    0    0 -0.31186324025E+02  0.14273900600E+02  0.18800958888E+02  0.39112748557E+02  0.00000000000E+00 0.  1.
         12    1    4    4    0    0  0.42581507579E+02  0.88329179123E+01  0.76846852696E+02  0.88298606986E+02  0.00000000000E+00 0. -1.
        -13    1    3    3    0    0 -0.10929727785E+02  0.39334420493E+02  0.55932754012E+02  0.69246866762E+02  0.00000000000E+00 0.  1.
         13    1    3    3    0    0 -0.22373498567E+02 -0.52114645204E+02  0.86607420478E+02  0.10352465873E+03  0.00000000000E+00 0. -1.
         -2    1    1    2    0  502  0.21908042798E+02 -0.10326593801E+02 -0.64462275702E+01  0.25063015155E+02  0.00000000000E+00 0.  1.
<scales pt_clust_5="13000.00000" pt_clust_6="13000.00000" pt_clust_7="13000.00000" pt_clust_8="13000.00000" pt_clust_9="13000.00000"></scales>
<clustering>
<clus scale="   80.133">  5  6 -1 -1</clus>
<clus scale="   24.220">  5  9 -1 -1</clus>
<clus scale="   90.884">  7  8 -1 -1</clus>
<clus scale="   97.634">  2  7  1 -1</clus>
<clus scale="  123.659">  1  5  2 -1</clus>
</clustering>
</event>
<event>
 9    2  0.3726337E-005  0.3961878E+03  0.7546771E-02  0.1047137E+00
         21   -1    0    0  501  502  0.00000000000E+00  0.00000000000E+00  0.23165217664E+03  0.23165217664E+03  0.00000000000E+00 0. -1.
          2   -1    0    0  502    0 -0.00000000000E+00 -0.00000000000E+00 -0.75687029921E+03  0.75687029921E+03  0.00000000000E+00 0. -1.
         23    2    1    2    0    0 -0.33252753310E+03  0.14353692272E+03 -0.45051151033E+03  0.58535272759E+03  0.92194285626E+02 0.  0.
         24    2    1    2    0    0  0.12937621536E+03 -0.77479112752E+02 -0.82055522387E+02  0.18942200292E+03  0.80039792750E+02 0.  0.
        -11    1    4    4    0    0  0.11605106682E+03 -0.54479495357E+02 -0.95281595092E+02  0.15973242591E+03  0.00000000000E+00 0.  1.
         12    1    4    4    0    0  0.13325148542E+02 -0.22999617396E+02  0.13226072705E+02  0.29689577013E+02  0.00000000000E+00 0. -1.
        -13    1    3    3    0    0 -0.61074588719E+02  0.40008635859E+02 -0.42518442191E+02  0.84490320492E+02  0.00000000000E+00 0.  1.
         13    1    3    3    0    0 -0.27145294438E+03  0.10352828687E+03 -0.40799306814E+03  0.50086240710E+03  0.00000000000E+00 0. -1.
          1    1    1    2  501    0  0.20315131774E+03 -0.66057809972E+02  0.73489101409E+01  0.21374774534E+03  0.00000000000E+00 0. -1.
<scales pt_clust_5="13000.00000" pt_clust_6="13000.00000" pt_clust_7="13000.00000" pt_clust_8="13000.00000" pt_clust_9="13000.00000"></scales>
<clustering>
<clus scale="   80.040">  5  6 -1 -1</clus>
<clus scale="   92.194">  7  8 -1 -1</clus>
<clus scale="  213.621">  5  9 -1 -1</clus>
<clus scale="  373.734">  2  7  1 -1</clus>
<clus scale="  396.188">  1  5  2 -1</clus>
</clustering>
</event>
<event>
 9    2  0.3726337E-005  0.2514730E+03  0.7546771E-02  0.1153185E+00
         -1   -1    0    0    0  501 -0.00000000000E+00  0.00000000000E+00  0.30200419090E+03  0.30200419090E+03  0.00000000000E+00 0.  1.
         21   -1    0    0  501  502  0.00000000000E+00 -0.00000000000E+00 -0.54785279808E+03  0.54785279808E+03  0.00000000000E+00 0.  1.
         23    2    1    2    0    0 -0.34174644140E+00  0.16259705746E+02  0.26484070301E+03  0.28060988616E+03  0.91306163093E+02 0.  0.
         24    2    1    2    0    0  0.42960497334E+02  0.93004921036E+02 -0.23877642268E+03  0.27311919973E+03  0.84168863396E+02 0.  0.
        -13    1    4    4    0    0  0.61114096817E+02  0.92398473141E+02 -0.22324610756E+03  0.24922125754E+03  0.00000000000E+00 0.  1.
         14    1    4    4    0    0 -0.18153599483E+02  0.60644789460E+00 -0.15530315117E+02  0.23897942189E+02  0.00000000000E+00 0. -1.
        -11    1    3    3    0    0  0.19640657590E+02  0.40724404422E+02  0.22632741841E+03  0.23079933464E+03  0.00000000000E+00 0.  1.
         11    1    3    3    0    0 -0.19982404031E+02 -0.24464698675E+02  0.38513284600E+02  0.49810551521E+02  0.00000000000E+00 0. -1.
         -2    1    1    2    0  502 -0.42618750893E+02 -0.10926462678E+03 -0.27191288752E+03  0.29612790310E+03  0.00000000000E+00 0.  1.
<scales pt_clust_5="13000.00000" pt_clust_6="13000.00000" pt_clust_7="13000.00000" pt_clust_8="13000.00000" pt_clust_9="13000.00000"></scales>
<clustering>
<clus scale="   84.169">  5  6 -1 -1</clus>
<clus scale="   91.306">  7  8 -1 -1</clus>
<clus scale="   92.743">  1  7  2 -1</clus>
<clus scale="  111.099">  5  9 -1 -1</clus>
<clus scale="  251.473">  2  5  1 -1</clus>
</clustering>
</event>
<event>
 9    2  0.3726337E-005  0.1262679E+03  0.7546771E-02  0.1243105E+00
         21   -1    0    0  501  502  0.00000000000E+00  0.00000000000E+00  0.49036700870E+02  0.49036700870E+02  0.00000000000E+00 0. -1.
         -3   -1    0    0    0  501 -0.00000000000E+00 -0.00000000000E+00 -0.45239047156E+03  0.45239047156E+03  0.00000000000E+00 0.  1.
         23    2    1    2    0    0  0.51399538012E+02 -0.70798334543E+01 -0.29949989625E+02  0.10725211206E+03  0.88960536833E+02 0.  0.
         24    2    1    2    0    0 -0.10864176725E+02  0.13923075066E+02 -0.21539261786E+03  0.23090389584E+03  0.81306499913E+02 0.  0.
        -11    1    4    4    0    0  0.88479446930E+01 -0.19627400667E+02 -0.13760785045E+02  0.25551520254E+02  0.00000000000E+00 0.  1.
         12    1    4    4    0    0 -0.19712121418E+02  0.33550475733E+02 -0.20163183282E+03  0.20535237558E+03  0.00000000000E+00 0. -1.
        -11    1    3    3    0    0  0.67778921251E+02 -0.22666902085E+02 -0.40668536051E+02  0.82229559409E+02  0.00000000000E+00 0. -1.
         11    1    3    3    0    0 -0.16379383239E+02  0.15587068631E+02  0.10718546426E+02  0.25022552653E+02  0.00000000000E+00 0.  1.
         -4    1    1    2    0  502 -0.40535361287E+02 -0.68432416117E+01 -0.15801116320E+03  0.16327116453E+03  0.00000000000E+00 0.  1.
<scales pt_clust_5="13000.00000" pt_clust_6="13000.00000" pt_clust_7="13000.00000" pt_clust_8="13000.00000" pt_clust_9="13000.00000"></scales>
<clustering>
<clus scale="   81.306">  5  6 -1 -1</clus>
<clus scale="   41.109">  5  9 -1 -1</clus>
<clus scale="   88.961">  7  8 -1 -1</clus>
<clus scale="  102.986">  2  7  1 -1</clus>
<clus scale="  126.268">  1  5  2 -1</clus>
</clustering>
</event>
<event>
 9    2  0.3726337E-005  0.4937876E+03  0.7546771E-02  0.1054163E+00
         21   -1    0    0  501  502  0.00000000000E+00  0.00000000000E+00  0.51832573722E+02  0.51832573722E+02  0.00000000000E+00 0. -1.
          2   -1    0    0  502    0 -0.00000000000E+00 -0.00000000000E+00 -0.24344583371E+04  0.24344583371E+04  0.00000000000E+00 0. -1.
         23    2    1    2    0    0  0.12589448752E+03  0.28768705477E+02 -0.23889288874E+03  0.28642345433E+03  0.91057797550E+02 0.  0.
         24    2    1    2    0    0  0.46701187662E+01 -0.21713222211E+03 -0.67362361790E+03  0.71200013797E+03  0.77506167355E+02 0.  0.
        -13    1    4    4    0    0 -0.62569508489E+00 -0.75625034187E+02 -0.36046752670E+03  0.36831559171E+03  0.00000000000E+00 0.  1.
         14    1    4    4    0    0  0.52958138511E+01 -0.14150718792E+03 -0.31315609120E+03  0.34368454625E+03  0.00000000000E+00 0. -1.
        -13    1    3    3    0    0  0.30830470146E+02  0.51423986412E+02 -0.81968830923E+02  0.10155704560E+03  0.00000000000E+00 0.  1.
         13    1    3    3    0    0  0.95064017377E+02 -0.22655280936E+02 -0.15692405782E+03  0.18486640873E+03  0.00000000000E+00 0. -1.
          1    1    1    2  501    0 -0.13056460629E+03  0.18836351663E+03 -0.14701092567E+04  0.14878673185E+04  0.00000000000E+00 0. -1.
<scales pt_clust_5="13000.00000" pt_clust_6="13000.00000" pt_clust_7="13000.00000" pt_clust_8="13000.00000" pt_clust_9="13000.00000"></scales>
<clustering>
<clus scale="   77.506">  5  6 -1 -1</clus>
<clus scale="   91.058">  7  8 -1 -1</clus>
<clus scale="  158.015">  2  7  1 -1</clus>
<clus scale="  212.732">  5  9 -1 -1</clus>
<clus scale="  493.788">  1  5  2 -1</clus>
</clustering>
</event>
<event>
 9    2  0.3726337E-005  0.1886256E+03  0.7546771E-02  0.1177641E+00
          2   -1    0    0  502    0 -0.00000000000E+00  0.00000000000E+00  0.18628001502E+03  0.18628001502E+03  0.00000000000E+00 0. -1.
         21   -1    0    0  501  502  0.00000000000E+00 -0.00000000000E+00 -0.42716742396E+03  0.42716742396E+03  0.00000000000E+00 0. -1.
         23    2    1    2    0    0  0.85995359774E+02 -0.49898197129E+01  0.14043127034E+03  0.18802581970E+03  0.90623766087E+02 0.  0.
         24    2    1    2    0    0 -0.13822657775E+02 -0.47221428546E+02 -0.24468478187E+03  0.26231510415E+03  0.80731915632E+02 0.  0.
        -11    1    4    4    0    0  0.26115790487E+02  0.67623905089E+01 -0.59467291783E+02  0.65300254442E+02  0.00000000000E+00 0.  1.
         12    1    4    4    0    0 -0.39938448261E+02 -0.53983819055E+02 -0.18521749009E+03  0.19701484971E+03  0.00000000000E+00 0. -1.
        -13    1    3    3    0    0  0.10301061263E+02 -0.24403615655E+02 -0.92814701968E+00  0.26504901001E+02  0.00000000000E+00 0.  1.
         13    1    3    3    0    0  0.75694298512E+02  0.19413795942E+02  0.14135941736E+03  0.16152091870E+03  0.00000000000E+00 0. -1.
          1    1    1    2  501    0 -0.72172702000E+02  0.52211248259E+02 -0.13663389741E+03  0.16310651513E+03  0.00000000000E+00 0. -1.
<scales pt_clust_5="13000.00000" pt_clust_6="13000.00000" pt_clust_7="13000.00000" pt_clust_8="13000.00000" pt_clust_9="13000.00000"></scales>
<clustering>
<clus scale="   80.732">  5  6 -1 -1</clus>
<clus scale="   89.078">  5  9 -1 -1</clus>
<clus scale="   90.624">  7  8 -1 -1</clus>
<clus scale="  125.031">  1  7  2 -1</clus>
<clus scale="  188.626">  2  5  1 -1</clus>
</clustering>
</event>
<event>
 9    2  0.3726337E-005  0.2786119E+03  0.7546771E-02  0.1100256E+00
         21   -1    0    0  501  502  0.00000000000E+00  0.00000000000E+00  0.11377444380E+03  0.11377444380E+03  0.00000000000E+00 0. -1.
         -1   -1    0    0    0  501 -0.00000000000E+00 -0.00000000000E+00 -0.62447146705E+03  0.62447146705E+03  0.00000000000E+00 0.  1.
         23    2    1    2    0    0  0.26986796766E+02 -0.23411522220E+03 -0.27593122998E+03  0.37391151566E+03  0.90186215150E+02 0.  0.
         24    2    1    2    0    0  0.35693518222E+02  0.13275481294E+03 -0.12108637775E+03  0.19963538498E+03  0.79337938330E+02 0.  0.
        -11    1    4    4    0    0  0.25289595680E+02  0.13502376997E+03 -0.12731688732E+03  0.18729808302E+03  0.00000000000E+00 0.  1.
         12    1    4    4    0    0  0.10403922542E+02 -0.22689570326E+01  0.62305095650E+01  0.12337301963E+02  0.00000000000E+00 0. -1.
        -13    1    3    3    0    0 -0.18447967387E+02 -0.58762124717E+02 -0.12006387816E+03  0.13493942952E+03  0.00000000000E+00 0.  1.
         13    1    3    3    0    0  0.45434764153E+02 -0.17535309748E+03 -0.15586735182E+03  0.23897208614E+03  0.00000000000E+00 0. -1.
         -2    1    1    2    0  502 -0.62680314988E+02  0.10136040926E+03 -0.11367941552E+03  0.16469901022E+03  0.00000000000E+00 0.  1.
<scales pt_clust_5="13000.00000" pt_clust_6="13000.00000" pt_clust_7="13000.00000" pt_clust_8="13000.00000" pt_clust_9="13000.00000"></scales>
<clustering>
<clus scale="   79.338">  5  6 -1 -1</clus>
<clus scale="   90.186">  7  8 -1 -1</clus>
<clus scale="  119.175">  5  9 -1 -1</clus>
<clus scale="  252.333">  2  7  1 -1</clus>
<clus scale="  278.612">  1  5  2 -1</clus>
</clustering>
</event>
<event>
 9    2  0.3726337E-005  0.1963806E+03  0.7546771E-02  0.1159275E+00
          2   -1    0    0  502    0 -0.00000000000E+00  0.00000000000E+00  0.26276530249E+03  0.26276530249E+03  0.00000000000E+00 0. -1.
         21   -1    0    0  501  502  0.00000000000E+00 -0.00000000000E+00 -0.13391551979E+03  0.13391551979E+03  0.00000000000E+00 0. -1.
         23    2    1    2    0    0 -0.12129651038E+03 -0.75200924144E+02  0.10507814738E+03  0.19886670933E+03  0.90213793840E+02 0.  0.
         24    2    1    2    0    0  0.36550107144E+02  0.13274891854E+02  0.23711150894E+02  0.92853215499E+02  0.80915807268E+02 0.  0.
        -13    1    4    4    0    0  0.36141768168E+02 -0.24223397648E+02 -0.73926729950E+01  0.44132210617E+02  0.00000000000E+00 0.  1.
         14    1    4    4    0    0  0.40833897585E+00  0.37498289501E+02  0.31103823889E+02  0.48721004882E+02  0.00000000000E+00 0. -1.
        -13    1    3    3    0    0 -0.40925534537E+02 -0.77000525877E+01 -0.10293809628E+02  0.42897001104E+02  0.00000000000E+00 0.  1.
         13    1    3    3    0    0 -0.80370975838E+02 -0.67500871556E+02  0.11537195701E+03  0.15596970822E+03  0.00000000000E+00 0. -1.
          1    1    1    2  501    0  0.84746403232E+02  0.61926032290E+02  0.60484426272E-01  0.10496089745E+03  0.00000000000E+00 0. -1.
<scales pt_clust_5="13000.00000" pt_clust_6="13000.00000" pt_clust_7="13000.00000" pt_clust_8="13000.00000" pt_clust_9="13000.00000"></scales>
<clustering>
<clus scale="   80.916">  5  6 -1 -1</clus>
<clus scale="   90.214">  7  8 -1 -1</clus>
<clus scale="  104.961">  5  9 -1 -1</clus>
<clus scale="  168.839">  1  7  2 -1</clus>
<clus scale="  196.381">  2  5  1 -1</clus>
</clustering>
</event>
<event>
 9    2  0.3726337E-005  0.3769770E+03  0.7546771E-02  0.1085729E+00
         21   -1    0    0  501  502  0.00000000000E+00  0.00000000000E+00  0.27310133935E+03  0.27310133935E+03  0.00000000000E+00 0.  1.
          2   -1    0    0  502    0 -0.00000000000E+00 -0.00000000000E+00 -0.25723115059E+03  0.25723115059E+03  0.00000000000E+00 0. -1.
         23    2    1    2    0    0  0.11304591464E+03  0.37316870255E+02  0.33461254231E+02  0.15294530302E+03  0.90003791915E+02 0.  0.
         24    2    1    2    0    0  0.63201452142E+02 -0.10943983687E+03 -0.85621465932E+02  0.17516702967E+03  0.85912463642E+02 0.  0.
        -13    1    4    4    0    0  0.29001503113E+02 -0.13334774011E+02 -0.63081147103E+02  0.70697485815E+02  0.00000000000E+00 0.  1.
         14    1    4    4    0    0  0.34199949028E+02 -0.96105062861E+02 -0.22540318829E+02  0.10446954386E+03  0.00000000000E+00 0. -1.
        -13    1    3    3    0    0  0.52481079000E+02  0.49737230317E+02  0.51233010321E+02  0.88616460542E+02  0.00000000000E+00 0.  1.
         13    1    3    3    0    0  0.60564835637E+02 -0.12420360062E+02 -0.17771756090E+02  0.64328842476E+02  0.00000000000E+00 0. -1.
          1    1    1    2  501    0 -0.17624736678E+03  0.72122966617E+02  0.68030400455E+02  0.20222015725E+03  0.00000000000E+00 0. -1.
<scales pt_clust_5="13000.00000" pt_clust_6="13000.00000" pt_clust_7="13000.00000" pt_clust_8="13000.00000" pt_clust_9="13000.00000"></scales>
<clustering>
<clus scale="   85.912">  5  6 -1 -1</clus>
<clus scale="   90.004">  7  8 -1 -1</clus>
<clus scale="  149.240">  2  7  1 -1</clus>
<clus scale="  161.838">  5  9 -1 -1</clus>
<clus scale="  376.977">  1  5  2 -1</clus>
</clustering>
</event>
<event>
 9    2  0.3726337E-005  0.1162522E+03  0.7546771E-02  0.1260845E+00
         -3   -1    0    0    0  501 -0.00000000000E+00  0.00000000000E+00  0.79960909543E+02  0.79960909543E+02  0.00000000000E+00 0.  1.
         21   -1    0    0  501  502  0.00000000000E+00 -0.00000000000E+00 -0.46863238223E+03  0.46863238223E+03  0.00000000000E+00 0.  1.
         23    2    1    2    0    0 -0.32799227158E+01 -0.18047839123E+02  0.42542122366E+02  0.10198414414E+03  0.90854009762E+02 0.  0.
         24    2    1    2    0    0 -0.59164610976E+00 -0.14695747683E+02 -0.34320915140E+03  0.35263088618E+03  0.79622266005E+02 0.  0.
        -13    1    4    4    0    0 -0.38189189950E-01 -0.46923833197E+02 -0.23852547029E+03  0.24309719776E+03  0.00000000000E+00 0.  1.
         14    1    4    4    0    0 -0.55345691981E+00  0.32228085513E+02 -0.10468368110E+03  0.10953368842E+03  0.00000000000E+00 0. -1.
        -13    1    3    3    0    0  0.39932641345E+02 -0.19249788726E+02  0.38234123635E+02  0.58540741547E+02  0.00000000000E+00 0. -1.
         13    1    3    3    0    0 -0.43212564060E+02  0.12019496029E+01  0.43079987312E+01  0.43443402590E+02  0.00000000000E+00 0.  1.
         -4    1    1    2    0  502  0.38715688256E+01  0.32743586806E+02 -0.88004443658E+02  0.93978261453E+02  0.00000000000E+00 0.  1.
<scales pt_clust_5="13000.00000" pt_clust_6="13000.00000" pt_clust_7="13000.00000" pt_clust_8="13000.00000" pt_clust_9="13000.00000"></scales>
<clustering>
<clus scale="   79.622">  5  6 -1 -1</clus>
<clus scale="   32.972">  5  9 -1 -1</clus>
<clus scale="   90.854">  7  8 -1 -1</clus>
<clus scale="   92.687">  1  7  2 -1</clus>
<clus scale="  116.252">  2  5  1 -1</clus>
</clustering>
</event>
<event>
 9    2  0.3726337E-005  0.1348476E+03  0.7546771E-02  0.1232689E+00
         21   -1    0    0  501  502  0.00000000000E+00  0.00000000000E+00  0.19767982820E+03  0.19767982820E+03  0.00000000000E+00 0.  1.
         -1   -1    0    0    0  501 -0.00000000000E+00 -0.00000000000E+00 -0.83467851773E+02  0.83467851773E+02  0.00000000000E+00 0.  1.
         23    2    1    2    0    0  0.27432569110E+02 -0.42598908452E+02  0.17934070060E+00  0.10454838454E+03  0.91450094028E+02 0.  0.
         24    2    1    2    0    0 -0.18508263502E+02  0.18812317434E+02  0.27255941695E+02  0.86180050967E+02  0.77379943926E+02 0.  0.
        -13    1    4    4    0    0 -0.36394751405E+02  0.36804755038E+02  0.42548267698E+01  0.51935262338E+02  0.00000000000E+00 0.  1.
         14    1    4    4    0    0  0.17886487904E+02 -0.17992437604E+02  0.23001114925E+02  0.34244788629E+02  0.00000000000E+00 0. -1.
        -11    1    3    3    0    0  0.57283424837E+02 -0.16251747322E+02  0.16077440346E+02  0.61676528276E+02  0.00000000000E+00 0.  1.
         11    1    3    3    0    0 -0.29850855727E+02 -0.26347161129E+02 -0.15898099646E+02  0.42871856264E+02  0.00000000000E+00 0. -1.
         -2    1    1    2    0  502 -0.89243056080E+01  0.23786591017E+02  0.86776694027E+02  0.90419244462E+02  0.00000000000E+00 0.  1.
<scales pt_clust_5="13000.00000" pt_clust_6="13000.00000" pt_clust_7="13000.00000" pt_clust_8="13000.00000" pt_clust_9="13000.00000"></scales>
<clustering>
<clus scale="   77.380">  5  6 -1 -1</clus>
<clus scale="   25.406">  5  9 -1 -1</clus>
<clus scale="   91.450">  7  8 -1 -1</clus>
<clus scale="  104.548">  2  7  1 -1</clus>
<clus scale="  134.848">  1  5  2 -1</clus>
</clustering>
</event>
<event>
 9    2  0.3726337E-005  0.8606830E+03  0.7546771E-02  0.9633058E-01
         21   -1    0    0  501  502  0.00000000000E+00  0.00000000000E+00  0.33061256699E+03  0.33061256699E+03  0.00000000000E+00 0. -1.
          2   -1    0    0  502    0 -0.00000000000E+00 -0.00000000000E+00 -0.21514352898E+04  0.21514352898E+04  0.00000000000E+00 0. -1.
         23    2    1    2    0    0 -0.46599685457E+03  0.15750602831E+03 -0.37089514012E+02  0.50152283705E+03  0.90489262418E+02 0.  0.
         24    2    1    2    0    0  0.26621157351E+03 -0.33788061499E+03 -0.15889415768E+04  0.16482707045E+04  0.83839544569E+02 0.  0.
        -13    1    4    4    0    0  0.10942835678E+03 -0.11195353060E+03 -0.72122711265E+03  0.73802215841E+03  0.00000000000E+00 0.  1.
         14    1    4    4    0    0  0.15678321673E+03 -0.22592708439E+03 -0.86771446411E+03  0.91024854613E+03  0.00000000000E+00 0. -1.
        -13    1    3    3    0    0 -0.89964084327E+02  0.70143583954E+02 -0.10537964478E+02  0.11456311594E+03  0.00000000000E+00 0.  1.
         13    1    3    3    0    0 -0.37603277024E+03  0.87362444353E+02 -0.26551549533E+02  0.38695972111E+03  0.00000000000E+00 0. -1.
          1    1    1    2  501    0  0.19978528106E+03  0.18037458669E+03 -0.19479163200E+03  0.33225431517E+03  0.00000000000E+00 0. -1.
<scales pt_clust_5="13000.00000" pt_clust_6="13000.00000" pt_clust_7="13000.00000" pt_clust_8="13000.00000" pt_clust_9="13000.00000"></scales>
<clustering>
<clus scale="   83.840">  5  6 -1 -1</clus>
<clus scale="   90.489">  7  8 -1 -1</clus>
<clus scale="  269.164">  5  9 -1 -1</clus>
<clus scale="  500.150">  2  7  1 -1</clus>
<clus scale="  860.683">  1  5  2 -1</clus>
</clustering>
</event>
<event>
 9    2  0.3726337E-005  0.1555892E+03  0.7546771E-02  0.1214598E+00
         21   -1    0    0  501  502  0.00000000000E+00  0.00000000000E+00  0.33241083009E+03  0.33241083009E+03  0.00000000000E+00 0. -1.
          2   -1    0    0  502    0 -0.00000000000E+00 -0.00000000000E+00 -0.78892379749E+02  0.78892379749E+02  0.00000000000E+00 0. -1.
         23    2    1    2    0    0 -0.28938322320E+02  0.24120461392E+02 -0.15543717975E+02  0.10049384993E+03  0.91859586044E+02 0.  0.
         24    2    1    2    0    0  0.62229745439E+02  0.65933171234E+01  0.22796536115E+03  0.24964889390E+03  0.80251799306E+02 0.  0.
        -11    1    4    4    0    0  0.23747825339E+02  0.15330999129E+02  0.13037376424E+02  0.31128313906E+02  0.00000000000E+00 0.  1.
         12    1    4    4    0    0  0.38481920100E+02 -0.87376820056E+01  0.21492798472E+03  0.21852057999E+03  0.00000000000E+00 0. -1.
        -13    1    3    3    0    0 -0.40073541592E+02 -0.16984356899E+02 -0.32845596132E+02  0.54526968559E+02  0.00000000000E+00 0.  1.
         13    1    3    3    0    0  0.11135219272E+02  0.41104818291E+02  0.17301878157E+02  0.45966881368E+02  0.00000000000E+00 0. -1.
          1    1    1    2  501    0 -0.33291423119E+02 -0.30713778515E+02  0.41096807173E+02  0.61160466020E+02  0.00000000000E+00 0. -1.
<scales pt_clust_5="13000.00000" pt_clust_6="13000.00000" pt_clust_7="13000.00000" pt_clust_8="13000.00000" pt_clust_9="13000.00000"></scales>
<clustering>
<clus scale="   80.252">  5  6 -1 -1</clus>
<clus scale="   45.295">  5  9 -1 -1</clus>
<clus scale="   91.860">  7  8 -1 -1</clus>
<clus scale="   99.284">  2  7  1 -1</clus>
<clus scale="  155.589">  1  5  2 -1</clus>
</clustering>
</event>
<event>
 9    2  0.3726337E-005  0.2116347E+03  0.7546771E-02  0.1170146E+00
          2   -1    0    0  502    0 -0.00000000000E+00  0.00000000000E+00  0.20572459302E+03  0.20572459302E+03  0.00000000000E+00 0. -1.
         21   -1    0    0  501  502  0.00000000000E+00 -0.00000000000E+00 -0.16335296557E+03  0.16335296557E+03  0.00000000000E+00 0. -1.
         23    2    1    2    0    0 -0.59365909371E+02 -0.32140889571E+01  0.10490815164E+03  0.14839663150E+03  0.86493921160E+02 0.  0.
         24    2    1    2    0    0  0.44763405558E+02 -0.21517748266E+02 -0.12209140019E+03  0.15456224482E+03  0.80724231522E+02 0.  0.
        -13    1    4    4    0    0  0.26594964892E+02 -0.37365181084E+02 -0.20654453752E+02  0.50299655813E+02  0.00000000000E+00 0.  1.
         14    1    4    4    0    0  0.18168440666E+02  0.15847432818E+02 -0.10143694644E+03  0.10426258901E+03  0.00000000000E+00 0. -1.
        -13    1    3    3    0    0 -0.60947330957E+02 -0.23690812818E+02  0.10932595654E+03  0.12738915392E+03  0.00000000000E+00 0. -1.
         13    1    3    3    0    0  0.15814215863E+01  0.20476723861E+02 -0.44178049006E+01  0.21007477584E+02  0.00000000000E+00 0.  1.
          1    1    1    2  501    0  0.14602503813E+02  0.24731837223E+02  0.59554875998E+02  0.66118682270E+02  0.00000000000E+00 0. -1.
<scales pt_clust_5="13000.00000" pt_clust_6="13000.00000" pt_clust_7="13000.00000" pt_clust_8="13000.00000" pt_clust_9="13000.00000"></scales>
<clustering>
<clus scale="   80.724">  5  6 -1 -1</clus>
<clus scale="   28.721">  5  9 -1 -1</clus>
<clus scale="   86.494">  7  8 -1 -1</clus>
<clus scale="  104.956">  1  7  2 -1</clus>
<clus scale="  211.635">  2  5  1 -1</clus>
</clustering>
</event>
<event>
 9    2  0.3726337E-005  0.3134824E+03  0.7546771E-02  0.1124108E+00
         -1   -1    0    0    0  501 -0.00000000000E+00  0.00000000000E+00  0.25869334779E+03  0.25869334779E+03  0.00000000000E+00 0.  1.
         21   -1    0    0  501  502  0.00000000000E+00 -0.00000000000E+00 -0.18460732320E+03  0.18460732320E+03  0.00000000000E+00 0.  1.
         23    2    1    2    0    0 -0.89276319453E+01 -0.24375166202E+02  0.86239884017E+02  0.12958278449E+03  0.93169357094E+02 0.  0.
         24    2    1    2    0    0 -0.11941579498E+03 -0.64007150461E+02  0.29441367407E+00  0.15738993431E+03  0.80090307422E+02 0.  0.
        -11    1    4    4    0    0 -0.66842402318E+02  0.83725533768E+01 -0.64791131833E+01  0.67675588696E+02  0.00000000000E+00 0.  1.
         12    1    4    4    0    0 -0.52573392664E+02 -0.72379703837E+02  0.67735268573E+01  0.89714345619E+02  0.00000000000E+00 0. -1.
        -11    1    3    3    0    0 -0.30386307188E+02 -0.18107296463E+02  0.98095623880E+02  0.10427824929E+03  0.00000000000E+00 0.  1.
         11    1    3    3    0    0  0.21458675242E+02 -0.62678697386E+01 -0.11855739863E+02  0.25304535204E+02  0.00000000000E+00 0. -1.
         -2    1    1    2    0  502  0.12834342693E+03  0.88382316662E+02 -0.12448273101E+02  0.15632795219E+03  0.00000000000E+00 0.  1.
<scales pt_clust_5="13000.00000" pt_clust_6="13000.00000" pt_clust_7="13000.00000" pt_clust_8="13000.00000" pt_clust_9="13000.00000"></scales>
<clustering>
<clus scale="   80.090">  5  6 -1 -1</clus>
<clus scale="   93.169">  7  8 -1 -1</clus>
<clus scale="   96.718">  1  7  2 -1</clus>
<clus scale="  145.903">  5  9 -1 -1</clus>
<clus scale="  313.482">  2  5  1 -1</clus>
</clustering>
</event>
<event>
 9    2  0.3726337E-005  0.5172572E+03  0.7546771E-02  0.1035436E+00
         21   -1    0    0  501  502  0.00000000000E+00  0.00000000000E+00  0.80684235783E+03  0.80684235783E+03  0.00000000000E+00 0.  1.
         -3   -1    0    0    0  501 -0.00000000000E+00 -0.00000000000E+00 -0.17872231584E+03  0.17872231584E+03  0.00000000000E+00 0.  1.
         23    2    1    2    0    0  0.36769101271E+02 -0.21407428581E+03  0.25781871473E+03  0.34942154662E+03  0.91897556693E+02 0.  0.
         24    2    1    2    0    0  0.25251089430E+02  0.99527972269E+02 -0.89610291693E+02  0.15814097302E+03  0.80219250747E+02 0.  0.
        -13    1    4    4    0    0 -0.19380011971E+02  0.43978373985E+02 -0.62323809883E+01  0.48461580815E+02  0.00000000000E+00 0.  1.
         14    1    4    4    0    0  0.44631101401E+02  0.55549598284E+02 -0.83377910704E+02  0.10967939221E+03  0.00000000000E+00 0. -1.
        -13    1    3    3    0    0  0.44448124654E+02 -0.13196209635E+03  0.21589915234E+03  0.25690868930E+03  0.00000000000E+00 0.  1.
         13    1    3    3    0    0 -0.76790233831E+01 -0.82112189465E+02  0.41919562388E+02  0.92512857321E+02  0.00000000000E+00 0. -1.
         -4    1    1    2    0  502 -0.62020190700E+02  0.11454631354E+03  0.45991161895E+03  0.47800215402E+03  0.00000000000E+00 0.  1.
<scales pt_clust_5="13000.00000" pt_clust_6="13000.00000" pt_clust_7="13000.00000" pt_clust_8="13000.00000" pt_clust_9="13000.00000"></scales>
<clustering>
<clus scale="   80.219">  5  6 -1 -1</clus>
<clus scale="   91.898">  7  8 -1 -1</clus>
<clus scale="  130.259">  5  9 -1 -1</clus>
<clus scale="  235.849">  2  7  1 -1</clus>
<clus scale="  517.257">  1  5  2 -1</clus>
</clustering>
</event>
<event>
 9    2  0.3726337E-005  0.1213241E+03  0.7546771E-02  0.1251575E+00
         21   -1    0    0  501  502  0.00000000000E+00  0.00000000000E+00  0.16983194924E+03  0.16983194924E+03  0.00000000000E+00 0. -1.
          2   -1    0    0  502    0 -0.00000000000E+00 -0.00000000000E+00 -0.23535627420E+03  0.23535627420E+03  0.00000000000E+00 0. -1.
         23    2    1    2    0    0  0.12343621475E+02  0.35072838755E+02 -0.20083707552E+03  0.22344920957E+03  0.90617599527E+02 0.  0.
         24    2    1    2    0    0 -0.94879452970E+01  0.27149219335E+01  0.98522017992E+02  0.12892208716E+03  0.82564669333E+02 0.  0.
        -13    1    4    4    0    0 -0.21704185328E+02  0.25574948840E+02  0.76212025897E+01  0.34398145267E+02  0.00000000000E+00 0.  1.
         14    1    4    4    0    0  0.12216240031E+02 -0.22860026907E+02  0.90900815402E+02  0.94523941896E+02  0.00000000000E+00 0. -1.
        -11    1    3    3    0    0  0.31785503357E+02  0.58935197425E+02 -0.13065388394E+03  0.14681319119E+03  0.00000000000E+00 0. -1.
         11    1    3    3    0    0 -0.19441881881E+02 -0.23862358670E+02 -0.70183191584E+02  0.76636018381E+02  0.00000000000E+00 0.  1.
          1    1    1    2  501    0 -0.28556761783E+01 -0.37787760688E+02  0.36790732568E+02  0.52816926711E+02  0.00000000000E+00 0. -1.
<scales pt_clust_5="13000.00000" pt_clust_6="13000.00000" pt_clust_7="13000.00000" pt_clust_8="13000.00000" pt_clust_9="13000.00000"></scales>
<clustering>
<clus scale="   82.565">  5  6 -1 -1</clus>
<clus scale="   37.896">  5  9 -1 -1</clus>
<clus scale="   90.618">  7  8 -1 -1</clus>
<clus scale="   97.949">  2  7  1 -1</clus>
<clus scale="  121.324">  1  5  2 -1</clus>
</clustering>
</event>
<event>
 9    2  0.3726337E-005  0.3485874E+03  0.7546771E-02  0.1066503E+00
         21   -1    0    0  501  502  0.00000000000E+00  0.00000000000E+00  0.36399078099E+02  0.36399078099E+02  0.00000000000E+00 0. -1.
          4   -1    0    0  502    0 -0.00000000000E+00 -0.00000000000E+00 -0.30755565104E+04  0.30755565104E+04  0.00000000000E+00 0. -1.
         23    2    1    2    0    0 -0.25467885793E+03  0.16792379016E+03 -0.13153065572E+04  0.13532131328E+04  0.89970680914E+02 0.  0.
         24    2    1    2    0    0  0.40491784238E+02 -0.68980594406E+02 -0.57700510129E+03  0.58787906167E+03  0.79176999481E+02 0.  0.
        -13    1    4    4    0    0  0.28683282457E+02 -0.57239979468E+02 -0.18963827831E+03  0.20015449668E+03  0.00000000000E+00 0.  1.
         14    1    4    4    0    0  0.11808501781E+02 -0.11740614938E+02 -0.38736682298E+03  0.38772456499E+03  0.00000000000E+00 0. -1.
        -13    1    3    3    0    0 -0.91242022514E+02  0.98387461515E+02 -0.70183653003E+03  0.71454860866E+03  0.00000000000E+00 0.  1.
         13    1    3    3    0    0 -0.16343683542E+03  0.69536328643E+02 -0.61347002715E+03  0.63866452413E+03  0.00000000000E+00 0. -1.
          3    1    1    2  501    0  0.21418707369E+03 -0.98943195752E+02 -0.11468457738E+04  0.11708633940E+04  0.00000000000E+00 0. -1.
<scales pt_clust_5="13000.00000" pt_clust_6="13000.00000" pt_clust_7="13000.00000" pt_clust_8="13000.00000" pt_clust_9="13000.00000"></scales>
<clustering>
<clus scale="   79.177">  5  6 -1 -1</clus>
<clus scale="   89.971">  7  8 -1 -1</clus>
<clus scale="  235.936">  5  9 -1 -1</clus>
<clus scale="  318.048">  2  7  1 -1</clus>
<clus scale="  348.587">  1  5  2 -1</clus>
</clustering>
</event>
<event>
 9    2  0.3726337E-005  0.3140527E+03  0.7546771E-02  0.1098018E+00
          4   -1    0    0  502    0 -0.00000000000E+00  0.00000000000E+00  0.28903059033E+03  0.28903059033E+03  0.00000000000E+00 0. -1.
         21   -1    0    0  501  502  0.00000000000E+00 -0.00000000000E+00 -0.21702347703E+03  0.21702347703E+03  0.00000000000E+00 0.  1.
         23    2    1    2    0    0  0.14001131564E+03 -0.83834135768E+02  0.21516298179E+02  0.18796853323E+03  0.90762809399E+02 0.  0.
         24    2    1    2    0    0  0.54528130006E+02  0.26404176577E+02 -0.20563126362E+02  0.10316122484E+03  0.80925265780E+02 0.  0.
        -11    1    4    4    0    0  0.46441111155E+02  0.54269020250E+02 -0.19863591620E+02  0.74138152366E+02  0.00000000000E+00 0.  1.
         12    1    4    4    0    0  0.80870188508E+01 -0.27864843673E+02 -0.69953474265E+00  0.29023072471E+02  0.00000000000E+00 0. -1.
        -13    1    3    3    0    0  0.48381163977E+02 -0.69270101523E+02 -0.19200121628E+02  0.86647150348E+02  0.00000000000E+00 0.  1.
         13    1    3    3    0    0  0.91630151660E+02 -0.14564034244E+02  0.40716419807E+02  0.10132138288E+03  0.00000000000E+00 0. -1.
          3    1    1    2  501    0 -0.19453944564E+03  0.57429959190E+02  0.71053941489E+02  0.21492430929E+03  0.00000000000E+00 0. -1.
<scales pt_clust_5="13000.00000" pt_clust_6="13000.00000" pt_clust_7="13000.00000" pt_clust_8="13000.00000" pt_clust_9="13000.00000"></scales>
<clustering>
<clus scale="   80.925">  5  6 -1 -1</clus>
<clus scale="   90.763">  7  8 -1 -1</clus>
<clus scale="  186.733">  1  7  2 -1</clus>
<clus scale="   86.242">  5  9 -1 -1</clus>
<clus scale="  314.053">  2  5  1 -1</clus>
</clustering>
</event>
<event>
 9    2  0.3726337E-005  0.1524738E+03  0.7546771E-02  0.1220401E+00
         -1   -1    0    0    0  501 -0.00000000000E+00  0.00000000000E+00  0.18333469209E+03  0.18333469209E+03  0.00000000000E+00 0.  1.
         21   -1    0    0  501  502  0.00000000000E+00 -0.00000000000E+00 -0.82400017055E+02  0.82400017055E+02  0.00000000000E+00 0.  1.
         23    2    1    2    0    0  0.36722163557E+01 -0.20660331774E+02  0.38188703004E+02  0.10085502994E+03  0.90956173755E+02 0.  0.
         24    2    1    2    0    0 -0.48302169362E+02  0.34953581319E+01  0.99245458758E+01  0.93629611934E+02  0.79515347743E+02 0.  0.
        -11    1    4    4    0    0 -0.68383491153E+02  0.68776000205E+01 -0.41838718138E+01  0.68855704395E+02  0.00000000000E+00 0.  1.
         12    1    4    4    0    0  0.20081321791E+02 -0.33822418886E+01  0.14108417690E+02  0.24773907540E+02  0.00000000000E+00 0. -1.
        -11    1    3    3    0    0  0.35755824036E+02 -0.40593305127E+02  0.13578101915E+02  0.55773293119E+02  0.00000000000E+00 0. -1.
         11    1    3    3    0    0 -0.32083607681E+02  0.19932973353E+02  0.24610601088E+02  0.45081736817E+02  0.00000000000E+00 0.  1.
         -2    1    1    2    0  502  0.44629953006E+02  0.17164973643E+02  0.52821426152E+02  0.71250067272E+02  0.00000000000E+00 0.  1.
<scales pt_clust_5="13000.00000" pt_clust_6="13000.00000" pt_clust_7="13000.00000" pt_clust_8="13000.00000" pt_clust_9="13000.00000"></scales>
<clustering>
<clus scale="   79.515">  5  6 -1 -1</clus>
<clus scale="   47.817">  5  9 -1 -1</clus>
<clus scale="   90.956">  7  8 -1 -1</clus>
<clus scale="   93.345">  1  7  2 -1</clus>
<clus scale="  152.474">  2  5  1 -1</clus>
</clustering>
</event>
<event>
 9    2  0.3726337E-005  0.2823980E+03  0.7546771E-02  0.1106585E+00
         -3   -1    0    0    0  501 -0.00000000000E+00  0.00000000000E+00  0.14846068069E+03  0.14846068069E+03  0.00000000000E+00 0.  1.
         21   -1    0    0  501  502  0.00000000000E+00 -0.00000000000E+00 -0.68624504592E+03  0.68624504592E+03  0.00000000000E+00 0. -1.
         23    2    1    2    0    0 -0.17048709333E+03  0.73664684897E+02 -0.51116995459E+03  0.55105633882E+03  0.88747007186E+02 0.  0.
         24    2    1    2    0    0  0.82227623225E+02 -0.10357670177E+03 -0.82318865116E+02  0.17507936861E+03  0.79917924067E+02 0.  0.
        -13    1    4    4    0    0  0.78798974442E+02 -0.78242295663E+02 -0.95367452562E+02  0.14637652206E+03  0.00000000000E+00 0.  1.
         14    1    4    4    0    0  0.34286487830E+01 -0.25334406109E+02  0.13048587446E+02  0.28702846544E+02  0.00000000000E+00 0. -1.
        -11    1    3    3    0    0 -0.12936391134E+03  0.12590273395E+02 -0.28587263276E+03  0.31403295799E+03  0.00000000000E+00 0.  1.
         11    1    3    3    0    0 -0.41123181993E+02  0.61074411502E+02 -0.22529732184E+03  0.23702338084E+03  0.00000000000E+00 0. -1.
         -4    1    1    2    0  502  0.88259470107E+02  0.29912016875E+02  0.55704454481E+02  0.10857001919E+03  0.00000000000E+00 0.  1.
<scales pt_clust_5="13000.00000" pt_clust_6="13000.00000" pt_clust_7="13000.00000" pt_clust_8="13000.00000" pt_clust_9="13000.00000"></scales>
<clustering>
<clus scale="   79.918">  5  6 -1 -1</clus>
<clus scale="   88.747">  7  8 -1 -1</clus>
<clus scale="   93.191">  5  9 -1 -1</clus>
<clus scale="  205.836">  1  7  2 -1</clus>
<clus scale="  282.398">  2  5  1 -1</clus>
</clustering>
</event>
<event>
 9    2  0.3726337E-005  0.2102122E+03  0.7546771E-02  0.1151489E+00
         -3   -1    0    0    0  501 -0.00000000000E+00  0.00000000000E+00  0.56843012322E+03  0.56843012322E+03  0.00000000000E+00 0.  1.
         21   -1    0    0  501  502  0.00000000000E+00 -0.00000000000E+00 -0.15469466797E+03  0.15469466797E+03  0.00000000000E+00 0.  1.
         23    2    1    2    0    0 -0.98161014837E+01 -0.13689504748E+03  0.47601180498E+03  0.50388176311E+03  0.92048806840E+02 0.  0.
         24    2    1    2    0    0 -0.18758854787E+02  0.27204256090E+02  0.48440193280E+01  0.87509426510E+02  0.80885530365E+02 0.  0.
        -11    1    4    4    0    0 -0.41369665367E+02  0.22575501963E+02 -0.22082201616E+02  0.52045423715E+02  0.00000000000E+00 0.  1.
         12    1    4    4    0    0  0.22610810580E+02  0.46287541272E+01  0.26926220944E+02  0.35464002794E+02  0.00000000000E+00 0. -1.
        -13    1    3    3    0    0  0.19841925432E+02 -0.90016998386E+02  0.17490813726E+03  0.19771094680E+03  0.00000000000E+00 0. -1.
         13    1    3    3    0    0 -0.29658026915E+02 -0.46878049095E+02  0.30110366772E+03  0.30617081631E+03  0.00000000000E+00 0.  1.
         -4    1    1    2    0  502  0.28574956271E+02  0.10969079139E+03 -0.67120369056E+02  0.13173360157E+03  0.00000000000E+00 0.  1.
<scales pt_clust_5="13000.00000" pt_clust_6="13000.00000" pt_clust_7="13000.00000" pt_clust_8="13000.00000" pt_clust_9="13000.00000"></scales>
<clustering>
<clus scale="   80.886">  5  6 -1 -1</clus>
<clus scale="   92.049">  7  8 -1 -1</clus>
<clus scale="  113.352">  5  9 -1 -1</clus>
<clus scale="  165.256">  1  7  2 -1</clus>
<clus scale="  210.212">  2  5  1 -1</clus>
</clustering>
</event>
<event>
 9    2  0.3726337E-005  0.2189360E+03  0.7546771E-02  0.1157891E+00
         21   -1    0    0  501  502  0.00000000000E+00  0.00000000000E+00  0.32038622833E+02  0.32038622833E+02  0.00000000000E+00 0. -1.
          2   -1    0    0  502    0 -0.00000000000E+00 -0.00000000000E+00 -0.13508044293E+04  0.13508044293E+04  0.00000000000E+00 0. -1.
         23    2    1    2    0    0 -0.66441967126E+02  0.55356616375E+02 -0.15992994826E+03  0.20350700401E+03  0.91425501690E+02 0.  0.
         24    2    1    2    0    0  0.62597932569E+01 -0.40340616448E+02 -0.10507608010E+04  0.10547262881E+04  0.81747975660E+02 0.  0.
        -13    1    4    4    0    0  0.30225444230E+02 -0.17589113131E+02 -0.18154130453E+03  0.18487887827E+03  0.00000000000E+00 0.  1.
         14    1    4    4    0    0 -0.23965650973E+02 -0.22751503317E+02 -0.86921949645E+03  0.86984740980E+03  0.00000000000E+00 0. -1.
        -11    1    3    3    0    0 -0.55544261894E+02 -0.11469522970E+02 -0.88254966569E+02  0.10490783627E+03  0.00000000000E+00 0. -1.
         11    1    3    3    0    0 -0.10897705231E+02  0.66826139345E+02 -0.71674981687E+02  0.98599167740E+02  0.00000000000E+00 0.  1.
          1    1    1    2  501    0  0.60182173869E+02 -0.15015999927E+02 -0.10807505724E+03  0.12460976006E+03  0.00000000000E+00 0. -1.
<scales pt_clust_5="13000.00000" pt_clust_6="13000.00000" pt_clust_7="13000.00000" pt_clust_8="13000.00000" pt_clust_9="13000.00000"></scales>
<clustering>
<clus scale="   81.748">  5  6 -1 -1</clus>
<clus scale="   62.027">  5  9 -1 -1</clus>
<clus scale="   91.426">  7  8 -1 -1</clus>
<clus scale="  125.847">  2  7  1 -1</clus>
<clus scale="  218.936">  1  5  2 -1</clus>
</clustering>
</event>
<event>
 9    2  0.3726337E-005  0.3022728E+03  0.7546771E-02  0.1124960E+00
          2   -1    0    0  502    0 -0.00000000000E+00  0.00000000000E+00  0.24418433573E+03  0.24418433573E+03  0.00000000000E+00 0. -1.
         21   -1    0    0  501  502  0.00000000000E+00 -0.00000000000E+00 -0.18499727048E+03  0.18499727048E+03  0.00000000000E+00 0. -1.
         23    2    1    2    0    0  0.89007213266E+01  0.51094961002E+02  0.70000570467E+02  0.12671549002E+03  0.92015312126E+02 0.  0.
         24    2    1    2    0    0 -0.81329768921E+02  0.81692319220E+02 -0.45052206087E+02  0.14738317915E+03  0.80024583038E+02 0.  0.
        -11    1    4    4    0    0 -0.48267550252E+02  0.29159819581E+02  0.17714083584E+02  0.59108715453E+02  0.00000000000E+00 0.  1.
         12    1    4    4    0    0 -0.33062218669E+02  0.52532499639E+02 -0.62766289671E+02  0.88274463695E+02  0.00000000000E+00 0. -1.
        -13    1    3    3    0    0  0.50100891057E+02  0.34289437046E+02  0.34786008579E+02  0.69970930896E+02  0.00000000000E+00 0.  1.
         13    1    3    3    0    0 -0.41200169731E+02  0.16805523956E+02  0.35214561888E+02  0.56744559124E+02  0.00000000000E+00 0. -1.
          1    1    1    2  501    0  0.72429047594E+02 -0.13278728022E+03  0.34238700872E+02  0.15508293704E+03  0.00000000000E+00 0. -1.
<scales pt_clust_5="13000.00000" pt_clust_6="13000.00000" pt_clust_7="13000.00000" pt_clust_8="13000.00000" pt_clust_9="13000.00000"></scales>
<clustering>
<clus scale="   80.025">  5  6 -1 -1</clus>
<clus scale="   92.015">  7  8 -1 -1</clus>
<clus scale="  105.625">  1  7  2 -1</clus>
<clus scale="  126.651">  5  9 -1 -1</clus>
<clus scale="  302.273">  2  5  1 -1</clus>
</clustering>
</event>
<event>
 9    2  0.3726337E-005  0.2999871E+03  0.7546771E-02  0.1111777E+00
         21   -1    0    0  501  502  0.00000000000E+00  0.00000000000E+00  0.17000352321E+03  0.17000352321E+03  0.00000000000E+00 0. -1.
          2   -1    0    0  502    0 -0.00000000000E+00 -0.00000000000E+00 -0.31585987588E+03  0.31585987588E+03  0.00000000000E+00 0. -1.
         23    2    1    2    0    0  0.72236256022E+01 -0.11962961639E+03 -0.10424639959E+03  0.18300426017E+03  0.90883560280E+02 0.  0.
         24    2    1    2    0    0 -0.39917073943E+02  0.22246713042E+02 -0.13543085277E+03  0.16373813889E+03  0.79877238390E+02 0.  0.
        -13    1    4    4    0    0 -0.35845744792E+02  0.48893482832E+02 -0.11468454707E+03  0.12972291787E+03  0.00000000000E+00 0.  1.
         14    1    4    4    0    0 -0.40713291513E+01 -0.26646769790E+02 -0.20746305700E+02  0.34015221026E+02  0.00000000000E+00 0. -1.
        -11    1    3    3    0    0  0.19118948789E+02 -0.36782566420E+02  0.87683611615E+01  0.42371872188E+02  0.00000000000E+00 0.  1.
         11    1    3    3    0    0 -0.11895323187E+02 -0.82847049968E+02 -0.11301476075E+03  0.14063238798E+03  0.00000000000E+00 0. -1.
          1    1    1    2  501    0  0.32693448341E+02  0.97382903345E+02  0.93820899697E+02  0.13912100003E+03  0.00000000000E+00 0. -1.
<scales pt_clust_5="13000.00000" pt_clust_6="13000.00000" pt_clust_7="13000.00000" pt_clust_8="13000.00000" pt_clust_9="13000.00000"></scales>
<clustering>
<clus scale="   79.877">  5  6 -1 -1</clus>
<clus scale="   90.884">  7  8 -1 -1</clus>
<clus scale="  102.724">  5  9 -1 -1</clus>
<clus scale="  150.410">  2  7  1 -1</clus>
<clus scale="  299.987">  1  5  2 -1</clus>
</clustering>
</event>
<event>
 9    2  0.3726337E-005  0.2212479E+03  0.7546771E-02  0.1164842E+00
         -1   -1    0    0    0  501 -0.00000000000E+00  0.00000000000E+00  0.10005605577E+03  0.10005605577E+03  0.00000000000E+00 0.  1.
         21   -1    0    0  501  502  0.00000000000E+00 -0.00000000000E+00 -0.53170485360E+03  0.53170485360E+03  0.00000000000E+00 0.  1.
         23    2    1    2    0    0 -0.47228946296E+02  0.17450120279E+02  0.39674294821E+02  0.11109203253E+03  0.90732077878E+02 0.  0.
         24    2    1    2    0    0 -0.66171018600E+02 -0.37819227328E+01 -0.18048866281E+03  0.20820921985E+03  0.79887515820E+02 0.  0.
        -13    1    4    4    0    0 -0.53809792074E+02 -0.38541425891E+02 -0.12729336546E+03  0.14347311986E+03  0.00000000000E+00 0.  1.
         14    1    4    4    0    0 -0.12361226527E+02  0.34759503159E+02 -0.53195297354E+02  0.64736099988E+02  0.00000000000E+00 0. -1.
        -13    1    3    3    0    0 -0.41274082924E+01  0.38026882787E+02 -0.12611551975E+02  0.40275681955E+02  0.00000000000E+00 0. -1.
         13    1    3    3    0    0 -0.43101538003E+02 -0.20576762508E+02  0.52285846796E+02  0.70816350575E+02  0.00000000000E+00 0.  1.
         -2    1    1    2    0  502  0.11339996490E+03 -0.13668197547E+02 -0.29083442985E+03  0.31245965699E+03  0.00000000000E+00 0.  1.
<scales pt_clust_5="13000.00000" pt_clust_6="13000.00000" pt_clust_7="13000.00000" pt_clust_8="13000.00000" pt_clust_9="13000.00000"></scales>
<clustering>
<clus scale="   79.888">  5  6 -1 -1</clus>
<clus scale="   90.732">  7  8 -1 -1</clus>
<clus scale="  103.766">  1  7  2 -1</clus>
<clus scale="   92.898">  5  9 -1 -1</clus>
<clus scale="  221.248">  2  5  1 -1</clus>
</clustering>
</event>
<event>
 9    2  0.3726337E-005  0.7265297E+03  0.7546771E-02  0.9984684E-01
         21   -1    0    0  501  502  0.00000000000E+00  0.00000000000E+00  0.19719770159E+03  0.19719770159E+03  0.00000000000E+00 0. -1.
          2   -1    0    0  502    0 -0.00000000000E+00 -0.00000000000E+00 -0.12404845649E+04  0.12404845649E+04  0.00000000000E+00 0. -1.
         23    2    1    2    0    0  0.22056487108E+03 -0.10867828543E+03 -0.28867505598E+03  0.39016886813E+03  0.91861992325E+02 0.  0.
         24    2    1    2    0    0 -0.14705092335E+02 -0.24254264590E+03 -0.51602503523E+03  0.57564685055E+03  0.77744998149E+02 0.  0.
        -13    1    4    4    0    0  0.20318648706E+02 -0.80421490337E+02 -0.11605822429E+03  0.14265333862E+03  0.00000000000E+00 0.  1.
         14    1    4    4    0    0 -0.35023741042E+02 -0.16212115556E+03 -0.39996681094E+03  0.43299351193E+03  0.00000000000E+00 0. -1.
        -11    1    3    3    0    0  0.15697045790E+03 -0.28092222582E+02 -0.16550221008E+03  0.22982575827E+03  0.00000000000E+00 0.  1.
         11    1    3    3    0    0  0.63594413184E+02 -0.80586062845E+02 -0.12317284589E+03  0.16034310985E+03  0.00000000000E+00 0. -1.
          1    1    1    2  501    0 -0.20585977875E+03  0.35122093133E+03 -0.23858677208E+03  0.47186654779E+03  0.00000000000E+00 0. -1.
<scales pt_clust_5="13000.00000" pt_clust_6="13000.00000" pt_clust_7="13000.00000" pt_clust_8="13000.00000" pt_clust_9="13000.00000"></scales>
<clustering>
<clus scale="   77.745">  5  6 -1 -1</clus>
<clus scale="   91.862">  7  8 -1 -1</clus>
<clus scale="  262.485">  2  7  1 -1</clus>
<clus scale="  330.507">  5  9 -1 -1</clus>
<clus scale="  726.530">  1  5  2 -1</clus>
</clustering>
</event>
<event>
 9    2  0.3726337E-005  0.4684275E+03  0.7546771E-02  0.1078792E+00
         -1   -1    0    0    0  501 -0.00000000000E+00  0.00000000000E+00  0.52391818510E+03  0.52391818510E+03  0.00000000000E+00 0.  1.
         21   -1    0    0  501  502  0.00000000000E+00 -0.00000000000E+00 -0.21871294971E+03  0.21871294971E+03  0.00000000000E+00 0.  1.
         23    2    1    2    0    0 -0.52276219603E+01 -0.16114798720E+02  0.25482276625E+03  0.27150194477E+03  0.92150144039E+02 0.  0.
         24    2    1    2    0    0  0.21791499646E+03 -0.47946552371E+02  0.71432490199E+02  0.24800841700E+03  0.81361887129E+02 0.  0.
        -11    1    4    4    0    0  0.22098404156E+03 -0.36869735287E+02  0.60310852151E+02  0.23201448854E+03  0.00000000000E+00 0.  1.
         12    1    4    4    0    0 -0.30690451002E+01 -0.11076817085E+02  0.11121638049E+02  0.15993928456E+02  0.00000000000E+00 0. -1.
        -11    1    3    3    0    0  0.28417649852E+02 -0.33745168120E+02  0.19998632153E+03  0.20479459953E+03  0.00000000000E+00 0.  1.
         11    1    3    3    0    0 -0.33645271813E+02  0.17630369400E+02  0.54836444714E+02  0.66707345243E+02  0.00000000000E+00 0. -1.
         -2    1    1    2    0  502 -0.21268737450E+03  0.64061351092E+02 -0.21050021055E+02  0.22312077304E+03  0.00000000000E+00 0.  1.
<scales pt_clust_5="13000.00000" pt_clust_6="13000.00000" pt_clust_7="13000.00000" pt_clust_8="13000.00000" pt_clust_9="13000.00000"></scales>
<clustering>
<clus scale="   81.362">  5  6 -1 -1</clus>
<clus scale="   92.150">  7  8 -1 -1</clus>
<clus scale="   93.695">  1  7  2 -1</clus>
<clus scale="  222.361">  5  9 -1 -1</clus>
<clus scale="  468.427">  2  5  1 -1</clus>
</clustering>
</event>
<event>
 9    2  0.3726337E-005  0.1462504E+03  0.7546771E-02  0.1220147E+00
          2   -1    0    0  502    0 -0.00000000000E+00  0.00000000000E+00  0.12223678274E+03  0.12223678274E+03  0.00000000000E+00 0. -1.
         21   -1    0    0  501  502  0.00000000000E+00 -0.00000000000E+00 -0.22527043167E+03  0.22527043167E+03  0.00000000000E+00 0. -1.
         23    2    1    2    0    0  0.37015460095E+02  0.34366362281E+02 -0.15868867283E+03  0.19102504987E+03  0.93580359321E+02 0.  0.
         24    2    1    2    0    0 -0.18957577959E+02  0.15058665410E+02  0.65627445296E+02  0.10292500201E+03  0.75501266856E+02 0.  0.
        -13    1    4    4    0    0 -0.14814398423E+02 -0.30038668676E+02  0.33713617627E+02  0.47522584420E+02  0.00000000000E+00 0.  1.
         14    1    4    4    0    0 -0.41431795355E+01  0.45097334087E+02  0.31913827670E+02  0.55402417591E+02  0.00000000000E+00 0. -1.
        -13    1    3    3    0    0 -0.52563014376E+01  0.56878988271E+02 -0.71158053877E+02  0.91248652829E+02  0.00000000000E+00 0. -1.
         13    1    3    3    0    0  0.42271761532E+02 -0.22512625990E+02 -0.87530618952E+02  0.99776397039E+02  0.00000000000E+00 0.  1.
          1    1    1    2  501    0 -0.18057882136E+02 -0.49425027692E+02 -0.99724213969E+01  0.53557162528E+02  0.00000000000E+00 0. -1.
<scales pt_clust_5="13000.00000" pt_clust_6="13000.00000" pt_clust_7="13000.00000" pt_clust_8="13000.00000" pt_clust_9="13000.00000"></scales>
<clustering>
<clus scale="   75.501">  5  6 -1 -1</clus>
<clus scale="   52.621">  5  9 -1 -1</clus>
<clus scale="   93.580">  7  8 -1 -1</clus>
<clus scale="  106.341">  1  7  2 -1</clus>
<clus scale="  146.250">  2  5  1 -1</clus>
</clustering>
</event>
<event>
 9    2  0.3726337E-005  0.2901031E+03  0.7546771E-02  0.1120896E+00
          2   -1    0    0  502    0 -0.00000000000E+00  0.00000000000E+00  0.10492020687E+03  0.10492020687E+03  0.00000000000E+00 0. -1.
         21   -1    0    0  501  502  0.00000000000E+00 -0.00000000000E+00 -0.42607548338E+03  0.42607548338E+03  0.00000000000E+00 0. -1.
         23    2    1    2    0    0 -0.36689222591E+02 -0.89842229476E+02 -0.87931668367E+02  0.15876851642E+03  0.89764905456E+02 0.  0.
         24    2    1    2    0    0 -0.98411890084E+02  0.10085352549E+02 -0.75850403076E+02  0.15001152242E+03  0.83447940449E+02 0.  0.
        -13    1    4    4    0    0 -0.61259707191E+01 -0.28285185132E+02 -0.11500473552E+02  0.31142255974E+02  0.00000000000E+00 0.  1.
         14    1    4    4    0    0 -0.92285919365E+02  0.38370537681E+02 -0.64349929524E+02  0.11886926644E+03  0.00000000000E+00 0. -1.
        -13    1    3    3    0    0 -0.51520521474E+01 -0.38780553771E+02 -0.90608271807E+02  0.98693130014E+02  0.00000000000E+00 0.  1.
         13    1    3    3    0    0 -0.31537170444E+02 -0.51061675705E+02  0.26766034400E+01  0.60075386402E+02  0.00000000000E+00 0. -1.
          1    1    1    2  501    0  0.13510111268E+03  0.79756876927E+02 -0.15737320506E+03  0.22221565142E+03  0.00000000000E+00 0. -1.
<scales pt_clust_5="13000.00000" pt_clust_6="13000.00000" pt_clust_7="13000.00000" pt_clust_8="13000.00000" pt_clust_9="13000.00000"></scales>
<clustering>
<clus scale="   83.448">  5  6 -1 -1</clus>
<clus scale="   89.765">  7  8 -1 -1</clus>
<clus scale="  132.195">  1  7  2 -1</clus>
<clus scale="  123.908">  5  9 -1 -1</clus>
<clus scale="  290.103">  2  5  1 -1</clus>
</clustering>
</event>
<event>
 9    2  0.3726337E-005  0.3012073E+03  0.7546771E-02  0.1097519E+00
         21   -1    0    0  501  502  0.00000000000E+00  0.00000000000E+00  0.55444843333E+03  0.55444843333E+03  0.00000000000E+00 0.  1.
         -1   -1    0    0    0  501 -0.00000000000E+00 -0.00000000000E+00 -0.16597337104E+03  0.16597337104E+03  0.00000000000E+00 0.  1.
         23    2    1    2    0    0 -0.17960638989E+03 -0.73353871799E+02  0.35849162339E+03  0.41772582582E+03  0.91320182463E+02 0.  0.
         24    2    1    2    0    0  0.17519522306E+02  0.10533972363E+03 -0.24538441593E+01  0.13432904387E+03  0.81454770521E+02 0.  0.
        -11    1    4    4    0    0  0.38988845881E+02  0.10502579280E+03 -0.74743580039E+01  0.11227828501E+03  0.00000000000E+00 0.  1.
         12    1    4    4    0    0 -0.21469323575E+02  0.31393082834E+00  0.50205138446E+01  0.22050758866E+02  0.00000000000E+00 0. -1.
        -11    1    3    3    0    0 -0.17268063880E+03 -0.41900157173E+02  0.26692866727E+03  0.32066359257E+03  0.00000000000E+00 0.  1.
         11    1    3    3    0    0 -0.69257510878E+01 -0.31453714627E+02  0.91562956114E+02  0.97062233255E+02  0.00000000000E+00 0. -1.
         -2    1    1    2    0  502  0.16208686758E+03 -0.31985851829E+02  0.32437283060E+02  0.16836693468E+03  0.00000000000E+00 0.  1.
<scales pt_clust_5="13000.00000" pt_clust_6="13000.00000" pt_clust_7="13000.00000" pt_clust_8="13000.00000" pt_clust_9="13000.00000"></scales>
<clustering>
<clus scale="   81.455">  5  6 -1 -1</clus>
<clus scale="   91.320">  7  8 -1 -1</clus>
<clus scale="  165.213">  5  9 -1 -1</clus>
<clus scale="  214.426">  2  7  1 -1</clus>
<clus scale="  301.207">  1  5  2 -1</clus>
</clustering>
</event>
<event>
 9    2  0.3726337E-005  0.6122492E+03  0.7546771E-02  0.1045001E+00
         21   -1    0    0  501  502  0.00000000000E+00  0.00000000000E+00  0.15540340532E+04  0.15540340532E+04  0.00000000000E+00 0. -1.
          4   -1    0    0  502    0 -0.00000000000E+00 -0.00000000000E+00 -0.84556996608E+02  0.84556996608E+02  0.00000000000E+00 0. -1.
         23    2    1    2    0    0  0.59417238081E+01  0.40906158619E+02  0.29635250556E+03  0.31531092357E+03  0.99436175907E+02 0.  0.
         24    2    1    2    0    0 -0.10407310254E+02 -0.31957842904E+03  0.56967745468E+03  0.65857976226E+03  0.83403935631E+02 0.  0.
        -11    1    4    4    0    0  0.31398138285E+02 -0.62003816187E+02  0.11919799234E+03  0.13797999017E+03  0.00000000000E+00 0.  1.
         12    1    4    4    0    0 -0.41805448539E+02 -0.25757461286E+03  0.45047946234E+03  0.52059977209E+03  0.00000000000E+00 0. -1.
        -11    1    3    3    0    0  0.40513305236E+02 -0.85504979354E+01  0.17438014341E+03  0.17922855054E+03  0.00000000000E+00 0. -1.
         11    1    3    3    0    0 -0.34571581428E+02  0.49456656555E+02  0.12197236215E+03  0.13608237303E+03  0.00000000000E+00 0.  1.
          3    1    1    2  501    0  0.44655864457E+01  0.27867227042E+03  0.60344709638E+03  0.66470036400E+03  0.00000000000E+00 0. -1.
<scales pt_clust_5="13000.00000" pt_clust_6="13000.00000" pt_clust_7="13000.00000" pt_clust_8="13000.00000" pt_clust_9="13000.00000"></scales>
<clustering>
<clus scale="   83.404">  5  6 -1 -1</clus>
<clus scale="   99.436">  7  8 -1 -1</clus>
<clus scale="  107.686">  2  7  1 -1</clus>
<clus scale="  295.440">  5  9 -1 -1</clus>
<clus scale="  612.249">  1  5  2 -1</clus>
</clustering>
</event>
<event>
 9    2  0.3726337E-005  0.2670381E+03  0.7546771E-02  0.1145029E+00
         -1   -1    0    0    0  501 -0.00000000000E+00  0.00000000000E+00  0.42420813221E+02  0.42420813221E+02  0.00000000000E+00 0.  1.
         21   -1    0    0  501  502  0.00000000000E+00 -0.00000000000E+00 -0.76851496143E+03  0.76851496143E+03  0.00000000000E+00 0.  1.
         23    2    1    2    0    0  0.11430536387E+02  0.28874600984E+01 -0.19682253687E+03  0.21811390458E+03  0.93250038944E+02 0.  0.
         24    2    1    2    0    0 -0.10202453604E+03  0.34498000729E+02 -0.15435748110E+03  0.20530986960E+03  0.82017026126E+02 0.  0.
        -11    1    4    4    0    0 -0.96463440915E+02  0.56370342860E+02 -0.13733575988E+03  0.17704214733E+03  0.00000000000E+00 0.  1.
         12    1    4    4    0    0 -0.55610951299E+01 -0.21872342132E+02 -0.17021721215E+02  0.28267722273E+02  0.00000000000E+00 0. -1.
        -13    1    3    3    0    0  0.11555457402E+00  0.44380084033E+02 -0.13990100363E+03  0.14677157772E+03  0.00000000000E+00 0.  1.
         13    1    3    3    0    0  0.11314981813E+02 -0.41492623935E+02 -0.56921533241E+02  0.71342326854E+02  0.00000000000E+00 0. -1.
         -2    1    1    2    0  502  0.90593999658E+02 -0.37385460827E+02 -0.37491413024E+03  0.38751200047E+03  0.00000000000E+00 0.  1.
<scales pt_clust_5="13000.00000" pt_clust_6="13000.00000" pt_clust_7="13000.00000" pt_clust_8="13000.00000" pt_clust_9="13000.00000"></scales>
<clustering>
<clus scale="   82.017">  5  6 -1 -1</clus>
<clus scale="   93.250">  7  8 -1 -1</clus>
<clus scale="   93.992">  1  7  2 -1</clus>
<clus scale="   99.891">  5  9 -1 -1</clus>
<clus scale="  267.038">  2  5  1 -1</clus>
</clustering>
</event>
<event>
 9    2  0.3726337E-005  0.2334528E+03  0.7546771E-02  0.1143102E+00
         -1   -1    0    0    0  501 -0.00000000000E+00  0.00000000000E+00  0.77876114841E+03  0.77876114841E+03  0.00000000000E+00 0.  1.
         21   -1    0    0  501  502  0.00000000000E+00 -0.00000000000E+00 -0.65361126516E+02  0.65361126516E+02  0.00000000000E+00 0. -1.
         23    2    1    2    0    0 -0.41397918066E+02  0.10707628492E+03  0.52153563056E+03  0.54194324432E+03  0.92325227931E+02 0.  0.
         24    2    1    2    0    0 -0.55491018966E+02 -0.50613244676E+02  0.48532803670E+02  0.12019143472E+03  0.80309365738E+02 0.  0.
        -13    1    4    4    0    0 -0.18996959092E+02 -0.21135501542E+02  0.64623874939E+02  0.70596310755E+02  0.00000000000E+00 0.  1.
         14    1    4    4    0    0 -0.36494059874E+02 -0.29477743134E+02 -0.16091071269E+02  0.49595123964E+02  0.00000000000E+00 0. -1.
        -13    1    3    3    0    0  0.77972686218E+01  0.75168404908E+02  0.39908411776E+03  0.40617634045E+03  0.00000000000E+00 0.  1.
         13    1    3    3    0    0 -0.49195186688E+02  0.31907880016E+02  0.12245151280E+03  0.13576690387E+03  0.00000000000E+00 0. -1.
         -2    1    1    2    0  502  0.96888937032E+02 -0.56463040248E+02  0.14333158767E+03  0.18198759589E+03  0.00000000000E+00 0.  1.
<scales pt_clust_5="13000.00000" pt_clust_6="13000.00000" pt_clust_7="13000.00000" pt_clust_8="13000.00000" pt_clust_9="13000.00000"></scales>
<clustering>
<clus scale="   80.309">  5  6 -1 -1</clus>
<clus scale="   92.325">  7  8 -1 -1</clus>
<clus scale="  112.141">  5  9 -1 -1</clus>
<clus scale="  147.320">  1  7  2 -1</clus>
<clus scale="  233.453">  2  5  1 -1</clus>
</clustering>
</event>
<event>
 9    2  0.3726337E-005  0.2318721E+03  0.7546771E-02  0.1146536E+00
          2   -1    0    0  502    0 -0.00000000000E+00  0.00000000000E+00  0.79273857456E+03  0.79273857456E+03  0.00000000000E+00 0. -1.
         21   -1    0    0  501  502  0.00000000000E+00 -0.00000000000E+00 -0.43639615445E+02  0.43639615445E+02  0.00000000000E+00 0. -1.
         23    2    1    2    0    0  0.35160273811E+02 -0.97599560962E+02  0.31873610372E+03  0.34752558599E+03  0.91757342763E+02 0.  0.
         24    2    1    2    0    0 -0.32687246563E+02 -0.39610221225E+02  0.20539590096E+03  0.22533264124E+03  0.77135577806E+02 0.  0.
        -11    1    4    4    0    0  0.23133974688E+02 -0.27084394671E+00  0.37273852768E+02  0.43870197646E+02  0.00000000000E+00 0.  1.
         12    1    4    4    0    0 -0.55821221251E+02 -0.39339377278E+02  0.16812204819E+03  0.18146244359E+03  0.00000000000E+00 0. -1.
        -11    1    3    3    0    0  0.65272390183E+02 -0.78944835459E+02  0.22151812713E+03  0.24405542939E+03  0.00000000000E+00 0. -1.
         11    1    3    3    0    0 -0.30112116372E+02 -0.18654725503E+02  0.97217976584E+02  0.10347015660E+03  0.00000000000E+00 0.  1.
          1    1    1    2  501    0 -0.24730272487E+01  0.13720978219E+03  0.22496695444E+03  0.26351996277E+03  0.00000000000E+00 0. -1.
<scales pt_clust_5="13000.00000" pt_clust_6="13000.00000" pt_clust_7="13000.00000" pt_clust_8="13000.00000" pt_clust_9="13000.00000"></scales>
<clustering>
<clus scale="   77.136">  5  6 -1 -1</clus>
<clus scale="   91.757">  7  8 -1 -1</clus>
<clus scale="  137.232">  5  9 -1 -1</clus>
<clus scale="  138.497">  1  7  2 -1</clus>
<clus scale="  231.872">  2  5  1 -1</clus>
</clustering>
</event>
<event>
 9    2  0.3726337E-005  0.1509306E+03  0.7546771E-02  0.1213059E+00
         21   -1    0    0  501  502  0.00000000000E+00  0.00000000000E+00  0.18998731941E+03  0.18998731941E+03  0.00000000000E+00 0.  1.
         -1   -1    0    0    0  501 -0.00000000000E+00 -0.00000000000E+00 -0.95028378278E+02  0.95028378278E+02  0.00000000000E+00 0.  1.
         23    2    1    2    0    0 -0.20884761757E+02 -0.38280421298E+02  0.12605153225E+02  0.11307912426E+03  0.10356850161E+03 0.  0.
         24    2    1    2    0    0 -0.67722171162E+01 -0.43990384812E+01  0.87763473445E+02  0.12079256630E+03  0.82602677548E+02 0.  0.
        -13    1    4    4    0    0  0.31076807972E+01 -0.19973931563E+02  0.97750042362E+02  0.99818266884E+02  0.00000000000E+00 0.  1.
         14    1    4    4    0    0 -0.98798979134E+01  0.15574893082E+02 -0.99865689169E+01  0.20974299417E+02  0.00000000000E+00 0. -1.
        -11    1    3    3    0    0  0.23971823198E+02  0.53607741895E+00  0.40858494938E+02  0.47374595460E+02  0.00000000000E+00 0. -1.
         11    1    3    3    0    0 -0.44856584956E+02 -0.38816498717E+02 -0.28253341713E+02  0.65704528797E+02  0.00000000000E+00 0.  1.
         -2    1    1    2    0  502  0.27656978873E+02  0.42679459780E+02 -0.54096855391E+01  0.51144007128E+02  0.00000000000E+00 0.  1.
<scales pt_clust_5="13000.00000" pt_clust_6="13000.00000" pt_clust_7="13000.00000" pt_clust_8="13000.00000" pt_clust_9="13000.00000"></scales>
<clustering>
<clus scale="   82.603">  5  6 -1 -1</clus>
<clus scale="   50.857">  5  9 -1 -1</clus>
<clus scale="  103.569">  7  8 -1 -1</clus>
<clus scale="  112.374">  2  7  1 -1</clus>
<clus scale="  150.931">  1  5  2 -1</clus>
</clustering>
</event>
<event>
 9    2  0.3726337E-005  0.2608548E+03  0.7546771E-02  0.1149139E+00
         -1   -1    0    0    0  501 -0.00000000000E+00  0.00000000000E+00  0.11204511170E+03  0.11204511170E+03  0.00000000000E+00 0.  1.
         21   -1    0    0  501  502  0.00000000000E+00 -0.00000000000E+00 -0.27819261028E+03  0.27819261028E+03  0.00000000000E+00 0.  1.
         23    2    1    2    0    0  0.12365318200E+02  0.26663583812E+02 -0.54921517856E+02  0.10665974594E+03  0.86579908089E+02 0.  0.
         24    2    1    2    0    0 -0.19029635261E+02 -0.12918739218E+03 -0.93551082038E+02  0.17932853264E+03  0.79720815054E+02 0.  0.
        -13    1    4    4    0    0  0.49427294146E+01 -0.70777927869E+02 -0.91988733209E+02  0.11617173789E+03  0.00000000000E+00 0.  1.
         14    1    4    4    0    0 -0.23972364676E+02 -0.58409464313E+02 -0.15623488291E+01  0.63156794752E+02  0.00000000000E+00 0. -1.
        -13    1    3    3    0    0 -0.25810608825E+02  0.13847847607E+02  0.94088062853E+01  0.30764850836E+02  0.00000000000E+00 0.  1.
         13    1    3    3    0    0  0.38175927026E+02  0.12815736205E+02 -0.64330324141E+02  0.75894895104E+02  0.00000000000E+00 0. -1.
         -2    1    1    2    0  502  0.66643170609E+01  0.10252380837E+03 -0.17674898681E+02  0.10424944339E+03  0.00000000000E+00 0.  1.
<scales pt_clust_5="13000.00000" pt_clust_6="13000.00000" pt_clust_7="13000.00000" pt_clust_8="13000.00000" pt_clust_9="13000.00000"></scales>
<clustering>
<clus scale="   79.721">  5  6 -1 -1</clus>
<clus scale="   86.580">  7  8 -1 -1</clus>
<clus scale="   91.433">  1  7  2 -1</clus>
<clus scale="  116.630">  5  9 -1 -1</clus>
<clus scale="  260.855">  2  5  1 -1</clus>
</clustering>
</event>
<event>
 9    2  0.3726337E-005  0.2580241E+03  0.7546771E-02  0.1137261E+00
         21   -1    0    0  501  502  0.00000000000E+00  0.00000000000E+00  0.42192760569E+03  0.42192760569E+03  0.00000000000E+00 0. -1.
          2   -1    0    0  502    0 -0.00000000000E+00 -0.00000000000E+00 -0.10419425385E+03  0.10419425385E+03  0.00000000000E+00 0. -1.
         23    2    1    2    0    0 -0.66027119892E+02  0.13166095276E+02  0.21376137229E+03  0.24793734622E+03  0.10604752115E+03 0.  0.
         24    2    1    2    0    0 -0.46806038332E+02  0.33567838678E+02 -0.23083113802E+02  0.10195063767E+03  0.80891886862E+02 0.  0.
        -11    1    4    4    0    0  0.18942191316E+02 -0.66526469741E+01 -0.13703155498E+02  0.24307216917E+02  0.00000000000E+00 0.  1.
         12    1    4    4    0    0 -0.65748229649E+02  0.40220485652E+02 -0.93799583035E+01  0.77643420750E+02  0.00000000000E+00 0. -1.
        -13    1    3    3    0    0 -0.52631698921E+02 -0.35555091802E+02  0.65224299334E+02  0.91041032002E+02  0.00000000000E+00 0.  1.
         13    1    3    3    0    0 -0.13395420971E+02  0.48721187078E+02  0.14853707295E+03  0.15689631422E+03  0.00000000000E+00 0. -1.
          1    1    1    2  501    0  0.11283315822E+03 -0.46733933954E+02  0.12705509336E+03  0.17623387565E+03  0.00000000000E+00 0. -1.
<scales pt_clust_5="13000.00000" pt_clust_6="13000.00000" pt_clust_7="13000.00000" pt_clust_8="13000.00000" pt_clust_9="13000.00000"></scales>
<clustering>
<clus scale="   80.892">  5  6 -1 -1</clus>
<clus scale="  106.048">  7  8 -1 -1</clus>
<clus scale="  122.129">  5  9 -1 -1</clus>
<clus scale="  125.615">  2  7  1 -1</clus>
<clus scale="  258.024">  1  5  2 -1</clus>
</clustering>
</event>
<event>
 9    2  0.3726337E-005  0.1937178E+03  0.7546771E-02  0.1182987E+00
         21   -1    0    0  501  502  0.00000000000E+00  0.00000000000E+00  0.19937529581E+03  0.19937529581E+03  0.00000000000E+00 0. -1.
          2   -1    0    0  502    0 -0.00000000000E+00 -0.00000000000E+00 -0.11517252527E+03  0.11517252527E+03  0.00000000000E+00 0. -1.
         23    2    1    2    0    0  0.10110093615E+02 -0.45731717317E+02 -0.23075775933E+01  0.10239070281E+03  0.91021575171E+02 0.  0.
         24    2    1    2    0    0 -0.81008399470E+02  0.12914112333E+02  0.61607802751E+02  0.13015893696E+03  0.80104259748E+02 0.  0.
        -13    1    4    4    0    0 -0.23875676349E+02 -0.67236751696E+01 -0.17692556348E+02  0.30467725203E+02  0.00000000000E+00 0.  1.
         14    1    4    4    0    0 -0.57132723121E+02  0.19637787502E+02  0.79300359099E+02  0.99691211761E+02  0.00000000000E+00 0. -1.
        -11    1    3    3    0    0  0.38909415521E+02 -0.57931377713E+02  0.59611509003E+01  0.70039435035E+02  0.00000000000E+00 0.  1.
         11    1    3    3    0    0 -0.28799321906E+02  0.12199660396E+02 -0.82687284936E+01  0.32351267779E+02  0.00000000000E+00 0. -1.
          1    1    1    2  501    0  0.70898305855E+02  0.32817604985E+02  0.24902545378E+02  0.81998181299E+02  0.00000000000E+00 0. -1.
<scales pt_clust_5="13000.00000" pt_clust_6="13000.00000" pt_clust_7="13000.00000" pt_clust_8="13000.00000" pt_clust_9="13000.00000"></scales>
<clustering>
<clus scale="   80.104">  5  6 -1 -1</clus>
<clus scale="   78.125">  5  9 -1 -1</clus>
<clus scale="   91.022">  7  8 -1 -1</clus>
<clus scale="  102.365">  2  7  1 -1</clus>
<clus scale="  193.718">  1  5  2 -1</clus>
</clustering>
</event>
<event>
 9    2  0.3726337E-005  0.2774192E+03  0.7546771E-02  0.1133156E+00
         -1   -1    0    0    0  501 -0.00000000000E+00  0.00000000000E+00  0.22714286778E+03  0.22714286778E+03  0.00000000000E+00 0.  1.
         21   -1    0    0  501  502  0.00000000000E+00 -0.00000000000E+00 -0.19473059097E+03  0.19473059097E+03  0.00000000000E+00 0.  1.
         23    2    1    2    0    0 -0.12483396636E+02  0.63814820963E+02 -0.63340040475E+02  0.12839449396E+03  0.90802085798E+02 0.  0.
         24    2    1    2    0    0  0.40662527990E+02 -0.55395336929E+02  0.17760492094E+03  0.20650310676E+03  0.79862009888E+02 0.  0.
        -11    1    4    4    0    0  0.48284732959E+02 -0.18838901725E+01  0.10847140206E+03  0.11874767174E+03  0.00000000000E+00 0.  1.
         12    1    4    4    0    0 -0.76222049693E+01 -0.53511446756E+02  0.69133518876E+02  0.87755435016E+02  0.00000000000E+00 0. -1.
        -11    1    3    3    0    0  0.33929427766E+02  0.24720943441E+02 -0.18769218457E+01  0.42022065022E+02  0.00000000000E+00 0.  1.
         11    1    3    3    0    0 -0.46412824402E+02  0.39093877522E+02 -0.61463118629E+02  0.86372428936E+02  0.00000000000E+00 0. -1.
         -2    1    1    2    0  502 -0.28179131354E+02 -0.84194840338E+01 -0.81852603657E+02  0.86975858034E+02  0.00000000000E+00 0.  1.
<scales pt_clust_5="13000.00000" pt_clust_6="13000.00000" pt_clust_7="13000.00000" pt_clust_8="13000.00000" pt_clust_9="13000.00000"></scales>
<clustering>
<clus scale="   79.862">  5  6 -1 -1</clus>
<clus scale="   29.410">  5  9 -1 -1</clus>
<clus scale="   90.802">  7  8 -1 -1</clus>
<clus scale="  111.683">  1  7  2 -1</clus>
<clus scale="  277.419">  2  5  1 -1</clus>
</clustering>
</event>
<event>
 9    2  0.3726337E-005  0.2315281E+03  0.7546771E-02  0.1128000E+00
          2   -1    0    0  502    0 -0.00000000000E+00  0.00000000000E+00  0.52073039963E+03  0.52073039963E+03  0.00000000000E+00 0. -1.
         21   -1    0    0  501  502  0.00000000000E+00 -0.00000000000E+00 -0.13473468314E+03  0.13473468314E+03  0.00000000000E+00 0. -1.
         23    2    1    2    0    0  0.19717713613E+03 -0.16770920757E+01  0.36214233198E+03  0.42271151196E+03  0.93039336199E+02 0.  0.
         24    2    1    2    0    0 -0.85665739993E+02  0.31592713190E+01  0.27075847396E+02  0.12118577711E+03  0.81266789382E+02 0.  0.
        -11    1    4    4    0    0 -0.50180256725E+02  0.24035259663E+02  0.49353543690E+02  0.74374216949E+02  0.00000000000E+00 0.  1.
         12    1    4    4    0    0 -0.35485483268E+02 -0.20875988344E+02 -0.22277696294E+02  0.46811560156E+02  0.00000000000E+00 0. -1.
        -13    1    3    3    0    0  0.25956714144E+02 -0.19299825841E+02  0.15893264888E+02  0.36039286278E+02  0.00000000000E+00 0.  1.
         13    1    3    3    0    0  0.17122042199E+03  0.17622733765E+02  0.34624906709E+03  0.38667222568E+03  0.00000000000E+00 0. -1.
          1    1    1    2  501    0 -0.11151139614E+03 -0.14821792433E+01 -0.32224628965E+01  0.11156779370E+03  0.00000000000E+00 0. -1.
<scales pt_clust_5="13000.00000" pt_clust_6="13000.00000" pt_clust_7="13000.00000" pt_clust_8="13000.00000" pt_clust_9="13000.00000"></scales>
<clustering>
<clus scale="   81.267">  5  6 -1 -1</clus>
<clus scale="   93.039">  7  8 -1 -1</clus>
<clus scale="  111.521">  5  9 -1 -1</clus>
<clus scale="  218.032">  1  7  2 -1</clus>
<clus scale="  231.528">  2  5  1 -1</clus>
</clustering>
</event>
<event>
 9    2  0.3726337E-005  0.1887592E+03  0.7546771E-02  0.1184903E+00
          2   -1    0    0  502    0 -0.00000000000E+00  0.00000000000E+00  0.17544678415E+03  0.17544678415E+03  0.00000000000E+00 0. -1.
         21   -1    0    0  501  502  0.00000000000E+00 -0.00000000000E+00 -0.21034333175E+03  0.21034333175E+03  0.00000000000E+00 0. -1.
         23    2    1    2    0    0 -0.19400851525E+02 -0.52011303055E+02  0.10625170408E+03  0.15009355908E+03  0.90316571971E+02 0.  0.
         24    2    1    2    0    0  0.31070005715E+02 -0.39973205460E+02 -0.87606991256E+02  0.12862655386E+03  0.79414123618E+02 0.  0.
        -13    1    4    4    0    0  0.19326728768E+02 -0.27849999415E+02  0.52015102680E+01  0.34295781393E+02  0.00000000000E+00 0.  1.
         14    1    4    4    0    0  0.11743276947E+02 -0.12123206045E+02 -0.92808501524E+02  0.94330772462E+02  0.00000000000E+00 0. -1.
        -13    1    3    3    0    0  0.15568991658E+02  0.19760903557E+02  0.17102104361E+02  0.30419874823E+02  0.00000000000E+00 0.  1.
         13    1    3    3    0    0 -0.34969843183E+02 -0.71772206612E+02  0.89149599722E+02  0.11967368426E+03  0.00000000000E+00 0. -1.
          1    1    1    2  501    0 -0.11669154190E+02  0.91984508515E+02 -0.53541260429E+02  0.10707000296E+03  0.00000000000E+00 0. -1.
<scales pt_clust_5="13000.00000" pt_clust_6="13000.00000" pt_clust_7="13000.00000" pt_clust_8="13000.00000" pt_clust_9="13000.00000"></scales>
<clustering>
<clus scale="   79.414">  5  6 -1 -1</clus>
<clus scale="   90.317">  7  8 -1 -1</clus>
<clus scale="   92.722">  5  9 -1 -1</clus>
<clus scale="  106.013">  1  7  2 -1</clus>
<clus scale="  188.759">  2  5  1 -1</clus>
</clustering>
</event>
<event>
 9    2  0.3726337E-005  0.5478692E+03  0.7546771E-02  0.1014866E+00
         21   -1    0    0  501  502  0.00000000000E+00  0.00000000000E+00  0.44975585665E+03  0.44975585665E+03  0.00000000000E+00 0. -1.
          2   -1    0    0  502    0 -0.00000000000E+00 -0.00000000000E+00 -0.61464691910E+03  0.61464691910E+03  0.00000000000E+00 0. -1.
         23    2    1    2    0    0 -0.12639853631E+03 -0.33313995908E+03 -0.32809846282E+03  0.49274090140E+03  0.90477468434E+02 0.  0.
         24    2    1    2    0    0 -0.14470795458E+02 -0.35649867197E+02 -0.69765235615E+02  0.11326646237E+03  0.80509542567E+02 0.  0.
        -11    1    4    4    0    0  0.20124403597E+02  0.14272293824E+02 -0.63901485935E+01  0.25485760538E+02  0.00000000000E+00 0.  1.
         12    1    4    4    0    0 -0.34595199055E+02 -0.49922161021E+02 -0.63375087022E+02  0.87780701829E+02  0.00000000000E+00 0. -1.
        -13    1    3    3    0    0 -0.19254880776E+02 -0.13210696121E+03 -0.78742377142E+02  0.15499471472E+03  0.00000000000E+00 0. -1.
         13    1    3    3    0    0 -0.10714365553E+03 -0.20103299787E+03 -0.24935608568E+03  0.33774618668E+03  0.00000000000E+00 0.  1.
          1    1    1    2  501    0  0.14086933177E+03  0.36878982628E+03  0.23297263598E+03  0.45839541197E+03  0.00000000000E+00 0. -1.
<scales pt_clust_5="13000.00000" pt_clust_6="13000.00000" pt_clust_7="13000.00000" pt_clust_8="13000.00000" pt_clust_9="13000.00000"></scales>
<clustering>
<clus scale="   80.510">  5  6 -1 -1</clus>
<clus scale="   90.477">  7  8 -1 -1</clus>
<clus scale="  367.621">  2  7  1 -1</clus>
<clus scale="  198.133">  5  9 -1 -1</clus>
<clus scale="  547.869">  1  5  2 -1</clus>
</clustering>
</event>
<event>
 9    2  0.3726337E-005  0.1604294E+03  0.7546771E-02  0.1209808E+00
         21   -1    0    0  501  502  0.00000000000E+00  0.00000000000E+00  0.93627217050E+02  0.93627217050E+02  0.00000000000E+00 0. -1.
          2   -1    0    0  502    0 -0.00000000000E+00 -0.00000000000E+00 -0.19584419219E+03  0.19584419219E+03  0.00000000000E+00 0. -1.
         23    2    1    2    0    0  0.38282273102E+02  0.76574512783E+01 -0.78384429568E+02  0.12728141691E+03  0.92370294453E+02 0.  0.
         24    2    1    2    0    0 -0.10599797446E+02  0.17047853384E+02  0.36209856921E+02  0.91608396755E+02  0.81718783684E+02 0.  0.
        -11    1    4    4    0    0  0.14934633986E+02 -0.26862940123E+02  0.24932181298E+02  0.39576186131E+02  0.00000000000E+00 0.  1.
         12    1    4    4    0    0 -0.25534431431E+02  0.43910793507E+02  0.11277675623E+02  0.52032210624E+02  0.00000000000E+00 0. -1.
        -13    1    3    3    0    0  0.11420829368E+02  0.49343809794E+02 -0.37756726963E+02  0.63172916186E+02  0.00000000000E+00 0.  1.
         13    1    3    3    0    0  0.26861443734E+02 -0.41686358516E+02 -0.40627702605E+02  0.64108500722E+02  0.00000000000E+00 0. -1.
          1    1    1    2  501    0 -0.27682475657E+02 -0.24705304662E+02 -0.60042402491E+02  0.70581595574E+02  0.00000000000E+00 0. -1.
<scales pt_clust_5="13000.00000" pt_clust_6="13000.00000" pt_clust_7="13000.00000" pt_clust_8="13000.00000" pt_clust_9="13000.00000"></scales>
<clustering>
<clus scale="   81.719">  5  6 -1 -1</clus>
<clus scale="   37.104">  5  9 -1 -1</clus>
<clus scale="   92.370">  7  8 -1 -1</clus>
<clus scale="  100.282">  2  7  1 -1</clus>
<clus scale="  160.429">  1  5  2 -1</clus>
</clustering>
</event>
<event>
 9    2  0.3726337E-005  0.2314154E+03  0.7546771E-02  0.1130357E+00
         21   -1    0    0  501  502  0.00000000000E+00  0.00000000000E+00  0.10233743090E+03  0.10233743090E+03  0.00000000000E+00 0. -1.
          2   -1    0    0  502    0 -0.00000000000E+00 -0.00000000000E+00 -0.79165426759E+03  0.79165426759E+03  0.00000000000E+00 0. -1.
         23    2    1    2    0    0  0.70782306495E+01  0.18577428841E+03 -0.61859659714E+03  0.65201144333E+03  0.88853726163E+02 0.  0.
         24    2    1    2    0    0 -0.54256289971E+00 -0.15071591481E+03 -0.96270659884E+01  0.17124002354E+03  0.80714830807E+02 0.  0.
        -13    1    4    4    0    0 -0.36684324669E+02 -0.40186836059E+02 -0.75469747931E+01  0.54933398742E+02  0.00000000000E+00 0.  1.
         14    1    4    4    0    0  0.36141761769E+02 -0.11052907875E+03 -0.20800911952E+01  0.11630662480E+03  0.00000000000E+00 0. -1.
        -13    1    3    3    0    0 -0.33867535827E+02  0.32196354510E+02 -0.12457780429E+03  0.13305354016E+03  0.00000000000E+00 0.  1.
         13    1    3    3    0    0  0.40945766476E+02  0.15357793390E+03 -0.49401879285E+03  0.51895790317E+03  0.00000000000E+00 0. -1.
          1    1    1    2  501    0 -0.65356677498E+01 -0.35058373600E+02 -0.61093173565E+02  0.70740231613E+02  0.00000000000E+00 0. -1.
<scales pt_clust_5="13000.00000" pt_clust_6="13000.00000" pt_clust_7="13000.00000" pt_clust_8="13000.00000" pt_clust_9="13000.00000"></scales>
<clustering>
<clus scale="   80.715">  5  6 -1 -1</clus>
<clus scale="   35.662">  5  9 -1 -1</clus>
<clus scale="   88.854">  7  8 -1 -1</clus>
<clus scale="  206.051">  2  7  1 -1</clus>
<clus scale="  231.415">  1  5  2 -1</clus>
</clustering>
</event>
<event>
 9    2  0.3726337E-005  0.1643296E+03  0.7546771E-02  0.1207324E+00
          2   -1    0    0  502    0 -0.00000000000E+00  0.00000000000E+00  0.36298153561E+03  0.36298153561E+03  0.00000000000E+00 0. -1.
         21   -1    0    0  501  502  0.00000000000E+00 -0.00000000000E+00 -0.62529142491E+02  0.62529142491E+02  0.00000000000E+00 0. -1.
         23    2    1    2    0    0  0.27884921859E+02  0.23019070595E+02  0.22319581091E+03  0.24392651020E+03  0.91522269928E+02 0.  0.
         24    2    1    2    0    0  0.93193572128E+01  0.26308841944E+02  0.83386025033E+02  0.11949575187E+03  0.80913533851E+02 0.  0.
        -11    1    4    4    0    0 -0.31807347908E+02  0.27034592184E+02  0.56909423404E+02  0.70578035022E+02  0.00000000000E+00 0.  1.
         12    1    4    4    0    0  0.41126705121E+02 -0.72575023970E+00  0.26476601629E+02  0.48917716845E+02  0.00000000000E+00 0. -1.
        -13    1    3    3    0    0  0.95437160196E+01 -0.18293131147E+02  0.51786034295E+01  0.21272966321E+02  0.00000000000E+00 0.  1.
         13    1    3    3    0    0  0.18341205840E+02  0.41312201742E+02  0.21801720748E+03  0.22265354388E+03  0.00000000000E+00 0. -1.
          1    1    1    2  501    0 -0.37204279072E+02 -0.49327912539E+02 -0.61294428189E+01  0.62088416037E+02  0.00000000000E+00 0. -1.
<scales pt_clust_5="13000.00000" pt_clust_6="13000.00000" pt_clust_7="13000.00000" pt_clust_8="13000.00000" pt_clust_9="13000.00000"></scales>
<clustering>
<clus scale="   80.914">  5  6 -1 -1</clus>
<clus scale="   61.785">  5  9 -1 -1</clus>
<clus scale="   91.522">  7  8 -1 -1</clus>
<clus scale="   98.406">  1  7  2 -1</clus>
<clus scale="  164.330">  2  5  1 -1</clus>
</clustering>
</event>
<event>
 9    2  0.3726337E-005  0.3275053E+03  0.7546771E-02  0.1112908E+00
         -3   -1    0    0    0  501 -0.00000000000E+00  0.00000000000E+00  0.38281726697E+02  0.38281726697E+02  0.00000000000E+00 0.  1.
         21   -1    0    0  501  502  0.00000000000E+00 -0.00000000000E+00 -0.14832340757E+04  0.14832340757E+04  0.00000000000E+00 0. -1.
         23    2    1    2    0    0  0.47518411153E+02 -0.44898324573E+02 -0.16005074540E+03  0.19553244444E+03  0.91339130585E+02 0.  0.
         24    2    1    2    0    0  0.10549154253E+03 -0.52806696305E+02 -0.67213910576E+03  0.68689322676E+03  0.78321866445E+02 0.  0.
        -11    1    4    4    0    0  0.36748645132E+02  0.19088572148E+02 -0.23054375728E+03  0.23423334632E+03  0.00000000000E+00 0.  1.
         12    1    4    4    0    0  0.68742897399E+02 -0.71895268453E+02 -0.44159534847E+03  0.45265988044E+03  0.00000000000E+00 0. -1.
        -11    1    3    3    0    0  0.17586611159E+02  0.26943633237E+02 -0.30107317404E+02  0.44064711792E+02  0.00000000000E+00 0.  1.
         11    1    3    3    0    0  0.29931799994E+02 -0.71841957810E+02 -0.12994342800E+03  0.15146773264E+03  0.00000000000E+00 0. -1.
         -4    1    1    2    0  502 -0.15300995368E+03  0.97705020879E+02 -0.61276249788E+03  0.63909013123E+03  0.00000000000E+00 0.  1.
<scales pt_clust_5="13000.00000" pt_clust_6="13000.00000" pt_clust_7="13000.00000" pt_clust_8="13000.00000" pt_clust_9="13000.00000"></scales>
<clustering>
<clus scale="   78.322">  5  6 -1 -1</clus>
<clus scale="   91.339">  7  8 -1 -1</clus>
<clus scale="  112.324">  1  7  2 -1</clus>
<clus scale="  140.612">  5  9 -1 -1</clus>
<clus scale="  327.505">  2  5  1 -1</clus>
</clustering>
</event>
<event>
 9    2  0.3726337E-005  0.1581238E+03  0.7546771E-02  0.1201979E+00
          2   -1    0    0  502    0 -0.00000000000E+00  0.00000000000E+00  0.59701431505E+02  0.59701431505E+02  0.00000000000E+00 0. -1.
         21   -1    0    0  501  502  0.00000000000E+00 -0.00000000000E+00 -0.64712902733E+03  0.64712902733E+03  0.00000000000E+00 0. -1.
         23    2    1    2    0    0  0.85125378569E+02 -0.92704809429E+00 -0.30146750633E+02  0.12755067715E+03  0.90073076855E+02 0.  0.
         24    2    1    2    0    0 -0.11316898339E+02 -0.17583303321E+00 -0.23616784578E+03  0.24979159298E+03  0.80575960676E+02 0.  0.
        -11    1    4    4    0    0  0.16419619498E+01  0.20346589447E+02 -0.10749151657E+02  0.23069980549E+02  0.00000000000E+00 0.  1.
         12    1    4    4    0    0 -0.12958860288E+02 -0.20522422480E+02 -0.22541869412E+03  0.22672161243E+03  0.00000000000E+00 0. -1.
        -13    1    3    3    0    0  0.36695823019E+02  0.44055137063E+02 -0.19741476682E+02  0.60639627557E+02  0.00000000000E+00 0.  1.
         13    1    3    3    0    0  0.48429555550E+02 -0.44982185157E+02 -0.10405273951E+02  0.66911049598E+02  0.00000000000E+00 0. -1.
          1    1    1    2  501    0 -0.73808480230E+02  0.11028811275E+01 -0.32111299941E+03  0.32948818870E+03  0.00000000000E+00 0. -1.
<scales pt_clust_5="13000.00000" pt_clust_6="13000.00000" pt_clust_7="13000.00000" pt_clust_8="13000.00000" pt_clust_9="13000.00000"></scales>
<clustering>
<clus scale="   80.576">  5  6 -1 -1</clus>
<clus scale="   73.817">  5  9 -1 -1</clus>
<clus scale="   90.073">  7  8 -1 -1</clus>
<clus scale="  123.937">  1  7  2 -1</clus>
<clus scale="  158.124">  2  5  1 -1</clus>
</clustering>
</event>
<event>
 9    2  0.3726337E-005  0.2854873E+03  0.7546771E-02  0.1104024E+00
         21   -1    0    0  501  502  0.00000000000E+00  0.00000000000E+00  0.14486243146E+03  0.14486243146E+03  0.00000000000E+00 0. -1.
          2   -1    0    0  502    0 -0.00000000000E+00 -0.00000000000E+00 -0.49322185332E+03  0.49322185332E+03  0.00000000000E+00 0. -1.
         23    2    1    2    0    0 -0.15023480834E+03  0.11918460607E+03 -0.37552900034E+02  0.21606097135E+03  0.92177302404E+02 0.  0.
         24    2    1    2    0    0  0.52255619796E+02  0.31602904390E+02 -0.14563559650E+03  0.17785486898E+03  0.81812187866E+02 0.  0.
        -13    1    4    4    0    0  0.72331543144E+02  0.21202456735E+02 -0.13031314269E+03  0.15054205878E+03  0.00000000000E+00 0.  1.
         14    1    4    4    0    0 -0.20075923348E+02  0.10400447655E+02 -0.15322453812E+02  0.27312810191E+02  0.00000000000E+00 0. -1.
        -11    1    3    3    0    0 -0.18563748774E+02  0.20137690407E+02  0.27598744505E+02  0.38882258702E+02  0.00000000000E+00 0.  1.
         11    1    3    3    0    0 -0.13167105957E+03  0.99046915663E+02 -0.65151644539E+02  0.17717871265E+03  0.00000000000E+00 0. -1.
          1    1    1    2  501    0  0.97979188546E+02 -0.15078751046E+03 -0.16517092532E+03  0.24416844446E+03  0.00000000000E+00 0. -1.
<scales pt_clust_5="13000.00000" pt_clust_6="13000.00000" pt_clust_7="13000.00000" pt_clust_8="13000.00000" pt_clust_9="13000.00000"></scales>
<clustering>
<clus scale="   81.812">  5  6 -1 -1</clus>
<clus scale="   92.177">  7  8 -1 -1</clus>
<clus scale="  179.824">  5  9 -1 -1</clus>
<clus scale="  212.773">  2  7  1 -1</clus>
<clus scale="  285.487">  1  5  2 -1</clus>
</clustering>
</event>
<event>
 9    2  0.3726337E-005  0.5973763E+03  0.7546771E-02  0.1046404E+00
         -1   -1    0    0    0  501 -0.00000000000E+00  0.00000000000E+00  0.55319800796E+03  0.55319800796E+03  0.00000000000E+00 0.  1.
         21   -1    0    0  501  502  0.00000000000E+00 -0.00000000000E+00 -0.22947515469E+03  0.22947515469E+03  0.00000000000E+00 0.  1.
         23    2    1    2    0    0 -0.64113248708E+02  0.48733888287E+01  0.22282764545E+02  0.11355096384E+03  0.90901271793E+02 0.  0.
         24    2    1    2    0    0  0.32601404258E+02  0.20765417457E+03  0.37899534537E+03  0.44070201718E+03  0.79985550953E+02 0.  0.
        -13    1    4    4    0    0  0.11480437637E+02  0.19373260055E+03  0.29610080921E+03  0.35403362860E+03  0.00000000000E+00 0.  1.
         14    1    4    4    0    0  0.21120966621E+02  0.13921574013E+02  0.82894536159E+02  0.86668388580E+02  0.00000000000E+00 0. -1.
        -11    1    3    3    0    0 -0.83940026035E+02 -0.94998981107E+01  0.71817676186E+01  0.84780621731E+02  0.00000000000E+00 0.  1.
         11    1    3    3    0    0  0.19826777327E+02  0.14373286939E+02  0.15100996927E+02  0.28770342104E+02  0.00000000000E+00 0. -1.
         -2    1    1    2    0  502  0.31511844451E+02 -0.21252756339E+03 -0.77555256642E+02  0.22842018163E+03  0.00000000000E+00 0.  1.
<scales pt_clust_5="13000.00000" pt_clust_6="13000.00000" pt_clust_7="13000.00000" pt_clust_8="13000.00000" pt_clust_9="13000.00000"></scales>
<clustering>
<clus scale="   79.986">  5  6 -1 -1</clus>
<clus scale="   90.901">  7  8 -1 -1</clus>
<clus scale="  111.343">  1  7  2 -1</clus>
<clus scale="  212.863">  5  9 -1 -1</clus>
<clus scale="  597.376">  2  5  1 -1</clus>
</clustering>
</event>
<event>
 9    2  0.3726337E-005  0.1647225E+03  0.7546771E-02  0.1184152E+00
          2   -1    0    0  502    0 -0.00000000000E+00  0.00000000000E+00  0.28272610716E+03  0.28272610716E+03  0.00000000000E+00 0. -1.
         21   -1    0    0  501  502  0.00000000000E+00 -0.00000000000E+00 -0.13967106468E+03  0.13967106468E+03  0.00000000000E+00 0. -1.
         23    2    1    2    0    0  0.12319485739E+03  0.54641801401E+02  0.19123795869E+03  0.25077232806E+03  0.90289004471E+02 0.  0.
         24    2    1    2    0    0 -0.90406050327E+02 -0.37116924934E+02 -0.49161521064E+02  0.13443365085E+03  0.78132139836E+02 0.  0.
        -13    1    4    4    0    0 -0.37612289281E+02 -0.23307785043E+02  0.18110603439E+02  0.47811411876E+02  0.00000000000E+00 0.  1.
         14    1    4    4    0    0 -0.52793761045E+02 -0.13809139891E+02 -0.67272124503E+02  0.86622238975E+02  0.00000000000E+00 0. -1.
        -11    1    3    3    0    0  0.27982592341E+02  0.60669679741E+02  0.79583623107E+02  0.10391048350E+03  0.00000000000E+00 0.  1.
         11    1    3    3    0    0  0.95212265052E+02 -0.60278783406E+01  0.11165433559E+03  0.14686184456E+03  0.00000000000E+00 0. -1.
          1    1    1    2  501    0 -0.32788807066E+02 -0.17524876467E+02  0.97860485095E+00  0.37191192928E+02  0.00000000000E+00 0. -1.
<scales pt_clust_5="13000.00000" pt_clust_6="13000.00000" pt_clust_7="13000.00000" pt_clust_8="13000.00000" pt_clust_9="13000.00000"></scales>
<clustering>
<clus scale="   78.132">  5  6 -1 -1</clus>
<clus scale="   37.178">  5  9 -1 -1</clus>
<clus scale="   90.289">  7  8 -1 -1</clus>
<clus scale="  162.218">  1  7  2 -1</clus>
<clus scale="  164.722">  2  5  1 -1</clus>
</clustering>
</event>
<event>
 9    2  0.3726337E-005  0.5600943E+03  0.7546771E-02  0.1053517E+00
          2   -1    0    0  502    0 -0.00000000000E+00  0.00000000000E+00  0.36225573613E+03  0.36225573613E+03  0.00000000000E+00 0. -1.
         21   -1    0    0  501  502  0.00000000000E+00 -0.00000000000E+00 -0.40713361657E+03  0.40713361657E+03  0.00000000000E+00 0. -1.
         23    2    1    2    0    0 -0.26987547509E+02 -0.55045951938E+02  0.14123156163E+03  0.17918401558E+03  0.91663367234E+02 0.  0.
         24    2    1    2    0    0 -0.36048550232E+01 -0.23500484887E+03 -0.79707372208E+01  0.24844700100E+03  0.80138041407E+02 0.  0.
        -11    1    4    4    0    0  0.27173304032E+02 -0.29646845069E+02  0.42264538191E+01  0.40437442877E+02  0.00000000000E+00 0.  1.
         12    1    4    4    0    0 -0.30778159055E+02 -0.20535800380E+03 -0.12197191040E+02  0.20800955812E+03  0.00000000000E+00 0. -1.
        -11    1    3    3    0    0 -0.50253360597E+02 -0.46986962485E+02  0.50963231029E+02  0.85617905906E+02  0.00000000000E+00 0.  1.
         11    1    3    3    0    0  0.23265813088E+02 -0.80589894529E+01  0.90268330598E+02  0.93566109669E+02  0.00000000000E+00 0. -1.
          1    1    1    2  501    0  0.30592402532E+02  0.29005080081E+03 -0.17813870484E+03  0.34175833612E+03  0.00000000000E+00 0. -1.
<scales pt_clust_5="13000.00000" pt_clust_6="13000.00000" pt_clust_7="13000.00000" pt_clust_8="13000.00000" pt_clust_9="13000.00000"></scales>
<clustering>
<clus scale="   80.138">  5  6 -1 -1</clus>
<clus scale="   91.663">  7  8 -1 -1</clus>
<clus scale="  110.275">  1  7  2 -1</clus>
<clus scale="  268.484">  5  9 -1 -1</clus>
<clus scale="  560.094">  2  5  1 -1</clus>
</clustering>
</event>
<event>
 9    2  0.3726337E-005  0.2379575E+03  0.7546771E-02  0.1137148E+00
          2   -1    0    0  502    0 -0.00000000000E+00  0.00000000000E+00  0.56502677577E+03  0.56502677577E+03  0.00000000000E+00 0. -1.
         21   -1    0    0  501  502  0.00000000000E+00 -0.00000000000E+00 -0.81783630735E+02  0.81783630735E+02  0.00000000000E+00 0. -1.
         23    2    1    2    0    0  0.53884793489E+02 -0.12074491227E+03  0.81999102541E+02  0.18031220451E+03  0.91135796872E+02 0.  0.
         24    2    1    2    0    0  0.43902052504E+02  0.31335584083E+02  0.10230324550E+03  0.13950906560E+03  0.78022537120E+02 0.  0.
        -13    1    4    4    0    0  0.35794063565E+02  0.61158078750E+01  0.10665112248E+03  0.11266357006E+03  0.00000000000E+00 0.  1.
         14    1    4    4    0    0  0.81079889389E+01  0.25219776208E+02 -0.43478769707E+01  0.26845495540E+02  0.00000000000E+00 0. -1.
        -13    1    3    3    0    0 -0.18536589764E+02 -0.68879343290E+02  0.32227543633E+02  0.78272496196E+02  0.00000000000E+00 0.  1.
         13    1    3    3    0    0  0.72421383253E+02 -0.51865568977E+02  0.49771558908E+02  0.10203970832E+03  0.00000000000E+00 0. -1.
          1    1    1    2  501    0 -0.97786845993E+02  0.89409328184E+02  0.29894079699E+03  0.32698913639E+03  0.00000000000E+00 0. -1.
<scales pt_clust_5="13000.00000" pt_clust_6="13000.00000" pt_clust_7="13000.00000" pt_clust_8="13000.00000" pt_clust_9="13000.00000"></scales>
<clustering>
<clus scale="   78.023">  5  6 -1 -1</clus>
<clus scale="   91.136">  7  8 -1 -1</clus>
<clus scale="  132.500">  5  9 -1 -1</clus>
<clus scale="  160.588">  1  7  2 -1</clus>
<clus scale="  237.958">  2  5  1 -1</clus>
</clustering>
</event>
<event>
 9    2  0.3726337E-005  0.3716250E+03  0.7546771E-02  0.1097731E+00
         21   -1    0    0  501  502  0.00000000000E+00  0.00000000000E+00  0.70364213865E+03  0.70364213865E+03  0.00000000000E+00 0. -1.
          4   -1    0    0  502    0 -0.00000000000E+00 -0.00000000000E+00 -0.90204162842E+02  0.90204162842E+02  0.00000000000E+00 0. -1.
         23    2    1    2    0    0  0.55153908295E+01  0.55912676063E+02  0.63433339048E+02  0.13006154150E+03  0.98668988006E+02 0.  0.
         24    2    1    2    0    0 -0.72946755095E+01  0.96827255971E+02  0.40736170961E+02  0.13210156207E+03  0.79766266605E+02 0.  0.
        -13    1    4    4    0    0 -0.29844789637E+02  0.71862227401E+01  0.22054104549E+02  0.37798634806E+02  0.00000000000E+00 0.  1.
         14    1    4    4    0    0  0.22550114127E+02  0.89641033231E+02  0.18682066412E+02  0.94302927268E+02  0.00000000000E+00 0. -1.
        -13    1    3    3    0    0 -0.17734330181E+02  0.14233250095E+02 -0.22357268573E+02  0.31889486250E+02  0.00000000000E+00 0. -1.
         13    1    3    3    0    0  0.23249721010E+02  0.41679425967E+02  0.85790607621E+02  0.98172055250E+02  0.00000000000E+00 0.  1.
          3    1    1    2  501    0  0.17792846800E+01 -0.15273993203E+03  0.50926846580E+03  0.53168319792E+03  0.00000000000E+00 0. -1.
<scales pt_clust_5="13000.00000" pt_clust_6="13000.00000" pt_clust_7="13000.00000" pt_clust_8="13000.00000" pt_clust_9="13000.00000"></scales>
<clustering>
<clus scale="   79.766">  5  6 -1 -1</clus>
<clus scale="   98.669">  7  8 -1 -1</clus>
<clus scale="  113.544">  2  7  1 -1</clus>
<clus scale="  141.754">  5  9 -1 -1</clus>
<clus scale="  371.625">  1  5  2 -1</clus>
</clustering>
</event>
<event>
 9    2  0.3726337E-005  0.5028202E+03  0.7546771E-02  0.1052979E+00
         21   -1    0    0  501  502  0.00000000000E+00  0.00000000000E+00  0.20508353986E+03  0.20508353986E+03  0.00000000000E+00 0. -1.
          2   -1    0    0  502    0 -0.00000000000E+00 -0.00000000000E+00 -0.54608195510E+03  0.54608195510E+03  0.00000000000E+00 0. -1.
         23    2    1    2    0    0 -0.67870096829E+02 -0.10127170897E+03 -0.14318435720E+03  0.21083358461E+03  0.95324347204E+02 0.  0.
         24    2    1    2    0    0  0.23069436890E+03  0.19459136613E+03 -0.11843472799E+03  0.33656395403E+03  0.90348319004E+02 0.  0.
        -11    1    4    4    0    0  0.11052281741E+03  0.48124133589E+02 -0.75711694804E+02  0.14234987226E+03  0.00000000000E+00 0.  1.
         12    1    4    4    0    0  0.12017155149E+03  0.14646723254E+03 -0.42723033184E+02  0.19421408177E+03  0.00000000000E+00 0. -1.
        -13    1    3    3    0    0 -0.69630631426E+02 -0.41844171443E+02 -0.12422688696E+03  0.14843072108E+03  0.00000000000E+00 0.  1.
         13    1    3    3    0    0  0.17605345972E+01 -0.59427537529E+02 -0.18957470247E+02  0.62402863532E+02  0.00000000000E+00 0. -1.
          1    1    1    2  501    0 -0.16282427207E+03 -0.93319657154E+02 -0.79379330046E+02  0.20376795633E+03  0.00000000000E+00 0. -1.
<scales pt_clust_5="13000.00000" pt_clust_6="13000.00000" pt_clust_7="13000.00000" pt_clust_8="13000.00000" pt_clust_9="13000.00000"></scales>
<clustering>
<clus scale="   90.348">  5  6 -1 -1</clus>
<clus scale="   95.324">  7  8 -1 -1</clus>
<clus scale="  154.755">  2  7  1 -1</clus>
<clus scale="  230.512">  5  9 -1 -1</clus>
<clus scale="  502.820">  1  5  2 -1</clus>
</clustering>
</event>
<event>
 9    2  0.3726337E-005  0.1142697E+03  0.7546771E-02  0.1264191E+00
         -1   -1    0    0    0  501 -0.00000000000E+00  0.00000000000E+00  0.36436392395E+03  0.36436392395E+03  0.00000000000E+00 0.  1.
         21   -1    0    0  501  502  0.00000000000E+00 -0.00000000000E+00 -0.80029645425E+02  0.80029645425E+02  0.00000000000E+00 0.  1.
         23    2    1    2    0    0  0.57782742554E+01  0.66675212289E+01  0.31342206744E+03  0.32647972473E+03  0.90982273053E+02 0.  0.
         24    2    1    2    0    0  0.91580705761E+01  0.13907870404E+02 -0.21927717131E+01  0.80903263885E+02  0.79140575836E+02 0.  0.
        -13    1    4    4    0    0  0.38787873893E+02  0.26886384227E+02  0.58897599848E+01  0.47561182603E+02  0.00000000000E+00 0.  1.
         14    1    4    4    0    0 -0.29629803316E+02 -0.12978513823E+02 -0.80825316979E+01  0.33342081283E+02  0.00000000000E+00 0. -1.
        -11    1    3    3    0    0 -0.21360866240E+02 -0.32486984911E+02  0.90071898753E+02  0.98105238087E+02  0.00000000000E+00 0. -1.
         11    1    3    3    0    0  0.27139140495E+02  0.39154506139E+02  0.22335016869E+03  0.22837448665E+03  0.00000000000E+00 0.  1.
         -2    1    1    2    0  502 -0.14936344831E+02 -0.20575391633E+02 -0.26895017202E+02  0.37010580759E+02  0.00000000000E+00 0.  1.
<scales pt_clust_5="13000.00000" pt_clust_6="13000.00000" pt_clust_7="13000.00000" pt_clust_8="13000.00000" pt_clust_9="13000.00000"></scales>
<clustering>
<clus scale="   79.141">  5  6 -1 -1</clus>
<clus scale="   25.425">  5  9 -1 -1</clus>
<clus scale="   90.982">  7  8 -1 -1</clus>
<clus scale="   91.409">  1  7  2 -1</clus>
<clus scale="  114.270">  2  5  1 -1</clus>
</clustering>
</event>
<event>
 9    2  0.3726337E-005  0.1750906E+03  0.7546771E-02  0.1186146E+00
         21   -1    0    0  501  502  0.00000000000E+00  0.00000000000E+00  0.12538449305E+03  0.12538449305E+03  0.00000000000E+00 0.  1.
         -1   -1    0    0    0  501 -0.00000000000E+00 -0.00000000000E+00 -0.21750954413E+03  0.21750954413E+03  0.00000000000E+00 0.  1.
         23    2    1    2    0    0 -0.64633648159E+02  0.65442953908E+02 -0.10618467445E+03  0.16723988603E+03  0.90739769127E+02 0.  0.
         24    2    1    2    0    0  0.91781095924E+02 -0.55924787805E+02  0.36789646233E+02  0.13899036322E+03  0.80084277728E+02 0.  0.
        -11    1    4    4    0    0  0.92988092726E+02 -0.43721220485E+02  0.55374107733E+02  0.11672455747E+03  0.00000000000E+00 0.  1.
         12    1    4    4    0    0 -0.12069968015E+01 -0.12203567320E+02 -0.18584461500E+02  0.22265805754E+02  0.00000000000E+00 0. -1.
        -11    1    3    3    0    0 -0.36562725549E+02 -0.12510968925E+02 -0.92781621258E+01  0.39742188358E+02  0.00000000000E+00 0. -1.
         11    1    3    3    0    0 -0.28070922610E+02  0.77953922833E+02 -0.96906512323E+02  0.12749769767E+03  0.00000000000E+00 0.  1.
         -2    1    1    2    0  502 -0.27147447765E+02 -0.95181661036E+01 -0.22730022859E+02  0.36663787929E+02  0.00000000000E+00 0.  1.
<scales pt_clust_5="13000.00000" pt_clust_6="13000.00000" pt_clust_7="13000.00000" pt_clust_8="13000.00000" pt_clust_9="13000.00000"></scales>
<clustering>
<clus scale="   80.084">  5  6 -1 -1</clus>
<clus scale="   28.768">  5  9 -1 -1</clus>
<clus scale="   90.740">  7  8 -1 -1</clus>
<clus scale="  129.205">  2  7  1 -1</clus>
<clus scale="  175.091">  1  5  2 -1</clus>
</clustering>
</event>
<event>
 9    2  0.3726337E-005  0.1418300E+03  0.7546771E-02  0.1227082E+00
         21   -1    0    0  501  502  0.00000000000E+00  0.00000000000E+00  0.31617921041E+03  0.31617921041E+03  0.00000000000E+00 0. -1.
          2   -1    0    0  502    0 -0.00000000000E+00 -0.00000000000E+00 -0.53929866304E+02  0.53929866304E+02  0.00000000000E+00 0. -1.
         23    2    1    2    0    0 -0.10695432288E+02 -0.44761613230E+02  0.44551710936E+02  0.11028602513E+03  0.89778383262E+02 0.  0.
         24    2    1    2    0    0  0.22213449235E+01  0.56885820485E+01  0.20081425018E+03  0.21642304532E+03  0.80469106675E+02 0.  0.
        -11    1    4    4    0    0  0.13918308161E+02 -0.22918387582E+02  0.21235119238E+02  0.34203831371E+02  0.00000000000E+00 0.  1.
         12    1    4    4    0    0 -0.11696963237E+02  0.28606969630E+02  0.17957913095E+03  0.18221921395E+03  0.00000000000E+00 0. -1.
        -11    1    3    3    0    0 -0.37910062238E+02 -0.18075139384E+02  0.56447029194E+02  0.70357306567E+02  0.00000000000E+00 0.  1.
         11    1    3    3    0    0  0.27214629950E+02 -0.26686473846E+02 -0.11895318258E+02  0.39928718564E+02  0.00000000000E+00 0. -1.
          1    1    1    2  501    0  0.84740873645E+01  0.39073031181E+02  0.16883382982E+02  0.43400006259E+02  0.00000000000E+00 0. -1.
<scales pt_clust_5="13000.00000" pt_clust_6="13000.00000" pt_clust_7="13000.00000" pt_clust_8="13000.00000" pt_clust_9="13000.00000"></scales>
<clustering>
<clus scale="   80.469">  5  6 -1 -1</clus>
<clus scale="   39.981">  5  9 -1 -1</clus>
<clus scale="   89.778">  7  8 -1 -1</clus>
<clus scale="  100.887">  2  7  1 -1</clus>
<clus scale="  141.830">  1  5  2 -1</clus>
</clustering>
</event>
<event>
 9    2  0.3726337E-005  0.2224494E+03  0.7546771E-02  0.1152183E+00
          2   -1    0    0  502    0 -0.00000000000E+00  0.00000000000E+00  0.14450177272E+03  0.14450177272E+03  0.00000000000E+00 0. -1.
         21   -1    0    0  501  502  0.00000000000E+00 -0.00000000000E+00 -0.23794325762E+03  0.23794325762E+03  0.00000000000E+00 0. -1.
         23    2    1    2    0    0  0.65647335744E+02  0.64095097523E+02 -0.81726178053E+02  0.15968737683E+03  0.10199576424E+03 0.  0.
         24    2    1    2    0    0  0.18554891046E+02  0.13953162712E+02  0.44868791815E+02  0.94760363923E+02  0.80170713858E+02 0.  0.
        -11    1    4    4    0    0 -0.16822984932E+02  0.36747197403E+02  0.29170719528E+02  0.49842754908E+02  0.00000000000E+00 0.  1.
         12    1    4    4    0    0  0.35377875978E+02 -0.22794034691E+02  0.15698072287E+02  0.44917609016E+02  0.00000000000E+00 0. -1.
        -13    1    3    3    0    0  0.34786018343E+02  0.80031883441E+02 -0.88513351414E+02  0.12429715531E+03  0.00000000000E+00 0. -1.
         13    1    3    3    0    0  0.30861317401E+02 -0.15936785918E+02  0.67871733606E+01  0.35390221522E+02  0.00000000000E+00 0.  1.
          1    1    1    2  501    0 -0.84202226790E+02 -0.78048260235E+02 -0.56584098659E+02  0.12799728959E+03  0.00000000000E+00 0. -1.
<scales pt_clust_5="13000.00000" pt_clust_6="13000.00000" pt_clust_7="13000.00000" pt_clust_8="13000.00000" pt_clust_9="13000.00000"></scales>
<clustering>
<clus scale="   80.171">  5  6 -1 -1</clus>
<clus scale="  101.996">  7  8 -1 -1</clus>
<clus scale="  114.811">  5  9 -1 -1</clus>
<clus scale="  137.189">  1  7  2 -1</clus>
<clus scale="  222.449">  2  5  1 -1</clus>
</clustering>
</event>
<event>
 9    2  0.3726337E-005  0.1022800E+04  0.7546771E-02  0.9896601E-01
          2   -1    0    0  502    0 -0.00000000000E+00  0.00000000000E+00  0.18814658608E+04  0.18814658608E+04  0.00000000000E+00 0. -1.
         21   -1    0    0  501  502  0.00000000000E+00 -0.00000000000E+00 -0.21553441105E+03  0.21553441105E+03  0.00000000000E+00 0. -1.
         23    2    1    2    0    0 -0.53000594097E+02 -0.64110005013E+02  0.62636534145E+03  0.63863888075E+03  0.92773505516E+02 0.  0.
         24    2    1    2    0    0 -0.34017548203E+03  0.20769060000E+03  0.84397480277E+02  0.41550477484E+03  0.81648878357E+02 0.  0.
        -13    1    4    4    0    0 -0.51593549596E+02  0.65625868359E+02  0.33023142074E+02  0.89772918356E+02  0.00000000000E+00 0.  1.
         14    1    4    4    0    0 -0.28858193244E+03  0.14206473164E+03  0.51374338203E+02  0.32573185649E+03  0.00000000000E+00 0. -1.
        -11    1    3    3    0    0  0.11036401708E+02 -0.57944440679E+02  0.25419272573E+03  0.26094693365E+03  0.00000000000E+00 0. -1.
         11    1    3    3    0    0 -0.64036995805E+02 -0.61655643337E+01  0.37217261572E+03  0.37769194710E+03  0.00000000000E+00 0.  1.
          1    1    1    2  501    0  0.39317607613E+03 -0.14358059498E+03  0.95516862798E+03  0.10428566162E+04  0.00000000000E+00 0. -1.
<scales pt_clust_5="13000.00000" pt_clust_6="13000.00000" pt_clust_7="13000.00000" pt_clust_8="13000.00000" pt_clust_9="13000.00000"></scales>
<clustering>
<clus scale="   81.649">  5  6 -1 -1</clus>
<clus scale="   92.774">  7  8 -1 -1</clus>
<clus scale="  124.604">  1  7  2 -1</clus>
<clus scale="  401.272">  5  9 -1 -1</clus>
<clus scale=" 1022.800">  2  5  1 -1</clus>
</clustering>
</event>
<event>
 9    2  0.3726337E-005  0.5099008E+03  0.7546771E-02  0.1051677E+00
          2   -1    0    0  502    0 -0.00000000000E+00  0.00000000000E+00  0.17876604392E+04  0.17876604392E+04  0.00000000000E+00 0. -1.
         21   -1    0    0  501  502  0.00000000000E+00 -0.00000000000E+00 -0.77915999604E+02  0.77915999604E+02  0.00000000000E+00 0. -1.
         23    2    1    2    0    0 -0.25889589447E+02 -0.12088025155E+03  0.86708951691E+03  0.88065706458E+03  0.91816823074E+02 0.  0.
         24    2    1    2    0    0 -0.18075778130E+03  0.15846795268E+03  0.65919651885E+03  0.70604134167E+03  0.78542078864E+02 0.  0.
        -13    1    4    4    0    0 -0.20489639122E+02  0.55924731268E+02  0.20823198095E+03  0.21658245259E+03  0.00000000000E+00 0.  1.
         14    1    4    4    0    0 -0.16026814218E+03  0.10254322141E+03  0.45096453790E+03  0.48945888908E+03  0.00000000000E+00 0. -1.
        -13    1    3    3    0    0  0.18400436698E+02 -0.10551784882E+03  0.60244544876E+03  0.61189305538E+03  0.00000000000E+00 0. -1.
         13    1    3    3    0    0 -0.44290026145E+02 -0.15362402735E+02  0.26464406815E+03  0.26876400920E+03  0.00000000000E+00 0.  1.
          1    1    1    2  501    0  0.20664737075E+03 -0.37587701123E+02  0.18345840387E+03  0.27887803260E+03  0.00000000000E+00 0. -1.
<scales pt_clust_5="13000.00000" pt_clust_6="13000.00000" pt_clust_7="13000.00000" pt_clust_8="13000.00000" pt_clust_9="13000.00000"></scales>
<clustering>
<clus scale="   78.542">  5  6 -1 -1</clus>
<clus scale="   91.817">  7  8 -1 -1</clus>
<clus scale="  153.989">  1  7  2 -1</clus>
<clus scale="  211.391">  5  9 -1 -1</clus>
<clus scale="  509.901">  2  5  1 -1</clus>
</clustering>
</event>
<event>
 9    2  0.3726337E-005  0.3483181E+03  0.7546771E-02  0.1080248E+00
          2   -1    0    0  502    0 -0.00000000000E+00  0.00000000000E+00  0.49714151481E+03  0.49714151481E+03  0.00000000000E+00 0. -1.
         21   -1    0    0  501  502  0.00000000000E+00 -0.00000000000E+00 -0.19528185190E+03  0.19528185190E+03  0.00000000000E+00 0. -1.
         23    2    1    2    0    0 -0.31808565337E+02 -0.19679840557E+03 -0.17570288502E+02  0.21981254763E+03  0.90925484831E+02 0.  0.
         24    2    1    2    0    0  0.86521605853E+02  0.10141400521E+03  0.24053672496E+02  0.15743016171E+03  0.80217753170E+02 0.  0.
        -11    1    4    4    0    0  0.27092482210E+02  0.19144231513E+02  0.42874681279E+02  0.54210169593E+02  0.00000000000E+00 0.  1.
         12    1    4    4    0    0  0.59429123643E+02  0.82269773700E+02 -0.18821008783E+02  0.10321999212E+03  0.00000000000E+00 0. -1.
        -13    1    3    3    0    0 -0.41655042549E+02 -0.46289075206E+02 -0.28707807463E+02  0.68570833906E+02  0.00000000000E+00 0.  1.
         13    1    3    3    0    0  0.98464772125E+01 -0.15050933037E+03  0.11137518961E+02  0.15124171372E+03  0.00000000000E+00 0. -1.
          1    1    1    2  501    0 -0.54713040516E+02  0.95384400361E+02  0.29537627892E+03  0.31518065737E+03  0.00000000000E+00 0. -1.
<scales pt_clust_5="13000.00000" pt_clust_6="13000.00000" pt_clust_7="13000.00000" pt_clust_8="13000.00000" pt_clust_9="13000.00000"></scales>
<clustering>
<clus scale="   80.218">  5  6 -1 -1</clus>
<clus scale="   90.925">  7  8 -1 -1</clus>
<clus scale="  109.962">  5  9 -1 -1</clus>
<clus scale="  219.109">  1  7  2 -1</clus>
<clus scale="  348.318">  2  5  1 -1</clus>
</clustering>
</event>
<event>
 9    2  0.3726337E-005  0.4508119E+03  0.7546771E-02  0.1076045E+00
          2   -1    0    0  502    0 -0.00000000000E+00  0.00000000000E+00  0.50643025982E+03  0.50643025982E+03  0.00000000000E+00 0. -1.
         21   -1    0    0  501  502  0.00000000000E+00 -0.00000000000E+00 -0.26655771525E+03  0.26655771525E+03  0.00000000000E+00 0. -1.
         23    2    1    2    0    0  0.58628241091E+02 -0.24692916194E+02  0.29767901400E+03  0.31848502047E+03  0.93663771669E+02 0.  0.
         24    2    1    2    0    0 -0.11489304939E+03  0.18340701059E+03 -0.13733670354E+03  0.26827473292E+03  0.79192284027E+02 0.  0.
        -13    1    4    4    0    0 -0.36858204552E+02  0.33110686586E+02  0.10776724252E+01  0.49558109194E+02  0.00000000000E+00 0.  1.
         14    1    4    4    0    0 -0.78034844843E+02  0.15029632400E+03 -0.13841437597E+03  0.21871662372E+03  0.00000000000E+00 0. -1.
        -13    1    3    3    0    0  0.34901642716E+02 -0.49292870717E+02  0.92456596496E+02  0.11043610824E+03  0.00000000000E+00 0.  1.
         13    1    3    3    0    0  0.23726598375E+02  0.24599954522E+02  0.20522241751E+03  0.20804891223E+03  0.00000000000E+00 0. -1.
          1    1    1    2  501    0  0.56264808303E+02 -0.15871409440E+03  0.79530234108E+02  0.18622822168E+03  0.00000000000E+00 0. -1.
<scales pt_clust_5="13000.00000" pt_clust_6="13000.00000" pt_clust_7="13000.00000" pt_clust_8="13000.00000" pt_clust_9="13000.00000"></scales>
<clustering>
<clus scale="   79.192">  5  6 -1 -1</clus>
<clus scale="   93.664">  7  8 -1 -1</clus>
<clus scale="  113.225">  1  7  2 -1</clus>
<clus scale="  199.607">  5  9 -1 -1</clus>
<clus scale="  450.812">  2  5  1 -1</clus>
</clustering>
</event>
<event>
 9    2  0.3726337E-005  0.1306785E+03  0.7546771E-02  0.1239438E+00
         21   -1    0    0  501  502  0.00000000000E+00  0.00000000000E+00  0.25561052859E+03  0.25561052859E+03  0.00000000000E+00 0. -1.
         -3   -1    0    0    0  501 -0.00000000000E+00 -0.00000000000E+00 -0.57383472370E+02  0.57383472370E+02  0.00000000000E+00 0.  1.
         23    2    1    2    0    0 -0.31517142800E+02  0.23418947792E+02  0.13438816173E+03  0.16755579205E+03  0.92048835025E+02 0.  0.
         24    2    1    2    0    0  0.45114778987E+01 -0.48183380443E+02  0.46068252112E+02  0.10471501170E+03  0.80628520003E+02 0.  0.
        -13    1    4    4    0    0  0.30604491346E+02 -0.29851086008E+02 -0.64874351133E+01  0.43241288611E+02  0.00000000000E+00 0.  1.
         14    1    4    4    0    0 -0.26093013448E+02 -0.18332294435E+02  0.52555687226E+02  0.61473723084E+02  0.00000000000E+00 0. -1.
        -11    1    3    3    0    0 -0.13204335424E+02 -0.35307574427E+02  0.40679003895E+02  0.55459540602E+02  0.00000000000E+00 0. -1.
         11    1    3    3    0    0 -0.18312807376E+02  0.58726522219E+02  0.93709157834E+02  0.11209625144E+03  0.00000000000E+00 0.  1.
         -4    1    1    2    0  502  0.27005664902E+02  0.24764432651E+02  0.17770642384E+02  0.40723197223E+02  0.00000000000E+00 0.  1.
<scales pt_clust_5="13000.00000" pt_clust_6="13000.00000" pt_clust_7="13000.00000" pt_clust_8="13000.00000" pt_clust_9="13000.00000"></scales>
<clustering>
<clus scale="   80.629">  5  6 -1 -1</clus>
<clus scale="   36.641">  5  9 -1 -1</clus>
<clus scale="   92.049">  7  8 -1 -1</clus>
<clus scale="  100.074">  2  7  1 -1</clus>
<clus scale="  130.678">  1  5  2 -1</clus>
</clustering>
</event>
<event>
 9    2  0.3726337E-005  0.1471889E+03  0.7546771E-02  0.1220101E+00
         21   -1    0    0  501  502  0.00000000000E+00  0.00000000000E+00  0.29184649828E+02  0.29184649828E+02  0.00000000000E+00 0. -1.
         -1   -1    0    0    0  501 -0.00000000000E+00 -0.00000000000E+00 -0.54327804205E+03  0.54327804205E+03  0.00000000000E+00 0.  1.
         23    2    1    2    0    0 -0.31138537321E+02  0.41446636570E+02 -0.22535752105E+03  0.24837479255E+03  0.90645425107E+02 0.  0.
         24    2    1    2    0    0  0.23394080820E+02  0.13322465170E+02 -0.13135891679E+03  0.15727322106E+03  0.82188380860E+02 0.  0.
        -11    1    4    4    0    0  0.39006154660E+02 -0.17646164509E+02 -0.36452485110E+02  0.56228559415E+02  0.00000000000E+00 0.  1.
         12    1    4    4    0    0 -0.15612073840E+02  0.30968629678E+02 -0.94906431679E+02  0.10104466165E+03  0.00000000000E+00 0. -1.
        -13    1    3    3    0    0 -0.57085601820E+02  0.93598866812E+01 -0.91063532073E+02  0.10788392043E+03  0.00000000000E+00 0. -1.
         13    1    3    3    0    0  0.25947064500E+02  0.32086749889E+02 -0.13429398898E+03  0.14049087212E+03  0.00000000000E+00 0.  1.
         -2    1    1    2    0  502  0.77444565002E+01 -0.54769101740E+02 -0.15737695439E+03  0.16681467826E+03  0.00000000000E+00 0.  1.
<scales pt_clust_5="13000.00000" pt_clust_6="13000.00000" pt_clust_7="13000.00000" pt_clust_8="13000.00000" pt_clust_9="13000.00000"></scales>
<clustering>
<clus scale="   82.188">  5  6 -1 -1</clus>
<clus scale="   55.314">  5  9 -1 -1</clus>
<clus scale="   90.645">  7  8 -1 -1</clus>
<clus scale="  104.422">  2  7  1 -1</clus>
<clus scale="  147.189">  1  5  2 -1</clus>
</clustering>
</event>
<event>
 9    2  0.3726337E-005  0.2287826E+03  0.7546771E-02  0.1148881E+00
         -1   -1    0    0    0  501 -0.00000000000E+00  0.00000000000E+00  0.80881273623E+03  0.80881273623E+03  0.00000000000E+00 0.  1.
         21   -1    0    0  501  502  0.00000000000E+00 -0.00000000000E+00 -0.42190786885E+02  0.42190786885E+02  0.00000000000E+00 0.  1.
         23    2    1    2    0    0  0.92290887797E+02 -0.41849059807E+02  0.35130541841E+03  0.37684182947E+03  0.91243167734E+02 0.  0.
         24    2    1    2    0    0 -0.11970559515E+03 -0.31964929920E+01  0.38912801475E+03  0.41528464900E+03  0.81860129206E+02 0.  0.
        -11    1    4    4    0    0 -0.12794440685E+03  0.82476093947E+01  0.31991335264E+03  0.34464815029E+03  0.00000000000E+00 0.  1.
         12    1    4    4    0    0  0.82388117066E+01 -0.11444102387E+02  0.69214662110E+02  0.70636498702E+02  0.00000000000E+00 0. -1.
        -11    1    3    3    0    0  0.59013358132E+02 -0.47698254170E+02  0.32576947011E+03  0.33448983175E+03  0.00000000000E+00 0. -1.
         11    1    3    3    0    0  0.33277529665E+02  0.58491943625E+01  0.25535948299E+02  0.42351997719E+02  0.00000000000E+00 0.  1.
         -2    1    1    2    0  502  0.27414707351E+02  0.45045552799E+02  0.26188516186E+02  0.58877044645E+02  0.00000000000E+00 0.  1.
<scales pt_clust_5="13000.00000" pt_clust_6="13000.00000" pt_clust_7="13000.00000" pt_clust_8="13000.00000" pt_clust_9="13000.00000"></scales>
<clustering>
<clus scale="   81.860">  5  6 -1 -1</clus>
<clus scale="   52.732">  5  9 -1 -1</clus>
<clus scale="   91.243">  7  8 -1 -1</clus>
<clus scale="  136.361">  1  7  2 -1</clus>
<clus scale="  228.783">  2  5  1 -1</clus>
</clustering>
</event>
<event>
 9    2  0.3726337E-005  0.1692744E+03  0.7546771E-02  0.1206234E+00
         -3   -1    0    0    0  501 -0.00000000000E+00  0.00000000000E+00  0.19188556571E+03  0.19188556571E+03  0.00000000000E+00 0.  1.
         21   -1    0    0  501  502  0.00000000000E+00 -0.00000000000E+00 -0.92677558413E+02  0.92677558413E+02  0.00000000000E+00 0.  1.
         23    2    1    2    0    0 -0.63895046365E+01 -0.48696598447E+01  0.86006712492E+01  0.92564367167E+02  0.91813131776E+02 0.  0.
         24    2    1    2    0    0  0.29296152200E+02  0.34390016055E+02  0.11534702933E+03  0.14718560758E+03  0.79484137812E+02 0.  0.
        -13    1    4    4    0    0  0.16456814682E+02  0.59965721248E+02  0.86694673760E+02  0.10668964773E+03  0.00000000000E+00 0.  1.
         14    1    4    4    0    0  0.12839337517E+02 -0.25575705193E+02  0.28652355573E+02  0.40495959847E+02  0.00000000000E+00 0. -1.
        -13    1    3    3    0    0 -0.33256352966E+02 -0.21907848404E+02  0.33598938539E+02  0.52104006614E+02  0.00000000000E+00 0. -1.
         13    1    3    3    0    0  0.26866848330E+02  0.17038188559E+02 -0.24998267290E+02  0.40460360553E+02  0.00000000000E+00 0.  1.
         -4    1    1    2    0  502 -0.22906647563E+02 -0.29520356210E+02 -0.24739693286E+02  0.44813149379E+02  0.00000000000E+00 0.  1.
<scales pt_clust_5="13000.00000" pt_clust_6="13000.00000" pt_clust_7="13000.00000" pt_clust_8="13000.00000" pt_clust_9="13000.00000"></scales>
<clustering>
<clus scale="   79.484">  5  6 -1 -1</clus>
<clus scale="   37.365">  5  9 -1 -1</clus>
<clus scale="   91.813">  7  8 -1 -1</clus>
<clus scale="   92.164">  1  7  2 -1</clus>
<clus scale="  169.274">  2  5  1 -1</clus>
</clustering>
</event>
<event>
 9    2  0.3726337E-005  0.1657310E+03  0.7546771E-02  0.1199949E+00
         21   -1    0    0  501  502  0.00000000000E+00  0.00000000000E+00  0.72765680198E+02  0.72765680198E+02  0.00000000000E+00 0. -1.
          2   -1    0    0  502    0 -0.00000000000E+00 -0.00000000000E+00 -0.46768228631E+03  0.46768228631E+03  0.00000000000E+00 0. -1.
         23    2    1    2    0    0 -0.29020991199E+02 -0.59621505304E+02 -0.35159264037E+03  0.36914780757E+03  0.90861307774E+02 0.  0.
         24    2    1    2    0    0 -0.11364092964E+02  0.10640381868E+01 -0.56059499718E+02  0.99035881430E+02  0.80840358211E+02 0.  0.
        -13    1    4    4    0    0  0.29930074201E+02  0.20020772244E+02 -0.21396458584E+02  0.41886144522E+02  0.00000000000E+00 0.  1.
         14    1    4    4    0    0 -0.41294167166E+02 -0.18956734057E+02 -0.34663041134E+02  0.57149736908E+02  0.00000000000E+00 0. -1.
        -13    1    3    3    0    0 -0.31840187007E+02  0.47653245683E+01 -0.42009090263E+02  0.52927020430E+02  0.00000000000E+00 0.  1.
         13    1    3    3    0    0  0.28191958077E+01 -0.64386829872E+02 -0.30958355011E+03  0.31622078714E+03  0.00000000000E+00 0. -1.
          1    1    1    2  501    0  0.40385084163E+02  0.58557467117E+02  0.12735533972E+02  0.72264277507E+02  0.00000000000E+00 0. -1.
<scales pt_clust_5="13000.00000" pt_clust_6="13000.00000" pt_clust_7="13000.00000" pt_clust_8="13000.00000" pt_clust_9="13000.00000"></scales>
<clustering>
<clus scale="   80.840">  5  6 -1 -1</clus>
<clus scale="   71.133">  5  9 -1 -1</clus>
<clus scale="   90.861">  7  8 -1 -1</clus>
<clus scale="  112.484">  2  7  1 -1</clus>
<clus scale="  165.731">  1  5  2 -1</clus>
</clustering>
</event>
<event>
 9    2  0.3726337E-005  0.3205181E+03  0.7546771E-02  0.1121494E+00
         21   -1    0    0  501  502  0.00000000000E+00  0.00000000000E+00  0.19720044627E+03  0.19720044627E+03  0.00000000000E+00 0.  1.
         -3   -1    0    0    0  501 -0.00000000000E+00 -0.00000000000E+00 -0.49211836241E+03  0.49211836241E+03  0.00000000000E+00 0.  1.
         23    2    1    2    0    0 -0.26220701117E+02  0.27131879171E+02 -0.35090277760E+03  0.36394802577E+03  0.88891743705E+02 0.  0.
         24    2    1    2    0    0 -0.16054061838E+02  0.91111347233E+02 -0.75028251189E+02  0.14389612391E+03  0.80733174737E+02 0.  0.
        -13    1    4    4    0    0 -0.50726902589E+01  0.10113757708E+03 -0.79079819434E+02  0.12848408277E+03  0.00000000000E+00 0.  1.
         14    1    4    4    0    0 -0.10981371579E+02 -0.10026229848E+02  0.40515682447E+01  0.15412041135E+02  0.00000000000E+00 0. -1.
        -11    1    3    3    0    0 -0.26262569207E+02  0.54550833516E+02 -0.30080842015E+03  0.30684071049E+03  0.00000000000E+00 0.  1.
         11    1    3    3    0    0  0.41868090369E-01 -0.27418954346E+02 -0.50094357447E+02  0.57107315279E+02  0.00000000000E+00 0. -1.
         -4    1    1    2    0  502  0.42274762955E+02 -0.11824322640E+03  0.13101311265E+03  0.18147465900E+03  0.00000000000E+00 0.  1.
<scales pt_clust_5="13000.00000" pt_clust_6="13000.00000" pt_clust_7="13000.00000" pt_clust_8="13000.00000" pt_clust_9="13000.00000"></scales>
<clustering>
<clus scale="   80.733">  5  6 -1 -1</clus>
<clus scale="   88.892">  7  8 -1 -1</clus>
<clus scale="   96.568">  2  7  1 -1</clus>
<clus scale="  119.170">  5  9 -1 -1</clus>
<clus scale="  320.518">  1  5  2 -1</clus>
</clustering>
</event>
<event>
 9    2  0.3726337E-005  0.3444959E+03  0.7546771E-02  0.1098144E+00
         21   -1    0    0  501  502  0.00000000000E+00  0.00000000000E+00  0.77421189952E+02  0.77421189952E+02  0.00000000000E+00 0.  1.
         -3   -1    0    0    0  501 -0.00000000000E+00 -0.00000000000E+00 -0.78111513250E+03  0.78111513250E+03  0.00000000000E+00 0.  1.
         23    2    1    2    0    0 -0.23615657792E+02 -0.10229841642E+03 -0.14567573358E+03  0.20274536730E+03  0.94136068065E+02 0.  0.
         24    2    1    2    0    0  0.83948111963E+02 -0.14654353405E+02 -0.44330897433E+02  0.12551498038E+03  0.80788280435E+02 0.  0.
        -11    1    4    4    0    0  0.72581210716E+02  0.24512137372E+02 -0.27478492883E+02  0.81387619443E+02  0.00000000000E+00 0.  1.
         12    1    4    4    0    0  0.11366901247E+02 -0.39166490777E+02 -0.16852404550E+02  0.44127360932E+02  0.00000000000E+00 0. -1.
        -13    1    3    3    0    0  0.33650684293E+02 -0.39153168188E+02 -0.79661195211E+02  0.94927578474E+02  0.00000000000E+00 0. -1.
         13    1    3    3    0    0 -0.57266342086E+02 -0.63145248235E+02 -0.66014538369E+02  0.10781778882E+03  0.00000000000E+00 0.  1.
         -4    1    1    2    0  502 -0.60332454170E+02  0.11695276983E+03 -0.51368731153E+03  0.53027597478E+03  0.00000000000E+00 0.  1.
<scales pt_clust_5="13000.00000" pt_clust_6="13000.00000" pt_clust_7="13000.00000" pt_clust_8="13000.00000" pt_clust_9="13000.00000"></scales>
<clustering>
<clus scale="   80.788">  5  6 -1 -1</clus>
<clus scale="   94.136">  7  8 -1 -1</clus>
<clus scale="  131.598">  5  9 -1 -1</clus>
<clus scale="  141.012">  2  7  1 -1</clus>
<clus scale="  344.496">  1  5  2 -1</clus>
</clustering>
</event>
<event>
 9    2  0.5303207E-005  0.5375384E+03  0.7546771E-02  0.1048403E+00
          2   -1    0    0  502    0 -0.00000000000E+00  0.00000000000E+00  0.49921146582E+03  0.49921146582E+03  0.00000000000E+00 0. -1.
         21   -1    0    0  501  502  0.00000000000E+00 -0.00000000000E+00 -0.38307283321E+03  0.38307283321E+03  0.00000000000E+00 0. -1.
         23    2    1    2    0    0  0.10427998559E+03  0.36381240129E+02  0.28449296399E+03  0.31899869074E+03  0.92876305425E+02 0.  0.
         24    2    1    2    0    0  0.99046240810E+02  0.16549221544E+01  0.14115918092E+03  0.19101296859E+03  0.82140996009E+02 0.  0.
        -11    1    4    4    0    0  0.62282549437E+02  0.16434765184E+02  0.13672931372E+03  0.15114272295E+03  0.00000000000E+00 0.  1.
         12    1    4    4    0    0  0.36763691373E+02 -0.14779843029E+02  0.44298671923E+01  0.39870245631E+02  0.00000000000E+00 0. -1.
        -13    1    3    3    0    0  0.79640967640E+02  0.31275937293E+02  0.28082503354E+03  0.29357037903E+03  0.00000000000E+00 0. -1.
         13    1    3    3    0    0  0.24639017955E+02  0.51053028355E+01  0.36679304439E+01  0.25428311713E+02  0.00000000000E+00 0.  1.
          1    1    1    2  501    0 -0.20332622641E+03 -0.38036162283E+02 -0.30951351228E+03  0.37227263970E+03  0.00000000000E+00 0. -1.
<scales pt_clust_5="13000.00000" pt_clust_6="13000.00000" pt_clust_7="13000.00000" pt_clust_8="13000.00000" pt_clust_9="13000.00000"></scales>
<clustering>
<clus scale="   82.141">  5  6 -1 -1</clus>
<clus scale="   92.876">  7  8 -1 -1</clus>
<clus scale="  144.305">  1  7  2 -1</clus>
<clus scale="  189.520">  5  9 -1 -1</clus>
<clus scale="  537.538">  2  5  1 -1</clus>
</clustering>
</event>
<event>
 9    2  0.3726337E-005  0.1423217E+03  0.7546771E-02  0.1227176E+00
         -1   -1    0    0    0  501 -0.00000000000E+00  0.00000000000E+00  0.13002803589E+03  0.13002803589E+03  0.00000000000E+00 0.  1.
         21   -1    0    0  501  502  0.00000000000E+00 -0.00000000000E+00 -0.11257358826E+03  0.11257358826E+03  0.00000000000E+00 0.  1.
         23    2    1    2    0    0 -0.29520227554E+02  0.36789947673E+02  0.71878491244E+01  0.99910109168E+02  0.87780525484E+02 0.  0.
         24    2    1    2    0    0  0.17867215338E+02 -0.20158926485E+02 -0.40232105944E+02  0.88262637435E+02  0.73797365246E+02 0.  0.
        -11    1    4    4    0    0 -0.71900537484E+01 -0.43230815101E+02 -0.28318005852E+02  0.52177674370E+02  0.00000000000E+00 0.  1.
         12    1    4    4    0    0  0.25057269087E+02  0.23071888616E+02 -0.11914100092E+02  0.36084963065E+02  0.00000000000E+00 0. -1.
        -13    1    3    3    0    0 -0.56755742157E+02  0.43013289123E+02  0.96500910395E+01  0.71864327493E+02  0.00000000000E+00 0.  1.
         13    1    3    3    0    0  0.27235514603E+02 -0.62233414500E+01 -0.24622419151E+01  0.28045781675E+02  0.00000000000E+00 0. -1.
         -2    1    1    2    0  502  0.11653012215E+02 -0.16631021188E+02  0.50498704454E+02  0.54428877546E+02  0.00000000000E+00 0.  1.
<scales pt_clust_5="13000.00000" pt_clust_6="13000.00000" pt_clust_7="13000.00000" pt_clust_8="13000.00000" pt_clust_9="13000.00000"></scales>
<clustering>
<clus scale="   73.797">  5  6 -1 -1</clus>
<clus scale="   20.307">  5  9 -1 -1</clus>
<clus scale="   87.781">  7  8 -1 -1</clus>
<clus scale="   99.651">  1  7  2 -1</clus>
<clus scale="  142.322">  2  5  1 -1</clus>
</clustering>
</event>
<event>
 9    2  0.3726337E-005  0.4562318E+03  0.7546771E-02  0.1063558E+00
         21   -1    0    0  501  502  0.00000000000E+00  0.00000000000E+00  0.13870971622E+03  0.13870971622E+03  0.00000000000E+00 0. -1.
          2   -1    0    0  502    0 -0.00000000000E+00 -0.00000000000E+00 -0.74008593834E+03  0.74008593834E+03  0.00000000000E+00 0. -1.
         23    2    1    2    0    0 -0.93739558605E+02  0.82699682246E+02 -0.47252788126E+02  0.16102113559E+03  0.89825596732E+02 0.  0.
         24    2    1    2    0    0 -0.14410597488E+03 -0.80164711956E+02 -0.38400264647E+03  0.42533990026E+03  0.79139656410E+02 0.  0.
        -11    1    4    4    0    0 -0.36026660808E+02  0.14311361632E+02 -0.68330382287E+02  0.78560654937E+02  0.00000000000E+00 0.  1.
         12    1    4    4    0    0 -0.10807931407E+03 -0.94476073588E+02 -0.31567226419E+03  0.34677924533E+03  0.00000000000E+00 0. -1.
        -13    1    3    3    0    0 -0.86999788094E+02  0.42380834640E+02  0.22778996249E+01  0.96800243284E+02  0.00000000000E+00 0. -1.
         13    1    3    3    0    0 -0.67397705115E+01  0.40318847607E+02 -0.49530687751E+02  0.64220892301E+02  0.00000000000E+00 0.  1.
          1    1    1    2  501    0  0.23784553349E+03 -0.25349702907E+01 -0.17012078753E+03  0.29243461871E+03  0.00000000000E+00 0. -1.
<scales pt_clust_5="13000.00000" pt_clust_6="13000.00000" pt_clust_7="13000.00000" pt_clust_8="13000.00000" pt_clust_9="13000.00000"></scales>
<clustering>
<clus scale="   79.140">  5  6 -1 -1</clus>
<clus scale="   89.826">  7  8 -1 -1</clus>
<clus scale="  153.932">  2  7  1 -1</clus>
<clus scale="  205.608">  5  9 -1 -1</clus>
<clus scale="  456.232">  1  5  2 -1</clus>
</clustering>
</event>
<event>
 9    2  0.3726337E-005  0.2914118E+03  0.7546771E-02  0.1134841E+00
         -1   -1    0    0    0  501 -0.00000000000E+00  0.00000000000E+00  0.30251786321E+03  0.30251786321E+03  0.00000000000E+00 0.  1.
         21   -1    0    0  501  502  0.00000000000E+00 -0.00000000000E+00 -0.16241761219E+03  0.16241761219E+03  0.00000000000E+00 0.  1.
         23    2    1    2    0    0  0.34861501423E+01 -0.26548206077E+01  0.14673943420E+03  0.17344803904E+03  0.92371853826E+02 0.  0.
         24    2    1    2    0    0 -0.89178711860E+02 -0.55628756503E+02  0.81398213346E+02  0.15550665212E+03  0.80679913969E+02 0.  0.
        -13    1    4    4    0    0 -0.37906994361E+02 -0.69654340379E+02  0.50711490995E+02  0.94129287015E+02  0.00000000000E+00 0.  1.
         14    1    4    4    0    0 -0.51271717499E+02  0.14025583876E+02  0.30686722351E+02  0.61377365103E+02  0.00000000000E+00 0. -1.
        -11    1    3    3    0    0  0.39142263403E+02  0.29458754780E+01  0.25160105714E+02  0.46624305745E+02  0.00000000000E+00 0. -1.
         11    1    3    3    0    0 -0.35656113261E+02 -0.56006960857E+01  0.12157932849E+03  0.12682373329E+03  0.00000000000E+00 0.  1.
         -2    1    1    2    0  502  0.85692561718E+02  0.58283577111E+02 -0.88037396530E+02  0.13598078424E+03  0.00000000000E+00 0.  1.
<scales pt_clust_5="13000.00000" pt_clust_6="13000.00000" pt_clust_7="13000.00000" pt_clust_8="13000.00000" pt_clust_9="13000.00000"></scales>
<clustering>
<clus scale="   80.680">  5  6 -1 -1</clus>
<clus scale="   92.372">  7  8 -1 -1</clus>
<clus scale="   92.476">  1  7  2 -1</clus>
<clus scale="  103.871">  5  9 -1 -1</clus>
<clus scale="  291.412">  2  5  1 -1</clus>
</clustering>
</event>
<event>
 9    2  0.3726337E-005  0.1586453E+03  0.7546771E-02  0.1216239E+00
         21   -1    0    0  501  502  0.00000000000E+00  0.00000000000E+00  0.23638882559E+02  0.23638882559E+02  0.00000000000E+00 0. -1.
          2   -1    0    0  502    0 -0.00000000000E+00 -0.00000000000E+00 -0.65903861963E+03  0.65903861963E+03  0.00000000000E+00 0. -1.
         23    2    1    2    0    0 -0.27865765008E+01 -0.98248909989E+01 -0.20982843938E+03  0.22849772862E+03  0.89882948981E+02 0.  0.
         24    2    1    2    0    0  0.44807001079E+01 -0.45445946399E+02 -0.33371354178E+03  0.34696231771E+03  0.83262904254E+02 0.  0.
        -11    1    4    4    0    0  0.21375246272E+02 -0.10512928398E+02 -0.20715976911E+02  0.31568568483E+02  0.00000000000E+00 0.  1.
         12    1    4    4    0    0 -0.16894546164E+02 -0.34933018001E+02 -0.31299756487E+03  0.31539374922E+03  0.00000000000E+00 0. -1.
        -11    1    3    3    0    0 -0.19853691981E+01  0.33347543761E+02 -0.34871177907E+02  0.48290779807E+02  0.00000000000E+00 0.  1.
         11    1    3    3    0    0 -0.80120730266E+00 -0.43172434760E+02 -0.17495726148E+03  0.18020694881E+03  0.00000000000E+00 0. -1.
          1    1    1    2  501    0 -0.16941236071E+01  0.55270837398E+02 -0.91857755916E+02  0.10721745587E+03  0.00000000000E+00 0. -1.
<scales pt_clust_5="13000.00000" pt_clust_6="13000.00000" pt_clust_7="13000.00000" pt_clust_8="13000.00000" pt_clust_9="13000.00000"></scales>
<clustering>
<clus scale="   83.263">  5  6 -1 -1</clus>
<clus scale="   55.297">  5  9 -1 -1</clus>
<clus scale="   89.883">  7  8 -1 -1</clus>
<clus scale="   90.461">  2  7  1 -1</clus>
<clus scale="  158.645">  1  5  2 -1</clus>
</clustering>
</event>
<event>
 9    2  0.3726337E-005  0.2266885E+03  0.7546771E-02  0.1150672E+00
          4   -1    0    0  502    0 -0.00000000000E+00  0.00000000000E+00  0.12295989264E+03  0.12295989264E+03  0.00000000000E+00 0. -1.
         21   -1    0    0  501  502  0.00000000000E+00 -0.00000000000E+00 -0.40002651878E+03  0.40002651878E+03  0.00000000000E+00 0. -1.
         23    2    1    2    0    0 -0.82415112351E+02  0.53291418291E+02  0.33524500137E+02  0.13846782981E+03  0.91745418279E+02 0.  0.
         24    2    1    2    0    0 -0.39008492667E+02  0.68653807248E+01 -0.95966110616E+02  0.13069496239E+03  0.79390697532E+02 0.  0.
        -11    1    4    4    0    0 -0.22587179321E+02 -0.32257987476E+02 -0.21188095220E+02  0.44717936052E+02  0.00000000000E+00 0.  1.
         12    1    4    4    0    0 -0.16421313346E+02  0.39123368201E+02 -0.74778015396E+02  0.85977026338E+02  0.00000000000E+00 0. -1.
        -11    1    3    3    0    0 -0.55601656275E+02 -0.17509939069E+02  0.19519044347E+02  0.61474671524E+02  0.00000000000E+00 0. -1.
         11    1    3    3    0    0 -0.26813456076E+02  0.70801357360E+02  0.14005455790E+02  0.76993158285E+02  0.00000000000E+00 0.  1.
          3    1    1    2  501    0  0.12142360502E+03 -0.60156799016E+02 -0.21462501567E+03  0.25382361922E+03  0.00000000000E+00 0. -1.
<scales pt_clust_5="13000.00000" pt_clust_6="13000.00000" pt_clust_7="13000.00000" pt_clust_8="13000.00000" pt_clust_9="13000.00000"></scales>
<clustering>
<clus scale="   79.391">  5  6 -1 -1</clus>
<clus scale="   91.745">  7  8 -1 -1</clus>
<clus scale="  134.348">  1  7  2 -1</clus>
<clus scale="   84.016">  5  9 -1 -1</clus>
<clus scale="  226.689">  2  5  1 -1</clus>
</clustering>
</event>
<event>
 9    2  0.3726337E-005  0.2504217E+03  0.7546771E-02  0.1147709E+00
         21   -1    0    0  501  502  0.00000000000E+00  0.00000000000E+00  0.85421446958E+03  0.85421446958E+03  0.00000000000E+00 0.  1.
         -3   -1    0    0    0  501 -0.00000000000E+00 -0.00000000000E+00 -0.49043420640E+02  0.49043420640E+02  0.00000000000E+00 0.  1.
         23    2    1    2    0    0 -0.46093862036E+02 -0.22505704946E+02  0.73035871232E+02  0.12947952473E+03  0.93805959115E+02 0.  0.
         24    2    1    2    0    0 -0.27987453533E+02  0.70244895326E+02  0.17287209244E+03  0.20761383979E+03  0.86608909785E+02 0.  0.
        -13    1    4    4    0    0 -0.26169353799E+02  0.10568925909E+02  0.40081694493E+01  0.28506186968E+02  0.00000000000E+00 0.  1.
         14    1    4    4    0    0 -0.18180997344E+01  0.59675969417E+02  0.16886392299E+03  0.17910765282E+03  0.00000000000E+00 0. -1.
        -11    1    3    3    0    0 -0.36007314731E+02  0.27307128776E+02  0.63229112781E+02  0.77718252034E+02  0.00000000000E+00 0.  1.
         11    1    3    3    0    0 -0.10086547305E+02 -0.49812833722E+02  0.98067584516E+01  0.51761272698E+02  0.00000000000E+00 0. -1.
         -4    1    1    2    0  502  0.74081315569E+02 -0.47739190380E+02  0.55926308527E+03  0.56616452570E+03  0.00000000000E+00 0.  1.
<scales pt_clust_5="13000.00000" pt_clust_6="13000.00000" pt_clust_7="13000.00000" pt_clust_8="13000.00000" pt_clust_9="13000.00000"></scales>
<clustering>
<clus scale="   86.609">  5  6 -1 -1</clus>
<clus scale="   88.131">  5  9 -1 -1</clus>
<clus scale="   93.806">  7  8 -1 -1</clus>
<clus scale="  106.914">  2  7  1 -1</clus>
<clus scale="  250.422">  1  5  2 -1</clus>
</clustering>
</event>
<event>
 9    2  0.3726337E-005  0.3721141E+03  0.7546771E-02  0.1091768E+00
         -1   -1    0    0    0  501 -0.00000000000E+00  0.00000000000E+00  0.27300063601E+03  0.27300063601E+03  0.00000000000E+00 0.  1.
         21   -1    0    0  501  502  0.00000000000E+00 -0.00000000000E+00 -0.23562102807E+03  0.23562102807E+03  0.00000000000E+00 0. -1.
         23    2    1    2    0    0 -0.93830721795E+02  0.18936778307E+02 -0.14061809838E+02  0.13296878289E+03  0.91214893528E+02 0.  0.
         24    2    1    2    0    0 -0.10600822005E+03 -0.45226567374E+02 -0.50699445862E+02  0.14968936266E+03  0.80952370985E+02 0.  0.
        -11    1    4    4    0    0  0.17790806911E+01 -0.28007362092E+02  0.26627821172E+01  0.28189853992E+02  0.00000000000E+00 0.  1.
         12    1    4    4    0    0 -0.10778730074E+03 -0.17219205282E+02 -0.53362227979E+02  0.12149950867E+03  0.00000000000E+00 0. -1.
        -13    1    3    3    0    0 -0.80625265299E+02  0.35465088196E+02  0.22336594512E+02  0.90868747872E+02  0.00000000000E+00 0.  1.
         13    1    3    3    0    0 -0.13205456495E+02 -0.16528309889E+02 -0.36398404350E+02  0.42100035015E+02  0.00000000000E+00 0. -1.
         -2    1    1    2    0  502  0.19983894185E+03  0.26289789067E+02  0.10214086364E+03  0.22596351854E+03  0.00000000000E+00 0.  1.
<scales pt_clust_5="13000.00000" pt_clust_6="13000.00000" pt_clust_7="13000.00000" pt_clust_8="13000.00000" pt_clust_9="13000.00000"></scales>
<clustering>
<clus scale="   80.952">  5  6 -1 -1</clus>
<clus scale="   91.215">  7  8 -1 -1</clus>
<clus scale="  132.223">  1  7  2 -1</clus>
<clus scale="  134.124">  5  9 -1 -1</clus>
<clus scale="  372.114">  2  5  1 -1</clus>
</clustering>
</event>
<event>
 9    2  0.3726337E-005  0.2207940E+03  0.7546771E-02  0.1161512E+00
         21   -1    0    0  501  502  0.00000000000E+00  0.00000000000E+00  0.21435279054E+03  0.21435279054E+03  0.00000000000E+00 0. -1.
          2   -1    0    0  502    0 -0.00000000000E+00 -0.00000000000E+00 -0.13526817954E+03  0.13526817954E+03  0.00000000000E+00 0. -1.
         23    2    1    2    0    0  0.44306135493E+02 -0.44513378576E+02 -0.61628279797E+01  0.11294161385E+03  0.93666179471E+02 0.  0.
         24    2    1    2    0    0 -0.21360161739E+02  0.95931357331E+01 -0.48196622324E+02  0.96846389558E+02  0.80672324897E+02 0.  0.
        -13    1    4    4    0    0  0.15284221416E+02  0.35558996777E+02 -0.26948577647E+02  0.47162225491E+02  0.00000000000E+00 0.  1.
         14    1    4    4    0    0 -0.36644383154E+02 -0.25965861043E+02 -0.21248044678E+02  0.49684164068E+02  0.00000000000E+00 0. -1.
        -11    1    3    3    0    0  0.25593018309E+02  0.27736154098E+02 -0.65667787687E+01  0.38306910782E+02  0.00000000000E+00 0.  1.
         11    1    3    3    0    0  0.18713117184E+02 -0.72249532674E+02  0.40395078900E+00  0.74634703071E+02  0.00000000000E+00 0. -1.
          1    1    1    2  501    0 -0.22945973754E+02  0.34920242843E+02  0.13344406130E+03  0.13983296667E+03  0.00000000000E+00 0. -1.
<scales pt_clust_5="13000.00000" pt_clust_6="13000.00000" pt_clust_7="13000.00000" pt_clust_8="13000.00000" pt_clust_9="13000.00000"></scales>
<clustering>
<clus scale="   80.672">  5  6 -1 -1</clus>
<clus scale="   41.784">  5  9 -1 -1</clus>
<clus scale="   93.666">  7  8 -1 -1</clus>
<clus scale="  112.773">  2  7  1 -1</clus>
<clus scale="  220.794">  1  5  2 -1</clus>
</clustering>
</event>
<event>
 9    2  0.3726337E-005  0.3292293E+03  0.7546771E-02  0.1112660E+00
         21   -1    0    0  501  502  0.00000000000E+00  0.00000000000E+00  0.28318115242E+03  0.28318115242E+03  0.00000000000E+00 0.  1.
          4   -1    0    0  502    0 -0.00000000000E+00 -0.00000000000E+00 -0.17573048295E+03  0.17573048295E+03  0.00000000000E+00 0. -1.
         23    2    1    2    0    0  0.54315860049E+02 -0.38108564841E+02  0.59599657702E+02  0.12622313103E+03  0.89317883096E+02 0.  0.
         24    2    1    2    0    0 -0.80559286470E+02 -0.76245747255E+02 -0.80513637377E+02  0.15878304360E+03  0.80164808490E+02 0.  0.
        -13    1    4    4    0    0  0.11004905014E+02 -0.29957836072E+02 -0.72979442286E+01  0.32738965568E+02  0.00000000000E+00 0.  1.
         14    1    4    4    0    0 -0.91564191484E+02 -0.46287911183E+02 -0.73215693149E+02  0.12604407803E+03  0.00000000000E+00 0. -1.
        -11    1    3    3    0    0  0.30438477727E+02  0.13281084862E+02 -0.11643990408E+02  0.35191911771E+02  0.00000000000E+00 0. -1.
         11    1    3    3    0    0  0.23877382322E+02 -0.51389649703E+02  0.71243648110E+02  0.91031219256E+02  0.00000000000E+00 0.  1.
          3    1    1    2  501    0  0.26243426421E+02  0.11435431210E+03  0.12836464915E+03  0.17390546074E+03  0.00000000000E+00 0. -1.
<scales pt_clust_5="13000.00000" pt_clust_6="13000.00000" pt_clust_7="13000.00000" pt_clust_8="13000.00000" pt_clust_9="13000.00000"></scales>
<clustering>
<clus scale="   80.165">  5  6 -1 -1</clus>
<clus scale="   89.318">  7  8 -1 -1</clus>
<clus scale="  111.266">  2  7  1 -1</clus>
<clus scale="  113.756">  5  9 -1 -1</clus>
<clus scale="  329.229">  1  5  2 -1</clus>
</clustering>
</event>
<event>
 9    2  0.3726337E-005  0.1219958E+03  0.7546771E-02  0.1243925E+00
         21   -1    0    0  501  502  0.00000000000E+00  0.00000000000E+00  0.66589276875E+02  0.66589276875E+02  0.00000000000E+00 0.  1.
         -1   -1    0    0    0  501 -0.00000000000E+00 -0.00000000000E+00 -0.28547152057E+03  0.28547152057E+03  0.00000000000E+00 0.  1.
         23    2    1    2    0    0  0.52054977352E+02  0.39201475967E+02 -0.19892769706E+03  0.22844383084E+03  0.91476110582E+02 0.  0.
         24    2    1    2    0    0 -0.27329294661E+02 -0.12793777599E+02 -0.74417780018E+01  0.85337790848E+02  0.79476961410E+02 0.  0.
        -11    1    4    4    0    0 -0.18401825858E+02 -0.98811695814E+01  0.35604644676E+02  0.41278995018E+02  0.00000000000E+00 0.  1.
         12    1    4    4    0    0 -0.89274688036E+01 -0.29126080177E+01 -0.43046422677E+02  0.44058795830E+02  0.00000000000E+00 0. -1.
        -11    1    3    3    0    0  0.42530404928E+02  0.67571018999E+02 -0.16433113426E+03  0.18270030005E+03  0.00000000000E+00 0.  1.
         11    1    3    3    0    0  0.95245724244E+01 -0.28369543032E+02 -0.34596562806E+02  0.45743530796E+02  0.00000000000E+00 0. -1.
         -2    1    1    2    0  502 -0.24725682691E+02 -0.26407698368E+02 -0.12512768635E+02  0.38279175755E+02  0.00000000000E+00 0.  1.
<scales pt_clust_5="13000.00000" pt_clust_6="13000.00000" pt_clust_7="13000.00000" pt_clust_8="13000.00000" pt_clust_9="13000.00000"></scales>
<clustering>
<clus scale="   79.477">  5  6 -1 -1</clus>
<clus scale="   36.176">  5  9 -1 -1</clus>
<clus scale="   91.476">  7  8 -1 -1</clus>
<clus scale="  112.314">  2  7  1 -1</clus>
<clus scale="  121.996">  1  5  2 -1</clus>
</clustering>
</event>
<event>
 9    2  0.3726337E-005  0.1235162E+04  0.7546771E-02  0.9559856E-01
          2   -1    0    0  502    0 -0.00000000000E+00  0.00000000000E+00  0.70171177505E+03  0.70171177505E+03  0.00000000000E+00 0. -1.
         21   -1    0    0  501  502  0.00000000000E+00 -0.00000000000E+00 -0.92244298519E+03  0.92244298519E+03  0.00000000000E+00 0. -1.
         23    2    1    2    0    0  0.15352483015E+03 -0.12449502506E+03  0.22320005136E+03  0.31163785060E+03  0.90724871241E+02 0.  0.
         24    2    1    2    0    0  0.41636376853E+03  0.28109434433E+03  0.89339034855E+02  0.51648074798E+03  0.79988009854E+02 0.  0.
        -13    1    4    4    0    0  0.36774735146E+02  0.48175684218E+02  0.28560924808E+02  0.67000030752E+02  0.00000000000E+00 0.  1.
         14    1    4    4    0    0  0.37958903338E+03  0.23291866012E+03  0.60778110047E+02  0.44948071722E+03  0.00000000000E+00 0. -1.
        -13    1    3    3    0    0  0.84708623865E+02 -0.73861606000E+02  0.18842102322E+03  0.21939364118E+03  0.00000000000E+00 0. -1.
         13    1    3    3    0    0  0.68816206286E+02 -0.50633419058E+02  0.34779028137E+02  0.92244209419E+02  0.00000000000E+00 0.  1.
          1    1    1    2  501    0 -0.56988859868E+03 -0.15659931928E+03 -0.53327029635E+03  0.79603616166E+03  0.00000000000E+00 0. -1.
<scales pt_clust_5="13000.00000" pt_clust_6="13000.00000" pt_clust_7="13000.00000" pt_clust_8="13000.00000" pt_clust_9="13000.00000"></scales>
<clustering>
<clus scale="   79.988">  5  6 -1 -1</clus>
<clus scale="   90.725">  7  8 -1 -1</clus>
<clus scale="  217.485">  1  7  2 -1</clus>
<clus scale="  558.329">  5  9 -1 -1</clus>
<clus scale=" 1235.162">  2  5  1 -1</clus>
</clustering>
</event>
<event>
 9    2  0.3726337E-005  0.2283371E+03  0.7546771E-02  0.1143278E+00
          2   -1    0    0  502    0 -0.00000000000E+00  0.00000000000E+00  0.72372591048E+02  0.72372591048E+02  0.00000000000E+00 0. -1.
         21   -1    0    0  501  502  0.00000000000E+00 -0.00000000000E+00 -0.52773619394E+03  0.52773619394E+03  0.00000000000E+00 0. -1.
         23    2    1    2    0    0  0.58987843948E+02  0.11359214834E+03 -0.13622329149E+03  0.20769528687E+03  0.90541731505E+02 0.  0.
         24    2    1    2    0    0 -0.15695031105E+02 -0.24982176136E+02 -0.38648609134E+02  0.95089449548E+02  0.81718084299E+02 0.  0.
        -13    1    4    4    0    0  0.29918174400E+02  0.72145999321E+01 -0.10160955376E+02  0.32409761273E+02  0.00000000000E+00 0.  1.
         14    1    4    4    0    0 -0.45613205505E+02 -0.32196776068E+02 -0.28487653758E+02  0.62679688275E+02  0.00000000000E+00 0. -1.
        -11    1    3    3    0    0  0.21021033154E+02 -0.45601690405E+01 -0.55825802604E+02  0.59826408992E+02  0.00000000000E+00 0.  1.
         11    1    3    3    0    0  0.37966810794E+02  0.11815231738E+03 -0.80397488883E+02  0.14786887787E+03  0.00000000000E+00 0. -1.
          1    1    1    2  501    0 -0.43292812843E+02 -0.88609972206E+02 -0.28049170227E+03  0.29732404857E+03  0.00000000000E+00 0. -1.
<scales pt_clust_5="13000.00000" pt_clust_6="13000.00000" pt_clust_7="13000.00000" pt_clust_8="13000.00000" pt_clust_9="13000.00000"></scales>
<clustering>
<clus scale="   81.718">  5  6 -1 -1</clus>
<clus scale="   90.542">  7  8 -1 -1</clus>
<clus scale="   98.621">  5  9 -1 -1</clus>
<clus scale="  156.782">  1  7  2 -1</clus>
<clus scale="  228.337">  2  5  1 -1</clus>
</clustering>
</event>
<event>
 9    2  0.3726337E-005  0.1551819E+03  0.7546771E-02  0.1214004E+00
          2   -1    0    0  502    0 -0.00000000000E+00  0.00000000000E+00  0.31796690297E+03  0.31796690297E+03  0.00000000000E+00 0. -1.
         21   -1    0    0  501  502  0.00000000000E+00 -0.00000000000E+00 -0.55136746629E+02  0.55136746629E+02  0.00000000000E+00 0. -1.
         23    2    1    2    0    0  0.28843642638E+02  0.33003310078E+02  0.60173259092E+02  0.11785626501E+03  0.91367958798E+02 0.  0.
         24    2    1    2    0    0  0.30346082116E+02 -0.39406706790E+02  0.11434777896E+03  0.14874420446E+03  0.81090385168E+02 0.  0.
        -13    1    4    4    0    0  0.20539132014E+02 -0.17914563753E+01  0.10726892373E+03  0.10923226290E+03  0.00000000000E+00 0.  1.
         14    1    4    4    0    0  0.98069501013E+01 -0.37615250415E+02  0.70788552259E+01  0.39511941554E+02  0.00000000000E+00 0. -1.
        -11    1    3    3    0    0 -0.12107873879E+02  0.52900002900E+02  0.22444489928E+02  0.58726195559E+02  0.00000000000E+00 0.  1.
         11    1    3    3    0    0  0.40951516517E+02 -0.19896692822E+02  0.37728769164E+02  0.59130069448E+02  0.00000000000E+00 0. -1.
          1    1    1    2  501    0 -0.59189724754E+02  0.64033967124E+01  0.88309118290E+02  0.10650318014E+03  0.00000000000E+00 0. -1.
<scales pt_clust_5="13000.00000" pt_clust_6="13000.00000" pt_clust_7="13000.00000" pt_clust_8="13000.00000" pt_clust_9="13000.00000"></scales>
<clustering>
<clus scale="   81.090">  5  6 -1 -1</clus>
<clus scale="   59.535">  5  9 -1 -1</clus>
<clus scale="   91.368">  7  8 -1 -1</clus>
<clus scale="  101.337">  1  7  2 -1</clus>
<clus scale="  155.182">  2  5  1 -1</clus>
</clustering>
</event>
<event>
 9    2  0.3726337E-005  0.4738476E+03  0.7546771E-02  0.1070041E+00
          2   -1    0    0  502    0 -0.00000000000E+00  0.00000000000E+00  0.35170388413E+03  0.35170388413E+03  0.00000000000E+00 0. -1.
         21   -1    0    0  501  502  0.00000000000E+00 -0.00000000000E+00 -0.29993219122E+03  0.29993219122E+03  0.00000000000E+00 0. -1.
         23    2    1    2    0    0  0.53370700959E+02  0.41871205063E+02  0.12768312801E+03  0.17174639901E+03  0.92694200784E+02 0.  0.
         24    2    1    2    0    0  0.98672460068E+02  0.13493825290E+03 -0.14755583083E+03  0.23593962678E+03  0.77137525255E+02 0.  0.
        -11    1    4    4    0    0  0.26907224075E+02 -0.44575416616E+01 -0.23780256820E+02  0.36185204152E+02  0.00000000000E+00 0.  1.
         12    1    4    4    0    0  0.71765235993E+02  0.13939579456E+03 -0.12377557401E+03  0.19975442263E+03  0.00000000000E+00 0. -1.
        -13    1    3    3    0    0  0.58436923279E+02 -0.85964168114E+01  0.93456818394E+02  0.11055744791E+03  0.00000000000E+00 0.  1.
         13    1    3    3    0    0 -0.50662223198E+01  0.50467621874E+02  0.34226309617E+02  0.61188951096E+02  0.00000000000E+00 0. -1.
          1    1    1    2  501    0 -0.15204316103E+03 -0.17680945797E+03  0.71644395730E+02  0.24395004956E+03  0.00000000000E+00 0. -1.
<scales pt_clust_5="13000.00000" pt_clust_6="13000.00000" pt_clust_7="13000.00000" pt_clust_8="13000.00000" pt_clust_9="13000.00000"></scales>
<clustering>
<clus scale="   77.138">  5  6 -1 -1</clus>
<clus scale="   92.694">  7  8 -1 -1</clus>
<clus scale="  114.864">  1  7  2 -1</clus>
<clus scale="  181.498">  5  9 -1 -1</clus>
<clus scale="  473.848">  2  5  1 -1</clus>
</clustering>
</event>
<event>
 9    2  0.3726337E-005  0.8346604E+03  0.7546771E-02  0.9756338E-01
         -1   -1    0    0    0  501 -0.00000000000E+00  0.00000000000E+00  0.23581444259E+03  0.23581444259E+03  0.00000000000E+00 0.  1.
         21   -1    0    0  501  502  0.00000000000E+00 -0.00000000000E+00 -0.15856267987E+04  0.15856267987E+04  0.00000000000E+00 0.  1.
         23    2    1    2    0    0  0.13428671090E+03  0.32331610783E+03 -0.24826712819E+03  0.43939206453E+03  0.94141346500E+02 0.  0.
         24    2    1    2    0    0 -0.37731269696E+03 -0.49757966152E+02 -0.85971654473E+03  0.94344138069E+03  0.78283938588E+02 0.  0.
        -11    1    4    4    0    0 -0.34270392736E+03 -0.26506214881E+02 -0.79888104021E+03  0.86968929950E+03  0.00000000000E+00 0.  1.
         12    1    4    4    0    0 -0.34608769603E+02 -0.23251751271E+02 -0.60835504516E+02  0.73752081193E+02  0.00000000000E+00 0. -1.
        -11    1    3    3    0    0  0.12783600839E+03  0.30105211532E+03 -0.19374399834E+03  0.38014623248E+03  0.00000000000E+00 0.  1.
         11    1    3    3    0    0  0.64507025123E+01  0.22263992510E+02 -0.54523129852E+02  0.59245832042E+02  0.00000000000E+00 0. -1.
         -2    1    1    2    0  502  0.24302598606E+03 -0.27355814168E+03 -0.24182868322E+03  0.43860779611E+03  0.00000000000E+00 0.  1.
<scales pt_clust_5="13000.00000" pt_clust_6="13000.00000" pt_clust_7="13000.00000" pt_clust_8="13000.00000" pt_clust_9="13000.00000"></scales>
<clustering>
<clus scale="   78.284">  5  6 -1 -1</clus>
<clus scale="   94.141">  7  8 -1 -1</clus>
<clus scale="  362.531">  1  7  2 -1</clus>
<clus scale="  340.455">  5  9 -1 -1</clus>
<clus scale="  834.660">  2  5  1 -1</clus>
</clustering>
</event>
<event>
 9    2  0.3726337E-005  0.9308548E+03  0.7546771E-02  0.1001018E+00
         21   -1    0    0  501  502  0.00000000000E+00  0.00000000000E+00  0.46474303599E+03  0.46474303599E+03  0.00000000000E+00 0. -1.
         -1   -1    0    0    0  501 -0.00000000000E+00 -0.00000000000E+00 -0.61235169553E+03  0.61235169553E+03  0.00000000000E+00 0.  1.
         23    2    1    2    0    0  0.32666772356E+02 -0.63930595402E+02  0.49919744024E+02  0.12551279489E+03  0.90040223192E+02 0.  0.
         24    2    1    2    0    0  0.43667451754E+03  0.27093072156E+02 -0.13105535220E+02  0.44596346002E+03  0.85398968302E+02 0.  0.
        -11    1    4    4    0    0  0.68911805787E+02  0.35375354845E+02 -0.99182577001E+01  0.78093690802E+02  0.00000000000E+00 0.  1.
         12    1    4    4    0    0  0.36776271176E+03 -0.82822826888E+01 -0.31872775196E+01  0.36786976922E+03  0.00000000000E+00 0. -1.
        -13    1    3    3    0    0  0.37895347135E+02 -0.13258920915E+02 -0.15118046071E+02  0.42900019059E+02  0.00000000000E+00 0. -1.
         13    1    3    3    0    0 -0.52285747787E+01 -0.50671674488E+02  0.65037790095E+02  0.82612775829E+02  0.00000000000E+00 0.  1.
         -2    1    1    2    0  502 -0.46934128990E+03  0.36837523246E+02 -0.18442286835E+03  0.50561847661E+03  0.00000000000E+00 0.  1.
<scales pt_clust_5="13000.00000" pt_clust_6="13000.00000" pt_clust_7="13000.00000" pt_clust_8="13000.00000" pt_clust_9="13000.00000"></scales>
<clustering>
<clus scale="   85.399">  5  6 -1 -1</clus>
<clus scale="   90.040">  7  8 -1 -1</clus>
<clus scale="  115.159">  2  7  1 -1</clus>
<clus scale="  449.728">  5  9 -1 -1</clus>
<clus scale="  930.855">  1  5  2 -1</clus>
</clustering>
</event>
<event>
 9    2  0.3726337E-005  0.1941417E+03  0.7546771E-02  0.1175654E+00
         21   -1    0    0  501  502  0.00000000000E+00  0.00000000000E+00  0.48841527990E+03  0.48841527990E+03  0.00000000000E+00 0.  1.
         -1   -1    0    0    0  501 -0.00000000000E+00 -0.00000000000E+00 -0.14973538570E+03  0.14973538570E+03  0.00000000000E+00 0.  1.
         23    2    1    2    0    0 -0.67860405077E+01  0.76802666260E+02 -0.10145659974E+03  0.15709856886E+03  0.91879371011E+02 0.  0.
         24    2    1    2    0    0 -0.24908483312E+02  0.24701642250E+02  0.19816842914E+03  0.21674883935E+03  0.80490554610E+02 0.  0.
        -11    1    4    4    0    0 -0.56835314531E+01  0.48960518717E+02  0.16101979822E+03  0.16839480497E+03  0.00000000000E+00 0.  1.
         12    1    4    4    0    0 -0.19224951859E+02 -0.24258876467E+02  0.37148630916E+02  0.48354034375E+02  0.00000000000E+00 0. -1.
        -11    1    3    3    0    0  0.19846749138E+02  0.59481709704E+02 -0.10779128797E+03  0.12470336404E+03  0.00000000000E+00 0.  1.
         11    1    3    3    0    0 -0.26632789646E+02  0.17320956556E+02  0.63346882325E+01  0.32395204820E+02  0.00000000000E+00 0. -1.
         -2    1    1    2    0  502  0.31694523819E+02 -0.10150430851E+03  0.24196806480E+03  0.26430325740E+03  0.00000000000E+00 0.  1.
<scales pt_clust_5="13000.00000" pt_clust_6="13000.00000" pt_clust_7="13000.00000" pt_clust_8="13000.00000" pt_clust_9="13000.00000"></scales>
<clustering>
<clus scale="   80.491">  5  6 -1 -1</clus>
<clus scale="   91.879">  7  8 -1 -1</clus>
<clus scale="  106.338">  5  9 -1 -1</clus>
<clus scale="  119.944">  2  7  1 -1</clus>
<clus scale="  194.142">  1  5  2 -1</clus>
</clustering>
</event>
<event>
 9    2  0.3726337E-005  0.2427155E+03  0.7546771E-02  0.1133924E+00
         21   -1    0    0  501  502  0.00000000000E+00  0.00000000000E+00  0.14630447951E+03  0.14630447951E+03  0.00000000000E+00 0. -1.
         -3   -1    0    0    0  501 -0.00000000000E+00 -0.00000000000E+00 -0.49487253168E+03  0.49487253168E+03  0.00000000000E+00 0.  1.
         23    2    1    2    0    0  0.12617121652E+03  0.24941938571E+02 -0.36283679210E+03  0.39804242980E+03  0.10122233961E+03 0.  0.
         24    2    1    2    0    0 -0.11776204282E+03 -0.51876831299E+01  0.87672156881E+02  0.16665578414E+03  0.78695187328E+02 0.  0.
        -11    1    4    4    0    0 -0.56853515236E+02 -0.11587915085E+02  0.88004993310E+02  0.10541100900E+03  0.00000000000E+00 0.  1.
         12    1    4    4    0    0 -0.60908527583E+02  0.64002319556E+01 -0.33283642953E+00  0.61244775137E+02  0.00000000000E+00 0. -1.
        -13    1    3    3    0    0  0.92209402915E+02 -0.12604748104E+02 -0.31473770078E+03  0.32820919237E+03  0.00000000000E+00 0.  1.
         13    1    3    3    0    0  0.33961813610E+02  0.37546686674E+02 -0.48099091320E+02  0.69833237428E+02  0.00000000000E+00 0. -1.
         -4    1    1    2    0  502 -0.84091737056E+01 -0.19754255441E+02 -0.73403416952E+02  0.76478797262E+02  0.00000000000E+00 0.  1.
<scales pt_clust_5="13000.00000" pt_clust_6="13000.00000" pt_clust_7="13000.00000" pt_clust_8="13000.00000" pt_clust_9="13000.00000"></scales>
<clustering>
<clus scale="   78.695">  5  6 -1 -1</clus>
<clus scale="   21.470">  5  9 -1 -1</clus>
<clus scale="  101.222">  7  8 -1 -1</clus>
<clus scale="  163.668">  2  7  1 -1</clus>
<clus scale="  242.716">  1  5  2 -1</clus>
</clustering>
</event>
<event>
 9    2  0.3726337E-005  0.1732216E+03  0.7546771E-02  0.1198785E+00
         21   -1    0    0  501  502  0.00000000000E+00  0.00000000000E+00  0.17237428227E+03  0.17237428227E+03  0.00000000000E+00 0.  1.
         -1   -1    0    0    0  501 -0.00000000000E+00 -0.00000000000E+00 -0.14017201844E+03  0.14017201844E+03  0.00000000000E+00 0.  1.
         23    2    1    2    0    0  0.32448368121E+02  0.20604991578E+02 -0.58770041484E+02  0.11688926246E+03  0.93443670894E+02 0.  0.
         24    2    1    2    0    0  0.36021108987E+01 -0.53133810210E+02  0.10814794568E+03  0.14415205111E+03  0.79042132411E+02 0.  0.
        -13    1    4    4    0    0  0.25960785230E+02 -0.47430206773E+02  0.10833264061E+03  0.12107661998E+03  0.00000000000E+00 0.  1.
         14    1    4    4    0    0 -0.22358674331E+02 -0.57036034378E+01 -0.18469492849E+00  0.23075431139E+02  0.00000000000E+00 0. -1.
        -13    1    3    3    0    0  0.55018924908E+02  0.23246892911E+02 -0.69600678556E+02  0.91715617991E+02  0.00000000000E+00 0.  1.
         13    1    3    3    0    0 -0.22570556787E+02 -0.26419013327E+01  0.10830637072E+02  0.25173644466E+02  0.00000000000E+00 0. -1.
         -2    1    1    2    0  502 -0.36050479020E+02  0.32528818632E+02 -0.17175640363E+02  0.51504987148E+02  0.00000000000E+00 0.  1.
<scales pt_clust_5="13000.00000" pt_clust_6="13000.00000" pt_clust_7="13000.00000" pt_clust_8="13000.00000" pt_clust_9="13000.00000"></scales>
<clustering>
<clus scale="   79.042">  5  6 -1 -1</clus>
<clus scale="   48.557">  5  9 -1 -1</clus>
<clus scale="   93.444">  7  8 -1 -1</clus>
<clus scale="  101.040">  2  7  1 -1</clus>
<clus scale="  173.222">  1  5  2 -1</clus>
</clustering>
</event>
<event>
 9    2  0.3726337E-005  0.3401695E+03  0.7546771E-02  0.1113944E+00
          2   -1    0    0  502    0 -0.00000000000E+00  0.00000000000E+00  0.64925389122E+02  0.64925389122E+02  0.00000000000E+00 0. -1.
         21   -1    0    0  501  502  0.00000000000E+00 -0.00000000000E+00 -0.76453086810E+03  0.76453086810E+03  0.00000000000E+00 0. -1.
         23    2    1    2    0    0  0.20869663975E+01  0.85706177655E+01 -0.98027004193E+02  0.13836151092E+03  0.97246096242E+02 0.  0.
         24    2    1    2    0    0  0.89187770050E+02 -0.11561356379E+03 -0.47074888130E+03  0.49898630730E+03  0.77858019279E+02 0.  0.
        -13    1    4    4    0    0  0.56626376943E+01 -0.22594318455E+02 -0.18411481939E+02  0.29690930590E+02  0.00000000000E+00 0.  1.
         14    1    4    4    0    0  0.83525132355E+02 -0.93019245333E+02 -0.45233739936E+03  0.46929537671E+03  0.00000000000E+00 0. -1.
        -13    1    3    3    0    0 -0.28934345384E+02 -0.28262442316E+02 -0.16517974589E+02  0.43689878382E+02  0.00000000000E+00 0.  1.
         13    1    3    3    0    0  0.31021311782E+02  0.36833060082E+02 -0.81509029605E+02  0.94671632535E+02  0.00000000000E+00 0. -1.
          1    1    1    2  501    0 -0.91274736447E+02  0.10704294602E+03 -0.13082959348E+03  0.19210843901E+03  0.00000000000E+00 0. -1.
<scales pt_clust_5="13000.00000" pt_clust_6="13000.00000" pt_clust_7="13000.00000" pt_clust_8="13000.00000" pt_clust_9="13000.00000"></scales>
<clustering>
<clus scale="   77.858">  5  6 -1 -1</clus>
<clus scale="   97.246">  7  8 -1 -1</clus>
<clus scale="   97.645">  1  7  2 -1</clus>
<clus scale="  144.295">  5  9 -1 -1</clus>
<clus scale="  340.169">  2  5  1 -1</clus>
</clustering>
</event>
<event>
 9    2  0.3726337E-005  0.1642266E+03  0.7546771E-02  0.1196021E+00
         21   -1    0    0  501  502  0.00000000000E+00  0.00000000000E+00  0.10476788136E+03  0.10476788136E+03  0.00000000000E+00 0.  1.
         -3   -1    0    0    0  501 -0.00000000000E+00 -0.00000000000E+00 -0.52171951319E+03  0.52171951319E+03  0.00000000000E+00 0.  1.
         23    2    1    2    0    0 -0.85564478974E+02  0.27671138102E+01  0.46927891376E+02  0.13439533785E+03  0.92363103374E+02 0.  0.
         24    2    1    2    0    0  0.81120384376E+02 -0.41729770104E+02 -0.33137270939E+03  0.35390416190E+03  0.84370568367E+02 0.  0.
        -11    1    4    4    0    0  0.79319477112E+02 -0.62005196922E+02 -0.23945073840E+03  0.25975542345E+03  0.00000000000E+00 0.  1.
         12    1    4    4    0    0  0.18009072637E+01  0.20275426817E+02 -0.91921970995E+02  0.94148738447E+02  0.00000000000E+00 0. -1.
        -13    1    3    3    0    0 -0.36365728520E+02  0.41246567292E+02  0.46375337630E+02  0.71933423834E+02  0.00000000000E+00 0.  1.
         13    1    3    3    0    0 -0.49198750454E+02 -0.38479453481E+02  0.55255374565E+00  0.62461914013E+02  0.00000000000E+00 0. -1.
         -4    1    1    2    0  502  0.44440945982E+01  0.38962656294E+02 -0.13250681382E+03  0.13818789480E+03  0.00000000000E+00 0.  1.
<scales pt_clust_5="13000.00000" pt_clust_6="13000.00000" pt_clust_7="13000.00000" pt_clust_8="13000.00000" pt_clust_9="13000.00000"></scales>
<clustering>
<clus scale="   84.371">  5  6 -1 -1</clus>
<clus scale="   39.215">  5  9 -1 -1</clus>
<clus scale="   92.363">  7  8 -1 -1</clus>
<clus scale="  125.936">  2  7  1 -1</clus>
<clus scale="  164.227">  1  5  2 -1</clus>
</clustering>
</event>
<event>
 9    2  0.3726337E-005  0.5822409E+03  0.7546771E-02  0.1000874E+00
          2   -1    0    0  502    0 -0.00000000000E+00  0.00000000000E+00  0.13160662937E+04  0.13160662937E+04  0.00000000000E+00 0. -1.
         21   -1    0    0  501  502  0.00000000000E+00 -0.00000000000E+00 -0.21975504808E+03  0.21975504808E+03  0.00000000000E+00 0. -1.
         23    2    1    2    0    0 -0.85654122303E+02 -0.45516857676E+03  0.64221551973E+03  0.79743971648E+03  0.94626981856E+02 0.  0.
         24    2    1    2    0    0  0.19955315369E+03  0.17455662493E+03  0.18761782424E+03  0.33498786118E+03  0.82005748058E+02 0.  0.
        -11    1    4    4    0    0  0.25574297262E+02  0.14633517286E+02  0.58980692095E+02  0.65931074226E+02  0.00000000000E+00 0.  1.
         12    1    4    4    0    0  0.17397885642E+03  0.15992310764E+03  0.12863713214E+03  0.26905678695E+03  0.00000000000E+00 0. -1.
        -11    1    3    3    0    0 -0.37468561103E+02 -0.10718931733E+03  0.99654403313E+02  0.15107760562E+03  0.00000000000E+00 0.  1.
         11    1    3    3    0    0 -0.48185561201E+02 -0.34797925944E+03  0.54256111642E+03  0.64636211086E+03  0.00000000000E+00 0. -1.
          1    1    1    2  501    0 -0.11389903138E+03  0.28061195184E+03  0.26647790165E+03  0.40339376412E+03  0.00000000000E+00 0. -1.
<scales pt_clust_5="13000.00000" pt_clust_6="13000.00000" pt_clust_7="13000.00000" pt_clust_8="13000.00000" pt_clust_9="13000.00000"></scales>
<clustering>
<clus scale="   82.006">  5  6 -1 -1</clus>
<clus scale="   94.627">  7  8 -1 -1</clus>
<clus scale="  302.847">  5  9 -1 -1</clus>
<clus scale="  472.725">  1  7  2 -1</clus>
<clus scale="  582.241">  2  5  1 -1</clus>
</clustering>
</event>
<event>
 9    2  0.3726337E-005  0.1658935E+04  0.7546771E-02  0.9196638E-01
         -1   -1    0    0    0  501 -0.00000000000E+00  0.00000000000E+00  0.97236149082E+03  0.97236149082E+03  0.00000000000E+00 0.  1.
         21   -1    0    0  501  502  0.00000000000E+00 -0.00000000000E+00 -0.10195942854E+04  0.10195942854E+04  0.00000000000E+00 0.  1.
         23    2    1    2    0    0 -0.12398916231E+03  0.29263152700E+03  0.19586883251E+02  0.33167605506E+03  0.92837689226E+02 0.  0.
         24    2    1    2    0    0 -0.38484291651E+02  0.48846891663E+03  0.48185413563E+03  0.69200368621E+03  0.81257433449E+02 0.  0.
        -11    1    4    4    0    0 -0.12837886785E+02  0.42255461752E+03  0.43823746145E+03  0.60890827614E+03  0.00000000000E+00 0.  1.
         12    1    4    4    0    0 -0.25646404866E+02  0.65914299112E+02  0.43616674176E+02  0.83095410079E+02  0.00000000000E+00 0. -1.
        -11    1    3    3    0    0 -0.41977786286E+02  0.20325255291E+03  0.30969200845E+02  0.20984000145E+03  0.00000000000E+00 0.  1.
         11    1    3    3    0    0 -0.82011376022E+02  0.89378974087E+02 -0.11382317594E+02  0.12183605361E+03  0.00000000000E+00 0. -1.
         -2    1    1    2    0  502  0.16247345396E+03 -0.78110044363E+03 -0.54867381347E+03  0.96827603496E+03  0.00000000000E+00 0.  1.
<scales pt_clust_5="13000.00000" pt_clust_6="13000.00000" pt_clust_7="13000.00000" pt_clust_8="13000.00000" pt_clust_9="13000.00000"></scales>
<clustering>
<clus scale="   81.257">  5  6 -1 -1</clus>
<clus scale="   92.838">  7  8 -1 -1</clus>
<clus scale="  331.097">  1  7  2 -1</clus>
<clus scale="  715.912">  5  9 -1 -1</clus>
<clus scale=" 1658.935">  2  5  1 -1</clus>
</clustering>
</event>
<event>
 9    2  0.3726337E-005  0.2008888E+03  0.7546771E-02  0.1185864E+00
         21   -1    0    0  501  502  0.00000000000E+00  0.00000000000E+00  0.19125223537E+03  0.19125223537E+03  0.00000000000E+00 0.  1.
         -1   -1    0    0    0  501 -0.00000000000E+00 -0.00000000000E+00 -0.10778296335E+03  0.10778296335E+03  0.00000000000E+00 0.  1.
         23    2    1    2    0    0 -0.17027157486E+02 -0.58950688332E+01  0.29876775020E+02  0.91120609547E+02  0.84176409225E+02 0.  0.
         24    2    1    2    0    0 -0.28147796673E+02 -0.18157922610E+02  0.10448637296E+03  0.13573765733E+03  0.79908077640E+02 0.  0.
        -13    1    4    4    0    0 -0.34689907762E+02 -0.29714070552E+02  0.19406863121E+02  0.49628036688E+02  0.00000000000E+00 0.  1.
         14    1    4    4    0    0  0.65421110894E+01  0.11556147941E+02  0.85079509839E+02  0.86109620642E+02  0.00000000000E+00 0. -1.
        -13    1    3    3    0    0 -0.19224270429E+01 -0.28727654727E+02  0.49619445295E+02  0.57367789074E+02  0.00000000000E+00 0.  1.
         13    1    3    3    0    0 -0.15104730443E+02  0.22832585894E+02 -0.19742670275E+02  0.33752820474E+02  0.00000000000E+00 0. -1.
         -2    1    1    2    0  502  0.45174954159E+02  0.24052991443E+02 -0.50893875952E+02  0.72176931841E+02  0.00000000000E+00 0.  1.
<scales pt_clust_5="13000.00000" pt_clust_6="13000.00000" pt_clust_7="13000.00000" pt_clust_8="13000.00000" pt_clust_9="13000.00000"></scales>
<clustering>
<clus scale="   79.908">  5  6 -1 -1</clus>
<clus scale="   51.179">  5  9 -1 -1</clus>
<clus scale="   84.176">  7  8 -1 -1</clus>
<clus scale="   86.083">  2  7  1 -1</clus>
<clus scale="  200.889">  1  5  2 -1</clus>
</clustering>
</event>
<event>
 9    2  0.3726337E-005  0.3847655E+03  0.7546771E-02  0.1081746E+00
         21   -1    0    0  501  502  0.00000000000E+00  0.00000000000E+00  0.67576992656E+02  0.67576992656E+02  0.00000000000E+00 0.  1.
          2   -1    0    0  502    0 -0.00000000000E+00 -0.00000000000E+00 -0.11752873095E+04  0.11752873095E+04  0.00000000000E+00 0. -1.
         23    2    1    2    0    0  0.12379467050E+03  0.33676603696E+02 -0.49795547312E+03  0.52186118664E+03  0.88995566386E+02 0.  0.
         24    2    1    2    0    0  0.76651519919E+02  0.65252472654E+02 -0.96162869827E+02  0.16087602899E+03  0.80625420789E+02 0.  0.
        -11    1    4    4    0    0  0.73359162182E+02  0.10485695496E+02 -0.55658576378E+02  0.92678981492E+02  0.00000000000E+00 0.  1.
         12    1    4    4    0    0  0.32923577372E+01  0.54766777158E+02 -0.40504293450E+02  0.68197047499E+02  0.00000000000E+00 0. -1.
        -11    1    3    3    0    0  0.84472047214E+02 -0.18228165601E+02 -0.34425097387E+03  0.35493171990E+03  0.00000000000E+00 0.  1.
         11    1    3    3    0    0  0.39322623285E+02  0.51904769296E+02 -0.15370449925E+03  0.16692946674E+03  0.00000000000E+00 0. -1.
          1    1    1    2  501    0 -0.20044619042E+03 -0.98929076350E+02 -0.51359197390E+03  0.56012708652E+03  0.00000000000E+00 0. -1.
<scales pt_clust_5="13000.00000" pt_clust_6="13000.00000" pt_clust_7="13000.00000" pt_clust_8="13000.00000" pt_clust_9="13000.00000"></scales>
<clustering>
<clus scale="   80.625">  5  6 -1 -1</clus>
<clus scale="   88.996">  7  8 -1 -1</clus>
<clus scale="  156.139">  2  7  1 -1</clus>
<clus scale="  123.539">  5  9 -1 -1</clus>
<clus scale="  384.766">  1  5  2 -1</clus>
</clustering>
</event>
<event>
 9    2  0.3726337E-005  0.2902078E+03  0.7546771E-02  0.1093860E+00
         21   -1    0    0  501  502  0.00000000000E+00  0.00000000000E+00  0.10464184442E+03  0.10464184442E+03  0.00000000000E+00 0. -1.
          2   -1    0    0  502    0 -0.00000000000E+00 -0.00000000000E+00 -0.77663617722E+03  0.77663617722E+03  0.00000000000E+00 0. -1.
         23    2    1    2    0    0  0.23160846878E+03 -0.86415143012E+02 -0.21696806043E+03  0.34158416908E+03  0.92165859004E+02 0.  0.
         24    2    1    2    0    0 -0.13606767902E+03  0.24188811828E+01 -0.30018973360E+03  0.33929982009E+03  0.80561948171E+02 0.  0.
        -11    1    4    4    0    0 -0.88680484523E+02  0.11802296275E+02 -0.26455278240E+03  0.27926993610E+03  0.00000000000E+00 0.  1.
         12    1    4    4    0    0 -0.47387194498E+02 -0.93834150926E+01 -0.35636951202E+02  0.60029883992E+02  0.00000000000E+00 0. -1.
        -13    1    3    3    0    0  0.17545692452E+03 -0.10521337661E+03 -0.16620188697E+03  0.26358690068E+03  0.00000000000E+00 0. -1.
         13    1    3    3    0    0  0.56151544261E+02  0.18798233599E+02 -0.50766173459E+02  0.77997268394E+02  0.00000000000E+00 0.  1.
          1    1    1    2  501    0 -0.95540789762E+02  0.83996261829E+02 -0.15483653877E+03  0.20039403247E+03  0.00000000000E+00 0. -1.
<scales pt_clust_5="13000.00000" pt_clust_6="13000.00000" pt_clust_7="13000.00000" pt_clust_8="13000.00000" pt_clust_9="13000.00000"></scales>
<clustering>
<clus scale="   80.562">  5  6 -1 -1</clus>
<clus scale="   92.166">  7  8 -1 -1</clus>
<clus scale="  127.214">  5  9 -1 -1</clus>
<clus scale="  263.827">  2  7  1 -1</clus>
<clus scale="  290.208">  1  5  2 -1</clus>
</clustering>
</event>
<event>
 9    2  0.3726337E-005  0.5006976E+03  0.7546771E-02  0.1065400E+00
         -1   -1    0    0    0  501 -0.00000000000E+00  0.00000000000E+00  0.87523938800E+03  0.87523938800E+03  0.00000000000E+00 0.  1.
         21   -1    0    0  501  502  0.00000000000E+00 -0.00000000000E+00 -0.11256400636E+03  0.11256400636E+03  0.00000000000E+00 0.  1.
         23    2    1    2    0    0  0.45902961705E+02  0.43938365685E+02  0.62683713771E+02  0.12717196314E+03  0.90585861838E+02 0.  0.
         24    2    1    2    0    0  0.45739487627E+02  0.44124399066E+02  0.72391227404E+03  0.73130400004E+03  0.81960335775E+02 0.  0.
        -13    1    4    4    0    0  0.31076572654E+02  0.52630680162E+02  0.26020888486E+03  0.26729086334E+03  0.00000000000E+00 0.  1.
         14    1    4    4    0    0  0.14662914973E+02 -0.85062810957E+01  0.46370338918E+03  0.46401313670E+03  0.00000000000E+00 0. -1.
        -11    1    3    3    0    0 -0.21982771246E+02  0.26341377585E+02  0.41639320431E+02  0.53953159414E+02  0.00000000000E+00 0. -1.
         11    1    3    3    0    0  0.67885732951E+02  0.17596988100E+02  0.21044393340E+02  0.73218803729E+02  0.00000000000E+00 0.  1.
         -2    1    1    2    0  502 -0.91642449332E+02 -0.88062764751E+02 -0.23920606176E+02  0.12932743118E+03  0.00000000000E+00 0.  1.
<scales pt_clust_5="13000.00000" pt_clust_6="13000.00000" pt_clust_7="13000.00000" pt_clust_8="13000.00000" pt_clust_9="13000.00000"></scales>
<clustering>
<clus scale="   81.960">  5  6 -1 -1</clus>
<clus scale="   90.586">  7  8 -1 -1</clus>
<clus scale="  110.650">  1  7  2 -1</clus>
<clus scale="  122.804">  5  9 -1 -1</clus>
<clus scale="  500.698">  2  5  1 -1</clus>
</clustering>
</event>
<event>
 9    2  0.3726337E-005  0.4452776E+03  0.7546771E-02  0.1033126E+00
         21   -1    0    0  501  502  0.00000000000E+00  0.00000000000E+00  0.17913142980E+03  0.17913142980E+03  0.00000000000E+00 0. -1.
         -1   -1    0    0    0  501 -0.00000000000E+00 -0.00000000000E+00 -0.10537783263E+04  0.10537783263E+04  0.00000000000E+00 0.  1.
         23    2    1    2    0    0  0.27085440881E+03 -0.27376197201E+03 -0.25832472485E+03  0.47256433667E+03  0.90981650537E+02 0.  0.
         24    2    1    2    0    0 -0.16367072211E+03  0.72957655621E+02 -0.17260390309E+03  0.26165050466E+03  0.80981198028E+02 0.  0.
        -13    1    4    4    0    0 -0.14126179132E+03  0.90836325195E+02 -0.14580424296E+03  0.22240730412E+03  0.00000000000E+00 0.  1.
         14    1    4    4    0    0 -0.22408930798E+02 -0.17878669574E+02 -0.26799660128E+02  0.39243200535E+02  0.00000000000E+00 0. -1.
        -11    1    3    3    0    0  0.11471082452E+03 -0.13738433274E+03 -0.69027484419E+02  0.19182758339E+03  0.00000000000E+00 0. -1.
         11    1    3    3    0    0  0.15614358428E+03 -0.13637763927E+03 -0.18929724043E+03  0.28073675328E+03  0.00000000000E+00 0.  1.
         -2    1    1    2    0  502 -0.10718368669E+03  0.20080431639E+03 -0.44371826850E+03  0.49869491473E+03  0.00000000000E+00 0.  1.
<scales pt_clust_5="13000.00000" pt_clust_6="13000.00000" pt_clust_7="13000.00000" pt_clust_8="13000.00000" pt_clust_9="13000.00000"></scales>
<clustering>
<clus scale="   80.981">  5  6 -1 -1</clus>
<clus scale="   90.982">  7  8 -1 -1</clus>
<clus scale="  227.620">  5  9 -1 -1</clus>
<clus scale="  395.709">  2  7  1 -1</clus>
<clus scale="  445.278">  1  5  2 -1</clus>
</clustering>
</event>
<event>
 9    2  0.3726337E-005  0.2563369E+03  0.7546771E-02  0.1143729E+00
         -1   -1    0    0    0  501 -0.00000000000E+00  0.00000000000E+00  0.47038427807E+03  0.47038427807E+03  0.00000000000E+00 0.  1.
         21   -1    0    0  501  502  0.00000000000E+00 -0.00000000000E+00 -0.12009547720E+03  0.12009547720E+03  0.00000000000E+00 0.  1.
         23    2    1    2    0    0  0.59817221190E+02  0.92257134788E+01 -0.45700016698E+02  0.11876401178E+03  0.91395761538E+02 0.  0.
         24    2    1    2    0    0  0.47414349789E+02 -0.46149056513E+02  0.67642184201E+02  0.12433489382E+03  0.80658816970E+02 0.  0.
        -11    1    4    4    0    0  0.14505158690E+02 -0.60888182806E+02  0.22397495326E+02  0.66478705094E+02  0.00000000000E+00 0.  1.
         12    1    4    4    0    0  0.32909191099E+02  0.14739126293E+02  0.45244688875E+02  0.57856188728E+02  0.00000000000E+00 0. -1.
        -13    1    3    3    0    0  0.67216834427E+02 -0.21407005599E+02 -0.50677609156E+02  0.86859557844E+02  0.00000000000E+00 0.  1.
         13    1    3    3    0    0 -0.73996132363E+01  0.30632719077E+02  0.49775924578E+01  0.31904453934E+02  0.00000000000E+00 0. -1.
         -2    1    1    2    0  502 -0.10723157098E+03  0.36923343034E+02  0.32834663337E+03  0.34738084968E+03  0.00000000000E+00 0.  1.
<scales pt_clust_5="13000.00000" pt_clust_6="13000.00000" pt_clust_7="13000.00000" pt_clust_8="13000.00000" pt_clust_9="13000.00000"></scales>
<clustering>
<clus scale="   80.659">  5  6 -1 -1</clus>
<clus scale="   91.396">  7  8 -1 -1</clus>
<clus scale="  109.619">  1  7  2 -1</clus>
<clus scale="   74.992">  5  9 -1 -1</clus>
<clus scale="  256.337">  2  5  1 -1</clus>
</clustering>
</event>
<event>
 9    2  0.3726337E-005  0.2026650E+03  0.7546771E-02  0.1181875E+00
         21   -1    0    0  501  502  0.00000000000E+00  0.00000000000E+00  0.71343545299E+02  0.71343545299E+02  0.00000000000E+00 0. -1.
          4   -1    0    0  502    0 -0.00000000000E+00 -0.00000000000E+00 -0.30389032463E+03  0.30389032463E+03  0.00000000000E+00 0. -1.
         23    2    1    2    0    0  0.17785788339E+02  0.38553660516E+01 -0.78385475900E+02  0.12059917674E+03  0.89825834172E+02 0.  0.
         24    2    1    2    0    0  0.48358211303E+02  0.55213998768E+02 -0.57384493343E+02  0.12337171471E+03  0.80873343277E+02 0.  0.
        -11    1    4    4    0    0  0.12374710698E+02 -0.21082003881E+02 -0.85350597815E+01  0.25892693911E+02  0.00000000000E+00 0.  1.
         12    1    4    4    0    0  0.35983500605E+02  0.76296002648E+02 -0.48849433562E+02  0.97479020795E+02  0.00000000000E+00 0. -1.
        -11    1    3    3    0    0 -0.22953086489E+02 -0.30089677323E+02 -0.25021229660E+02  0.45368433900E+02  0.00000000000E+00 0. -1.
         11    1    3    3    0    0  0.40738874828E+02  0.33945043375E+02 -0.53364246240E+02  0.75230742843E+02  0.00000000000E+00 0.  1.
          3    1    1    2  501    0 -0.66143999642E+02 -0.59069364819E+02 -0.96776810090E+02  0.13126297848E+03  0.00000000000E+00 0. -1.
<scales pt_clust_5="13000.00000" pt_clust_6="13000.00000" pt_clust_7="13000.00000" pt_clust_8="13000.00000" pt_clust_9="13000.00000"></scales>
<clustering>
<clus scale="   80.873">  5  6 -1 -1</clus>
<clus scale="   88.680">  5  9 -1 -1</clus>
<clus scale="   89.826">  7  8 -1 -1</clus>
<clus scale="   91.651">  2  7  1 -1</clus>
<clus scale="  202.665">  1  5  2 -1</clus>
</clustering>
</event>
<event>
 9    2  0.3726337E-005  0.3488674E+03  0.7546771E-02  0.1112351E+00
         21   -1    0    0  501  502  0.00000000000E+00  0.00000000000E+00  0.87740421513E+02  0.87740421513E+02  0.00000000000E+00 0.  1.
          2   -1    0    0  502    0 -0.00000000000E+00 -0.00000000000E+00 -0.63804272800E+03  0.63804272800E+03  0.00000000000E+00 0. -1.
         23    2    1    2    0    0  0.13588587395E+02 -0.20356878032E+02 -0.29174378810E+02  0.98660533166E+02  0.91014857222E+02 0.  0.
         24    2    1    2    0    0 -0.11266889150E+03 -0.98463358311E+02 -0.15491338822E+03  0.22956979704E+03  0.79465853181E+02 0.  0.
        -11    1    4    4    0    0 -0.10234021388E+03 -0.10189963966E+03 -0.16165150907E+03  0.21676777050E+03  0.00000000000E+00 0.  1.
         12    1    4    4    0    0 -0.10328677620E+02  0.34362813511E+01  0.67381208568E+01  0.12802026542E+02  0.00000000000E+00 0. -1.
        -13    1    3    3    0    0  0.41369264937E+02 -0.36061043680E+02  0.78977062336E+00  0.54885687482E+02  0.00000000000E+00 0.  1.
         13    1    3    3    0    0 -0.27780677542E+02  0.15704165648E+02 -0.29964149433E+02  0.43774845684E+02  0.00000000000E+00 0. -1.
          1    1    1    2  501    0  0.99080304107E+02  0.11882023634E+03 -0.36621453946E+03  0.39755281931E+03  0.00000000000E+00 0. -1.
<scales pt_clust_5="13000.00000" pt_clust_6="13000.00000" pt_clust_7="13000.00000" pt_clust_8="13000.00000" pt_clust_9="13000.00000"></scales>
<clustering>
<clus scale="   79.466">  5  6 -1 -1</clus>
<clus scale="   91.015">  7  8 -1 -1</clus>
<clus scale="   94.248">  2  7  1 -1</clus>
<clus scale="  150.909">  5  9 -1 -1</clus>
<clus scale="  348.867">  1  5  2 -1</clus>
</clustering>
</event>
<event>
 9    2  0.3726337E-005  0.8436321E+03  0.7546771E-02  0.1013708E+00
         21   -1    0    0  501  502  0.00000000000E+00  0.00000000000E+00  0.28558594418E+03  0.28558594418E+03  0.00000000000E+00 0. -1.
          2   -1    0    0  502    0 -0.00000000000E+00 -0.00000000000E+00 -0.80543174663E+03  0.80543174663E+03  0.00000000000E+00 0. -1.
         23    2    1    2    0    0 -0.12120649632E+02 -0.45414436958E+02 -0.11503037820E+03  0.15528771831E+03  0.93128439894E+02 0.  0.
         24    2    1    2    0    0 -0.12847457691E+03  0.36006957246E+03  0.17000259786E+02  0.39102515031E+03  0.80348275756E+02 0.  0.
        -11    1    4    4    0    0  0.84355122114E+01  0.47059527148E+02  0.12230834568E+02  0.49349268241E+02  0.00000000000E+00 0.  1.
         12    1    4    4    0    0 -0.13691008912E+03  0.31301004531E+03  0.47694252183E+01  0.34167588207E+03  0.00000000000E+00 0. -1.
        -11    1    3    3    0    0  0.39718637130E+02 -0.84973701327E+01 -0.47391054582E+02  0.62415442713E+02  0.00000000000E+00 0.  1.
         11    1    3    3    0    0 -0.51839286762E+02 -0.36917066825E+02 -0.67639323620E+02  0.92872275598E+02  0.00000000000E+00 0. -1.
          1    1    1    2  501    0  0.14059522654E+03 -0.31465513550E+03 -0.42181568402E+03  0.54470482219E+03  0.00000000000E+00 0. -1.
<scales pt_clust_5="13000.00000" pt_clust_6="13000.00000" pt_clust_7="13000.00000" pt_clust_8="13000.00000" pt_clust_9="13000.00000"></scales>
<clustering>
<clus scale="   80.348">  5  6 -1 -1</clus>
<clus scale="   93.128">  7  8 -1 -1</clus>
<clus scale="  104.318">  2  7  1 -1</clus>
<clus scale="  371.580">  5  9 -1 -1</clus>
<clus scale="  843.632">  1  5  2 -1</clus>
</clustering>
</event>
<event>
 9    2  0.3726337E-005  0.4839053E+03  0.7546771E-02  0.1036170E+00
         21   -1    0    0  501  502  0.00000000000E+00  0.00000000000E+00  0.33489493281E+03  0.33489493281E+03  0.00000000000E+00 0.  1.
         -3   -1    0    0    0  501 -0.00000000000E+00 -0.00000000000E+00 -0.44775421540E+03  0.44775421540E+03  0.00000000000E+00 0.  1.
         23    2    1    2    0    0  0.21286917694E+03  0.16146123510E+03 -0.98171776371E+02  0.29852101698E+03  0.89967121603E+02 0.  0.
         24    2    1    2    0    0 -0.16419274159E+02  0.93431614449E+02 -0.89478387012E+02  0.15373956469E+03  0.81427347165E+02 0.  0.
        -11    1    4    4    0    0 -0.40180225895E+02  0.15453468929E+02 -0.24819238517E+02  0.49691597433E+02  0.00000000000E+00 0.  1.
         12    1    4    4    0    0  0.23760951735E+02  0.77978145520E+02 -0.64659148495E+02  0.10404796726E+03  0.00000000000E+00 0. -1.
        -11    1    3    3    0    0  0.16475761894E+03  0.12660378830E+03 -0.11404825287E+03  0.23702446328E+03  0.00000000000E+00 0.  1.
         11    1    3    3    0    0  0.48111558007E+02  0.34857446800E+02  0.15876476496E+02  0.61496553702E+02  0.00000000000E+00 0. -1.
         -4    1    1    2    0  502 -0.19644990278E+03 -0.25489284954E+03  0.74790880793E+02  0.33038856654E+03  0.00000000000E+00 0.  1.
<scales pt_clust_5="13000.00000" pt_clust_6="13000.00000" pt_clust_7="13000.00000" pt_clust_8="13000.00000" pt_clust_9="13000.00000"></scales>
<clustering>
<clus scale="   81.427">  5  6 -1 -1</clus>
<clus scale="   89.967">  7  8 -1 -1</clus>
<clus scale="  281.917">  2  7  1 -1</clus>
<clus scale="  193.062">  5  9 -1 -1</clus>
<clus scale="  483.905">  1  5  2 -1</clus>
</clustering>
</event>
<event>
 9    2  0.3726337E-005  0.2345900E+03  0.7546771E-02  0.1151264E+00
          2   -1    0    0  502    0 -0.00000000000E+00  0.00000000000E+00  0.46092840721E+03  0.46092840721E+03  0.00000000000E+00 0. -1.
         21   -1    0    0  501  502  0.00000000000E+00 -0.00000000000E+00 -0.68850611603E+02  0.68850611603E+02  0.00000000000E+00 0.  1.
         23    2    1    2    0    0  0.72455933578E+02 -0.30689249167E+02  0.10556124352E+03  0.15947617336E+03  0.89987673661E+02 0.  0.
         24    2    1    2    0    0  0.50365397182E+02  0.29443711887E+02  0.77424696692E+02  0.12780328948E+03  0.83279599795E+02 0.  0.
        -11    1    4    4    0    0 -0.14866749872E+02 -0.14311238324E+02  0.28776728413E+02  0.35410900755E+02  0.00000000000E+00 0.  1.
         12    1    4    4    0    0  0.65232147054E+02  0.43754950211E+02  0.48647968279E+02  0.92392388728E+02  0.00000000000E+00 0. -1.
        -11    1    3    3    0    0 -0.20910078510E+02  0.99680794165E+00  0.17768455305E+02  0.27458022749E+02  0.00000000000E+00 0. -1.
         11    1    3    3    0    0  0.93366012088E+02 -0.31686057109E+02  0.87792788213E+02  0.13201815061E+03  0.00000000000E+00 0.  1.
          1    1    1    2  501    0 -0.12282133076E+03  0.12455372802E+01  0.20909185540E+03  0.24249955597E+03  0.00000000000E+00 0. -1.
<scales pt_clust_5="13000.00000" pt_clust_6="13000.00000" pt_clust_7="13000.00000" pt_clust_8="13000.00000" pt_clust_9="13000.00000"></scales>
<clustering>
<clus scale="   83.280">  5  6 -1 -1</clus>
<clus scale="   89.988">  7  8 -1 -1</clus>
<clus scale="  119.539">  1  7  2 -1</clus>
<clus scale="   75.657">  5  9 -1 -1</clus>
<clus scale="  234.590">  2  5  1 -1</clus>
</clustering>
</event>
<event>
 9    2  0.3726337E-005  0.1528999E+03  0.7546771E-02  0.1217899E+00
          2   -1    0    0  502    0 -0.00000000000E+00  0.00000000000E+00  0.19154440543E+03  0.19154440543E+03  0.00000000000E+00 0. -1.
         21   -1    0    0  501  502  0.00000000000E+00 -0.00000000000E+00 -0.10086354467E+03  0.10086354467E+03  0.00000000000E+00 0.  1.
         23    2    1    2    0    0  0.32362514752E+01 -0.31488550759E+02 -0.24949025435E+02  0.10070858643E+03  0.92291729629E+02 0.  0.
         24    2    1    2    0    0 -0.50523372689E+02  0.13085053639E+01  0.98187717388E+02  0.13295299165E+03  0.74036118007E+02 0.  0.
        -11    1    4    4    0    0 -0.11192839382E+02  0.34269223693E+02  0.55611436395E+02  0.66274363097E+02  0.00000000000E+00 0.  1.
         12    1    4    4    0    0 -0.39330533307E+02 -0.32960718329E+02  0.42576280993E+02  0.66678628557E+02  0.00000000000E+00 0. -1.
        -13    1    3    3    0    0  0.19567309561E+02  0.18121164728E+02  0.18757388741E+02  0.32605150620E+02  0.00000000000E+00 0. -1.
         13    1    3    3    0    0 -0.16331058086E+02 -0.49609715487E+02 -0.43706414176E+02  0.68103435809E+02  0.00000000000E+00 0.  1.
          1    1    1    2  501    0  0.47287121214E+02  0.30180045395E+02  0.17442168804E+02  0.58746372018E+02  0.00000000000E+00 0. -1.
<scales pt_clust_5="13000.00000" pt_clust_6="13000.00000" pt_clust_7="13000.00000" pt_clust_8="13000.00000" pt_clust_9="13000.00000"></scales>
<clustering>
<clus scale="   74.036">  5  6 -1 -1</clus>
<clus scale="   56.097">  5  9 -1 -1</clus>
<clus scale="   92.292">  7  8 -1 -1</clus>
<clus scale="   97.569">  1  7  2 -1</clus>
<clus scale="  152.900">  2  5  1 -1</clus>
</clustering>
</event>
<event>
 9    2  0.3726337E-005  0.7936918E+03  0.7546771E-02  0.1012246E+00
          2   -1    0    0  502    0 -0.00000000000E+00  0.00000000000E+00  0.10017039917E+04  0.10017039917E+04  0.00000000000E+00 0. -1.
         21   -1    0    0  501  502  0.00000000000E+00 -0.00000000000E+00 -0.37026941597E+03  0.37026941597E+03  0.00000000000E+00 0. -1.
         23    2    1    2    0    0 -0.39877320633E+02  0.82377854138E+02 -0.18931266263E+03  0.23023229975E+03  0.93762018226E+02 0.  0.
         24    2    1    2    0    0  0.16790791758E+03 -0.29143063488E+03  0.71179670564E+02  0.35310529997E+03  0.80572474448E+02 0.  0.
        -11    1    4    4    0    0  0.65315406177E+02 -0.46370694343E+02  0.13170407917E+02  0.81177602962E+02  0.00000000000E+00 0.  1.
         12    1    4    4    0    0  0.10259251140E+03 -0.24505994053E+03  0.58009262647E+02  0.27192769701E+03  0.00000000000E+00 0. -1.
        -13    1    3    3    0    0 -0.20579197969E+02 -0.10567666151E+02 -0.61587715729E+01  0.23939703929E+02  0.00000000000E+00 0. -1.
         13    1    3    3    0    0 -0.19298122664E+02  0.92945520289E+02 -0.18315389106E+03  0.20629259582E+03  0.00000000000E+00 0.  1.
          1    1    1    2  501    0 -0.12803059694E+03  0.20905278074E+03  0.74956756777E+03  0.78863580793E+03  0.00000000000E+00 0. -1.
<scales pt_clust_5="13000.00000" pt_clust_6="13000.00000" pt_clust_7="13000.00000" pt_clust_8="13000.00000" pt_clust_9="13000.00000"></scales>
<clustering>
<clus scale="   80.572">  5  6 -1 -1</clus>
<clus scale="   93.762">  7  8 -1 -1</clus>
<clus scale="  131.025">  1  7  2 -1</clus>
<clus scale="  316.608">  5  9 -1 -1</clus>
<clus scale="  793.692">  2  5  1 -1</clus>
</clustering>
</event>
<event>
 9    2  0.3726337E-005  0.3281265E+03  0.7546771E-02  0.1110306E+00
          2   -1    0    0  502    0 -0.00000000000E+00  0.00000000000E+00  0.74715684797E+03  0.74715684797E+03  0.00000000000E+00 0. -1.
         21   -1    0    0  501  502  0.00000000000E+00 -0.00000000000E+00 -0.67908190244E+02  0.67908190244E+02  0.00000000000E+00 0. -1.
         23    2    1    2    0    0  0.20898966811E+02 -0.76150684824E+02  0.14126639136E+03  0.18491276298E+03  0.89447431336E+02 0.  0.
         24    2    1    2    0    0 -0.48204242936E+02 -0.43761365424E+02  0.31704495475E+02  0.10915164261E+03  0.81671291832E+02 0.  0.
        -13    1    4    4    0    0 -0.64051478701E+02 -0.10831408108E+02  0.76706510444E+01  0.65412156460E+02  0.00000000000E+00 0.  1.
         14    1    4    4    0    0  0.15847235764E+02 -0.32929957315E+02  0.24033844431E+02  0.43739486145E+02  0.00000000000E+00 0. -1.
        -11    1    3    3    0    0  0.32703121840E+02 -0.78628566121E+01  0.78008106838E+01  0.34527834272E+02  0.00000000000E+00 0. -1.
         11    1    3    3    0    0 -0.11804155029E+02 -0.68287828212E+02  0.13346558067E+03  0.15038492871E+03  0.00000000000E+00 0.  1.
          1    1    1    2  501    0  0.27305276125E+02  0.11991205025E+03  0.50627777089E+03  0.52100063262E+03  0.00000000000E+00 0. -1.
<scales pt_clust_5="13000.00000" pt_clust_6="13000.00000" pt_clust_7="13000.00000" pt_clust_8="13000.00000" pt_clust_9="13000.00000"></scales>
<clustering>
<clus scale="   81.671">  5  6 -1 -1</clus>
<clus scale="   89.447">  7  8 -1 -1</clus>
<clus scale="  119.317">  1  7  2 -1</clus>
<clus scale="   69.929">  5  9 -1 -1</clus>
<clus scale="  328.126">  2  5  1 -1</clus>
</clustering>
</event>
<event>
 9    2  0.3726337E-005  0.5266934E+03  0.7546771E-02  0.1029977E+00
          2   -1    0    0  502    0 -0.00000000000E+00  0.00000000000E+00  0.15219965216E+04  0.15219965216E+04  0.00000000000E+00 0. -1.
         21   -1    0    0  501  502  0.00000000000E+00 -0.00000000000E+00 -0.10352010558E+03  0.10352010558E+03  0.00000000000E+00 0. -1.
         23    2    1    2    0    0 -0.17911700760E+03 -0.16874326070E+03  0.39111726486E+03  0.47101553782E+03  0.91245446768E+02 0.  0.
         24    2    1    2    0    0 -0.72815233016E+02  0.24936457109E+02  0.46433593688E+02  0.13158115118E+03  0.96091808556E+02 0.  0.
        -11    1    4    4    0    0 -0.34281685947E+02  0.72373192648E+01  0.73396710774E+02  0.81330744088E+02  0.00000000000E+00 0.  1.
         12    1    4    4    0    0 -0.38533547068E+02  0.17699137844E+02 -0.26963117087E+02  0.50250407094E+02  0.00000000000E+00 0. -1.
        -11    1    3    3    0    0 -0.58302238421E+02 -0.11588161236E+03  0.21301689479E+03  0.24940709002E+03  0.00000000000E+00 0.  1.
         11    1    3    3    0    0 -0.12081476918E+03 -0.52861648338E+02  0.17810037007E+03  0.22160844780E+03  0.00000000000E+00 0. -1.
          1    1    1    2  501    0  0.25193224061E+03  0.14380680359E+03  0.98092555744E+03  0.10229199381E+04  0.00000000000E+00 0. -1.
<scales pt_clust_5="13000.00000" pt_clust_6="13000.00000" pt_clust_7="13000.00000" pt_clust_8="13000.00000" pt_clust_9="13000.00000"></scales>
<clustering>
<clus scale="   91.245">  7  8 -1 -1</clus>
<clus scale="   96.092">  5  6 -1 -1</clus>
<clus scale="  262.456">  1  7  2 -1</clus>
<clus scale="   88.140">  5  9 -1 -1</clus>
<clus scale="  526.693">  2  5  1 -1</clus>
</clustering>
</event>
<event>
 9    2  0.3726337E-005  0.2649860E+03  0.7546771E-02  0.1145364E+00
         21   -1    0    0  501  502  0.00000000000E+00  0.00000000000E+00  0.66239652292E+02  0.66239652292E+02  0.00000000000E+00 0. -1.
          2   -1    0    0  502    0 -0.00000000000E+00 -0.00000000000E+00 -0.49171547687E+03  0.49171547687E+03  0.00000000000E+00 0. -1.
         23    2    1    2    0    0  0.27056785573E+02  0.64175992424E+01 -0.12638964579E+03  0.15836771721E+03  0.91283821483E+02 0.  0.
         24    2    1    2    0    0  0.34404547097E+02 -0.25755867470E+01 -0.32195136972E+03  0.33389819344E+03  0.81516946770E+02 0.  0.
        -11    1    4    4    0    0 -0.17340933650E+02  0.12624992211E+02 -0.29263452901E+02  0.36282889685E+02  0.00000000000E+00 0.  1.
         12    1    4    4    0    0  0.51745480747E+02 -0.15200578958E+02 -0.29268791681E+03  0.29761530375E+03  0.00000000000E+00 0. -1.
        -13    1    3    3    0    0 -0.32022606499E+02  0.89936550726E+01 -0.65652081208E+02  0.73597071447E+02  0.00000000000E+00 0.  1.
         13    1    3    3    0    0  0.59079392072E+02 -0.25760558303E+01 -0.60737564586E+02  0.84770645763E+02  0.00000000000E+00 0. -1.
          1    1    1    2  501    0 -0.61461332670E+02 -0.38420124954E+01  0.22865190927E+02  0.65689218520E+02  0.00000000000E+00 0. -1.
<scales pt_clust_5="13000.00000" pt_clust_6="13000.00000" pt_clust_7="13000.00000" pt_clust_8="13000.00000" pt_clust_9="13000.00000"></scales>
<clustering>
<clus scale="   81.517">  5  6 -1 -1</clus>
<clus scale="   61.581">  5  9 -1 -1</clus>
<clus scale="   91.284">  7  8 -1 -1</clus>
<clus scale="   95.425">  2  7  1 -1</clus>
<clus scale="  264.986">  1  5  2 -1</clus>
</clustering>
</event>
<event>
 9    2  0.3726337E-005  0.3421915E+03  0.7546771E-02  0.1113129E+00
          2   -1    0    0  502    0 -0.00000000000E+00  0.00000000000E+00  0.19391465380E+04  0.19391465380E+04  0.00000000000E+00 0. -1.
         21   -1    0    0  501  502  0.00000000000E+00 -0.00000000000E+00 -0.24978166859E+02  0.24978166859E+02  0.00000000000E+00 0.  1.
         23    2    1    2    0    0  0.33952934809E+02 -0.35834311344E+01  0.43834348447E+03  0.44914808836E+03  0.91778821826E+02 0.  0.
         24    2    1    2    0    0  0.14278454791E+03 -0.14666782887E+02  0.66334968685E+03  0.68330050260E+03  0.79146877196E+02 0.  0.
        -11    1    4    4    0    0  0.79821400811E+02  0.23809123542E+02  0.44751441184E+03  0.45520048242E+03  0.00000000000E+00 0.  1.
         12    1    4    4    0    0  0.62963147102E+02 -0.38475906429E+02  0.21583527501E+03  0.22810002019E+03  0.00000000000E+00 0. -1.
        -11    1    3    3    0    0  0.63338919173E+02 -0.15348820773E+02  0.26184791952E+03  0.26983650224E+03  0.00000000000E+00 0.  1.
         11    1    3    3    0    0 -0.29385984365E+02  0.11765389638E+02  0.17649556495E+03  0.17931158612E+03  0.00000000000E+00 0. -1.
          1    1    1    2  501    0 -0.17673748272E+03  0.18250214021E+02  0.81247519985E+03  0.83167611393E+03  0.00000000000E+00 0. -1.
<scales pt_clust_5="13000.00000" pt_clust_6="13000.00000" pt_clust_7="13000.00000" pt_clust_8="13000.00000" pt_clust_9="13000.00000"></scales>
<clustering>
<clus scale="   79.147">  5  6 -1 -1</clus>
<clus scale="   91.779">  7  8 -1 -1</clus>
<clus scale="   97.923">  1  7  2 -1</clus>
<clus scale="  158.909">  5  9 -1 -1</clus>
<clus scale="  342.192">  2  5  1 -1</clus>
</clustering>
</event>
<event>
 9    2  0.3726337E-005  0.4499459E+03  0.7546771E-02  0.1061877E+00
          2   -1    0    0  502    0 -0.00000000000E+00  0.00000000000E+00  0.21870351435E+03  0.21870351435E+03  0.00000000000E+00 0. -1.
         21   -1    0    0  501  502  0.00000000000E+00 -0.00000000000E+00 -0.43800498633E+03  0.43800498633E+03  0.00000000000E+00 0. -1.
         23    2    1    2    0    0 -0.11813669605E+03  0.80819583170E+02 -0.75621208437E+02  0.18437885759E+03  0.88254812805E+02 0.  0.
         24    2    1    2    0    0  0.24333714211E+03 -0.15576974534E+03 -0.67491725114E+02  0.30771684926E+03  0.81592573604E+02 0.  0.
        -13    1    4    4    0    0  0.11583241735E+03 -0.68294964223E+02  0.98488697017E+01  0.13482711627E+03  0.00000000000E+00 0.  1.
         14    1    4    4    0    0  0.12750472476E+03 -0.87474781114E+02 -0.77340594816E+02  0.17288973299E+03  0.00000000000E+00 0. -1.
        -11    1    3    3    0    0 -0.56627273396E+02 -0.90539720899E+01 -0.39517440467E+02  0.69643740594E+02  0.00000000000E+00 0.  1.
         11    1    3    3    0    0 -0.61509422649E+02  0.89873555260E+02 -0.36103767971E+02  0.11473511699E+03  0.00000000000E+00 0. -1.
          1    1    1    2  501    0 -0.12520044606E+03  0.74950162167E+02 -0.76188538430E+02  0.16461279383E+03  0.00000000000E+00 0. -1.
<scales pt_clust_5="13000.00000" pt_clust_6="13000.00000" pt_clust_7="13000.00000" pt_clust_8="13000.00000" pt_clust_9="13000.00000"></scales>
<clustering>
<clus scale="   81.593">  5  6 -1 -1</clus>
<clus scale="   88.255">  7  8 -1 -1</clus>
<clus scale="  145.920">  5  9 -1 -1</clus>
<clus scale="  168.158">  1  7  2 -1</clus>
<clus scale="  449.946">  2  5  1 -1</clus>
</clustering>
</event>
<event>
 9    2  0.3726337E-005  0.5185566E+03  0.7546771E-02  0.1038404E+00
          2   -1    0    0  502    0 -0.00000000000E+00  0.00000000000E+00  0.18756136110E+04  0.18756136110E+04  0.00000000000E+00 0. -1.
         21   -1    0    0  501  502  0.00000000000E+00 -0.00000000000E+00 -0.75714112220E+02  0.75714112220E+02  0.00000000000E+00 0. -1.
         23    2    1    2    0    0  0.18856401155E+03 -0.47633351618E+02  0.75385069787E+03  0.78380083727E+03  0.90705871827E+02 0.  0.
         24    2    1    2    0    0 -0.33013101009E+03 -0.38288574823E+02  0.58532787364E+03  0.67794791853E+03  0.80945424789E+02 0.  0.
        -13    1    4    4    0    0 -0.10633011151E+03 -0.42442202126E+02  0.24744153816E+03  0.27264399488E+03  0.00000000000E+00 0.  1.
         14    1    4    4    0    0 -0.22380089858E+03  0.41536273027E+01  0.33788633548E+03  0.40530392365E+03  0.00000000000E+00 0. -1.
        -11    1    3    3    0    0  0.13903548412E+03  0.85774457141E+01  0.46752695537E+03  0.48783797763E+03  0.00000000000E+00 0.  1.
         11    1    3    3    0    0  0.49528527426E+02 -0.56210797333E+02  0.28632374250E+03  0.29596285964E+03  0.00000000000E+00 0. -1.
          1    1    1    2  501    0  0.14156699854E+03  0.85921926442E+02  0.46072092725E+03  0.48957896741E+03  0.00000000000E+00 0. -1.
<scales pt_clust_5="13000.00000" pt_clust_6="13000.00000" pt_clust_7="13000.00000" pt_clust_8="13000.00000" pt_clust_9="13000.00000"></scales>
<clustering>
<clus scale="   80.945">  5  6 -1 -1</clus>
<clus scale="   90.706">  7  8 -1 -1</clus>
<clus scale="  165.601">  5  9 -1 -1</clus>
<clus scale="  214.599">  1  7  2 -1</clus>
<clus scale="  518.557">  2  5  1 -1</clus>
</clustering>
</event>
<event>
 9    2  0.3726337E-005  0.1587260E+03  0.7546771E-02  0.1213223E+00
         21   -1    0    0  501  502  0.00000000000E+00  0.00000000000E+00  0.15332524585E+02  0.15332524585E+02  0.00000000000E+00 0. -1.
          2   -1    0    0  502    0 -0.00000000000E+00 -0.00000000000E+00 -0.10612895804E+04  0.10612895804E+04  0.00000000000E+00 0. -1.
         23    2    1    2    0    0  0.24074507731E+02 -0.11199576399E+02 -0.37916084968E+03  0.39119440478E+03  0.92547825265E+02 0.  0.
         24    2    1    2    0    0  0.40677753560E+02 -0.18400188382E+02 -0.36187852441E+03  0.37230824370E+03  0.75260317106E+02 0.  0.
        -13    1    4    4    0    0 -0.20766140495E+02  0.55690907250E+01 -0.94646315935E+02  0.97057573031E+02  0.00000000000E+00 0.  1.
         14    1    4    4    0    0  0.61443894055E+02 -0.23969279107E+02 -0.26723220848E+03  0.27525067067E+03  0.00000000000E+00 0. -1.
        -11    1    3    3    0    0  0.57647562623E+01 -0.48181551300E+02 -0.13251483567E+03  0.14112007644E+03  0.00000000000E+00 0. -1.
         11    1    3    3    0    0  0.18309751468E+02  0.36981974901E+02 -0.24664601401E+03  0.25007432834E+03  0.00000000000E+00 0.  1.
          1    1    1    2  501    0 -0.64752261291E+02  0.29599764781E+02 -0.30491768168E+03  0.31311945647E+03  0.00000000000E+00 0. -1.
<scales pt_clust_5="13000.00000" pt_clust_6="13000.00000" pt_clust_7="13000.00000" pt_clust_8="13000.00000" pt_clust_9="13000.00000"></scales>
<clustering>
<clus scale="   75.260">  5  6 -1 -1</clus>
<clus scale="   71.197">  5  9 -1 -1</clus>
<clus scale="   92.548">  7  8 -1 -1</clus>
<clus scale="   96.281">  2  7  1 -1</clus>
<clus scale="  158.726">  1  5  2 -1</clus>
</clustering>
</event>
<event>
 9    2  0.3726337E-005  0.2542700E+03  0.7546771E-02  0.1143238E+00
         21   -1    0    0  501  502  0.00000000000E+00  0.00000000000E+00  0.23944912683E+02  0.23944912683E+02  0.00000000000E+00 0. -1.
          2   -1    0    0  502    0 -0.00000000000E+00 -0.00000000000E+00 -0.14811199977E+04  0.14811199977E+04  0.00000000000E+00 0. -1.
         23    2    1    2    0    0  0.46934564815E+02  0.49471000879E+02 -0.61228540307E+03  0.62274307144E+03  0.90913612341E+02 0.  0.
         24    2    1    2    0    0  0.16712404478E+02  0.72381575506E+02 -0.33650390879E+03  0.35567671990E+03  0.88049142566E+02 0.  0.
        -13    1    4    4    0    0 -0.16058319833E+02  0.51511249986E+02 -0.29046970982E+03  0.29543853985E+03  0.00000000000E+00 0.  1.
         14    1    4    4    0    0  0.32770724311E+02  0.20870325520E+02 -0.46034198978E+02  0.60238180042E+02  0.00000000000E+00 0. -1.
        -11    1    3    3    0    0  0.61782843280E+02  0.66410889531E+02 -0.51039323313E+03  0.51839056550E+03  0.00000000000E+00 0. -1.
         11    1    3    3    0    0 -0.14848278466E+02 -0.16939888652E+02 -0.10189216994E+03  0.10435250594E+03  0.00000000000E+00 0.  1.
          1    1    1    2  501    0 -0.63646969293E+02 -0.12185257639E+03 -0.50838577311E+03  0.52664511901E+03  0.00000000000E+00 0. -1.
<scales pt_clust_5="13000.00000" pt_clust_6="13000.00000" pt_clust_7="13000.00000" pt_clust_8="13000.00000" pt_clust_9="13000.00000"></scales>
<clustering>
<clus scale="   88.049">  5  6 -1 -1</clus>
<clus scale="   90.914">  7  8 -1 -1</clus>
<clus scale="  113.646">  2  7  1 -1</clus>
<clus scale="   98.813">  5  9 -1 -1</clus>
<clus scale="  254.270">  1  5  2 -1</clus>
</clustering>
</event>
<event>
 9    2  0.3726337E-005  0.2507602E+03  0.7546771E-02  0.1153650E+00
         -1   -1    0    0    0  501 -0.00000000000E+00  0.00000000000E+00  0.26433769940E+02  0.26433769940E+02  0.00000000000E+00 0.  1.
         21   -1    0    0  501  502  0.00000000000E+00 -0.00000000000E+00 -0.11168859061E+04  0.11168859061E+04  0.00000000000E+00 0. -1.
         23    2    1    2    0    0 -0.10294413357E+02  0.12393146456E+02 -0.27084782610E+03  0.28621296706E+03  0.91102977894E+02 0.  0.
         24    2    1    2    0    0 -0.44699002204E+02 -0.81109239573E+02 -0.69170242394E+03  0.70184863454E+03  0.74582524600E+02 0.  0.
        -13    1    4    4    0    0 -0.65544502510E+02 -0.65638858822E+02 -0.52347622366E+03  0.53163135567E+03  0.00000000000E+00 0.  1.
         14    1    4    4    0    0  0.20845500306E+02 -0.15470380751E+02 -0.16822620028E+03  0.17021727887E+03  0.00000000000E+00 0. -1.
        -11    1    3    3    0    0 -0.22810970805E+02  0.45678136993E+02 -0.10708953191E+03  0.11863810700E+03  0.00000000000E+00 0.  1.
         11    1    3    3    0    0  0.12516557449E+02 -0.33284990537E+02 -0.16375829419E+03  0.16757486005E+03  0.00000000000E+00 0. -1.
         -2    1    1    2    0  502  0.54993415561E+02  0.68716093117E+02 -0.12790188611E+03  0.15525807444E+03  0.00000000000E+00 0.  1.
<scales pt_clust_5="13000.00000" pt_clust_6="13000.00000" pt_clust_7="13000.00000" pt_clust_8="13000.00000" pt_clust_9="13000.00000"></scales>
<clustering>
<clus scale="   74.583">  5  6 -1 -1</clus>
<clus scale="   88.012">  5  9 -1 -1</clus>
<clus scale="   91.103">  7  8 -1 -1</clus>
<clus scale="   92.517">  1  7  2 -1</clus>
<clus scale="  250.760">  2  5  1 -1</clus>
</clustering>
</event>
<event>
 9    2  0.3726337E-005  0.2244670E+03  0.7546771E-02  0.1158020E+00
         -3   -1    0    0    0  501 -0.00000000000E+00  0.00000000000E+00  0.64231013973E+03  0.64231013973E+03  0.00000000000E+00 0.  1.
         21   -1    0    0  501  502  0.00000000000E+00 -0.00000000000E+00 -0.56262384222E+02  0.56262384222E+02  0.00000000000E+00 0.  1.
         23    2    1    2    0    0 -0.71914260352E+02 -0.14954412369E+00  0.70064601797E+02  0.13587894719E+03  0.91555210993E+02 0.  0.
         24    2    1    2    0    0  0.13660122388E+03  0.10600626824E+02  0.37037345830E+03  0.40301949690E+03  0.80473278893E+02 0.  0.
        -11    1    4    4    0    0  0.13534860651E+03  0.12318715688E+02  0.26677504200E+03  0.29939926365E+03  0.00000000000E+00 0.  1.
         12    1    4    4    0    0  0.12526173729E+01 -0.17180888643E+01  0.10359841630E+03  0.10362023325E+03  0.00000000000E+00 0. -1.
        -13    1    3    3    0    0 -0.79609538655E+02  0.27849188466E+02  0.64821546053E+02  0.10637240608E+03  0.00000000000E+00 0. -1.
         13    1    3    3    0    0  0.76952783028E+01 -0.27998732590E+02  0.52430557446E+01  0.29506541111E+02  0.00000000000E+00 0.  1.
         -4    1    1    2    0  502 -0.64686963528E+02 -0.10451082700E+02  0.14560969542E+03  0.15967407986E+03  0.00000000000E+00 0.  1.
<scales pt_clust_5="13000.00000" pt_clust_6="13000.00000" pt_clust_7="13000.00000" pt_clust_8="13000.00000" pt_clust_9="13000.00000"></scales>
<clustering>
<clus scale="   80.473">  5  6 -1 -1</clus>
<clus scale="   65.526">  5  9 -1 -1</clus>
<clus scale="   91.555">  7  8 -1 -1</clus>
<clus scale="  116.422">  1  7  2 -1</clus>
<clus scale="  224.467">  2  5  1 -1</clus>
</clustering>
</event>
<event>
 9    2  0.3726337E-005  0.5595396E+03  0.7546771E-02  0.1021224E+00
         21   -1    0    0  501  502  0.00000000000E+00  0.00000000000E+00  0.15774412467E+03  0.15774412467E+03  0.00000000000E+00 0.  1.
         -1   -1    0    0    0  501 -0.00000000000E+00 -0.00000000000E+00 -0.13070900100E+04  0.13070900100E+04  0.00000000000E+00 0.  1.
         23    2    1    2    0    0 -0.27740726959E+02  0.26763230867E+03 -0.67058999696E+03  0.72842953008E+03  0.92314872569E+02 0.  0.
         24    2    1    2    0    0 -0.54802313450E+02  0.73755024732E+02 -0.33556381148E+03  0.35711232179E+03  0.80517337057E+02 0.  0.
        -11    1    4    4    0    0 -0.69991831821E+02  0.44627548729E+02 -0.18144403403E+03  0.19953047915E+03  0.00000000000E+00 0.  1.
         12    1    4    4    0    0  0.15189518371E+02  0.29127476003E+02 -0.15411977745E+03  0.15758184264E+03  0.00000000000E+00 0. -1.
        -11    1    3    3    0    0 -0.16281220711E+02  0.22202015572E+03 -0.44020693203E+03  0.49329521658E+03  0.00000000000E+00 0.  1.
         11    1    3    3    0    0 -0.11459506248E+02  0.45612152953E+02 -0.23038306493E+03  0.23513431350E+03  0.00000000000E+00 0. -1.
         -2    1    1    2    0  502  0.82543040409E+02 -0.34138733340E+03 -0.14319207692E+03  0.37929228284E+03  0.00000000000E+00 0.  1.
<scales pt_clust_5="13000.00000" pt_clust_6="13000.00000" pt_clust_7="13000.00000" pt_clust_8="13000.00000" pt_clust_9="13000.00000"></scales>
<clustering>
<clus scale="   80.517">  5  6 -1 -1</clus>
<clus scale="   92.315">  7  8 -1 -1</clus>
<clus scale="  284.462">  2  7  1 -1</clus>
<clus scale="  237.074">  5  9 -1 -1</clus>
<clus scale="  559.540">  1  5  2 -1</clus>
</clustering>
</event>
<event>
 9    2  0.3726337E-005  0.2159392E+03  0.7546771E-02  0.1173128E+00
         -3   -1    0    0    0  501 -0.00000000000E+00  0.00000000000E+00  0.18525702879E+03  0.18525702879E+03  0.00000000000E+00 0.  1.
         21   -1    0    0  501  502  0.00000000000E+00 -0.00000000000E+00 -0.20409488551E+03  0.20409488551E+03  0.00000000000E+00 0.  1.
         23    2    1    2    0    0  0.13733457091E+02 -0.16498065944E+02 -0.11958423462E+03  0.15106724200E+03  0.89778217914E+02 0.  0.
         24    2    1    2    0    0 -0.82036201200E+02 -0.35394811968E+02  0.24364094952E+02  0.12342654773E+03  0.81595174740E+02 0.  0.
        -13    1    4    4    0    0 -0.83317533598E+02 -0.55752929644E+02  0.16680050824E+02  0.10162885744E+03  0.00000000000E+00 0.  1.
         14    1    4    4    0    0  0.12813323978E+01  0.20358117676E+02  0.76840441279E+01  0.21797690295E+02  0.00000000000E+00 0. -1.
        -13    1    3    3    0    0 -0.35487136351E+02 -0.20317173318E+02 -0.70181446591E+02  0.81225364411E+02  0.00000000000E+00 0.  1.
         13    1    3    3    0    0  0.49220593442E+02  0.38191073744E+01 -0.49402788026E+02  0.69841877585E+02  0.00000000000E+00 0. -1.
         -4    1    1    2    0  502  0.68302744110E+02  0.51892877913E+02  0.76382282943E+02  0.11485812457E+03  0.00000000000E+00 0.  1.
<scales pt_clust_5="13000.00000" pt_clust_6="13000.00000" pt_clust_7="13000.00000" pt_clust_8="13000.00000" pt_clust_9="13000.00000"></scales>
<clustering>
<clus scale="   81.595">  5  6 -1 -1</clus>
<clus scale="   85.780">  5  9 -1 -1</clus>
<clus scale="   89.778">  7  8 -1 -1</clus>
<clus scale="   92.309">  1  7  2 -1</clus>
<clus scale="  215.939">  2  5  1 -1</clus>
</clustering>
</event>
<event>
 9    2  0.3726337E-005  0.3224724E+03  0.7546771E-02  0.1085498E+00
         21   -1    0    0  501  502  0.00000000000E+00  0.00000000000E+00  0.41850842030E+03  0.41850842030E+03  0.00000000000E+00 0. -1.
          2   -1    0    0  502    0 -0.00000000000E+00 -0.00000000000E+00 -0.19394630847E+03  0.19394630847E+03  0.00000000000E+00 0. -1.
         23    2    1    2    0    0  0.25907254666E+02  0.22057859608E+03  0.47452764490E+02  0.24454689148E+03  0.90693518958E+02 0.  0.
         24    2    1    2    0    0 -0.73595421445E+02 -0.43870441885E+02  0.13621806528E+03  0.18036576212E+03  0.81458855296E+02 0.  0.
        -11    1    4    4    0    0 -0.26385532185E+02  0.51061666493E+01 -0.13380803185E+01  0.26908357539E+02  0.00000000000E+00 0.  1.
         12    1    4    4    0    0 -0.47209889261E+02 -0.48976608534E+02  0.13755614560E+03  0.15345740458E+03  0.00000000000E+00 0. -1.
        -11    1    3    3    0    0  0.27951347172E+02  0.10120816000E+03  0.65574135234E+02  0.12379150484E+03  0.00000000000E+00 0.  1.
         11    1    3    3    0    0 -0.20440925056E+01  0.11937043608E+03 -0.18121370744E+02  0.12075538664E+03  0.00000000000E+00 0. -1.
          1    1    1    2  501    0  0.47688166779E+02 -0.17670815420E+03  0.40891282057E+02  0.18754207517E+03  0.00000000000E+00 0. -1.
<scales pt_clust_5="13000.00000" pt_clust_6="13000.00000" pt_clust_7="13000.00000" pt_clust_8="13000.00000" pt_clust_9="13000.00000"></scales>
<clustering>
<clus scale="   81.459">  5  6 -1 -1</clus>
<clus scale="   90.694">  7  8 -1 -1</clus>
<clus scale="  183.030">  5  9 -1 -1</clus>
<clus scale="  239.899">  2  7  1 -1</clus>
<clus scale="  322.472">  1  5  2 -1</clus>
</clustering>
</event>
<event>
 9    2  0.3726337E-005  0.5471233E+03  0.7546771E-02  0.1047913E+00
          2   -1    0    0  502    0 -0.00000000000E+00  0.00000000000E+00  0.29900264757E+03  0.29900264757E+03  0.00000000000E+00 0. -1.
         21   -1    0    0  501  502  0.00000000000E+00 -0.00000000000E+00 -0.62669087417E+03  0.62669087417E+03  0.00000000000E+00 0. -1.
         23    2    1    2    0    0  0.10300957162E+03 -0.18679102611E+02  0.14641010440E+03  0.20173697232E+03  0.91115347819E+02 0.  0.
         24    2    1    2    0    0 -0.23633763089E+02 -0.12392658390E+03  0.63126470320E+02  0.16248759394E+03  0.80628245523E+02 0.  0.
        -11    1    4    4    0    0 -0.43140621315E+02 -0.11829096517E+03  0.40912743715E+02  0.13239228923E+03  0.00000000000E+00 0.  1.
         12    1    4    4    0    0  0.19506858225E+02 -0.56356187260E+01  0.22213726605E+02  0.30095304716E+02  0.00000000000E+00 0. -1.
        -11    1    3    3    0    0  0.38636368342E+02  0.23183503917E+02  0.11496994329E+02  0.46501878361E+02  0.00000000000E+00 0.  1.
         11    1    3    3    0    0  0.64373203282E+02 -0.41862606528E+02  0.13491311007E+03  0.15523509396E+03  0.00000000000E+00 0. -1.
          1    1    1    2  501    0 -0.79375808535E+02  0.14260568651E+03 -0.53722480133E+03  0.56146895548E+03  0.00000000000E+00 0. -1.
<scales pt_clust_5="13000.00000" pt_clust_6="13000.00000" pt_clust_7="13000.00000" pt_clust_8="13000.00000" pt_clust_9="13000.00000"></scales>
<clustering>
<clus scale="   80.628">  5  6 -1 -1</clus>
<clus scale="   91.115">  7  8 -1 -1</clus>
<clus scale="  138.787">  1  7  2 -1</clus>
<clus scale="  156.960">  5  9 -1 -1</clus>
<clus scale="  547.123">  2  5  1 -1</clus>
</clustering>
</event>
<event>
 9    2  0.3726337E-005  0.1834165E+03  0.7546771E-02  0.1190897E+00
         21   -1    0    0  501  502  0.00000000000E+00  0.00000000000E+00  0.15088062167E+03  0.15088062167E+03  0.00000000000E+00 0. -1.
          4   -1    0    0  502    0 -0.00000000000E+00 -0.00000000000E+00 -0.17613904074E+03  0.17613904074E+03  0.00000000000E+00 0. -1.
         23    2    1    2    0    0  0.48565371649E+02  0.49400081091E+01  0.67362585439E+02  0.12154396135E+03  0.88612739607E+02 0.  0.
         24    2    1    2    0    0 -0.43941250284E+02  0.31330818164E+02 -0.12028722370E+03  0.15962403783E+03  0.89990908567E+02 0.  0.
        -11    1    4    4    0    0 -0.10477624342E+02 -0.30280545672E+02 -0.55900174835E+02  0.64432302493E+02  0.00000000000E+00 0.  1.
         12    1    4    4    0    0 -0.33463625943E+02  0.61611363836E+02 -0.64387048863E+02  0.95191735336E+02  0.00000000000E+00 0. -1.
        -11    1    3    3    0    0  0.73791452637E+02  0.63655698212E+01  0.39532738289E+02  0.83955561805E+02  0.00000000000E+00 0. -1.
         11    1    3    3    0    0 -0.25226080987E+02 -0.14255617121E+01  0.27829847150E+02  0.37588399548E+02  0.00000000000E+00 0.  1.
          3    1    1    2  501    0 -0.46241213650E+01 -0.36270826274E+02  0.27666219191E+02  0.45851663234E+02  0.00000000000E+00 0. -1.
<scales pt_clust_5="13000.00000" pt_clust_6="13000.00000" pt_clust_7="13000.00000" pt_clust_8="13000.00000" pt_clust_9="13000.00000"></scales>
<clustering>
<clus scale="   88.613">  7  8 -1 -1</clus>
<clus scale="   89.991">  5  6 -1 -1</clus>
<clus scale="   36.564">  5  9 -1 -1</clus>
<clus scale="  101.169">  2  7  1 -1</clus>
<clus scale="  183.417">  1  5  2 -1</clus>
</clustering>
</event>
<event>
 9    2  0.3726337E-005  0.1321735E+03  0.7546771E-02  0.1243591E+00
          2   -1    0    0  502    0 -0.00000000000E+00  0.00000000000E+00  0.67138749467E+03  0.67138749467E+03  0.00000000000E+00 0. -1.
         21   -1    0    0  501  502  0.00000000000E+00 -0.00000000000E+00 -0.18628925997E+02  0.18628925997E+02  0.00000000000E+00 0. -1.
         23    2    1    2    0    0 -0.28552112181E+01 -0.38879613417E+01  0.31530207185E+03  0.32759852769E+03  0.88781362663E+02 0.  0.
         24    2    1    2    0    0  0.17055952714E+02 -0.33832484288E+02  0.26900483415E+03  0.28298160908E+03  0.79242966649E+02 0.  0.
        -13    1    4    4    0    0 -0.15759762269E+02  0.19586869966E+02  0.76272503732E+02  0.80308843893E+02  0.00000000000E+00 0.  1.
         14    1    4    4    0    0  0.32815714983E+02 -0.53419354255E+02  0.19273233042E+03  0.20267276518E+03  0.00000000000E+00 0. -1.
        -13    1    3    3    0    0  0.41909958194E+02 -0.55405685791E+01  0.18642934315E+03  0.19116234588E+03  0.00000000000E+00 0.  1.
         13    1    3    3    0    0 -0.44765169412E+02  0.16526072374E+01  0.12887272871E+03  0.13643618181E+03  0.00000000000E+00 0. -1.
          1    1    1    2  501    0 -0.14200741496E+02  0.37720445630E+02  0.68451662673E+02  0.79436283903E+02  0.00000000000E+00 0. -1.
<scales pt_clust_5="13000.00000" pt_clust_6="13000.00000" pt_clust_7="13000.00000" pt_clust_8="13000.00000" pt_clust_9="13000.00000"></scales>
<clustering>
<clus scale="   79.243">  5  6 -1 -1</clus>
<clus scale="   40.305">  5  9 -1 -1</clus>
<clus scale="   88.781">  7  8 -1 -1</clus>
<clus scale="   88.912">  1  7  2 -1</clus>
<clus scale="  132.174">  2  5  1 -1</clus>
</clustering>
</event>
<event>
 9    2  0.3726337E-005  0.1974078E+03  0.7546771E-02  0.1176362E+00
         21   -1    0    0  501  502  0.00000000000E+00  0.00000000000E+00  0.31648169467E+02  0.31648169467E+02  0.00000000000E+00 0. -1.
         -3   -1    0    0    0  501 -0.00000000000E+00 -0.00000000000E+00 -0.76864920821E+03  0.76864920821E+03  0.00000000000E+00 0.  1.
         23    2    1    2    0    0  0.36952140691E+02  0.53195883736E+02 -0.22245920212E+03  0.24918654476E+03  0.91709185659E+02 0.  0.
         24    2    1    2    0    0 -0.13611342576E+02 -0.12215632769E+02 -0.49468126346E+03  0.49993841659E+03  0.69959828736E+02 0.  0.
        -11    1    4    4    0    0 -0.24017393651E+02 -0.86463919722E+01 -0.61103268604E+02  0.66220878324E+02  0.00000000000E+00 0.  1.
         12    1    4    4    0    0  0.10406051075E+02 -0.35692407967E+01 -0.43357799485E+03  0.43371753827E+03  0.00000000000E+00 0. -1.
        -11    1    3    3    0    0  0.30824506833E+02 -0.16582342446E+02 -0.36964037266E+02  0.50906427428E+02  0.00000000000E+00 0. -1.
         11    1    3    3    0    0  0.61276338588E+01  0.69778226182E+02 -0.18549516485E+03  0.19828011733E+03  0.00000000000E+00 0.  1.
         -4    1    1    2    0  502 -0.23340798115E+02 -0.40980250967E+02 -0.19860573166E+02  0.51172416324E+02  0.00000000000E+00 0.  1.
<scales pt_clust_5="13000.00000" pt_clust_6="13000.00000" pt_clust_7="13000.00000" pt_clust_8="13000.00000" pt_clust_9="13000.00000"></scales>
<clustering>
<clus scale="   69.960">  5  6 -1 -1</clus>
<clus scale="   47.161">  5  9 -1 -1</clus>
<clus scale="   91.709">  7  8 -1 -1</clus>
<clus scale="  112.276">  2  7  1 -1</clus>
<clus scale="  197.408">  1  5  2 -1</clus>
</clustering>
</event>
<event>
 9    2  0.3726337E-005  0.2163770E+03  0.7546771E-02  0.1171160E+00
         21   -1    0    0  501  502  0.00000000000E+00  0.00000000000E+00  0.79934487800E+02  0.79934487800E+02  0.00000000000E+00 0.  1.
          2   -1    0    0  502    0 -0.00000000000E+00 -0.00000000000E+00 -0.88415337239E+03  0.88415337239E+03  0.00000000000E+00 0. -1.
         23    2    1    2    0    0  0.28191843335E+01  0.27749733723E+02  0.31355879864E+02  0.10095160845E+03  0.91815252131E+02 0.  0.
         24    2    1    2    0    0  0.80840500270E+02  0.26054050779E+02 -0.48020690578E+03  0.49411036507E+03  0.79576255679E+02 0.  0.
        -11    1    4    4    0    0  0.18066881376E+02  0.35677127195E+02 -0.86282511021E+02  0.95099638882E+02  0.00000000000E+00 0.  1.
         12    1    4    4    0    0  0.62773618894E+02 -0.96230764156E+01 -0.39392439476E+03  0.39901072619E+03  0.00000000000E+00 0. -1.
        -11    1    3    3    0    0  0.24052197258E+02  0.16310631934E+02 -0.25834262460E+02  0.38883852997E+02  0.00000000000E+00 0. -1.
         11    1    3    3    0    0 -0.21233012924E+02  0.11439101788E+02  0.57190142324E+02  0.62067755450E+02  0.00000000000E+00 0.  1.
          1    1    1    2  501    0 -0.83659684604E+02 -0.53803784502E+02 -0.35536785867E+03  0.36902588667E+03  0.00000000000E+00 0. -1.
<scales pt_clust_5="13000.00000" pt_clust_6="13000.00000" pt_clust_7="13000.00000" pt_clust_8="13000.00000" pt_clust_9="13000.00000"></scales>
<clustering>
<clus scale="   79.576">  5  6 -1 -1</clus>
<clus scale="   91.815">  7  8 -1 -1</clus>
<clus scale="   95.959">  2  7  1 -1</clus>
<clus scale="   92.524">  5  9 -1 -1</clus>
<clus scale="  216.377">  1  5  2 -1</clus>
</clustering>
</event>
<event>
 9    2  0.3726337E-005  0.2354629E+03  0.7546771E-02  0.1158347E+00
         21   -1    0    0  501  502  0.00000000000E+00  0.00000000000E+00  0.75393721117E+02  0.75393721117E+02  0.00000000000E+00 0.  1.
          2   -1    0    0  502    0 -0.00000000000E+00 -0.00000000000E+00 -0.37630069592E+03  0.37630069592E+03  0.00000000000E+00 0. -1.
         23    2    1    2    0    0 -0.38823443655E+02 -0.50803061294E+01 -0.71969444176E+02  0.12328132636E+03  0.92117399254E+02 0.  0.
         24    2    1    2    0    0 -0.26115756319E+01 -0.97606540405E+02 -0.10413068306E+03  0.16156526039E+03  0.75672168937E+02 0.  0.
        -11    1    4    4    0    0  0.29014857075E+02 -0.82963081828E+02 -0.82511736510E+02  0.12055256754E+03  0.00000000000E+00 0.  1.
         12    1    4    4    0    0 -0.31626432707E+02 -0.14643458577E+02 -0.21618946550E+02  0.41012692850E+02  0.00000000000E+00 0. -1.
        -13    1    3    3    0    0 -0.51057431614E+02 -0.23519853378E+02 -0.81648030270E+02  0.99128430195E+02  0.00000000000E+00 0.  1.
         13    1    3    3    0    0  0.12233987960E+02  0.18439547249E+02  0.96785860940E+01  0.24152896160E+02  0.00000000000E+00 0. -1.
          1    1    1    2  501    0  0.41435019287E+02  0.10268684653E+03 -0.12480684756E+03  0.16684783029E+03  0.00000000000E+00 0. -1.
<scales pt_clust_5="13000.00000" pt_clust_6="13000.00000" pt_clust_7="13000.00000" pt_clust_8="13000.00000" pt_clust_9="13000.00000"></scales>
<clustering>
<clus scale="   75.672">  5  6 -1 -1</clus>
<clus scale="   92.117">  7  8 -1 -1</clus>
<clus scale="  100.093">  2  7  1 -1</clus>
<clus scale="  102.234">  5  9 -1 -1</clus>
<clus scale="  235.463">  1  5  2 -1</clus>
</clustering>
</event>
<event>
 9    2  0.3726337E-005  0.1025502E+04  0.7546771E-02  0.9605854E-01
         21   -1    0    0  501  502  0.00000000000E+00  0.00000000000E+00  0.48002878056E+03  0.48002878056E+03  0.00000000000E+00 0. -1.
         -1   -1    0    0    0  501 -0.00000000000E+00 -0.00000000000E+00 -0.10700516312E+04  0.10700516312E+04  0.00000000000E+00 0.  1.
         23    2    1    2    0    0 -0.15123441749E+03 -0.27187257454E+03  0.68186959119E+02  0.33151804465E+03  0.92022859713E+02 0.  0.
         24    2    1    2    0    0 -0.30575427816E+03  0.15498934345E+03  0.62180601371E+02  0.35748008176E+03  0.80113709635E+02 0.  0.
        -11    1    4    4    0    0 -0.41634121089E+02  0.55768104011E+02  0.65206282740E+01  0.69899928877E+02  0.00000000000E+00 0.  1.
         12    1    4    4    0    0 -0.26412015707E+03  0.99221239444E+02  0.55659973097E+02  0.28758015289E+03  0.00000000000E+00 0. -1.
        -13    1    3    3    0    0 -0.11251593077E+03 -0.11333489564E+03  0.17644277404E+02  0.16067343829E+03  0.00000000000E+00 0.  1.
         13    1    3    3    0    0 -0.38718486721E+02 -0.15853767890E+03  0.50542681715E+02  0.17084460636E+03  0.00000000000E+00 0. -1.
         -2    1    1    2    0  502  0.45698869566E+03  0.11688323109E+03 -0.72039041109E+03  0.86108228530E+03  0.00000000000E+00 0.  1.
<scales pt_clust_5="13000.00000" pt_clust_6="13000.00000" pt_clust_7="13000.00000" pt_clust_8="13000.00000" pt_clust_9="13000.00000"></scales>
<clustering>
<clus scale="   80.114">  5  6 -1 -1</clus>
<clus scale="   92.023">  7  8 -1 -1</clus>
<clus scale="  324.430">  2  7  1 -1</clus>
<clus scale="  348.131">  5  9 -1 -1</clus>
<clus scale=" 1025.502">  1  5  2 -1</clus>
</clustering>
</event>
<event>
 9    2  0.3726337E-005  0.1360976E+03  0.7546771E-02  0.1230535E+00
         -1   -1    0    0    0  501 -0.00000000000E+00  0.00000000000E+00  0.66444177610E+02  0.66444177610E+02  0.00000000000E+00 0.  1.
         21   -1    0    0  501  502  0.00000000000E+00 -0.00000000000E+00 -0.26550696034E+03  0.26550696034E+03  0.00000000000E+00 0. -1.
         23    2    1    2    0    0  0.20875768420E+01 -0.53425297168E+02 -0.21884832035E+02  0.10853544309E+03  0.91882404077E+02 0.  0.
         24    2    1    2    0    0 -0.20806105664E+02  0.21282870693E+02 -0.16113950686E+03  0.18290951531E+03  0.81265586220E+02 0.  0.
        -13    1    4    4    0    0 -0.31764708744E+02 -0.18609834254E+02 -0.37578847234E+02  0.52606961631E+02  0.00000000000E+00 0.  1.
         14    1    4    4    0    0  0.10958603080E+02  0.39892704947E+02 -0.12356065962E+03  0.13030255368E+03  0.00000000000E+00 0. -1.
        -11    1    3    3    0    0  0.17222582680E+02 -0.27422910759E+02  0.32817950830E+02  0.46104785926E+02  0.00000000000E+00 0.  1.
         11    1    3    3    0    0 -0.15135005838E+02 -0.26002386409E+02 -0.54702782865E+02  0.62430657163E+02  0.00000000000E+00 0. -1.
         -2    1    1    2    0  502  0.18718528822E+02  0.32142426475E+02 -0.16038443839E+02  0.40506179550E+02  0.00000000000E+00 0.  1.
<scales pt_clust_5="13000.00000" pt_clust_6="13000.00000" pt_clust_7="13000.00000" pt_clust_8="13000.00000" pt_clust_9="13000.00000"></scales>
<clustering>
<clus scale="   81.266">  5  6 -1 -1</clus>
<clus scale="   37.196">  5  9 -1 -1</clus>
<clus scale="   91.882">  7  8 -1 -1</clus>
<clus scale="  106.306">  1  7  2 -1</clus>
<clus scale="  136.098">  2  5  1 -1</clus>
</clustering>
</event>
<event>
 9    2  0.3726337E-005  0.5834644E+03  0.7546771E-02  0.1011730E+00
         21   -1    0    0  501  502  0.00000000000E+00  0.00000000000E+00  0.22288726539E+03  0.22288726539E+03  0.00000000000E+00 0.  1.
         -1   -1    0    0    0  501 -0.00000000000E+00 -0.00000000000E+00 -0.10779486019E+04  0.10779486019E+04  0.00000000000E+00 0.  1.
         23    2    1    2    0    0  0.27422262516E+03 -0.16993577487E+03 -0.54585511116E+03  0.64050324471E+03  0.90611193446E+02 0.  0.
         24    2    1    2    0    0  0.36945915644E+02 -0.19953879745E+02 -0.27983748594E+03  0.29461898520E+03  0.82025422293E+02 0.  0.
        -11    1    4    4    0    0 -0.13704164876E+02 -0.33857801936E+02 -0.79140845232E+02  0.87163227745E+02  0.00000000000E+00 0.  1.
         12    1    4    4    0    0  0.50650080519E+02  0.13903922192E+02 -0.20069664071E+03  0.20745575745E+03  0.00000000000E+00 0. -1.
        -13    1    3    3    0    0  0.53778977018E+01 -0.19303504678E+02 -0.76046361851E+02  0.78642203856E+02  0.00000000000E+00 0. -1.
         13    1    3    3    0    0  0.26884472746E+03 -0.15063227019E+03 -0.46980874931E+03  0.56186104086E+03  0.00000000000E+00 0.  1.
         -2    1    1    2    0  502 -0.31116854081E+03  0.18988965461E+03 -0.29368739422E+02  0.36571363739E+03  0.00000000000E+00 0.  1.
<scales pt_clust_5="13000.00000" pt_clust_6="13000.00000" pt_clust_7="13000.00000" pt_clust_8="13000.00000" pt_clust_9="13000.00000"></scales>
<clustering>
<clus scale="   82.025">  5  6 -1 -1</clus>
<clus scale="   90.611">  7  8 -1 -1</clus>
<clus scale="  335.092">  2  7  1 -1</clus>
<clus scale="  233.076">  5  9 -1 -1</clus>
<clus scale="  583.464">  1  5  2 -1</clus>
</clustering>
</event>
<event>
 9    2  0.3726337E-005  0.3238874E+03  0.7546771E-02  0.1104190E+00
         -1   -1    0    0    0  501 -0.00000000000E+00  0.00000000000E+00  0.16077276647E+03  0.16077276647E+03  0.00000000000E+00 0.  1.
         21   -1    0    0  501  502  0.00000000000E+00 -0.00000000000E+00 -0.47399475245E+03  0.47399475245E+03  0.00000000000E+00 0.  1.
         23    2    1    2    0    0  0.49184028018E+02  0.10159845791E+03 -0.27198581852E+03  0.30826564757E+03  0.91159797790E+02 0.  0.
         24    2    1    2    0    0  0.49274873595E+02  0.76222043517E+02 -0.17031063163E+02  0.12180655360E+03  0.79429001638E+02 0.  0.
        -11    1    4    4    0    0  0.41451680506E+01  0.36011599988E+02  0.28516775450E+02  0.46121841181E+02  0.00000000000E+00 0.  1.
         12    1    4    4    0    0  0.45129705544E+02  0.40210443529E+02 -0.45547838613E+02  0.75684712417E+02  0.00000000000E+00 0. -1.
        -11    1    3    3    0    0 -0.72885740740E+01  0.78970637010E+02 -0.11313098808E+03  0.13815970935E+03  0.00000000000E+00 0.  1.
         11    1    3    3    0    0  0.56472602092E+02  0.22627820901E+02 -0.15885483043E+03  0.17010593822E+03  0.00000000000E+00 0. -1.
         -2    1    1    2    0  502 -0.98458901613E+02 -0.17782050143E+03 -0.24205104298E+02  0.20469531775E+03  0.00000000000E+00 0.  1.
<scales pt_clust_5="13000.00000" pt_clust_6="13000.00000" pt_clust_7="13000.00000" pt_clust_8="13000.00000" pt_clust_9="13000.00000"></scales>
<clustering>
<clus scale="   79.429">  5  6 -1 -1</clus>
<clus scale="   91.160">  7  8 -1 -1</clus>
<clus scale="  145.091">  1  7  2 -1</clus>
<clus scale="  132.006">  5  9 -1 -1</clus>
<clus scale="  323.887">  2  5  1 -1</clus>
</clustering>
</event>
<event>
 9    2  0.3726337E-005  0.1627750E+03  0.7546771E-02  0.1203920E+00
         21   -1    0    0  501  502  0.00000000000E+00  0.00000000000E+00  0.55092030926E+02  0.55092030926E+02  0.00000000000E+00 0.  1.
          2   -1    0    0  502    0 -0.00000000000E+00 -0.00000000000E+00 -0.34356949071E+03  0.34356949071E+03  0.00000000000E+00 0. -1.
         23    2    1    2    0    0  0.58867365792E+02  0.14489999345E+01 -0.14717090659E+03  0.18310818381E+03  0.91661687074E+02 0.  0.
         24    2    1    2    0    0 -0.10120670228E+01 -0.40185537088E+02 -0.85995888678E+02  0.12663188644E+03  0.83811933063E+02 0.  0.
        -13    1    4    4    0    0 -0.33655936479E+02 -0.28402027198E+02 -0.80129894083E+02  0.91434113629E+02  0.00000000000E+00 0.  1.
         14    1    4    4    0    0  0.32643869457E+02 -0.11783509890E+02 -0.58659945944E+01  0.35197772813E+02  0.00000000000E+00 0. -1.
        -11    1    3    3    0    0  0.71433809281E+02  0.29266798812E+02 -0.11712670616E+03  0.14027829453E+03  0.00000000000E+00 0.  1.
         11    1    3    3    0    0 -0.12566443489E+02 -0.27817798878E+02 -0.30044200425E+02  0.42829889278E+02  0.00000000000E+00 0. -1.
          1    1    1    2  501    0 -0.57855298769E+02  0.38736537153E+02 -0.55310664522E+02  0.88921451383E+02  0.00000000000E+00 0. -1.
<scales pt_clust_5="13000.00000" pt_clust_6="13000.00000" pt_clust_7="13000.00000" pt_clust_8="13000.00000" pt_clust_9="13000.00000"></scales>
<clustering>
<clus scale="   83.812">  5  6 -1 -1</clus>
<clus scale="   69.626">  5  9 -1 -1</clus>
<clus scale="   91.662">  7  8 -1 -1</clus>
<clus scale="  108.946">  2  7  1 -1</clus>
<clus scale="  162.775">  1  5  2 -1</clus>
</clustering>
</event>
<event>
 9    2  0.3726337E-005  0.1423402E+03  0.7546771E-02  0.1224597E+00
         -1   -1    0    0    0  501 -0.00000000000E+00  0.00000000000E+00  0.24627430281E+03  0.24627430281E+03  0.00000000000E+00 0.  1.
         21   -1    0    0  501  502  0.00000000000E+00 -0.00000000000E+00 -0.62162236907E+02  0.62162236907E+02  0.00000000000E+00 0.  1.
         23    2    1    2    0    0  0.19468930329E+02  0.49892561365E+02  0.76269503875E+02  0.12985673882E+03  0.90429135055E+02 0.  0.
         24    2    1    2    0    0  0.59002269348E+01  0.42956612336E+01  0.44118315347E+02  0.91168490285E+02  0.79448111925E+02 0.  0.
        -11    1    4    4    0    0  0.16294929593E+02  0.36597752661E+02  0.66354836940E+01  0.40607263810E+02  0.00000000000E+00 0.  1.
         12    1    4    4    0    0 -0.10394702658E+02 -0.32302091427E+02  0.37482831653E+02  0.50561226475E+02  0.00000000000E+00 0. -1.
        -13    1    3    3    0    0 -0.30159944800E+02  0.30281595066E+02  0.84599426241E+01  0.43567968731E+02  0.00000000000E+00 0. -1.
         13    1    3    3    0    0  0.49628875129E+02  0.19610966298E+02  0.67809561251E+02  0.86288770085E+02  0.00000000000E+00 0.  1.
         -2    1    1    2    0  502 -0.25369157264E+02 -0.54188222598E+02  0.63724246685E+02  0.87411310619E+02  0.00000000000E+00 0.  1.
<scales pt_clust_5="13000.00000" pt_clust_6="13000.00000" pt_clust_7="13000.00000" pt_clust_8="13000.00000" pt_clust_9="13000.00000"></scales>
<clustering>
<clus scale="   79.448">  5  6 -1 -1</clus>
<clus scale="   59.833">  5  9 -1 -1</clus>
<clus scale="   90.429">  7  8 -1 -1</clus>
<clus scale="  105.099">  1  7  2 -1</clus>
<clus scale="  142.340">  2  5  1 -1</clus>
</clustering>
</event>
<event>
 9    2  0.3726337E-005  0.2438407E+03  0.7546771E-02  0.1137524E+00
         21   -1    0    0  501  502  0.00000000000E+00  0.00000000000E+00  0.56897645488E+02  0.56897645488E+02  0.00000000000E+00 0. -1.
          2   -1    0    0  502    0 -0.00000000000E+00 -0.00000000000E+00 -0.71087120863E+03  0.71087120863E+03  0.00000000000E+00 0. -1.
         23    2    1    2    0    0 -0.75296917089E+01  0.11544721657E+03 -0.16639448706E+03  0.22261598747E+03  0.92119468521E+02 0.  0.
         24    2    1    2    0    0  0.40306979633E+02 -0.34964032040E+02 -0.70033594896E+02  0.11866005023E+03  0.79551033705E+02 0.  0.
        -11    1    4    4    0    0  0.44606810363E+02  0.51484399083E+01 -0.63530247866E+02  0.77796955970E+02  0.00000000000E+00 0.  1.
         12    1    4    4    0    0 -0.42998307303E+01 -0.40112471948E+02 -0.65033470294E+01  0.40863094262E+02  0.00000000000E+00 0. -1.
        -11    1    3    3    0    0 -0.21821469273E+02  0.11817742027E+01 -0.20598668658E+01  0.21950311228E+02  0.00000000000E+00 0.  1.
         11    1    3    3    0    0  0.14291777564E+02  0.11426544237E+03 -0.16433462020E+03  0.20066567624E+03  0.00000000000E+00 0. -1.
          1    1    1    2  501    0 -0.32777287924E+02 -0.80483184534E+02 -0.41754548118E+03  0.42649281641E+03  0.00000000000E+00 0. -1.
<scales pt_clust_5="13000.00000" pt_clust_6="13000.00000" pt_clust_7="13000.00000" pt_clust_8="13000.00000" pt_clust_9="13000.00000"></scales>
<clustering>
<clus scale="   79.551">  5  6 -1 -1</clus>
<clus scale="   86.902">  5  9 -1 -1</clus>
<clus scale="   92.119">  7  8 -1 -1</clus>
<clus scale="  147.888">  2  7  1 -1</clus>
<clus scale="  243.841">  1  5  2 -1</clus>
</clustering>
</event>
<event>
 9    2  0.3726337E-005  0.1315568E+03  0.7546771E-02  0.1236171E+00
         21   -1    0    0  501  502  0.00000000000E+00  0.00000000000E+00  0.17033541611E+03  0.17033541611E+03  0.00000000000E+00 0.  1.
         -1   -1    0    0    0  501 -0.00000000000E+00 -0.00000000000E+00 -0.83993296188E+02  0.83993296188E+02  0.00000000000E+00 0.  1.
         23    2    1    2    0    0 -0.38982567270E+02 -0.33673372390E+02  0.57786841847E+02  0.11970855047E+03  0.91308714837E+02 0.  0.
         24    2    1    2    0    0  0.25082403487E+02  0.69810842192E+01  0.49550297505E+02  0.97925698458E+02  0.80351402813E+02 0.  0.
        -13    1    4    4    0    0  0.26083463986E+02 -0.27106215234E+01  0.70283945088E+02  0.75016848106E+02  0.00000000000E+00 0.  1.
         14    1    4    4    0    0 -0.10010604993E+01  0.96917057426E+01 -0.20733647583E+02  0.22908850352E+02  0.00000000000E+00 0. -1.
        -13    1    3    3    0    0 -0.45709845028E+02  0.14607013303E+02  0.51773661579E+02  0.70592257390E+02  0.00000000000E+00 0.  1.
         13    1    3    3    0    0  0.67272777581E+01 -0.48280385693E+02  0.60131802684E+01  0.49116293077E+02  0.00000000000E+00 0. -1.
         -2    1    1    2    0  502  0.13900163783E+02  0.26692288171E+02 -0.20995019434E+02  0.36694463370E+02  0.00000000000E+00 0.  1.
<scales pt_clust_5="13000.00000" pt_clust_6="13000.00000" pt_clust_7="13000.00000" pt_clust_8="13000.00000" pt_clust_9="13000.00000"></scales>
<clustering>
<clus scale="   80.351">  5  6 -1 -1</clus>
<clus scale="   30.095">  5  9 -1 -1</clus>
<clus scale="   91.309">  7  8 -1 -1</clus>
<clus scale="  104.837">  2  7  1 -1</clus>
<clus scale="  131.557">  1  5  2 -1</clus>
</clustering>
</event>
<event>
 9    2  0.3726337E-005  0.2198319E+03  0.7546771E-02  0.1166705E+00
          4   -1    0    0  502    0 -0.00000000000E+00  0.00000000000E+00  0.11031632625E+03  0.11031632625E+03  0.00000000000E+00 0. -1.
         21   -1    0    0  501  502  0.00000000000E+00 -0.00000000000E+00 -0.74885914224E+03  0.74885914224E+03  0.00000000000E+00 0. -1.
         23    2    1    2    0    0  0.23656178584E+01  0.47983751195E+02  0.66130712591E+02  0.12100825311E+03  0.89228300699E+02 0.  0.
         24    2    1    2    0    0  0.18075122150E+02  0.61766945364E+02 -0.26557346363E+03  0.28509778771E+03  0.81299559596E+02 0.  0.
        -11    1    4    4    0    0  0.13157529721E+02 -0.15264723174E+02 -0.23203096986E+02  0.30732980195E+02  0.00000000000E+00 0.  1.
         12    1    4    4    0    0  0.49175924292E+01  0.77031668539E+02 -0.24237036664E+03  0.25436480751E+03  0.00000000000E+00 0. -1.
        -11    1    3    3    0    0  0.34660232008E+02  0.13346694067E-01  0.20917219822E+01  0.34723294225E+02  0.00000000000E+00 0.  1.
         11    1    3    3    0    0 -0.32294614150E+02  0.47970404501E+02  0.64038990609E+02  0.86284958882E+02  0.00000000000E+00 0. -1.
          3    1    1    2  501    0 -0.20440740009E+02 -0.10975069656E+03 -0.43910006496E+03  0.45306942768E+03  0.00000000000E+00 0. -1.
<scales pt_clust_5="13000.00000" pt_clust_6="13000.00000" pt_clust_7="13000.00000" pt_clust_8="13000.00000" pt_clust_9="13000.00000"></scales>
<clustering>
<clus scale="   81.300">  5  6 -1 -1</clus>
<clus scale="   89.228">  7  8 -1 -1</clus>
<clus scale="  101.340">  1  7  2 -1</clus>
<clus scale="   91.822">  5  9 -1 -1</clus>
<clus scale="  219.832">  2  5  1 -1</clus>
</clustering>
</event>
<event>
 9    2  0.3726337E-005  0.1555137E+03  0.7546771E-02  0.1220962E+00
          2   -1    0    0  502    0 -0.00000000000E+00  0.00000000000E+00  0.26745438268E+03  0.26745438268E+03  0.00000000000E+00 0. -1.
         21   -1    0    0  501  502  0.00000000000E+00 -0.00000000000E+00 -0.58063956431E+02  0.58063956431E+02  0.00000000000E+00 0. -1.
         23    2    1    2    0    0 -0.25818683369E+02 -0.28955116938E+00  0.40448314814E+02  0.95897003852E+02  0.83026989141E+02 0.  0.
         24    2    1    2    0    0 -0.30487604765E+01  0.19094409627E+02  0.32304908328E+02  0.88707612404E+02  0.80321491377E+02 0.  0.
        -11    1    4    4    0    0 -0.40587693587E+02  0.74691267931E+00  0.12551135063E+02  0.42490584141E+02  0.00000000000E+00 0.  1.
         12    1    4    4    0    0  0.37538933111E+02  0.18347496948E+02  0.19753773265E+02  0.46217028264E+02  0.00000000000E+00 0. -1.
        -11    1    3    3    0    0  0.12104147372E+02 -0.28239593181E+02 -0.41765458117E+01  0.31006911190E+02  0.00000000000E+00 0.  1.
         11    1    3    3    0    0 -0.37922830741E+02  0.27950042012E+02  0.44624860625E+02  0.64890092662E+02  0.00000000000E+00 0. -1.
          1    1    1    2  501    0  0.28867443845E+02 -0.18804858457E+02  0.13663720311E+03  0.14091372286E+03  0.00000000000E+00 0. -1.
<scales pt_clust_5="13000.00000" pt_clust_6="13000.00000" pt_clust_7="13000.00000" pt_clust_8="13000.00000" pt_clust_9="13000.00000"></scales>
<clustering>
<clus scale="   80.321">  5  6 -1 -1</clus>
<clus scale="   34.452">  5  9 -1 -1</clus>
<clus scale="   83.027">  7  8 -1 -1</clus>
<clus scale="   86.949">  1  7  2 -1</clus>
<clus scale="  155.514">  2  5  1 -1</clus>
</clustering>
</event>
<event>
 9    2  0.3726337E-005  0.2447794E+03  0.7546771E-02  0.1146505E+00
         21   -1    0    0  501  502  0.00000000000E+00  0.00000000000E+00  0.17654477788E+03  0.17654477788E+03  0.00000000000E+00 0.  1.
         -3   -1    0    0    0  501 -0.00000000000E+00 -0.00000000000E+00 -0.22490652714E+03  0.22490652714E+03  0.00000000000E+00 0.  1.
         23    2    1    2    0    0 -0.21137414137E+02 -0.69261066228E+02 -0.96131317166E+02  0.15205423891E+03  0.92926723062E+02 0.  0.
         24    2    1    2    0    0  0.11208160928E+03  0.49624222227E+02  0.81194462614E+01  0.14826060177E+03  0.83008614378E+02 0.  0.
        -13    1    4    4    0    0  0.86830881325E+02  0.61342989053E+01  0.31801499219E+02  0.92674521457E+02  0.00000000000E+00 0.  1.
         14    1    4    4    0    0  0.25250727953E+02  0.43489923322E+02 -0.23682052958E+02  0.55586080317E+02  0.00000000000E+00 0. -1.
        -13    1    3    3    0    0  0.19154943639E+02 -0.74483160047E+02 -0.67763796276E+02  0.10250163453E+03  0.00000000000E+00 0.  1.
         13    1    3    3    0    0 -0.40292357776E+02  0.52220938193E+01 -0.28367520889E+02  0.49552604376E+02  0.00000000000E+00 0. -1.
         -4    1    1    2    0  502 -0.90944195140E+02  0.19636844000E+02  0.39650121649E+02  0.10113646434E+03  0.00000000000E+00 0.  1.
<scales pt_clust_5="13000.00000" pt_clust_6="13000.00000" pt_clust_7="13000.00000" pt_clust_8="13000.00000" pt_clust_9="13000.00000"></scales>
<clustering>
<clus scale="   83.009">  5  6 -1 -1</clus>
<clus scale="   92.927">  7  8 -1 -1</clus>
<clus scale="   93.040">  5  9 -1 -1</clus>
<clus scale="  117.810">  2  7  1 -1</clus>
<clus scale="  244.779">  1  5  2 -1</clus>
</clustering>
</event>
<event>
 9    2  0.3726337E-005  0.1636985E+03  0.7546771E-02  0.1203570E+00
         21   -1    0    0  501  502  0.00000000000E+00  0.00000000000E+00  0.34929423964E+03  0.34929423964E+03  0.00000000000E+00 0. -1.
         -1   -1    0    0    0  501 -0.00000000000E+00 -0.00000000000E+00 -0.55738081912E+02  0.55738081912E+02  0.00000000000E+00 0.  1.
         23    2    1    2    0    0 -0.46615031259E+02 -0.71421419523E+01  0.72710554010E+02  0.13013237850E+03  0.97075434267E+02 0.  0.
         24    2    1    2    0    0  0.68960769471E+02  0.84061775033E+01  0.22677924964E+03  0.25174529005E+03  0.84383715535E+02 0.  0.
        -13    1    4    4    0    0  0.49937124444E+02 -0.86723594727E+01  0.43797214140E+02  0.66985984975E+02  0.00000000000E+00 0.  1.
         14    1    4    4    0    0  0.19023645027E+02  0.17078536976E+02  0.18298203550E+03  0.18475930507E+03  0.00000000000E+00 0. -1.
        -11    1    3    3    0    0  0.25482448723E+02  0.38271274335E+01 -0.18523575682E+01  0.25834731000E+02  0.00000000000E+00 0. -1.
         11    1    3    3    0    0 -0.72097479981E+02 -0.10969269386E+02  0.74562911578E+02  0.10429764750E+03  0.00000000000E+00 0.  1.
         -2    1    1    2    0  502 -0.22345738213E+02 -0.12640355510E+01 -0.59336459191E+01  0.23154653010E+02  0.00000000000E+00 0.  1.
<scales pt_clust_5="13000.00000" pt_clust_6="13000.00000" pt_clust_7="13000.00000" pt_clust_8="13000.00000" pt_clust_9="13000.00000"></scales>
<clustering>
<clus scale="   84.384">  5  6 -1 -1</clus>
<clus scale="   22.381">  5  9 -1 -1</clus>
<clus scale="   97.075">  7  8 -1 -1</clus>
<clus scale="  107.924">  2  7  1 -1</clus>
<clus scale="  163.698">  1  5  2 -1</clus>
</clustering>
</event>
<event>
 9    2  0.4811479E-005  0.2344146E+03  0.7546771E-02  0.1147947E+00
         -1   -1    0    0    0  501 -0.00000000000E+00  0.00000000000E+00  0.24782159015E+03  0.24782159015E+03  0.00000000000E+00 0.  1.
         21   -1    0    0  501  502  0.00000000000E+00 -0.00000000000E+00 -0.28355740175E+03  0.28355740175E+03  0.00000000000E+00 0.  1.
         23    2    1    2    0    0 -0.40473716161E+02  0.81509329150E+02  0.17390814363E+03  0.21689405256E+03  0.92288109607E+02 0.  0.
         24    2    1    2    0    0 -0.49088581664E+01  0.47408986254E+02 -0.81943524647E+02  0.12743705759E+03  0.85168970576E+02 0.  0.
        -11    1    4    4    0    0 -0.19242955340E+02  0.56785281259E+02 -0.90289276103E+02  0.10838363750E+03  0.00000000000E+00 0.  1.
         12    1    4    4    0    0  0.14334097174E+02 -0.93762950047E+01  0.83457514564E+01  0.19053420091E+02  0.00000000000E+00 0. -1.
        -11    1    3    3    0    0 -0.60916380974E+02  0.66107149195E+02  0.16813183321E+03  0.19065485566E+03  0.00000000000E+00 0.  1.
         11    1    3    3    0    0  0.20442664813E+02  0.15402179955E+02  0.57763104198E+01  0.26239196902E+02  0.00000000000E+00 0. -1.
         -2    1    1    2    0  502  0.45382574328E+02 -0.12891831540E+03 -0.12770043058E+03  0.18704788176E+03  0.00000000000E+00 0.  1.
<scales pt_clust_5="13000.00000" pt_clust_6="13000.00000" pt_clust_7="13000.00000" pt_clust_8="13000.00000" pt_clust_9="13000.00000"></scales>
<clustering>
<clus scale="   85.169">  5  6 -1 -1</clus>
<clus scale="   92.288">  7  8 -1 -1</clus>
<clus scale="  129.611">  1  7  2 -1</clus>
<clus scale="   85.774">  5  9 -1 -1</clus>
<clus scale="  234.415">  2  5  1 -1</clus>
</clustering>
</event>
<event>
 9    2  0.3726337E-005  0.1672482E+03  0.7546771E-02  0.1193976E+00
         -1   -1    0    0    0  501 -0.00000000000E+00  0.00000000000E+00  0.43381714345E+03  0.43381714345E+03  0.00000000000E+00 0.  1.
         21   -1    0    0  501  502  0.00000000000E+00 -0.00000000000E+00 -0.11623430451E+03  0.11623430451E+03  0.00000000000E+00 0.  1.
         23    2    1    2    0    0  0.60759606411E+02 -0.59301411463E+02 -0.59036137822E+02  0.13796672883E+03  0.91329981508E+02 0.  0.
         24    2    1    2    0    0 -0.60596527482E+01  0.25882328673E+02  0.11596553297E+03  0.14366501458E+03  0.80529604800E+02 0.  0.
        -13    1    4    4    0    0 -0.17573301870E+02 -0.26142071154E+02  0.41562319832E+02  0.52150314023E+02  0.00000000000E+00 0.  1.
         14    1    4    4    0    0  0.11513649122E+02  0.52024399827E+02  0.74403213138E+02  0.91514700561E+02  0.00000000000E+00 0. -1.
        -11    1    3    3    0    0  0.64965360618E+02 -0.28873505714E+02  0.36470144006E+00  0.71093673555E+02  0.00000000000E+00 0.  1.
         11    1    3    3    0    0 -0.42057542071E+01 -0.30427905749E+02 -0.59400839262E+02  0.66873055275E+02  0.00000000000E+00 0. -1.
         -2    1    1    2    0  502 -0.54699953663E+02  0.33419082791E+02  0.26065344380E+03  0.26841970454E+03  0.00000000000E+00 0.  1.
<scales pt_clust_5="13000.00000" pt_clust_6="13000.00000" pt_clust_7="13000.00000" pt_clust_8="13000.00000" pt_clust_9="13000.00000"></scales>
<clustering>
<clus scale="   80.530">  5  6 -1 -1</clus>
<clus scale="   64.101">  5  9 -1 -1</clus>
<clus scale="   91.330">  7  8 -1 -1</clus>
<clus scale="  124.698">  1  7  2 -1</clus>
<clus scale="  167.248">  2  5  1 -1</clus>
</clustering>
</event>
<event>
 9    2  0.3726337E-005  0.1400269E+03  0.7546771E-02  0.1232116E+00
         21   -1    0    0  501  502  0.00000000000E+00  0.00000000000E+00  0.25711107868E+03  0.25711107868E+03  0.00000000000E+00 0.  1.
         -1   -1    0    0    0  501 -0.00000000000E+00 -0.00000000000E+00 -0.12577143731E+03  0.12577143731E+03  0.00000000000E+00 0.  1.
         23    2    1    2    0    0  0.13697617790E+02  0.22117074046E+02 -0.83732822556E+02  0.12624325718E+03  0.90826123520E+02 0.  0.
         24    2    1    2    0    0  0.89253806108E+01 -0.57260695556E+02  0.15670088509E+03  0.18484709067E+03  0.79087482376E+02 0.  0.
        -13    1    4    4    0    0  0.16698576220E+02 -0.47055318669E+02  0.16305685093E+03  0.17053029672E+03  0.00000000000E+00 0.  1.
         14    1    4    4    0    0 -0.77731956096E+01 -0.10205376887E+02 -0.63559658434E+01  0.14316793956E+02  0.00000000000E+00 0. -1.
        -13    1    3    3    0    0  0.35040902579E+02 -0.24743493890E+02 -0.40800481393E+02  0.59201221485E+02  0.00000000000E+00 0.  1.
         13    1    3    3    0    0 -0.21343284789E+02  0.46860567936E+02 -0.42932341163E+02  0.67042035699E+02  0.00000000000E+00 0. -1.
         -2    1    1    2    0  502 -0.22622998400E+02  0.35143621509E+02  0.58371578831E+02  0.71792168129E+02  0.00000000000E+00 0.  1.
<scales pt_clust_5="13000.00000" pt_clust_6="13000.00000" pt_clust_7="13000.00000" pt_clust_8="13000.00000" pt_clust_9="13000.00000"></scales>
<clustering>
<clus scale="   79.087">  5  6 -1 -1</clus>
<clus scale="   41.796">  5  9 -1 -1</clus>
<clus scale="   90.826">  7  8 -1 -1</clus>
<clus scale="   94.478">  2  7  1 -1</clus>
<clus scale="  140.027">  1  5  2 -1</clus>
</clustering>
</event>
<event>
 9    2  0.3726337E-005  0.1361622E+03  0.7546771E-02  0.1231933E+00
         -1   -1    0    0    0  501 -0.00000000000E+00  0.00000000000E+00  0.40220334139E+02  0.40220334139E+02  0.00000000000E+00 0.  1.
         21   -1    0    0  501  502  0.00000000000E+00 -0.00000000000E+00 -0.41908441492E+03  0.41908441492E+03  0.00000000000E+00 0.  1.
         23    2    1    2    0    0  0.15556890707E+02 -0.45129723539E+02 -0.78817731992E+02  0.12980824904E+03  0.91428867685E+02 0.  0.
         24    2    1    2    0    0  0.24766600170E+02  0.13925368259E+02 -0.17014601214E+03  0.18994796665E+03  0.79518955114E+02 0.  0.
        -13    1    4    4    0    0  0.49197774519E+02  0.64388382024E+01 -0.14813039433E+03  0.15621937581E+03  0.00000000000E+00 0.  1.
         14    1    4    4    0    0 -0.24431174349E+02  0.74865300563E+01 -0.22015617811E+02  0.33728590839E+02  0.00000000000E+00 0. -1.
        -13    1    3    3    0    0 -0.12425060665E+02 -0.61890718735E+02 -0.27173275367E+02  0.68725760034E+02  0.00000000000E+00 0.  1.
         13    1    3    3    0    0  0.27981951372E+02  0.16760995196E+02 -0.51644456626E+02  0.61082489002E+02  0.00000000000E+00 0. -1.
         -2    1    1    2    0  502 -0.40323490877E+02  0.31204355280E+02 -0.12990033665E+03  0.13954853338E+03  0.00000000000E+00 0.  1.
<scales pt_clust_5="13000.00000" pt_clust_6="13000.00000" pt_clust_7="13000.00000" pt_clust_8="13000.00000" pt_clust_9="13000.00000"></scales>
<clustering>
<clus scale="   79.519">  5  6 -1 -1</clus>
<clus scale="   50.987">  5  9 -1 -1</clus>
<clus scale="   91.429">  7  8 -1 -1</clus>
<clus scale="  103.140">  1  7  2 -1</clus>
<clus scale="  136.162">  2  5  1 -1</clus>
</clustering>
</event>
<event>
 9    2  0.3726337E-005  0.2957793E+03  0.7546771E-02  0.1119047E+00
         21   -1    0    0  501  502  0.00000000000E+00  0.00000000000E+00  0.39192827165E+03  0.39192827165E+03  0.00000000000E+00 0. -1.
          2   -1    0    0  502    0 -0.00000000000E+00 -0.00000000000E+00 -0.11610184286E+03  0.11610184286E+03  0.00000000000E+00 0. -1.
         23    2    1    2    0    0  0.85804863873E+02  0.35186594569E+02  0.92080730245E+02  0.15982348248E+03  0.92000617213E+02 0.  0.
         24    2    1    2    0    0 -0.11685216974E+03 -0.13098158217E+03  0.13801249383E+03  0.23760762271E+03  0.81236257151E+02 0.  0.
        -13    1    4    4    0    0 -0.66611268831E+02 -0.96798291279E+02  0.43603503833E+02  0.12533250128E+03  0.00000000000E+00 0.  1.
         14    1    4    4    0    0 -0.50240900907E+02 -0.34183290887E+02  0.94408989996E+02  0.11227512143E+03  0.00000000000E+00 0. -1.
        -11    1    3    3    0    0  0.69825458127E+02  0.61095630010E+02  0.90081881589E+02  0.12931750075E+03  0.00000000000E+00 0. -1.
         11    1    3    3    0    0  0.15979405746E+02 -0.25909035441E+02  0.19988486568E+01  0.30505981732E+02  0.00000000000E+00 0.  1.
          1    1    1    2  501    0  0.31047305865E+02  0.95794987597E+02  0.45733204718E+02  0.11059900933E+03  0.00000000000E+00 0. -1.
<scales pt_clust_5="13000.00000" pt_clust_6="13000.00000" pt_clust_7="13000.00000" pt_clust_8="13000.00000" pt_clust_9="13000.00000"></scales>
<clustering>
<clus scale="   81.236">  5  6 -1 -1</clus>
<clus scale="   92.001">  7  8 -1 -1</clus>
<clus scale="  100.701">  5  9 -1 -1</clus>
<clus scale="  130.632">  2  7  1 -1</clus>
<clus scale="  295.779">  1  5  2 -1</clus>
</clustering>
</event>
<event>
 9    2  0.3726337E-005  0.2752091E+03  0.7546771E-02  0.1127197E+00
         -1   -1    0    0    0  501 -0.00000000000E+00  0.00000000000E+00  0.38930227168E+02  0.38930227168E+02  0.00000000000E+00 0.  1.
         21   -1    0    0  501  502  0.00000000000E+00 -0.00000000000E+00 -0.11964279874E+04  0.11964279874E+04  0.00000000000E+00 0.  1.
         23    2    1    2    0    0  0.93182485832E+02 -0.29329766023E+02 -0.20625194548E+03  0.24510135995E+03  0.89395753784E+02 0.  0.
         24    2    1    2    0    0  0.31964670878E+02 -0.57168638883E+02 -0.21516754905E+03  0.23862197110E+03  0.79708076571E+02 0.  0.
        -13    1    4    4    0    0  0.48372180350E+02 -0.92700796101E+01 -0.76333466320E+02  0.90843823611E+02  0.00000000000E+00 0.  1.
         14    1    4    4    0    0 -0.16407509472E+02 -0.47898559273E+02 -0.13883408273E+03  0.14777814749E+03  0.00000000000E+00 0. -1.
        -11    1    3    3    0    0  0.41804748868E+02 -0.55473556331E+02 -0.77738324631E+02  0.10425065753E+03  0.00000000000E+00 0.  1.
         11    1    3    3    0    0  0.51377736964E+02  0.26143790309E+02 -0.12851362085E+03  0.14085070242E+03  0.00000000000E+00 0. -1.
         -2    1    1    2    0  502 -0.12514715671E+03  0.86498404906E+02 -0.73607826566E+03  0.75163488348E+03  0.00000000000E+00 0.  1.
<scales pt_clust_5="13000.00000" pt_clust_6="13000.00000" pt_clust_7="13000.00000" pt_clust_8="13000.00000" pt_clust_9="13000.00000"></scales>
<clustering>
<clus scale="   79.708">  5  6 -1 -1</clus>
<clus scale="   89.396">  7  8 -1 -1</clus>
<clus scale="  132.419">  1  7  2 -1</clus>
<clus scale="  115.488">  5  9 -1 -1</clus>
<clus scale="  275.209">  2  5  1 -1</clus>
</clustering>
</event>
<event>
 9    2  0.3726337E-005  0.1801645E+03  0.7546771E-02  0.1184019E+00
         21   -1    0    0  501  502  0.00000000000E+00  0.00000000000E+00  0.45743775103E+02  0.45743775103E+02  0.00000000000E+00 0. -1.
          4   -1    0    0  502    0 -0.00000000000E+00 -0.00000000000E+00 -0.50915318313E+03  0.50915318313E+03  0.00000000000E+00 0. -1.
         23    2    1    2    0    0 -0.48087637934E+02 -0.44052435147E+02 -0.17082346361E+03  0.21128996101E+03  0.10587612545E+03 0.  0.
         24    2    1    2    0    0  0.69858372046E+02 -0.10762634753E+02 -0.12119270419E+03  0.16234944690E+03  0.81692379749E+02 0.  0.
        -11    1    4    4    0    0  0.46199080302E+02  0.12231627402E+02 -0.12018871813E+03  0.12934177861E+03  0.00000000000E+00 0.  1.
         12    1    4    4    0    0  0.23659291745E+02 -0.22994262155E+02 -0.10039860620E+01  0.33007668290E+02  0.00000000000E+00 0. -1.
        -13    1    3    3    0    0 -0.66102902507E+02  0.61968049352E+01 -0.65781278473E+02  0.93462135161E+02  0.00000000000E+00 0.  1.
         13    1    3    3    0    0  0.18015264572E+02 -0.50249240082E+02 -0.10504218514E+03  0.11782782585E+03  0.00000000000E+00 0. -1.
          3    1    1    2  501    0 -0.21770734112E+02  0.54815069900E+02 -0.17139324022E+03  0.18125755031E+03  0.00000000000E+00 0. -1.
<scales pt_clust_5="13000.00000" pt_clust_6="13000.00000" pt_clust_7="13000.00000" pt_clust_8="13000.00000" pt_clust_9="13000.00000"></scales>
<clustering>
<clus scale="   81.692">  5  6 -1 -1</clus>
<clus scale="   58.980">  5  9 -1 -1</clus>
<clus scale="  105.876">  7  8 -1 -1</clus>
<clus scale="  124.350">  2  7  1 -1</clus>
<clus scale="  180.164">  1  5  2 -1</clus>
</clustering>
</event>
<event>
 9    2  0.3726337E-005  0.3081031E+03  0.7546771E-02  0.1126641E+00
         21   -1    0    0  501  502  0.00000000000E+00  0.00000000000E+00  0.74354181360E+02  0.74354181360E+02  0.00000000000E+00 0. -1.
          2   -1    0    0  502    0 -0.00000000000E+00 -0.00000000000E+00 -0.60239507968E+03  0.60239507968E+03  0.00000000000E+00 0. -1.
         23    2    1    2    0    0  0.14212753137E+02  0.18708759865E+02 -0.22541971873E+03  0.24488456844E+03  0.92749028137E+02 0.  0.
         24    2    1    2    0    0  0.13292920590E+02  0.13150789439E+03 -0.14062179978E+03  0.20923180114E+03  0.80823437239E+02 0.  0.
        -11    1    4    4    0    0  0.78374251153E+01  0.99966146503E+02 -0.14564998795E+03  0.17682922459E+03  0.00000000000E+00 0.  1.
         12    1    4    4    0    0  0.54554954743E+01  0.31541747890E+02  0.50281881646E+01  0.32402576549E+02  0.00000000000E+00 0. -1.
        -13    1    3    3    0    0 -0.35569144612E+02  0.10325667977E+02 -0.49238853938E+02  0.61613701437E+02  0.00000000000E+00 0.  1.
         13    1    3    3    0    0  0.49781897750E+02  0.83830918887E+01 -0.17618086479E+03  0.18327086700E+03  0.00000000000E+00 0. -1.
          1    1    1    2  501    0 -0.27505673727E+02 -0.15021665426E+03 -0.16199937981E+03  0.22263289147E+03  0.00000000000E+00 0. -1.
<scales pt_clust_5="13000.00000" pt_clust_6="13000.00000" pt_clust_7="13000.00000" pt_clust_8="13000.00000" pt_clust_9="13000.00000"></scales>
<clustering>
<clus scale="   80.823">  5  6 -1 -1</clus>
<clus scale="   92.749">  7  8 -1 -1</clus>
<clus scale="   95.679">  2  7  1 -1</clus>
<clus scale="  141.845">  5  9 -1 -1</clus>
<clus scale="  308.103">  1  5  2 -1</clus>
</clustering>
</event>
<event>
 9    2  0.3726337E-005  0.1811080E+03  0.7546771E-02  0.1195705E+00
         21   -1    0    0  501  502  0.00000000000E+00  0.00000000000E+00  0.45584561673E+03  0.45584561673E+03  0.00000000000E+00 0.  1.
         -1   -1    0    0    0  501 -0.00000000000E+00 -0.00000000000E+00 -0.42623621502E+02  0.42623621502E+02  0.00000000000E+00 0.  1.
         23    2    1    2    0    0 -0.12173629980E+02  0.22441458922E+02  0.10783506641E+03  0.14341815457E+03  0.91041469488E+02 0.  0.
         24    2    1    2    0    0  0.54484764272E+02 -0.53463133304E+02  0.27034888403E+03  0.29196193286E+03  0.79538386841E+02 0.  0.
        -13    1    4    4    0    0  0.74865089919E+02 -0.35186775460E+02  0.20942608388E+03  0.22517143572E+03  0.00000000000E+00 0.  1.
         14    1    4    4    0    0 -0.20380325647E+02 -0.18276357844E+02  0.60922800156E+02  0.66790497141E+02  0.00000000000E+00 0. -1.
        -13    1    3    3    0    0  0.41546180356E+01  0.45405289460E+02  0.10575403801E+03  0.11516430748E+03  0.00000000000E+00 0.  1.
         13    1    3    3    0    0 -0.16328248016E+02 -0.22963830538E+02  0.20810284051E+01  0.28253847092E+02  0.00000000000E+00 0. -1.
         -2    1    1    2    0  502 -0.42311134292E+02  0.31021674382E+02  0.35038044777E+02  0.63089150797E+02  0.00000000000E+00 0.  1.
<scales pt_clust_5="13000.00000" pt_clust_6="13000.00000" pt_clust_7="13000.00000" pt_clust_8="13000.00000" pt_clust_9="13000.00000"></scales>
<clustering>
<clus scale="   79.538">  5  6 -1 -1</clus>
<clus scale="   52.465">  5  9 -1 -1</clus>
<clus scale="   91.041">  7  8 -1 -1</clus>
<clus scale="   94.554">  2  7  1 -1</clus>
<clus scale="  181.108">  1  5  2 -1</clus>
</clustering>
</event>
<event>
 9    2  0.3726337E-005  0.9944707E+03  0.7546771E-02  0.9915826E-01
         -3   -1    0    0    0  501 -0.00000000000E+00  0.00000000000E+00  0.75218151915E+03  0.75218151915E+03  0.00000000000E+00 0.  1.
         21   -1    0    0  501  502  0.00000000000E+00 -0.00000000000E+00 -0.44944153743E+03  0.44944153743E+03  0.00000000000E+00 0.  1.
         23    2    1    2    0    0  0.79555772187E+02  0.33090901525E+02  0.14779914416E+03  0.19515468384E+03  0.93896937963E+02 0.  0.
         24    2    1    2    0    0 -0.26944741090E+02 -0.35616859656E+03 -0.27984187253E+03  0.46224128537E+03  0.88167136937E+02 0.  0.
        -13    1    4    4    0    0 -0.29983236734E+02 -0.35288956595E+03 -0.28558720140E+03  0.45496163557E+03  0.00000000000E+00 0.  1.
         14    1    4    4    0    0  0.30384956440E+01 -0.32790306082E+01  0.57453288629E+01  0.72796498027E+01  0.00000000000E+00 0. -1.
        -13    1    3    3    0    0  0.97738395669E+02  0.16487133339E+02  0.96914307661E+02  0.13862540382E+03  0.00000000000E+00 0.  1.
         13    1    3    3    0    0 -0.18182623482E+02  0.16603768186E+02  0.50884836498E+02  0.56529280024E+02  0.00000000000E+00 0. -1.
         -4    1    1    2    0  502 -0.52611031097E+02  0.32307769503E+03  0.43478271010E+03  0.54422708736E+03  0.00000000000E+00 0.  1.
<scales pt_clust_5="13000.00000" pt_clust_6="13000.00000" pt_clust_7="13000.00000" pt_clust_8="13000.00000" pt_clust_9="13000.00000"></scales>
<clustering>
<clus scale="   88.167">  5  6 -1 -1</clus>
<clus scale="   93.897">  7  8 -1 -1</clus>
<clus scale="  127.439">  1  7  2 -1</clus>
<clus scale="  351.269">  5  9 -1 -1</clus>
<clus scale="  994.471">  2  5  1 -1</clus>
</clustering>
</event>
<event>
 9    2  0.3726337E-005  0.3950693E+03  0.7546771E-02  0.1095596E+00
          2   -1    0    0  502    0 -0.00000000000E+00  0.00000000000E+00  0.36619565193E+03  0.36619565193E+03  0.00000000000E+00 0. -1.
         21   -1    0    0  501  502  0.00000000000E+00 -0.00000000000E+00 -0.26906163825E+03  0.26906163825E+03  0.00000000000E+00 0. -1.
         23    2    1    2    0    0 -0.52915805810E+01  0.36606077831E+02  0.20299090385E+03  0.22625190530E+03  0.92825706810E+02 0.  0.
         24    2    1    2    0    0 -0.99094976615E+02  0.11097733721E+03  0.43130402071E+02  0.17475203705E+03  0.80884232725E+02 0.  0.
        -13    1    4    4    0    0 -0.18813171813E+02 -0.12047290435E+02  0.36395029620E+01  0.22634456528E+02  0.00000000000E+00 0.  1.
         14    1    4    4    0    0 -0.80281804802E+02  0.12302462765E+03  0.39490899109E+02  0.15211758052E+03  0.00000000000E+00 0. -1.
        -11    1    3    3    0    0 -0.45640441470E+02  0.24756599095E+02  0.14918255133E+03  0.15796003519E+03  0.00000000000E+00 0. -1.
         11    1    3    3    0    0  0.40348860889E+02  0.11849478736E+02  0.53808352517E+02  0.68291870102E+02  0.00000000000E+00 0.  1.
          1    1    1    2  501    0  0.10438655720E+03 -0.14758341505E+03 -0.14898729224E+03  0.23425334783E+03  0.00000000000E+00 0. -1.
<scales pt_clust_5="13000.00000" pt_clust_6="13000.00000" pt_clust_7="13000.00000" pt_clust_8="13000.00000" pt_clust_9="13000.00000"></scales>
<clustering>
<clus scale="   80.884">  5  6 -1 -1</clus>
<clus scale="   92.826">  7  8 -1 -1</clus>
<clus scale="   99.923">  1  7  2 -1</clus>
<clus scale="  171.569">  5  9 -1 -1</clus>
<clus scale="  395.069">  2  5  1 -1</clus>
</clustering>
</event>
<event>
 9    2  0.3726337E-005  0.4812922E+03  0.7546771E-02  0.1038328E+00
         21   -1    0    0  501  502  0.00000000000E+00  0.00000000000E+00  0.25504790133E+03  0.25504790133E+03  0.00000000000E+00 0. -1.
          2   -1    0    0  502    0 -0.00000000000E+00 -0.00000000000E+00 -0.57311656872E+03  0.57311656872E+03  0.00000000000E+00 0. -1.
         23    2    1    2    0    0 -0.12682489446E+03  0.21833380716E+03 -0.19242308836E+03  0.33074212374E+03  0.92787403657E+02 0.  0.
         24    2    1    2    0    0  0.64560768430E+02  0.92830463737E+02 -0.11463303831E+03  0.17989864495E+03  0.80232170399E+02 0.  0.
        -11    1    4    4    0    0  0.45707688806E+00  0.43378224531E+02 -0.81684636865E+02  0.92489238198E+02  0.00000000000E+00 0.  1.
         12    1    4    4    0    0  0.64103691542E+02  0.49452239206E+02 -0.32948401442E+02  0.87409406756E+02  0.00000000000E+00 0. -1.
        -11    1    3    3    0    0 -0.84701348680E+02  0.57698513395E+02 -0.64196427164E+02  0.12093228757E+03  0.00000000000E+00 0.  1.
         11    1    3    3    0    0 -0.42123545783E+02  0.16063529377E+03 -0.12822666120E+03  0.20980983617E+03  0.00000000000E+00 0. -1.
          1    1    1    2  501    0  0.62264126032E+02 -0.31116427090E+03 -0.11012540721E+02  0.31752370136E+03  0.00000000000E+00 0. -1.
<scales pt_clust_5="13000.00000" pt_clust_6="13000.00000" pt_clust_7="13000.00000" pt_clust_8="13000.00000" pt_clust_9="13000.00000"></scales>
<clustering>
<clus scale="   80.232">  5  6 -1 -1</clus>
<clus scale="   92.787">  7  8 -1 -1</clus>
<clus scale="  269.005">  2  7  1 -1</clus>
<clus scale="  196.094">  5  9 -1 -1</clus>
<clus scale="  481.292">  1  5  2 -1</clus>
</clustering>
</event>
<event>
 9    2  0.3726337E-005  0.4005418E+03  0.7546771E-02  0.1045965E+00
         21   -1    0    0  501  502  0.00000000000E+00  0.00000000000E+00  0.16892751208E+03  0.16892751208E+03  0.00000000000E+00 0. -1.
          2   -1    0    0  502    0 -0.00000000000E+00 -0.00000000000E+00 -0.10746167447E+04  0.10746167447E+04  0.00000000000E+00 0. -1.
         23    2    1    2    0    0 -0.19865927543E+03 -0.30433071556E+03 -0.69905053694E+03  0.79284119498E+03  0.88559669768E+02 0.  0.
         24    2    1    2    0    0  0.20260898479E+03  0.21774244353E+03 -0.12663734957E+03  0.33274822112E+03  0.78880846358E+02 0.  0.
        -11    1    4    4    0    0  0.28814582801E+02  0.12676450677E+02 -0.38780628792E+02  0.49949071596E+02  0.00000000000E+00 0.  1.
         12    1    4    4    0    0  0.17379440199E+03  0.20506599285E+03 -0.87856720777E+02  0.28279914953E+03  0.00000000000E+00 0. -1.
        -11    1    3    3    0    0 -0.20479092694E+03 -0.26899919818E+03 -0.62581593688E+03  0.71129844596E+03  0.00000000000E+00 0. -1.
         11    1    3    3    0    0  0.61316515087E+01 -0.35331517389E+02 -0.73234600066E+02  0.81542749022E+02  0.00000000000E+00 0.  1.
          1    1    1    2  501    0 -0.39497093623E+01  0.86588272036E+02 -0.80001346100E+02  0.11795484066E+03  0.00000000000E+00 0. -1.
<scales pt_clust_5="13000.00000" pt_clust_6="13000.00000" pt_clust_7="13000.00000" pt_clust_8="13000.00000" pt_clust_9="13000.00000"></scales>
<clustering>
<clus scale="   78.881">  5  6 -1 -1</clus>
<clus scale="   86.678">  5  9 -1 -1</clus>
<clus scale="   88.560">  7  8 -1 -1</clus>
<clus scale="  374.066">  2  7  1 -1</clus>
<clus scale="  400.542">  1  5  2 -1</clus>
</clustering>
</event>
<event>
 9    2  0.3726337E-005  0.2611574E+03  0.7546771E-02  0.1130850E+00
          2   -1    0    0  502    0 -0.00000000000E+00  0.00000000000E+00  0.15750715416E+03  0.15750715416E+03  0.00000000000E+00 0. -1.
         21   -1    0    0  501  502  0.00000000000E+00 -0.00000000000E+00 -0.32988454425E+03  0.32988454425E+03  0.00000000000E+00 0. -1.
         23    2    1    2    0    0 -0.10812405555E+03  0.97098764940E+01 -0.17636718137E+03  0.22620383618E+03  0.90981864939E+02 0.  0.
         24    2    1    2    0    0  0.10736989250E+03  0.79037255802E+02  0.46284403462E+02  0.16287480882E+03  0.81306676992E+02 0.  0.
        -11    1    4    4    0    0  0.89468553816E+01  0.36166159829E+02  0.40987356485E+02  0.55389536283E+02  0.00000000000E+00 0.  1.
         12    1    4    4    0    0  0.98423037115E+02  0.42871095974E+02  0.52970469774E+01  0.10748527253E+03  0.00000000000E+00 0. -1.
        -13    1    3    3    0    0 -0.21786699632E+02 -0.33423386680E+02 -0.82160776316E+02  0.91335514576E+02  0.00000000000E+00 0.  1.
         13    1    3    3    0    0 -0.86337355917E+02  0.43133263174E+02 -0.94206405056E+02  0.13486832160E+03  0.00000000000E+00 0. -1.
          1    1    1    2  501    0  0.75416305257E+00 -0.88747132296E+02 -0.42294612176E+02  0.98313053415E+02  0.00000000000E+00 0. -1.
<scales pt_clust_5="13000.00000" pt_clust_6="13000.00000" pt_clust_7="13000.00000" pt_clust_8="13000.00000" pt_clust_9="13000.00000"></scales>
<clustering>
<clus scale="   81.307">  5  6 -1 -1</clus>
<clus scale="   88.750">  5  9 -1 -1</clus>
<clus scale="   90.982">  7  8 -1 -1</clus>
<clus scale="  141.643">  1  7  2 -1</clus>
<clus scale="  261.157">  2  5  1 -1</clus>
</clustering>
</event>
<event>
 9    2  0.3726337E-005  0.3751643E+03  0.7546771E-02  0.1057093E+00
         21   -1    0    0  501  502  0.00000000000E+00  0.00000000000E+00  0.91011415158E+02  0.91011415158E+02  0.00000000000E+00 0. -1.
          2   -1    0    0  502    0 -0.00000000000E+00 -0.00000000000E+00 -0.14592750972E+04  0.14592750972E+04  0.00000000000E+00 0. -1.
         23    2    1    2    0    0  0.17961457806E+03 -0.26325133777E+03 -0.45589138450E+03  0.56379197830E+03  0.91987916841E+02 0.  0.
         24    2    1    2    0    0 -0.15167825688E+02  0.49206331085E+02 -0.15223131655E+03  0.17985191789E+03  0.80752787400E+02 0.  0.
        -13    1    4    4    0    0 -0.36771588528E+02  0.23703661071E+02 -0.13567221336E+03  0.14255161433E+03  0.00000000000E+00 0.  1.
         14    1    4    4    0    0  0.21603762840E+02  0.25502670014E+02 -0.16559103197E+02  0.37300303556E+02  0.00000000000E+00 0. -1.
        -11    1    3    3    0    0  0.29728147275E+01 -0.61464823007E+02 -0.62710613371E+02  0.87860020055E+02  0.00000000000E+00 0.  1.
         11    1    3    3    0    0  0.17664176333E+03 -0.20178651476E+03 -0.39318077113E+03  0.47593195824E+03  0.00000000000E+00 0. -1.
          1    1    1    2  501    0 -0.16444675237E+03  0.21404500668E+03 -0.76014098099E+03  0.80664261618E+03  0.00000000000E+00 0. -1.
<scales pt_clust_5="13000.00000" pt_clust_6="13000.00000" pt_clust_7="13000.00000" pt_clust_8="13000.00000" pt_clust_9="13000.00000"></scales>
<clustering>
<clus scale="   80.753">  5  6 -1 -1</clus>
<clus scale="   91.988">  7  8 -1 -1</clus>
<clus scale="  269.922">  5  9 -1 -1</clus>
<clus scale="  331.699">  2  7  1 -1</clus>
<clus scale="  375.164">  1  5  2 -1</clus>
</clustering>
</event>
<event>
 9    2  0.3726337E-005  0.1625846E+03  0.7546771E-02  0.1209146E+00
         -3   -1    0    0    0  501 -0.00000000000E+00  0.00000000000E+00  0.10489013511E+03  0.10489013511E+03  0.00000000000E+00 0.  1.
         21   -1    0    0  501  502  0.00000000000E+00 -0.00000000000E+00 -0.16629188619E+03  0.16629188619E+03  0.00000000000E+00 0.  1.
         23    2    1    2    0    0 -0.34424682952E+02  0.26027949503E+01 -0.95429519493E+00  0.97724077747E+02  0.91418003447E+02 0.  0.
         24    2    1    2    0    0 -0.68968225463E+01 -0.12775799147E+02 -0.90595205201E+02  0.12130582355E+03  0.79352532520E+02 0.  0.
        -11    1    4    4    0    0 -0.42479089692E+02 -0.93716828217E+01 -0.38280611925E+02  0.57945722441E+02  0.00000000000E+00 0.  1.
         12    1    4    4    0    0  0.35582267145E+02 -0.34041163251E+01 -0.52314593277E+02  0.63360101111E+02  0.00000000000E+00 0. -1.
        -13    1    3    3    0    0 -0.66053905060E+02  0.15036070765E+01 -0.70582888567E+00  0.66074786434E+02  0.00000000000E+00 0. -1.
         13    1    3    3    0    0  0.31629222108E+02  0.10991878738E+01 -0.24846630927E+00  0.31649291313E+02  0.00000000000E+00 0.  1.
         -4    1    1    2    0  502  0.41321505498E+02  0.10173004197E+02  0.30147749317E+02  0.52152119994E+02  0.00000000000E+00 0.  1.
<scales pt_clust_5="13000.00000" pt_clust_6="13000.00000" pt_clust_7="13000.00000" pt_clust_8="13000.00000" pt_clust_9="13000.00000"></scales>
<clustering>
<clus scale="   79.353">  5  6 -1 -1</clus>
<clus scale="   42.555">  5  9 -1 -1</clus>
<clus scale="   91.418">  7  8 -1 -1</clus>
<clus scale="   97.719">  1  7  2 -1</clus>
<clus scale="  162.585">  2  5  1 -1</clus>
</clustering>
</event>
<event>
 9    2  0.3726337E-005  0.2435753E+03  0.7546771E-02  0.1149729E+00
         21   -1    0    0  501  502  0.00000000000E+00  0.00000000000E+00  0.34210137532E+02  0.34210137532E+02  0.00000000000E+00 0.  1.
          2   -1    0    0  502    0 -0.00000000000E+00 -0.00000000000E+00 -0.98023268273E+03  0.98023268273E+03  0.00000000000E+00 0. -1.
         23    2    1    2    0    0 -0.53809418864E+02  0.38614353180E+02 -0.18740917059E+03  0.21768490346E+03  0.88758087758E+02 0.  0.
         24    2    1    2    0    0 -0.45064810924E+02  0.51492219231E+02 -0.28327929934E+03  0.30295857413E+03  0.82791608171E+02 0.  0.
        -11    1    4    4    0    0 -0.44659893341E+02  0.42093502234E+02 -0.28651209158E+03  0.29301117321E+03  0.00000000000E+00 0.  1.
         12    1    4    4    0    0 -0.40491758311E+00  0.93987169970E+01  0.32327922447E+01  0.99474009237E+01  0.00000000000E+00 0. -1.
        -13    1    3    3    0    0 -0.54541433360E+02  0.64201904146E+01 -0.17459177058E+03  0.18302533473E+03  0.00000000000E+00 0. -1.
         13    1    3    3    0    0  0.73201449589E+00  0.32194162765E+02 -0.12817400005E+02  0.34659568726E+02  0.00000000000E+00 0.  1.
          1    1    1    2  501    0  0.98874229788E+02 -0.90106572410E+02 -0.47533407527E+03  0.49379934267E+03  0.00000000000E+00 0. -1.
<scales pt_clust_5="13000.00000" pt_clust_6="13000.00000" pt_clust_7="13000.00000" pt_clust_8="13000.00000" pt_clust_9="13000.00000"></scales>
<clustering>
<clus scale="   82.792">  5  6 -1 -1</clus>
<clus scale="   88.758">  7  8 -1 -1</clus>
<clus scale="  110.745">  2  7  1 -1</clus>
<clus scale="   92.910">  5  9 -1 -1</clus>
<clus scale="  243.575">  1  5  2 -1</clus>
</clustering>
</event>
<event>
 9    2  0.3726337E-005  0.2417527E+03  0.7546771E-02  0.1148947E+00
          2   -1    0    0  502    0 -0.00000000000E+00  0.00000000000E+00  0.19968095933E+03  0.19968095933E+03  0.00000000000E+00 0. -1.
         21   -1    0    0  501  502  0.00000000000E+00 -0.00000000000E+00 -0.17501130400E+03  0.17501130400E+03  0.00000000000E+00 0. -1.
         23    2    1    2    0    0  0.64410567378E+02 -0.20767045594E+02  0.60519561302E+02  0.13029585813E+03  0.93458022524E+02 0.  0.
         24    2    1    2    0    0 -0.80571923804E+02  0.61339738477E+02 -0.10319385296E+03  0.16413097026E+03  0.77689160680E+02 0.  0.
        -13    1    4    4    0    0 -0.19427867093E+02  0.63381239985E+02 -0.49528741402E+02  0.82750950609E+02  0.00000000000E+00 0.  1.
         14    1    4    4    0    0 -0.61144056712E+02 -0.20415015086E+01 -0.53665111554E+02  0.81380019646E+02  0.00000000000E+00 0. -1.
        -11    1    3    3    0    0 -0.21623244446E+02 -0.19810328955E+02  0.14260061950E+02  0.32609250229E+02  0.00000000000E+00 0.  1.
         11    1    3    3    0    0  0.86033811824E+02 -0.95671663903E+00  0.46259499352E+02  0.97686607905E+02  0.00000000000E+00 0. -1.
          1    1    1    2  501    0  0.16161356426E+02 -0.40572692882E+02  0.67343946987E+02  0.80265434933E+02  0.00000000000E+00 0. -1.
<scales pt_clust_5="13000.00000" pt_clust_6="13000.00000" pt_clust_7="13000.00000" pt_clust_8="13000.00000" pt_clust_9="13000.00000"></scales>
<clustering>
<clus scale="   77.689">  5  6 -1 -1</clus>
<clus scale="   43.673">  5  9 -1 -1</clus>
<clus scale="   93.458">  7  8 -1 -1</clus>
<clus scale="  115.388">  1  7  2 -1</clus>
<clus scale="  241.753">  2  5  1 -1</clus>
</clustering>
</event>
<event>
 9    2  0.3726337E-005  0.2100057E+03  0.7546771E-02  0.1168847E+00
          4   -1    0    0  502    0 -0.00000000000E+00  0.00000000000E+00  0.17002881997E+03  0.17002881997E+03  0.00000000000E+00 0. -1.
         21   -1    0    0  501  502  0.00000000000E+00 -0.00000000000E+00 -0.16267471549E+03  0.16267471549E+03  0.00000000000E+00 0. -1.
         23    2    1    2    0    0 -0.42581847830E+02  0.61021566027E+02  0.44800467300E+02  0.11938545026E+03  0.81908232666E+02 0.  0.
         24    2    1    2    0    0  0.20752861110E+01  0.38650255863E+02 -0.54405571411E+02  0.10440128954E+03  0.80259042898E+02 0.  0.
        -13    1    4    4    0    0 -0.28730068389E+02 -0.10756152118E+02 -0.15456413039E+02  0.34351307720E+02  0.00000000000E+00 0.  1.
         14    1    4    4    0    0  0.30805354500E+02  0.49406407981E+02 -0.38949158372E+02  0.70049981822E+02  0.00000000000E+00 0. -1.
        -13    1    3    3    0    0 -0.39146471212E+02 -0.61564739184E+01  0.20426494754E+01  0.39680231808E+02  0.00000000000E+00 0. -1.
         13    1    3    3    0    0 -0.34353766180E+01  0.67178039945E+02  0.42757817824E+02  0.79705218452E+02  0.00000000000E+00 0.  1.
          3    1    1    2  501    0  0.40506561719E+02 -0.99671821890E+02  0.16959208588E+02  0.10891679566E+03  0.00000000000E+00 0. -1.
<scales pt_clust_5="13000.00000" pt_clust_6="13000.00000" pt_clust_7="13000.00000" pt_clust_8="13000.00000" pt_clust_9="13000.00000"></scales>
<clustering>
<clus scale="   80.259">  5  6 -1 -1</clus>
<clus scale="   81.908">  7  8 -1 -1</clus>
<clus scale="  107.588">  5  9 -1 -1</clus>
<clus scale="  110.661">  1  7  2 -1</clus>
<clus scale="  210.006">  2  5  1 -1</clus>
</clustering>
</event>
<event>
 9    2  0.3726337E-005  0.4533729E+03  0.7546771E-02  0.1076074E+00
         21   -1    0    0  501  502  0.00000000000E+00  0.00000000000E+00  0.19295976772E+03  0.19295976772E+03  0.00000000000E+00 0.  1.
         -1   -1    0    0    0  501 -0.00000000000E+00 -0.00000000000E+00 -0.51617793501E+03  0.51617793501E+03  0.00000000000E+00 0.  1.
         23    2    1    2    0    0 -0.40948699668E+02  0.46225886169E+02  0.49957675594E+02  0.12193482305E+03  0.92513259397E+02 0.  0.
         24    2    1    2    0    0 -0.75537839439E+02 -0.21873451486E+03 -0.20240732613E+03  0.31796278779E+03  0.81122472662E+02 0.  0.
        -13    1    4    4    0    0 -0.30666040621E+02 -0.72942126703E+02 -0.22853542782E+02  0.82360453574E+02  0.00000000000E+00 0.  1.
         14    1    4    4    0    0 -0.44871798818E+02 -0.14579238816E+03 -0.17955378335E+03  0.23560233422E+03  0.00000000000E+00 0. -1.
        -13    1    3    3    0    0 -0.48645985840E+02  0.68077990507E+02  0.23798079577E+02  0.86990765725E+02  0.00000000000E+00 0. -1.
         13    1    3    3    0    0  0.76972861722E+01 -0.21852104338E+02  0.26159596017E+02  0.34944057323E+02  0.00000000000E+00 0.  1.
         -2    1    1    2    0  502  0.11648653911E+03  0.17250862869E+03 -0.17076851676E+03  0.26924009189E+03  0.00000000000E+00 0.  1.
<scales pt_clust_5="13000.00000" pt_clust_6="13000.00000" pt_clust_7="13000.00000" pt_clust_8="13000.00000" pt_clust_9="13000.00000"></scales>
<clustering>
<clus scale="   81.122">  5  6 -1 -1</clus>
<clus scale="   92.513">  7  8 -1 -1</clus>
<clus scale="  111.231">  2  7  1 -1</clus>
<clus scale="  216.945">  5  9 -1 -1</clus>
<clus scale="  453.373">  1  5  2 -1</clus>
</clustering>
</event>
<event>
 9    2  0.3726337E-005  0.3270603E+03  0.7546771E-02  0.1112676E+00
         21   -1    0    0  501  502  0.00000000000E+00  0.00000000000E+00  0.90991739639E+02  0.90991739639E+02  0.00000000000E+00 0. -1.
          2   -1    0    0  502    0 -0.00000000000E+00 -0.00000000000E+00 -0.53379117056E+03  0.53379117056E+03  0.00000000000E+00 0. -1.
         23    2    1    2    0    0 -0.12487263038E+02 -0.65790241924E+02 -0.12366623867E+03  0.16782070409E+03  0.91575992826E+02 0.  0.
         24    2    1    2    0    0 -0.35680855359E+02 -0.68739836246E+02 -0.29096492950E+03  0.31131894129E+03  0.79123981705E+02 0.  0.
        -11    1    4    4    0    0  0.23438466111E+02 -0.13349771285E+02 -0.46229423404E+02  0.53523244252E+02  0.00000000000E+00 0.  1.
         12    1    4    4    0    0 -0.59119321470E+02 -0.55390064961E+02 -0.24473550609E+03  0.25779569703E+03  0.00000000000E+00 0. -1.
        -11    1    3    3    0    0  0.32868727472E+02 -0.55073784652E+02 -0.53159020761E+02  0.83302800011E+02  0.00000000000E+00 0. -1.
         11    1    3    3    0    0 -0.45355990510E+02 -0.10716457273E+02 -0.70507217910E+02  0.84517904074E+02  0.00000000000E+00 0.  1.
          1    1    1    2  501    0  0.48168118397E+02  0.13453007817E+03 -0.28168262753E+02  0.14564326483E+03  0.00000000000E+00 0. -1.
<scales pt_clust_5="13000.00000" pt_clust_6="13000.00000" pt_clust_7="13000.00000" pt_clust_8="13000.00000" pt_clust_9="13000.00000"></scales>
<clustering>
<clus scale="   79.124">  5  6 -1 -1</clus>
<clus scale="   91.576">  7  8 -1 -1</clus>
<clus scale="  113.448">  2  7  1 -1</clus>
<clus scale="  128.100">  5  9 -1 -1</clus>
<clus scale="  327.060">  1  5  2 -1</clus>
</clustering>
</event>
<event>
 9    2  0.3726337E-005  0.1724437E+03  0.7546771E-02  0.1201174E+00
         -1   -1    0    0    0  501 -0.00000000000E+00  0.00000000000E+00  0.81684501863E+02  0.81684501863E+02  0.00000000000E+00 0.  1.
         21   -1    0    0  501  502  0.00000000000E+00 -0.00000000000E+00 -0.22749255823E+03  0.22749255823E+03  0.00000000000E+00 0.  1.
         23    2    1    2    0    0 -0.21608553329E+02 -0.29254029384E+02 -0.31178384568E+02  0.10210990270E+03  0.90175455383E+02 0.  0.
         24    2    1    2    0    0  0.10548707660E+01 -0.26222783628E+02 -0.53111836456E+01  0.82766463503E+02  0.78315590246E+02 0.  0.
        -11    1    4    4    0    0 -0.34104964917E+02 -0.21921165670E+02 -0.19022575654E+02  0.44783306274E+02  0.00000000000E+00 0.  1.
         12    1    4    4    0    0  0.35159835683E+02 -0.43016179583E+01  0.13711392008E+02  0.37983157229E+02  0.00000000000E+00 0. -1.
        -13    1    3    3    0    0 -0.25138646984E+02  0.27171617214E+02 -0.26209070411E+02  0.45355966818E+02  0.00000000000E+00 0. -1.
         13    1    3    3    0    0  0.35300936546E+01 -0.56425646598E+02 -0.49693141565E+01  0.56753935885E+02  0.00000000000E+00 0.  1.
         -2    1    1    2    0  502  0.20553682563E+02  0.55476813012E+02 -0.10931848815E+03  0.12430069389E+03  0.00000000000E+00 0.  1.
<scales pt_clust_5="13000.00000" pt_clust_6="13000.00000" pt_clust_7="13000.00000" pt_clust_8="13000.00000" pt_clust_9="13000.00000"></scales>
<clustering>
<clus scale="   78.316">  5  6 -1 -1</clus>
<clus scale="   59.162">  5  9 -1 -1</clus>
<clus scale="   90.175">  7  8 -1 -1</clus>
<clus scale="   97.233">  1  7  2 -1</clus>
<clus scale="  172.444">  2  5  1 -1</clus>
</clustering>
</event>
<event>
 9    2  0.3726337E-005  0.6130423E+03  0.7546771E-02  0.1015179E+00
         21   -1    0    0  501  502  0.00000000000E+00  0.00000000000E+00  0.19004139862E+03  0.19004139862E+03  0.00000000000E+00 0. -1.
          2   -1    0    0  502    0 -0.00000000000E+00 -0.00000000000E+00 -0.14393758400E+04  0.14393758400E+04  0.00000000000E+00 0. -1.
         23    2    1    2    0    0 -0.20126724688E+03 -0.13417270893E+03 -0.87119116389E+03  0.90913038084E+03  0.95043068312E+02 0.  0.
         24    2    1    2    0    0 -0.11860358265E+03  0.64091280098E+02 -0.35942263173E+03  0.39229414931E+03  0.80842868450E+02 0.  0.
        -13    1    4    4    0    0 -0.13105828855E+03  0.59255693492E+02 -0.32827131941E+03  0.35839862076E+03  0.00000000000E+00 0.  1.
         14    1    4    4    0    0  0.12454705900E+02  0.48355866068E+01 -0.31151312316E+02  0.33895528553E+02  0.00000000000E+00 0. -1.
        -13    1    3    3    0    0 -0.57674549756E+02 -0.79328100065E+01 -0.11191536189E+03  0.12615201699E+03  0.00000000000E+00 0. -1.
         13    1    3    3    0    0 -0.14359269712E+03 -0.12623989892E+03 -0.75927580200E+03  0.78297836385E+03  0.00000000000E+00 0.  1.
          1    1    1    2  501    0  0.31987082953E+03  0.70081428833E+02 -0.18720645798E+02  0.32799270850E+03  0.00000000000E+00 0. -1.
<scales pt_clust_5="13000.00000" pt_clust_6="13000.00000" pt_clust_7="13000.00000" pt_clust_8="13000.00000" pt_clust_9="13000.00000"></scales>
<clustering>
<clus scale="   80.843">  5  6 -1 -1</clus>
<clus scale="   95.043">  7  8 -1 -1</clus>
<clus scale="  259.892">  2  7  1 -1</clus>
<clus scale="  257.838">  5  9 -1 -1</clus>
<clus scale="  613.042">  1  5  2 -1</clus>
</clustering>
</event>
<event>
 9    2  0.3946823E-005  0.5045070E+03  0.7546771E-02  0.1034742E+00
         21   -1    0    0  501  502  0.00000000000E+00  0.00000000000E+00  0.12755189176E+03  0.12755189176E+03  0.00000000000E+00 0. -1.
          4   -1    0    0  502    0 -0.00000000000E+00 -0.00000000000E+00 -0.11590502732E+04  0.11590502732E+04  0.00000000000E+00 0. -1.
         23    2    1    2    0    0 -0.24122024495E+03 -0.42336303869E+01 -0.42236937454E+03  0.49567523064E+03  0.95356780158E+02 0.  0.
         24    2    1    2    0    0 -0.90570854219E+02  0.66215188617E+01 -0.34925327267E+03  0.36946942432E+03  0.79264638340E+02 0.  0.
        -13    1    4    4    0    0 -0.84297501243E+02  0.34354828668E+02 -0.28555036801E+03  0.29970875136E+03  0.00000000000E+00 0.  1.
         14    1    4    4    0    0 -0.62733529766E+01 -0.27733309806E+02 -0.63702904659E+02  0.69760672963E+02  0.00000000000E+00 0. -1.
        -11    1    3    3    0    0 -0.42830346790E+02 -0.27163204811E+02 -0.41148390717E+02  0.65310553209E+02  0.00000000000E+00 0.  1.
         11    1    3    3    0    0 -0.19838989816E+03  0.22929574425E+02 -0.38122098382E+03  0.43036467743E+03  0.00000000000E+00 0. -1.
          3    1    1    2  501    0  0.33179109917E+03 -0.23878884748E+01 -0.25987573426E+03  0.42145751003E+03  0.00000000000E+00 0. -1.
<scales pt_clust_5="13000.00000" pt_clust_6="13000.00000" pt_clust_7="13000.00000" pt_clust_8="13000.00000" pt_clust_9="13000.00000"></scales>
<clustering>
<clus scale="   79.265">  5  6 -1 -1</clus>
<clus scale="   95.357">  7  8 -1 -1</clus>
<clus scale="  259.419">  2  7  1 -1</clus>
<clus scale="  214.448">  5  9 -1 -1</clus>
<clus scale="  504.507">  1  5  2 -1</clus>
</clustering>
</event>
<event>
 9    2  0.3726337E-005  0.1700686E+03  0.7546771E-02  0.1196370E+00
          2   -1    0    0  502    0 -0.00000000000E+00  0.00000000000E+00  0.28756634634E+03  0.28756634634E+03  0.00000000000E+00 0. -1.
         21   -1    0    0  501  502  0.00000000000E+00 -0.00000000000E+00 -0.99319537425E+02  0.99319537425E+02  0.00000000000E+00 0.  1.
         23    2    1    2    0    0 -0.17877010077E+02 -0.61802068982E+02 -0.23836652637E+02  0.11503532660E+03  0.92335568105E+02 0.  0.
         24    2    1    2    0    0 -0.14685170120E+02  0.91202978991E+02  0.12052018250E+03  0.17031956111E+03  0.77136248996E+02 0.  0.
        -11    1    4    4    0    0 -0.33413515554E+02  0.46361619737E+02  0.10458190452E+03  0.11917733660E+03  0.00000000000E+00 0.  1.
         12    1    4    4    0    0  0.18728345434E+02  0.44841359255E+02  0.15938277971E+02  0.51142224504E+02  0.00000000000E+00 0. -1.
        -13    1    3    3    0    0 -0.54639106246E+02 -0.49308695849E+02 -0.13148028065E+02  0.74763962306E+02  0.00000000000E+00 0. -1.
         13    1    3    3    0    0  0.36762096168E+02 -0.12493373133E+02 -0.10688624572E+02  0.40271364295E+02  0.00000000000E+00 0.  1.
          1    1    1    2  501    0  0.32562180197E+02 -0.29400910010E+02  0.91563279059E+02  0.10153099606E+03  0.00000000000E+00 0. -1.
<scales pt_clust_5="13000.00000" pt_clust_6="13000.00000" pt_clust_7="13000.00000" pt_clust_8="13000.00000" pt_clust_9="13000.00000"></scales>
<clustering>
<clus scale="   77.136">  5  6 -1 -1</clus>
<clus scale="   43.872">  5  9 -1 -1</clus>
<clus scale="   92.336">  7  8 -1 -1</clus>
<clus scale="  112.539">  1  7  2 -1</clus>
<clus scale="  170.069">  2  5  1 -1</clus>
</clustering>
</event>
<event>
 9    2  0.3726337E-005  0.2444801E+03  0.7546771E-02  0.1139345E+00
         21   -1    0    0  501  502  0.00000000000E+00  0.00000000000E+00  0.24578210388E+03  0.24578210388E+03  0.00000000000E+00 0. -1.
         -1   -1    0    0    0  501 -0.00000000000E+00 -0.00000000000E+00 -0.17828250967E+03  0.17828250967E+03  0.00000000000E+00 0.  1.
         23    2    1    2    0    0 -0.10474313102E+03 -0.17133310902E+02 -0.54773565108E+02  0.15071271007E+03  0.91921182016E+02 0.  0.
         24    2    1    2    0    0 -0.33039331661E+02  0.38278141412E+02  0.87221186689E+02  0.12961689847E+03  0.81462822288E+02 0.  0.
        -11    1    4    4    0    0 -0.84584196318E+00  0.49141682329E+02  0.17703342779E+02  0.52240106588E+02  0.00000000000E+00 0.  1.
         12    1    4    4    0    0 -0.32193489698E+02 -0.10863540917E+02  0.69517843910E+02  0.77376791883E+02  0.00000000000E+00 0. -1.
        -13    1    3    3    0    0 -0.10916300805E+02  0.29842917125E+02  0.11758476952E+01  0.31798552539E+02  0.00000000000E+00 0.  1.
         13    1    3    3    0    0 -0.93826830216E+02 -0.46976228027E+02 -0.55949412803E+02  0.11891415753E+03  0.00000000000E+00 0. -1.
         -2    1    1    2    0  502  0.13778246268E+03 -0.21144830510E+02  0.35051972622E+02  0.14373500501E+03  0.00000000000E+00 0.  1.
<scales pt_clust_5="13000.00000" pt_clust_6="13000.00000" pt_clust_7="13000.00000" pt_clust_8="13000.00000" pt_clust_9="13000.00000"></scales>
<clustering>
<clus scale="   81.463">  5  6 -1 -1</clus>
<clus scale="   91.921">  7  8 -1 -1</clus>
<clus scale="  139.396">  5  9 -1 -1</clus>
<clus scale="  140.407">  2  7  1 -1</clus>
<clus scale="  244.480">  1  5  2 -1</clus>
</clustering>
</event>
<event>
 9    2  0.3726337E-005  0.4925505E+03  0.7546771E-02  0.1042749E+00
         -1   -1    0    0    0  501 -0.00000000000E+00  0.00000000000E+00  0.48817197566E+03  0.48817197566E+03  0.00000000000E+00 0.  1.
         21   -1    0    0  501  502  0.00000000000E+00 -0.00000000000E+00 -0.52239545282E+03  0.52239545282E+03  0.00000000000E+00 0.  1.
         23    2    1    2    0    0 -0.19904303252E+03  0.16119020588E+02  0.33068063430E+03  0.39757397608E+03  0.94007621689E+02 0.  0.
         24    2    1    2    0    0  0.17095075428E+03 -0.18434607499E+03 -0.71940510204E+02  0.27399907251E+03  0.81807206119E+02 0.  0.
        -13    1    4    4    0    0  0.31682616861E+02 -0.84824692480E+02 -0.43590364850E+02  0.10049446041E+03  0.00000000000E+00 0.  1.
         14    1    4    4    0    0  0.13926813742E+03 -0.99521382510E+02 -0.28350145354E+02  0.17350461210E+03  0.00000000000E+00 0. -1.
        -13    1    3    3    0    0 -0.92175419167E+02  0.30290552793E+02  0.83880456269E+02  0.12825660385E+03  0.00000000000E+00 0. -1.
         13    1    3    3    0    0 -0.10686761335E+03 -0.14171532205E+02  0.24680017804E+03  0.26931737223E+03  0.00000000000E+00 0.  1.
         -2    1    1    2    0  502  0.28092278235E+02  0.16822705440E+03 -0.29296360127E+03  0.33899437989E+03  0.00000000000E+00 0.  1.
<scales pt_clust_5="13000.00000" pt_clust_6="13000.00000" pt_clust_7="13000.00000" pt_clust_8="13000.00000" pt_clust_9="13000.00000"></scales>
<clustering>
<clus scale="   81.807">  5  6 -1 -1</clus>
<clus scale="   94.008">  7  8 -1 -1</clus>
<clus scale="  170.557">  5  9 -1 -1</clus>
<clus scale="  220.716">  1  7  2 -1</clus>
<clus scale="  492.550">  2  5  1 -1</clus>
</clustering>
</event>
<event>
 9    2  0.3726337E-005  0.1921765E+03  0.7546771E-02  0.1186019E+00
         -3   -1    0    0    0  501 -0.00000000000E+00  0.00000000000E+00  0.42139353527E+02  0.42139353527E+02  0.00000000000E+00 0.  1.
         21   -1    0    0  501  502  0.00000000000E+00 -0.00000000000E+00 -0.54260212494E+03  0.54260212494E+03  0.00000000000E+00 0. -1.
         23    2    1    2    0    0 -0.25969114772E+02  0.29482649692E+02 -0.97174351359E+02  0.13800516027E+03  0.89771644434E+02 0.  0.
         24    2    1    2    0    0 -0.37645054364E+02  0.40745702618E+02 -0.20141112775E+03  0.22372684501E+03  0.80061828588E+02 0.  0.
        -11    1    4    4    0    0 -0.27163066122E+02 -0.20291450785E+02 -0.53059212516E+02  0.62967095923E+02  0.00000000000E+00 0.  1.
         12    1    4    4    0    0 -0.10481988242E+02  0.61037153403E+02 -0.14835191523E+03  0.16075974908E+03  0.00000000000E+00 0. -1.
        -11    1    3    3    0    0  0.16753233551E+00 -0.31203837619E+02 -0.39187281501E+02  0.50093418536E+02  0.00000000000E+00 0.  1.
         11    1    3    3    0    0 -0.26136647107E+02  0.60686487311E+02 -0.57987069858E+02  0.87911741735E+02  0.00000000000E+00 0. -1.
         -4    1    1    2    0  502  0.63614169136E+02 -0.70228352310E+02 -0.20187729231E+03  0.22300947319E+03  0.00000000000E+00 0.  1.
<scales pt_clust_5="13000.00000" pt_clust_6="13000.00000" pt_clust_7="13000.00000" pt_clust_8="13000.00000" pt_clust_9="13000.00000"></scales>
<clustering>
<clus scale="   80.062">  5  6 -1 -1</clus>
<clus scale="   89.772">  7  8 -1 -1</clus>
<clus scale="   94.756">  5  9 -1 -1</clus>
<clus scale="   97.993">  1  7  2 -1</clus>
<clus scale="  192.176">  2  5  1 -1</clus>
</clustering>
</event>
<event>
 9    2  0.3726337E-005  0.5804981E+03  0.7546771E-02  0.1045045E+00
         21   -1    0    0  501  502  0.00000000000E+00  0.00000000000E+00  0.20350014550E+03  0.20350014550E+03  0.00000000000E+00 0.  1.
         -1   -1    0    0    0  501 -0.00000000000E+00 -0.00000000000E+00 -0.61385605295E+03  0.61385605295E+03  0.00000000000E+00 0.  1.
         23    2    1    2    0    0  0.54532636299E+02 -0.71442371866E+02 -0.80823445189E+02  0.14984614422E+03  0.88564195509E+02 0.  0.
         24    2    1    2    0    0 -0.16026166454E+03  0.53634049329E+02 -0.46113636703E+03  0.49775920293E+03  0.80975692283E+02 0.  0.
        -11    1    4    4    0    0 -0.11858292577E+03  0.74787127396E+02 -0.36039151869E+03  0.38670023461E+03  0.00000000000E+00 0.  1.
         12    1    4    4    0    0 -0.41678738770E+02 -0.21153078067E+02 -0.10074484835E+03  0.11105896832E+03  0.00000000000E+00 0. -1.
        -13    1    3    3    0    0 -0.13816599821E+02 -0.53790067920E+02 -0.33455658485E+02  0.64834797155E+02  0.00000000000E+00 0.  1.
         13    1    3    3    0    0  0.68349236120E+02 -0.17652303946E+02 -0.47367786704E+02  0.85011347067E+02  0.00000000000E+00 0. -1.
         -2    1    1    2    0  502  0.10572902824E+03  0.17808322537E+02  0.13160390477E+03  0.16975085129E+03  0.00000000000E+00 0.  1.
<scales pt_clust_5="13000.00000" pt_clust_6="13000.00000" pt_clust_7="13000.00000" pt_clust_8="13000.00000" pt_clust_9="13000.00000"></scales>
<clustering>
<clus scale="   80.976">  5  6 -1 -1</clus>
<clus scale="   88.564">  7  8 -1 -1</clus>
<clus scale="  107.218">  5  9 -1 -1</clus>
<clus scale="  126.180">  2  7  1 -1</clus>
<clus scale="  580.498">  1  5  2 -1</clus>
</clustering>
</event>
<event>
 9    2  0.3726337E-005  0.2447857E+03  0.7546771E-02  0.1142815E+00
         21   -1    0    0  501  502  0.00000000000E+00  0.00000000000E+00  0.86105367619E+02  0.86105367619E+02  0.00000000000E+00 0. -1.
          2   -1    0    0  502    0 -0.00000000000E+00 -0.00000000000E+00 -0.40958256523E+03  0.40958256523E+03  0.00000000000E+00 0. -1.
         23    2    1    2    0    0 -0.79962979581E+01 -0.83193382822E+02 -0.13711222555E+03  0.18803233840E+03  0.97833113830E+02 0.  0.
         24    2    1    2    0    0  0.52413982839E+02 -0.45632015198E+02 -0.59389316112E+02  0.12139843054E+03  0.79881046945E+02 0.  0.
        -13    1    4    4    0    0 -0.14074910352E+02 -0.15981422656E+02 -0.41171458822E+02  0.46352971783E+02  0.00000000000E+00 0.  1.
         14    1    4    4    0    0  0.66488893191E+02 -0.29650592542E+02 -0.18217857290E+02  0.75045458757E+02  0.00000000000E+00 0. -1.
        -13    1    3    3    0    0 -0.36623961030E+02 -0.70010612143E+01 -0.81004782261E+02  0.89174571089E+02  0.00000000000E+00 0. -1.
         13    1    3    3    0    0  0.28627663072E+02 -0.76192321608E+02 -0.56107443287E+02  0.98857767308E+02  0.00000000000E+00 0.  1.
          1    1    1    2  501    0 -0.44417684881E+02  0.12882539802E+03 -0.12697565595E+03  0.18625716392E+03  0.00000000000E+00 0. -1.
<scales pt_clust_5="13000.00000" pt_clust_6="13000.00000" pt_clust_7="13000.00000" pt_clust_8="13000.00000" pt_clust_9="13000.00000"></scales>
<clustering>
<clus scale="   79.881">  5  6 -1 -1</clus>
<clus scale="   97.833">  7  8 -1 -1</clus>
<clus scale="  128.672">  2  7  1 -1</clus>
<clus scale="   90.756">  5  9 -1 -1</clus>
<clus scale="  244.786">  1  5  2 -1</clus>
</clustering>
</event>
<event>
 9    2  0.3726337E-005  0.1650012E+03  0.7546771E-02  0.1205053E+00
          4   -1    0    0  502    0 -0.00000000000E+00  0.00000000000E+00  0.21507111787E+03  0.21507111787E+03  0.00000000000E+00 0. -1.
         21   -1    0    0  501  502  0.00000000000E+00 -0.00000000000E+00 -0.15906917230E+03  0.15906917230E+03  0.00000000000E+00 0.  1.
         23    2    1    2    0    0 -0.27073608509E+02  0.41325282431E+02 -0.10299132156E+03  0.14500224004E+03  0.89317848468E+02 0.  0.
         24    2    1    2    0    0  0.46962425962E+02  0.16933393730E+02  0.58682945755E+02  0.11144438427E+03  0.80522999120E+02 0.  0.
        -11    1    4    4    0    0  0.29133893697E+02 -0.12691072847E+02  0.68491505490E+02  0.75504525800E+02  0.00000000000E+00 0.  1.
         12    1    4    4    0    0  0.17828532266E+02  0.29624466577E+02 -0.98085597356E+01  0.35939858470E+02  0.00000000000E+00 0. -1.
        -13    1    3    3    0    0 -0.32275228391E+02  0.63195881272E+02 -0.48211619295E+02  0.85789101945E+02  0.00000000000E+00 0.  1.
         13    1    3    3    0    0  0.52016198816E+01 -0.21870598841E+02 -0.54779702267E+02  0.59213138099E+02  0.00000000000E+00 0. -1.
          3    1    1    2  501    0 -0.19888817453E+02 -0.58258676161E+02  0.10031032137E+03  0.11769366585E+03  0.00000000000E+00 0. -1.
<scales pt_clust_5="13000.00000" pt_clust_6="13000.00000" pt_clust_7="13000.00000" pt_clust_8="13000.00000" pt_clust_9="13000.00000"></scales>
<clustering>
<clus scale="   80.523">  5  6 -1 -1</clus>
<clus scale="   61.560">  5  9 -1 -1</clus>
<clus scale="   89.318">  7  8 -1 -1</clus>
<clus scale="  102.071">  1  7  2 -1</clus>
<clus scale="  165.001">  2  5  1 -1</clus>
</clustering>
</event>
<event>
 9    2  0.3726337E-005  0.7101650E+03  0.7546771E-02  0.1017027E+00
         21   -1    0    0  501  502  0.00000000000E+00  0.00000000000E+00  0.17624725018E+03  0.17624725018E+03  0.00000000000E+00 0. -1.
          4   -1    0    0  502    0 -0.00000000000E+00 -0.00000000000E+00 -0.12771241386E+04  0.12771241386E+04  0.00000000000E+00 0. -1.
         23    2    1    2    0    0  0.11655860194E+01 -0.12788272005E+03 -0.49586302080E+03  0.52043190538E+03  0.92811012625E+02 0.  0.
         24    2    1    2    0    0  0.37682504547E+00 -0.17552089531E+03 -0.59917087727E+03  0.62947569087E+03  0.80163448931E+02 0.  0.
        -11    1    4    4    0    0  0.27542929164E+02 -0.12061941449E+03 -0.47732314233E+03  0.49309739231E+03  0.00000000000E+00 0.  1.
         12    1    4    4    0    0 -0.27166104119E+02 -0.54901480815E+02 -0.12184773494E+03  0.13637829856E+03  0.00000000000E+00 0. -1.
        -11    1    3    3    0    0 -0.33729681498E+02 -0.11537182068E+03 -0.39921510085E+03  0.41691851143E+03  0.00000000000E+00 0.  1.
         11    1    3    3    0    0  0.34895267517E+02 -0.12510899370E+02 -0.96647919948E+02  0.10351339396E+03  0.00000000000E+00 0. -1.
          3    1    1    2  501    0 -0.15424110649E+01  0.30340361535E+03 -0.58429903472E+01  0.30346379253E+03  0.00000000000E+00 0. -1.
<scales pt_clust_5="13000.00000" pt_clust_6="13000.00000" pt_clust_7="13000.00000" pt_clust_8="13000.00000" pt_clust_9="13000.00000"></scales>
<clustering>
<clus scale="   80.163">  5  6 -1 -1</clus>
<clus scale="   92.811">  7  8 -1 -1</clus>
<clus scale="  158.017">  2  7  1 -1</clus>
<clus scale="  277.688">  5  9 -1 -1</clus>
<clus scale="  710.165">  1  5  2 -1</clus>
</clustering>
</event>
<event>
 9    2  0.3726337E-005  0.4396812E+03  0.7546771E-02  0.1049374E+00
         21   -1    0    0  501  502  0.00000000000E+00  0.00000000000E+00  0.30073820689E+03  0.30073820689E+03  0.00000000000E+00 0.  1.
          4   -1    0    0  502    0 -0.00000000000E+00 -0.00000000000E+00 -0.42088560056E+03  0.42088560056E+03  0.00000000000E+00 0. -1.
         23    2    1    2    0    0  0.32473130304E+01  0.23848049055E+03  0.27203455928E+02  0.25790858227E+03  0.94304397434E+02 0.  0.
         24    2    1    2    0    0 -0.39290116720E+02  0.21056991584E+01 -0.19588368446E+03  0.21565024491E+03  0.81157027120E+02 0.  0.
        -11    1    4    4    0    0 -0.42774709560E+02 -0.31386973030E+02 -0.89276947970E+02  0.10385177559E+03  0.00000000000E+00 0.  1.
         12    1    4    4    0    0  0.34845928391E+01  0.33492672189E+02 -0.10660673649E+03  0.11179846932E+03  0.00000000000E+00 0. -1.
        -11    1    3    3    0    0 -0.19479144279E+02  0.14247751030E+03 -0.25516934779E+02  0.14604927923E+03  0.00000000000E+00 0. -1.
         11    1    3    3    0    0  0.22726457309E+02  0.96002980255E+02  0.52720390707E+02  0.11185930304E+03  0.00000000000E+00 0.  1.
          3    1    1    2  501    0  0.36042803690E+02 -0.24058618971E+03  0.48532834856E+02  0.24806498027E+03  0.00000000000E+00 0. -1.
<scales pt_clust_5="13000.00000" pt_clust_6="13000.00000" pt_clust_7="13000.00000" pt_clust_8="13000.00000" pt_clust_9="13000.00000"></scales>
<clustering>
<clus scale="   81.157">  5  6 -1 -1</clus>
<clus scale="   94.304">  7  8 -1 -1</clus>
<clus scale="  243.271">  5  9 -1 -1</clus>
<clus scale="  256.470">  2  7  1 -1</clus>
<clus scale="  439.681">  1  5  2 -1</clus>
</clustering>
</event>
<event>
 9    2  0.3726337E-005  0.3385968E+03  0.7546771E-02  0.1095392E+00
          2   -1    0    0  502    0 -0.00000000000E+00  0.00000000000E+00  0.43213331749E+03  0.43213331749E+03  0.00000000000E+00 0. -1.
         21   -1    0    0  501  502  0.00000000000E+00 -0.00000000000E+00 -0.17292683071E+03  0.17292683071E+03  0.00000000000E+00 0. -1.
         23    2    1    2    0    0  0.26933650079E+02  0.12589207533E+03 -0.26837272012E+02  0.16181214022E+03  0.94279867506E+02 0.  0.
         24    2    1    2    0    0  0.18567120409E+02 -0.18341937399E+03  0.30688386499E+03  0.36699828515E+03  0.80762800827E+02 0.  0.
        -11    1    4    4    0    0  0.41408522902E+02 -0.96396731851E+02  0.21020449969E+03  0.23493175045E+03  0.00000000000E+00 0.  1.
         12    1    4    4    0    0 -0.22841402493E+02 -0.87022642137E+02  0.96679365300E+02  0.13206653470E+03  0.00000000000E+00 0. -1.
        -11    1    3    3    0    0  0.36444922838E+02  0.38847844372E+01 -0.11855029019E+02  0.38520976932E+02  0.00000000000E+00 0. -1.
         11    1    3    3    0    0 -0.95112727583E+01  0.12200729089E+03 -0.14982242993E+02  0.12329116329E+03  0.00000000000E+00 0.  1.
          1    1    1    2  501    0 -0.45500770488E+02  0.57527298658E+02 -0.20840106193E+02  0.76249722833E+02  0.00000000000E+00 0. -1.
<scales pt_clust_5="13000.00000" pt_clust_6="13000.00000" pt_clust_7="13000.00000" pt_clust_8="13000.00000" pt_clust_9="13000.00000"></scales>
<clustering>
<clus scale="   80.763">  5  6 -1 -1</clus>
<clus scale="   73.347">  5  9 -1 -1</clus>
<clus scale="   94.280">  7  8 -1 -1</clus>
<clus scale="  159.571">  1  7  2 -1</clus>
<clus scale="  338.597">  2  5  1 -1</clus>
</clustering>
</event>
<event>
 9    2  0.3726337E-005  0.3148830E+03  0.7546771E-02  0.1092755E+00
         21   -1    0    0  501  502  0.00000000000E+00  0.00000000000E+00  0.74402927978E+03  0.74402927978E+03  0.00000000000E+00 0. -1.
          2   -1    0    0  502    0 -0.00000000000E+00 -0.00000000000E+00 -0.11401953846E+03  0.11401953846E+03  0.00000000000E+00 0. -1.
         23    2    1    2    0    0 -0.19030121850E+03  0.24695665997E+02  0.44411669929E+03  0.49238841069E+03  0.91554763496E+02 0.  0.
         24    2    1    2    0    0  0.40590808119E+02  0.64810234315E+02  0.15038408567E+03  0.18765647741E+03  0.82168121041E+02 0.  0.
        -13    1    4    4    0    0 -0.15116295771E+02  0.25020313638E+02  0.90258773364E+01  0.30593871184E+02  0.00000000000E+00 0.  1.
         14    1    4    4    0    0  0.55707103889E+02  0.39789920677E+02  0.14135820833E+03  0.15706260622E+03  0.00000000000E+00 0. -1.
        -11    1    3    3    0    0 -0.12957944454E+03 -0.21764150634E+02  0.22806690284E+03  0.26320908585E+03  0.00000000000E+00 0. -1.
         11    1    3    3    0    0 -0.60721773961E+02  0.46459816631E+02  0.21604979644E+03  0.22917932485E+03  0.00000000000E+00 0.  1.
          1    1    1    2  501    0  0.14971041038E+03 -0.89505900312E+02  0.35508956367E+02  0.17800393015E+03  0.00000000000E+00 0. -1.
<scales pt_clust_5="13000.00000" pt_clust_6="13000.00000" pt_clust_7="13000.00000" pt_clust_8="13000.00000" pt_clust_9="13000.00000"></scales>
<clustering>
<clus scale="   82.168">  5  6 -1 -1</clus>
<clus scale="   91.555">  7  8 -1 -1</clus>
<clus scale="  174.426">  5  9 -1 -1</clus>
<clus scale="  212.619">  2  7  1 -1</clus>
<clus scale="  314.883">  1  5  2 -1</clus>
</clustering>
</event>
<event>
 9    2  0.3726337E-005  0.3789596E+03  0.7546771E-02  0.1090039E+00
          2   -1    0    0  502    0 -0.00000000000E+00  0.00000000000E+00  0.18309686017E+04  0.18309686017E+04  0.00000000000E+00 0. -1.
         21   -1    0    0  501  502  0.00000000000E+00 -0.00000000000E+00 -0.36060978683E+02  0.36060978683E+02  0.00000000000E+00 0. -1.
         23    2    1    2    0    0  0.90708294948E+02  0.24253571363E+02  0.56862717048E+03  0.58352886296E+03  0.91393896977E+02 0.  0.
         24    2    1    2    0    0  0.72692602843E+02  0.10915627145E+03  0.35662154129E+03  0.38862382004E+03  0.81549026260E+02 0.  0.
        -11    1    4    4    0    0  0.75339258047E+02  0.60672016924E+02  0.16805708472E+03  0.19390791930E+03  0.00000000000E+00 0.  1.
         12    1    4    4    0    0 -0.26466552038E+01  0.48484254525E+02  0.18856445657E+03  0.19471590075E+03  0.00000000000E+00 0. -1.
        -11    1    3    3    0    0 -0.10498112730E+02 -0.17338406393E+02  0.62326376493E+02  0.65539361562E+02  0.00000000000E+00 0.  1.
         11    1    3    3    0    0  0.10120640768E+03  0.41591977756E+02  0.50630079398E+03  0.51798950140E+03  0.00000000000E+00 0. -1.
          1    1    1    2  501    0 -0.16340089779E+03 -0.13340984281E+03  0.86965891122E+03  0.89487689736E+03  0.00000000000E+00 0. -1.
<scales pt_clust_5="13000.00000" pt_clust_6="13000.00000" pt_clust_7="13000.00000" pt_clust_8="13000.00000" pt_clust_9="13000.00000"></scales>
<clustering>
<clus scale="   81.549">  5  6 -1 -1</clus>
<clus scale="   91.394">  7  8 -1 -1</clus>
<clus scale="  131.031">  1  7  2 -1</clus>
<clus scale="  153.182">  5  9 -1 -1</clus>
<clus scale="  378.960">  2  5  1 -1</clus>
</clustering>
</event>
<event>
 9    2  0.3726337E-005  0.2850655E+03  0.7546771E-02  0.1124508E+00
         21   -1    0    0  501  502  0.00000000000E+00  0.00000000000E+00  0.66049887911E+02  0.66049887911E+02  0.00000000000E+00 0.  1.
         -1   -1    0    0    0  501 -0.00000000000E+00 -0.00000000000E+00 -0.66449516929E+03  0.66449516929E+03  0.00000000000E+00 0.  1.
         23    2    1    2    0    0 -0.74452001565E+02  0.44897583235E+02 -0.12861235868E+03  0.18099493652E+03  0.93054471808E+02 0.  0.
         24    2    1    2    0    0 -0.68568368950E+02  0.42606075646E+02 -0.15247094803E+03  0.19062068519E+03  0.81067605890E+02 0.  0.
        -13    1    4    4    0    0 -0.21733007327E+02  0.48844521709E+02 -0.34726605141E+02  0.63749886377E+02  0.00000000000E+00 0.  1.
         14    1    4    4    0    0 -0.46835361623E+02 -0.62384460629E+01 -0.11774434289E+03  0.12687079881E+03  0.00000000000E+00 0. -1.
        -13    1    3    3    0    0 -0.94535374020E+02  0.47698148607E+02 -0.98012786092E+02  0.14428636997E+03  0.00000000000E+00 0.  1.
         13    1    3    3    0    0  0.20083372456E+02 -0.28005653716E+01 -0.30599572590E+02  0.36708566552E+02  0.00000000000E+00 0. -1.
         -2    1    1    2    0  502  0.14302037051E+03 -0.87503658881E+02 -0.31736197466E+03  0.35892943549E+03  0.00000000000E+00 0.  1.
<scales pt_clust_5="13000.00000" pt_clust_6="13000.00000" pt_clust_7="13000.00000" pt_clust_8="13000.00000" pt_clust_9="13000.00000"></scales>
<clustering>
<clus scale="   81.068">  5  6 -1 -1</clus>
<clus scale="   93.054">  7  8 -1 -1</clus>
<clus scale="  127.350">  2  7  1 -1</clus>
<clus scale="  109.987">  5  9 -1 -1</clus>
<clus scale="  285.066">  1  5  2 -1</clus>
</clustering>
</event>
<event>
 9    2  0.3726337E-005  0.2010405E+03  0.7546771E-02  0.1179358E+00
         21   -1    0    0  501  502  0.00000000000E+00  0.00000000000E+00  0.14881951712E+03  0.14881951712E+03  0.00000000000E+00 0. -1.
          2   -1    0    0  502    0 -0.00000000000E+00 -0.00000000000E+00 -0.20484100120E+03  0.20484100120E+03  0.00000000000E+00 0. -1.
         23    2    1    2    0    0  0.41606675394E+02 -0.14416352623E+02 -0.10725149372E+03  0.14619539730E+03  0.89057647770E+02 0.  0.
         24    2    1    2    0    0  0.18948634053E+02  0.62525290444E+02 -0.12444548653E+02  0.10728595766E+03  0.84184008231E+02 0.  0.
        -13    1    4    4    0    0 -0.21219801756E+02  0.46677520997E+02 -0.31402061849E+02  0.60126204282E+02  0.00000000000E+00 0.  1.
         14    1    4    4    0    0  0.40168435810E+02  0.15847769447E+02  0.18957513197E+02  0.47159753376E+02  0.00000000000E+00 0. -1.
        -11    1    3    3    0    0  0.10179060242E+02  0.29808717353E+02 -0.78952663804E+02  0.85004094133E+02  0.00000000000E+00 0. -1.
         11    1    3    3    0    0  0.31427615152E+02 -0.44225069976E+02 -0.28298829912E+02  0.61191303164E+02  0.00000000000E+00 0.  1.
          1    1    1    2  501    0 -0.60555309448E+02 -0.48108937820E+02  0.63674558287E+02  0.10017916337E+03  0.00000000000E+00 0. -1.
<scales pt_clust_5="13000.00000" pt_clust_6="13000.00000" pt_clust_7="13000.00000" pt_clust_8="13000.00000" pt_clust_9="13000.00000"></scales>
<clustering>
<clus scale="   84.184">  5  6 -1 -1</clus>
<clus scale="   77.340">  5  9 -1 -1</clus>
<clus scale="   89.058">  7  8 -1 -1</clus>
<clus scale="   99.349">  2  7  1 -1</clus>
<clus scale="  201.040">  1  5  2 -1</clus>
</clustering>
</event>
<event>
 9    2  0.3726337E-005  0.2151079E+03  0.7546771E-02  0.1157380E+00
          2   -1    0    0  502    0 -0.00000000000E+00  0.00000000000E+00  0.60581035193E+03  0.60581035193E+03  0.00000000000E+00 0. -1.
         21   -1    0    0  501  502  0.00000000000E+00 -0.00000000000E+00 -0.75803715309E+02  0.75803715309E+02  0.00000000000E+00 0.  1.
         23    2    1    2    0    0  0.58542888195E+02  0.78843651385E+02  0.30418384140E+02  0.13768408784E+03  0.91586237116E+02 0.  0.
         24    2    1    2    0    0 -0.11360815865E+02 -0.11816027767E+03  0.41907111545E+03  0.44266323062E+03  0.78988711744E+02 0.  0.
        -11    1    4    4    0    0  0.25081185033E+02 -0.22827598467E+02  0.17253773641E+03  0.17583923220E+03  0.00000000000E+00 0.  1.
         12    1    4    4    0    0 -0.36442000898E+02 -0.95332679207E+02  0.24653337905E+03  0.26682399843E+03  0.00000000000E+00 0. -1.
        -13    1    3    3    0    0  0.21752199316E+02  0.24527472349E+02 -0.32944921144E+02  0.46477122374E+02  0.00000000000E+00 0.  1.
         13    1    3    3    0    0  0.36790688879E+02  0.54316179035E+02  0.63363305284E+02  0.91206965467E+02  0.00000000000E+00 0. -1.
          1    1    1    2  501    0 -0.47182072330E+02  0.39316626289E+02  0.80517137031E+02  0.10126674878E+03  0.00000000000E+00 0. -1.
<scales pt_clust_5="13000.00000" pt_clust_6="13000.00000" pt_clust_7="13000.00000" pt_clust_8="13000.00000" pt_clust_9="13000.00000"></scales>
<clustering>
<clus scale="   78.989">  5  6 -1 -1</clus>
<clus scale="   61.416">  5  9 -1 -1</clus>
<clus scale="   91.586">  7  8 -1 -1</clus>
<clus scale="  134.282">  1  7  2 -1</clus>
<clus scale="  215.108">  2  5  1 -1</clus>
</clustering>
</event>
<event>
 9    2  0.3726337E-005  0.1457397E+03  0.7546771E-02  0.1212562E+00
         -3   -1    0    0    0  501 -0.00000000000E+00  0.00000000000E+00  0.17338571300E+03  0.17338571300E+03  0.00000000000E+00 0.  1.
         21   -1    0    0  501  502  0.00000000000E+00 -0.00000000000E+00 -0.10883615732E+03  0.10883615732E+03  0.00000000000E+00 0.  1.
         23    2    1    2    0    0 -0.88400667146E+02  0.15016510121E+02  0.50251014065E+02  0.13578241873E+03  0.88721628102E+02 0.  0.
         24    2    1    2    0    0  0.78167151253E+02  0.12514942529E+02  0.46496183588E+01  0.11552331580E+03  0.84007679536E+02 0.  0.
        -11    1    4    4    0    0  0.92675381956E+02  0.21953840148E+02 -0.56053492324E+01  0.95405017992E+02  0.00000000000E+00 0.  1.
         12    1    4    4    0    0 -0.14508230703E+02 -0.94388976193E+01  0.10254967591E+02  0.20118297808E+02  0.00000000000E+00 0. -1.
        -13    1    3    3    0    0 -0.48995674028E+02  0.32768763145E+02  0.67173768518E+02  0.89368244295E+02  0.00000000000E+00 0.  1.
         13    1    3    3    0    0 -0.39404993118E+02 -0.17752253024E+02 -0.16922754453E+02  0.46414174434E+02  0.00000000000E+00 0. -1.
         -4    1    1    2    0  502  0.10233515893E+02 -0.27531452650E+02  0.96489232508E+01  0.30916135794E+02  0.00000000000E+00 0.  1.
<scales pt_clust_5="13000.00000" pt_clust_6="13000.00000" pt_clust_7="13000.00000" pt_clust_8="13000.00000" pt_clust_9="13000.00000"></scales>
<clustering>
<clus scale="   84.008">  5  6 -1 -1</clus>
<clus scale="   29.372">  5  9 -1 -1</clus>
<clus scale="   88.722">  7  8 -1 -1</clus>
<clus scale="  126.142">  1  7  2 -1</clus>
<clus scale="  145.740">  2  5  1 -1</clus>
</clustering>
</event>
<event>
 9    2  0.3726337E-005  0.3096019E+03  0.7546771E-02  0.1116399E+00
         21   -1    0    0  501  502  0.00000000000E+00  0.00000000000E+00  0.19135007348E+03  0.19135007348E+03  0.00000000000E+00 0.  1.
         -1   -1    0    0    0  501 -0.00000000000E+00 -0.00000000000E+00 -0.32685343952E+03  0.32685343952E+03  0.00000000000E+00 0.  1.
         23    2    1    2    0    0  0.30879193353E+02 -0.75754314083E+02 -0.16737550766E+03  0.20696536674E+03  0.90154654792E+02 0.  0.
         24    2    1    2    0    0  0.38600774328E+02  0.15491640247E+03 -0.40576736316E+02  0.18339862944E+03  0.80619316638E+02 0.  0.
        -13    1    4    4    0    0  0.59737685695E+01  0.13869441026E+03 -0.16673611779E+02  0.13982072335E+03  0.00000000000E+00 0.  1.
         14    1    4    4    0    0  0.32627005758E+02  0.16221992210E+02 -0.23903124537E+02  0.43577906084E+02  0.00000000000E+00 0. -1.
        -11    1    3    3    0    0  0.51063731846E+02 -0.25746813767E+02 -0.12799530890E+03  0.14018987920E+03  0.00000000000E+00 0.  1.
         11    1    3    3    0    0 -0.20184538493E+02 -0.50007500316E+02 -0.39380198763E+02  0.66775487543E+02  0.00000000000E+00 0. -1.
         -2    1    1    2    0  502 -0.69479967681E+02 -0.79162088389E+02  0.72448877937E+02  0.12783951682E+03  0.00000000000E+00 0.  1.
<scales pt_clust_5="13000.00000" pt_clust_6="13000.00000" pt_clust_7="13000.00000" pt_clust_8="13000.00000" pt_clust_9="13000.00000"></scales>
<clustering>
<clus scale="   80.619">  5  6 -1 -1</clus>
<clus scale="   90.155">  7  8 -1 -1</clus>
<clus scale="  105.329">  5  9 -1 -1</clus>
<clus scale="  121.738">  2  7  1 -1</clus>
<clus scale="  309.602">  1  5  2 -1</clus>
</clustering>
</event>
<event>
 9    2  0.3726337E-005  0.6591059E+03  0.7546771E-02  0.1018242E+00
          2   -1    0    0  502    0 -0.00000000000E+00  0.00000000000E+00  0.54995338646E+03  0.54995338646E+03  0.00000000000E+00 0. -1.
         21   -1    0    0  501  502  0.00000000000E+00 -0.00000000000E+00 -0.32848645012E+03  0.32848645012E+03  0.00000000000E+00 0. -1.
         23    2    1    2    0    0 -0.10073810074E+03  0.13294403600E+03  0.37542209490E+02  0.19415265161E+03  0.91997570540E+02 0.  0.
         24    2    1    2    0    0 -0.68320922681E+02  0.13331445055E+03 -0.14864727647E+03  0.22594378484E+03  0.80709912046E+02 0.  0.
        -11    1    4    4    0    0 -0.35876516076E+02  0.47425242298E+02 -0.10984164676E+02  0.60472554820E+02  0.00000000000E+00 0.  1.
         12    1    4    4    0    0 -0.32444406605E+02  0.85889208251E+02 -0.13766311179E+03  0.16547123002E+03  0.00000000000E+00 0. -1.
        -13    1    3    3    0    0 -0.61697115007E+02  0.12765050112E+03  0.53648464262E+02  0.15158938668E+03  0.00000000000E+00 0. -1.
         13    1    3    3    0    0 -0.39040985731E+02  0.52935348750E+01 -0.16106254772E+02  0.42563264926E+02  0.00000000000E+00 0.  1.
          1    1    1    2  501    0  0.16905902342E+03 -0.26625848655E+03  0.33257200332E+03  0.45834340014E+03  0.00000000000E+00 0. -1.
<scales pt_clust_5="13000.00000" pt_clust_6="13000.00000" pt_clust_7="13000.00000" pt_clust_8="13000.00000" pt_clust_9="13000.00000"></scales>
<clustering>
<clus scale="   80.710">  5  6 -1 -1</clus>
<clus scale="   91.998">  7  8 -1 -1</clus>
<clus scale="  190.489">  1  7  2 -1</clus>
<clus scale="  164.446">  5  9 -1 -1</clus>
<clus scale="  659.106">  2  5  1 -1</clus>
</clustering>
</event>
<event>
 9    2  0.3726337E-005  0.3106642E+03  0.7546771E-02  0.1122413E+00
         -1   -1    0    0    0  501 -0.00000000000E+00  0.00000000000E+00  0.11549146776E+04  0.11549146776E+04  0.00000000000E+00 0.  1.
         21   -1    0    0  501  502  0.00000000000E+00 -0.00000000000E+00 -0.42985940394E+02  0.42985940394E+02  0.00000000000E+00 0.  1.
         23    2    1    2    0    0  0.41768178455E+02  0.31932884181E+02  0.12053791668E+03  0.15897424152E+03  0.89325977655E+02 0.  0.
         24    2    1    2    0    0 -0.17471776803E+02  0.10330639279E+03  0.23593990473E+03  0.27108129878E+03  0.82704039382E+02 0.  0.
        -13    1    4    4    0    0  0.78015072879E+01  0.10562346810E+03  0.20748141762E+03  0.23295003582E+03  0.00000000000E+00 0.  1.
         14    1    4    4    0    0 -0.25273284091E+02 -0.23170753131E+01  0.28458487109E+02  0.38131262965E+02  0.00000000000E+00 0. -1.
        -13    1    3    3    0    0  0.62333975353E+02  0.39834644618E+02  0.11417001399E+03  0.13604085963E+03  0.00000000000E+00 0.  1.
         13    1    3    3    0    0 -0.20565796898E+02 -0.79017604363E+01  0.63679026959E+01  0.22933381887E+02  0.00000000000E+00 0. -1.
         -2    1    1    2    0  502 -0.24296401652E+02 -0.13523927697E+03  0.75545091584E+03  0.76784507774E+03  0.00000000000E+00 0.  1.
<scales pt_clust_5="13000.00000" pt_clust_6="13000.00000" pt_clust_7="13000.00000" pt_clust_8="13000.00000" pt_clust_9="13000.00000"></scales>
<clustering>
<clus scale="   82.704">  5  6 -1 -1</clus>
<clus scale="   89.326">  7  8 -1 -1</clus>
<clus scale="  103.651">  1  7  2 -1</clus>
<clus scale="  111.503">  5  9 -1 -1</clus>
<clus scale="  310.664">  2  5  1 -1</clus>
</clustering>
</event>
<event>
 9    2  0.3726337E-005  0.2216661E+03  0.7546771E-02  0.1144231E+00
         -1   -1    0    0    0  501 -0.00000000000E+00  0.00000000000E+00  0.37934471709E+03  0.37934471709E+03  0.00000000000E+00 0.  1.
         21   -1    0    0  501  502  0.00000000000E+00 -0.00000000000E+00 -0.99827334490E+02  0.99827334490E+02  0.00000000000E+00 0.  1.
         23    2    1    2    0    0 -0.10579914701E+02 -0.13914197847E+03  0.12362114128E+03  0.20817483229E+03  0.92639891306E+02 0.  0.
         24    2    1    2    0    0  0.39771236544E+02  0.35852890633E+02  0.32704323376E+02  0.10760499921E+03  0.87419002878E+02 0.  0.
        -13    1    4    4    0    0 -0.73309685385E+00  0.28647026373E+02 -0.24116717247E+02  0.37454046534E+02  0.00000000000E+00 0.  1.
         14    1    4    4    0    0  0.40504333398E+02  0.72058642605E+01  0.56821040622E+02  0.70150952675E+02  0.00000000000E+00 0. -1.
        -11    1    3    3    0    0  0.37444062702E+02 -0.45912086209E+02  0.65324987080E+02  0.88189179771E+02  0.00000000000E+00 0. -1.
         11    1    3    3    0    0 -0.48023977403E+02 -0.93229892257E+02  0.58296154200E+02  0.11998565252E+03  0.00000000000E+00 0.  1.
         -2    1    1    2    0  502 -0.29191321843E+02  0.10328908783E+03  0.12319191794E+03  0.16339222008E+03  0.00000000000E+00 0.  1.
<scales pt_clust_5="13000.00000" pt_clust_6="13000.00000" pt_clust_7="13000.00000" pt_clust_8="13000.00000" pt_clust_9="13000.00000"></scales>
<clustering>
<clus scale="   87.419">  5  6 -1 -1</clus>
<clus scale="   92.640">  7  8 -1 -1</clus>
<clus scale="  107.335">  5  9 -1 -1</clus>
<clus scale="  167.495">  1  7  2 -1</clus>
<clus scale="  221.666">  2  5  1 -1</clus>
</clustering>
</event>
<event>
 9    2  0.3726337E-005  0.1716318E+03  0.7546771E-02  0.1203765E+00
         -1   -1    0    0    0  501 -0.00000000000E+00  0.00000000000E+00  0.84606488262E+03  0.84606488262E+03  0.00000000000E+00 0.  1.
         21   -1    0    0  501  502  0.00000000000E+00 -0.00000000000E+00 -0.20764298566E+02  0.20764298566E+02  0.00000000000E+00 0.  1.
         23    2    1    2    0    0 -0.20104374277E+02  0.11370019143E+02  0.27426049692E+03  0.28967872097E+03  0.90340898891E+02 0.  0.
         24    2    1    2    0    0  0.71462758403E+02 -0.25001664036E+02  0.43751658339E+03  0.45180656820E+03  0.83524878246E+02 0.  0.
        -11    1    4    4    0    0  0.53939057340E+02 -0.55092321151E+02  0.32525901780E+03  0.33427236562E+03  0.00000000000E+00 0.  1.
         12    1    4    4    0    0  0.17523701063E+02  0.30090657115E+02  0.11225756559E+03  0.11753420258E+03  0.00000000000E+00 0. -1.
        -11    1    3    3    0    0  0.28826446976E+02  0.30833515476E+01  0.35590780799E+02  0.45903973466E+02  0.00000000000E+00 0.  1.
         11    1    3    3    0    0 -0.48930821254E+02  0.82866675954E+01  0.23866971612E+03  0.24377474751E+03  0.00000000000E+00 0. -1.
         -2    1    1    2    0  502 -0.51358384126E+02  0.13631644893E+02  0.11352350374E+03  0.12534389201E+03  0.00000000000E+00 0.  1.
<scales pt_clust_5="13000.00000" pt_clust_6="13000.00000" pt_clust_7="13000.00000" pt_clust_8="13000.00000" pt_clust_9="13000.00000"></scales>
<clustering>
<clus scale="   83.525">  5  6 -1 -1</clus>
<clus scale="   53.137">  5  9 -1 -1</clus>
<clus scale="   90.341">  7  8 -1 -1</clus>
<clus scale="   93.247">  1  7  2 -1</clus>
<clus scale="  171.632">  2  5  1 -1</clus>
</clustering>
</event>
<event>
 9    2  0.3726337E-005  0.1610035E+03  0.7546771E-02  0.1196077E+00
          2   -1    0    0  502    0 -0.00000000000E+00  0.00000000000E+00  0.38911419769E+03  0.38911419769E+03  0.00000000000E+00 0. -1.
         21   -1    0    0  501  502  0.00000000000E+00 -0.00000000000E+00 -0.78008277897E+02  0.78008277897E+02  0.00000000000E+00 0. -1.
         23    2    1    2    0    0 -0.79386905964E+02 -0.56973672917E+02  0.26962712352E+03  0.30086175504E+03  0.90943552085E+02 0.  0.
         24    2    1    2    0    0  0.63138400519E+02  0.35409661594E+02  0.68683845782E+02  0.12793142063E+03  0.80054206371E+02 0.  0.
        -11    1    4    4    0    0  0.24385304358E+02  0.36814591779E+02  0.76540309374E+02  0.88365016808E+02  0.00000000000E+00 0.  1.
         12    1    4    4    0    0  0.38753096160E+02 -0.14049301852E+01 -0.78564635922E+01  0.39566403817E+02  0.00000000000E+00 0. -1.
        -11    1    3    3    0    0 -0.13445965555E+02 -0.63879079621E+02  0.15913454559E+03  0.17200329765E+03  0.00000000000E+00 0.  1.
         11    1    3    3    0    0 -0.65940940409E+02  0.69054067044E+01  0.11049257793E+03  0.12885845739E+03  0.00000000000E+00 0. -1.
          1    1    1    2  501    0  0.16248505445E+02  0.21564011323E+02 -0.27205049508E+02  0.38329299919E+02  0.00000000000E+00 0. -1.
<scales pt_clust_5="13000.00000" pt_clust_6="13000.00000" pt_clust_7="13000.00000" pt_clust_8="13000.00000" pt_clust_9="13000.00000"></scales>
<clustering>
<clus scale="   80.054">  5  6 -1 -1</clus>
<clus scale="   27.000">  5  9 -1 -1</clus>
<clus scale="   90.944">  7  8 -1 -1</clus>
<clus scale="  133.488">  1  7  2 -1</clus>
<clus scale="  161.004">  2  5  1 -1</clus>
</clustering>
</event>
<event>
 9    2  0.3726337E-005  0.5008822E+03  0.7546771E-02  0.1062928E+00
         -1   -1    0    0    0  501 -0.00000000000E+00  0.00000000000E+00  0.36595344915E+03  0.36595344915E+03  0.00000000000E+00 0.  1.
         21   -1    0    0  501  502  0.00000000000E+00 -0.00000000000E+00 -0.29306027009E+03  0.29306027009E+03  0.00000000000E+00 0.  1.
         23    2    1    2    0    0  0.56810677443E+02 -0.42003175192E+02  0.10343156400E+03  0.15720142546E+03  0.94986735585E+02 0.  0.
         24    2    1    2    0    0  0.75761848554E+02  0.24143279599E+02  0.20299933903E+03  0.23267604754E+03  0.81281337364E+02 0.  0.
        -13    1    4    4    0    0  0.25305110624E+02  0.50643747456E+02  0.96258953165E+02  0.11167329065E+03  0.00000000000E+00 0.  1.
         14    1    4    4    0    0  0.50456737930E+02 -0.26500467857E+02  0.10674038587E+03  0.12100275689E+03  0.00000000000E+00 0. -1.
        -11    1    3    3    0    0  0.34969268259E+02 -0.34511473693E+02 -0.20970911312E+01  0.49176105278E+02  0.00000000000E+00 0. -1.
         11    1    3    3    0    0  0.21841409184E+02 -0.74917014988E+01  0.10552865513E+03  0.10802532018E+03  0.00000000000E+00 0.  1.
         -2    1    1    2    0  502 -0.13257252600E+03  0.17859895593E+02 -0.23353772398E+03  0.26913624624E+03  0.00000000000E+00 0.  1.
<scales pt_clust_5="13000.00000" pt_clust_6="13000.00000" pt_clust_7="13000.00000" pt_clust_8="13000.00000" pt_clust_9="13000.00000"></scales>
<clustering>
<clus scale="   81.281">  5  6 -1 -1</clus>
<clus scale="   94.987">  7  8 -1 -1</clus>
<clus scale="  118.382">  1  7  2 -1</clus>
<clus scale="  129.119">  5  9 -1 -1</clus>
<clus scale="  500.882">  2  5  1 -1</clus>
</clustering>
</event>
<event>
 9    2  0.3726337E-005  0.3623202E+03  0.7546771E-02  0.1089518E+00
          2   -1    0    0  502    0 -0.00000000000E+00  0.00000000000E+00  0.93790757295E+03  0.93790757295E+03  0.00000000000E+00 0. -1.
         21   -1    0    0  501  502  0.00000000000E+00 -0.00000000000E+00 -0.74541984245E+02  0.74541984245E+02  0.00000000000E+00 0. -1.
         23    2    1    2    0    0  0.10534688044E+03  0.58857792803E+02  0.15669067369E+03  0.21830513412E+03  0.92428130833E+02 0.  0.
         24    2    1    2    0    0 -0.13538604474E+03  0.83637070117E+02  0.20630792794E+03  0.27301655095E+03  0.81550814561E+02 0.  0.
        -13    1    4    4    0    0  0.19904152281E+01  0.30299995095E+02  0.24722658327E+02  0.39156880498E+02  0.00000000000E+00 0.  1.
         14    1    4    4    0    0 -0.13737645997E+03  0.53337075022E+02  0.18158526961E+03  0.23385967046E+03  0.00000000000E+00 0. -1.
        -13    1    3    3    0    0  0.22184955229E+02 -0.18486031216E+02  0.58055653862E+01  0.29455223273E+02  0.00000000000E+00 0.  1.
         13    1    3    3    0    0  0.83161925209E+02  0.77343824019E+02  0.15088510831E+03  0.18884991085E+03  0.00000000000E+00 0. -1.
          1    1    1    2  501    0  0.30039164303E+02 -0.14249486292E+03  0.50036698707E+03  0.52112787212E+03  0.00000000000E+00 0. -1.
<scales pt_clust_5="13000.00000" pt_clust_6="13000.00000" pt_clust_7="13000.00000" pt_clust_8="13000.00000" pt_clust_9="13000.00000"></scales>
<clustering>
<clus scale="   81.551">  5  6 -1 -1</clus>
<clus scale="   92.428">  7  8 -1 -1</clus>
<clus scale="  145.627">  5  9 -1 -1</clus>
<clus scale="  152.004">  1  7  2 -1</clus>
<clus scale="  362.320">  2  5  1 -1</clus>
</clustering>
</event>
<event>
 9    2  0.3726337E-005  0.1640192E+03  0.7546771E-02  0.1202290E+00
         -1   -1    0    0    0  501 -0.00000000000E+00  0.00000000000E+00  0.39794745277E+03  0.39794745277E+03  0.00000000000E+00 0.  1.
         21   -1    0    0  501  502  0.00000000000E+00 -0.00000000000E+00 -0.59334666651E+02  0.59334666651E+02  0.00000000000E+00 0.  1.
         23    2    1    2    0    0  0.56770485719E+02  0.25586314155E+02  0.24438213843E+03  0.26812152827E+03  0.91043818110E+02 0.  0.
         24    2    1    2    0    0  0.46227352994E+01 -0.32670484056E+02  0.10747075136E+02  0.85291346733E+02  0.77912669018E+02 0.  0.
        -11    1    4    4    0    0  0.28360377646E+02  0.94336425080E+01  0.20155932687E+02  0.36049497273E+02  0.00000000000E+00 0.  1.
         12    1    4    4    0    0 -0.23737642346E+02 -0.42104126564E+02 -0.94088575509E+01  0.49241849460E+02  0.00000000000E+00 0. -1.
        -11    1    3    3    0    0  0.90221001992E+01 -0.33268586485E+02  0.79941499742E+02  0.87056536342E+02  0.00000000000E+00 0.  1.
         11    1    3    3    0    0  0.47748385520E+02  0.58854900640E+02  0.16444063869E+03  0.18106499193E+03  0.00000000000E+00 0. -1.
         -2    1    1    2    0  502 -0.61393221018E+02  0.70841699006E+01  0.83483572548E+02  0.10386924442E+03  0.00000000000E+00 0.  1.
<scales pt_clust_5="13000.00000" pt_clust_6="13000.00000" pt_clust_7="13000.00000" pt_clust_8="13000.00000" pt_clust_9="13000.00000"></scales>
<clustering>
<clus scale="   77.913">  5  6 -1 -1</clus>
<clus scale="   61.801">  5  9 -1 -1</clus>
<clus scale="   91.044">  7  8 -1 -1</clus>
<clus scale="  110.302">  1  7  2 -1</clus>
<clus scale="  164.019">  2  5  1 -1</clus>
</clustering>
</event>
<event>
 9    2  0.3726337E-005  0.3459045E+03  0.7546771E-02  0.1099654E+00
         21   -1    0    0  501  502  0.00000000000E+00  0.00000000000E+00  0.83384893476E+03  0.83384893476E+03  0.00000000000E+00 0.  1.
         -3   -1    0    0    0  501 -0.00000000000E+00 -0.00000000000E+00 -0.71155133925E+02  0.71155133925E+02  0.00000000000E+00 0.  1.
         23    2    1    2    0    0  0.38254113110E+02  0.88103698762E+02  0.28831737453E+03  0.31790703202E+03  0.93339882401E+02 0.  0.
         24    2    1    2    0    0 -0.63764128770E+02  0.10599895751E+03  0.17073914672E+03  0.22581847429E+03  0.80873258865E+02 0.  0.
        -13    1    4    4    0    0 -0.52213518299E+02  0.56560585187E+02  0.42577098464E+02  0.87966815354E+02  0.00000000000E+00 0.  1.
         14    1    4    4    0    0 -0.11550610471E+02  0.49438372327E+02  0.12816204825E+03  0.13785165894E+03  0.00000000000E+00 0. -1.
        -11    1    3    3    0    0  0.17927982492E+02  0.10244477393E+03  0.26101291579E+03  0.28096990314E+03  0.00000000000E+00 0.  1.
         11    1    3    3    0    0  0.20326130618E+02 -0.14341075166E+02  0.27304458740E+02  0.36937128881E+02  0.00000000000E+00 0. -1.
         -4    1    1    2    0  502  0.25510015660E+02 -0.19410265628E+03  0.30363727960E+03  0.36127856238E+03  0.00000000000E+00 0.  1.
<scales pt_clust_5="13000.00000" pt_clust_6="13000.00000" pt_clust_7="13000.00000" pt_clust_8="13000.00000" pt_clust_9="13000.00000"></scales>
<clustering>
<clus scale="   80.873">  5  6 -1 -1</clus>
<clus scale="   93.340">  7  8 -1 -1</clus>
<clus scale="  133.933">  2  7  1 -1</clus>
<clus scale="  155.715">  5  9 -1 -1</clus>
<clus scale="  345.905">  1  5  2 -1</clus>
</clustering>
</event>
<event>
 9    2  0.3726337E-005  0.1557143E+03  0.7546771E-02  0.1214199E+00
         -1   -1    0    0    0  501 -0.00000000000E+00  0.00000000000E+00  0.49439960677E+03  0.49439960677E+03  0.00000000000E+00 0.  1.
         21   -1    0    0  501  502  0.00000000000E+00 -0.00000000000E+00 -0.41757434510E+02  0.41757434510E+02  0.00000000000E+00 0. -1.
         23    2    1    2    0    0 -0.45541762550E+02  0.21139261462E+01  0.67034195379E+02  0.12029592790E+03  0.88876352873E+02 0.  0.
         24    2    1    2    0    0 -0.16526883052E+02 -0.32774798237E+02  0.19044060462E+03  0.20877922368E+03  0.77290459245E+02 0.  0.
        -13    1    4    4    0    0 -0.34629613829E+02 -0.28526934382E+02  0.18354221653E+03  0.18894639818E+03  0.00000000000E+00 0.  1.
         14    1    4    4    0    0  0.18102730777E+02 -0.42478638552E+01  0.68983880923E+01  0.19832825497E+02  0.00000000000E+00 0. -1.
        -13    1    3    3    0    0  0.23431205611E+02 -0.59990552410E+01  0.37952032560E+02  0.45004075766E+02  0.00000000000E+00 0.  1.
         13    1    3    3    0    0 -0.68972968161E+02  0.81129813873E+01  0.29082162819E+02  0.75291852136E+02  0.00000000000E+00 0. -1.
         -2    1    1    2    0  502  0.62068645602E+02  0.30660872091E+02  0.19516737226E+03  0.20708188970E+03  0.00000000000E+00 0.  1.
<scales pt_clust_5="13000.00000" pt_clust_6="13000.00000" pt_clust_7="13000.00000" pt_clust_8="13000.00000" pt_clust_9="13000.00000"></scales>
<clustering>
<clus scale="   77.290">  5  6 -1 -1</clus>
<clus scale="   69.229">  5  9 -1 -1</clus>
<clus scale="   88.876">  7  8 -1 -1</clus>
<clus scale="   99.888">  1  7  2 -1</clus>
<clus scale="  155.714">  2  5  1 -1</clus>
</clustering>
</event>
<event>
 9    2  0.3726337E-005  0.2956126E+03  0.7546771E-02  0.1124655E+00
          2   -1    0    0  502    0 -0.00000000000E+00  0.00000000000E+00  0.66057549080E+03  0.66057549080E+03  0.00000000000E+00 0. -1.
         21   -1    0    0  501  502  0.00000000000E+00 -0.00000000000E+00 -0.88452364506E+02  0.88452364506E+02  0.00000000000E+00 0.  1.
         23    2    1    2    0    0  0.51594805735E+01  0.68169121832E+02  0.37951249218E+03  0.39620262877E+03  0.90956813444E+02 0.  0.
         24    2    1    2    0    0 -0.25760160499E+01 -0.12972324140E+02 -0.57413343180E+02  0.96767908762E+02  0.76764699822E+02 0.  0.
        -11    1    4    4    0    0 -0.52848774700E+00  0.21333324389E+02 -0.58616498943E+02  0.62380156918E+02  0.00000000000E+00 0.  1.
         12    1    4    4    0    0 -0.20475283029E+01 -0.34305648529E+02  0.12031557627E+01  0.34387751845E+02  0.00000000000E+00 0. -1.
        -13    1    3    3    0    0  0.41221340464E+02  0.65577271581E+02  0.26868105446E+03  0.27962311508E+03  0.00000000000E+00 0. -1.
         13    1    3    3    0    0 -0.36061859890E+02  0.25918502507E+01  0.11083143771E+03  0.11657951369E+03  0.00000000000E+00 0.  1.
          1    1    1    2  501    0 -0.25834645236E+01 -0.55196797692E+02  0.25002397729E+03  0.25605731777E+03  0.00000000000E+00 0. -1.
<scales pt_clust_5="13000.00000" pt_clust_6="13000.00000" pt_clust_7="13000.00000" pt_clust_8="13000.00000" pt_clust_9="13000.00000"></scales>
<clustering>
<clus scale="   76.765">  5  6 -1 -1</clus>
<clus scale="   55.257">  5  9 -1 -1</clus>
<clus scale="   90.957">  7  8 -1 -1</clus>
<clus scale="  113.784">  1  7  2 -1</clus>
<clus scale="  295.613">  2  5  1 -1</clus>
</clustering>
</event>
<event>
 9    2  0.3726337E-005  0.1989133E+03  0.7546771E-02  0.1175187E+00
         21   -1    0    0  501  502  0.00000000000E+00  0.00000000000E+00  0.19510363930E+03  0.19510363930E+03  0.00000000000E+00 0.  1.
         -1   -1    0    0    0  501 -0.00000000000E+00 -0.00000000000E+00 -0.12456174955E+03  0.12456174955E+03  0.00000000000E+00 0.  1.
         23    2    1    2    0    0 -0.37060333103E+02 -0.55479947000E+02  0.30564493665E+02  0.11677459428E+03  0.90832949897E+02 0.  0.
         24    2    1    2    0    0 -0.21377798224E+02 -0.17201249774E+02  0.63714720516E+02  0.10665653804E+03  0.81013321408E+02 0.  0.
        -13    1    4    4    0    0  0.88114558786E+01 -0.39767100339E+02  0.54171447057E+02  0.67776173545E+02  0.00000000000E+00 0.  1.
         14    1    4    4    0    0 -0.30189254102E+02  0.22565850565E+02  0.95432734592E+01  0.38880364495E+02  0.00000000000E+00 0. -1.
        -11    1    3    3    0    0  0.34464573766E+01 -0.67376754311E+02  0.55269388678E+01  0.67690857161E+02  0.00000000000E+00 0.  1.
         11    1    3    3    0    0 -0.40506790479E+02  0.11896807311E+02  0.25037554797E+02  0.49083737117E+02  0.00000000000E+00 0. -1.
         -2    1    1    2    0  502  0.58438131327E+02  0.72681196774E+02 -0.23737324431E+02  0.96234256524E+02  0.00000000000E+00 0.  1.
<scales pt_clust_5="13000.00000" pt_clust_6="13000.00000" pt_clust_7="13000.00000" pt_clust_8="13000.00000" pt_clust_9="13000.00000"></scales>
<clustering>
<clus scale="   81.013">  5  6 -1 -1</clus>
<clus scale="   90.833">  7  8 -1 -1</clus>
<clus scale="   93.261">  5  9 -1 -1</clus>
<clus scale="  112.704">  2  7  1 -1</clus>
<clus scale="  198.913">  1  5  2 -1</clus>
</clustering>
</event>
<event>
 9    2  0.3726337E-005  0.1632008E+03  0.7546771E-02  0.1208181E+00
          2   -1    0    0  502    0 -0.00000000000E+00  0.00000000000E+00  0.49947113021E+03  0.49947113021E+03  0.00000000000E+00 0. -1.
         21   -1    0    0  501  502  0.00000000000E+00 -0.00000000000E+00 -0.24057365774E+03  0.24057365774E+03  0.00000000000E+00 0.  1.
         23    2    1    2    0    0  0.20835110734E+02 -0.23151698590E+02  0.46602431038E+03  0.47634791319E+03  0.93587251000E+02 0.  0.
         24    2    1    2    0    0 -0.34074883013E+02  0.67424708566E+02 -0.76435672786E+02  0.12507663228E+03  0.63988771591E+02 0.  0.
        -11    1    4    4    0    0  0.87196422288E+01  0.53195872921E+02 -0.41624768458E+02  0.68106199466E+02  0.00000000000E+00 0.  1.
         12    1    4    4    0    0 -0.42794525241E+02  0.14228835644E+02 -0.34810904328E+02  0.56970432810E+02  0.00000000000E+00 0. -1.
        -11    1    3    3    0    0 -0.35133161740E+02  0.56041024031E+01  0.18039644029E+03  0.18387120679E+03  0.00000000000E+00 0.  1.
         11    1    3    3    0    0  0.55968272474E+02 -0.28755800993E+02  0.28562787009E+03  0.29247670640E+03  0.00000000000E+00 0. -1.
          1    1    1    2  501    0  0.13239772278E+02 -0.44273009976E+02 -0.13069116513E+03  0.13862024248E+03  0.00000000000E+00 0. -1.
<scales pt_clust_5="13000.00000" pt_clust_6="13000.00000" pt_clust_7="13000.00000" pt_clust_8="13000.00000" pt_clust_9="13000.00000"></scales>
<clustering>
<clus scale="   63.989">  5  6 -1 -1</clus>
<clus scale="   46.210">  5  9 -1 -1</clus>
<clus scale="   93.587">  7  8 -1 -1</clus>
<clus scale="   98.634">  1  7  2 -1</clus>
<clus scale="  163.201">  2  5  1 -1</clus>
</clustering>
</event>
<event>
 9    2  0.3726337E-005  0.3967240E+03  0.7546771E-02  0.1062474E+00
         21   -1    0    0  501  502  0.00000000000E+00  0.00000000000E+00  0.10243057777E+03  0.10243057777E+03  0.00000000000E+00 0.  1.
          2   -1    0    0  502    0 -0.00000000000E+00 -0.00000000000E+00 -0.10075804328E+04  0.10075804328E+04  0.00000000000E+00 0. -1.
         23    2    1    2    0    0  0.11392365948E+03  0.19268764521E+03 -0.28008824265E+03  0.36967866092E+03  0.90031993547E+02 0.  0.
         24    2    1    2    0    0  0.99013527249E+02 -0.10816046297E+03 -0.28664504524E+03  0.33166027704E+03  0.79566281027E+02 0.  0.
        -13    1    4    4    0    0  0.10490397729E+03 -0.10688147076E+03 -0.28874894237E+03  0.32527595202E+03  0.00000000000E+00 0.  1.
         14    1    4    4    0    0 -0.58904500443E+01 -0.12789922112E+01  0.21038971296E+01  0.63843250178E+01  0.00000000000E+00 0. -1.
        -13    1    3    3    0    0  0.69916946101E+02  0.18138734229E+03 -0.21010978256E+03  0.28624442008E+03  0.00000000000E+00 0.  1.
         13    1    3    3    0    0  0.44006713380E+02  0.11300302913E+02 -0.69978460090E+02  0.83434240842E+02  0.00000000000E+00 0. -1.
          1    1    1    2  501    0 -0.21293718673E+03 -0.84527182232E+02 -0.33841656718E+03  0.40867207265E+03  0.00000000000E+00 0. -1.
<scales pt_clust_5="13000.00000" pt_clust_6="13000.00000" pt_clust_7="13000.00000" pt_clust_8="13000.00000" pt_clust_9="13000.00000"></scales>
<clustering>
<clus scale="   79.566">  5  6 -1 -1</clus>
<clus scale="   90.032">  7  8 -1 -1</clus>
<clus scale="  229.101">  5  9 -1 -1</clus>
<clus scale="  241.274">  2  7  1 -1</clus>
<clus scale="  396.724">  1  5  2 -1</clus>
</clustering>
</event>
<event>
 9    2  0.3726337E-005  0.2376035E+03  0.7546771E-02  0.1150921E+00
         -3   -1    0    0    0  501 -0.00000000000E+00  0.00000000000E+00  0.23549749805E+03  0.23549749805E+03  0.00000000000E+00 0.  1.
         21   -1    0    0  501  502  0.00000000000E+00 -0.00000000000E+00 -0.13661345735E+03  0.13661345735E+03  0.00000000000E+00 0.  1.
         23    2    1    2    0    0 -0.20492835346E+02  0.65611166294E+02  0.62448850360E+02  0.13173015378E+03  0.93424798964E+02 0.  0.
         24    2    1    2    0    0 -0.73568623183E+02 -0.41450718888E+01  0.60937048753E+02  0.12537654166E+03  0.81095186976E+02 0.  0.
        -13    1    4    4    0    0 -0.81674247317E+02  0.52351540658E+01  0.22338122338E+02  0.84835612938E+02  0.00000000000E+00 0.  1.
         14    1    4    4    0    0  0.81056241342E+01 -0.93802259546E+01  0.38598926414E+02  0.40540928725E+02  0.00000000000E+00 0. -1.
        -13    1    3    3    0    0 -0.39954844400E+02  0.75794408928E+02  0.67637480091E+02  0.10916048153E+03  0.00000000000E+00 0.  1.
         13    1    3    3    0    0  0.19462009054E+02 -0.10183242634E+02 -0.51886297310E+01  0.22569672249E+02  0.00000000000E+00 0. -1.
         -4    1    1    2    0  502  0.94061458529E+02 -0.61466094405E+02 -0.24501858413E+02  0.11500425995E+03  0.00000000000E+00 0.  1.
<scales pt_clust_5="13000.00000" pt_clust_6="13000.00000" pt_clust_7="13000.00000" pt_clust_8="13000.00000" pt_clust_9="13000.00000"></scales>
<clustering>
<clus scale="   81.095">  5  6 -1 -1</clus>
<clus scale="   93.425">  7  8 -1 -1</clus>
<clus scale="  112.364">  5  9 -1 -1</clus>
<clus scale="  115.987">  1  7  2 -1</clus>
<clus scale="  237.603">  2  5  1 -1</clus>
</clustering>
</event>
<event>
 9    2  0.3726337E-005  0.6961863E+03  0.7546771E-02  0.9916138E-01
          2   -1    0    0  502    0 -0.00000000000E+00  0.00000000000E+00  0.26613613836E+04  0.26613613836E+04  0.00000000000E+00 0. -1.
         21   -1    0    0  501  502  0.00000000000E+00 -0.00000000000E+00 -0.12823582826E+03  0.12823582826E+03  0.00000000000E+00 0.  1.
         23    2    1    2    0    0  0.83571660570E+01 -0.35932398272E+03  0.14898295334E+04  0.15353476709E+04  0.92286863448E+02 0.  0.
         24    2    1    2    0    0  0.67887130146E+02 -0.14501658872E+03  0.20218340954E+03  0.27056105805E+03  0.81772132127E+02 0.  0.
        -13    1    4    4    0    0  0.62806766028E+02 -0.10193049049E+03  0.88513229468E+02  0.14889293651E+03  0.00000000000E+00 0.  1.
         14    1    4    4    0    0  0.50803641181E+01 -0.43086098225E+02  0.11367018008E+03  0.12166812154E+03  0.00000000000E+00 0. -1.
        -13    1    3    3    0    0  0.28552806898E+02 -0.31074729104E+03  0.13583550480E+04  0.13937387051E+04  0.00000000000E+00 0.  1.
         13    1    3    3    0    0 -0.20195640841E+02 -0.48576691681E+02  0.13147448541E+03  0.14160896581E+03  0.00000000000E+00 0. -1.
          1    1    1    2  501    0 -0.76244296203E+02  0.50434057144E+03  0.84111261246E+03  0.98368848298E+03  0.00000000000E+00 0. -1.
<scales pt_clust_5="13000.00000" pt_clust_6="13000.00000" pt_clust_7="13000.00000" pt_clust_8="13000.00000" pt_clust_9="13000.00000"></scales>
<clustering>
<clus scale="   81.772">  5  6 -1 -1</clus>
<clus scale="   92.287">  7  8 -1 -1</clus>
<clus scale="  371.080">  1  7  2 -1</clus>
<clus scale="  229.749">  5  9 -1 -1</clus>
<clus scale="  696.186">  2  5  1 -1</clus>
</clustering>
</event>
<event>
 9    2  0.3726337E-005  0.2510308E+03  0.7546771E-02  0.1152353E+00
          2   -1    0    0  502    0 -0.00000000000E+00  0.00000000000E+00  0.46467602081E+03  0.46467602081E+03  0.00000000000E+00 0. -1.
         21   -1    0    0  501  502  0.00000000000E+00 -0.00000000000E+00 -0.80755707241E+02  0.80755707241E+02  0.00000000000E+00 0. -1.
         23    2    1    2    0    0  0.16373761793E+02 -0.19351011866E+02  0.10752813845E+02  0.95686859789E+02  0.91639458723E+02 0.  0.
         24    2    1    2    0    0 -0.75137468561E+02 -0.27070165977E+02  0.35528311930E+03  0.37275168643E+03  0.79619669723E+02 0.  0.
        -13    1    4    4    0    0 -0.54102257536E+02 -0.26653207051E+01  0.86613079834E+02  0.10215666304E+03  0.00000000000E+00 0.  1.
         14    1    4    4    0    0 -0.21035211025E+02 -0.24404845272E+02  0.26867003947E+03  0.27059502339E+03  0.00000000000E+00 0. -1.
        -11    1    3    3    0    0  0.30715336100E+02  0.30351264456E+02  0.77365698800E+01  0.43868959862E+02  0.00000000000E+00 0.  1.
         11    1    3    3    0    0 -0.14341574307E+02 -0.49702276322E+02  0.30162439646E+01  0.51817899927E+02  0.00000000000E+00 0. -1.
          1    1    1    2  501    0  0.58763706768E+02  0.46421177843E+02  0.17884380420E+02  0.76993181831E+02  0.00000000000E+00 0. -1.
<scales pt_clust_5="13000.00000" pt_clust_6="13000.00000" pt_clust_7="13000.00000" pt_clust_8="13000.00000" pt_clust_9="13000.00000"></scales>
<clustering>
<clus scale="   79.620">  5  6 -1 -1</clus>
<clus scale="   74.887">  5  9 -1 -1</clus>
<clus scale="   91.639">  7  8 -1 -1</clus>
<clus scale="   95.081">  1  7  2 -1</clus>
<clus scale="  251.031">  2  5  1 -1</clus>
</clustering>
</event>
<event>
 9    2  0.3726337E-005  0.4678174E+03  0.7546771E-02  0.1069958E+00
         21   -1    0    0  501  502  0.00000000000E+00  0.00000000000E+00  0.37372956813E+03  0.37372956813E+03  0.00000000000E+00 0.  1.
         -1   -1    0    0    0  501 -0.00000000000E+00 -0.00000000000E+00 -0.25588584870E+03  0.25588584870E+03  0.00000000000E+00 0.  1.
         23    2    1    2    0    0 -0.52321339345E+02 -0.61906026003E+02 -0.53968553033E+02  0.13124549801E+03  0.87993735145E+02 0.  0.
         24    2    1    2    0    0 -0.45171619201E+02 -0.18198729193E+03  0.84286396272E+02  0.22151326548E+03  0.82486850963E+02 0.  0.
        -13    1    4    4    0    0 -0.46255153008E+02 -0.15946702893E+03  0.10018658700E+03  0.19392427572E+03  0.00000000000E+00 0.  1.
         14    1    4    4    0    0  0.10835338069E+01 -0.22520262994E+02 -0.15900190730E+02  0.27588989762E+02  0.00000000000E+00 0. -1.
        -13    1    3    3    0    0 -0.71107579391E+02 -0.20389416987E+02 -0.30862823975E+02  0.80153166348E+02  0.00000000000E+00 0. -1.
         13    1    3    3    0    0  0.18786240046E+02 -0.41516609016E+02 -0.23105729058E+02  0.51092331661E+02  0.00000000000E+00 0.  1.
         -2    1    1    2    0  502  0.97492958546E+02  0.24389331793E+03  0.87525876196E+02  0.27685665334E+03  0.00000000000E+00 0.  1.
<scales pt_clust_5="13000.00000" pt_clust_6="13000.00000" pt_clust_7="13000.00000" pt_clust_8="13000.00000" pt_clust_9="13000.00000"></scales>
<clustering>
<clus scale="   82.487">  5  6 -1 -1</clus>
<clus scale="   87.994">  7  8 -1 -1</clus>
<clus scale="  119.636">  2  7  1 -1</clus>
<clus scale="  218.575">  5  9 -1 -1</clus>
<clus scale="  467.817">  1  5  2 -1</clus>
</clustering>
</event>
<event>
 9    2  0.3726337E-005  0.2127930E+03  0.7546771E-02  0.1146106E+00
         21   -1    0    0  501  502  0.00000000000E+00  0.00000000000E+00  0.36179475059E+02  0.36179475059E+02  0.00000000000E+00 0.  1.
         -3   -1    0    0    0  501 -0.00000000000E+00 -0.00000000000E+00 -0.12600631898E+04  0.12600631898E+04  0.00000000000E+00 0.  1.
         23    2    1    2    0    0  0.76926841197E+02  0.13565185827E+03 -0.81982600479E+03  0.83957702527E+03  0.91955085184E+02 0.  0.
         24    2    1    2    0    0  0.45116981728E+01 -0.52407152294E+02 -0.15083684517E+03  0.17794943423E+03  0.78405243765E+02 0.  0.
        -11    1    4    4    0    0 -0.11158029721E+02 -0.33865671259E+02 -0.12939758478E+02  0.37931816019E+02  0.00000000000E+00 0.  1.
         12    1    4    4    0    0  0.15669727893E+02 -0.18541481036E+02 -0.13789708669E+03  0.14001761821E+03  0.00000000000E+00 0. -1.
        -11    1    3    3    0    0  0.80387331264E+01  0.10555498529E+03 -0.47744093693E+03  0.48903611769E+03  0.00000000000E+00 0.  1.
         11    1    3    3    0    0  0.68888108071E+02  0.30096872987E+02 -0.34238506786E+03  0.35054090758E+03  0.00000000000E+00 0. -1.
         -4    1    1    2    0  502 -0.81438539370E+02 -0.83244705978E+02 -0.25322086482E+03  0.27871620540E+03  0.00000000000E+00 0.  1.
<scales pt_clust_5="13000.00000" pt_clust_6="13000.00000" pt_clust_7="13000.00000" pt_clust_8="13000.00000" pt_clust_9="13000.00000"></scales>
<clustering>
<clus scale="   78.405">  5  6 -1 -1</clus>
<clus scale="   91.955">  7  8 -1 -1</clus>
<clus scale="  116.456">  5  9 -1 -1</clus>
<clus scale="  181.038">  2  7  1 -1</clus>
<clus scale="  212.793">  1  5  2 -1</clus>
</clustering>
</event>
<event>
 9    2  0.3726337E-005  0.4657620E+03  0.7546771E-02  0.1065258E+00
         21   -1    0    0  501  502  0.00000000000E+00  0.00000000000E+00  0.14243943132E+03  0.14243943132E+03  0.00000000000E+00 0. -1.
          2   -1    0    0  502    0 -0.00000000000E+00 -0.00000000000E+00 -0.64656809972E+03  0.64656809972E+03  0.00000000000E+00 0. -1.
         23    2    1    2    0    0 -0.10133944934E+03 -0.28461617679E+02 -0.15061197533E+03  0.20427824807E+03  0.89251822652E+02 0.  0.
         24    2    1    2    0    0  0.39111347820E+02 -0.18921992591E+03 -0.27345746292E+03  0.34458959160E+03  0.81419437047E+02 0.  0.
        -11    1    4    4    0    0 -0.54182446879E+01 -0.10112265401E+03 -0.86538925786E+02  0.13320711020E+03  0.00000000000E+00 0.  1.
         12    1    4    4    0    0  0.44529592508E+02 -0.88097271892E+02 -0.18691853713E+03  0.21138248141E+03  0.00000000000E+00 0. -1.
        -11    1    3    3    0    0 -0.52330453338E+02 -0.50603279430E+01 -0.99658462312E+01  0.53510759259E+02  0.00000000000E+00 0. -1.
         11    1    3    3    0    0 -0.49008996002E+02 -0.23401289736E+02 -0.14064612910E+03  0.15076748881E+03  0.00000000000E+00 0.  1.
          1    1    1    2  501    0  0.62228101520E+02  0.21768154359E+03 -0.80059230161E+02  0.24013969137E+03  0.00000000000E+00 0. -1.
<scales pt_clust_5="13000.00000" pt_clust_6="13000.00000" pt_clust_7="13000.00000" pt_clust_8="13000.00000" pt_clust_9="13000.00000"></scales>
<clustering>
<clus scale="   81.419">  5  6 -1 -1</clus>
<clus scale="   89.252">  7  8 -1 -1</clus>
<clus scale="  138.006">  2  7  1 -1</clus>
<clus scale="  209.798">  5  9 -1 -1</clus>
<clus scale="  465.762">  1  5  2 -1</clus>
</clustering>
</event>
<event>
 9    2  0.3726337E-005  0.1166121E+03  0.7546771E-02  0.1261824E+00
         -1   -1    0    0    0  501 -0.00000000000E+00  0.00000000000E+00  0.14022187554E+03  0.14022187554E+03  0.00000000000E+00 0.  1.
         21   -1    0    0  501  502  0.00000000000E+00 -0.00000000000E+00 -0.81628314917E+02  0.81628314917E+02  0.00000000000E+00 0.  1.
         23    2    1    2    0    0  0.21237536624E+01  0.75064256634E+01  0.54244854840E+02  0.10515702824E+03  0.89747643734E+02 0.  0.
         24    2    1    2    0    0  0.20735400167E+02  0.11035581680E+02 -0.74943294531E+01  0.84966132202E+02  0.81310133220E+02 0.  0.
        -11    1    4    4    0    0  0.42244978349E+02  0.22176741375E+02 -0.26134349105E+02  0.54400829561E+02  0.00000000000E+00 0.  1.
         12    1    4    4    0    0 -0.21509578183E+02 -0.11141159695E+02  0.18640019652E+02  0.30565302641E+02  0.00000000000E+00 0. -1.
        -13    1    3    3    0    0  0.40668131968E+02 -0.13940338822E+02  0.13373770026E+02  0.45023191013E+02  0.00000000000E+00 0. -1.
         13    1    3    3    0    0 -0.38544378305E+02  0.21446764486E+02  0.40871084814E+02  0.60133837228E+02  0.00000000000E+00 0.  1.
         -2    1    1    2    0  502 -0.22859153829E+02 -0.18542007344E+02  0.11843035241E+02  0.31727030019E+02  0.00000000000E+00 0.  1.
<scales pt_clust_5="13000.00000" pt_clust_6="13000.00000" pt_clust_7="13000.00000" pt_clust_8="13000.00000" pt_clust_9="13000.00000"></scales>
<clustering>
<clus scale="   81.310">  5  6 -1 -1</clus>
<clus scale="   29.434">  5  9 -1 -1</clus>
<clus scale="   89.748">  7  8 -1 -1</clus>
<clus scale="   90.086">  1  7  2 -1</clus>
<clus scale="  116.612">  2  5  1 -1</clus>
</clustering>
</event>
<event>
 9    2  0.3726337E-005  0.3516570E+03  0.7546771E-02  0.1109369E+00
         -1   -1    0    0    0  501 -0.00000000000E+00  0.00000000000E+00  0.10888985464E+03  0.10888985464E+03  0.00000000000E+00 0.  1.
         21   -1    0    0  501  502  0.00000000000E+00 -0.00000000000E+00 -0.48712526623E+03  0.48712526623E+03  0.00000000000E+00 0.  1.
         23    2    1    2    0    0 -0.38073175746E+02 -0.15341787915E+02 -0.36812035410E+02  0.10587983894E+03  0.90390691856E+02 0.  0.
         24    2    1    2    0    0 -0.11436511953E+03  0.54981214064E+02 -0.28579705104E+03  0.32309335301E+03  0.81283737065E+02 0.  0.
        -11    1    4    4    0    0 -0.10233389465E+03  0.72093801637E+02 -0.26734243617E+03  0.29519776491E+03  0.00000000000E+00 0.  1.
         12    1    4    4    0    0 -0.12031224878E+02 -0.17112587573E+02 -0.18454614863E+02  0.27895588097E+02  0.00000000000E+00 0. -1.
        -11    1    3    3    0    0  0.25921178485E+02 -0.97503779964E+01 -0.30709042594E+02  0.41352420270E+02  0.00000000000E+00 0. -1.
         11    1    3    3    0    0 -0.63994354231E+02 -0.55914099185E+01 -0.61029928161E+01  0.64527418666E+02  0.00000000000E+00 0.  1.
         -2    1    1    2    0  502  0.15243829528E+03 -0.39639426149E+02 -0.55626325147E+02  0.16704192893E+03  0.00000000000E+00 0.  1.
<scales pt_clust_5="13000.00000" pt_clust_6="13000.00000" pt_clust_7="13000.00000" pt_clust_8="13000.00000" pt_clust_9="13000.00000"></scales>
<clustering>
<clus scale="   81.284">  5  6 -1 -1</clus>
<clus scale="   90.391">  7  8 -1 -1</clus>
<clus scale="   99.274">  1  7  2 -1</clus>
<clus scale="  134.049">  5  9 -1 -1</clus>
<clus scale="  351.657">  2  5  1 -1</clus>
</clustering>
</event>
<event>
 9    2  0.3726337E-005  0.1747222E+03  0.7546771E-02  0.1194878E+00
         -3   -1    0    0    0  501 -0.00000000000E+00  0.00000000000E+00  0.17434683386E+03  0.17434683386E+03  0.00000000000E+00 0.  1.
         21   -1    0    0  501  502  0.00000000000E+00 -0.00000000000E+00 -0.42044509875E+03  0.42044509875E+03  0.00000000000E+00 0. -1.
         23    2    1    2    0    0  0.26834440963E+02 -0.39698693295E+02  0.13685719030E+03  0.17386115674E+03  0.95925689029E+02 0.  0.
         24    2    1    2    0    0  0.30960563944E+02  0.66786075448E+02 -0.26597937549E+03  0.28767391081E+03  0.81193068538E+02 0.  0.
        -13    1    4    4    0    0  0.53113491059E+02  0.52671588319E+02 -0.13743049809E+03  0.15646878587E+03  0.00000000000E+00 0.  1.
         14    1    4    4    0    0 -0.22152927115E+02  0.14114487129E+02 -0.12854887740E+03  0.13120512493E+03  0.00000000000E+00 0. -1.
        -13    1    3    3    0    0  0.27411201216E+02 -0.70692240188E+02  0.10380830055E+03  0.12854932920E+03  0.00000000000E+00 0.  1.
         13    1    3    3    0    0 -0.57676025300E+00  0.30993546893E+02  0.33048889750E+02  0.45311827541E+02  0.00000000000E+00 0. -1.
         -4    1    1    2    0  502 -0.57795004908E+02 -0.27087382154E+02 -0.11697607970E+03  0.13325686506E+03  0.00000000000E+00 0.  1.
<scales pt_clust_5="13000.00000" pt_clust_6="13000.00000" pt_clust_7="13000.00000" pt_clust_8="13000.00000" pt_clust_9="13000.00000"></scales>
<clustering>
<clus scale="   81.193">  5  6 -1 -1</clus>
<clus scale="   63.828">  5  9 -1 -1</clus>
<clus scale="   95.926">  7  8 -1 -1</clus>
<clus scale="  107.228">  1  7  2 -1</clus>
<clus scale="  174.722">  2  5  1 -1</clus>
</clustering>
</event>
<event>
 9    2  0.3726337E-005  0.2158511E+03  0.7546771E-02  0.1163265E+00
          2   -1    0    0  502    0 -0.00000000000E+00  0.00000000000E+00  0.59922738510E+03  0.59922738510E+03  0.00000000000E+00 0. -1.
         21   -1    0    0  501  502  0.00000000000E+00 -0.00000000000E+00 -0.60073183692E+02  0.60073183692E+02  0.00000000000E+00 0.  1.
         23    2    1    2    0    0 -0.59424586069E+01  0.66914431117E+02  0.36187719763E+03  0.37998204192E+03  0.94437239005E+02 0.  0.
         24    2    1    2    0    0  0.69783830856E+02 -0.96850253486E+02  0.13216761443E+03  0.19561230680E+03  0.80908229603E+02 0.  0.
        -11    1    4    4    0    0  0.57054491769E+02 -0.86442150878E+02  0.14252145650E+03  0.17618123068E+03  0.00000000000E+00 0.  1.
         12    1    4    4    0    0  0.12729339086E+02 -0.10408102608E+02 -0.10353842074E+02  0.19431076120E+02  0.00000000000E+00 0. -1.
        -13    1    3    3    0    0 -0.45304908144E+02  0.21088735943E+02  0.10776572680E+03  0.11878855735E+03  0.00000000000E+00 0. -1.
         13    1    3    3    0    0  0.39362449537E+02  0.45825695174E+02  0.25411147084E+03  0.26119348457E+03  0.00000000000E+00 0.  1.
          1    1    1    2  501    0 -0.63841372249E+02  0.29935822369E+02  0.45109389345E+02  0.83706220071E+02  0.00000000000E+00 0. -1.
<scales pt_clust_5="13000.00000" pt_clust_6="13000.00000" pt_clust_7="13000.00000" pt_clust_8="13000.00000" pt_clust_9="13000.00000"></scales>
<clustering>
<clus scale="   80.908">  5  6 -1 -1</clus>
<clus scale="   70.512">  5  9 -1 -1</clus>
<clus scale="   94.437">  7  8 -1 -1</clus>
<clus scale="  115.893">  1  7  2 -1</clus>
<clus scale="  215.851">  2  5  1 -1</clus>
</clustering>
</event>
<event>
 9    2  0.3726337E-005  0.1349037E+03  0.7546771E-02  0.1235553E+00
         -3   -1    0    0    0  501 -0.00000000000E+00  0.00000000000E+00  0.35850395980E+03  0.35850395980E+03  0.00000000000E+00 0.  1.
         21   -1    0    0  501  502  0.00000000000E+00 -0.00000000000E+00 -0.40001433654E+02  0.40001433654E+02  0.00000000000E+00 0. -1.
         23    2    1    2    0    0 -0.34153709979E+02  0.16518400449E+02  0.17994229411E+03  0.20511993210E+03  0.90860463771E+02 0.  0.
         24    2    1    2    0    0  0.14050941489E+02  0.25932564653E+02  0.73178553040E+02  0.11288099137E+03  0.80728500056E+02 0.  0.
        -11    1    4    4    0    0 -0.26825698106E+02  0.28410055820E+02  0.56428540387E+02  0.68636211440E+02  0.00000000000E+00 0.  1.
         12    1    4    4    0    0  0.40876639596E+02 -0.24774911669E+01  0.16750012653E+02  0.44244779929E+02  0.00000000000E+00 0. -1.
        -11    1    3    3    0    0 -0.37326044881E+02 -0.14498947177E+02  0.16635906765E+03  0.17111046866E+03  0.00000000000E+00 0. -1.
         11    1    3    3    0    0  0.31723349022E+01  0.31017347626E+02  0.13583226460E+02  0.34009463441E+02  0.00000000000E+00 0.  1.
         -4    1    1    2    0  502  0.20102768489E+02 -0.42450965102E+02  0.65381678997E+02  0.80504469985E+02  0.00000000000E+00 0.  1.
<scales pt_clust_5="13000.00000" pt_clust_6="13000.00000" pt_clust_7="13000.00000" pt_clust_8="13000.00000" pt_clust_9="13000.00000"></scales>
<clustering>
<clus scale="   80.729">  5  6 -1 -1</clus>
<clus scale="   46.970">  5  9 -1 -1</clus>
<clus scale="   90.860">  7  8 -1 -1</clus>
<clus scale="   98.463">  1  7  2 -1</clus>
<clus scale="  134.904">  2  5  1 -1</clus>
</clustering>
</event>
<event>
 9    2  0.3726337E-005  0.7430287E+03  0.7546771E-02  0.1010948E+00
         -3   -1    0    0    0  501 -0.00000000000E+00  0.00000000000E+00  0.18770452056E+03  0.18770452056E+03  0.00000000000E+00 0.  1.
         21   -1    0    0  501  502  0.00000000000E+00 -0.00000000000E+00 -0.11108686991E+04  0.11108686991E+04  0.00000000000E+00 0.  1.
         23    2    1    2    0    0 -0.58656148060E+02 -0.12632109287E+03 -0.21859453391E+03  0.27460541972E+03  0.90702833891E+02 0.  0.
         24    2    1    2    0    0 -0.83723999191E+02 -0.17865127519E+03  0.30956156331E+02  0.21509299166E+03  0.79879442145E+02 0.  0.
        -11    1    4    4    0    0 -0.66851445665E+02 -0.18325250022E+03  0.25228664538E+02  0.19669031532E+03  0.00000000000E+00 0.  1.
         12    1    4    4    0    0 -0.16872553527E+02  0.46012250302E+01  0.57274917929E+01  0.18402676341E+02  0.00000000000E+00 0. -1.
        -11    1    3    3    0    0 -0.18861881582E+02 -0.12490211888E+03 -0.16952234234E+03  0.21140987307E+03  0.00000000000E+00 0. -1.
         11    1    3    3    0    0 -0.39794266478E+02 -0.14189739922E+01 -0.49072191563E+02  0.63195546651E+02  0.00000000000E+00 0.  1.
         -4    1    1    2    0  502  0.14238014725E+03  0.30497236806E+03 -0.73552580099E+03  0.80887480832E+03  0.00000000000E+00 0.  1.
<scales pt_clust_5="13000.00000" pt_clust_6="13000.00000" pt_clust_7="13000.00000" pt_clust_8="13000.00000" pt_clust_9="13000.00000"></scales>
<clustering>
<clus scale="   79.879">  5  6 -1 -1</clus>
<clus scale="   90.703">  7  8 -1 -1</clus>
<clus scale="  166.206">  1  7  2 -1</clus>
<clus scale="  304.587">  5  9 -1 -1</clus>
<clus scale="  743.029">  2  5  1 -1</clus>
</clustering>
</event>
<event>
 9    2  0.3726337E-005  0.3368558E+03  0.7546771E-02  0.1099337E+00
         -1   -1    0    0    0  501 -0.00000000000E+00  0.00000000000E+00  0.35788936063E+03  0.35788936063E+03  0.00000000000E+00 0.  1.
         21   -1    0    0  501  502  0.00000000000E+00 -0.00000000000E+00 -0.16313001001E+03  0.16313001001E+03  0.00000000000E+00 0.  1.
         23    2    1    2    0    0  0.71830967004E+02 -0.89362718436E+02  0.65424076019E+02  0.16018775059E+03  0.90743718515E+02 0.  0.
         24    2    1    2    0    0  0.93808664018E+02  0.11129685286E+03  0.41003614410E+02  0.17183406501E+03  0.81600212023E+02 0.  0.
        -11    1    4    4    0    0  0.93492385783E+02  0.12197769202E+03  0.30173746134E+02  0.15662004503E+03  0.00000000000E+00 0.  1.
         12    1    4    4    0    0  0.31627823437E+00 -0.10680839159E+02  0.10829868276E+02  0.15214019980E+02  0.00000000000E+00 0. -1.
        -13    1    3    3    0    0  0.13356991296E+02 -0.86087386488E+02  0.45791559020E+02  0.98419074403E+02  0.00000000000E+00 0.  1.
         13    1    3    3    0    0  0.58473975708E+02 -0.32753319477E+01  0.19632516999E+02  0.61768676190E+02  0.00000000000E+00 0. -1.
         -2    1    1    2    0  502 -0.16563963102E+03 -0.21934134427E+02  0.88331660185E+02  0.18899755503E+03  0.00000000000E+00 0.  1.
<scales pt_clust_5="13000.00000" pt_clust_6="13000.00000" pt_clust_7="13000.00000" pt_clust_8="13000.00000" pt_clust_9="13000.00000"></scales>
<clustering>
<clus scale="   81.600">  5  6 -1 -1</clus>
<clus scale="   90.744">  7  8 -1 -1</clus>
<clus scale="  146.218">  1  7  2 -1</clus>
<clus scale="  144.500">  5  9 -1 -1</clus>
<clus scale="  336.856">  2  5  1 -1</clus>
</clustering>
</event>
<event>
 9    2  0.3726337E-005  0.3889510E+03  0.7546771E-02  0.1066441E+00
          2   -1    0    0  502    0 -0.00000000000E+00  0.00000000000E+00  0.36130549003E+03  0.36130549003E+03  0.00000000000E+00 0. -1.
         21   -1    0    0  501  502  0.00000000000E+00 -0.00000000000E+00 -0.27059457107E+03  0.27059457107E+03  0.00000000000E+00 0. -1.
         23    2    1    2    0    0  0.42912993693E+02 -0.20592559892E+03 -0.11852599675E+02  0.22965362677E+03  0.91397083382E+02 0.  0.
         24    2    1    2    0    0 -0.11921058351E+03 -0.25443974158E+02  0.37745762114E+02  0.15014617031E+03  0.79123769249E+02 0.  0.
        -13    1    4    4    0    0 -0.87029236355E+02  0.81689039642E+01 -0.41782984424E+01  0.87511582949E+02  0.00000000000E+00 0.  1.
         14    1    4    4    0    0 -0.32181347151E+02 -0.33612878122E+02  0.41924060557E+02  0.62634587359E+02  0.00000000000E+00 0. -1.
        -13    1    3    3    0    0 -0.95944159574E+01 -0.14507447566E+03 -0.26967699788E+02  0.14787127218E+03  0.00000000000E+00 0. -1.
         13    1    3    3    0    0  0.52507409650E+02 -0.60851123269E+02  0.15115100113E+02  0.81782354592E+02  0.00000000000E+00 0.  1.
          1    1    1    2  501    0  0.76297589812E+02  0.23136957308E+03  0.64817756522E+02  0.25210026402E+03  0.00000000000E+00 0. -1.
<scales pt_clust_5="13000.00000" pt_clust_6="13000.00000" pt_clust_7="13000.00000" pt_clust_8="13000.00000" pt_clust_9="13000.00000"></scales>
<clustering>
<clus scale="   79.124">  5  6 -1 -1</clus>
<clus scale="   91.397">  7  8 -1 -1</clus>
<clus scale="  229.348">  1  7  2 -1</clus>
<clus scale="  145.191">  5  9 -1 -1</clus>
<clus scale="  388.951">  2  5  1 -1</clus>
</clustering>
</event>
<event>
 9    2  0.3726337E-005  0.1804585E+03  0.7546771E-02  0.1189328E+00
         -1   -1    0    0    0  501 -0.00000000000E+00  0.00000000000E+00  0.78269682381E+02  0.78269682381E+02  0.00000000000E+00 0.  1.
         21   -1    0    0  501  502  0.00000000000E+00 -0.00000000000E+00 -0.39151844002E+03  0.39151844002E+03  0.00000000000E+00 0.  1.
         23    2    1    2    0    0  0.51085730348E+02 -0.15206568427E+02 -0.19781338389E+01  0.10999004452E+03  0.96192023119E+02 0.  0.
         24    2    1    2    0    0 -0.15962778279E+02  0.69527952099E+02 -0.24197551343E+03  0.26500226148E+03  0.81148648029E+02 0.  0.
        -11    1    4    4    0    0  0.61326235190E+01  0.81780666652E+02 -0.17063034852E+03  0.18931561569E+03  0.00000000000E+00 0.  1.
         12    1    4    4    0    0 -0.22095401798E+02 -0.12252714554E+02 -0.71345164911E+02  0.75686645789E+02  0.00000000000E+00 0. -1.
        -13    1    3    3    0    0  0.12120572830E+02 -0.50673943884E+02 -0.17662011782E+02  0.55015484499E+02  0.00000000000E+00 0. -1.
         13    1    3    3    0    0  0.38965157517E+02  0.35467375457E+02  0.15683877943E+02  0.54974560021E+02  0.00000000000E+00 0.  1.
         -2    1    1    2    0  502 -0.35122952068E+02 -0.54321383672E+02 -0.69295110375E+02  0.94795816405E+02  0.00000000000E+00 0.  1.
<scales pt_clust_5="13000.00000" pt_clust_6="13000.00000" pt_clust_7="13000.00000" pt_clust_8="13000.00000" pt_clust_9="13000.00000"></scales>
<clustering>
<clus scale="   81.149">  5  6 -1 -1</clus>
<clus scale="   64.687">  5  9 -1 -1</clus>
<clus scale="   96.192">  7  8 -1 -1</clus>
<clus scale="  109.972">  1  7  2 -1</clus>
<clus scale="  180.458">  2  5  1 -1</clus>
</clustering>
</event>
<event>
 9    2  0.3726337E-005  0.3892846E+03  0.7546771E-02  0.1061713E+00
         21   -1    0    0  501  502  0.00000000000E+00  0.00000000000E+00  0.22662989029E+03  0.22662989029E+03  0.00000000000E+00 0. -1.
          2   -1    0    0  502    0 -0.00000000000E+00 -0.00000000000E+00 -0.47174471117E+03  0.47174471117E+03  0.00000000000E+00 0. -1.
         23    2    1    2    0    0  0.14197180072E+03 -0.19883180954E+03 -0.13556223689E+03  0.29396857209E+03  0.91380088752E+02 0.  0.
         24    2    1    2    0    0 -0.30718975363E+01  0.46316617423E+02 -0.16640711077E+03  0.19042821710E+03  0.80105641171E+02 0.  0.
        -13    1    4    4    0    0 -0.40572145512E+02  0.15005709851E+02 -0.68622620083E+02  0.81119259777E+02  0.00000000000E+00 0.  1.
         14    1    4    4    0    0  0.37500247976E+02  0.31310907572E+02 -0.97784490690E+02  0.10930895732E+03  0.00000000000E+00 0. -1.
        -11    1    3    3    0    0  0.94825107550E+02 -0.55772286456E+02 -0.51455612036E+02  0.12144969728E+03  0.00000000000E+00 0.  1.
         11    1    3    3    0    0  0.47146693165E+02 -0.14305952308E+03 -0.84106624854E+02  0.17251887481E+03  0.00000000000E+00 0. -1.
          1    1    1    2  501    0 -0.13889990318E+03  0.15251519212E+03  0.56854526782E+02  0.21397781227E+03  0.00000000000E+00 0. -1.
<scales pt_clust_5="13000.00000" pt_clust_6="13000.00000" pt_clust_7="13000.00000" pt_clust_8="13000.00000" pt_clust_9="13000.00000"></scales>
<clustering>
<clus scale="   80.106">  5  6 -1 -1</clus>
<clus scale="   91.380">  7  8 -1 -1</clus>
<clus scale="  206.286">  5  9 -1 -1</clus>
<clus scale="  260.846">  2  7  1 -1</clus>
<clus scale="  389.285">  1  5  2 -1</clus>
</clustering>
</event>
<event>
 9    2  0.3726337E-005  0.1530178E+03  0.7546771E-02  0.1217014E+00
         21   -1    0    0  501  502  0.00000000000E+00  0.00000000000E+00  0.46895661518E+02  0.46895661518E+02  0.00000000000E+00 0.  1.
         -1   -1    0    0    0  501 -0.00000000000E+00 -0.00000000000E+00 -0.48315825540E+03  0.48315825540E+03  0.00000000000E+00 0.  1.
         23    2    1    2    0    0  0.32055302577E+02  0.21304509704E+02 -0.32785234679E+03  0.34252463154E+03  0.91403158353E+02 0.  0.
         24    2    1    2    0    0 -0.14745813559E+02  0.38527304642E+02 -0.61223964755E+02  0.10938832520E+03  0.80719511943E+02 0.  0.
        -13    1    4    4    0    0 -0.31570710579E+02  0.56804510484E+02 -0.50626229323E+02  0.82380078133E+02  0.00000000000E+00 0.  1.
         14    1    4    4    0    0  0.16824897020E+02 -0.18277205841E+02 -0.10597735432E+02  0.27008247062E+02  0.00000000000E+00 0. -1.
        -11    1    3    3    0    0 -0.99834944967E+01  0.42335846968E+02 -0.22863070396E+03  0.23273158980E+03  0.00000000000E+00 0. -1.
         11    1    3    3    0    0  0.42038797074E+02 -0.21031337264E+02 -0.99221642835E+02  0.10979304174E+03  0.00000000000E+00 0.  1.
         -2    1    1    2    0  502 -0.17309489018E+02 -0.59831814346E+02 -0.47186282339E+02  0.78140960187E+02  0.00000000000E+00 0.  1.
<scales pt_clust_5="13000.00000" pt_clust_6="13000.00000" pt_clust_7="13000.00000" pt_clust_8="13000.00000" pt_clust_9="13000.00000"></scales>
<clustering>
<clus scale="   80.720">  5  6 -1 -1</clus>
<clus scale="   62.285">  5  9 -1 -1</clus>
<clus scale="   91.403">  7  8 -1 -1</clus>
<clus scale="   99.176">  2  7  1 -1</clus>
<clus scale="  153.018">  1  5  2 -1</clus>
</clustering>
</event>
<event>
 9    2  0.3726337E-005  0.1394817E+03  0.7546771E-02  0.1234293E+00
          2   -1    0    0  502    0 -0.00000000000E+00  0.00000000000E+00  0.91574300213E+02  0.91574300213E+02  0.00000000000E+00 0. -1.
         21   -1    0    0  501  502  0.00000000000E+00 -0.00000000000E+00 -0.14847779398E+03  0.14847779398E+03  0.00000000000E+00 0. -1.
         23    2    1    2    0    0 -0.39420528813E+01  0.28928214204E+01 -0.61302614030E+01  0.91616713688E+02  0.91280523253E+02 0.  0.
         24    2    1    2    0    0  0.26934840587E+02 -0.14901999220E+02  0.49628828405E+01  0.86958529773E+02  0.81176354168E+02 0.  0.
        -11    1    4    4    0    0 -0.27347886409E+01 -0.38134660397E+02  0.23588015802E+02  0.44923555981E+02  0.00000000000E+00 0.  1.
         12    1    4    4    0    0  0.29669629228E+02  0.23232661177E+02 -0.18625132961E+02  0.42034973792E+02  0.00000000000E+00 0. -1.
        -11    1    3    3    0    0 -0.44157781788E+02 -0.15609356929E+02  0.60569714782E+00  0.46839391384E+02  0.00000000000E+00 0.  1.
         11    1    3    3    0    0  0.40215728906E+02  0.18502178350E+02 -0.67359585508E+01  0.44777322304E+02  0.00000000000E+00 0. -1.
          1    1    1    2  501    0 -0.22992787706E+02  0.12009177800E+02 -0.55736115209E+02  0.61476850736E+02  0.00000000000E+00 0. -1.
<scales pt_clust_5="13000.00000" pt_clust_6="13000.00000" pt_clust_7="13000.00000" pt_clust_8="13000.00000" pt_clust_9="13000.00000"></scales>
<clustering>
<clus scale="   81.176">  5  6 -1 -1</clus>
<clus scale="   25.940">  5  9 -1 -1</clus>
<clus scale="   91.281">  7  8 -1 -1</clus>
<clus scale="   91.411">  1  7  2 -1</clus>
<clus scale="  139.482">  2  5  1 -1</clus>
</clustering>
</event>
<event>
 9    2  0.3726337E-005  0.2807810E+03  0.7546771E-02  0.1138300E+00
         21   -1    0    0  501  502  0.00000000000E+00  0.00000000000E+00  0.25538060544E+03  0.25538060544E+03  0.00000000000E+00 0. -1.
          2   -1    0    0  502    0 -0.00000000000E+00 -0.00000000000E+00 -0.13852678902E+03  0.13852678902E+03  0.00000000000E+00 0. -1.
         23    2    1    2    0    0  0.25181990169E+02  0.45914609849E+01  0.22377238283E+02  0.97657889107E+02  0.91548393590E+02 0.  0.
         24    2    1    2    0    0 -0.47127699553E+02  0.90869413503E+02 -0.32609205763E+02  0.13579643062E+03  0.83060459271E+02 0.  0.
        -13    1    4    4    0    0 -0.16549174203E+02 -0.12339978710E+02 -0.17567530538E+02  0.27106611197E+02  0.00000000000E+00 0.  1.
         14    1    4    4    0    0 -0.30578525350E+02  0.10320939221E+03 -0.15041675224E+02  0.10868981943E+03  0.00000000000E+00 0. -1.
        -11    1    3    3    0    0 -0.25142184594E+02 -0.25956790511E+02  0.10085363616E+02  0.37517982075E+02  0.00000000000E+00 0.  1.
         11    1    3    3    0    0  0.50324174762E+02  0.30548251496E+02  0.12291874667E+02  0.60139907032E+02  0.00000000000E+00 0. -1.
          1    1    1    2  501    0  0.21945709384E+02 -0.95460874488E+02  0.12708578390E+03  0.16045307472E+03  0.00000000000E+00 0. -1.
<scales pt_clust_5="13000.00000" pt_clust_6="13000.00000" pt_clust_7="13000.00000" pt_clust_8="13000.00000" pt_clust_9="13000.00000"></scales>
<clustering>
<clus scale="   83.060">  5  6 -1 -1</clus>
<clus scale="   91.548">  7  8 -1 -1</clus>
<clus scale="   95.060">  2  7  1 -1</clus>
<clus scale="   98.235">  5  9 -1 -1</clus>
<clus scale="  280.781">  1  5  2 -1</clus>
</clustering>
</event>
<event>
 9    2  0.3726337E-005  0.3216704E+03  0.7546771E-02  0.1112573E+00
         21   -1    0    0  501  502  0.00000000000E+00  0.00000000000E+00  0.47368103858E+02  0.47368103858E+02  0.00000000000E+00 0.  1.
          2   -1    0    0  502    0 -0.00000000000E+00 -0.00000000000E+00 -0.10800053110E+04  0.10800053110E+04  0.00000000000E+00 0. -1.
         23    2    1    2    0    0 -0.83870704670E+01 -0.78237693143E+02 -0.40249861024E+03  0.41988029860E+03  0.90015855937E+02 0.  0.
         24    2    1    2    0    0 -0.11757617261E+03  0.47690318955E+02 -0.50926023974E+03  0.53026033738E+03  0.75706741670E+02 0.  0.
        -11    1    4    4    0    0 -0.72871984249E+02  0.65497505767E+02 -0.30241926871E+03  0.31789568012E+03  0.00000000000E+00 0.  1.
         12    1    4    4    0    0 -0.44704188364E+02 -0.17807186812E+02 -0.20684097102E+03  0.21236465726E+03  0.00000000000E+00 0. -1.
        -11    1    3    3    0    0 -0.42574459639E+02 -0.32127441038E+02 -0.27400986804E+03  0.27915258349E+03  0.00000000000E+00 0.  1.
         11    1    3    3    0    0  0.34187389172E+02 -0.46110252105E+02 -0.12848874220E+03  0.14072771511E+03  0.00000000000E+00 0. -1.
          1    1    1    2  501    0  0.12596324308E+03  0.30547374188E+02 -0.12087835713E+03  0.17723277885E+03  0.00000000000E+00 0. -1.
<scales pt_clust_5="13000.00000" pt_clust_6="13000.00000" pt_clust_7="13000.00000" pt_clust_8="13000.00000" pt_clust_9="13000.00000"></scales>
<clustering>
<clus scale="   75.707">  5  6 -1 -1</clus>
<clus scale="   90.016">  7  8 -1 -1</clus>
<clus scale="  119.559">  2  7  1 -1</clus>
<clus scale="  124.785">  5  9 -1 -1</clus>
<clus scale="  321.670">  1  5  2 -1</clus>
</clustering>
</event>
<event>
 9    2  0.3726337E-005  0.6267572E+03  0.7546771E-02  0.1007264E+00
         21   -1    0    0  501  502  0.00000000000E+00  0.00000000000E+00  0.24889966382E+03  0.24889966382E+03  0.00000000000E+00 0. -1.
          2   -1    0    0  502    0 -0.00000000000E+00 -0.00000000000E+00 -0.89341363790E+03  0.89341363790E+03  0.00000000000E+00 0. -1.
         23    2    1    2    0    0 -0.28034321127E+03 -0.96817330678E+02 -0.27543447038E+03  0.41495898640E+03  0.91437964176E+02 0.  0.
         24    2    1    2    0    0  0.40355483753E+02  0.16807243937E+03 -0.42949216103E+03  0.46982550327E+03  0.79972352678E+02 0.  0.
        -11    1    4    4    0    0  0.39527406480E+02  0.16232432633E+03 -0.32734830721E+03  0.36751668944E+03  0.00000000000E+00 0.  1.
         12    1    4    4    0    0  0.82807727362E+00  0.57481130471E+01 -0.10214385381E+03  0.10230881383E+03  0.00000000000E+00 0. -1.
        -11    1    3    3    0    0 -0.98291902561E+02  0.10013071398E+02 -0.77180685970E+02  0.12537311512E+03  0.00000000000E+00 0. -1.
         11    1    3    3    0    0 -0.18205130871E+03 -0.10683040208E+03 -0.19825378441E+03  0.28958587128E+03  0.00000000000E+00 0.  1.
          1    1    1    2  501    0  0.23998772752E+03 -0.71255108697E+02  0.60412657315E+02  0.25752881205E+03  0.00000000000E+00 0. -1.
<scales pt_clust_5="13000.00000" pt_clust_6="13000.00000" pt_clust_7="13000.00000" pt_clust_8="13000.00000" pt_clust_9="13000.00000"></scales>
<clustering>
<clus scale="   79.972">  5  6 -1 -1</clus>
<clus scale="   91.438">  7  8 -1 -1</clus>
<clus scale="  250.343">  5  9 -1 -1</clus>
<clus scale="  310.366">  2  7  1 -1</clus>
<clus scale="  626.757">  1  5  2 -1</clus>
</clustering>
</event>
<event>
 9    2  0.3726337E-005  0.2289073E+03  0.7546771E-02  0.1149592E+00
         -1   -1    0    0    0  501 -0.00000000000E+00  0.00000000000E+00  0.25588668386E+03  0.25588668386E+03  0.00000000000E+00 0.  1.
         21   -1    0    0  501  502  0.00000000000E+00 -0.00000000000E+00 -0.13112741286E+03  0.13112741286E+03  0.00000000000E+00 0.  1.
         23    2    1    2    0    0  0.30138793347E+02  0.77336859145E+02  0.20269952191E+02  0.13538625739E+03  0.10502014607E+03 0.  0.
         24    2    1    2    0    0  0.14408407285E+02  0.48504888994E+02  0.29366977663E+02  0.98448321123E+02  0.79179076138E+02 0.  0.
        -11    1    4    4    0    0  0.14289406033E+02  0.50625031745E+02 -0.14472359587E+02  0.54557585687E+02  0.00000000000E+00 0.  1.
         12    1    4    4    0    0  0.11900125191E+00 -0.21201427515E+01  0.43839337250E+02  0.43890735436E+02  0.00000000000E+00 0. -1.
        -11    1    3    3    0    0  0.57887209641E+02  0.65224966885E+02  0.43281130382E+02  0.97357493766E+02  0.00000000000E+00 0.  1.
         11    1    3    3    0    0 -0.27748416294E+02  0.12111892260E+02 -0.23011178191E+02  0.38028763623E+02  0.00000000000E+00 0. -1.
         -2    1    1    2    0  502 -0.44547200632E+02 -0.12584174814E+03  0.75122341149E+02  0.15317951821E+03  0.00000000000E+00 0.  1.
<scales pt_clust_5="13000.00000" pt_clust_6="13000.00000" pt_clust_7="13000.00000" pt_clust_8="13000.00000" pt_clust_9="13000.00000"></scales>
<clustering>
<clus scale="   79.179">  5  6 -1 -1</clus>
<clus scale="  105.020">  7  8 -1 -1</clus>
<clus scale="  133.494">  5  9 -1 -1</clus>
<clus scale="  133.860">  1  7  2 -1</clus>
<clus scale="  228.907">  2  5  1 -1</clus>
</clustering>
</event>
<event>
 9    2  0.3726337E-005  0.2172599E+03  0.7546771E-02  0.1173106E+00
         21   -1    0    0  501  502  0.00000000000E+00  0.00000000000E+00  0.15952696103E+03  0.15952696103E+03  0.00000000000E+00 0.  1.
          2   -1    0    0  502    0 -0.00000000000E+00 -0.00000000000E+00 -0.32926212077E+03  0.32926212077E+03  0.00000000000E+00 0. -1.
         23    2    1    2    0    0 -0.18237822493E+02 -0.74467859842E+01  0.10486608500E+03  0.13863524931E+03  0.88514200997E+02 0.  0.
         24    2    1    2    0    0 -0.32481236329E+02  0.24986209407E+01 -0.21956491796E+02  0.92420872903E+02  0.83655581978E+02 0.  0.
        -13    1    4    4    0    0 -0.60589753955E+02  0.79694045738E+01 -0.16010903218E+02  0.63174193429E+02  0.00000000000E+00 0.  1.
         14    1    4    4    0    0  0.28108517626E+02 -0.54707836330E+01 -0.59455885782E+01  0.29246679473E+02  0.00000000000E+00 0. -1.
        -11    1    3    3    0    0  0.25008830448E+02 -0.10277543023E+01  0.88468184883E+02  0.91940837584E+02  0.00000000000E+00 0.  1.
         11    1    3    3    0    0 -0.43246652941E+02 -0.64190316819E+01  0.16397900115E+02  0.46694411727E+02  0.00000000000E+00 0. -1.
          1    1    1    2  501    0  0.50719058823E+02  0.49481650434E+01 -0.25264475294E+03  0.25773295958E+03  0.00000000000E+00 0. -1.
<scales pt_clust_5="13000.00000" pt_clust_6="13000.00000" pt_clust_7="13000.00000" pt_clust_8="13000.00000" pt_clust_9="13000.00000"></scales>
<clustering>
<clus scale="   83.656">  5  6 -1 -1</clus>
<clus scale="   50.960">  5  9 -1 -1</clus>
<clus scale="   88.514">  7  8 -1 -1</clus>
<clus scale="   90.680">  2  7  1 -1</clus>
<clus scale="  217.260">  1  5  2 -1</clus>
</clustering>
</event>
<event>
 9    2  0.3726337E-005  0.1307674E+03  0.7546771E-02  0.1243680E+00
         21   -1    0    0  501  502  0.00000000000E+00  0.00000000000E+00  0.32048188283E+03  0.32048188283E+03  0.00000000000E+00 0.  1.
         -1   -1    0    0    0  501 -0.00000000000E+00 -0.00000000000E+00 -0.38938678556E+02  0.38938678556E+02  0.00000000000E+00 0.  1.
         23    2    1    2    0    0  0.11301961190E+02  0.11660862820E+01  0.13301396368E+03  0.16152905884E+03  0.90938595955E+02 0.  0.
         24    2    1    2    0    0  0.34050859352E+02  0.50851811697E+01  0.88453841135E+02  0.12235998398E+03  0.77217637734E+02 0.  0.
        -13    1    4    4    0    0  0.36701068796E+02 -0.20386091377E+02  0.87129895267E+02  0.96717008957E+02  0.00000000000E+00 0.  1.
         14    1    4    4    0    0 -0.26502094439E+01  0.25471272546E+02  0.13239458683E+01  0.25642975020E+02  0.00000000000E+00 0. -1.
        -11    1    3    3    0    0 -0.38055703057E+02 -0.32250648794E+01  0.81746447373E+02  0.90228151021E+02  0.00000000000E+00 0. -1.
         11    1    3    3    0    0  0.49357664247E+02  0.43911511614E+01  0.51267516304E+02  0.71300907823E+02  0.00000000000E+00 0.  1.
         -2    1    1    2    0  502 -0.45352820542E+02 -0.62512674517E+01  0.60075399458E+02  0.75531518560E+02  0.00000000000E+00 0.  1.
<scales pt_clust_5="13000.00000" pt_clust_6="13000.00000" pt_clust_7="13000.00000" pt_clust_8="13000.00000" pt_clust_9="13000.00000"></scales>
<clustering>
<clus scale="   77.218">  5  6 -1 -1</clus>
<clus scale="   45.782">  5  9 -1 -1</clus>
<clus scale="   90.939">  7  8 -1 -1</clus>
<clus scale="   91.646">  2  7  1 -1</clus>
<clus scale="  130.767">  1  5  2 -1</clus>
</clustering>
</event>
<event>
 9    2  0.3726337E-005  0.2223626E+03  0.7546771E-02  0.1162711E+00
          4   -1    0    0  502    0 -0.00000000000E+00  0.00000000000E+00  0.35073505033E+02  0.35073505033E+02  0.00000000000E+00 0. -1.
         21   -1    0    0  501  502  0.00000000000E+00 -0.00000000000E+00 -0.82187288369E+03  0.82187288369E+03  0.00000000000E+00 0. -1.
         23    2    1    2    0    0  0.29899366593E+02  0.46526627218E+02 -0.36031560715E+03  0.37597494042E+03  0.92038687027E+02 0.  0.
         24    2    1    2    0    0  0.27389308479E+02  0.47268500888E+02 -0.11169817632E+03  0.14755055920E+03  0.79436764361E+02 0.  0.
        -13    1    4    4    0    0 -0.18659452727E+02  0.46246238475E+02 -0.50696579870E+02  0.71112818533E+02  0.00000000000E+00 0.  1.
         14    1    4    4    0    0  0.46048761205E+02  0.10222624123E+01 -0.61001596453E+02  0.76437740670E+02  0.00000000000E+00 0. -1.
        -11    1    3    3    0    0  0.56171071845E+02  0.27569234026E+01 -0.18119685324E+03  0.18972371903E+03  0.00000000000E+00 0.  1.
         11    1    3    3    0    0 -0.26271705252E+02  0.43769703816E+02 -0.17911875391E+03  0.18625122139E+03  0.00000000000E+00 0. -1.
          3    1    1    2  501    0 -0.57288675072E+02 -0.93795128106E+02 -0.31478559518E+03  0.33342088909E+03  0.00000000000E+00 0. -1.
<scales pt_clust_5="13000.00000" pt_clust_6="13000.00000" pt_clust_7="13000.00000" pt_clust_8="13000.00000" pt_clust_9="13000.00000"></scales>
<clustering>
<clus scale="   79.437">  5  6 -1 -1</clus>
<clus scale="   92.039">  7  8 -1 -1</clus>
<clus scale="  107.377">  1  7  2 -1</clus>
<clus scale="   90.998">  5  9 -1 -1</clus>
<clus scale="  222.363">  2  5  1 -1</clus>
</clustering>
</event>
<event>
 9    2  0.3726337E-005  0.1542763E+03  0.7546771E-02  0.1219555E+00
         21   -1    0    0  501  502  0.00000000000E+00  0.00000000000E+00  0.28835800043E+02  0.28835800043E+02  0.00000000000E+00 0. -1.
          2   -1    0    0  502    0 -0.00000000000E+00 -0.00000000000E+00 -0.61109378688E+03  0.61109378688E+03  0.00000000000E+00 0. -1.
         23    2    1    2    0    0 -0.11710737673E+02  0.68482788490E+01 -0.11063846892E+03  0.14371778373E+03  0.90718742574E+02 0.  0.
         24    2    1    2    0    0 -0.42178542363E+02  0.25183770744E+02 -0.31939670096E+03  0.33158527828E+03  0.74305399830E+02 0.  0.
        -11    1    4    4    0    0 -0.23727324854E+02 -0.18436069404E+02 -0.52259501422E+02  0.60282087627E+02  0.00000000000E+00 0.  1.
         12    1    4    4    0    0 -0.18451217509E+02  0.43619840148E+02 -0.26713719953E+03  0.27130319065E+03  0.00000000000E+00 0. -1.
        -13    1    3    3    0    0  0.44291065570E+01 -0.37463674099E+02 -0.77143521621E+02  0.85873551166E+02  0.00000000000E+00 0.  1.
         13    1    3    3    0    0 -0.16139844230E+02  0.44311952948E+02 -0.33494947300E+02  0.57844232561E+02  0.00000000000E+00 0. -1.
          1    1    1    2  501    0  0.53889280037E+02 -0.32032049593E+02 -0.15222281696E+03  0.16462652492E+03  0.00000000000E+00 0. -1.
<scales pt_clust_5="13000.00000" pt_clust_6="13000.00000" pt_clust_7="13000.00000" pt_clust_8="13000.00000" pt_clust_9="13000.00000"></scales>
<clustering>
<clus scale="   74.305">  5  6 -1 -1</clus>
<clus scale="   62.691">  5  9 -1 -1</clus>
<clus scale="   90.719">  7  8 -1 -1</clus>
<clus scale="   91.728">  2  7  1 -1</clus>
<clus scale="  154.276">  1  5  2 -1</clus>
</clustering>
</event>
<event>
 9    2  0.3726337E-005  0.3980940E+03  0.7546771E-02  0.1075204E+00
          2   -1    0    0  502    0 -0.00000000000E+00  0.00000000000E+00  0.12662401849E+04  0.12662401849E+04  0.00000000000E+00 0. -1.
         21   -1    0    0  501  502  0.00000000000E+00 -0.00000000000E+00 -0.66498733782E+02  0.66498733782E+02  0.00000000000E+00 0.  1.
         23    2    1    2    0    0  0.94274985487E+02 -0.10745176015E+03  0.23427872698E+03  0.28842234909E+03  0.88697665644E+02 0.  0.
         24    2    1    2    0    0 -0.55777303021E+02 -0.28716186556E+02  0.42760600814E+02  0.11082688585E+03  0.80736625782E+02 0.  0.
        -13    1    4    4    0    0 -0.36978150891E+02 -0.54724070898E+02  0.42863049527E+02  0.78735942198E+02  0.00000000000E+00 0.  1.
         14    1    4    4    0    0 -0.18799152130E+02  0.26007884342E+02 -0.10244871333E+00  0.32090943652E+02  0.00000000000E+00 0. -1.
        -11    1    3    3    0    0  0.35153011442E+02  0.29703855819E+01  0.20919132152E+02  0.41014235260E+02  0.00000000000E+00 0. -1.
         11    1    3    3    0    0  0.59121974045E+02 -0.11042214574E+03  0.21335959483E+03  0.24740811383E+03  0.00000000000E+00 0.  1.
          1    1    1    2  501    0 -0.38497682466E+02  0.13616794671E+03  0.92270212327E+03  0.93348968369E+03  0.00000000000E+00 0. -1.
<scales pt_clust_5="13000.00000" pt_clust_6="13000.00000" pt_clust_7="13000.00000" pt_clust_8="13000.00000" pt_clust_9="13000.00000"></scales>
<clustering>
<clus scale="   80.737">  5  6 -1 -1</clus>
<clus scale="   88.698">  7  8 -1 -1</clus>
<clus scale="  141.505">  5  9 -1 -1</clus>
<clus scale="  168.229">  1  7  2 -1</clus>
<clus scale="  398.094">  2  5  1 -1</clus>
</clustering>
</event>
<event>
 9    2  0.3726337E-005  0.3304929E+03  0.7546771E-02  0.1118343E+00
         -1   -1    0    0    0  501 -0.00000000000E+00  0.00000000000E+00  0.34605890639E+02  0.34605890639E+02  0.00000000000E+00 0.  1.
         21   -1    0    0  501  502  0.00000000000E+00 -0.00000000000E+00 -0.14169996931E+04  0.14169996931E+04  0.00000000000E+00 0.  1.
         23    2    1    2    0    0  0.12209204297E+02 -0.12478178501E+02 -0.16914942515E+03  0.19415281091E+03  0.93696405204E+02 0.  0.
         24    2    1    2    0    0 -0.13328563492E+03  0.86254694582E+02 -0.83646948941E+03  0.85488378181E+03  0.77072309385E+02 0.  0.
        -13    1    4    4    0    0 -0.12980386672E+03  0.59075250377E+02 -0.59445017284E+03  0.61131819620E+03  0.00000000000E+00 0.  1.
         14    1    4    4    0    0 -0.34817681938E+01  0.27179444205E+02 -0.24201931658E+03  0.24356558561E+03  0.00000000000E+00 0. -1.
        -11    1    3    3    0    0  0.13983440808E+02 -0.43338659554E+02 -0.15226857130E+03  0.15893235616E+03  0.00000000000E+00 0.  1.
         11    1    3    3    0    0 -0.17742365106E+01  0.30860481052E+02 -0.16880853841E+02  0.35220454744E+02  0.00000000000E+00 0. -1.
         -2    1    1    2    0  502  0.12107643062E+03 -0.73776516081E+02 -0.37677488790E+03  0.40256899102E+03  0.00000000000E+00 0.  1.
<scales pt_clust_5="13000.00000" pt_clust_6="13000.00000" pt_clust_7="13000.00000" pt_clust_8="13000.00000" pt_clust_9="13000.00000"></scales>
<clustering>
<clus scale="   77.072">  5  6 -1 -1</clus>
<clus scale="   93.696">  7  8 -1 -1</clus>
<clus scale="   95.309">  1  7  2 -1</clus>
<clus scale="  151.676">  5  9 -1 -1</clus>
<clus scale="  330.493">  2  5  1 -1</clus>
</clustering>
</event>
<event>
 9    2  0.3726337E-005  0.3195370E+03  0.7546771E-02  0.1120445E+00
         -3   -1    0    0    0  501 -0.00000000000E+00  0.00000000000E+00  0.34399800135E+02  0.34399800135E+02  0.00000000000E+00 0.  1.
         21   -1    0    0  501  502  0.00000000000E+00 -0.00000000000E+00 -0.12888897069E+04  0.12888897069E+04  0.00000000000E+00 0.  1.
         23    2    1    2    0    0 -0.13365086739E+02 -0.38673734510E+02 -0.25318887737E+03  0.27223877563E+03  0.91296550019E+02 0.  0.
         24    2    1    2    0    0  0.14884756949E+03  0.17798200069E+02 -0.40118382495E+03  0.43547624352E+03  0.78858876481E+02 0.  0.
        -13    1    4    4    0    0  0.13951512026E+03  0.39915030825E+02 -0.33524820791E+03  0.36530677433E+03  0.00000000000E+00 0.  1.
         14    1    4    4    0    0  0.93324492257E+01 -0.22116830756E+02 -0.65935617041E+02  0.70169469186E+02  0.00000000000E+00 0. -1.
        -11    1    3    3    0    0 -0.31413700512E+02 -0.62615092364E+02 -0.17544164377E+03  0.18891066867E+03  0.00000000000E+00 0.  1.
         11    1    3    3    0    0  0.18048613773E+02  0.23941357853E+02 -0.77747233607E+02  0.83328106954E+02  0.00000000000E+00 0. -1.
         -4    1    1    2    0  502 -0.13548248275E+03  0.20875534441E+02 -0.60011720443E+03  0.61557448787E+03  0.00000000000E+00 0.  1.
<scales pt_clust_5="13000.00000" pt_clust_6="13000.00000" pt_clust_7="13000.00000" pt_clust_8="13000.00000" pt_clust_9="13000.00000"></scales>
<clustering>
<clus scale="   78.859">  5  6 -1 -1</clus>
<clus scale="   91.297">  7  8 -1 -1</clus>
<clus scale="  100.047">  1  7  2 -1</clus>
<clus scale="  139.916">  5  9 -1 -1</clus>
<clus scale="  319.537">  2  5  1 -1</clus>
</clustering>
</event>
<event>
 9    2  0.3726337E-005  0.4342030E+03  0.7546771E-02  0.1076122E+00
         21   -1    0    0  501  502  0.00000000000E+00  0.00000000000E+00  0.25622395316E+03  0.25622395316E+03  0.00000000000E+00 0. -1.
          2   -1    0    0  502    0 -0.00000000000E+00 -0.00000000000E+00 -0.34070562340E+03  0.34070562340E+03  0.00000000000E+00 0. -1.
         23    2    1    2    0    0 -0.64747426793E+02 -0.27270027057E+02  0.59122695990E+02  0.13959549951E+03  0.10514526452E+03 0.  0.
         24    2    1    2    0    0  0.13341696886E+03 -0.14379363699E+03  0.16084146593E+02  0.21345151455E+03  0.82620528166E+02 0.  0.
        -11    1    4    4    0    0  0.83118370669E+02 -0.30676773170E+02 -0.12790949804E+00  0.88598782812E+02  0.00000000000E+00 0.  1.
         12    1    4    4    0    0  0.50298598189E+02 -0.11311686382E+03  0.16212056091E+02  0.12485273174E+03  0.00000000000E+00 0. -1.
        -13    1    3    3    0    0 -0.82827650145E+02 -0.11626717319E+02  0.73797919874E+02  0.11154251728E+03  0.00000000000E+00 0. -1.
         13    1    3    3    0    0  0.18080223352E+02 -0.15643309738E+02 -0.14675223885E+02  0.28052982231E+02  0.00000000000E+00 0.  1.
          1    1    1    2  501    0 -0.68669542065E+02  0.17106366404E+03 -0.15968851282E+03  0.24388256249E+03  0.00000000000E+00 0. -1.
<scales pt_clust_5="13000.00000" pt_clust_6="13000.00000" pt_clust_7="13000.00000" pt_clust_8="13000.00000" pt_clust_9="13000.00000"></scales>
<clustering>
<clus scale="   82.621">  5  6 -1 -1</clus>
<clus scale="  105.145">  7  8 -1 -1</clus>
<clus scale="  126.457">  2  7  1 -1</clus>
<clus scale="  189.501">  5  9 -1 -1</clus>
<clus scale="  434.203">  1  5  2 -1</clus>
</clustering>
</event>
<event>
 9    2  0.3726337E-005  0.2279928E+03  0.7546771E-02  0.1156337E+00
         21   -1    0    0  501  502  0.00000000000E+00  0.00000000000E+00  0.59211126122E+02  0.59211126122E+02  0.00000000000E+00 0.  1.
          2   -1    0    0  502    0 -0.00000000000E+00 -0.00000000000E+00 -0.95463129783E+03  0.95463129783E+03  0.00000000000E+00 0. -1.
         23    2    1    2    0    0 -0.40162652150E+02 -0.59598460765E+02 -0.30703045094E+02  0.11957376612E+03  0.90499687361E+02 0.  0.
         24    2    1    2    0    0 -0.66129744188E+02  0.27544189556E+02 -0.54692091810E+03  0.55763832651E+03  0.81891312661E+02 0.  0.
        -13    1    4    4    0    0 -0.14647129727E+01 -0.25264151175E+02 -0.12441619625E+03  0.12696382401E+03  0.00000000000E+00 0.  1.
         14    1    4    4    0    0 -0.64665031216E+02  0.52808340731E+02 -0.42250472186E+03  0.43067450250E+03  0.00000000000E+00 0. -1.
        -11    1    3    3    0    0 -0.63189818702E+02 -0.38921455662E+02 -0.43568019538E+02  0.86058150253E+02  0.00000000000E+00 0.  1.
         11    1    3    3    0    0  0.23027166552E+02 -0.20677005103E+02  0.12864974444E+02  0.33515615866E+02  0.00000000000E+00 0. -1.
          1    1    1    2  501    0  0.10629239634E+03  0.32054271209E+02 -0.31779620851E+03  0.33663033132E+03  0.00000000000E+00 0. -1.
<scales pt_clust_5="13000.00000" pt_clust_6="13000.00000" pt_clust_7="13000.00000" pt_clust_8="13000.00000" pt_clust_9="13000.00000"></scales>
<clustering>
<clus scale="   81.891">  5  6 -1 -1</clus>
<clus scale="   90.500">  7  8 -1 -1</clus>
<clus scale="  111.021">  5  9 -1 -1</clus>
<clus scale="  115.565">  2  7  1 -1</clus>
<clus scale="  227.993">  1  5  2 -1</clus>
</clustering>
</event>
<event>
 9    2  0.3726337E-005  0.2216124E+03  0.7546771E-02  0.1136327E+00
          2   -1    0    0  502    0 -0.00000000000E+00  0.00000000000E+00  0.54155095529E+03  0.54155095529E+03  0.00000000000E+00 0. -1.
         21   -1    0    0  501  502  0.00000000000E+00 -0.00000000000E+00 -0.14522737059E+03  0.14522737059E+03  0.00000000000E+00 0. -1.
         23    2    1    2    0    0 -0.16991705384E+03 -0.61377868067E+02 -0.31236849729E+02  0.20519759856E+03  0.92148064533E+02 0.  0.
         24    2    1    2    0    0  0.58460108858E+02  0.16114965296E+02  0.20203528587E+03  0.22597757087E+03  0.81057568233E+02 0.  0.
        -13    1    4    4    0    0  0.98452208640E+01  0.35407401454E+02  0.14045382709E+03  0.14518226474E+03  0.00000000000E+00 0.  1.
         14    1    4    4    0    0  0.48614887993E+02 -0.19292436158E+02  0.61581458780E+02  0.80795306132E+02  0.00000000000E+00 0. -1.
        -11    1    3    3    0    0 -0.69638687166E+02 -0.72411372317E+02 -0.33022961420E+01  0.10051795238E+03  0.00000000000E+00 0.  1.
         11    1    3    3    0    0 -0.10027836668E+03  0.11033504249E+02 -0.27934553587E+02  0.10467964617E+03  0.00000000000E+00 0. -1.
          1    1    1    2  501    0  0.11145694498E+03  0.45262902771E+02  0.22552514856E+03  0.25560315645E+03  0.00000000000E+00 0. -1.
<scales pt_clust_5="13000.00000" pt_clust_6="13000.00000" pt_clust_7="13000.00000" pt_clust_8="13000.00000" pt_clust_9="13000.00000"></scales>
<clustering>
<clus scale="   81.058">  5  6 -1 -1</clus>
<clus scale="   92.148">  7  8 -1 -1</clus>
<clus scale="  120.297">  5  9 -1 -1</clus>
<clus scale="  202.806">  1  7  2 -1</clus>
<clus scale="  221.612">  2  5  1 -1</clus>
</clustering>
</event>
<event>
 9    2  0.3726337E-005  0.1538699E+03  0.7546771E-02  0.1217906E+00
          2   -1    0    0  502    0 -0.00000000000E+00  0.00000000000E+00  0.11826871202E+04  0.11826871202E+04  0.00000000000E+00 0. -1.
         21   -1    0    0  501  502  0.00000000000E+00 -0.00000000000E+00 -0.13188331784E+02  0.13188331784E+02  0.00000000000E+00 0. -1.
         23    2    1    2    0    0 -0.26526667926E+02  0.66935693706E+00  0.47139231820E+03  0.48101281060E+03  0.91970072047E+02 0.  0.
         24    2    1    2    0    0  0.72826171989E+02  0.26332475448E+01  0.47300463683E+03  0.48502490152E+03  0.78772985934E+02 0.  0.
        -11    1    4    4    0    0 -0.38316842834E+01 -0.25164088288E+02  0.97417104796E+02  0.10068766285E+03  0.00000000000E+00 0.  1.
         12    1    4    4    0    0  0.76657856272E+02  0.27797335833E+02  0.37558753203E+03  0.38433723867E+03  0.00000000000E+00 0. -1.
        -11    1    3    3    0    0  0.25884013597E+02 -0.23764873963E+02  0.12577779103E+03  0.13059404317E+03  0.00000000000E+00 0.  1.
         11    1    3    3    0    0 -0.52410681523E+02  0.24434230900E+02  0.34561452717E+03  0.35041876743E+03  0.00000000000E+00 0. -1.
          1    1    1    2  501    0 -0.46299504063E+02 -0.33026044819E+01  0.22510183341E+03  0.22983773989E+03  0.00000000000E+00 0. -1.
<scales pt_clust_5="13000.00000" pt_clust_6="13000.00000" pt_clust_7="13000.00000" pt_clust_8="13000.00000" pt_clust_9="13000.00000"></scales>
<clustering>
<clus scale="   78.773">  5  6 -1 -1</clus>
<clus scale="   46.417">  5  9 -1 -1</clus>
<clus scale="   91.970">  7  8 -1 -1</clus>
<clus scale="   95.722">  1  7  2 -1</clus>
<clus scale="  153.870">  2  5  1 -1</clus>
</clustering>
</event>
<event>
 9    2  0.3726337E-005  0.2007431E+03  0.7546771E-02  0.1172657E+00
         21   -1    0    0  501  502  0.00000000000E+00  0.00000000000E+00  0.54968149037E+03  0.54968149037E+03  0.00000000000E+00 0.  1.
         -1   -1    0    0    0  501 -0.00000000000E+00 -0.00000000000E+00 -0.45700688518E+02  0.45700688518E+02  0.00000000000E+00 0.  1.
         23    2    1    2    0    0  0.49629298699E+02  0.47336480377E+02  0.17718154990E+03  0.21185181123E+03  0.93723415612E+02 0.  0.
         24    2    1    2    0    0 -0.10075754968E+03 -0.49271254626E+02  0.28259063639E+03  0.31591200410E+03  0.85809010066E+02 0.  0.
        -13    1    4    4    0    0 -0.81569227170E+02 -0.17460217143E+02  0.25852113970E+03  0.27164605220E+03  0.00000000000E+00 0.  1.
         14    1    4    4    0    0 -0.19188322510E+02 -0.31811037483E+02  0.24069496685E+02  0.44265951895E+02  0.00000000000E+00 0. -1.
        -11    1    3    3    0    0  0.14799681195E+02 -0.20558383666E+02  0.10060996017E+03  0.10374990018E+03  0.00000000000E+00 0.  1.
         11    1    3    3    0    0  0.34829617504E+02  0.67894864043E+02  0.76571589729E+02  0.10810191105E+03  0.00000000000E+00 0. -1.
         -2    1    1    2    0  502  0.51128250982E+02  0.19347742496E+01  0.44208615560E+02  0.67618363553E+02  0.00000000000E+00 0.  1.
<scales pt_clust_5="13000.00000" pt_clust_6="13000.00000" pt_clust_7="13000.00000" pt_clust_8="13000.00000" pt_clust_9="13000.00000"></scales>
<clustering>
<clus scale="   85.809">  5  6 -1 -1</clus>
<clus scale="   51.165">  5  9 -1 -1</clus>
<clus scale="   93.723">  7  8 -1 -1</clus>
<clus scale="  116.137">  2  7  1 -1</clus>
<clus scale="  200.743">  1  5  2 -1</clus>
</clustering>
</event>
<event>
 9    2  0.3726337E-005  0.2077405E+03  0.7546771E-02  0.1165040E+00
         21   -1    0    0  501  502  0.00000000000E+00  0.00000000000E+00  0.47435832857E+02  0.47435832857E+02  0.00000000000E+00 0. -1.
          2   -1    0    0  502    0 -0.00000000000E+00 -0.00000000000E+00 -0.58322650074E+03  0.58322650074E+03  0.00000000000E+00 0. -1.
         23    2    1    2    0    0  0.43097950419E+02 -0.70461964079E+02 -0.19221920154E+03  0.22916829991E+03  0.93528426320E+02 0.  0.
         24    2    1    2    0    0  0.49476059483E+02  0.79625327363E+01 -0.14151045154E+03  0.17061575422E+03  0.81075553055E+02 0.  0.
        -13    1    4    4    0    0  0.16710039506E+02  0.39805332013E+02 -0.38168433108E+02  0.57623946089E+02  0.00000000000E+00 0.  1.
         14    1    4    4    0    0  0.32766019977E+02 -0.31842799276E+02 -0.10334201844E+03  0.11299180813E+03  0.00000000000E+00 0. -1.
        -11    1    3    3    0    0  0.68210892214E+02 -0.26693010837E+02 -0.12823073468E+03  0.14767655183E+03  0.00000000000E+00 0.  1.
         11    1    3    3    0    0 -0.25112941795E+02 -0.43768953242E+02 -0.63988466856E+02  0.81491748074E+02  0.00000000000E+00 0. -1.
          1    1    1    2  501    0 -0.92574009902E+02  0.62499431343E+02 -0.20206101480E+03  0.23087827946E+03  0.00000000000E+00 0. -1.
<scales pt_clust_5="13000.00000" pt_clust_6="13000.00000" pt_clust_7="13000.00000" pt_clust_8="13000.00000" pt_clust_9="13000.00000"></scales>
<clustering>
<clus scale="   81.076">  5  6 -1 -1</clus>
<clus scale="   93.528">  7  8 -1 -1</clus>
<clus scale="  111.697">  5  9 -1 -1</clus>
<clus scale="  124.779">  2  7  1 -1</clus>
<clus scale="  207.740">  1  5  2 -1</clus>
</clustering>
</event>
<event>
 9    2  0.3726337E-005  0.4383066E+03  0.7546771E-02  0.1071016E+00
         21   -1    0    0  501  502  0.00000000000E+00  0.00000000000E+00  0.20596985981E+03  0.20596985981E+03  0.00000000000E+00 0. -1.
          2   -1    0    0  502    0 -0.00000000000E+00 -0.00000000000E+00 -0.43718673592E+03  0.43718673592E+03  0.00000000000E+00 0. -1.
         23    2    1    2    0    0  0.39788212822E+02  0.10463252460E+03 -0.13284840106E+03  0.19394726374E+03  0.86230947834E+02 0.  0.
         24    2    1    2    0    0 -0.32151365168E+02 -0.61056929258E+02 -0.26041314747E+03  0.28123424512E+03  0.80721957136E+02 0.  0.
        -13    1    4    4    0    0 -0.39129842014E+02  0.34356477913E+01 -0.72770384434E+02  0.82695084875E+02  0.00000000000E+00 0.  1.
         14    1    4    4    0    0  0.69784768461E+01 -0.64492577049E+02 -0.18764276303E+03  0.19853916025E+03  0.00000000000E+00 0. -1.
        -13    1    3    3    0    0  0.58660405182E+02  0.77321571635E+02 -0.12763308978E+03  0.16034298919E+03  0.00000000000E+00 0. -1.
         13    1    3    3    0    0 -0.18872192360E+02  0.27310952966E+02 -0.52153112842E+01  0.33604274552E+02  0.00000000000E+00 0.  1.
          1    1    1    2  501    0 -0.76368476537E+01 -0.43575595344E+02  0.16204467242E+03  0.16797508687E+03  0.00000000000E+00 0. -1.
<scales pt_clust_5="13000.00000" pt_clust_6="13000.00000" pt_clust_7="13000.00000" pt_clust_8="13000.00000" pt_clust_9="13000.00000"></scales>
<clustering>
<clus scale="   80.722">  5  6 -1 -1</clus>
<clus scale="   44.240">  5  9 -1 -1</clus>
<clus scale="   86.231">  7  8 -1 -1</clus>
<clus scale="  141.304">  2  7  1 -1</clus>
<clus scale="  438.307">  1  5  2 -1</clus>
</clustering>
</event>
<event>
 9    2  0.3726337E-005  0.3057699E+03  0.7546771E-02  0.1123007E+00
          2   -1    0    0  502    0 -0.00000000000E+00  0.00000000000E+00  0.37037932272E+03  0.37037932272E+03  0.00000000000E+00 0. -1.
         21   -1    0    0  501  502  0.00000000000E+00 -0.00000000000E+00 -0.12163294569E+03  0.12163294569E+03  0.00000000000E+00 0. -1.
         23    2    1    2    0    0  0.50364959359E+02  0.22515306191E+02  0.11827918324E+03  0.15957144260E+03  0.91812373692E+02 0.  0.
         24    2    1    2    0    0  0.36485210127E+01  0.84982972577E+02  0.16777018310E+03  0.20648508353E+03  0.85169466649E+02 0.  0.
        -13    1    4    4    0    0  0.31847328939E+02  0.24877116381E+02  0.21325595801E+02  0.45693591632E+02  0.00000000000E+00 0.  1.
         14    1    4    4    0    0 -0.28198807926E+02  0.60105856196E+02  0.14644458730E+03  0.16079149190E+03  0.00000000000E+00 0. -1.
        -11    1    3    3    0    0 -0.22527632951E+02  0.24990081797E+02  0.44948070256E+02  0.56145591584E+02  0.00000000000E+00 0.  1.
         11    1    3    3    0    0  0.72892592309E+02 -0.24747756058E+01  0.73331112983E+02  0.10342585102E+03  0.00000000000E+00 0. -1.
          1    1    1    2  501    0 -0.54013480371E+02 -0.10749827877E+03 -0.37302989320E+02  0.12595574228E+03  0.00000000000E+00 0. -1.
<scales pt_clust_5="13000.00000" pt_clust_6="13000.00000" pt_clust_7="13000.00000" pt_clust_8="13000.00000" pt_clust_9="13000.00000"></scales>
<clustering>
<clus scale="   85.169">  5  6 -1 -1</clus>
<clus scale="   91.812">  7  8 -1 -1</clus>
<clus scale="  107.112">  1  7  2 -1</clus>
<clus scale="  112.321">  5  9 -1 -1</clus>
<clus scale="  305.770">  2  5  1 -1</clus>
</clustering>
</event>
<event>
 9    2  0.3726337E-005  0.3775753E+03  0.7546771E-02  0.1083363E+00
         -3   -1    0    0    0  501 -0.00000000000E+00  0.00000000000E+00  0.65574336959E+03  0.65574336959E+03  0.00000000000E+00 0.  1.
         21   -1    0    0  501  502  0.00000000000E+00 -0.00000000000E+00 -0.15427085562E+03  0.15427085562E+03  0.00000000000E+00 0.  1.
         23    2    1    2    0    0  0.17300805799E+02 -0.12563126713E+03 -0.27011561285E+02  0.16050788293E+03  0.94607731605E+02 0.  0.
         24    2    1    2    0    0 -0.20768255204E+02 -0.87302888524E+02  0.56451181925E+02  0.13165691412E+03  0.78062105576E+02 0.  0.
        -11    1    4    4    0    0  0.20055647997E+02 -0.17343499224E+02 -0.84876001145E+01  0.27839995288E+02  0.00000000000E+00 0.  1.
         12    1    4    4    0    0 -0.40823903201E+02 -0.69959389299E+02  0.64938782039E+02  0.10381691884E+03  0.00000000000E+00 0. -1.
        -13    1    3    3    0    0  0.38094607365E+02 -0.64553858740E+02  0.23515149599E+02  0.78558017090E+02  0.00000000000E+00 0. -1.
         13    1    3    3    0    0 -0.20793801566E+02 -0.61077408388E+02 -0.50526710885E+02  0.81949865843E+02  0.00000000000E+00 0.  1.
         -4    1    1    2    0  502  0.34674494055E+01  0.21293415565E+03  0.47203289333E+03  0.51784942815E+03  0.00000000000E+00 0.  1.
<scales pt_clust_5="13000.00000" pt_clust_6="13000.00000" pt_clust_7="13000.00000" pt_clust_8="13000.00000" pt_clust_9="13000.00000"></scales>
<clustering>
<clus scale="   78.062">  5  6 -1 -1</clus>
<clus scale="   94.608">  7  8 -1 -1</clus>
<clus scale="  158.219">  1  7  2 -1</clus>
<clus scale="  108.864">  5  9 -1 -1</clus>
<clus scale="  377.575">  2  5  1 -1</clus>
</clustering>
</event>
<event>
 9    2  0.3726337E-005  0.1905449E+03  0.7546771E-02  0.1178298E+00
         21   -1    0    0  501  502  0.00000000000E+00  0.00000000000E+00  0.46244335415E+03  0.46244335415E+03  0.00000000000E+00 0.  1.
         -1   -1    0    0    0  501 -0.00000000000E+00 -0.00000000000E+00 -0.22649945134E+03  0.22649945134E+03  0.00000000000E+00 0.  1.
         23    2    1    2    0    0 -0.56993723212E+02 -0.50356336713E+02 -0.18878393012E+03  0.22343117753E+03  0.92184997068E+02 0.  0.
         24    2    1    2    0    0 -0.17295058152E+02 -0.24034778673E+02  0.21007578852E+03  0.22649622834E+03  0.79321591676E+02 0.  0.
        -13    1    4    4    0    0 -0.41243380424E+02 -0.36779601249E+02  0.16361452887E+03  0.17269472938E+03  0.00000000000E+00 0.  1.
         14    1    4    4    0    0  0.23948322273E+02  0.12744822576E+02  0.46461259652E+02  0.53801498963E+02  0.00000000000E+00 0. -1.
        -13    1    3    3    0    0 -0.11750368600E+01 -0.47592777934E+02 -0.33000998496E+02  0.57926842869E+02  0.00000000000E+00 0. -1.
         13    1    3    3    0    0 -0.55818686352E+02 -0.27635587794E+01 -0.15578293163E+03  0.16550433466E+03  0.00000000000E+00 0.  1.
         -2    1    1    2    0  502  0.74288781364E+02  0.74391115386E+02  0.21465204442E+03  0.23901539962E+03  0.00000000000E+00 0.  1.
<scales pt_clust_5="13000.00000" pt_clust_6="13000.00000" pt_clust_7="13000.00000" pt_clust_8="13000.00000" pt_clust_9="13000.00000"></scales>
<clustering>
<clus scale="   79.322">  5  6 -1 -1</clus>
<clus scale="   92.185">  7  8 -1 -1</clus>
<clus scale="  105.133">  5  9 -1 -1</clus>
<clus scale="  119.508">  2  7  1 -1</clus>
<clus scale="  190.545">  1  5  2 -1</clus>
</clustering>
</event>
<event>
 9    2  0.3726337E-005  0.2683565E+03  0.7546771E-02  0.1115819E+00
         -1   -1    0    0    0  501 -0.00000000000E+00  0.00000000000E+00  0.86160090966E+03  0.86160090966E+03  0.00000000000E+00 0.  1.
         21   -1    0    0  501  502  0.00000000000E+00 -0.00000000000E+00 -0.70260040910E+02  0.70260040910E+02  0.00000000000E+00 0. -1.
         23    2    1    2    0    0  0.13948316921E+02  0.16525665359E+03  0.16870879688E+03  0.25385954158E+03  0.92074380827E+02 0.  0.
         24    2    1    2    0    0  0.26417696663E+02  0.57292553765E+01  0.28008368885E+03  0.29302739580E+03  0.81776909143E+02 0.  0.
        -11    1    4    4    0    0  0.55170893478E+02 -0.23877285914E+01  0.15917587655E+03  0.16848290243E+03  0.00000000000E+00 0.  1.
         12    1    4    4    0    0 -0.28753196815E+02  0.81169839679E+01  0.12090781230E+03  0.12454449337E+03  0.00000000000E+00 0. -1.
        -11    1    3    3    0    0 -0.84667397753E+01  0.12771101919E+03  0.16658944341E+03  0.21008053875E+03  0.00000000000E+00 0. -1.
         11    1    3    3    0    0  0.22415056697E+02  0.37545634396E+02  0.21193534611E+01  0.43779002821E+02  0.00000000000E+00 0.  1.
         -2    1    1    2    0  502 -0.40366013584E+02 -0.17098590897E+03  0.34254838303E+03  0.38497401319E+03  0.00000000000E+00 0.  1.
<scales pt_clust_5="13000.00000" pt_clust_6="13000.00000" pt_clust_7="13000.00000" pt_clust_8="13000.00000" pt_clust_9="13000.00000"></scales>
<clustering>
<clus scale="   81.777">  5  6 -1 -1</clus>
<clus scale="   92.074">  7  8 -1 -1</clus>
<clus scale="  175.686">  5  9 -1 -1</clus>
<clus scale="  189.689">  1  7  2 -1</clus>
<clus scale="  268.357">  2  5  1 -1</clus>
</clustering>
</event>
<event>
 9    2  0.3726337E-005  0.1564158E+03  0.7546771E-02  0.1201760E+00
          2   -1    0    0  502    0 -0.00000000000E+00  0.00000000000E+00  0.10648566865E+04  0.10648566865E+04  0.00000000000E+00 0. -1.
         21   -1    0    0  501  502  0.00000000000E+00 -0.00000000000E+00 -0.19164680050E+02  0.19164680050E+02  0.00000000000E+00 0.  1.
         23    2    1    2    0    0 -0.89089519003E+02 -0.23971525423E+02  0.50837541664E+03  0.52440093252E+03  0.89661571236E+02 0.  0.
         24    2    1    2    0    0  0.24335544725E+02 -0.66459641008E+01  0.25626927284E+03  0.26958922497E+03  0.79799890006E+02 0.  0.
        -11    1    4    4    0    0  0.36689557658E+02  0.10648286777E+02  0.53671694515E+02  0.65879894084E+02  0.00000000000E+00 0.  1.
         12    1    4    4    0    0 -0.12354012933E+02 -0.17294250878E+02  0.20259757832E+03  0.20370933089E+03  0.00000000000E+00 0. -1.
        -13    1    3    3    0    0 -0.44601313804E+01 -0.36689338669E+02  0.88759061682E+02  0.96146613953E+02  0.00000000000E+00 0. -1.
         13    1    3    3    0    0 -0.84629387622E+02  0.12717813246E+02  0.41961635495E+03  0.42825431856E+03  0.00000000000E+00 0.  1.
          1    1    1    2  501    0  0.64753974278E+02  0.30617489524E+02  0.28104731698E+03  0.29003120907E+03  0.00000000000E+00 0. -1.
<scales pt_clust_5="13000.00000" pt_clust_6="13000.00000" pt_clust_7="13000.00000" pt_clust_8="13000.00000" pt_clust_9="13000.00000"></scales>
<clustering>
<clus scale="   79.800">  5  6 -1 -1</clus>
<clus scale="   71.628">  5  9 -1 -1</clus>
<clus scale="   89.662">  7  8 -1 -1</clus>
<clus scale="  128.650">  1  7  2 -1</clus>
<clus scale="  156.416">  2  5  1 -1</clus>
</clustering>
</event>
<event>
 9    2  0.3726337E-005  0.1434206E+03  0.7546771E-02  0.1229081E+00
         21   -1    0    0  501  502  0.00000000000E+00  0.00000000000E+00  0.30951268807E+03  0.30951268807E+03  0.00000000000E+00 0.  1.
         -1   -1    0    0    0  501 -0.00000000000E+00 -0.00000000000E+00 -0.55255463830E+02  0.55255463830E+02  0.00000000000E+00 0.  1.
         23    2    1    2    0    0  0.15946335167E+02 -0.70323727705E+01  0.18087800886E+03  0.20366580171E+03  0.91973718127E+02 0.  0.
         24    2    1    2    0    0 -0.39241357301E+02 -0.21362589444E+02  0.82557480129E+02  0.12324508564E+03  0.79858432609E+02 0.  0.
        -11    1    4    4    0    0 -0.61799683242E+01 -0.43436800788E+02  0.67968923162E+02  0.80899457272E+02  0.00000000000E+00 0.  1.
         12    1    4    4    0    0 -0.33061388977E+02  0.22074211345E+02  0.14588556968E+02  0.42345628369E+02  0.00000000000E+00 0. -1.
        -11    1    3    3    0    0 -0.17758067752E+02  0.30042048532E+02  0.11918554452E+03  0.12418964398E+03  0.00000000000E+00 0.  1.
         11    1    3    3    0    0  0.33704402920E+02 -0.37074421302E+02  0.61692464343E+02  0.79476157732E+02  0.00000000000E+00 0. -1.
         -2    1    1    2    0  502  0.23295022134E+02  0.28394962214E+02 -0.91782647471E+01  0.37857264549E+02  0.00000000000E+00 0.  1.
<scales pt_clust_5="13000.00000" pt_clust_6="13000.00000" pt_clust_7="13000.00000" pt_clust_8="13000.00000" pt_clust_9="13000.00000"></scales>
<clustering>
<clus scale="   79.858">  5  6 -1 -1</clus>
<clus scale="   36.728">  5  9 -1 -1</clus>
<clus scale="   91.974">  7  8 -1 -1</clus>
<clus scale="   93.610">  2  7  1 -1</clus>
<clus scale="  143.421">  1  5  2 -1</clus>
</clustering>
</event>
<event>
 9    2  0.3726337E-005  0.6953213E+03  0.7546771E-02  0.9969062E-01
          2   -1    0    0  502    0 -0.00000000000E+00  0.00000000000E+00  0.37657391446E+03  0.37657391446E+03  0.00000000000E+00 0. -1.
         21   -1    0    0  501  502  0.00000000000E+00 -0.00000000000E+00 -0.99070900161E+03  0.99070900161E+03  0.00000000000E+00 0. -1.
         23    2    1    2    0    0  0.30173505351E+03  0.31434486512E+02  0.13749805447E+03  0.34335711887E+03  0.83403996531E+02 0.  0.
         24    2    1    2    0    0 -0.96783025357E+01 -0.21278306652E+03 -0.37878703599E+02  0.23169486430E+03  0.82930157476E+02 0.  0.
        -11    1    4    4    0    0 -0.12636959604E+02 -0.13343167584E+03 -0.63427642865E+02  0.14827936723E+03  0.00000000000E+00 0.  1.
         12    1    4    4    0    0  0.29586570687E+01 -0.79351390677E+02  0.25548939266E+02  0.83415497072E+02  0.00000000000E+00 0. -1.
        -13    1    3    3    0    0  0.98380350099E+02  0.32768780863E+02  0.83002565878E+02  0.13282286033E+03  0.00000000000E+00 0.  1.
         13    1    3    3    0    0  0.20335470341E+03 -0.13342943510E+01  0.54495488591E+02  0.21053425854E+03  0.00000000000E+00 0. -1.
          1    1    1    2  501    0 -0.29205675098E+03  0.18134858001E+03 -0.71375443802E+03  0.79223093291E+03  0.00000000000E+00 0. -1.
<scales pt_clust_5="13000.00000" pt_clust_6="13000.00000" pt_clust_7="13000.00000" pt_clust_8="13000.00000" pt_clust_9="13000.00000"></scales>
<clustering>
<clus scale="   82.930">  5  6 -1 -1</clus>
<clus scale="   83.404">  7  8 -1 -1</clus>
<clus scale="  314.624">  1  7  2 -1</clus>
<clus scale="  279.856">  5  9 -1 -1</clus>
<clus scale="  695.321">  2  5  1 -1</clus>
</clustering>
</event>
<event>
 9    2  0.4873085E-005  0.1336202E+04  0.7546771E-02  0.9501891E-01
          2   -1    0    0  502    0 -0.00000000000E+00  0.00000000000E+00  0.11152889429E+04  0.11152889429E+04  0.00000000000E+00 0. -1.
         21   -1    0    0  501  502  0.00000000000E+00 -0.00000000000E+00 -0.53600960367E+03  0.53600960367E+03  0.00000000000E+00 0. -1.
         23    2    1    2    0    0  0.87803329369E+02 -0.16819407576E+03  0.75439906252E+02  0.22326105136E+03  0.90308614389E+02 0.  0.
         24    2    1    2    0    0  0.63466868454E+02 -0.55305616922E+03  0.55648922680E+02  0.56550672928E+03  0.82473562837E+02 0.  0.
        -11    1    4    4    0    0 -0.10362891008E+02 -0.23351548095E+02 -0.83232325056E+01  0.26869322802E+02  0.00000000000E+00 0.  1.
         12    1    4    4    0    0  0.73829759463E+02 -0.52970462113E+03  0.63972155185E+02  0.53863740648E+03  0.00000000000E+00 0. -1.
        -11    1    3    3    0    0  0.62302756423E+02 -0.82234146748E+02  0.84204730509E+02  0.13317103660E+03  0.00000000000E+00 0. -1.
         11    1    3    3    0    0  0.25500572947E+02 -0.85959929009E+02 -0.87648242571E+01  0.90090014763E+02  0.00000000000E+00 0.  1.
          1    1    1    2  501    0 -0.15127019782E+03  0.72125024498E+03  0.44819051027E+03  0.86253076590E+03  0.00000000000E+00 0. -1.
<scales pt_clust_5="13000.00000" pt_clust_6="13000.00000" pt_clust_7="13000.00000" pt_clust_8="13000.00000" pt_clust_9="13000.00000"></scales>
<clustering>
<clus scale="   82.474">  5  6 -1 -1</clus>
<clus scale="   90.309">  7  8 -1 -1</clus>
<clus scale="  210.129">  1  7  2 -1</clus>
<clus scale="  614.022">  5  9 -1 -1</clus>
<clus scale=" 1336.202">  2  5  1 -1</clus>
</clustering>
</event>
<event>
 9    2  0.3726337E-005  0.3769217E+03  0.7546771E-02  0.1090849E+00
          4   -1    0    0  502    0 -0.00000000000E+00  0.00000000000E+00  0.89946785746E+02  0.89946785746E+02  0.00000000000E+00 0. -1.
         21   -1    0    0  501  502  0.00000000000E+00 -0.00000000000E+00 -0.72648756542E+03  0.72648756542E+03  0.00000000000E+00 0. -1.
         23    2    1    2    0    0 -0.17643801461E+01 -0.82348020983E+02 -0.21052327032E+03  0.24761022626E+03  0.10102706173E+03 0.  0.
         24    2    1    2    0    0 -0.91354399982E+01 -0.11301381368E+03 -0.31370199232E+03  0.34321422289E+03  0.80817599969E+02 0.  0.
        -13    1    4    4    0    0  0.23806851034E+02 -0.24474697239E+02 -0.15333803015E+03  0.15709337495E+03  0.00000000000E+00 0.  1.
         14    1    4    4    0    0 -0.32942291032E+02 -0.88539116440E+02 -0.16036396217E+03  0.18612084795E+03  0.00000000000E+00 0. -1.
        -13    1    3    3    0    0  0.20686835260E+02  0.62733374173E+01 -0.10844348397E+03  0.11057707326E+03  0.00000000000E+00 0. -1.
         13    1    3    3    0    0 -0.22451215407E+02 -0.88621358400E+02 -0.10207978636E+03  0.13703315300E+03  0.00000000000E+00 0.  1.
          3    1    1    2  501    0  0.10899820144E+02  0.19536183466E+03 -0.11231551703E+03  0.22560990202E+03  0.00000000000E+00 0. -1.
<scales pt_clust_5="13000.00000" pt_clust_6="13000.00000" pt_clust_7="13000.00000" pt_clust_8="13000.00000" pt_clust_9="13000.00000"></scales>
<clustering>
<clus scale="   80.818">  5  6 -1 -1</clus>
<clus scale="  101.027">  7  8 -1 -1</clus>
<clus scale="  130.349">  1  7  2 -1</clus>
<clus scale="  130.378">  5  9 -1 -1</clus>
<clus scale="  376.922">  2  5  1 -1</clus>
</clustering>
</event>
<event>
 9    2  0.3726337E-005  0.4575766E+03  0.7546771E-02  0.1050731E+00
          2   -1    0    0  502    0 -0.00000000000E+00  0.00000000000E+00  0.45898742068E+03  0.45898742068E+03  0.00000000000E+00 0. -1.
         21   -1    0    0  501  502  0.00000000000E+00 -0.00000000000E+00 -0.25021618727E+03  0.25021618727E+03  0.00000000000E+00 0. -1.
         23    2    1    2    0    0 -0.71901770622E+02 -0.18584373264E+03  0.47151376765E+02  0.22392291287E+03  0.90611594168E+02 0.  0.
         24    2    1    2    0    0  0.14443113481E+03  0.25755528702E+03  0.15431844578E+02  0.30702809181E+03  0.82662136209E+02 0.  0.
        -13    1    4    4    0    0  0.32139975233E+02  0.41942418968E+02  0.34618179999E+02  0.63170902347E+02  0.00000000000E+00 0.  1.
         14    1    4    4    0    0  0.11229115957E+03  0.21561286805E+03 -0.19186335421E+02  0.24385718947E+03  0.00000000000E+00 0. -1.
        -13    1    3    3    0    0 -0.82587157341E+02 -0.92580447721E+02  0.37215302683E+02  0.12952511962E+03  0.00000000000E+00 0.  1.
         13    1    3    3    0    0  0.10685386719E+02 -0.93263284918E+02  0.99360740813E+01  0.94397793253E+02  0.00000000000E+00 0. -1.
          1    1    1    2  501    0 -0.72529364184E+02 -0.71711554383E+02  0.14618801206E+03  0.17825260327E+03  0.00000000000E+00 0. -1.
<scales pt_clust_5="13000.00000" pt_clust_6="13000.00000" pt_clust_7="13000.00000" pt_clust_8="13000.00000" pt_clust_9="13000.00000"></scales>
<clustering>
<clus scale="   82.662">  5  6 -1 -1</clus>
<clus scale="   90.612">  7  8 -1 -1</clus>
<clus scale="  101.995">  5  9 -1 -1</clus>
<clus scale="  218.902">  1  7  2 -1</clus>
<clus scale="  457.577">  2  5  1 -1</clus>
</clustering>
</event>
<event>
 9    2  0.3726337E-005  0.4046520E+03  0.7546771E-02  0.1086460E+00
         21   -1    0    0  501  502  0.00000000000E+00  0.00000000000E+00  0.17163490374E+04  0.17163490374E+04  0.00000000000E+00 0.  1.
         -1   -1    0    0    0  501 -0.00000000000E+00 -0.00000000000E+00 -0.14937587482E+03  0.14937587482E+03  0.00000000000E+00 0.  1.
         23    2    1    2    0    0 -0.73637678857E+02  0.10309253870E+02 -0.97151160350E+02  0.15310908552E+03  0.92061151679E+02 0.  0.
         24    2    1    2    0    0 -0.91406039873E+02  0.13628864053E+03  0.84376585224E+03  0.86307572042E+03  0.77648104364E+02 0.  0.
        -11    1    4    4    0    0 -0.49285014581E+02  0.12186454784E+03  0.71082307266E+03  0.72287579936E+03  0.00000000000E+00 0.  1.
         12    1    4    4    0    0 -0.42121025293E+02  0.14424092693E+02  0.13294277958E+03  0.14019992106E+03  0.00000000000E+00 0. -1.
        -13    1    3    3    0    0 -0.53715376791E+02  0.40810600007E+02 -0.95130574641E+02  0.11662192336E+03  0.00000000000E+00 0.  1.
         13    1    3    3    0    0 -0.19922302066E+02 -0.30501346137E+02 -0.20205857088E+01  0.36487162159E+02  0.00000000000E+00 0. -1.
         -2    1    1    2    0  502  0.16504371873E+03 -0.14659789440E+03  0.82035847065E+03  0.84954010623E+03  0.00000000000E+00 0.  1.
<scales pt_clust_5="13000.00000" pt_clust_6="13000.00000" pt_clust_7="13000.00000" pt_clust_8="13000.00000" pt_clust_9="13000.00000"></scales>
<clustering>
<clus scale="   77.648">  5  6 -1 -1</clus>
<clus scale="   92.061">  7  8 -1 -1</clus>
<clus scale="  118.339">  2  7  1 -1</clus>
<clus scale="  185.165">  5  9 -1 -1</clus>
<clus scale="  404.652">  1  5  2 -1</clus>
</clustering>
</event>
<event>
 9    2  0.3726337E-005  0.6138722E+03  0.7546771E-02  0.1017741E+00
         21   -1    0    0  501  502  0.00000000000E+00  0.00000000000E+00  0.30192090257E+03  0.30192090257E+03  0.00000000000E+00 0.  1.
         -3   -1    0    0    0  501 -0.00000000000E+00 -0.00000000000E+00 -0.60631107311E+03  0.60631107311E+03  0.00000000000E+00 0.  1.
         23    2    1    2    0    0 -0.21980638905E+03  0.16100418190E+02 -0.11656529131E+03  0.26626840849E+03  0.93473665238E+02 0.  0.
         24    2    1    2    0    0 -0.17359976878E+03  0.30480865426E+02 -0.14856621347E+03  0.24386877465E+03  0.79587037813E+02 0.  0.
        -11    1    4    4    0    0 -0.60805363747E+02  0.17532988569E+02 -0.10432574872E+03  0.12201868625E+03  0.00000000000E+00 0.  1.
         12    1    4    4    0    0 -0.11279440503E+03  0.12947876857E+02 -0.44240464749E+02  0.12185008840E+03  0.00000000000E+00 0. -1.
        -13    1    3    3    0    0 -0.46990274200E+02 -0.33959045175E+02 -0.15972393086E+02  0.60136677323E+02  0.00000000000E+00 0. -1.
         13    1    3    3    0    0 -0.17281611485E+03  0.50059463365E+02 -0.10059289822E+03  0.20613173117E+03  0.00000000000E+00 0.  1.
         -4    1    1    2    0  502  0.39340615783E+03 -0.46581283616E+02 -0.39258665767E+02  0.39809479253E+03  0.00000000000E+00 0.  1.
<scales pt_clust_5="13000.00000" pt_clust_6="13000.00000" pt_clust_7="13000.00000" pt_clust_8="13000.00000" pt_clust_9="13000.00000"></scales>
<clustering>
<clus scale="   79.587">  5  6 -1 -1</clus>
<clus scale="   93.474">  7  8 -1 -1</clus>
<clus scale="  239.398">  2  7  1 -1</clus>
<clus scale="  280.156">  5  9 -1 -1</clus>
<clus scale="  613.872">  1  5  2 -1</clus>
</clustering>
</event>
<event>
 9    2  0.3726337E-005  0.2803831E+03  0.7546771E-02  0.1133989E+00
          2   -1    0    0  502    0 -0.00000000000E+00  0.00000000000E+00  0.75737061079E+03  0.75737061079E+03  0.00000000000E+00 0. -1.
         21   -1    0    0  501  502  0.00000000000E+00 -0.00000000000E+00 -0.53094577329E+02  0.53094577329E+02  0.00000000000E+00 0. -1.
         23    2    1    2    0    0  0.46528455895E+02  0.28173856846E+02  0.10682120784E+03  0.15049023994E+03  0.90982847027E+02 0.  0.
         24    2    1    2    0    0 -0.53471391292E+02 -0.13828715545E+03  0.39295322064E+03  0.42760875159E+03  0.80339801930E+02 0.  0.
        -13    1    4    4    0    0  0.21835802483E+01 -0.93092529907E+02  0.26575966381E+03  0.28160111160E+03  0.00000000000E+00 0.  1.
         14    1    4    4    0    0 -0.55654971541E+02 -0.45194625544E+02  0.12719355683E+03  0.14600763998E+03  0.00000000000E+00 0. -1.
        -11    1    3    3    0    0  0.64773285783E+02  0.32090167840E+01  0.99409189643E+02  0.11869314776E+03  0.00000000000E+00 0. -1.
         11    1    3    3    0    0 -0.18244829888E+02  0.24964840062E+02  0.74120182000E+01  0.31797092175E+02  0.00000000000E+00 0.  1.
          1    1    1    2  501    0  0.69429353971E+01  0.11011329860E+03  0.20450160499E+03  0.23236619660E+03  0.00000000000E+00 0. -1.
<scales pt_clust_5="13000.00000" pt_clust_6="13000.00000" pt_clust_7="13000.00000" pt_clust_8="13000.00000" pt_clust_9="13000.00000"></scales>
<clustering>
<clus scale="   80.340">  5  6 -1 -1</clus>
<clus scale="   90.983">  7  8 -1 -1</clus>
<clus scale="  106.003">  1  7  2 -1</clus>
<clus scale="  122.108">  5  9 -1 -1</clus>
<clus scale="  280.383">  2  5  1 -1</clus>
</clustering>
</event>
<event>
 9    2  0.3726337E-005  0.1570639E+03  0.7546771E-02  0.1212963E+00
          2   -1    0    0  502    0 -0.00000000000E+00  0.00000000000E+00  0.75331098019E+03  0.75331098019E+03  0.00000000000E+00 0. -1.
         21   -1    0    0  501  502  0.00000000000E+00 -0.00000000000E+00 -0.23397378150E+02  0.23397378150E+02  0.00000000000E+00 0. -1.
         23    2    1    2    0    0  0.33526558227E+02 -0.20494446281E+02  0.38433599259E+03  0.39711258575E+03  0.91870550915E+02 0.  0.
         24    2    1    2    0    0 -0.65001862751E+02  0.42812886888E+02  0.21000612962E+03  0.23864034087E+03  0.82392064978E+02 0.  0.
        -11    1    4    4    0    0 -0.45389475379E+02  0.67345539342E+02  0.16292014366E+03  0.18204010370E+03  0.00000000000E+00 0.  1.
         12    1    4    4    0    0 -0.19612387373E+02 -0.24532652454E+02  0.47085985959E+02  0.56600237178E+02  0.00000000000E+00 0. -1.
        -13    1    3    3    0    0  0.23480349251E+02 -0.56742881122E+02  0.26330367271E+03  0.27036994179E+03  0.00000000000E+00 0.  1.
         13    1    3    3    0    0  0.10046208976E+02  0.36248434841E+02  0.12103231988E+03  0.12674264396E+03  0.00000000000E+00 0. -1.
          1    1    1    2  501    0  0.31475304524E+02 -0.22318440607E+02  0.13557147984E+03  0.14095543172E+03  0.00000000000E+00 0. -1.
<scales pt_clust_5="13000.00000" pt_clust_6="13000.00000" pt_clust_7="13000.00000" pt_clust_8="13000.00000" pt_clust_9="13000.00000"></scales>
<clustering>
<clus scale="   82.392">  5  6 -1 -1</clus>
<clus scale="   38.585">  5  9 -1 -1</clus>
<clus scale="   91.871">  7  8 -1 -1</clus>
<clus scale="   99.921">  1  7  2 -1</clus>
<clus scale="  157.064">  2  5  1 -1</clus>
</clustering>
</event>
<event>
 9    2  0.3726337E-005  0.2078967E+03  0.7546771E-02  0.1167616E+00
         -1   -1    0    0    0  501 -0.00000000000E+00  0.00000000000E+00  0.26847304387E+03  0.26847304387E+03  0.00000000000E+00 0.  1.
         21   -1    0    0  501  502  0.00000000000E+00 -0.00000000000E+00 -0.11288775354E+03  0.11288775354E+03  0.00000000000E+00 0.  1.
         23    2    1    2    0    0  0.33511926795E+02 -0.62814489052E+02  0.12463274122E+03  0.17117254774E+03  0.93263131214E+02 0.  0.
         24    2    1    2    0    0  0.49816754152E+02  0.47911893082E+02 -0.26573345241E+02  0.10784087572E+03  0.78398044012E+02 0.  0.
        -13    1    4    4    0    0  0.38753634726E+02  0.15736917886E+02 -0.50998844095E+02  0.65957386910E+02  0.00000000000E+00 0.  1.
         14    1    4    4    0    0  0.11063119426E+02  0.32174975195E+02  0.24425498854E+02  0.41883488806E+02  0.00000000000E+00 0. -1.
        -13    1    3    3    0    0  0.20814549694E+02  0.22185016246E+02  0.42737830779E+02  0.52458961145E+02  0.00000000000E+00 0. -1.
         13    1    3    3    0    0  0.12697377102E+02 -0.84999505299E+02  0.81894910443E+02  0.11871358660E+03  0.00000000000E+00 0.  1.
         -2    1    1    2    0  502 -0.83328680947E+02  0.14902595971E+02  0.57525894350E+02  0.10234737396E+03  0.00000000000E+00 0.  1.
<scales pt_clust_5="13000.00000" pt_clust_6="13000.00000" pt_clust_7="13000.00000" pt_clust_8="13000.00000" pt_clust_9="13000.00000"></scales>
<clustering>
<clus scale="   78.398">  5  6 -1 -1</clus>
<clus scale="   84.651">  5  9 -1 -1</clus>
<clus scale="   93.263">  7  8 -1 -1</clus>
<clus scale="  117.332">  1  7  2 -1</clus>
<clus scale="  207.897">  2  5  1 -1</clus>
</clustering>
</event>
<event>
 9    2  0.3726337E-005  0.7523781E+03  0.7546771E-02  0.9744898E-01
         -1   -1    0    0    0  501 -0.00000000000E+00  0.00000000000E+00  0.61832336103E+03  0.61832336103E+03  0.00000000000E+00 0.  1.
         21   -1    0    0  501  502  0.00000000000E+00 -0.00000000000E+00 -0.78953049181E+03  0.78953049181E+03  0.00000000000E+00 0.  1.
         23    2    1    2    0    0 -0.42635735585E+03  0.27201946950E+03  0.22075653129E+03  0.55949762825E+03  0.92352386198E+02 0.  0.
         24    2    1    2    0    0 -0.62622797174E+02  0.84178583007E+02 -0.10918515615E+02  0.13339185743E+03  0.81648791073E+02 0.  0.
        -11    1    4    4    0    0 -0.43356551904E+02  0.51549543916E+02 -0.46149720729E+02  0.81651349005E+02  0.00000000000E+00 0.  1.
         12    1    4    4    0    0 -0.19266245270E+02  0.32629039091E+02  0.35231205114E+02  0.51740508430E+02  0.00000000000E+00 0. -1.
        -11    1    3    3    0    0 -0.27196327491E+02  0.45059710816E+02  0.39666390763E+02  0.65904782254E+02  0.00000000000E+00 0.  1.
         11    1    3    3    0    0 -0.39916102836E+03  0.22695975869E+03  0.18109014052E+03  0.49359284600E+03  0.00000000000E+00 0. -1.
         -2    1    1    2    0  502  0.48898015303E+03 -0.35619805251E+03 -0.38104514645E+03  0.71496436715E+03  0.00000000000E+00 0.  1.
<scales pt_clust_5="13000.00000" pt_clust_6="13000.00000" pt_clust_7="13000.00000" pt_clust_8="13000.00000" pt_clust_9="13000.00000"></scales>
<clustering>
<clus scale="   81.649">  5  6 -1 -1</clus>
<clus scale="   92.352">  7  8 -1 -1</clus>
<clus scale="  514.105">  1  7  2 -1</clus>
<clus scale="  236.740">  5  9 -1 -1</clus>
<clus scale="  752.378">  2  5  1 -1</clus>
</clustering>
</event>
<event>
 9    2  0.3726337E-005  0.1525517E+03  0.7546771E-02  0.1216838E+00
         21   -1    0    0  501  502  0.00000000000E+00  0.00000000000E+00  0.79882234039E+02  0.79882234039E+02  0.00000000000E+00 0.  1.
         -1   -1    0    0    0  501 -0.00000000000E+00 -0.00000000000E+00 -0.31654299732E+03  0.31654299732E+03  0.00000000000E+00 0.  1.
         23    2    1    2    0    0  0.30357925131E+02 -0.31188131040E+02 -0.22138293469E+03  0.24311042904E+03  0.90542662884E+02 0.  0.
         24    2    1    2    0    0  0.18174376172E+02  0.52567583956E+02 -0.15916258859E+02  0.10027827839E+03  0.81906941029E+02 0.  0.
        -13    1    4    4    0    0  0.32436678788E+02  0.52262480895E+02  0.17494284570E+02  0.63949628871E+02  0.00000000000E+00 0.  1.
         14    1    4    4    0    0 -0.14262302616E+02  0.30510306116E+00 -0.33410543429E+02  0.36328649521E+02  0.00000000000E+00 0. -1.
        -11    1    3    3    0    0  0.59057154737E+02 -0.31438359834E+02 -0.18528174722E+03  0.19699097403E+03  0.00000000000E+00 0.  1.
         11    1    3    3    0    0 -0.28699229605E+02  0.25022879417E+00 -0.36101187465E+02  0.46119455014E+02  0.00000000000E+00 0. -1.
         -2    1    1    2    0  502 -0.48532301303E+02 -0.21379452916E+02  0.63843026649E+00  0.53036523924E+02  0.00000000000E+00 0.  1.
<scales pt_clust_5="13000.00000" pt_clust_6="13000.00000" pt_clust_7="13000.00000" pt_clust_8="13000.00000" pt_clust_9="13000.00000"></scales>
<clustering>
<clus scale="   81.907">  5  6 -1 -1</clus>
<clus scale="   53.033">  5  9 -1 -1</clus>
<clus scale="   90.543">  7  8 -1 -1</clus>
<clus scale="  100.460">  2  7  1 -1</clus>
<clus scale="  152.552">  1  5  2 -1</clus>
</clustering>
</event>
<event>
 9    2  0.3726337E-005  0.2299380E+03  0.7546771E-02  0.1155871E+00
         21   -1    0    0  501  502  0.00000000000E+00  0.00000000000E+00  0.89649328635E+03  0.89649328635E+03  0.00000000000E+00 0.  1.
         -1   -1    0    0    0  501 -0.00000000000E+00 -0.00000000000E+00 -0.38009013451E+02  0.38009013451E+02  0.00000000000E+00 0.  1.
         23    2    1    2    0    0 -0.35309727257E+02  0.57963544139E+02  0.14204302972E+03  0.18206656241E+03  0.91462897218E+02 0.  0.
         24    2    1    2    0    0 -0.34044761781E+02  0.47747221698E+02  0.42095061380E+03  0.43103330552E+03  0.71773589999E+02 0.  0.
        -13    1    4    4    0    0 -0.30786879370E+02  0.60601218480E+02  0.40312986982E+03  0.40882029251E+03  0.00000000000E+00 0.  1.
         14    1    4    4    0    0 -0.32578824117E+01 -0.12853996782E+02  0.17820743981E+02  0.22213013013E+02  0.00000000000E+00 0. -1.
        -11    1    3    3    0    0 -0.39199527653E+02  0.81106294791E+02  0.10669211795E+03  0.13963538970E+03  0.00000000000E+00 0.  1.
         11    1    3    3    0    0  0.38898003958E+01 -0.23142750652E+02  0.35350911766E+02  0.42431172710E+02  0.00000000000E+00 0. -1.
         -2    1    1    2    0  502  0.69354489039E+02 -0.10571076584E+03  0.29549062938E+03  0.32140243187E+03  0.00000000000E+00 0.  1.
<scales pt_clust_5="13000.00000" pt_clust_6="13000.00000" pt_clust_7="13000.00000" pt_clust_8="13000.00000" pt_clust_9="13000.00000"></scales>
<clustering>
<clus scale="   71.774">  5  6 -1 -1</clus>
<clus scale="   91.463">  7  8 -1 -1</clus>
<clus scale="  113.895">  2  7  1 -1</clus>
<clus scale="   77.616">  5  9 -1 -1</clus>
<clus scale="  229.938">  1  5  2 -1</clus>
</clustering>
</event>
<event>
 9    2  0.3726337E-005  0.3736645E+03  0.7546771E-02  0.1093436E+00
         21   -1    0    0  501  502  0.00000000000E+00  0.00000000000E+00  0.76233330830E+02  0.76233330830E+02  0.00000000000E+00 0. -1.
          2   -1    0    0  502    0 -0.00000000000E+00 -0.00000000000E+00 -0.16482692633E+04  0.16482692633E+04  0.00000000000E+00 0. -1.
         23    2    1    2    0    0  0.24315676562E+02  0.81465778428E+02 -0.18111640001E+02  0.12628299595E+03  0.91604794529E+02 0.  0.
         24    2    1    2    0    0 -0.17320998290E+03 -0.11121153152E+03 -0.89398958740E+03  0.92104300434E+03  0.82055655178E+02 0.  0.
        -11    1    4    4    0    0 -0.83777562397E+02 -0.88789119130E+02 -0.62155797204E+03  0.63343231702E+03  0.00000000000E+00 0.  1.
         12    1    4    4    0    0 -0.89432420504E+02 -0.22422412392E+02 -0.27243161536E+03  0.28761068732E+03  0.00000000000E+00 0. -1.
        -11    1    3    3    0    0 -0.17340978727E+02  0.40456848814E+02 -0.44102855379E+02  0.62309935096E+02  0.00000000000E+00 0.  1.
         11    1    3    3    0    0  0.41656655289E+02  0.41008929615E+02  0.25991215378E+02  0.63973060852E+02  0.00000000000E+00 0. -1.
          1    1    1    2  501    0  0.14889430634E+03  0.29745753094E+02 -0.65993470502E+03  0.67717659379E+03  0.00000000000E+00 0. -1.
<scales pt_clust_5="13000.00000" pt_clust_6="13000.00000" pt_clust_7="13000.00000" pt_clust_8="13000.00000" pt_clust_9="13000.00000"></scales>
<clustering>
<clus scale="   82.056">  5  6 -1 -1</clus>
<clus scale="   91.605">  7  8 -1 -1</clus>
<clus scale="  124.978">  2  7  1 -1</clus>
<clus scale="  171.704">  5  9 -1 -1</clus>
<clus scale="  373.665">  1  5  2 -1</clus>
</clustering>
</event>
<event>
 9    2  0.3726337E-005  0.2834758E+03  0.7546771E-02  0.1137344E+00
          2   -1    0    0  502    0 -0.00000000000E+00  0.00000000000E+00  0.82531368491E+03  0.82531368491E+03  0.00000000000E+00 0. -1.
         21   -1    0    0  501  502  0.00000000000E+00 -0.00000000000E+00 -0.66217679373E+02  0.66217679373E+02  0.00000000000E+00 0. -1.
         23    2    1    2    0    0  0.12581102616E+02 -0.24039685923E+02  0.49549980077E+03  0.50443771543E+03  0.90560286774E+02 0.  0.
         24    2    1    2    0    0  0.44392189502E+02 -0.38620192859E+02  0.28339409826E+03  0.30012139459E+03  0.79362779532E+02 0.  0.
        -13    1    4    4    0    0  0.32005479681E+02  0.19287233603E+02  0.14184666628E+03  0.14668614400E+03  0.00000000000E+00 0.  1.
         14    1    4    4    0    0  0.12386709821E+02 -0.57907426462E+02  0.14154743199E+03  0.15343525058E+03  0.00000000000E+00 0. -1.
        -11    1    3    3    0    0 -0.38374241744E+02 -0.17965049057E+02  0.19092181766E+03  0.19556703679E+03  0.00000000000E+00 0.  1.
         11    1    3    3    0    0  0.50955344360E+02 -0.60746368661E+01  0.30457798311E+03  0.30887067865E+03  0.00000000000E+00 0. -1.
          1    1    1    2  501    0 -0.56973292118E+02  0.62659878782E+02 -0.19797893503E+02  0.86972254259E+02  0.00000000000E+00 0. -1.
<scales pt_clust_5="13000.00000" pt_clust_6="13000.00000" pt_clust_7="13000.00000" pt_clust_8="13000.00000" pt_clust_9="13000.00000"></scales>
<clustering>
<clus scale="   79.363">  5  6 -1 -1</clus>
<clus scale="   84.689">  5  9 -1 -1</clus>
<clus scale="   90.560">  7  8 -1 -1</clus>
<clus scale="   94.538">  1  7  2 -1</clus>
<clus scale="  283.476">  2  5  1 -1</clus>
</clustering>
</event>
<event>
 9    2  0.3726337E-005  0.1181937E+03  0.7546771E-02  0.1246991E+00
         21   -1    0    0  501  502  0.00000000000E+00  0.00000000000E+00  0.48755031922E+02  0.48755031922E+02  0.00000000000E+00 0.  1.
         -1   -1    0    0    0  501 -0.00000000000E+00 -0.00000000000E+00 -0.28156632996E+03  0.28156632996E+03  0.00000000000E+00 0.  1.
         23    2    1    2    0    0 -0.52959128025E+02 -0.45375074085E+02 -0.11779254757E+03  0.16539995257E+03  0.92835841446E+02 0.  0.
         24    2    1    2    0    0  0.29353541758E+02  0.42174073090E+02 -0.91550051398E+02  0.13148116490E+03  0.79155555446E+02 0.  0.
        -11    1    4    4    0    0  0.39015482061E+02  0.35891176340E+02 -0.16456817531E+02  0.55508658989E+02  0.00000000000E+00 0.  1.
         12    1    4    4    0    0 -0.96619403022E+01  0.62828967499E+01 -0.75093233867E+02  0.75972505913E+02  0.00000000000E+00 0. -1.
        -11    1    3    3    0    0 -0.74253959079E+02 -0.25984352430E+02 -0.54034405258E+02  0.95438744552E+02  0.00000000000E+00 0.  1.
         11    1    3    3    0    0  0.21294831054E+02 -0.19390721656E+02 -0.63758142316E+02  0.69961208019E+02  0.00000000000E+00 0. -1.
         -2    1    1    2    0  502  0.23605586267E+02  0.32010009952E+01 -0.23468699068E+02  0.33440244412E+02  0.00000000000E+00 0.  1.
<scales pt_clust_5="13000.00000" pt_clust_6="13000.00000" pt_clust_7="13000.00000" pt_clust_8="13000.00000" pt_clust_9="13000.00000"></scales>
<clustering>
<clus scale="   79.156">  5  6 -1 -1</clus>
<clus scale="   23.822">  5  9 -1 -1</clus>
<clus scale="   92.836">  7  8 -1 -1</clus>
<clus scale="  116.112">  2  7  1 -1</clus>
<clus scale="  118.194">  1  5  2 -1</clus>
</clustering>
</event>
<event>
 9    2  0.3726337E-005  0.2826148E+03  0.7546771E-02  0.1119776E+00
         -3   -1    0    0    0  501 -0.00000000000E+00  0.00000000000E+00  0.10673779995E+03  0.10673779995E+03  0.00000000000E+00 0.  1.
         21   -1    0    0  501  502  0.00000000000E+00 -0.00000000000E+00 -0.74957922115E+03  0.74957922115E+03  0.00000000000E+00 0.  1.
         23    2    1    2    0    0 -0.99952144509E+02  0.54805808423E+02 -0.53332529050E+03  0.55322479967E+03  0.92885443696E+02 0.  0.
         24    2    1    2    0    0  0.75869264072E+02 -0.14219061235E+03 -0.33605467726E+02  0.18486143931E+03  0.84083939082E+02 0.  0.
        -13    1    4    4    0    0  0.87218844635E+02 -0.94588650005E+02 -0.62872541075E+01  0.12881641640E+03  0.00000000000E+00 0.  1.
         14    1    4    4    0    0 -0.11349580563E+02 -0.47601962345E+02 -0.27318213618E+02  0.56045022913E+02  0.00000000000E+00 0. -1.
        -11    1    3    3    0    0 -0.57140253697E+00  0.40318050159E+02 -0.89271934670E+02  0.97955857350E+02  0.00000000000E+00 0. -1.
         11    1    3    3    0    0 -0.99380741972E+02  0.14487758265E+02 -0.44405335583E+03  0.45526894232E+03  0.00000000000E+00 0.  1.
         -4    1    1    2    0  502  0.24082880438E+02  0.87384803927E+02 -0.75910662979E+02  0.11823078212E+03  0.00000000000E+00 0.  1.
<scales pt_clust_5="13000.00000" pt_clust_6="13000.00000" pt_clust_7="13000.00000" pt_clust_8="13000.00000" pt_clust_9="13000.00000"></scales>
<clustering>
<clus scale="   84.084">  5  6 -1 -1</clus>
<clus scale="   90.643">  5  9 -1 -1</clus>
<clus scale="   92.885">  7  8 -1 -1</clus>
<clus scale="  147.044">  1  7  2 -1</clus>
<clus scale="  282.615">  2  5  1 -1</clus>
</clustering>
</event>
<event>
 9    2  0.3726337E-005  0.2604047E+03  0.7546771E-02  0.1139823E+00
         21   -1    0    0  501  502  0.00000000000E+00  0.00000000000E+00  0.48454721388E+02  0.48454721388E+02  0.00000000000E+00 0. -1.
          2   -1    0    0  502    0 -0.00000000000E+00 -0.00000000000E+00 -0.81444659512E+03  0.81444659512E+03  0.00000000000E+00 0. -1.
         23    2    1    2    0    0 -0.66780719867E+02 -0.10020520873E+02 -0.11860597383E+03  0.16510543762E+03  0.92910457536E+02 0.  0.
         24    2    1    2    0    0 -0.70342450443E+02 -0.24585784943E+02 -0.19612848564E+03  0.22489672033E+03  0.80991547581E+02 0.  0.
        -11    1    4    4    0    0  0.13417361481E+02 -0.22527948503E+02 -0.43927528932E+02  0.51158204141E+02  0.00000000000E+00 0.  1.
         12    1    4    4    0    0 -0.83759811923E+02 -0.20578364404E+01 -0.15220095671E+03  0.17373851619E+03  0.00000000000E+00 0. -1.
        -11    1    3    3    0    0  0.21330158205E+02  0.24493583663E+01 -0.44082868532E+02  0.49033399877E+02  0.00000000000E+00 0.  1.
         11    1    3    3    0    0 -0.88110878073E+02 -0.12469879239E+02 -0.74523105297E+02  0.11607203774E+03  0.00000000000E+00 0. -1.
          1    1    1    2  501    0  0.13712317031E+03  0.34606305816E+02 -0.45125741426E+03  0.47289915856E+03  0.00000000000E+00 0. -1.
<scales pt_clust_5="13000.00000" pt_clust_6="13000.00000" pt_clust_7="13000.00000" pt_clust_8="13000.00000" pt_clust_9="13000.00000"></scales>
<clustering>
<clus scale="   80.992">  5  6 -1 -1</clus>
<clus scale="   92.910">  7  8 -1 -1</clus>
<clus scale="  114.858">  2  7  1 -1</clus>
<clus scale="   95.362">  5  9 -1 -1</clus>
<clus scale="  260.405">  1  5  2 -1</clus>
</clustering>
</event>
<event>
 9    2  0.3726337E-005  0.2446302E+03  0.7546771E-02  0.1154842E+00
         -1   -1    0    0    0  501 -0.00000000000E+00  0.00000000000E+00  0.23466380046E+03  0.23466380046E+03  0.00000000000E+00 0.  1.
         21   -1    0    0  501  502  0.00000000000E+00 -0.00000000000E+00 -0.18566820764E+03  0.18566820764E+03  0.00000000000E+00 0.  1.
         23    2    1    2    0    0  0.25589069170E+02  0.22816608042E+02  0.13045019140E+03  0.16249717963E+03  0.90623853862E+02 0.  0.
         24    2    1    2    0    0  0.66798045125E+02  0.58872556153E+02 -0.33678653510E+02  0.12558113527E+03  0.81904902991E+02 0.  0.
        -11    1    4    4    0    0  0.74289144392E+02  0.14477278322E+02 -0.25163840324E+02  0.79760186948E+02  0.00000000000E+00 0.  1.
         12    1    4    4    0    0 -0.74910992676E+01  0.44395277831E+02 -0.85148131864E+01  0.45820948326E+02  0.00000000000E+00 0. -1.
        -11    1    3    3    0    0 -0.54869233610E+01  0.22681849296E+02 -0.47132268473E+01  0.23807291379E+02  0.00000000000E+00 0. -1.
         11    1    3    3    0    0  0.31075992531E+02  0.13475874574E+00  0.13516341825E+03  0.13868988825E+03  0.00000000000E+00 0.  1.
         -2    1    1    2    0  502 -0.92387114295E+02 -0.81689164195E+02 -0.47775945068E+02  0.13225369319E+03  0.00000000000E+00 0.  1.
<scales pt_clust_5="13000.00000" pt_clust_6="13000.00000" pt_clust_7="13000.00000" pt_clust_8="13000.00000" pt_clust_9="13000.00000"></scales>
<clustering>
<clus scale="   81.905">  5  6 -1 -1</clus>
<clus scale="   90.624">  7  8 -1 -1</clus>
<clus scale="   96.892">  1  7  2 -1</clus>
<clus scale="  106.903">  5  9 -1 -1</clus>
<clus scale="  244.630">  2  5  1 -1</clus>
</clustering>
</event>
<event>
 9    2  0.3726337E-005  0.2024023E+03  0.7546771E-02  0.1172276E+00
         21   -1    0    0  501  502  0.00000000000E+00  0.00000000000E+00  0.59484180716E+02  0.59484180716E+02  0.00000000000E+00 0. -1.
         -1   -1    0    0    0  501 -0.00000000000E+00 -0.00000000000E+00 -0.44334883996E+03  0.44334883996E+03  0.00000000000E+00 0.  1.
         23    2    1    2    0    0 -0.24963642398E+02 -0.51482195308E+02 -0.87468841286E+02  0.14392190692E+03  0.98939967765E+02 0.  0.
         24    2    1    2    0    0  0.14078055784E+02  0.77735388987E+02 -0.30825716749E+03  0.32811472132E+03  0.79973787451E+02 0.  0.
        -13    1    4    4    0    0  0.37079038296E+02  0.75431022422E+02 -0.27540019614E+03  0.28794090063E+03  0.00000000000E+00 0.  1.
         14    1    4    4    0    0 -0.23000982512E+02  0.23043665650E+01 -0.32856971353E+02  0.40173820683E+02  0.00000000000E+00 0. -1.
        -11    1    3    3    0    0  0.24954765191E+02 -0.79328396204E+01  0.83044064624E+01  0.27470591855E+02  0.00000000000E+00 0. -1.
         11    1    3    3    0    0 -0.49918407589E+02 -0.43549355688E+02 -0.95773247748E+02  0.11645131507E+03  0.00000000000E+00 0.  1.
         -2    1    1    2    0  502  0.10885586614E+02 -0.26253193679E+02  0.11861349533E+02  0.30796392436E+02  0.00000000000E+00 0.  1.
<scales pt_clust_5="13000.00000" pt_clust_6="13000.00000" pt_clust_7="13000.00000" pt_clust_8="13000.00000" pt_clust_9="13000.00000"></scales>
<clustering>
<clus scale="   79.974">  5  6 -1 -1</clus>
<clus scale="   28.421">  5  9 -1 -1</clus>
<clus scale="   98.940">  7  8 -1 -1</clus>
<clus scale="  114.292">  2  7  1 -1</clus>
<clus scale="  202.402">  1  5  2 -1</clus>
</clustering>
</event>
<event>
 9    2  0.3726337E-005  0.2571698E+03  0.7546771E-02  0.1150923E+00
          2   -1    0    0  502    0 -0.00000000000E+00  0.00000000000E+00  0.30015494237E+03  0.30015494237E+03  0.00000000000E+00 0. -1.
         21   -1    0    0  501  502  0.00000000000E+00 -0.00000000000E+00 -0.10434271368E+03  0.10434271368E+03  0.00000000000E+00 0. -1.
         23    2    1    2    0    0  0.42353237143E+01  0.77546673481E+01  0.83578588833E+02  0.12390422545E+03  0.91042867591E+02 0.  0.
         24    2    1    2    0    0 -0.10155332956E+03  0.53184382399E+02  0.80340947319E+02  0.16142335935E+03  0.80381439726E+02 0.  0.
        -13    1    4    4    0    0 -0.14006287117E+02 -0.20322566028E+02  0.71905712880E+01  0.25707724213E+02  0.00000000000E+00 0.  1.
         14    1    4    4    0    0 -0.87547042443E+02  0.73506948427E+02  0.73150376031E+02  0.13571563514E+03  0.00000000000E+00 0. -1.
        -13    1    3    3    0    0  0.33324089810E+02  0.10160270428E+02 -0.56376099861E+00  0.34843132513E+02  0.00000000000E+00 0.  1.
         13    1    3    3    0    0 -0.29088766096E+02 -0.24056030796E+01  0.84142349832E+02  0.89061092933E+02  0.00000000000E+00 0. -1.
          1    1    1    2  501    0  0.97318005845E+02 -0.60939049747E+02  0.31892692538E+02  0.11917007126E+03  0.00000000000E+00 0. -1.
<scales pt_clust_5="13000.00000" pt_clust_6="13000.00000" pt_clust_7="13000.00000" pt_clust_8="13000.00000" pt_clust_9="13000.00000"></scales>
<clustering>
<clus scale="   80.381">  5  6 -1 -1</clus>
<clus scale="   91.043">  7  8 -1 -1</clus>
<clus scale="   91.471">  1  7  2 -1</clus>
<clus scale="  114.671">  5  9 -1 -1</clus>
<clus scale="  257.170">  2  5  1 -1</clus>
</clustering>
</event>
<event>
 9    2  0.3726337E-005  0.8637366E+03  0.7546771E-02  0.1009307E+00
         -1   -1    0    0    0  501 -0.00000000000E+00  0.00000000000E+00  0.15253242444E+04  0.15253242444E+04  0.00000000000E+00 0.  1.
         21   -1    0    0  501  502  0.00000000000E+00 -0.00000000000E+00 -0.22338942434E+03  0.22338942434E+03  0.00000000000E+00 0. -1.
         23    2    1    2    0    0 -0.57059856940E+02 -0.19736018304E+02 -0.67108059661E+02  0.12997364105E+03  0.93511058187E+02 0.  0.
         24    2    1    2    0    0  0.38036719357E+03  0.23640736464E+03  0.90612884332E+03  0.10139561726E+04  0.80436281159E+02 0.  0.
        -11    1    4    4    0    0  0.51865258055E+02  0.51367173061E+02  0.97971703334E+02  0.12217629114E+03  0.00000000000E+00 0.  1.
         12    1    4    4    0    0  0.32850193551E+03  0.18504019158E+03  0.80815713998E+03  0.89177988149E+03  0.00000000000E+00 0. -1.
        -11    1    3    3    0    0  0.24933839389E+02 -0.91786772960E+01 -0.61857978580E+01  0.27280186193E+02  0.00000000000E+00 0.  1.
         11    1    3    3    0    0 -0.81993696329E+02 -0.10557341008E+02 -0.60922261803E+02  0.10269345485E+03  0.00000000000E+00 0. -1.
         -2    1    1    2    0  502 -0.32330733663E+03 -0.21667134633E+03  0.46291403641E+03  0.60478385507E+03  0.00000000000E+00 0.  1.
<scales pt_clust_5="13000.00000" pt_clust_6="13000.00000" pt_clust_7="13000.00000" pt_clust_8="13000.00000" pt_clust_9="13000.00000"></scales>
<clustering>
<clus scale="   80.436">  5  6 -1 -1</clus>
<clus scale="   93.511">  7  8 -1 -1</clus>
<clus scale="  111.309">  1  7  2 -1</clus>
<clus scale="  410.099">  5  9 -1 -1</clus>
<clus scale="  863.737">  2  5  1 -1</clus>
</clustering>
</event>
<event>
 9    2  0.3726337E-005  0.3069147E+03  0.7546771E-02  0.1115126E+00
         -1   -1    0    0    0  501 -0.00000000000E+00  0.00000000000E+00  0.59188107410E+03  0.59188107410E+03  0.00000000000E+00 0.  1.
         21   -1    0    0  501  502  0.00000000000E+00 -0.00000000000E+00 -0.86220913252E+02  0.86220913252E+02  0.00000000000E+00 0.  1.
         23    2    1    2    0    0 -0.65009299975E+02 -0.75670499254E+02  0.23862483172E+03  0.27127958190E+03  0.81844778107E+02 0.  0.
         24    2    1    2    0    0  0.76780895392E+02 -0.88383458039E+02  0.11026606985E+03  0.17960252952E+03  0.79946988047E+02 0.  0.
        -11    1    4    4    0    0  0.46802451454E+02 -0.86794860125E+02  0.46291538583E+02  0.10893449293E+03  0.00000000000E+00 0.  1.
         12    1    4    4    0    0  0.29978443938E+02 -0.15885979138E+01  0.63974531266E+02  0.70668036587E+02  0.00000000000E+00 0. -1.
        -11    1    3    3    0    0 -0.39331640086E+02 -0.61271416048E+02  0.22901682072E+03  0.24031202323E+03  0.00000000000E+00 0.  1.
         11    1    3    3    0    0 -0.25677659890E+02 -0.14399083206E+02  0.96080109955E+01  0.30967558669E+02  0.00000000000E+00 0. -1.
         -2    1    1    2    0  502 -0.11771595417E+02  0.16405395729E+03  0.15676925928E+03  0.22721987593E+03  0.00000000000E+00 0.  1.
<scales pt_clust_5="13000.00000" pt_clust_6="13000.00000" pt_clust_7="13000.00000" pt_clust_8="13000.00000" pt_clust_9="13000.00000"></scales>
<clustering>
<clus scale="   79.947">  5  6 -1 -1</clus>
<clus scale="   81.845">  7  8 -1 -1</clus>
<clus scale="  129.038">  1  7  2 -1</clus>
<clus scale="  130.415">  5  9 -1 -1</clus>
<clus scale="  306.915">  2  5  1 -1</clus>
</clustering>
</event>
<event>
 9    2  0.3726337E-005  0.1798214E+03  0.7546771E-02  0.1181050E+00
         21   -1    0    0  501  502  0.00000000000E+00  0.00000000000E+00  0.72552342840E+02  0.72552342840E+02  0.00000000000E+00 0. -1.
          2   -1    0    0  502    0 -0.00000000000E+00 -0.00000000000E+00 -0.41230445668E+03  0.41230445668E+03  0.00000000000E+00 0. -1.
         23    2    1    2    0    0  0.86181368121E+02 -0.44543092787E+02 -0.25090657362E+03  0.28428447292E+03  0.91936051309E+02 0.  0.
         24    2    1    2    0    0  0.35868257587E+01  0.37901577730E+02 -0.23922975007E+02  0.89588643887E+02  0.77488202115E+02 0.  0.
        -13    1    4    4    0    0  0.21470712360E+01  0.22440550824E+02 -0.52461119779E+02  0.57099538743E+02  0.00000000000E+00 0.  1.
         14    1    4    4    0    0  0.14397545227E+01  0.15461026906E+02  0.28538144772E+02  0.32489105145E+02  0.00000000000E+00 0. -1.
        -13    1    3    3    0    0  0.50270920288E+02 -0.72301846208E+02 -0.17290868218E+03  0.19404157999E+03  0.00000000000E+00 0. -1.
         13    1    3    3    0    0  0.35910447832E+02  0.27758753421E+02 -0.77997891446E+02  0.90242892933E+02  0.00000000000E+00 0.  1.
          1    1    1    2  501    0 -0.89768193879E+02  0.66415150575E+01 -0.64922565207E+02  0.11098368271E+03  0.00000000000E+00 0. -1.
<scales pt_clust_5="13000.00000" pt_clust_6="13000.00000" pt_clust_7="13000.00000" pt_clust_8="13000.00000" pt_clust_9="13000.00000"></scales>
<clustering>
<clus scale="   77.488">  5  6 -1 -1</clus>
<clus scale="   90.014">  5  9 -1 -1</clus>
<clus scale="   91.936">  7  8 -1 -1</clus>
<clus scale="  133.655">  2  7  1 -1</clus>
<clus scale="  179.821">  1  5  2 -1</clus>
</clustering>
</event>
<event>
 9    2  0.3726337E-005  0.2932566E+03  0.7546771E-02  0.1099836E+00
         -1   -1    0    0    0  501 -0.00000000000E+00  0.00000000000E+00  0.23392817379E+03  0.23392817379E+03  0.00000000000E+00 0.  1.
         21   -1    0    0  501  502  0.00000000000E+00 -0.00000000000E+00 -0.62850855898E+03  0.62850855898E+03  0.00000000000E+00 0.  1.
         23    2    1    2    0    0 -0.79924708564E+02  0.18386066292E+03 -0.50400323429E+03  0.54943070347E+03  0.87533623986E+02 0.  0.
         24    2    1    2    0    0  0.32540913979E+02  0.61846419851E+01  0.69752508124E+02  0.11316564834E+03  0.82727810894E+02 0.  0.
        -13    1    4    4    0    0 -0.20228130594E+02 -0.19755889709E+02  0.34504528066E+02  0.44609807246E+02  0.00000000000E+00 0.  1.
         14    1    4    4    0    0  0.52769044573E+02  0.25940531694E+02  0.35247980058E+02  0.68555841093E+02  0.00000000000E+00 0. -1.
        -11    1    3    3    0    0 -0.64600085597E+02  0.15269797806E+03 -0.30251050933E+03  0.34496731993E+03  0.00000000000E+00 0.  1.
         11    1    3    3    0    0 -0.15324622967E+02  0.31162684866E+02 -0.20149272496E+03  0.20446338354E+03  0.00000000000E+00 0. -1.
         -2    1    1    2    0  502  0.47383794585E+02 -0.19004530491E+03  0.39670340982E+02  0.19984038096E+03  0.00000000000E+00 0.  1.
<scales pt_clust_5="13000.00000" pt_clust_6="13000.00000" pt_clust_7="13000.00000" pt_clust_8="13000.00000" pt_clust_9="13000.00000"></scales>
<clustering>
<clus scale="   82.728">  5  6 -1 -1</clus>
<clus scale="   87.534">  7  8 -1 -1</clus>
<clus scale="  195.863">  5  9 -1 -1</clus>
<clus scale="  218.758">  1  7  2 -1</clus>
<clus scale="  293.257">  2  5  1 -1</clus>
</clustering>
</event>
<event>
 9    2  0.3726337E-005  0.1060021E+04  0.7546771E-02  0.9577103E-01
         -1   -1    0    0    0  501 -0.00000000000E+00  0.00000000000E+00  0.67720020172E+03  0.67720020172E+03  0.00000000000E+00 0.  1.
         21   -1    0    0  501  502  0.00000000000E+00 -0.00000000000E+00 -0.77229235281E+03  0.77229235281E+03  0.00000000000E+00 0.  1.
         23    2    1    2    0    0 -0.25438732786E+03 -0.17879344562E+03  0.15652158209E+03  0.36001822685E+03  0.91837406503E+02 0.  0.
         24    2    1    2    0    0 -0.22974034582E+03  0.24505998576E+03  0.22044537085E+03  0.41005497525E+03  0.81938379811E+02 0.  0.
        -13    1    4    4    0    0 -0.15293481021E+03  0.14920512954E+03  0.92908830304E+02  0.23298771986E+03  0.00000000000E+00 0.  1.
         14    1    4    4    0    0 -0.76805535610E+02  0.95854856215E+02  0.12753654054E+03  0.17706725540E+03  0.00000000000E+00 0. -1.
        -11    1    3    3    0    0 -0.18634753605E+03 -0.17415566763E+03  0.11194912092E+03  0.27854659652E+03  0.00000000000E+00 0.  1.
         11    1    3    3    0    0 -0.68039791809E+02 -0.46377779944E+01  0.44572461169E+02  0.81471630331E+02  0.00000000000E+00 0. -1.
         -2    1    1    2    0  502  0.48412767367E+03 -0.66266540139E+02 -0.47205910402E+03  0.67941935242E+03  0.00000000000E+00 0.  1.
<scales pt_clust_5="13000.00000" pt_clust_6="13000.00000" pt_clust_7="13000.00000" pt_clust_8="13000.00000" pt_clust_9="13000.00000"></scales>
<clustering>
<clus scale="   81.938">  5  6 -1 -1</clus>
<clus scale="   91.837">  7  8 -1 -1</clus>
<clus scale="  324.213">  1  7  2 -1</clus>
<clus scale="  435.429">  5  9 -1 -1</clus>
<clus scale=" 1060.021">  2  5  1 -1</clus>
</clustering>
</event>
<event>
 9    2  0.3726337E-005  0.3546803E+03  0.7546771E-02  0.1101989E+00
         21   -1    0    0  501  502  0.00000000000E+00  0.00000000000E+00  0.34750454945E+03  0.34750454945E+03  0.00000000000E+00 0.  1.
         -3   -1    0    0    0  501 -0.00000000000E+00 -0.00000000000E+00 -0.16464958647E+03  0.16464958647E+03  0.00000000000E+00 0.  1.
         23    2    1    2    0    0 -0.47111797669E+02 -0.57998034249E+02  0.93684045766E+01  0.11731781398E+03  0.89957817987E+02 0.  0.
         24    2    1    2    0    0  0.48372781880E+02 -0.56697043775E+02 -0.66491231732E+02  0.12885532494E+03  0.81413328576E+02 0.  0.
        -13    1    4    4    0    0  0.71364356829E+02 -0.42748572812E+02 -0.46111084196E+02  0.95113321826E+02  0.00000000000E+00 0.  1.
         14    1    4    4    0    0 -0.22991574949E+02 -0.13948470964E+02 -0.20380147536E+02  0.33742003119E+02  0.00000000000E+00 0. -1.
        -11    1    3    3    0    0 -0.46254765867E+02  0.98693152273E+00 -0.21183708488E+02  0.50884446588E+02  0.00000000000E+00 0.  1.
         11    1    3    3    0    0 -0.85703180204E+00 -0.58984965772E+02  0.30552113065E+02  0.66433367394E+02  0.00000000000E+00 0. -1.
         -4    1    1    2    0  502 -0.12609842107E+01  0.11469507802E+03  0.23997779013E+03  0.26598099699E+03  0.00000000000E+00 0.  1.
<scales pt_clust_5="13000.00000" pt_clust_6="13000.00000" pt_clust_7="13000.00000" pt_clust_8="13000.00000" pt_clust_9="13000.00000"></scales>
<clustering>
<clus scale="   81.413">  5  6 -1 -1</clus>
<clus scale="   89.958">  7  8 -1 -1</clus>
<clus scale="  114.702">  5  9 -1 -1</clus>
<clus scale="  116.943">  2  7  1 -1</clus>
<clus scale="  354.680">  1  5  2 -1</clus>
</clustering>
</event>
<event>
 9    2  0.3726337E-005  0.2279669E+03  0.7546771E-02  0.1164241E+00
         21   -1    0    0  501  502  0.00000000000E+00  0.00000000000E+00  0.33120722198E+03  0.33120722198E+03  0.00000000000E+00 0. -1.
         -1   -1    0    0    0  501 -0.00000000000E+00 -0.00000000000E+00 -0.85762464170E+02  0.85762464170E+02  0.00000000000E+00 0.  1.
         23    2    1    2    0    0 -0.16365510766E+02  0.26568062351E+02  0.23953635299E+02  0.99121881553E+02  0.90981750252E+02 0.  0.
         24    2    1    2    0    0 -0.64711793053E+02 -0.40272716765E+02  0.20470168705E+03  0.23392383966E+03  0.83714241351E+02 0.  0.
        -11    1    4    4    0    0 -0.31629208979E+01 -0.50537506482E+02  0.85187272660E+02  0.99100530036E+02  0.00000000000E+00 0.  1.
         12    1    4    4    0    0 -0.61548872155E+02  0.10264789717E+02  0.11951441439E+03  0.13482330962E+03  0.00000000000E+00 0. -1.
        -13    1    3    3    0    0  0.36995797229E+02  0.22465680671E+01  0.14109336829E+02  0.39658661934E+02  0.00000000000E+00 0.  1.
         13    1    3    3    0    0 -0.53361307995E+02  0.24321494284E+02  0.98442984697E+01  0.59463219619E+02  0.00000000000E+00 0. -1.
         -2    1    1    2    0  502  0.81077303819E+02  0.13704654414E+02  0.16789435460E+02  0.83923964934E+02  0.00000000000E+00 0.  1.
<scales pt_clust_5="13000.00000" pt_clust_6="13000.00000" pt_clust_7="13000.00000" pt_clust_8="13000.00000" pt_clust_9="13000.00000"></scales>
<clustering>
<clus scale="   83.714">  5  6 -1 -1</clus>
<clus scale="   82.227">  5  9 -1 -1</clus>
<clus scale="   90.982">  7  8 -1 -1</clus>
<clus scale="   96.184">  2  7  1 -1</clus>
<clus scale="  227.967">  1  5  2 -1</clus>
</clustering>
</event>
<event>
 9    2  0.3726337E-005  0.2472072E+03  0.7546771E-02  0.1147065E+00
          2   -1    0    0  502    0 -0.00000000000E+00  0.00000000000E+00  0.42010193581E+03  0.42010193581E+03  0.00000000000E+00 0. -1.
         21   -1    0    0  501  502  0.00000000000E+00 -0.00000000000E+00 -0.77173319818E+02  0.77173319818E+02  0.00000000000E+00 0. -1.
         23    2    1    2    0    0  0.64549953161E+02  0.17693089342E+02  0.10367584179E+03  0.15325011392E+03  0.90869001220E+02 0.  0.
         24    2    1    2    0    0 -0.70084026536E+01  0.88499951398E+02  0.15954631211E+03  0.19931469966E+03  0.79937254704E+02 0.  0.
        -13    1    4    4    0    0  0.26611208730E+02  0.91949589717E+01  0.17373305049E+02  0.33083763826E+02  0.00000000000E+00 0.  1.
         14    1    4    4    0    0 -0.33619611384E+02  0.79304992426E+02  0.14217300706E+03  0.16623093584E+03  0.00000000000E+00 0. -1.
        -11    1    3    3    0    0 -0.12117739842E+02  0.23130484389E+02  0.25585315178E+01  0.26237473401E+02  0.00000000000E+00 0.  1.
         11    1    3    3    0    0  0.76667693003E+02 -0.54373950473E+01  0.10111731028E+03  0.12701264052E+03  0.00000000000E+00 0. -1.
          1    1    1    2  501    0 -0.57541550508E+02 -0.10619304074E+03  0.79706462091E+02  0.14471044204E+03  0.00000000000E+00 0. -1.
<scales pt_clust_5="13000.00000" pt_clust_6="13000.00000" pt_clust_7="13000.00000" pt_clust_8="13000.00000" pt_clust_9="13000.00000"></scales>
<clustering>
<clus scale="   79.937">  5  6 -1 -1</clus>
<clus scale="   90.869">  7  8 -1 -1</clus>
<clus scale="  112.858">  1  7  2 -1</clus>
<clus scale="  104.629">  5  9 -1 -1</clus>
<clus scale="  247.207">  2  5  1 -1</clus>
</clustering>
</event>
<event>
 9    2  0.3726337E-005  0.3286262E+03  0.7546771E-02  0.1097024E+00
          4   -1    0    0  502    0 -0.00000000000E+00  0.00000000000E+00  0.28551720979E+03  0.28551720979E+03  0.00000000000E+00 0. -1.
         21   -1    0    0  501  502  0.00000000000E+00 -0.00000000000E+00 -0.21556895464E+03  0.21556895464E+03  0.00000000000E+00 0. -1.
         23    2    1    2    0    0  0.87764739368E+02  0.10878917515E+03  0.15403290640E+02  0.16796404249E+03  0.91852730510E+02 0.  0.
         24    2    1    2    0    0 -0.98856838837E+02  0.68746465394E+02  0.56839539267E+02  0.15522551318E+03  0.79783930897E+02 0.  0.
        -13    1    4    4    0    0 -0.36880260110E+02  0.71570913570E+02  0.19597551927E+02  0.82865030601E+02  0.00000000000E+00 0.  1.
         14    1    4    4    0    0 -0.61976578727E+02 -0.28244481760E+01  0.37241987340E+02  0.72360482581E+02  0.00000000000E+00 0. -1.
        -11    1    3    3    0    0  0.26814565236E+02  0.24499879404E+02  0.46865295363E+02  0.59292671631E+02  0.00000000000E+00 0. -1.
         11    1    3    3    0    0  0.60950174133E+02  0.84289295742E+02 -0.31462004724E+02  0.10867137086E+03  0.00000000000E+00 0.  1.
          3    1    1    2  501    0  0.11092099469E+02 -0.17753564054E+03 -0.22945747531E+01  0.17789660875E+03  0.00000000000E+00 0. -1.
<scales pt_clust_5="13000.00000" pt_clust_6="13000.00000" pt_clust_7="13000.00000" pt_clust_8="13000.00000" pt_clust_9="13000.00000"></scales>
<clustering>
<clus scale="   79.784">  5  6 -1 -1</clus>
<clus scale="   91.853">  7  8 -1 -1</clus>
<clus scale="  167.256">  1  7  2 -1</clus>
<clus scale="  137.969">  5  9 -1 -1</clus>
<clus scale="  328.626">  2  5  1 -1</clus>
</clustering>
</event>
<event>
 9    2  0.3726337E-005  0.1633078E+03  0.7546771E-02  0.1202952E+00
          2   -1    0    0  502    0 -0.00000000000E+00  0.00000000000E+00  0.38514810886E+03  0.38514810886E+03  0.00000000000E+00 0. -1.
         21   -1    0    0  501  502  0.00000000000E+00 -0.00000000000E+00 -0.55588275053E+02  0.55588275053E+02  0.00000000000E+00 0. -1.
         23    2    1    2    0    0 -0.62940798544E+02 -0.47036201848E+01  0.21396171408E+03  0.24065545927E+03  0.90287135421E+02 0.  0.
         24    2    1    2    0    0  0.41751299611E+02 -0.48402205500E+02  0.55870048245E+02  0.11739679007E+03  0.81083904140E+02 0.  0.
        -13    1    4    4    0    0  0.18107108850E+02  0.21597321228E+02  0.77718842900E+01  0.29235489744E+02  0.00000000000E+00 0.  1.
         14    1    4    4    0    0  0.23644190761E+02 -0.69999526728E+02  0.48098163955E+02  0.88161300323E+02  0.00000000000E+00 0. -1.
        -11    1    3    3    0    0  0.24765298136E+01 -0.34678323448E+02  0.43920259493E+02  0.56015252486E+02  0.00000000000E+00 0.  1.
         11    1    3    3    0    0 -0.65417328357E+02  0.29974703264E+02  0.17004145458E+03  0.18464020679E+03  0.00000000000E+00 0. -1.
          1    1    1    2  501    0  0.21189498933E+02  0.53105825685E+02  0.59728071482E+02  0.82684134570E+02  0.00000000000E+00 0. -1.
<scales pt_clust_5="13000.00000" pt_clust_6="13000.00000" pt_clust_7="13000.00000" pt_clust_8="13000.00000" pt_clust_9="13000.00000"></scales>
<clustering>
<clus scale="   81.084">  5  6 -1 -1</clus>
<clus scale="   57.177">  5  9 -1 -1</clus>
<clus scale="   90.287">  7  8 -1 -1</clus>
<clus scale="  110.161">  1  7  2 -1</clus>
<clus scale="  163.308">  2  5  1 -1</clus>
</clustering>
</event>
<event>
 9    2  0.3726337E-005  0.1934378E+03  0.7546771E-02  0.1174684E+00
         21   -1    0    0  501  502  0.00000000000E+00  0.00000000000E+00  0.20644880597E+03  0.20644880597E+03  0.00000000000E+00 0.  1.
         -1   -1    0    0    0  501 -0.00000000000E+00 -0.00000000000E+00 -0.12911033514E+03  0.12911033514E+03  0.00000000000E+00 0.  1.
         23    2    1    2    0    0 -0.18497698204E+02  0.81537912460E+02 -0.78354750737E+01  0.12419973900E+03  0.91507292009E+02 0.  0.
         24    2    1    2    0    0  0.63168215747E+02 -0.16212282901E+02  0.13868818949E+02  0.10483562943E+03  0.80901813707E+02 0.  0.
        -13    1    4    4    0    0  0.17531712282E+02  0.28597846954E+02  0.22364338986E+02  0.40315771656E+02  0.00000000000E+00 0.  1.
         14    1    4    4    0    0  0.45636503465E+02 -0.44810129855E+02 -0.84955200374E+01  0.64519857772E+02  0.00000000000E+00 0. -1.
        -11    1    3    3    0    0 -0.24619011825E+02  0.39088004172E+02  0.39171450044E+02  0.60567072836E+02  0.00000000000E+00 0. -1.
         11    1    3    3    0    0  0.61213136217E+01  0.42449908287E+02 -0.47006925117E+02  0.63632666163E+02  0.00000000000E+00 0.  1.
         -2    1    1    2    0  502 -0.44670517543E+02 -0.65325629559E+02  0.71305126960E+02  0.10652377268E+03  0.00000000000E+00 0.  1.
<scales pt_clust_5="13000.00000" pt_clust_6="13000.00000" pt_clust_7="13000.00000" pt_clust_8="13000.00000" pt_clust_9="13000.00000"></scales>
<clustering>
<clus scale="   80.902">  5  6 -1 -1</clus>
<clus scale="   79.138">  5  9 -1 -1</clus>
<clus scale="   91.507">  7  8 -1 -1</clus>
<clus scale="  123.952">  2  7  1 -1</clus>
<clus scale="  193.438">  1  5  2 -1</clus>
</clustering>
</event>
<event>
 9    2  0.3726337E-005  0.3920213E+03  0.7546771E-02  0.1095650E+00
         -3   -1    0    0    0  501 -0.00000000000E+00  0.00000000000E+00  0.27034791307E+03  0.27034791307E+03  0.00000000000E+00 0.  1.
         21   -1    0    0  501  502  0.00000000000E+00 -0.00000000000E+00 -0.53129799477E+03  0.53129799477E+03  0.00000000000E+00 0.  1.
         23    2    1    2    0    0 -0.42403975572E+02  0.12270290635E+02  0.18288718747E+03  0.20947007927E+03  0.92094156125E+02 0.  0.
         24    2    1    2    0    0 -0.40812117671E+02 -0.74835917011E+02  0.17778175951E+02  0.11896530992E+03  0.81059471992E+02 0.  0.
        -11    1    4    4    0    0 -0.15719339626E+01 -0.60433774256E+02 -0.18915971523E+02  0.63344502728E+02  0.00000000000E+00 0.  1.
         12    1    4    4    0    0 -0.39240183709E+02 -0.14402142755E+02  0.36694147474E+02  0.55620807188E+02  0.00000000000E+00 0. -1.
        -11    1    3    3    0    0 -0.27809429009E+01  0.46812771903E+02  0.62760084211E+02  0.78345372721E+02  0.00000000000E+00 0. -1.
         11    1    3    3    0    0 -0.39623032671E+02 -0.34542481268E+02  0.12012710326E+03  0.13112470655E+03  0.00000000000E+00 0.  1.
         -4    1    1    2    0  502  0.83216093243E+02  0.62565626375E+02 -0.46161544512E+03  0.47321051864E+03  0.00000000000E+00 0.  1.
<scales pt_clust_5="13000.00000" pt_clust_6="13000.00000" pt_clust_7="13000.00000" pt_clust_8="13000.00000" pt_clust_9="13000.00000"></scales>
<clustering>
<clus scale="   81.059">  5  6 -1 -1</clus>
<clus scale="   92.094">  7  8 -1 -1</clus>
<clus scale="  102.127">  1  7  2 -1</clus>
<clus scale="  102.077">  5  9 -1 -1</clus>
<clus scale="  392.021">  2  5  1 -1</clus>
</clustering>
</event>
<event>
 9    2  0.3726337E-005  0.3872228E+03  0.7546771E-02  0.1067910E+00
         21   -1    0    0  501  502  0.00000000000E+00  0.00000000000E+00  0.50384182664E+03  0.50384182664E+03  0.00000000000E+00 0.  1.
         -1   -1    0    0    0  501 -0.00000000000E+00 -0.00000000000E+00 -0.18584198496E+03  0.18584198496E+03  0.00000000000E+00 0.  1.
         23    2    1    2    0    0 -0.10549865974E+03  0.17439967189E+03  0.14036804564E+03  0.26366203423E+03  0.90935511735E+02 0.  0.
         24    2    1    2    0    0 -0.85993278323E+02 -0.10686096404E+03  0.40686478439E+01  0.15889857394E+03  0.80113003655E+02 0.  0.
        -11    1    4    4    0    0 -0.68625937222E+02 -0.10991086056E+03  0.24540841836E+02  0.13187937461E+03  0.00000000000E+00 0.  1.
         12    1    4    4    0    0 -0.17367341102E+02  0.30498965284E+01 -0.20472193992E+02  0.27019199334E+02  0.00000000000E+00 0. -1.
        -13    1    3    3    0    0 -0.79236850712E+02  0.16432561629E+03  0.84370157967E+02  0.20099679160E+03  0.00000000000E+00 0.  1.
         13    1    3    3    0    0 -0.26261809029E+02  0.10074055603E+02  0.55997887672E+02  0.62665242627E+02  0.00000000000E+00 0. -1.
         -2    1    1    2    0  502  0.19149193806E+03 -0.67538707851E+02  0.17356314820E+03  0.26712320344E+03  0.00000000000E+00 0.  1.
<scales pt_clust_5="13000.00000" pt_clust_6="13000.00000" pt_clust_7="13000.00000" pt_clust_8="13000.00000" pt_clust_9="13000.00000"></scales>
<clustering>
<clus scale="   80.113">  5  6 -1 -1</clus>
<clus scale="   90.936">  7  8 -1 -1</clus>
<clus scale="  203.053">  5  9 -1 -1</clus>
<clus scale="  223.192">  2  7  1 -1</clus>
<clus scale="  387.223">  1  5  2 -1</clus>
</clustering>
</event>
<event>
 9    2  0.3726337E-005  0.1360023E+03  0.7546771E-02  0.1236833E+00
         21   -1    0    0  501  502  0.00000000000E+00  0.00000000000E+00  0.57372760199E+03  0.57372760199E+03  0.00000000000E+00 0. -1.
          2   -1    0    0  502    0 -0.00000000000E+00 -0.00000000000E+00 -0.28102052094E+02  0.28102052094E+02  0.00000000000E+00 0. -1.
         23    2    1    2    0    0 -0.25285535048E+02  0.24914373290E+02  0.10489887235E+03  0.14059584558E+03  0.86621787644E+02 0.  0.
         24    2    1    2    0    0 -0.44678683756E+01  0.15744152292E+02  0.25059307099E+03  0.26453818309E+03  0.83160825528E+02 0.  0.
        -11    1    4    4    0    0  0.26879804354E+02 -0.15697392229E+02  0.48531048651E+02  0.57655829610E+02  0.00000000000E+00 0.  1.
         12    1    4    4    0    0 -0.31347672730E+02  0.31441544521E+02  0.20206202234E+03  0.20688235348E+03  0.00000000000E+00 0. -1.
        -13    1    3    3    0    0 -0.53093408853E+02  0.33517696831E+02  0.83477048104E+02  0.10445460078E+03  0.00000000000E+00 0. -1.
         13    1    3    3    0    0  0.27807873805E+02 -0.86033235402E+01  0.21421824250E+02  0.36141244800E+02  0.00000000000E+00 0.  1.
          1    1    1    2  501    0  0.29753403424E+02 -0.40658525583E+02  0.19013360655E+03  0.19669562541E+03  0.00000000000E+00 0. -1.
<scales pt_clust_5="13000.00000" pt_clust_6="13000.00000" pt_clust_7="13000.00000" pt_clust_8="13000.00000" pt_clust_9="13000.00000"></scales>
<clustering>
<clus scale="   83.161">  5  6 -1 -1</clus>
<clus scale="   50.382">  5  9 -1 -1</clus>
<clus scale="   86.622">  7  8 -1 -1</clus>
<clus scale="   93.613">  2  7  1 -1</clus>
<clus scale="  136.002">  1  5  2 -1</clus>
</clustering>
</event>
<event>
 9    2  0.3726337E-005  0.5356701E+03  0.7546771E-02  0.1057638E+00
         21   -1    0    0  501  502  0.00000000000E+00  0.00000000000E+00  0.34386268057E+03  0.34386268057E+03  0.00000000000E+00 0.  1.
         -1   -1    0    0    0  501 -0.00000000000E+00 -0.00000000000E+00 -0.30611939528E+03  0.30611939528E+03  0.00000000000E+00 0.  1.
         23    2    1    2    0    0  0.34269106495E+02 -0.58475626373E+02 -0.70768486790E+01  0.11244013103E+03  0.89436741550E+02 0.  0.
         24    2    1    2    0    0 -0.10365924516E+03 -0.19443888546E+03 -0.77761259342E+02  0.24804766228E+03  0.83241275958E+02 0.  0.
        -13    1    4    4    0    0 -0.10050623819E+03 -0.10414407354E+03 -0.55388974646E+02  0.15496912751E+03  0.00000000000E+00 0.  1.
         14    1    4    4    0    0 -0.31530069645E+01 -0.90294811914E+02 -0.22372284695E+02  0.93078534765E+02  0.00000000000E+00 0. -1.
        -13    1    3    3    0    0  0.58457701944E+02 -0.25413685407E+02 -0.24007161293E+02  0.68113890770E+02  0.00000000000E+00 0.  1.
         13    1    3    3    0    0 -0.24188595449E+02 -0.33061940966E+02  0.16930312614E+02  0.44326240259E+02  0.00000000000E+00 0. -1.
         -2    1    1    2    0  502  0.69390138664E+02  0.25291451183E+03  0.12258139331E+03  0.28949428254E+03  0.00000000000E+00 0.  1.
<scales pt_clust_5="13000.00000" pt_clust_6="13000.00000" pt_clust_7="13000.00000" pt_clust_8="13000.00000" pt_clust_9="13000.00000"></scales>
<clustering>
<clus scale="   83.241">  5  6 -1 -1</clus>
<clus scale="   89.437">  7  8 -1 -1</clus>
<clus scale="  112.217">  2  7  1 -1</clus>
<clus scale="  246.777">  5  9 -1 -1</clus>
<clus scale="  535.670">  1  5  2 -1</clus>
</clustering>
</event>
<event>
 9    2  0.3726337E-005  0.2342432E+03  0.7546771E-02  0.1139256E+00
         21   -1    0    0  501  502  0.00000000000E+00  0.00000000000E+00  0.48566126701E+03  0.48566126701E+03  0.00000000000E+00 0. -1.
          2   -1    0    0  502    0 -0.00000000000E+00 -0.00000000000E+00 -0.89447189470E+02  0.89447189470E+02  0.00000000000E+00 0. -1.
         23    2    1    2    0    0 -0.95300956040E+02  0.88942521440E+02  0.25668769622E+03  0.30245943041E+03  0.92736666478E+02 0.  0.
         24    2    1    2    0    0  0.98545995654E+02 -0.11305969045E+02  0.14763691852E+03  0.19452255576E+03  0.78760566248E+02 0.  0.
        -11    1    4    4    0    0  0.60116057345E+01  0.19945456583E+02  0.46208118513E+01  0.21338053894E+02  0.00000000000E+00 0.  1.
         12    1    4    4    0    0  0.92534389919E+02 -0.31251425628E+02  0.14301610667E+03  0.17318450187E+03  0.00000000000E+00 0. -1.
        -13    1    3    3    0    0 -0.78386257763E+02  0.48725615761E+02  0.85545725744E+02  0.12584380092E+03  0.00000000000E+00 0.  1.
         13    1    3    3    0    0 -0.16914698277E+02  0.40216905679E+02  0.17114197048E+03  0.17661562949E+03  0.00000000000E+00 0. -1.
          1    1    1    2  501    0 -0.32450396135E+01 -0.77636552395E+02 -0.81105371952E+01  0.78126470312E+02  0.00000000000E+00 0. -1.
<scales pt_clust_5="13000.00000" pt_clust_6="13000.00000" pt_clust_7="13000.00000" pt_clust_8="13000.00000" pt_clust_9="13000.00000"></scales>
<clustering>
<clus scale="   78.761">  5  6 -1 -1</clus>
<clus scale="   77.704">  5  9 -1 -1</clus>
<clus scale="   92.737">  7  8 -1 -1</clus>
<clus scale="  159.979">  2  7  1 -1</clus>
<clus scale="  234.243">  1  5  2 -1</clus>
</clustering>
</event>
<event>
 9    2  0.3726337E-005  0.1717315E+03  0.7546771E-02  0.1194906E+00
         21   -1    0    0  501  502  0.00000000000E+00  0.00000000000E+00  0.55274067914E+02  0.55274067914E+02  0.00000000000E+00 0.  1.
          2   -1    0    0  502    0 -0.00000000000E+00 -0.00000000000E+00 -0.42711423103E+03  0.42711423103E+03  0.00000000000E+00 0. -1.
         23    2    1    2    0    0 -0.44398872445E+02  0.52488701162E+02 -0.63619410657E+02  0.12955443852E+03  0.89501952511E+02 0.  0.
         24    2    1    2    0    0  0.23630603835E+02  0.27893388406E+02 -0.14452132504E+03  0.16928521880E+03  0.80216116580E+02 0.  0.
        -13    1    4    4    0    0  0.21809418113E+02 -0.21362087909E+02 -0.23230530595E+02  0.38362052473E+02  0.00000000000E+00 0.  1.
         14    1    4    4    0    0  0.18211857219E+01  0.49255476315E+02 -0.12129079444E+03  0.13092316633E+03  0.00000000000E+00 0. -1.
        -11    1    3    3    0    0 -0.83293163673E+01  0.55942779911E+02 -0.25348195495E+00  0.56560024650E+02  0.00000000000E+00 0.  1.
         11    1    3    3    0    0 -0.36069556078E+02 -0.34540787493E+01 -0.63365928702E+02  0.72994413868E+02  0.00000000000E+00 0. -1.
          1    1    1    2  501    0  0.20768268611E+02 -0.80382089567E+02 -0.16369942742E+03  0.18354864162E+03  0.00000000000E+00 0. -1.
<scales pt_clust_5="13000.00000" pt_clust_6="13000.00000" pt_clust_7="13000.00000" pt_clust_8="13000.00000" pt_clust_9="13000.00000"></scales>
<clustering>
<clus scale="   80.216">  5  6 -1 -1</clus>
<clus scale="   83.022">  5  9 -1 -1</clus>
<clus scale="   89.502">  7  8 -1 -1</clus>
<clus scale="  112.858">  2  7  1 -1</clus>
<clus scale="  171.731">  1  5  2 -1</clus>
</clustering>
</event>
<event>
 9    2  0.3726337E-005  0.2479984E+03  0.7546771E-02  0.1148210E+00
         -3   -1    0    0    0  501 -0.00000000000E+00  0.00000000000E+00  0.20085269346E+03  0.20085269346E+03  0.00000000000E+00 0.  1.
         21   -1    0    0  501  502  0.00000000000E+00 -0.00000000000E+00 -0.15843563131E+03  0.15843563131E+03  0.00000000000E+00 0.  1.
         23    2    1    2    0    0  0.10401616868E+02 -0.47233521852E+02  0.12975292756E+02  0.10954836260E+03  0.97433496837E+02 0.  0.
         24    2    1    2    0    0  0.31573444156E+02 -0.78227288913E+02  0.11076661122E+02  0.11617500424E+03  0.79104665362E+02 0.  0.
        -13    1    4    4    0    0  0.53043060683E+02 -0.52021010874E+02 -0.11897769768E+02  0.75241669203E+02  0.00000000000E+00 0.  1.
         14    1    4    4    0    0 -0.21469616527E+02 -0.26206278038E+02  0.22974430891E+02  0.40933335037E+02  0.00000000000E+00 0. -1.
        -13    1    3    3    0    0 -0.28995478056E+02  0.15121031655E+02 -0.63242263604E+01  0.33307344311E+02  0.00000000000E+00 0. -1.
         13    1    3    3    0    0  0.39397094923E+02 -0.62354553507E+02  0.19299519116E+02  0.76241018288E+02  0.00000000000E+00 0.  1.
         -4    1    1    2    0  502 -0.41975061023E+02  0.12546081077E+03  0.18365108274E+02  0.13356495793E+03  0.00000000000E+00 0.  1.
<scales pt_clust_5="13000.00000" pt_clust_6="13000.00000" pt_clust_7="13000.00000" pt_clust_8="13000.00000" pt_clust_9="13000.00000"></scales>
<clustering>
<clus scale="   79.105">  5  6 -1 -1</clus>
<clus scale="   97.433">  7  8 -1 -1</clus>
<clus scale="  108.777">  1  7  2 -1</clus>
<clus scale="  106.161">  5  9 -1 -1</clus>
<clus scale="  247.998">  2  5  1 -1</clus>
</clustering>
</event>
<event>
 9    2  0.3726337E-005  0.3162265E+03  0.7546771E-02  0.1095191E+00
         21   -1    0    0  501  502  0.00000000000E+00  0.00000000000E+00  0.54412163048E+03  0.54412163048E+03  0.00000000000E+00 0. -1.
         -1   -1    0    0    0  501 -0.00000000000E+00 -0.00000000000E+00 -0.14731529754E+03  0.14731529754E+03  0.00000000000E+00 0.  1.
         23    2    1    2    0    0 -0.11216198240E+03  0.13457978957E+03  0.30339751303E+03  0.36170309018E+03  0.89927996058E+02 0.  0.
         24    2    1    2    0    0 -0.36765851662E+02 -0.35349945933E+02  0.10837359582E+03  0.15015097078E+03  0.90549054265E+02 0.  0.
        -13    1    4    4    0    0  0.83745279905E+01  0.18249394506E+02 -0.11677433063E+01  0.20113098800E+02  0.00000000000E+00 0.  1.
         14    1    4    4    0    0 -0.45140379653E+02 -0.53599340439E+02  0.10954133913E+03  0.13003787198E+03  0.00000000000E+00 0. -1.
        -13    1    3    3    0    0 -0.85236184531E+02  0.14393631092E+03  0.24421056845E+03  0.29600957839E+03  0.00000000000E+00 0. -1.
         13    1    3    3    0    0 -0.26925797873E+02 -0.93565213486E+01  0.59186944580E+02  0.65693511792E+02  0.00000000000E+00 0.  1.
         -2    1    1    2    0  502  0.14892783407E+03 -0.99229843638E+02 -0.14964775910E+02  0.17958286707E+03  0.00000000000E+00 0.  1.
<scales pt_clust_5="13000.00000" pt_clust_6="13000.00000" pt_clust_7="13000.00000" pt_clust_8="13000.00000" pt_clust_9="13000.00000"></scales>
<clustering>
<clus scale="   89.928">  7  8 -1 -1</clus>
<clus scale="   90.549">  5  6 -1 -1</clus>
<clus scale="  178.958">  5  9 -1 -1</clus>
<clus scale="  196.924">  2  7  1 -1</clus>
<clus scale="  316.226">  1  5  2 -1</clus>
</clustering>
</event>
<event>
 9    2  0.3726337E-005  0.3213548E+03  0.7546771E-02  0.1104283E+00
         -1   -1    0    0    0  501 -0.00000000000E+00  0.00000000000E+00  0.25555985965E+03  0.25555985965E+03  0.00000000000E+00 0.  1.
         21   -1    0    0  501  502  0.00000000000E+00 -0.00000000000E+00 -0.21569756812E+03  0.21569756812E+03  0.00000000000E+00 0.  1.
         23    2    1    2    0    0 -0.41687603158E+02 -0.10720531625E+03  0.14549308245E+02  0.14890719821E+03  0.93438938459E+02 0.  0.
         24    2    1    2    0    0 -0.93416930850E+02  0.13237191066E+03  0.36931080778E+02  0.18443151156E+03  0.80012699163E+02 0.  0.
        -13    1    4    4    0    0 -0.89518786388E+02  0.12417803429E+03  0.56249404674E+02  0.16308829769E+03  0.00000000000E+00 0.  1.
         14    1    4    4    0    0 -0.38981444619E+01  0.81938763717E+01 -0.19318323896E+02  0.21343213872E+02  0.00000000000E+00 0. -1.
        -11    1    3    3    0    0 -0.69477327458E+02 -0.63403793527E+02  0.21736993286E+02  0.96538266721E+02  0.00000000000E+00 0.  1.
         11    1    3    3    0    0  0.27789724300E+02 -0.43801522720E+02 -0.71876850408E+01  0.52368931491E+02  0.00000000000E+00 0. -1.
         -2    1    1    2    0  502  0.13510453401E+03 -0.25166594413E+02 -0.11618097496E+02  0.13791871799E+03  0.00000000000E+00 0.  1.
<scales pt_clust_5="13000.00000" pt_clust_6="13000.00000" pt_clust_7="13000.00000" pt_clust_8="13000.00000" pt_clust_9="13000.00000"></scales>
<clustering>
<clus scale="   80.013">  5  6 -1 -1</clus>
<clus scale="   93.439">  7  8 -1 -1</clus>
<clus scale="  137.429">  5  9 -1 -1</clus>
<clus scale="  148.195">  1  7  2 -1</clus>
<clus scale="  321.355">  2  5  1 -1</clus>
</clustering>
</event>
<event>
 9    2  0.3726337E-005  0.2887309E+03  0.7546771E-02  0.1129627E+00
         21   -1    0    0  501  502  0.00000000000E+00  0.00000000000E+00  0.34134451715E+02  0.34134451715E+02  0.00000000000E+00 0. -1.
          2   -1    0    0  502    0 -0.00000000000E+00 -0.00000000000E+00 -0.11725768544E+04  0.11725768544E+04  0.00000000000E+00 0. -1.
         23    2    1    2    0    0 -0.55619943865E+02 -0.49635245863E+01 -0.38417913721E+03  0.39907362153E+03  0.92455022583E+02 0.  0.
         24    2    1    2    0    0 -0.21889616336E+02 -0.47676942781E+02 -0.76656387109E+02  0.12358371571E+03  0.81513722326E+02 0.  0.
        -13    1    4    4    0    0 -0.47602431841E+02 -0.80785422110E+01 -0.49353136502E+02  0.69043366401E+02  0.00000000000E+00 0.  1.
         14    1    4    4    0    0  0.25712815505E+02 -0.39598400570E+02 -0.27303250607E+02  0.54540349308E+02  0.00000000000E+00 0. -1.
        -11    1    3    3    0    0  0.96703439107E+00  0.27002026210E+02 -0.36725690465E+02  0.45594088599E+02  0.00000000000E+00 0.  1.
         11    1    3    3    0    0 -0.56586978256E+02 -0.31965550797E+02 -0.34745344674E+03  0.35347953293E+03  0.00000000000E+00 0. -1.
          1    1    1    2  501    0  0.77509560201E+02  0.52640467368E+02 -0.67760687834E+03  0.68405396885E+03  0.00000000000E+00 0. -1.
<scales pt_clust_5="13000.00000" pt_clust_6="13000.00000" pt_clust_7="13000.00000" pt_clust_8="13000.00000" pt_clust_9="13000.00000"></scales>
<clustering>
<clus scale="   81.514">  5  6 -1 -1</clus>
<clus scale="   92.455">  7  8 -1 -1</clus>
<clus scale="   93.695">  5  9 -1 -1</clus>
<clus scale="  108.010">  2  7  1 -1</clus>
<clus scale="  288.731">  1  5  2 -1</clus>
</clustering>
</event>
<event>
 9    2  0.3726337E-005  0.3082548E+03  0.7546771E-02  0.1103221E+00
         21   -1    0    0  501  502  0.00000000000E+00  0.00000000000E+00  0.70952773063E+02  0.70952773063E+02  0.00000000000E+00 0. -1.
          2   -1    0    0  502    0 -0.00000000000E+00 -0.00000000000E+00 -0.86896279331E+03  0.86896279331E+03  0.00000000000E+00 0. -1.
         23    2    1    2    0    0  0.14262379834E+03  0.30150061467E+02 -0.18033441817E+03  0.24959377412E+03  0.92336209808E+02 0.  0.
         24    2    1    2    0    0 -0.64652860787E+02  0.79733692158E+02 -0.13075572378E+03  0.18510414183E+03  0.81418855001E+02 0.  0.
        -11    1    4    4    0    0 -0.27008802723E+02  0.86672479280E+02 -0.10579569934E+03  0.13940704461E+03  0.00000000000E+00 0.  1.
         12    1    4    4    0    0 -0.37644058065E+02 -0.69387871228E+01 -0.24960024442E+02  0.45697097221E+02  0.00000000000E+00 0. -1.
        -11    1    3    3    0    0  0.53725306702E+02  0.58322454121E+02 -0.83972836672E+02  0.11549612346E+03  0.00000000000E+00 0. -1.
         11    1    3    3    0    0  0.88898491643E+02 -0.28172392654E+02 -0.96361581498E+02  0.13409765066E+03  0.00000000000E+00 0.  1.
          1    1    1    2  501    0 -0.77970937557E+02 -0.10988375362E+03 -0.48691987829E+03  0.50521765042E+03  0.00000000000E+00 0. -1.
<scales pt_clust_5="13000.00000" pt_clust_6="13000.00000" pt_clust_7="13000.00000" pt_clust_8="13000.00000" pt_clust_9="13000.00000"></scales>
<clustering>
<clus scale="   81.419">  5  6 -1 -1</clus>
<clus scale="   92.336">  7  8 -1 -1</clus>
<clus scale="  134.737">  5  9 -1 -1</clus>
<clus scale="  172.559">  2  7  1 -1</clus>
<clus scale="  308.255">  1  5  2 -1</clus>
</clustering>
</event>
<event>
 9    2  0.3726337E-005  0.1875890E+03  0.7546771E-02  0.1186279E+00
         21   -1    0    0  501  502  0.00000000000E+00  0.00000000000E+00  0.97912917992E+02  0.97912917992E+02  0.00000000000E+00 0. -1.
          2   -1    0    0  502    0 -0.00000000000E+00 -0.00000000000E+00 -0.22446062051E+03  0.22446062051E+03  0.00000000000E+00 0. -1.
         23    2    1    2    0    0 -0.50118042636E+02 -0.92231498529E+01 -0.20016142783E+02  0.10664549195E+03  0.91519016001E+02 0.  0.
         24    2    1    2    0    0 -0.93629315148E+01  0.64587614580E+02 -0.38011486574E+02  0.10943500508E+03  0.79195471972E+02 0.  0.
        -13    1    4    4    0    0 -0.10056725646E+02 -0.17355389481E+02 -0.28344526205E+01  0.20257872455E+02  0.00000000000E+00 0.  1.
         14    1    4    4    0    0  0.69379413089E+00  0.81943004061E+02 -0.35177033954E+02  0.89177132622E+02  0.00000000000E+00 0. -1.
        -11    1    3    3    0    0  0.24334574323E+02  0.10699828042E+02 -0.11972499447E+02  0.29154734961E+02  0.00000000000E+00 0.  1.
         11    1    3    3    0    0 -0.74452616959E+02 -0.19922977894E+02 -0.80436433360E+01  0.77490756987E+02  0.00000000000E+00 0. -1.
          1    1    1    2  501    0  0.59480974151E+02 -0.55364464727E+02 -0.68520073158E+02  0.10629304148E+03  0.00000000000E+00 0. -1.
<scales pt_clust_5="13000.00000" pt_clust_6="13000.00000" pt_clust_7="13000.00000" pt_clust_8="13000.00000" pt_clust_9="13000.00000"></scales>
<clustering>
<clus scale="   79.195">  5  6 -1 -1</clus>
<clus scale="   81.260">  5  9 -1 -1</clus>
<clus scale="   91.519">  7  8 -1 -1</clus>
<clus scale="  104.750">  2  7  1 -1</clus>
<clus scale="  187.589">  1  5  2 -1</clus>
</clustering>
</event>
<event>
 9    2  0.3726337E-005  0.1557622E+04  0.7546771E-02  0.9330038E-01
          2   -1    0    0  502    0 -0.00000000000E+00  0.00000000000E+00  0.40820344060E+03  0.40820344060E+03  0.00000000000E+00 0. -1.
         21   -1    0    0  501  502  0.00000000000E+00 -0.00000000000E+00 -0.23441195256E+04  0.23441195256E+04  0.00000000000E+00 0. -1.
         23    2    1    2    0    0 -0.12324861785E+03 -0.19064094793E+03  0.27324588742E+02  0.24623012148E+03  0.91369834976E+02 0.  0.
         24    2    1    2    0    0  0.79609339062E+03 -0.11627687672E+03 -0.88944539581E+03  0.12022696442E+04  0.83989205187E+02 0.  0.
        -11    1    4    4    0    0  0.20323213058E+03 -0.66738223902E+02 -0.22802383645E+03  0.31265341741E+03  0.00000000000E+00 0.  1.
         12    1    4    4    0    0  0.59286126003E+03 -0.49538652822E+02 -0.66142155937E+03  0.88961622679E+03  0.00000000000E+00 0. -1.
        -11    1    3    3    0    0 -0.69407809545E+02 -0.36517930490E+02 -0.91147622044E+01  0.78956204083E+02  0.00000000000E+00 0.  1.
         11    1    3    3    0    0 -0.53840808309E+02 -0.15412301744E+03  0.36439350947E+02  0.16727391739E+03  0.00000000000E+00 0. -1.
          1    1    1    2  501    0 -0.67284477277E+03  0.30691782465E+03 -0.10737952780E+04  0.13038232006E+04  0.00000000000E+00 0. -1.
<scales pt_clust_5="13000.00000" pt_clust_6="13000.00000" pt_clust_7="13000.00000" pt_clust_8="13000.00000" pt_clust_9="13000.00000"></scales>
<clustering>
<clus scale="   83.989">  5  6 -1 -1</clus>
<clus scale="   91.370">  7  8 -1 -1</clus>
<clus scale="  244.709">  1  7  2 -1</clus>
<clus scale="  759.516">  5  9 -1 -1</clus>
<clus scale=" 1557.622">  2  5  1 -1</clus>
</clustering>
</event>
<event>
 9    2  0.3726337E-005  0.1687468E+03  0.7546771E-02  0.1194132E+00
         21   -1    0    0  501  502  0.00000000000E+00  0.00000000000E+00  0.37814683993E+03  0.37814683993E+03  0.00000000000E+00 0.  1.
         -1   -1    0    0    0  501 -0.00000000000E+00 -0.00000000000E+00 -0.58004782695E+02  0.58004782695E+02  0.00000000000E+00 0.  1.
         23    2    1    2    0    0  0.10212807024E+02  0.88103799773E+02  0.90093445395E+02  0.15084852094E+03  0.82291350728E+02 0.  0.
         24    2    1    2    0    0 -0.31366838792E+02 -0.10476233625E+03  0.21122282890E+03  0.25244872601E+03  0.84594622431E+02 0.  0.
        -11    1    4    4    0    0 -0.32304092256E+02 -0.67661966743E+02  0.20013010277E+03  0.21371418801E+03  0.00000000000E+00 0.  1.
         12    1    4    4    0    0  0.93725346375E+00 -0.37100369508E+02  0.11092726131E+02  0.38734538008E+02  0.00000000000E+00 0. -1.
        -11    1    3    3    0    0  0.42630620754E+02  0.72696871612E+02  0.70983259830E+02  0.11018542619E+03  0.00000000000E+00 0.  1.
         11    1    3    3    0    0 -0.32417813730E+02  0.15406928160E+02  0.19110185564E+02  0.40663094751E+02  0.00000000000E+00 0. -1.
         -2    1    1    2    0  502  0.21154031768E+02  0.16658536478E+02  0.18825782942E+02  0.32854375676E+02  0.00000000000E+00 0.  1.
<scales pt_clust_5="13000.00000" pt_clust_6="13000.00000" pt_clust_7="13000.00000" pt_clust_8="13000.00000" pt_clust_9="13000.00000"></scales>
<clustering>
<clus scale="   82.291">  7  8 -1 -1</clus>
<clus scale="   84.595">  5  6 -1 -1</clus>
<clus scale="   26.926">  5  9 -1 -1</clus>
<clus scale="  120.989">  2  7  1 -1</clus>
<clus scale="  168.747">  1  5  2 -1</clus>
</clustering>
</event>
<event>
 9    2  0.3726337E-005  0.1771998E+03  0.7546771E-02  0.1191045E+00
         -1   -1    0    0    0  501 -0.00000000000E+00  0.00000000000E+00  0.69861555920E+02  0.69861555920E+02  0.00000000000E+00 0.  1.
         21   -1    0    0  501  502  0.00000000000E+00 -0.00000000000E+00 -0.47787264129E+03  0.47787264129E+03  0.00000000000E+00 0.  1.
         23    2    1    2    0    0  0.74724313116E+01 -0.61627139024E+02 -0.10260681938E+02  0.11229746525E+03  0.93014502170E+02 0.  0.
         24    2    1    2    0    0 -0.22410951908E+02 -0.27598506262E+02 -0.17738990794E+03  0.19722858107E+03  0.78536650303E+02 0.  0.
        -11    1    4    4    0    0  0.10138331950E+01 -0.51885414261E+02 -0.11832051112E+03  0.12920088012E+03  0.00000000000E+00 0.  1.
         12    1    4    4    0    0 -0.23424785103E+02  0.24286907999E+02 -0.59069396814E+02  0.68027700955E+02  0.00000000000E+00 0. -1.
        -13    1    3    3    0    0 -0.24064554967E+02 -0.40037954137E+02 -0.41846533629E+02  0.62715811036E+02  0.00000000000E+00 0. -1.
         13    1    3    3    0    0  0.31536986278E+02 -0.21589184887E+02  0.31585851690E+02  0.49581654214E+02  0.00000000000E+00 0.  1.
         -2    1    1    2    0  502  0.14938520596E+02  0.89225645286E+02 -0.22036049549E+03  0.23820815088E+03  0.00000000000E+00 0.  1.
<scales pt_clust_5="13000.00000" pt_clust_6="13000.00000" pt_clust_7="13000.00000" pt_clust_8="13000.00000" pt_clust_9="13000.00000"></scales>
<clustering>
<clus scale="   78.537">  5  6 -1 -1</clus>
<clus scale="   90.468">  5  9 -1 -1</clus>
<clus scale="   93.015">  7  8 -1 -1</clus>
<clus scale="  111.828">  1  7  2 -1</clus>
<clus scale="  177.200">  2  5  1 -1</clus>
</clustering>
</event>
<event>
 9    2  0.3726337E-005  0.2217022E+03  0.7546771E-02  0.1163747E+00
         21   -1    0    0  501  502  0.00000000000E+00  0.00000000000E+00  0.24415523491E+03  0.24415523491E+03  0.00000000000E+00 0. -1.
          2   -1    0    0  502    0 -0.00000000000E+00 -0.00000000000E+00 -0.19454294225E+03  0.19454294225E+03  0.00000000000E+00 0. -1.
         23    2    1    2    0    0  0.14779712877E+02 -0.60333429816E+02  0.15939990673E+03  0.19130132196E+03  0.85611347698E+02 0.  0.
         24    2    1    2    0    0 -0.66014315384E+02  0.29442932709E+02  0.13489581236E+02  0.11036957986E+03  0.82308561128E+02 0.  0.
        -11    1    4    4    0    0 -0.20056870326E+02 -0.28346976950E+02 -0.25251327732E+01  0.34816740873E+02  0.00000000000E+00 0.  1.
         12    1    4    4    0    0 -0.45957445058E+02  0.57789909659E+02  0.16014714009E+02  0.75552838990E+02  0.00000000000E+00 0. -1.
        -13    1    3    3    0    0  0.13339301134E+02  0.15203569810E+02  0.73572895820E+01  0.21522434800E+02  0.00000000000E+00 0.  1.
         13    1    3    3    0    0  0.14404117424E+01 -0.75536999626E+02  0.15204261714E+03  0.16977888716E+03  0.00000000000E+00 0. -1.
          1    1    1    2  501    0  0.51234602507E+02  0.30890497107E+02 -0.12327719530E+03  0.13702727534E+03  0.00000000000E+00 0. -1.
<scales pt_clust_5="13000.00000" pt_clust_6="13000.00000" pt_clust_7="13000.00000" pt_clust_8="13000.00000" pt_clust_9="13000.00000"></scales>
<clustering>
<clus scale="   82.309">  5  6 -1 -1</clus>
<clus scale="   59.827">  5  9 -1 -1</clus>
<clus scale="   85.611">  7  8 -1 -1</clus>
<clus scale="  105.773">  2  7  1 -1</clus>
<clus scale="  221.702">  1  5  2 -1</clus>
</clustering>
</event>
<event>
 9    2  0.3726337E-005  0.1056413E+03  0.7546771E-02  0.1276207E+00
         21   -1    0    0  501  502  0.00000000000E+00  0.00000000000E+00  0.17585015472E+02  0.17585015472E+02  0.00000000000E+00 0.  1.
         -3   -1    0    0    0  501 -0.00000000000E+00 -0.00000000000E+00 -0.55830869680E+03  0.55830869680E+03  0.00000000000E+00 0.  1.
         23    2    1    2    0    0  0.84343324737E+00  0.73115666871E+01 -0.27760649687E+03  0.29236109119E+03  0.91408260827E+02 0.  0.
         24    2    1    2    0    0  0.13232648928E+01  0.13235912652E+02 -0.19606614368E+03  0.21337041219E+03  0.83114738082E+02 0.  0.
        -11    1    4    4    0    0  0.29917548493E+02  0.11581256033E+02 -0.27103929032E+02  0.41997716225E+02  0.00000000000E+00 0.  1.
         12    1    4    4    0    0 -0.28594283600E+02  0.16546566188E+01 -0.16896221465E+03  0.17137269597E+03  0.00000000000E+00 0. -1.
        -11    1    3    3    0    0  0.26659171702E+02  0.38683496649E+02 -0.10489229925E+03  0.11493267068E+03  0.00000000000E+00 0.  1.
         11    1    3    3    0    0 -0.25815738455E+02 -0.31371929962E+02 -0.17271419763E+03  0.17742842051E+03  0.00000000000E+00 0. -1.
         -4    1    1    2    0  502 -0.21666981402E+01 -0.20547479339E+02 -0.67051040773E+02  0.70162208893E+02  0.00000000000E+00 0.  1.
<scales pt_clust_5="13000.00000" pt_clust_6="13000.00000" pt_clust_7="13000.00000" pt_clust_8="13000.00000" pt_clust_9="13000.00000"></scales>
<clustering>
<clus scale="   83.115">  5  6 -1 -1</clus>
<clus scale="   20.661">  5  9 -1 -1</clus>
<clus scale="   91.408">  7  8 -1 -1</clus>
<clus scale="   91.704">  2  7  1 -1</clus>
<clus scale="  105.641">  1  5  2 -1</clus>
</clustering>
</event>
<event>
 9    2  0.3726337E-005  0.6225602E+03  0.7546771E-02  0.1016205E+00
         21   -1    0    0  501  502  0.00000000000E+00  0.00000000000E+00  0.30480191160E+03  0.30480191160E+03  0.00000000000E+00 0. -1.
          2   -1    0    0  502    0 -0.00000000000E+00 -0.00000000000E+00 -0.61128226990E+03  0.61128226990E+03  0.00000000000E+00 0. -1.
         23    2    1    2    0    0 -0.59298298032E+02  0.21337741211E+03 -0.75843190563E+02  0.25217555120E+03  0.93776921037E+02 0.  0.
         24    2    1    2    0    0  0.14255679649E+03  0.16601479393E+03 -0.10857264004E+03  0.25675979695E+03  0.79083646454E+02 0.  0.
        -13    1    4    4    0    0  0.35989565759E+02  0.38462912600E+02 -0.67369851494E+02  0.85518076332E+02  0.00000000000E+00 0.  1.
         14    1    4    4    0    0  0.10656723073E+03  0.12755188133E+03 -0.41202788541E+02  0.17124172062E+03  0.00000000000E+00 0. -1.
        -11    1    3    3    0    0  0.23288051273E+02  0.70526303588E+02 -0.11928778720E+02  0.75223590658E+02  0.00000000000E+00 0.  1.
         11    1    3    3    0    0 -0.82586349305E+02  0.14285110853E+03 -0.63914411843E+02  0.17695196054E+03  0.00000000000E+00 0. -1.
          1    1    1    2  501    0 -0.83258498456E+02 -0.37939220605E+03 -0.12206452770E+03  0.40714883335E+03  0.00000000000E+00 0. -1.
<scales pt_clust_5="13000.00000" pt_clust_6="13000.00000" pt_clust_7="13000.00000" pt_clust_8="13000.00000" pt_clust_9="13000.00000"></scales>
<clustering>
<clus scale="   79.084">  5  6 -1 -1</clus>
<clus scale="   93.777">  7  8 -1 -1</clus>
<clus scale="  240.500">  2  7  1 -1</clus>
<clus scale="  279.452">  5  9 -1 -1</clus>
<clus scale="  622.560">  1  5  2 -1</clus>
</clustering>
</event>
<event>
 9    2  0.3726337E-005  0.2209378E+03  0.7546771E-02  0.1160302E+00
         21   -1    0    0  501  502  0.00000000000E+00  0.00000000000E+00  0.39634639388E+03  0.39634639388E+03  0.00000000000E+00 0. -1.
         -3   -1    0    0    0  501 -0.00000000000E+00 -0.00000000000E+00 -0.10869651438E+03  0.10869651438E+03  0.00000000000E+00 0.  1.
         23    2    1    2    0    0  0.35393678313E+02  0.61259972111E+02 -0.28615062691E+02  0.11924891036E+03  0.91629603083E+02 0.  0.
         24    2    1    2    0    0 -0.25271246452E+02  0.86580543403E+01  0.30184706348E+03  0.31369081298E+03  0.81096723806E+02 0.  0.
        -11    1    4    4    0    0 -0.26073313154E+02 -0.33621317410E+02  0.13361264655E+03  0.14022321478E+03  0.00000000000E+00 0.  1.
         12    1    4    4    0    0  0.80206670214E+00  0.42279371751E+02  0.16823441693E+03  0.17346759820E+03  0.00000000000E+00 0. -1.
        -11    1    3    3    0    0 -0.19240583313E+02  0.39619112704E+02 -0.39878262814E+02  0.59415065284E+02  0.00000000000E+00 0. -1.
         11    1    3    3    0    0  0.54634261626E+02  0.21640859407E+02  0.11263200122E+02  0.59833845073E+02  0.00000000000E+00 0.  1.
         -4    1    1    2    0  502 -0.10122431861E+02 -0.69918026451E+02  0.14417878712E+02  0.72103184924E+02  0.00000000000E+00 0.  1.
<scales pt_clust_5="13000.00000" pt_clust_6="13000.00000" pt_clust_7="13000.00000" pt_clust_8="13000.00000" pt_clust_9="13000.00000"></scales>
<clustering>
<clus scale="   81.097">  5  6 -1 -1</clus>
<clus scale="   70.647">  5  9 -1 -1</clus>
<clus scale="   91.630">  7  8 -1 -1</clus>
<clus scale="  115.765">  2  7  1 -1</clus>
<clus scale="  220.938">  1  5  2 -1</clus>
</clustering>
</event>
<event>
 9    2  0.3726337E-005  0.2673860E+03  0.7546771E-02  0.1113197E+00
         -1   -1    0    0    0  501 -0.00000000000E+00  0.00000000000E+00  0.46644028417E+03  0.46644028417E+03  0.00000000000E+00 0.  1.
         21   -1    0    0  501  502  0.00000000000E+00 -0.00000000000E+00 -0.14075987639E+03  0.14075987639E+03  0.00000000000E+00 0.  1.
         23    2    1    2    0    0  0.18305724052E+03  0.30176836203E+01  0.26151495972E+03  0.33222295565E+03  0.91994338849E+02 0.  0.
         24    2    1    2    0    0 -0.10717838558E+02 -0.94237366292E+01  0.60265077003E+02  0.10247468354E+03  0.81642528048E+02 0.  0.
        -13    1    4    4    0    0 -0.25851976485E+02  0.22506508572E+02  0.57615256164E+02  0.67040177201E+02  0.00000000000E+00 0.  1.
         14    1    4    4    0    0  0.15134137926E+02 -0.31930245201E+02  0.26498208388E+01  0.35434506344E+02  0.00000000000E+00 0. -1.
        -11    1    3    3    0    0  0.36954994919E+02  0.18494568497E+02  0.12634646638E+02  0.43212903270E+02  0.00000000000E+00 0. -1.
         11    1    3    3    0    0  0.14610224560E+03 -0.15476884876E+02  0.24888031308E+03  0.28901005238E+03  0.00000000000E+00 0.  1.
         -2    1    1    2    0  502 -0.17233940196E+03  0.64060530089E+01  0.39003710579E+01  0.17250252137E+03  0.00000000000E+00 0.  1.
<scales pt_clust_5="13000.00000" pt_clust_6="13000.00000" pt_clust_7="13000.00000" pt_clust_8="13000.00000" pt_clust_9="13000.00000"></scales>
<clustering>
<clus scale="   81.643">  5  6 -1 -1</clus>
<clus scale="   91.994">  7  8 -1 -1</clus>
<clus scale="  172.459">  5  9 -1 -1</clus>
<clus scale="  204.895">  1  7  2 -1</clus>
<clus scale="  267.386">  2  5  1 -1</clus>
</clustering>
</event>
<event>
 9    2  0.3726337E-005  0.2335880E+03  0.7546771E-02  0.1154484E+00
         21   -1    0    0  501  502  0.00000000000E+00  0.00000000000E+00  0.30761603988E+03  0.30761603988E+03  0.00000000000E+00 0. -1.
          2   -1    0    0  502    0 -0.00000000000E+00 -0.00000000000E+00 -0.13573112941E+03  0.13573112941E+03  0.00000000000E+00 0. -1.
         23    2    1    2    0    0  0.27379597536E+02 -0.61990707072E+02 -0.48444397454E+02  0.12224226853E+03  0.89464084677E+02 0.  0.
         24    2    1    2    0    0  0.40711528531E+02  0.68156438764E+02  0.22593471702E+03  0.25250578773E+03  0.80062149493E+02 0.  0.
        -13    1    4    4    0    0  0.48635789674E+02  0.11551917909E+02  0.66910521046E+02  0.83521881392E+02  0.00000000000E+00 0.  1.
         14    1    4    4    0    0 -0.79242611426E+01  0.56604520855E+02  0.15902419598E+03  0.16898390634E+03  0.00000000000E+00 0. -1.
        -11    1    3    3    0    0 -0.79349075514E+01  0.20740671837E+02 -0.11371373763E+02  0.24948875072E+02  0.00000000000E+00 0.  1.
         11    1    3    3    0    0  0.35314505087E+02 -0.82731378909E+02 -0.37073023691E+02  0.97293393462E+02  0.00000000000E+00 0. -1.
          1    1    1    2  501    0 -0.68091126067E+02 -0.61657316925E+01 -0.56054091019E+01  0.68599113023E+02  0.00000000000E+00 0. -1.
<scales pt_clust_5="13000.00000" pt_clust_6="13000.00000" pt_clust_7="13000.00000" pt_clust_8="13000.00000" pt_clust_9="13000.00000"></scales>
<clustering>
<clus scale="   80.062">  5  6 -1 -1</clus>
<clus scale="   68.370">  5  9 -1 -1</clus>
<clus scale="   89.464">  7  8 -1 -1</clus>
<clus scale="  112.233">  2  7  1 -1</clus>
<clus scale="  233.588">  1  5  2 -1</clus>
</clustering>
</event>
<event>
 9    2  0.3726337E-005  0.2081698E+03  0.7546771E-02  0.1154173E+00
          2   -1    0    0  502    0 -0.00000000000E+00  0.00000000000E+00  0.45703093554E+03  0.45703093554E+03  0.00000000000E+00 0. -1.
         21   -1    0    0  501  502  0.00000000000E+00 -0.00000000000E+00 -0.84466816180E+02  0.84466816180E+02  0.00000000000E+00 0. -1.
         23    2    1    2    0    0 -0.35893250905E+02  0.12629077755E+03  0.25918614934E+03  0.30445510150E+03  0.90982211808E+02 0.  0.
         24    2    1    2    0    0  0.20149062540E+02 -0.70462996152E+02 -0.98295199113E+00  0.10881222822E+03  0.80424599893E+02 0.  0.
        -13    1    4    4    0    0  0.17703630330E+02 -0.14244412440E+02  0.35210428663E+02  0.41905800306E+02  0.00000000000E+00 0.  1.
         14    1    4    4    0    0  0.24454322103E+01 -0.56218583712E+02 -0.36193380654E+02  0.66906427916E+02  0.00000000000E+00 0. -1.
        -11    1    3    3    0    0 -0.18094090424E+02  0.34185020024E+02  0.12682371381E+02  0.40704474523E+02  0.00000000000E+00 0.  1.
         11    1    3    3    0    0 -0.17799160481E+02  0.92105757523E+02  0.24650377796E+03  0.26375062698E+03  0.00000000000E+00 0. -1.
          1    1    1    2  501    0  0.15744188365E+02 -0.55827781395E+02  0.11436092201E+03  0.12823042199E+03  0.00000000000E+00 0. -1.
<scales pt_clust_5="13000.00000" pt_clust_6="13000.00000" pt_clust_7="13000.00000" pt_clust_8="13000.00000" pt_clust_9="13000.00000"></scales>
<clustering>
<clus scale="   80.425">  5  6 -1 -1</clus>
<clus scale="   58.005">  5  9 -1 -1</clus>
<clus scale="   90.982">  7  8 -1 -1</clus>
<clus scale="  159.736">  1  7  2 -1</clus>
<clus scale="  208.170">  2  5  1 -1</clus>
</clustering>
</event>
<event>
 9    2  0.3726337E-005  0.3962510E+03  0.7546771E-02  0.1062461E+00
         21   -1    0    0  501  502  0.00000000000E+00  0.00000000000E+00  0.77485806081E+03  0.77485806081E+03  0.00000000000E+00 0. -1.
          2   -1    0    0  502    0 -0.00000000000E+00 -0.00000000000E+00 -0.13170150195E+03  0.13170150195E+03  0.00000000000E+00 0. -1.
         23    2    1    2    0    0  0.28688464919E+02 -0.22788062635E+03  0.22807509929E+03  0.33270637842E+03  0.76958920500E+02 0.  0.
         24    2    1    2    0    0  0.54214699869E+02 -0.73069359674E+01  0.26638211800E+03  0.28351266291E+03  0.80170893999E+02 0.  0.
        -11    1    4    4    0    0  0.52578750728E+02  0.50667999729E+01  0.75057772290E+02  0.91781624911E+02  0.00000000000E+00 0.  1.
         12    1    4    4    0    0  0.16359491414E+01 -0.12373735940E+02  0.19132434571E+03  0.19173103800E+03  0.00000000000E+00 0. -1.
        -11    1    3    3    0    0  0.44639835404E+02 -0.19516491897E+03  0.16310186006E+03  0.25823299026E+03  0.00000000000E+00 0. -1.
         11    1    3    3    0    0 -0.15951370486E+02 -0.32715707380E+02  0.64973239224E+02  0.74473388166E+02  0.00000000000E+00 0.  1.
          1    1    1    2  501    0 -0.82903164788E+02  0.23518756232E+03  0.14869934157E+03  0.29034052143E+03  0.00000000000E+00 0. -1.
<scales pt_clust_5="13000.00000" pt_clust_6="13000.00000" pt_clust_7="13000.00000" pt_clust_8="13000.00000" pt_clust_9="13000.00000"></scales>
<clustering>
<clus scale="   76.959">  7  8 -1 -1</clus>
<clus scale="   80.171">  5  6 -1 -1</clus>
<clus scale="  242.230">  2  7  1 -1</clus>
<clus scale="   65.587">  5  9 -1 -1</clus>
<clus scale="  396.251">  1  5  2 -1</clus>
</clustering>
</event>
<event>
 9    2  0.3726337E-005  0.2309197E+03  0.7546771E-02  0.1162648E+00
          4   -1    0    0  502    0 -0.00000000000E+00  0.00000000000E+00  0.56227315056E+02  0.56227315056E+02  0.00000000000E+00 0. -1.
         21   -1    0    0  501  502  0.00000000000E+00 -0.00000000000E+00 -0.47530556881E+03  0.47530556881E+03  0.00000000000E+00 0. -1.
         23    2    1    2    0    0  0.15658103377E+02  0.16035925788E+02 -0.12035565951E+03  0.15396290102E+03  0.93363606375E+02 0.  0.
         24    2    1    2    0    0 -0.75621730517E+02 -0.83631833326E+02 -0.21896333516E+03  0.25704453863E+03  0.73580044995E+02 0.  0.
        -11    1    4    4    0    0  0.68478259366E+01 -0.18945534291E+02 -0.83784780812E+01  0.21817994513E+02  0.00000000000E+00 0.  1.
         12    1    4    4    0    0 -0.82469556454E+02 -0.64686299035E+02 -0.21058485708E+03  0.23522654411E+03  0.00000000000E+00 0. -1.
        -11    1    3    3    0    0 -0.27076732081E+02  0.36522224759E+02 -0.78593196015E+02  0.90795995404E+02  0.00000000000E+00 0.  1.
         11    1    3    3    0    0  0.42734835458E+02 -0.20486298972E+02 -0.41762463498E+02  0.63166905612E+02  0.00000000000E+00 0. -1.
          3    1    1    2  501    0  0.59963627141E+02  0.67595907538E+02 -0.79759259079E+02  0.12052544422E+03  0.00000000000E+00 0. -1.
<scales pt_clust_5="13000.00000" pt_clust_6="13000.00000" pt_clust_7="13000.00000" pt_clust_8="13000.00000" pt_clust_9="13000.00000"></scales>
<clustering>
<clus scale="   73.580">  5  6 -1 -1</clus>
<clus scale="   90.360">  5  9 -1 -1</clus>
<clus scale="   93.364">  7  8 -1 -1</clus>
<clus scale="   96.016">  1  7  2 -1</clus>
<clus scale="  230.920">  2  5  1 -1</clus>
</clustering>
</event>
<event>
 9    2  0.3726337E-005  0.2334762E+03  0.7546771E-02  0.1162088E+00
         -3   -1    0    0    0  501 -0.00000000000E+00  0.00000000000E+00  0.66635144424E+02  0.66635144424E+02  0.00000000000E+00 0.  1.
         21   -1    0    0  501  502  0.00000000000E+00 -0.00000000000E+00 -0.40545031513E+03  0.40545031513E+03  0.00000000000E+00 0. -1.
         23    2    1    2    0    0  0.42037548595E+01  0.13252392429E+02 -0.79956501521E+02  0.12348977245E+03  0.93077302835E+02 0.  0.
         24    2    1    2    0    0  0.78100365609E+02  0.42353432881E+02 -0.19847684039E+03  0.23235481089E+03  0.81867097110E+02 0.  0.
        -13    1    4    4    0    0 -0.15115239627E+01  0.41086856943E+02 -0.63720704267E+02  0.75833651307E+02  0.00000000000E+00 0.  1.
         14    1    4    4    0    0  0.79611889572E+02  0.12665759373E+01 -0.13475613612E+03  0.15652115959E+03  0.00000000000E+00 0. -1.
        -11    1    3    3    0    0 -0.28555446081E+01 -0.28163981046E+02 -0.76223667361E+02  0.81310586207E+02  0.00000000000E+00 0. -1.
         11    1    3    3    0    0  0.70592994676E+01  0.41416373475E+02 -0.37328341596E+01  0.42179186238E+02  0.00000000000E+00 0.  1.
         -4    1    1    2    0  502 -0.82304120468E+02 -0.55605825310E+02 -0.60381828796E+02  0.11624087621E+03  0.00000000000E+00 0.  1.
<scales pt_clust_5="13000.00000" pt_clust_6="13000.00000" pt_clust_7="13000.00000" pt_clust_8="13000.00000" pt_clust_9="13000.00000"></scales>
<clustering>
<clus scale="   81.867">  5  6 -1 -1</clus>
<clus scale="   93.077">  7  8 -1 -1</clus>
<clus scale="   94.110">  1  7  2 -1</clus>
<clus scale="   92.697">  5  9 -1 -1</clus>
<clus scale="  233.476">  2  5  1 -1</clus>
</clustering>
</event>
<event>
 9    2  0.3726337E-005  0.3091395E+03  0.7546771E-02  0.1122722E+00
          2   -1    0    0  502    0 -0.00000000000E+00  0.00000000000E+00  0.48160013205E+03  0.48160013205E+03  0.00000000000E+00 0. -1.
         21   -1    0    0  501  502  0.00000000000E+00 -0.00000000000E+00 -0.32960540884E+03  0.32960540884E+03  0.00000000000E+00 0. -1.
         23    2    1    2    0    0 -0.10582815103E+02  0.49389063209E+02  0.40093107693E+03  0.41429683382E+03  0.91350219066E+02 0.  0.
         24    2    1    2    0    0  0.67761319801E+02  0.54874145181E+00  0.29325908393E+02  0.10847664879E+03  0.79468716173E+02 0.  0.
        -11    1    4    4    0    0  0.30796833471E+02  0.29427588162E+02 -0.13780867484E+02  0.44769858225E+02  0.00000000000E+00 0.  1.
         12    1    4    4    0    0  0.36964486330E+02 -0.28878846711E+02  0.43106775877E+02  0.63706790561E+02  0.00000000000E+00 0. -1.
        -13    1    3    3    0    0 -0.32722682328E+02 -0.93394686207E+01  0.74737736889E+02  0.82120210229E+02  0.00000000000E+00 0.  1.
         13    1    3    3    0    0  0.22139867226E+02  0.58728531830E+02  0.32619334004E+03  0.33217662359E+03  0.00000000000E+00 0. -1.
          1    1    1    2  501    0 -0.57178504699E+02 -0.49937804661E+02 -0.27826226211E+03  0.28843205829E+03  0.00000000000E+00 0. -1.
<scales pt_clust_5="13000.00000" pt_clust_6="13000.00000" pt_clust_7="13000.00000" pt_clust_8="13000.00000" pt_clust_9="13000.00000"></scales>
<clustering>
<clus scale="   79.469">  5  6 -1 -1</clus>
<clus scale="   75.916">  5  9 -1 -1</clus>
<clus scale="   91.350">  7  8 -1 -1</clus>
<clus scale="  104.385">  1  7  2 -1</clus>
<clus scale="  309.139">  2  5  1 -1</clus>
</clustering>
</event>
<event>
 9    2  0.3726337E-005  0.3371073E+03  0.7546771E-02  0.1077324E+00
         21   -1    0    0  501  502  0.00000000000E+00  0.00000000000E+00  0.16760759376E+04  0.16760759376E+04  0.00000000000E+00 0.  1.
         -3   -1    0    0    0  501 -0.00000000000E+00 -0.00000000000E+00 -0.54134904930E+02  0.54134904930E+02  0.00000000000E+00 0.  1.
         23    2    1    2    0    0  0.32057606823E+02  0.24296504655E+03  0.61397568956E+03  0.66736773750E+03  0.91399374629E+02 0.  0.
         24    2    1    2    0    0  0.55118178386E+02 -0.36663696663E+02  0.44760805107E+03  0.45938626379E+03  0.79375888879E+02 0.  0.
        -11    1    4    4    0    0  0.33582012128E+02 -0.60453167577E+02  0.34555889985E+03  0.35241068411E+03  0.00000000000E+00 0.  1.
         12    1    4    4    0    0  0.21536166259E+02  0.23789470914E+02  0.10204915122E+03  0.10697557968E+03  0.00000000000E+00 0. -1.
        -13    1    3    3    0    0  0.51728191305E+02  0.21059514841E+03  0.45633594686E+03  0.50524114907E+03  0.00000000000E+00 0.  1.
         13    1    3    3    0    0 -0.19670584481E+02  0.32369898143E+02  0.15763974270E+03  0.16212658844E+03  0.00000000000E+00 0. -1.
         -4    1    1    2    0  502 -0.87175785210E+02 -0.20630134989E+03  0.56035729199E+03  0.60345684119E+03  0.00000000000E+00 0.  1.
<scales pt_clust_5="13000.00000" pt_clust_6="13000.00000" pt_clust_7="13000.00000" pt_clust_8="13000.00000" pt_clust_9="13000.00000"></scales>
<clustering>
<clus scale="   79.376">  5  6 -1 -1</clus>
<clus scale="   91.399">  7  8 -1 -1</clus>
<clus scale="  223.964">  5  9 -1 -1</clus>
<clus scale="  261.560">  2  7  1 -1</clus>
<clus scale="  337.107">  1  5  2 -1</clus>
</clustering>
</event>
<event>
 9    2  0.3726337E-005  0.1826881E+03  0.7546771E-02  0.1170297E+00
          2   -1    0    0  502    0 -0.00000000000E+00  0.00000000000E+00  0.13080559138E+03  0.13080559138E+03  0.00000000000E+00 0. -1.
         21   -1    0    0  501  502  0.00000000000E+00 -0.00000000000E+00 -0.25772337304E+03  0.25772337304E+03  0.00000000000E+00 0. -1.
         23    2    1    2    0    0 -0.50075941745E+02 -0.12415100023E+03  0.58168730597E+01  0.16271167500E+03  0.92304833948E+02 0.  0.
         24    2    1    2    0    0  0.52044800530E+01  0.92085787528E+02 -0.11520800490E+03  0.16794839109E+03  0.80167941222E+02 0.  0.
        -13    1    4    4    0    0 -0.18628923499E+02  0.47452382969E+02 -0.11066076602E+02  0.52165347613E+02  0.00000000000E+00 0.  1.
         14    1    4    4    0    0  0.23833403552E+02  0.44633404559E+02 -0.10414192830E+03  0.11578304348E+03  0.00000000000E+00 0. -1.
        -11    1    3    3    0    0 -0.34573557831E+02 -0.17583361358E+01 -0.14766133142E+02  0.37635904865E+02  0.00000000000E+00 0. -1.
         11    1    3    3    0    0 -0.15502383915E+02 -0.12239266410E+03  0.20583006202E+02  0.12507577014E+03  0.00000000000E+00 0.  1.
          1    1    1    2  501    0  0.44871461692E+02  0.32065212703E+02 -0.17526649815E+02  0.57868898329E+02  0.00000000000E+00 0. -1.
<scales pt_clust_5="13000.00000" pt_clust_6="13000.00000" pt_clust_7="13000.00000" pt_clust_8="13000.00000" pt_clust_9="13000.00000"></scales>
<clustering>
<clus scale="   80.168">  5  6 -1 -1</clus>
<clus scale="   55.151">  5  9 -1 -1</clus>
<clus scale="   92.305">  7  8 -1 -1</clus>
<clus scale="  162.608">  1  7  2 -1</clus>
<clus scale="  182.688">  2  5  1 -1</clus>
</clustering>
</event>
<event>
 9    2  0.3726337E-005  0.2104017E+03  0.7546771E-02  0.1172251E+00
         -1   -1    0    0    0  501 -0.00000000000E+00  0.00000000000E+00  0.13466744060E+03  0.13466744060E+03  0.00000000000E+00 0.  1.
         21   -1    0    0  501  502  0.00000000000E+00 -0.00000000000E+00 -0.20643738276E+03  0.20643738276E+03  0.00000000000E+00 0.  1.
         23    2    1    2    0    0  0.44838831874E+02 -0.36118233380E+01  0.31718581294E+02  0.10662935440E+03  0.91324611738E+02 0.  0.
         24    2    1    2    0    0 -0.61949109576E+02 -0.55844989879E+02 -0.47251726344E+01  0.11793331476E+03  0.83244125329E+02 0.  0.
        -13    1    4    4    0    0 -0.36219618475E+02 -0.31243384967E+02 -0.43953287916E+02  0.64960768048E+02  0.00000000000E+00 0.  1.
         14    1    4    4    0    0 -0.25729491101E+02 -0.24601604911E+02  0.39228115282E+02  0.52972546711E+02  0.00000000000E+00 0. -1.
        -13    1    3    3    0    0  0.46387728628E+02  0.28428783868E+02 -0.86267458789E+01  0.55085731945E+02  0.00000000000E+00 0. -1.
         13    1    3    3    0    0 -0.15488967538E+01 -0.32040607206E+02  0.40345327172E+02  0.51543622456E+02  0.00000000000E+00 0.  1.
         -2    1    1    2    0  502  0.17110277702E+02  0.59456813217E+02 -0.98763350814E+02  0.11654215420E+03  0.00000000000E+00 0.  1.
<scales pt_clust_5="13000.00000" pt_clust_6="13000.00000" pt_clust_7="13000.00000" pt_clust_8="13000.00000" pt_clust_9="13000.00000"></scales>
<clustering>
<clus scale="   83.244">  5  6 -1 -1</clus>
<clus scale="   61.870">  5  9 -1 -1</clus>
<clus scale="   91.325">  7  8 -1 -1</clus>
<clus scale="  101.803">  1  7  2 -1</clus>
<clus scale="  210.402">  2  5  1 -1</clus>
</clustering>
</event>
<event>
 9    2  0.3726337E-005  0.1307599E+03  0.7546771E-02  0.1243433E+00
         -3   -1    0    0    0  501 -0.00000000000E+00  0.00000000000E+00  0.16733369426E+03  0.16733369426E+03  0.00000000000E+00 0.  1.
         21   -1    0    0  501  502  0.00000000000E+00 -0.00000000000E+00 -0.36453036954E+03  0.36453036954E+03  0.00000000000E+00 0.  1.
         23    2    1    2    0    0  0.57655315058E+01 -0.24350488149E+02  0.14147679523E+03  0.16882430225E+03  0.88655365405E+02 0.  0.
         24    2    1    2    0    0  0.20416036751E+02 -0.55827188546E+01 -0.16630760379E+03  0.18614582890E+03  0.80895421584E+02 0.  0.
        -13    1    4    4    0    0  0.25365710587E+02 -0.37726726181E+02 -0.12833557149E+03  0.13614971190E+03  0.00000000000E+00 0.  1.
         14    1    4    4    0    0 -0.49496738361E+01  0.32144007326E+02 -0.37972032302E+02  0.49996117001E+02  0.00000000000E+00 0. -1.
        -13    1    3    3    0    0 -0.21096422146E+02  0.60394049977E+01  0.30984228149E+00  0.21946057557E+02  0.00000000000E+00 0. -1.
         13    1    3    3    0    0  0.26861953651E+02 -0.30389893147E+02  0.14116695295E+03  0.14687824469E+03  0.00000000000E+00 0.  1.
         -4    1    1    2    0  502 -0.26181568257E+02  0.29933207003E+02 -0.17236586672E+03  0.17689393265E+03  0.00000000000E+00 0.  1.
<scales pt_clust_5="13000.00000" pt_clust_6="13000.00000" pt_clust_7="13000.00000" pt_clust_8="13000.00000" pt_clust_9="13000.00000"></scales>
<clustering>
<clus scale="   80.895">  5  6 -1 -1</clus>
<clus scale="   39.768">  5  9 -1 -1</clus>
<clus scale="   88.655">  7  8 -1 -1</clus>
<clus scale="   92.119">  1  7  2 -1</clus>
<clus scale="  130.760">  2  5  1 -1</clus>
</clustering>
</event>
<event>
 9    2  0.3726337E-005  0.1788913E+03  0.7546771E-02  0.1181835E+00
         21   -1    0    0  501  502  0.00000000000E+00  0.00000000000E+00  0.24468172599E+03  0.24468172599E+03  0.00000000000E+00 0.  1.
         -3   -1    0    0    0  501 -0.00000000000E+00 -0.00000000000E+00 -0.17361843347E+03  0.17361843347E+03  0.00000000000E+00 0.  1.
         23    2    1    2    0    0 -0.56363984507E+02 -0.67764047737E+02 -0.10313628088E+03  0.16860516413E+03  0.10010866106E+03 0.  0.
         24    2    1    2    0    0  0.34118730660E+02 -0.75179631043E+01  0.26073787821E+02  0.82054067064E+02  0.69515609465E+02 0.  0.
        -11    1    4    4    0    0  0.10711528768E+02 -0.33055479391E+02  0.31607803734E+02  0.46972915848E+02  0.00000000000E+00 0.  1.
         12    1    4    4    0    0  0.23407201892E+02  0.25537516287E+02 -0.55340159137E+01  0.35081151216E+02  0.00000000000E+00 0. -1.
        -11    1    3    3    0    0 -0.38201313425E+02 -0.89123336585E+02 -0.10171973253E+03  0.14053189481E+03  0.00000000000E+00 0.  1.
         11    1    3    3    0    0 -0.18162671082E+02  0.21359288849E+02 -0.14165483499E+01  0.28073269318E+02  0.00000000000E+00 0. -1.
         -4    1    1    2    0  502  0.22245253847E+02  0.75282010841E+02  0.14812578559E+03  0.16764092827E+03  0.00000000000E+00 0.  1.
<scales pt_clust_5="13000.00000" pt_clust_6="13000.00000" pt_clust_7="13000.00000" pt_clust_8="13000.00000" pt_clust_9="13000.00000"></scales>
<clustering>
<clus scale="   69.516">  5  6 -1 -1</clus>
<clus scale="   78.500">  5  9 -1 -1</clus>
<clus scale="  100.109">  7  8 -1 -1</clus>
<clus scale="  133.381">  2  7  1 -1</clus>
<clus scale="  178.891">  1  5  2 -1</clus>
</clustering>
</event>
<event>
 9    2  0.3726337E-005  0.2860226E+03  0.7546771E-02  0.1128750E+00
         21   -1    0    0  501  502  0.00000000000E+00  0.00000000000E+00  0.32626515384E+02  0.32626515384E+02  0.00000000000E+00 0. -1.
          2   -1    0    0  502    0 -0.00000000000E+00 -0.00000000000E+00 -0.12679761081E+04  0.12679761081E+04  0.00000000000E+00 0. -1.
         23    2    1    2    0    0  0.39325526583E+02  0.56612997471E+02 -0.47103091403E+03  0.48451931642E+03  0.90207081124E+02 0.  0.
         24    2    1    2    0    0  0.90433252464E+02  0.26980401375E+02 -0.43388331753E+03  0.45137421071E+03  0.81103820188E+02 0.  0.
        -13    1    4    4    0    0  0.30675464837E+02 -0.29241614892E+02 -0.14995451355E+03  0.15582814995E+03  0.00000000000E+00 0.  1.
         14    1    4    4    0    0  0.59757787626E+02  0.56222016267E+02 -0.28392880399E+03  0.29554606076E+03  0.00000000000E+00 0. -1.
        -13    1    3    3    0    0  0.37447538195E+02  0.79342297664E+02 -0.41195079194E+03  0.42118994919E+03  0.00000000000E+00 0. -1.
         13    1    3    3    0    0  0.18779883878E+01 -0.22729300193E+02 -0.59080122093E+02  0.63329367233E+02  0.00000000000E+00 0.  1.
          1    1    1    2  501    0 -0.12975877905E+03 -0.83593398846E+02 -0.33043536120E+03  0.36470909641E+03  0.00000000000E+00 0. -1.
<scales pt_clust_5="13000.00000" pt_clust_6="13000.00000" pt_clust_7="13000.00000" pt_clust_8="13000.00000" pt_clust_9="13000.00000"></scales>
<clustering>
<clus scale="   81.104">  5  6 -1 -1</clus>
<clus scale="   90.207">  7  8 -1 -1</clus>
<clus scale="  113.529">  2  7  1 -1</clus>
<clus scale="  126.856">  5  9 -1 -1</clus>
<clus scale="  286.023">  1  5  2 -1</clus>
</clustering>
</event>
<event>
 9    2  0.3726337E-005  0.5443364E+03  0.7546771E-02  0.1050261E+00
          2   -1    0    0  502    0 -0.00000000000E+00  0.00000000000E+00  0.11316218335E+04  0.11316218335E+04  0.00000000000E+00 0. -1.
         21   -1    0    0  501  502  0.00000000000E+00 -0.00000000000E+00 -0.12662527724E+03  0.12662527724E+03  0.00000000000E+00 0. -1.
         23    2    1    2    0    0 -0.71355468761E+02 -0.64449564819E+02  0.49529843548E+03  0.51252978609E+03  0.90115992541E+02 0.  0.
         24    2    1    2    0    0 -0.15384093157E+02 -0.99068099524E+02  0.54274727418E+03  0.55769066510E+03  0.79956961173E+02 0.  0.
        -11    1    4    4    0    0 -0.32067130557E+02 -0.82200591249E+02  0.27305483042E+03  0.28695675367E+03  0.00000000000E+00 0.  1.
         12    1    4    4    0    0  0.16683037399E+02 -0.16867508275E+02  0.26969244376E+03  0.27073391142E+03  0.00000000000E+00 0. -1.
        -11    1    3    3    0    0  0.19677631374E+02 -0.25346449521E+02  0.14367694386E+03  0.14721656115E+03  0.00000000000E+00 0.  1.
         11    1    3    3    0    0 -0.91033100135E+02 -0.39103115298E+02  0.35162149162E+03  0.36531322494E+03  0.00000000000E+00 0. -1.
          1    1    1    2  501    0  0.86739561918E+02  0.16351766434E+03 -0.33049153428E+02  0.18802665954E+03  0.00000000000E+00 0. -1.
<scales pt_clust_5="13000.00000" pt_clust_6="13000.00000" pt_clust_7="13000.00000" pt_clust_8="13000.00000" pt_clust_9="13000.00000"></scales>
<clustering>
<clus scale="   79.957">  5  6 -1 -1</clus>
<clus scale="   90.116">  7  8 -1 -1</clus>
<clus scale="  131.781">  1  7  2 -1</clus>
<clus scale="  173.990">  5  9 -1 -1</clus>
<clus scale="  544.336">  2  5  1 -1</clus>
</clustering>
</event>
<event>
 9    2  0.3726337E-005  0.2574124E+03  0.7546771E-02  0.1135820E+00
         21   -1    0    0  501  502  0.00000000000E+00  0.00000000000E+00  0.47229494582E+02  0.47229494582E+02  0.00000000000E+00 0. -1.
          2   -1    0    0  502    0 -0.00000000000E+00 -0.00000000000E+00 -0.10529206481E+04  0.10529206481E+04  0.00000000000E+00 0. -1.
         23    2    1    2    0    0 -0.28254985248E+02  0.89216075912E+02 -0.63797552887E+03  0.65128947349E+03  0.91691605102E+02 0.  0.
         24    2    1    2    0    0  0.90147360388E+02 -0.40920270333E+02 -0.80774088838E+02  0.15137353349E+03  0.81169440705E+02 0.  0.
        -11    1    4    4    0    0  0.26472928260E+02  0.17035328436E+02 -0.51637303760E+02  0.60476685468E+02  0.00000000000E+00 0.  1.
         12    1    4    4    0    0  0.63674432127E+02 -0.57955598769E+02 -0.29136785078E+02  0.90896848021E+02  0.00000000000E+00 0. -1.
        -13    1    3    3    0    0 -0.60095462804E+02  0.40944244959E+02 -0.32770566759E+03  0.33567677968E+03  0.00000000000E+00 0. -1.
         13    1    3    3    0    0  0.31840477556E+02  0.48271830953E+02 -0.31026986128E+03  0.31561269381E+03  0.00000000000E+00 0.  1.
          1    1    1    2  501    0 -0.61892375140E+02 -0.48295805579E+02 -0.28694153577E+03  0.29748713567E+03  0.00000000000E+00 0. -1.
<scales pt_clust_5="13000.00000" pt_clust_6="13000.00000" pt_clust_7="13000.00000" pt_clust_8="13000.00000" pt_clust_9="13000.00000"></scales>
<clustering>
<clus scale="   81.169">  5  6 -1 -1</clus>
<clus scale="   78.506">  5  9 -1 -1</clus>
<clus scale="   91.692">  7  8 -1 -1</clus>
<clus scale="  131.016">  2  7  1 -1</clus>
<clus scale="  257.412">  1  5  2 -1</clus>
</clustering>
</event>
<event>
 9    2  0.3726337E-005  0.3312336E+03  0.7546771E-02  0.1085171E+00
          4   -1    0    0  502    0 -0.00000000000E+00  0.00000000000E+00  0.29068772169E+03  0.29068772169E+03  0.00000000000E+00 0. -1.
         21   -1    0    0  501  502  0.00000000000E+00 -0.00000000000E+00 -0.29977099479E+03  0.29977099479E+03  0.00000000000E+00 0. -1.
         23    2    1    2    0    0  0.44993864507E+02 -0.19831432931E+03 -0.10336921576E+03  0.24606712569E+03  0.92254075918E+02 0.  0.
         24    2    1    2    0    0  0.13398524034E+01 -0.26088807905E+02  0.67192442462E+02  0.11365876030E+03  0.87869610032E+02 0.  0.
        -13    1    4    4    0    0 -0.35774433992E+02 -0.43505789209E+01  0.60084644700E+02  0.70063558239E+02  0.00000000000E+00 0.  1.
         14    1    4    4    0    0  0.37114286395E+02 -0.21738228984E+02  0.71077977624E+01  0.43595202064E+02  0.00000000000E+00 0. -1.
        -13    1    3    3    0    0 -0.25266919530E+02 -0.90284393644E+02 -0.34103668378E+02  0.99763466034E+02  0.00000000000E+00 0.  1.
         13    1    3    3    0    0  0.70260784038E+02 -0.10802993567E+03 -0.69265547381E+02  0.14630365965E+03  0.00000000000E+00 0. -1.
          3    1    1    2  501    0 -0.46333716911E+02  0.22440313722E+03  0.27093500197E+02  0.23073283050E+03  0.00000000000E+00 0. -1.
<scales pt_clust_5="13000.00000" pt_clust_6="13000.00000" pt_clust_7="13000.00000" pt_clust_8="13000.00000" pt_clust_9="13000.00000"></scales>
<clustering>
<clus scale="   87.870">  5  6 -1 -1</clus>
<clus scale="   92.254">  7  8 -1 -1</clus>
<clus scale="  223.302">  1  7  2 -1</clus>
<clus scale="  109.665">  5  9 -1 -1</clus>
<clus scale="  331.234">  2  5  1 -1</clus>
</clustering>
</event>
<event>
 9    2  0.3726337E-005  0.1262392E+03  0.7546771E-02  0.1240401E+00
         -1   -1    0    0    0  501 -0.00000000000E+00  0.00000000000E+00  0.35413487340E+03  0.35413487340E+03  0.00000000000E+00 0.  1.
         21   -1    0    0  501  502  0.00000000000E+00 -0.00000000000E+00 -0.87668595236E+02  0.87668595236E+02  0.00000000000E+00 0.  1.
         23    2    1    2    0    0  0.38891904459E+02 -0.37587634840E+02  0.29320828136E+03  0.31276290012E+03  0.94467586564E+02 0.  0.
         24    2    1    2    0    0 -0.18397714205E+02  0.17915444678E+02 -0.44815819745E+02  0.95370555971E+02  0.80172602558E+02 0.  0.
        -13    1    4    4    0    0 -0.33592939607E+02 -0.66047824000E+01 -0.54994693984E+02  0.64780592066E+02  0.00000000000E+00 0.  1.
         14    1    4    4    0    0  0.15195225402E+02  0.24520227078E+02  0.10178874239E+02  0.30589963906E+02  0.00000000000E+00 0. -1.
        -11    1    3    3    0    0 -0.19592890502E+02  0.11484217750E+02  0.24444209885E+02  0.33365970875E+02  0.00000000000E+00 0. -1.
         11    1    3    3    0    0  0.58484794961E+02 -0.49071852589E+02  0.26876407147E+03  0.27939692925E+03  0.00000000000E+00 0.  1.
         -2    1    1    2    0  502 -0.20494190254E+02  0.19672190161E+02  0.18073816551E+02  0.33670012542E+02  0.00000000000E+00 0.  1.
<scales pt_clust_5="13000.00000" pt_clust_6="13000.00000" pt_clust_7="13000.00000" pt_clust_8="13000.00000" pt_clust_9="13000.00000"></scales>
<clustering>
<clus scale="   80.173">  5  6 -1 -1</clus>
<clus scale="   28.408">  5  9 -1 -1</clus>
<clus scale="   94.468">  7  8 -1 -1</clus>
<clus scale="  108.856">  1  7  2 -1</clus>
<clus scale="  126.239">  2  5  1 -1</clus>
</clustering>
</event>
<event>
 9    2  0.3726337E-005  0.2506766E+03  0.7546771E-02  0.1132466E+00
         -1   -1    0    0    0  501 -0.00000000000E+00  0.00000000000E+00  0.38755395187E+03  0.38755395187E+03  0.00000000000E+00 0.  1.
         21   -1    0    0  501  502  0.00000000000E+00 -0.00000000000E+00 -0.13342185941E+03  0.13342185941E+03  0.00000000000E+00 0.  1.
         23    2    1    2    0    0 -0.93053089385E+01 -0.12391556779E+03  0.21922374097E+03  0.26788027172E+03  0.90879781344E+02 0.  0.
         24    2    1    2    0    0  0.49452044740E+02  0.12558203926E+03 -0.45255828346E+02  0.16342484618E+03  0.80269776603E+02 0.  0.
        -13    1    4    4    0    0  0.50154231604E+02  0.81763895379E+02 -0.64470803017E+02  0.11557363876E+03  0.00000000000E+00 0.  1.
         14    1    4    4    0    0 -0.70218686423E+00  0.43818143882E+02  0.19214974671E+02  0.47851207417E+02  0.00000000000E+00 0. -1.
        -11    1    3    3    0    0 -0.44830779887E+02 -0.10172305209E+03  0.17155790284E+03  0.20442478367E+03  0.00000000000E+00 0.  1.
         11    1    3    3    0    0  0.35525470949E+02 -0.22192515709E+02  0.47665838134E+02  0.63455488058E+02  0.00000000000E+00 0. -1.
         -2    1    1    2    0  502 -0.40146735802E+02 -0.16664714673E+01  0.80164179828E+02  0.89670693374E+02  0.00000000000E+00 0.  1.
<scales pt_clust_5="13000.00000" pt_clust_6="13000.00000" pt_clust_7="13000.00000" pt_clust_8="13000.00000" pt_clust_9="13000.00000"></scales>
<clustering>
<clus scale="   80.270">  5  6 -1 -1</clus>
<clus scale="   40.181">  5  9 -1 -1</clus>
<clus scale="   90.880">  7  8 -1 -1</clus>
<clus scale="  153.951">  1  7  2 -1</clus>
<clus scale="  250.677">  2  5  1 -1</clus>
</clustering>
</event>
<event>
 9    2  0.3726337E-005  0.3228989E+03  0.7546771E-02  0.1117800E+00
         -1   -1    0    0    0  501 -0.00000000000E+00  0.00000000000E+00  0.52521149280E+03  0.52521149280E+03  0.00000000000E+00 0.  1.
         21   -1    0    0  501  502  0.00000000000E+00 -0.00000000000E+00 -0.89947041073E+02  0.89947041073E+02  0.00000000000E+00 0.  1.
         23    2    1    2    0    0  0.40889417104E+02 -0.29469424697E+02  0.16126914755E+03  0.19167639163E+03  0.90508064483E+02 0.  0.
         24    2    1    2    0    0  0.75676277988E+02  0.51051191865E+01 -0.14258613592E+02  0.11159834695E+03  0.80609687305E+02 0.  0.
        -13    1    4    4    0    0  0.58775043255E+02 -0.20889392949E+02 -0.37560451257E+02  0.72812498557E+02  0.00000000000E+00 0.  1.
         14    1    4    4    0    0  0.16901234733E+02  0.25994512136E+02  0.23301837665E+02  0.38785848389E+02  0.00000000000E+00 0. -1.
        -11    1    3    3    0    0  0.55627883832E+02 -0.15810794106E+02  0.16154053732E+03  0.17158026655E+03  0.00000000000E+00 0. -1.
         11    1    3    3    0    0 -0.14738466728E+02 -0.13658630591E+02 -0.27138977543E+00  0.20096125088E+02  0.00000000000E+00 0.  1.
         -2    1    1    2    0  502 -0.11656569509E+03  0.24364305511E+02  0.28825391778E+03  0.31188379530E+03  0.00000000000E+00 0.  1.
<scales pt_clust_5="13000.00000" pt_clust_6="13000.00000" pt_clust_7="13000.00000" pt_clust_8="13000.00000" pt_clust_9="13000.00000"></scales>
<clustering>
<clus scale="   80.610">  5  6 -1 -1</clus>
<clus scale="   90.508">  7  8 -1 -1</clus>
<clus scale="  103.596">  1  7  2 -1</clus>
<clus scale="   81.389">  5  9 -1 -1</clus>
<clus scale="  322.899">  2  5  1 -1</clus>
</clustering>
</event>
<event>
 9    2  0.3726337E-005  0.4258583E+03  0.7546771E-02  0.1077230E+00
          2   -1    0    0  502    0 -0.00000000000E+00  0.00000000000E+00  0.72299807146E+03  0.72299807146E+03  0.00000000000E+00 0. -1.
         21   -1    0    0  501  502  0.00000000000E+00 -0.00000000000E+00 -0.13218567462E+03  0.13218567462E+03  0.00000000000E+00 0. -1.
         23    2    1    2    0    0 -0.43318946185E+02  0.85073830454E+02  0.40048150433E+01  0.13013311724E+03  0.88343092166E+02 0.  0.
         24    2    1    2    0    0  0.12645183749E+03 -0.98089565344E+01  0.22539380127E+02  0.14974681146E+03  0.76353133880E+02 0.  0.
        -13    1    4    4    0    0  0.68310795893E+02  0.32360890919E+02  0.46648490325E+01  0.75732112826E+02  0.00000000000E+00 0.  1.
         14    1    4    4    0    0  0.58141041595E+02 -0.42169847453E+02  0.17874531094E+02  0.74014698634E+02  0.00000000000E+00 0. -1.
        -11    1    3    3    0    0 -0.51903817949E+02  0.83281139470E+01 -0.25614813953E+01  0.52630076825E+02  0.00000000000E+00 0.  1.
         11    1    3    3    0    0  0.85848717639E+01  0.76745716507E+02  0.65662964386E+01  0.77503040420E+02  0.00000000000E+00 0. -1.
          1    1    1    2  501    0 -0.83132891302E+02 -0.75264873920E+02  0.56426820167E+03  0.57530381737E+03  0.00000000000E+00 0. -1.
<scales pt_clust_5="13000.00000" pt_clust_6="13000.00000" pt_clust_7="13000.00000" pt_clust_8="13000.00000" pt_clust_9="13000.00000"></scales>
<clustering>
<clus scale="   76.353">  5  6 -1 -1</clus>
<clus scale="   88.343">  7  8 -1 -1</clus>
<clus scale="  112.142">  5  9 -1 -1</clus>
<clus scale="  130.072">  1  7  2 -1</clus>
<clus scale="  425.858">  2  5  1 -1</clus>
</clustering>
</event>
<event>
 9    2  0.3726337E-005  0.2073419E+03  0.7546771E-02  0.1172458E+00
          2   -1    0    0  502    0 -0.00000000000E+00  0.00000000000E+00  0.95459272707E+03  0.95459272707E+03  0.00000000000E+00 0. -1.
         21   -1    0    0  501  502  0.00000000000E+00 -0.00000000000E+00 -0.31615096663E+02  0.31615096663E+02  0.00000000000E+00 0. -1.
         23    2    1    2    0    0  0.32407717502E+02  0.37404281020E+02  0.13588009406E+03  0.17225867724E+03  0.93596535890E+02 0.  0.
         24    2    1    2    0    0 -0.86413620849E+02 -0.73967738667E+02  0.46660683905E+03  0.48688980771E+03  0.80007514469E+02 0.  0.
        -11    1    4    4    0    0 -0.60988917782E+02 -0.10648366982E+02  0.30908694501E+03  0.31522654613E+03  0.00000000000E+00 0.  1.
         12    1    4    4    0    0 -0.25424703067E+02 -0.63319371685E+02  0.15751989404E+03  0.17166326158E+03  0.00000000000E+00 0. -1.
        -11    1    3    3    0    0  0.29476524891E+02 -0.27325682632E+02  0.41474024175E+02  0.57755113472E+02  0.00000000000E+00 0.  1.
         11    1    3    3    0    0  0.29311926110E+01  0.64729963652E+02  0.94406069883E+02  0.11450356377E+03  0.00000000000E+00 0. -1.
          1    1    1    2  501    0  0.54005903347E+02  0.36563457647E+02  0.32049069730E+03  0.32705933878E+03  0.00000000000E+00 0. -1.
<scales pt_clust_5="13000.00000" pt_clust_6="13000.00000" pt_clust_7="13000.00000" pt_clust_8="13000.00000" pt_clust_9="13000.00000"></scales>
<clustering>
<clus scale="   80.008">  5  6 -1 -1</clus>
<clus scale="   65.219">  5  9 -1 -1</clus>
<clus scale="   93.597">  7  8 -1 -1</clus>
<clus scale="  105.876">  1  7  2 -1</clus>
<clus scale="  207.342">  2  5  1 -1</clus>
</clustering>
</event>
<event>
 9    2  0.3726337E-005  0.4330814E+03  0.7546771E-02  0.1082841E+00
         -1   -1    0    0    0  501 -0.00000000000E+00  0.00000000000E+00  0.84080426584E+02  0.84080426584E+02  0.00000000000E+00 0.  1.
         21   -1    0    0  501  502  0.00000000000E+00 -0.00000000000E+00 -0.10180783419E+04  0.10180783419E+04  0.00000000000E+00 0.  1.
         23    2    1    2    0    0 -0.63049992837E+01 -0.44211834151E+02 -0.49412229972E+02  0.11724691192E+03  0.96492645258E+02 0.  0.
         24    2    1    2    0    0  0.74157584752E+02  0.16339231727E+03 -0.17769477830E+03  0.26484052998E+03  0.79803980871E+02 0.  0.
        -11    1    4    4    0    0  0.24936977912E+02  0.10669916098E+03 -0.14789593691E+03  0.18406458643E+03  0.00000000000E+00 0.  1.
         12    1    4    4    0    0  0.49220606839E+02  0.56693156293E+02 -0.29798841386E+02  0.80775943547E+02  0.00000000000E+00 0. -1.
        -11    1    3    3    0    0 -0.34479651545E+02 -0.27609825031E+02 -0.66896437977E+02  0.80164095597E+02  0.00000000000E+00 0. -1.
         11    1    3    3    0    0  0.28174652261E+02 -0.16602009121E+02  0.17484208005E+02  0.37082816323E+02  0.00000000000E+00 0.  1.
         -2    1    1    2    0  502 -0.67852585468E+02 -0.11918048312E+03 -0.70689090699E+03  0.72007132654E+03  0.00000000000E+00 0.  1.
<scales pt_clust_5="13000.00000" pt_clust_6="13000.00000" pt_clust_7="13000.00000" pt_clust_8="13000.00000" pt_clust_9="13000.00000"></scales>
<clustering>
<clus scale="   79.804">  5  6 -1 -1</clus>
<clus scale="   96.493">  7  8 -1 -1</clus>
<clus scale="  106.326">  1  7  2 -1</clus>
<clus scale="  142.616">  5  9 -1 -1</clus>
<clus scale="  433.081">  2  5  1 -1</clus>
</clustering>
</event>
<event>
 9    2  0.3726337E-005  0.1886741E+03  0.7546771E-02  0.1177162E+00
          2   -1    0    0  502    0 -0.00000000000E+00  0.00000000000E+00  0.15730254375E+03  0.15730254375E+03  0.00000000000E+00 0. -1.
         21   -1    0    0  501  502  0.00000000000E+00 -0.00000000000E+00 -0.24645228825E+03  0.24645228825E+03  0.00000000000E+00 0. -1.
         23    2    1    2    0    0 -0.34569429902E+02 -0.80451995533E+02  0.80713590671E+02  0.14988192340E+03  0.91007352312E+02 0.  0.
         24    2    1    2    0    0  0.34514241603E+02  0.88505743999E+01 -0.15871637892E+03  0.18140897834E+03  0.80304190081E+02 0.  0.
        -13    1    4    4    0    0  0.25577569199E+02 -0.15107826884E+02 -0.11286602609E+02  0.31778072279E+02  0.00000000000E+00 0.  1.
         14    1    4    4    0    0  0.89366724037E+01  0.23958401284E+02 -0.14742977631E+03  0.14963090606E+03  0.00000000000E+00 0. -1.
        -11    1    3    3    0    0 -0.63830374900E+02 -0.69811423784E+02  0.66659479068E+02  0.11572138005E+03  0.00000000000E+00 0. -1.
         11    1    3    3    0    0  0.29260944998E+02 -0.10640571749E+02  0.14054111603E+02  0.34160543355E+02  0.00000000000E+00 0.  1.
          1    1    1    2  501    0  0.55188298473E-01  0.71601421133E+02 -0.11146956259E+02  0.72463930254E+02  0.00000000000E+00 0. -1.
<scales pt_clust_5="13000.00000" pt_clust_6="13000.00000" pt_clust_7="13000.00000" pt_clust_8="13000.00000" pt_clust_9="13000.00000"></scales>
<clustering>
<clus scale="   80.304">  5  6 -1 -1</clus>
<clus scale="   71.601">  5  9 -1 -1</clus>
<clus scale="   91.007">  7  8 -1 -1</clus>
<clus scale="  126.293">  1  7  2 -1</clus>
<clus scale="  188.674">  2  5  1 -1</clus>
</clustering>
</event>
<event>
 9    2  0.3726337E-005  0.1549778E+03  0.7546771E-02  0.1209852E+00
          2   -1    0    0  502    0 -0.00000000000E+00  0.00000000000E+00  0.53912304384E+03  0.53912304384E+03  0.00000000000E+00 0. -1.
         21   -1    0    0  501  502  0.00000000000E+00 -0.00000000000E+00 -0.39625772073E+02  0.39625772073E+02  0.00000000000E+00 0. -1.
         23    2    1    2    0    0 -0.30484428311E+02  0.50787613962E+02  0.33405182035E+03  0.35205450251E+03  0.94037609270E+02 0.  0.
         24    2    1    2    0    0  0.27463017819E+02  0.14176680194E+02  0.12158958967E+03  0.14825436793E+03  0.78994516799E+02 0.  0.
        -13    1    4    4    0    0  0.39558552546E+02  0.35171758874E+02  0.10847905275E+03  0.12070474965E+03  0.00000000000E+00 0.  1.
         14    1    4    4    0    0 -0.12095534727E+02 -0.20995078680E+02  0.13110536924E+02  0.27549618283E+02  0.00000000000E+00 0. -1.
        -11    1    3    3    0    0  0.24193962221E+02  0.22486158120E+01  0.26594401745E+02  0.36023135416E+02  0.00000000000E+00 0.  1.
         11    1    3    3    0    0 -0.54678390531E+02  0.48538998150E+02  0.30745741860E+03  0.31603136709E+03  0.00000000000E+00 0. -1.
          1    1    1    2  501    0  0.30214104914E+01 -0.64964294157E+02  0.43855861746E+02  0.78439945475E+02  0.00000000000E+00 0. -1.
<scales pt_clust_5="13000.00000" pt_clust_6="13000.00000" pt_clust_7="13000.00000" pt_clust_8="13000.00000" pt_clust_9="13000.00000"></scales>
<clustering>
<clus scale="   78.995">  5  6 -1 -1</clus>
<clus scale="   65.035">  5  9 -1 -1</clus>
<clus scale="   94.038">  7  8 -1 -1</clus>
<clus scale="  111.138">  1  7  2 -1</clus>
<clus scale="  154.978">  2  5  1 -1</clus>
</clustering>
</event>
<event>
 9    2  0.3726337E-005  0.4536165E+03  0.7546771E-02  0.1077496E+00
         -1   -1    0    0    0  501 -0.00000000000E+00  0.00000000000E+00  0.67364277005E+03  0.67364277005E+03  0.00000000000E+00 0.  1.
         21   -1    0    0  501  502  0.00000000000E+00 -0.00000000000E+00 -0.18285874034E+03  0.18285874034E+03  0.00000000000E+00 0.  1.
         23    2    1    2    0    0  0.59234319029E+02 -0.36025289412E+01  0.37277401187E+03  0.38778594592E+03  0.88858275707E+02 0.  0.
         24    2    1    2    0    0 -0.55763196548E+02  0.18293335645E+03 -0.60013776971E+02  0.21600215780E+03  0.80505476565E+02 0.  0.
        -13    1    4    4    0    0 -0.60915069956E+02  0.75873319092E+02 -0.46916064491E+02  0.10802093966E+03  0.00000000000E+00 0.  1.
         14    1    4    4    0    0  0.51518734080E+01  0.10706003736E+03 -0.13097712480E+02  0.10798121814E+03  0.00000000000E+00 0. -1.
        -11    1    3    3    0    0  0.76567182548E+02  0.17899318904E+02  0.25679567064E+03  0.26856458352E+03  0.00000000000E+00 0. -1.
         11    1    3    3    0    0 -0.17332863519E+02 -0.21501847845E+02  0.11597834123E+03  0.11922136240E+03  0.00000000000E+00 0.  1.
         -2    1    1    2    0  502 -0.34711224807E+01 -0.17933082751E+03  0.17802379480E+03  0.25271340666E+03  0.00000000000E+00 0.  1.
<scales pt_clust_5="13000.00000" pt_clust_6="13000.00000" pt_clust_7="13000.00000" pt_clust_8="13000.00000" pt_clust_9="13000.00000"></scales>
<clustering>
<clus scale="   80.505">  5  6 -1 -1</clus>
<clus scale="   88.858">  7  8 -1 -1</clus>
<clus scale="  106.853">  1  7  2 -1</clus>
<clus scale="  186.323">  5  9 -1 -1</clus>
<clus scale="  453.616">  2  5  1 -1</clus>
</clustering>
</event>
<event>
 9    2  0.3726337E-005  0.2193097E+03  0.7546771E-02  0.1169637E+00
         21   -1    0    0  501  502  0.00000000000E+00  0.00000000000E+00  0.44441801194E+02  0.44441801194E+02  0.00000000000E+00 0. -1.
          2   -1    0    0  502    0 -0.00000000000E+00 -0.00000000000E+00 -0.81430514683E+03  0.81430514683E+03  0.00000000000E+00 0. -1.
         23    2    1    2    0    0 -0.10829835286E+02  0.14102624351E+02 -0.50935319879E+03  0.51821457512E+03  0.93752308798E+02 0.  0.
         24    2    1    2    0    0 -0.39723392005E+02  0.45542182714E+02 -0.23862008900E+03  0.25933935330E+03  0.81641380548E+02 0.  0.
        -13    1    4    4    0    0 -0.29661395927E+02 -0.19318992179E+02 -0.71240090144E+02  0.79549810250E+02  0.00000000000E+00 0.  1.
         14    1    4    4    0    0 -0.10061996079E+02  0.64861174893E+02 -0.16737999886E+03  0.17978954305E+03  0.00000000000E+00 0. -1.
        -11    1    3    3    0    0  0.28014972095E+02 -0.26967937410E+02 -0.20446902274E+03  0.20813382611E+03  0.00000000000E+00 0.  1.
         11    1    3    3    0    0 -0.38844807381E+02  0.41070561761E+02 -0.30488417605E+03  0.31008074901E+03  0.00000000000E+00 0. -1.
          1    1    1    2  501    0  0.50553227291E+02 -0.59644807065E+02 -0.21890057846E+02  0.81193019601E+02  0.00000000000E+00 0. -1.
<scales pt_clust_5="13000.00000" pt_clust_6="13000.00000" pt_clust_7="13000.00000" pt_clust_8="13000.00000" pt_clust_9="13000.00000"></scales>
<clustering>
<clus scale="   81.641">  5  6 -1 -1</clus>
<clus scale="   78.187">  5  9 -1 -1</clus>
<clus scale="   93.752">  7  8 -1 -1</clus>
<clus scale="   95.424">  2  7  1 -1</clus>
<clus scale="  219.310">  1  5  2 -1</clus>
</clustering>
</event>
<event>
 9    2  0.3726337E-005  0.4586534E+03  0.7546771E-02  0.1072083E+00
         21   -1    0    0  501  502  0.00000000000E+00  0.00000000000E+00  0.13658160764E+03  0.13658160764E+03  0.00000000000E+00 0. -1.
          2   -1    0    0  502    0 -0.00000000000E+00 -0.00000000000E+00 -0.61820377534E+03  0.61820377534E+03  0.00000000000E+00 0. -1.
         23    2    1    2    0    0 -0.77148056551E+02  0.13235230970E+01 -0.71372741448E+02  0.13942569465E+03  0.91607214582E+02 0.  0.
         24    2    1    2    0    0  0.13335097933E+03  0.17795654442E+03 -0.33467898758E+03  0.41284795450E+03  0.94775489542E+02 0.  0.
        -13    1    4    4    0    0  0.47676174554E+02  0.36466648205E+02 -0.16636719670E+03  0.17686401044E+03  0.00000000000E+00 0.  1.
         14    1    4    4    0    0  0.85674804780E+02  0.14148989621E+03 -0.16831179087E+03  0.23598394405E+03  0.00000000000E+00 0. -1.
        -11    1    3    3    0    0  0.18479018730E+02 -0.12502357412E+02 -0.72367139388E+01  0.23455342733E+02  0.00000000000E+00 0.  1.
         11    1    3    3    0    0 -0.95627075281E+02  0.13825880509E+02 -0.64136027509E+02  0.11597035192E+03  0.00000000000E+00 0. -1.
          1    1    1    2  501    0 -0.56202922782E+02 -0.17928006752E+03 -0.75570438674E+02  0.20251173383E+03  0.00000000000E+00 0. -1.
<scales pt_clust_5="13000.00000" pt_clust_6="13000.00000" pt_clust_7="13000.00000" pt_clust_8="13000.00000" pt_clust_9="13000.00000"></scales>
<clustering>
<clus scale="   91.607">  7  8 -1 -1</clus>
<clus scale="   94.775">  5  6 -1 -1</clus>
<clus scale="  119.773">  2  7  1 -1</clus>
<clus scale="  194.834">  5  9 -1 -1</clus>
<clus scale="  458.653">  1  5  2 -1</clus>
</clustering>
</event>
<event>
 9    2  0.3726337E-005  0.2780144E+03  0.7546771E-02  0.1101736E+00
         -3   -1    0    0    0  501 -0.00000000000E+00  0.00000000000E+00  0.16591664457E+03  0.16591664457E+03  0.00000000000E+00 0.  1.
         21   -1    0    0  501  502  0.00000000000E+00 -0.00000000000E+00 -0.53984540980E+03  0.53984540980E+03  0.00000000000E+00 0. -1.
         23    2    1    2    0    0 -0.42892174641E+01  0.22745253775E+03 -0.58437248956E+01  0.24448272819E+03  0.89356594297E+02 0.  0.
         24    2    1    2    0    0 -0.80004050750E+01 -0.14997014141E+03 -0.13841629886E+03  0.21858139176E+03  0.77869783863E+02 0.  0.
        -11    1    4    4    0    0  0.10557582524E+02 -0.12559625958E+03 -0.71311033396E+02  0.14481417904E+03  0.00000000000E+00 0.  1.
         12    1    4    4    0    0 -0.18557987599E+02 -0.24373881835E+02 -0.67105265461E+02  0.73767212717E+02  0.00000000000E+00 0. -1.
        -13    1    3    3    0    0  0.22497008674E+02  0.13546967979E+02  0.10512591759E+02  0.28286928539E+02  0.00000000000E+00 0.  1.
         13    1    3    3    0    0 -0.26786226138E+02  0.21390556977E+03 -0.16356316654E+02  0.21619579965E+03  0.00000000000E+00 0. -1.
         -4    1    1    2    0  502  0.12289622539E+02 -0.77482396341E+02 -0.22966874147E+03  0.24269793442E+03  0.00000000000E+00 0.  1.
<scales pt_clust_5="13000.00000" pt_clust_6="13000.00000" pt_clust_7="13000.00000" pt_clust_8="13000.00000" pt_clust_9="13000.00000"></scales>
<clustering>
<clus scale="   77.870">  5  6 -1 -1</clus>
<clus scale="   78.451">  5  9 -1 -1</clus>
<clus scale="   89.357">  7  8 -1 -1</clus>
<clus scale="  244.413">  1  7  2 -1</clus>
<clus scale="  278.014">  2  5  1 -1</clus>
</clustering>
</event>
<event>
 9    2  0.3726337E-005  0.2028305E+03  0.7546771E-02  0.1167347E+00
         21   -1    0    0  501  502  0.00000000000E+00  0.00000000000E+00  0.10935054363E+03  0.10935054363E+03  0.00000000000E+00 0.  1.
          2   -1    0    0  502    0 -0.00000000000E+00 -0.00000000000E+00 -0.36453367032E+03  0.36453367032E+03  0.00000000000E+00 0. -1.
         23    2    1    2    0    0 -0.73264462113E+02  0.56580866827E+02  0.23422274939E+02  0.12926676408E+03  0.87133331349E+02 0.  0.
         24    2    1    2    0    0  0.50367506210E+01  0.56494245439E+01 -0.41829227049E+02  0.90470668212E+02  0.79862210818E+02 0.  0.
        -13    1    4    4    0    0  0.28378878055E+02  0.16621076441E+00  0.12557107121E+02  0.31033357616E+02  0.00000000000E+00 0.  1.
         14    1    4    4    0    0 -0.23342127434E+02  0.54832137795E+01 -0.54386334170E+02  0.59437310597E+02  0.00000000000E+00 0. -1.
        -13    1    3    3    0    0  0.16304745811E+02  0.25147253870E+02 -0.45325784068E+01  0.30311274803E+02  0.00000000000E+00 0. -1.
         13    1    3    3    0    0 -0.89569207925E+02  0.31433612957E+02  0.27954853346E+02  0.98955489274E+02  0.00000000000E+00 0.  1.
          1    1    1    2  501    0  0.68227711492E+02 -0.62230291371E+02 -0.23677617458E+03  0.25414678166E+03  0.00000000000E+00 0. -1.
<scales pt_clust_5="13000.00000" pt_clust_6="13000.00000" pt_clust_7="13000.00000" pt_clust_8="13000.00000" pt_clust_9="13000.00000"></scales>
<clustering>
<clus scale="   79.862">  5  6 -1 -1</clus>
<clus scale="   87.133">  7  8 -1 -1</clus>
<clus scale="   92.345">  5  9 -1 -1</clus>
<clus scale="  127.127">  2  7  1 -1</clus>
<clus scale="  202.831">  1  5  2 -1</clus>
</clustering>
</event>
<event>
 9    2  0.3726337E-005  0.1450923E+03  0.7546771E-02  0.1226751E+00
          2   -1    0    0  502    0 -0.00000000000E+00  0.00000000000E+00  0.29344189142E+03  0.29344189142E+03  0.00000000000E+00 0. -1.
         21   -1    0    0  501  502  0.00000000000E+00 -0.00000000000E+00 -0.51441524734E+02  0.51441524734E+02  0.00000000000E+00 0. -1.
         23    2    1    2    0    0  0.26506605409E+01  0.28696435968E+02  0.60557773311E+02  0.11256208798E+03  0.90401705197E+02 0.  0.
         24    2    1    2    0    0  0.44045972857E+02 -0.29831700335E+02  0.10056887473E+03  0.13892741636E+03  0.79729231680E+02 0.  0.
        -13    1    4    4    0    0 -0.17829030640E+02  0.91234509729E+01  0.95794869696E+01  0.22200861736E+02  0.00000000000E+00 0.  1.
         14    1    4    4    0    0  0.61875003497E+02 -0.38955151308E+02  0.90989387757E+02  0.11672655463E+03  0.00000000000E+00 0. -1.
        -11    1    3    3    0    0 -0.26821172233E+02 -0.19468119050E+02  0.41187973488E+02  0.52866171597E+02  0.00000000000E+00 0.  1.
         11    1    3    3    0    0  0.29471832774E+02  0.48164555018E+02  0.19369799823E+02  0.59695916379E+02  0.00000000000E+00 0. -1.
          1    1    1    2  501    0 -0.46696633398E+02  0.11352643674E+01  0.80873718651E+02  0.93393911816E+02  0.00000000000E+00 0. -1.
<scales pt_clust_5="13000.00000" pt_clust_6="13000.00000" pt_clust_7="13000.00000" pt_clust_8="13000.00000" pt_clust_9="13000.00000"></scales>
<clustering>
<clus scale="   79.729">  5  6 -1 -1</clus>
<clus scale="   46.710">  5  9 -1 -1</clus>
<clus scale="   90.402">  7  8 -1 -1</clus>
<clus scale="   94.884">  1  7  2 -1</clus>
<clus scale="  145.092">  2  5  1 -1</clus>
</clustering>
</event>
<event>
 9    2  0.3726337E-005  0.2901959E+03  0.7546771E-02  0.1118702E+00
         21   -1    0    0  501  502  0.00000000000E+00  0.00000000000E+00  0.54948054001E+03  0.54948054001E+03  0.00000000000E+00 0. -1.
         -1   -1    0    0    0  501 -0.00000000000E+00 -0.00000000000E+00 -0.29683109646E+03  0.29683109646E+03  0.00000000000E+00 0.  1.
         23    2    1    2    0    0 -0.47466541861E+02 -0.95130674748E+02 -0.23822520463E+03  0.27607346434E+03  0.90345955736E+02 0.  0.
         24    2    1    2    0    0 -0.32980944399E+02 -0.57129124040E+02  0.10251646871E+03  0.14541241969E+03  0.79269577620E+02 0.  0.
        -13    1    4    4    0    0 -0.23061000473E+02  0.13931801399E+02  0.48940668557E+02  0.55866751041E+02  0.00000000000E+00 0.  1.
         14    1    4    4    0    0 -0.99199439254E+01 -0.71060925438E+02  0.53575800151E+02  0.89545668647E+02  0.00000000000E+00 0. -1.
        -11    1    3    3    0    0 -0.46457966816E+02 -0.18953507825E+02 -0.15649775778E+03  0.16434453544E+03  0.00000000000E+00 0. -1.
         11    1    3    3    0    0 -0.10085750454E+01 -0.76177166924E+02 -0.81727446846E+02  0.11172892890E+03  0.00000000000E+00 0.  1.
         -2    1    1    2    0  502  0.80447486260E+02  0.15225979879E+03  0.38835817947E+03  0.42482575244E+03  0.00000000000E+00 0.  1.
<scales pt_clust_5="13000.00000" pt_clust_6="13000.00000" pt_clust_7="13000.00000" pt_clust_8="13000.00000" pt_clust_9="13000.00000"></scales>
<clustering>
<clus scale="   79.270">  5  6 -1 -1</clus>
<clus scale="   90.346">  7  8 -1 -1</clus>
<clus scale="  139.518">  2  7  1 -1</clus>
<clus scale="  123.372">  5  9 -1 -1</clus>
<clus scale="  290.196">  1  5  2 -1</clus>
</clustering>
</event>
<event>
 9    2  0.3726337E-005  0.3039840E+03  0.7546771E-02  0.1112697E+00
         21   -1    0    0  501  502  0.00000000000E+00  0.00000000000E+00  0.20393083414E+03  0.20393083414E+03  0.00000000000E+00 0.  1.
         -1   -1    0    0    0  501 -0.00000000000E+00 -0.00000000000E+00 -0.29726554933E+03  0.29726554933E+03  0.00000000000E+00 0.  1.
         23    2    1    2    0    0 -0.79487822203E+02  0.70636005804E+02 -0.13379059579E+03  0.19453211314E+03  0.92925025283E+02 0.  0.
         24    2    1    2    0    0  0.58491610858E+02  0.93908109333E+02  0.33292374466E+02  0.14063137438E+03  0.80179796226E+02 0.  0.
        -11    1    4    4    0    0  0.40065634906E+02  0.99029645588E+02  0.47395205779E+02  0.11686929167E+03  0.00000000000E+00 0.  1.
         12    1    4    4    0    0  0.18425975953E+02 -0.51215362550E+01 -0.14102831313E+02  0.23762082705E+02  0.00000000000E+00 0. -1.
        -11    1    3    3    0    0 -0.34359618581E+02  0.10787697325E+02  0.54256292863E+01  0.36419709715E+02  0.00000000000E+00 0. -1.
         11    1    3    3    0    0 -0.45128203622E+02  0.59848308479E+02 -0.13921622508E+03  0.15811240342E+03  0.00000000000E+00 0.  1.
         -2    1    1    2    0  502  0.20996211344E+02 -0.16454411514E+03  0.71635061349E+01  0.16603289595E+03  0.00000000000E+00 0.  1.
<scales pt_clust_5="13000.00000" pt_clust_6="13000.00000" pt_clust_7="13000.00000" pt_clust_8="13000.00000" pt_clust_9="13000.00000"></scales>
<clustering>
<clus scale="   80.180">  5  6 -1 -1</clus>
<clus scale="   92.925">  7  8 -1 -1</clus>
<clus scale="  141.219">  2  7  1 -1</clus>
<clus scale="  125.213">  5  9 -1 -1</clus>
<clus scale="  303.984">  1  5  2 -1</clus>
</clustering>
</event>
<event>
 9    2  0.3726337E-005  0.2108920E+03  0.7546771E-02  0.1169086E+00
         -1   -1    0    0    0  501 -0.00000000000E+00  0.00000000000E+00  0.22704929091E+03  0.22704929091E+03  0.00000000000E+00 0.  1.
         21   -1    0    0  501  502  0.00000000000E+00 -0.00000000000E+00 -0.11361076812E+03  0.11361076812E+03  0.00000000000E+00 0. -1.
         23    2    1    2    0    0 -0.42674587036E+02  0.40999327638E+02  0.55116684738E+02  0.12185221256E+03  0.91148491616E+02 0.  0.
         24    2    1    2    0    0  0.10361418637E+03 -0.42994698237E+02  0.72419669169E+02  0.15622697788E+03  0.81103738763E+02 0.  0.
        -11    1    4    4    0    0  0.23457850507E+02 -0.50751897898E+02  0.16887705934E+02  0.58405654712E+02  0.00000000000E+00 0.  1.
         12    1    4    4    0    0  0.80156335862E+02  0.77571996605E+01  0.55531963235E+02  0.97821323167E+02  0.00000000000E+00 0. -1.
        -11    1    3    3    0    0 -0.22983598311E+02  0.49102262790E+02  0.75117590088E+02  0.92638708665E+02  0.00000000000E+00 0.  1.
         11    1    3    3    0    0 -0.19690988725E+02 -0.81029351513E+01 -0.20000905350E+02  0.29213503895E+02  0.00000000000E+00 0. -1.
         -2    1    1    2    0  502 -0.60939599333E+02  0.19953705988E+01 -0.14097831118E+02  0.62580868586E+02  0.00000000000E+00 0.  1.
<scales pt_clust_5="13000.00000" pt_clust_6="13000.00000" pt_clust_7="13000.00000" pt_clust_8="13000.00000" pt_clust_9="13000.00000"></scales>
<clustering>
<clus scale="   81.104">  5  6 -1 -1</clus>
<clus scale="   60.972">  5  9 -1 -1</clus>
<clus scale="   91.148">  7  8 -1 -1</clus>
<clus scale="  108.674">  1  7  2 -1</clus>
<clus scale="  210.892">  2  5  1 -1</clus>
</clustering>
</event>
<event>
 9    2  0.3726337E-005  0.7887439E+03  0.7546771E-02  0.9619468E-01
         21   -1    0    0  501  502  0.00000000000E+00  0.00000000000E+00  0.61750369539E+03  0.61750369539E+03  0.00000000000E+00 0. -1.
         -3   -1    0    0    0  501 -0.00000000000E+00 -0.00000000000E+00 -0.89580910574E+03  0.89580910574E+03  0.00000000000E+00 0.  1.
         23    2    1    2    0    0  0.36423292292E+03  0.56745720625E+03 -0.24655150512E+03  0.72392992538E+03  0.92809423666E+02 0.  0.
         24    2    1    2    0    0 -0.25666145670E+03 -0.66681486447E+02 -0.24567464299E+01  0.27634655599E+03  0.77716532428E+02 0.  0.
        -11    1    4    4    0    0 -0.16382285675E+03 -0.77325085988E+02  0.13039861459E+02  0.18162360888E+03  0.00000000000E+00 0.  1.
         12    1    4    4    0    0 -0.92838599954E+02  0.10643599542E+02 -0.15496607889E+02  0.94722947107E+02  0.00000000000E+00 0. -1.
        -11    1    3    3    0    0  0.69979905295E+02  0.55335688941E+02 -0.44426331074E+02  0.99664058258E+02  0.00000000000E+00 0.  1.
         11    1    3    3    0    0  0.29425301762E+03  0.51212151731E+03 -0.20212517405E+03  0.62426586712E+03  0.00000000000E+00 0. -1.
         -4    1    1    2    0  502 -0.10757146622E+03 -0.50077571980E+03 -0.29297158796E+02  0.51303631977E+03  0.00000000000E+00 0.  1.
<scales pt_clust_5="13000.00000" pt_clust_6="13000.00000" pt_clust_7="13000.00000" pt_clust_8="13000.00000" pt_clust_9="13000.00000"></scales>
<clustering>
<clus scale="   77.717">  5  6 -1 -1</clus>
<clus scale="   92.809">  7  8 -1 -1</clus>
<clus scale="  512.199">  5  9 -1 -1</clus>
<clus scale="  680.652">  2  7  1 -1</clus>
<clus scale="  788.744">  1  5  2 -1</clus>
</clustering>
</event>
<event>
 9    2  0.3726337E-005  0.3208289E+03  0.7546771E-02  0.1116347E+00
         21   -1    0    0  501  502  0.00000000000E+00  0.00000000000E+00  0.10927812848E+03  0.10927812848E+03  0.00000000000E+00 0. -1.
          2   -1    0    0  502    0 -0.00000000000E+00 -0.00000000000E+00 -0.44749813922E+03  0.44749813922E+03  0.00000000000E+00 0. -1.
         23    2    1    2    0    0 -0.56151858864E+02  0.18464399436E+02 -0.14685357613E+03  0.18320929377E+03  0.92226391029E+02 0.  0.
         24    2    1    2    0    0 -0.55198939330E+02  0.79954458262E+02 -0.18768858204E+03  0.22491032790E+03  0.76928625808E+02 0.  0.
        -13    1    4    4    0    0 -0.29011407933E+02  0.24364569309E+02 -0.14555229831E+03  0.15040201319E+03  0.00000000000E+00 0.  1.
         14    1    4    4    0    0 -0.26187531397E+02  0.55589888954E+02 -0.42136283729E+02  0.74508314711E+02  0.00000000000E+00 0. -1.
        -13    1    3    3    0    0  0.13500628667E+02 -0.22060602898E+02 -0.19052716719E+02  0.32123872572E+02  0.00000000000E+00 0.  1.
         13    1    3    3    0    0 -0.69652487531E+02  0.40525002334E+02 -0.12780085941E+03  0.15108542120E+03  0.00000000000E+00 0. -1.
          1    1    1    2  501    0  0.11135079819E+03 -0.98418857698E+02 -0.36778525687E+01  0.14865664603E+03  0.00000000000E+00 0. -1.
<scales pt_clust_5="13000.00000" pt_clust_6="13000.00000" pt_clust_7="13000.00000" pt_clust_8="13000.00000" pt_clust_9="13000.00000"></scales>
<clustering>
<clus scale="   76.929">  5  6 -1 -1</clus>
<clus scale="   92.226">  7  8 -1 -1</clus>
<clus scale="  109.543">  2  7  1 -1</clus>
<clus scale="  134.117">  5  9 -1 -1</clus>
<clus scale="  320.829">  1  5  2 -1</clus>
</clustering>
</event>
<event>
 9    2  0.3726337E-005  0.1774579E+03  0.7546771E-02  0.1196297E+00
         21   -1    0    0  501  502  0.00000000000E+00  0.00000000000E+00  0.35497053897E+02  0.35497053897E+02  0.00000000000E+00 0.  1.
          2   -1    0    0  502    0 -0.00000000000E+00 -0.00000000000E+00 -0.64105766478E+03  0.64105766478E+03  0.00000000000E+00 0. -1.
         23    2    1    2    0    0 -0.37148910518E+02  0.47486516998E+01 -0.36105301464E+03  0.37443676966E+03  0.91875044716E+02 0.  0.
         24    2    1    2    0    0 -0.32415580225E+02  0.37297097421E+02 -0.15690382598E+03  0.18261278613E+03  0.79289190543E+02 0.  0.
        -13    1    4    4    0    0 -0.45765136551E+02 -0.46018422410E+01 -0.10468867126E+03  0.11434746418E+03  0.00000000000E+00 0.  1.
         14    1    4    4    0    0  0.13349556326E+02  0.41898939662E+02 -0.52215154717E+02  0.68265321951E+02  0.00000000000E+00 0. -1.
        -11    1    3    3    0    0 -0.39395292079E+02  0.44337115618E+02 -0.20313296818E+03  0.21161467723E+03  0.00000000000E+00 0. -1.
         11    1    3    3    0    0  0.22463815610E+01 -0.39588463919E+02 -0.15792004647E+03  0.16282209242E+03  0.00000000000E+00 0.  1.
          1    1    1    2  501    0  0.69564490743E+02 -0.42045749121E+02 -0.87603770260E+02  0.11950516288E+03  0.00000000000E+00 0. -1.
<scales pt_clust_5="13000.00000" pt_clust_6="13000.00000" pt_clust_7="13000.00000" pt_clust_8="13000.00000" pt_clust_9="13000.00000"></scales>
<clustering>
<clus scale="   79.289">  5  6 -1 -1</clus>
<clus scale="   81.284">  5  9 -1 -1</clus>
<clus scale="   91.875">  7  8 -1 -1</clus>
<clus scale="   99.215">  2  7  1 -1</clus>
<clus scale="  177.458">  1  5  2 -1</clus>
</clustering>
</event>
<event>
 9    2  0.3982115E-005  0.3268279E+03  0.7546771E-02  0.1099425E+00
         21   -1    0    0  501  502  0.00000000000E+00  0.00000000000E+00  0.11637871471E+03  0.11637871471E+03  0.00000000000E+00 0. -1.
          2   -1    0    0  502    0 -0.00000000000E+00 -0.00000000000E+00 -0.56234359850E+03  0.56234359850E+03  0.00000000000E+00 0. -1.
         23    2    1    2    0    0 -0.11117902028E+03  0.68795832265E+02 -0.25293151924E+03  0.29914576663E+03  0.91761621518E+02 0.  0.
         24    2    1    2    0    0 -0.52154852770E+02  0.32703606527E+02 -0.15149751261E+03  0.18283987700E+03  0.81787955996E+02 0.  0.
        -11    1    4    4    0    0 -0.32695081940E+02 -0.22984892119E+02 -0.85132118856E+02  0.94046538000E+02  0.00000000000E+00 0.  1.
         12    1    4    4    0    0 -0.19459770830E+02  0.55688498646E+02 -0.66365393756E+02  0.88793338999E+02  0.00000000000E+00 0. -1.
        -11    1    3    3    0    0 -0.49675660516E+02  0.23756848702E+02 -0.19712345789E+03  0.20466977490E+03  0.00000000000E+00 0.  1.
         11    1    3    3    0    0 -0.61503359760E+02  0.45038983564E+02 -0.55808061350E+02  0.94475991733E+02  0.00000000000E+00 0. -1.
          1    1    1    2  501    0  0.16333387305E+03 -0.10149943879E+03 -0.41535851944E+02  0.19673666958E+03  0.00000000000E+00 0. -1.
<scales pt_clust_5="13000.00000" pt_clust_6="13000.00000" pt_clust_7="13000.00000" pt_clust_8="13000.00000" pt_clust_9="13000.00000"></scales>
<clustering>
<clus scale="   81.788">  5  6 -1 -1</clus>
<clus scale="   91.762">  7  8 -1 -1</clus>
<clus scale="  159.731">  2  7  1 -1</clus>
<clus scale="  137.898">  5  9 -1 -1</clus>
<clus scale="  326.828">  1  5  2 -1</clus>
</clustering>
</event>
<event>
 9    2  0.3726337E-005  0.3390929E+03  0.7546771E-02  0.1105432E+00
         21   -1    0    0  501  502  0.00000000000E+00  0.00000000000E+00  0.12302483229E+03  0.12302483229E+03  0.00000000000E+00 0. -1.
          2   -1    0    0  502    0 -0.00000000000E+00 -0.00000000000E+00 -0.78793235053E+03  0.78793235053E+03  0.00000000000E+00 0. -1.
         23    2    1    2    0    0  0.18606722781E+02  0.74802246478E+02 -0.53336651752E+03  0.54724437787E+03  0.95157663312E+02 0.  0.
         24    2    1    2    0    0  0.93226083051E+02 -0.14714488117E+03 -0.25544728192E+02  0.19349164574E+03  0.80273066565E+02 0.  0.
        -11    1    4    4    0    0  0.73493870153E+02 -0.41816382515E+02 -0.84979973822E+01  0.84983379294E+02  0.00000000000E+00 0.  1.
         12    1    4    4    0    0  0.19732212898E+02 -0.10532849866E+03 -0.17046730810E+02  0.10850826644E+03  0.00000000000E+00 0. -1.
        -11    1    3    3    0    0  0.51224144374E+02  0.23386697270E+02 -0.33642662833E+03  0.34110662091E+03  0.00000000000E+00 0. -1.
         11    1    3    3    0    0 -0.32617421593E+02  0.51415549208E+02 -0.19693988919E+03  0.20613775696E+03  0.00000000000E+00 0.  1.
          1    1    1    2  501    0 -0.11183280583E+03  0.72342634696E+02 -0.10599627253E+03  0.17022115922E+03  0.00000000000E+00 0. -1.
<scales pt_clust_5="13000.00000" pt_clust_6="13000.00000" pt_clust_7="13000.00000" pt_clust_8="13000.00000" pt_clust_9="13000.00000"></scales>
<clustering>
<clus scale="   80.273">  5  6 -1 -1</clus>
<clus scale="   95.158">  7  8 -1 -1</clus>
<clus scale="  122.460">  2  7  1 -1</clus>
<clus scale="  152.654">  5  9 -1 -1</clus>
<clus scale="  339.093">  1  5  2 -1</clus>
</clustering>
</event>
<event>
 9    2  0.3726337E-005  0.8839585E+03  0.7546771E-02  0.9997765E-01
          2   -1    0    0  502    0 -0.00000000000E+00  0.00000000000E+00  0.10328383548E+04  0.10328383548E+04  0.00000000000E+00 0. -1.
         21   -1    0    0  501  502  0.00000000000E+00 -0.00000000000E+00 -0.26306951527E+03  0.26306951527E+03  0.00000000000E+00 0. -1.
         23    2    1    2    0    0 -0.34086095260E+01  0.10892729897E+03  0.20069591131E+03  0.24461031114E+03  0.87627509488E+02 0.  0.
         24    2    1    2    0    0  0.16203586565E+03  0.34209305880E+03  0.14797928991E+03  0.41419331178E+03  0.79843262960E+02 0.  0.
        -13    1    4    4    0    0  0.97260914988E+02  0.28273979130E+03  0.11410100905E+03  0.32003205376E+03  0.00000000000E+00 0.  1.
         14    1    4    4    0    0  0.64774950666E+02  0.59353267499E+02  0.33878280858E+02  0.94161258012E+02  0.00000000000E+00 0. -1.
        -13    1    3    3    0    0 -0.13222528679E+02  0.15745729913E+02 -0.26352189879E+01  0.20729391073E+02  0.00000000000E+00 0.  1.
         13    1    3    3    0    0  0.98139191527E+01  0.93181569057E+02  0.20333113030E+03  0.22388092007E+03  0.00000000000E+00 0. -1.
          1    1    1    2  501    0 -0.15862725613E+03 -0.45102035777E+03  0.42109363831E+03  0.63710424715E+03  0.00000000000E+00 0. -1.
<scales pt_clust_5="13000.00000" pt_clust_6="13000.00000" pt_clust_7="13000.00000" pt_clust_8="13000.00000" pt_clust_9="13000.00000"></scales>
<clustering>
<clus scale="   79.843">  5  6 -1 -1</clus>
<clus scale="   87.628">  7  8 -1 -1</clus>
<clus scale="  139.840">  1  7  2 -1</clus>
<clus scale="  412.536">  5  9 -1 -1</clus>
<clus scale="  883.958">  2  5  1 -1</clus>
</clustering>
</event>
<event>
 9    2  0.3726337E-005  0.4352709E+03  0.7546771E-02  0.1047511E+00
          2   -1    0    0  502    0 -0.00000000000E+00  0.00000000000E+00  0.56667932150E+03  0.56667932150E+03  0.00000000000E+00 0. -1.
         21   -1    0    0  501  502  0.00000000000E+00 -0.00000000000E+00 -0.24817536726E+03  0.24817536726E+03  0.00000000000E+00 0.  1.
         23    2    1    2    0    0 -0.55040120378E+02  0.25757691776E+03  0.24948713053E+03  0.37414608400E+03  0.91466827085E+02 0.  0.
         24    2    1    2    0    0 -0.34625567755E+02  0.19575196871E+02 -0.73433042424E+02  0.11644760705E+03  0.81151187255E+02 0.  0.
        -13    1    4    4    0    0 -0.29800175046E+02 -0.24783343814E+02 -0.56933655997E+02  0.68874565324E+02  0.00000000000E+00 0.  1.
         14    1    4    4    0    0 -0.48253927084E+01  0.44358540685E+02 -0.16499386427E+02  0.47573041725E+02  0.00000000000E+00 0. -1.
        -13    1    3    3    0    0  0.77880649100E+01  0.17357446370E+03  0.16192181490E+03  0.23750246850E+03  0.00000000000E+00 0.  1.
         13    1    3    3    0    0 -0.62828185288E+02  0.84002454066E+02  0.87565315629E+02  0.13664361550E+03  0.00000000000E+00 0. -1.
          1    1    1    2  501    0  0.89665688133E+02 -0.27715211463E+03  0.14244986613E+03  0.32426099771E+03  0.00000000000E+00 0. -1.
<scales pt_clust_5="13000.00000" pt_clust_6="13000.00000" pt_clust_7="13000.00000" pt_clust_8="13000.00000" pt_clust_9="13000.00000"></scales>
<clustering>
<clus scale="   81.151">  5  6 -1 -1</clus>
<clus scale="   91.467">  7  8 -1 -1</clus>
<clus scale="  278.822">  1  7  2 -1</clus>
<clus scale="   56.998">  5  9 -1 -1</clus>
<clus scale="  435.271">  2  5  1 -1</clus>
</clustering>
</event>
<event>
 9    2  0.3726337E-005  0.4090441E+03  0.7546771E-02  0.1056607E+00
         21   -1    0    0  501  502  0.00000000000E+00  0.00000000000E+00  0.89818473796E+02  0.89818473796E+02  0.00000000000E+00 0.  1.
         -1   -1    0    0    0  501 -0.00000000000E+00 -0.00000000000E+00 -0.12542137846E+04  0.12542137846E+04  0.00000000000E+00 0.  1.
         23    2    1    2    0    0  0.32196847955E+02 -0.24022292578E+03 -0.39330351265E+03  0.47116365655E+03  0.92541056295E+02 0.  0.
         24    2    1    2    0    0  0.71696923188E+02  0.26490629334E+03 -0.65776227977E+03  0.71715487717E+03  0.79649909714E+02 0.  0.
        -13    1    4    4    0    0  0.48579803089E+02  0.25542621606E+03 -0.58365285410E+03  0.63894694867E+03  0.00000000000E+00 0.  1.
         14    1    4    4    0    0  0.23117120098E+02  0.94800772764E+01 -0.74109425667E+02  0.78207928495E+02  0.00000000000E+00 0. -1.
        -13    1    3    3    0    0  0.72838459572E+01 -0.31384868225E+02 -0.96326523499E+01  0.33628148280E+02  0.00000000000E+00 0. -1.
         13    1    3    3    0    0  0.24913001998E+02 -0.20883805755E+03 -0.38367086030E+03  0.43753550827E+03  0.00000000000E+00 0.  1.
         -2    1    1    2    0  502 -0.10389377114E+03 -0.24683367561E+02 -0.11332951839E+03  0.15571372468E+03  0.00000000000E+00 0.  1.
<scales pt_clust_5="13000.00000" pt_clust_6="13000.00000" pt_clust_7="13000.00000" pt_clust_8="13000.00000" pt_clust_9="13000.00000"></scales>
<clustering>
<clus scale="   79.650">  5  6 -1 -1</clus>
<clus scale="   92.541">  7  8 -1 -1</clus>
<clus scale="  106.786">  5  9 -1 -1</clus>
<clus scale="  259.437">  2  7  1 -1</clus>
<clus scale="  409.044">  1  5  2 -1</clus>
</clustering>
</event>
<event>
 9    2  0.3726337E-005  0.3397996E+03  0.7546771E-02  0.1092408E+00
         -1   -1    0    0    0  501 -0.00000000000E+00  0.00000000000E+00  0.54077512922E+03  0.54077512922E+03  0.00000000000E+00 0.  1.
         21   -1    0    0  501  502  0.00000000000E+00 -0.00000000000E+00 -0.18749042438E+03  0.18749042438E+03  0.00000000000E+00 0.  1.
         23    2    1    2    0    0  0.10117923662E+03 -0.10293048511E+03 -0.70800154146E+02  0.18483961489E+03  0.91220056548E+02 0.  0.
         24    2    1    2    0    0  0.13983613908E+02 -0.48379810361E+02  0.30629047471E+03  0.31974579961E+03  0.76729224971E+02 0.  0.
        -13    1    4    4    0    0 -0.23873036823E+02 -0.37372438810E+02  0.95421173430E+02  0.10522272287E+03  0.00000000000E+00 0.  1.
         14    1    4    4    0    0  0.37856650731E+02 -0.11007371551E+02  0.21086930128E+03  0.21452307674E+03  0.00000000000E+00 0. -1.
        -13    1    3    3    0    0  0.88966895681E+02 -0.35527062100E+02 -0.16019581337E+02  0.97128305116E+02  0.00000000000E+00 0.  1.
         13    1    3    3    0    0  0.12212340941E+02 -0.67403423009E+02 -0.54780572810E+02  0.87711309772E+02  0.00000000000E+00 0. -1.
         -2    1    1    2    0  502 -0.11516285053E+03  0.15131029547E+03  0.11779438428E+03  0.22368013910E+03  0.00000000000E+00 0.  1.
<scales pt_clust_5="13000.00000" pt_clust_6="13000.00000" pt_clust_7="13000.00000" pt_clust_8="13000.00000" pt_clust_9="13000.00000"></scales>
<clustering>
<clus scale="   76.729">  5  6 -1 -1</clus>
<clus scale="   91.220">  7  8 -1 -1</clus>
<clus scale="  170.743">  1  7  2 -1</clus>
<clus scale="  139.762">  5  9 -1 -1</clus>
<clus scale="  339.800">  2  5  1 -1</clus>
</clustering>
</event>
<event>
 9    2  0.3726337E-005  0.1414096E+03  0.7546771E-02  0.1231807E+00
          2   -1    0    0  502    0 -0.00000000000E+00  0.00000000000E+00  0.27079768138E+03  0.27079768138E+03  0.00000000000E+00 0. -1.
         21   -1    0    0  501  502  0.00000000000E+00 -0.00000000000E+00 -0.51135634961E+02  0.51135634961E+02  0.00000000000E+00 0.  1.
         23    2    1    2    0    0  0.10446668792E+02 -0.12486849972E+01  0.10552734923E+03  0.14020987800E+03  0.91717481158E+02 0.  0.
         24    2    1    2    0    0  0.29800201513E+02 -0.55984288050E+01  0.33804904198E+02  0.91614786267E+02  0.79568229211E+02 0.  0.
        -13    1    4    4    0    0  0.46339494806E+02 -0.28967267810E+02  0.31048915425E+02  0.62852895974E+02  0.00000000000E+00 0.  1.
         14    1    4    4    0    0 -0.16539293294E+02  0.23368839005E+02  0.27559887730E+01  0.28761890293E+02  0.00000000000E+00 0. -1.
        -11    1    3    3    0    0  0.43778892451E+02 -0.45575608721E+01  0.95644281258E+02  0.10528623520E+03  0.00000000000E+00 0. -1.
         11    1    3    3    0    0 -0.33332223659E+02  0.33088758749E+01  0.98830679671E+01  0.34923642795E+02  0.00000000000E+00 0.  1.
          1    1    1    2  501    0 -0.40246870304E+02  0.68471138022E+01  0.80329793000E+02  0.90108652083E+02  0.00000000000E+00 0. -1.
<scales pt_clust_5="13000.00000" pt_clust_6="13000.00000" pt_clust_7="13000.00000" pt_clust_8="13000.00000" pt_clust_9="13000.00000"></scales>
<clustering>
<clus scale="   79.568">  5  6 -1 -1</clus>
<clus scale="   40.825">  5  9 -1 -1</clus>
<clus scale="   91.717">  7  8 -1 -1</clus>
<clus scale="   92.319">  1  7  2 -1</clus>
<clus scale="  141.410">  2  5  1 -1</clus>
</clustering>
</event>
<event>
 9    2  0.3726337E-005  0.1454006E+03  0.7546771E-02  0.1210878E+00
         21   -1    0    0  501  502  0.00000000000E+00  0.00000000000E+00  0.26381997015E+02  0.26381997015E+02  0.00000000000E+00 0. -1.
          2   -1    0    0  502    0 -0.00000000000E+00 -0.00000000000E+00 -0.96462785475E+03  0.96462785475E+03  0.00000000000E+00 0. -1.
         23    2    1    2    0    0 -0.40359035507E+01  0.89715949034E+02 -0.20610294372E+03  0.24456857165E+03  0.96281476922E+02 0.  0.
         24    2    1    2    0    0  0.28790540044E+02 -0.64750049458E+02 -0.60631921723E+03  0.61579790737E+03  0.81009909546E+02 0.  0.
        -13    1    4    4    0    0 -0.24581765552E+02 -0.38668216594E+02 -0.20154673964E+03  0.20668957988E+03  0.00000000000E+00 0.  1.
         14    1    4    4    0    0  0.53372305596E+02 -0.26081832864E+02 -0.40477247759E+03  0.40910832749E+03  0.00000000000E+00 0. -1.
        -13    1    3    3    0    0  0.18864822295E+02  0.84507830199E+02 -0.85452400431E+02  0.12165347354E+03  0.00000000000E+00 0. -1.
         13    1    3    3    0    0 -0.22900725846E+02  0.52081188347E+01 -0.12065054329E+03  0.12291509811E+03  0.00000000000E+00 0.  1.
          1    1    1    2  501    0 -0.24754636494E+02 -0.24965899575E+02 -0.12582369679E+03  0.13064337275E+03  0.00000000000E+00 0. -1.
<scales pt_clust_5="13000.00000" pt_clust_6="13000.00000" pt_clust_7="13000.00000" pt_clust_8="13000.00000" pt_clust_9="13000.00000"></scales>
<clustering>
<clus scale="   81.010">  5  6 -1 -1</clus>
<clus scale="   35.158">  5  9 -1 -1</clus>
<clus scale="   96.281">  7  8 -1 -1</clus>
<clus scale="  131.664">  2  7  1 -1</clus>
<clus scale="  145.401">  1  5  2 -1</clus>
</clustering>
</event>
<event>
 9    2  0.3726337E-005  0.2600512E+03  0.7546771E-02  0.1137442E+00
         21   -1    0    0  501  502  0.00000000000E+00  0.00000000000E+00  0.26372698759E+02  0.26372698759E+02  0.00000000000E+00 0. -1.
          2   -1    0    0  502    0 -0.00000000000E+00 -0.00000000000E+00 -0.13889012446E+04  0.13889012446E+04  0.00000000000E+00 0. -1.
         23    2    1    2    0    0  0.77317398553E+02  0.85039864131E+01 -0.40049430969E+03  0.41871159491E+03  0.94198777647E+02 0.  0.
         24    2    1    2    0    0 -0.14981173332E+03 -0.79563652724E+01 -0.48474298778E+03  0.51379670735E+03  0.80650065645E+02 0.  0.
        -13    1    4    4    0    0 -0.77130748716E+01  0.19126376445E+02 -0.28560190687E+02  0.35227748892E+02  0.00000000000E+00 0.  1.
         14    1    4    4    0    0 -0.14209865845E+03 -0.27082741718E+02 -0.45618279709E+03  0.47856895845E+03  0.00000000000E+00 0. -1.
        -11    1    3    3    0    0  0.61101977318E+02  0.48828119806E+02 -0.27485348293E+03  0.28576576771E+03  0.00000000000E+00 0. -1.
         11    1    3    3    0    0  0.16215421235E+02 -0.40324133393E+02 -0.12564082677E+03  0.13294582720E+03  0.00000000000E+00 0.  1.
          1    1    1    2  501    0  0.72494334770E+02 -0.54762114065E+00 -0.47729124838E+03  0.48276564112E+03  0.00000000000E+00 0. -1.
<scales pt_clust_5="13000.00000" pt_clust_6="13000.00000" pt_clust_7="13000.00000" pt_clust_8="13000.00000" pt_clust_9="13000.00000"></scales>
<clustering>
<clus scale="   80.650">  5  6 -1 -1</clus>
<clus scale="   72.496">  5  9 -1 -1</clus>
<clus scale="   94.199">  7  8 -1 -1</clus>
<clus scale="  122.163">  2  7  1 -1</clus>
<clus scale="  260.051">  1  5  2 -1</clus>
</clustering>
</event>
<event>
 9    2  0.3726337E-005  0.1734503E+03  0.7546771E-02  0.1197187E+00
         -3   -1    0    0    0  501 -0.00000000000E+00  0.00000000000E+00  0.66958528894E+03  0.66958528894E+03  0.00000000000E+00 0.  1.
         21   -1    0    0  501  502  0.00000000000E+00 -0.00000000000E+00 -0.29920246510E+02  0.29920246510E+02  0.00000000000E+00 0.  1.
         23    2    1    2    0    0 -0.38376584280E+02  0.36364139998E+02  0.17701040172E+03  0.20540603862E+03  0.89798916949E+02 0.  0.
         24    2    1    2    0    0  0.65191631565E+01 -0.77549778089E+02  0.36488898369E+03  0.38333273395E+03  0.87997425720E+02 0.  0.
        -13    1    4    4    0    0  0.37200199139E+02 -0.76803308562E+02  0.23974138523E+03  0.25447698288E+03  0.00000000000E+00 0.  1.
         14    1    4    4    0    0 -0.30681035982E+02 -0.74646952709E+00  0.12514759846E+03  0.12885575108E+03  0.00000000000E+00 0. -1.
        -13    1    3    3    0    0 -0.28457383753E+02 -0.22004279814E+02  0.29718656486E+02  0.46660578260E+02  0.00000000000E+00 0.  1.
         13    1    3    3    0    0 -0.99192005260E+01  0.58368419812E+02  0.14729174523E+03  0.15874546036E+03  0.00000000000E+00 0. -1.
         -4    1    1    2    0  502  0.31857421123E+02  0.41185638092E+02  0.97765657019E+02  0.11076676288E+03  0.00000000000E+00 0.  1.
<scales pt_clust_5="13000.00000" pt_clust_6="13000.00000" pt_clust_7="13000.00000" pt_clust_8="13000.00000" pt_clust_9="13000.00000"></scales>
<clustering>
<clus scale="   87.997">  5  6 -1 -1</clus>
<clus scale="   52.069">  5  9 -1 -1</clus>
<clus scale="   89.799">  7  8 -1 -1</clus>
<clus scale="  104.206">  1  7  2 -1</clus>
<clus scale="  173.450">  2  5  1 -1</clus>
</clustering>
</event>
<event>
 9    2  0.3726337E-005  0.2342594E+03  0.7546771E-02  0.1158034E+00
          2   -1    0    0  502    0 -0.00000000000E+00  0.00000000000E+00  0.15949656574E+03  0.15949656574E+03  0.00000000000E+00 0. -1.
         21   -1    0    0  501  502  0.00000000000E+00 -0.00000000000E+00 -0.23014965374E+03  0.23014965374E+03  0.00000000000E+00 0. -1.
         23    2    1    2    0    0  0.26801523391E+02 -0.43675378711E+02 -0.11201929418E+03  0.15176256743E+03  0.88643636216E+02 0.  0.
         24    2    1    2    0    0  0.59010309055E+02  0.32205639347E+02  0.90341571772E+02  0.13841600936E+03  0.80485851402E+02 0.  0.
        -13    1    4    4    0    0  0.21175507324E+02 -0.22158142208E+02  0.55928072743E+02  0.63775659129E+02  0.00000000000E+00 0.  1.
         14    1    4    4    0    0  0.37834801731E+02  0.54363781555E+02  0.34413499029E+02  0.74640350229E+02  0.00000000000E+00 0. -1.
        -11    1    3    3    0    0  0.56454636430E+02 -0.27283874226E+02 -0.95050473289E+02  0.11386890813E+03  0.00000000000E+00 0. -1.
         11    1    3    3    0    0 -0.29653113039E+02 -0.16391504485E+02 -0.16968820895E+02  0.37893659295E+02  0.00000000000E+00 0.  1.
          1    1    1    2  501    0 -0.85811832445E+02  0.11469739364E+02 -0.48975365590E+02  0.99467642696E+02  0.00000000000E+00 0. -1.
<scales pt_clust_5="13000.00000" pt_clust_6="13000.00000" pt_clust_7="13000.00000" pt_clust_8="13000.00000" pt_clust_9="13000.00000"></scales>
<clustering>
<clus scale="   80.486">  5  6 -1 -1</clus>
<clus scale="   86.575">  5  9 -1 -1</clus>
<clus scale="   88.644">  7  8 -1 -1</clus>
<clus scale="  102.389">  1  7  2 -1</clus>
<clus scale="  234.259">  2  5  1 -1</clus>
</clustering>
</event>
<event>
 9    2  0.3726337E-005  0.5256441E+03  0.7546771E-02  0.1049127E+00
          2   -1    0    0  502    0 -0.00000000000E+00  0.00000000000E+00  0.64613878000E+03  0.64613878000E+03  0.00000000000E+00 0. -1.
         21   -1    0    0  501  502  0.00000000000E+00 -0.00000000000E+00 -0.19240556258E+03  0.19240556258E+03  0.00000000000E+00 0. -1.
         23    2    1    2    0    0  0.56678104813E+02  0.93955680948E+02  0.11474555787E+02  0.15159864214E+03  0.10397309903E+03 0.  0.
         24    2    1    2    0    0  0.98363980707E+02 -0.11469506199E+03  0.49274882928E+03  0.52257591234E+03  0.86335076583E+02 0.  0.
        -11    1    4    4    0    0  0.39092801679E+02 -0.43799225222E+02  0.77817723781E+02  0.97479317846E+02  0.00000000000E+00 0.  1.
         12    1    4    4    0    0  0.59271179027E+02 -0.70895836767E+02  0.41493110550E+03  0.42509659449E+03  0.00000000000E+00 0. -1.
        -13    1    3    3    0    0 -0.14220707878E+02  0.65781278801E+02  0.29059219969E+02  0.73306503385E+02  0.00000000000E+00 0.  1.
         13    1    3    3    0    0  0.70898812691E+02  0.28174402147E+02 -0.17584664182E+02  0.78292138760E+02  0.00000000000E+00 0. -1.
          1    1    1    2  501    0 -0.15504208552E+03  0.20739381041E+02 -0.50490167653E+02  0.16436978809E+03  0.00000000000E+00 0. -1.
<scales pt_clust_5="13000.00000" pt_clust_6="13000.00000" pt_clust_7="13000.00000" pt_clust_8="13000.00000" pt_clust_9="13000.00000"></scales>
<clustering>
<clus scale="   86.335">  5  6 -1 -1</clus>
<clus scale="  103.973">  7  8 -1 -1</clus>
<clus scale="  151.164">  1  7  2 -1</clus>
<clus scale="  152.352">  5  9 -1 -1</clus>
<clus scale="  525.644">  2  5  1 -1</clus>
</clustering>
</event>
<event>
 9    2  0.3726337E-005  0.1666476E+03  0.7546771E-02  0.1204847E+00
         21   -1    0    0  501  502  0.00000000000E+00  0.00000000000E+00  0.81437268185E+02  0.81437268185E+02  0.00000000000E+00 0. -1.
         -3   -1    0    0    0  501 -0.00000000000E+00 -0.00000000000E+00 -0.29827628285E+03  0.29827628285E+03  0.00000000000E+00 0.  1.
         23    2    1    2    0    0  0.47584225135E+01 -0.38754461678E+02  0.80140221301E+01  0.99838020611E+02  0.91536085366E+02 0.  0.
         24    2    1    2    0    0  0.17860756596E+02 -0.35290783440E+01 -0.46629142460E+02  0.95313124902E+02  0.81110133965E+02 0.  0.
        -13    1    4    4    0    0  0.34162438327E+02 -0.16155104489E+02 -0.59876891395E+02  0.70804672986E+02  0.00000000000E+00 0.  1.
         14    1    4    4    0    0 -0.16301681732E+02  0.12626026145E+02  0.13247748934E+02  0.24508451916E+02  0.00000000000E+00 0. -1.
        -11    1    3    3    0    0 -0.30166993106E+02  0.15531045676E+02 -0.40475875169E+01  0.34170803584E+02  0.00000000000E+00 0.  1.
         11    1    3    3    0    0  0.34925415620E+02 -0.54285507354E+02  0.12061609647E+02  0.65667217028E+02  0.00000000000E+00 0. -1.
         -4    1    1    2    0  502 -0.22619179109E+02  0.42283540022E+02 -0.17822389433E+03  0.18456240552E+03  0.00000000000E+00 0.  1.
<scales pt_clust_5="13000.00000" pt_clust_6="13000.00000" pt_clust_7="13000.00000" pt_clust_8="13000.00000" pt_clust_9="13000.00000"></scales>
<clustering>
<clus scale="   81.110">  5  6 -1 -1</clus>
<clus scale="   47.953">  5  9 -1 -1</clus>
<clus scale="   91.536">  7  8 -1 -1</clus>
<clus scale="   99.516">  2  7  1 -1</clus>
<clus scale="  166.648">  1  5  2 -1</clus>
</clustering>
</event>
<event>
 9    2  0.3726337E-005  0.2079491E+03  0.7546771E-02  0.1156889E+00
         21   -1    0    0  501  502  0.00000000000E+00  0.00000000000E+00  0.26061465934E+02  0.26061465934E+02  0.00000000000E+00 0.  1.
          2   -1    0    0  502    0 -0.00000000000E+00 -0.00000000000E+00 -0.12364481456E+04  0.12364481456E+04  0.00000000000E+00 0. -1.
         23    2    1    2    0    0 -0.10316384854E+03  0.55245593224E+02 -0.54769532696E+03  0.56795749637E+03  0.94396458024E+02 0.  0.
         24    2    1    2    0    0  0.65552989968E+01 -0.71396504221E+02 -0.40817890491E+03  0.42184228796E+03  0.78743029793E+02 0.  0.
        -11    1    4    4    0    0 -0.20123557245E+02  0.33805772741E+01 -0.36868428550E+02  0.42138662564E+02  0.00000000000E+00 0.  1.
         12    1    4    4    0    0  0.26678856242E+02 -0.74777081495E+02 -0.37131047636E+03  0.37970362540E+03  0.00000000000E+00 0. -1.
        -11    1    3    3    0    0 -0.11530648351E+03  0.25578343202E+02 -0.41881221502E+03  0.43514768554E+03  0.00000000000E+00 0.  1.
         11    1    3    3    0    0  0.12142634974E+02  0.29667250022E+02 -0.12888311195E+03  0.13280981083E+03  0.00000000000E+00 0. -1.
          1    1    1    2  501    0  0.96608549541E+02  0.16150910997E+02 -0.25451244777E+03  0.27270982718E+03  0.00000000000E+00 0. -1.
<scales pt_clust_5="13000.00000" pt_clust_6="13000.00000" pt_clust_7="13000.00000" pt_clust_8="13000.00000" pt_clust_9="13000.00000"></scales>
<clustering>
<clus scale="   78.743">  5  6 -1 -1</clus>
<clus scale="   94.396">  7  8 -1 -1</clus>
<clus scale="   97.949">  5  9 -1 -1</clus>
<clus scale="  150.351">  2  7  1 -1</clus>
<clus scale="  207.949">  1  5  2 -1</clus>
</clustering>
</event>
<event>
 9    2  0.3726337E-005  0.2598494E+03  0.7546771E-02  0.1117832E+00
         21   -1    0    0  501  502  0.00000000000E+00  0.00000000000E+00  0.40668634126E+03  0.40668634126E+03  0.00000000000E+00 0. -1.
          2   -1    0    0  502    0 -0.00000000000E+00 -0.00000000000E+00 -0.15869568993E+03  0.15869568993E+03  0.00000000000E+00 0. -1.
         23    2    1    2    0    0  0.18247395825E+02 -0.17526259115E+03  0.23147284732E+03  0.30500815371E+03  0.91653431306E+02 0.  0.
         24    2    1    2    0    0  0.43864344907E+02  0.28548388421E+02  0.22780751062E+02  0.10093062700E+03  0.83240240339E+02 0.  0.
        -13    1    4    4    0    0  0.33769603075E+02 -0.15072927989E+02 -0.17309297388E+02  0.40831250606E+02  0.00000000000E+00 0.  1.
         14    1    4    4    0    0  0.10094741832E+02  0.43621316409E+02  0.40090048450E+02  0.60099376392E+02  0.00000000000E+00 0. -1.
        -13    1    3    3    0    0 -0.34012144742E+02 -0.95049201336E+02  0.13997079197E+03  0.17257751670E+03  0.00000000000E+00 0.  1.
         13    1    3    3    0    0  0.52259540567E+02 -0.80213389813E+02  0.91502055355E+02  0.13243063701E+03  0.00000000000E+00 0. -1.
          1    1    1    2  501    0 -0.62111740733E+02  0.14671420273E+03 -0.62629470554E+01  0.15944325048E+03  0.00000000000E+00 0. -1.
<scales pt_clust_5="13000.00000" pt_clust_6="13000.00000" pt_clust_7="13000.00000" pt_clust_8="13000.00000" pt_clust_9="13000.00000"></scales>
<clustering>
<clus scale="   83.240">  5  6 -1 -1</clus>
<clus scale="   91.653">  7  8 -1 -1</clus>
<clus scale="  159.320">  5  9 -1 -1</clus>
<clus scale="  198.621">  2  7  1 -1</clus>
<clus scale="  259.849">  1  5  2 -1</clus>
</clustering>
</event>
<event>
 9    2  0.3726337E-005  0.1726891E+03  0.7546771E-02  0.1197586E+00
         21   -1    0    0  501  502  0.00000000000E+00  0.00000000000E+00  0.29031654149E+03  0.29031654149E+03  0.00000000000E+00 0. -1.
         -1   -1    0    0    0  501 -0.00000000000E+00 -0.00000000000E+00 -0.23558067421E+03  0.23558067421E+03  0.00000000000E+00 0.  1.
         23    2    1    2    0    0  0.23786161580E+02  0.45996601802E+02 -0.19555780250E+03  0.22181094518E+03  0.90971272504E+02 0.  0.
         24    2    1    2    0    0 -0.47131996413E+02 -0.62259312874E+01  0.60989731768E+02  0.10924604063E+03  0.77167108964E+02 0.  0.
        -13    1    4    4    0    0  0.18011743739E+02  0.11189064747E+02  0.54672633690E+01  0.21897695111E+02  0.00000000000E+00 0.  1.
         14    1    4    4    0    0 -0.65143740151E+02 -0.17414996034E+02  0.55522468399E+02  0.87348345519E+02  0.00000000000E+00 0. -1.
        -11    1    3    3    0    0  0.34650907965E+02 -0.10818607294E+02 -0.32234954261E+02  0.48547090158E+02  0.00000000000E+00 0. -1.
         11    1    3    3    0    0 -0.10864746385E+02  0.56815209096E+02 -0.16332284824E+03  0.17326385502E+03  0.00000000000E+00 0.  1.
         -2    1    1    2    0  502  0.23345834833E+02 -0.39770670514E+02  0.18930393801E+03  0.19484022989E+03  0.00000000000E+00 0.  1.
<scales pt_clust_5="13000.00000" pt_clust_6="13000.00000" pt_clust_7="13000.00000" pt_clust_8="13000.00000" pt_clust_9="13000.00000"></scales>
<clustering>
<clus scale="   77.167">  5  6 -1 -1</clus>
<clus scale="   46.117">  5  9 -1 -1</clus>
<clus scale="   90.971">  7  8 -1 -1</clus>
<clus scale="  104.677">  2  7  1 -1</clus>
<clus scale="  172.689">  1  5  2 -1</clus>
</clustering>
</event>
<event>
 9    2  0.3726337E-005  0.2849706E+03  0.7546771E-02  0.1114822E+00
         21   -1    0    0  501  502  0.00000000000E+00  0.00000000000E+00  0.76041959236E+02  0.76041959236E+02  0.00000000000E+00 0. -1.
          2   -1    0    0  502    0 -0.00000000000E+00 -0.00000000000E+00 -0.92570265802E+03  0.92570265802E+03  0.00000000000E+00 0. -1.
         23    2    1    2    0    0 -0.10374915443E+03  0.85242616595E+02 -0.60413125427E+03  0.62558914950E+03  0.91416742740E+02 0.  0.
         24    2    1    2    0    0  0.10888088518E+03 -0.11277113244E+03 -0.56030671263E+02  0.18459884712E+03  0.79780466082E+02 0.  0.
        -11    1    4    4    0    0  0.50430767108E+02 -0.45789772638E+02 -0.66365504763E+02  0.95101765345E+02  0.00000000000E+00 0.  1.
         12    1    4    4    0    0  0.58450118069E+02 -0.66981359805E+02  0.10334833500E+02  0.89497081780E+02  0.00000000000E+00 0. -1.
        -13    1    3    3    0    0 -0.33107727876E+02  0.79304842009E+02 -0.24791832835E+03  0.26239069561E+03  0.00000000000E+00 0.  1.
         13    1    3    3    0    0 -0.70641426558E+02  0.59377745862E+01 -0.35621292592E+03  0.36319845389E+03  0.00000000000E+00 0. -1.
          1    1    1    2  501    0 -0.51317307435E+01  0.27528515847E+02 -0.18949877325E+03  0.19155662063E+03  0.00000000000E+00 0. -1.
<scales pt_clust_5="13000.00000" pt_clust_6="13000.00000" pt_clust_7="13000.00000" pt_clust_8="13000.00000" pt_clust_9="13000.00000"></scales>
<clustering>
<clus scale="   79.780">  5  6 -1 -1</clus>
<clus scale="   28.003">  5  9 -1 -1</clus>
<clus scale="   91.417">  7  8 -1 -1</clus>
<clus scale="  162.441">  2  7  1 -1</clus>
<clus scale="  284.971">  1  5  2 -1</clus>
</clustering>
</event>
<event>
 9    2  0.3726337E-005  0.4246262E+03  0.7546771E-02  0.1061465E+00
          2   -1    0    0  502    0 -0.00000000000E+00  0.00000000000E+00  0.64313554104E+02  0.64313554104E+02  0.00000000000E+00 0. -1.
         21   -1    0    0  501  502  0.00000000000E+00 -0.00000000000E+00 -0.19859111455E+04  0.19859111455E+04  0.00000000000E+00 0. -1.
         23    2    1    2    0    0  0.40284618415E+02 -0.17773324062E+03 -0.23100367399E+03  0.30711965069E+03  0.88021742428E+02 0.  0.
         24    2    1    2    0    0  0.10299083297E+03 -0.61260149010E+02 -0.65300201114E+03  0.66874819051E+03  0.80328066227E+02 0.  0.
        -13    1    4    4    0    0  0.58440049307E+02 -0.53229446309E+02 -0.22744153016E+03  0.24078675827E+03  0.00000000000E+00 0.  1.
         14    1    4    4    0    0  0.44550783662E+02 -0.80307027009E+01 -0.42556048098E+03  0.42796143224E+03  0.00000000000E+00 0. -1.
        -13    1    3    3    0    0  0.48143668107E+02 -0.14962863007E+03 -0.13638990365E+03  0.20810753358E+03  0.00000000000E+00 0. -1.
         13    1    3    3    0    0 -0.78590496922E+01 -0.28104610554E+02 -0.94613770344E+02  0.99012117113E+02  0.00000000000E+00 0.  1.
          1    1    1    2  501    0 -0.14327545138E+03  0.23899338963E+03 -0.10375919063E+04  0.10743568584E+04  0.00000000000E+00 0. -1.
<scales pt_clust_5="13000.00000" pt_clust_6="13000.00000" pt_clust_7="13000.00000" pt_clust_8="13000.00000" pt_clust_9="13000.00000"></scales>
<clustering>
<clus scale="   80.328">  5  6 -1 -1</clus>
<clus scale="   88.022">  7  8 -1 -1</clus>
<clus scale="  202.385">  1  7  2 -1</clus>
<clus scale="  162.371">  5  9 -1 -1</clus>
<clus scale="  424.626">  2  5  1 -1</clus>
</clustering>
</event>
<event>
 9    2  0.3726337E-005  0.3308337E+03  0.7546771E-02  0.1080418E+00
         21   -1    0    0  501  502  0.00000000000E+00  0.00000000000E+00  0.41682097350E+03  0.41682097350E+03  0.00000000000E+00 0.  1.
         -3   -1    0    0    0  501 -0.00000000000E+00 -0.00000000000E+00 -0.30062070466E+03  0.30062070466E+03  0.00000000000E+00 0.  1.
         23    2    1    2    0    0 -0.23378980151E+03  0.40763751072E+02 -0.14765217668E+03  0.29427618212E+03  0.92075791576E+02 0.  0.
         24    2    1    2    0    0  0.10467823900E+03 -0.87750850428E+02  0.23459257049E+03  0.28268872443E+03  0.78876456036E+02 0.  0.
        -13    1    4    4    0    0  0.10119144359E+03 -0.73375245699E+02  0.23676887868E+03  0.26773706663E+03  0.00000000000E+00 0.  1.
         14    1    4    4    0    0  0.34867954160E+01 -0.14375604729E+02 -0.21763081866E+01  0.14951657798E+02  0.00000000000E+00 0. -1.
        -11    1    3    3    0    0 -0.15923194481E+03  0.70519274664E+02 -0.10537824696E+03  0.20354939273E+03  0.00000000000E+00 0.  1.
         11    1    3    3    0    0 -0.74557856697E+02 -0.29755523592E+02 -0.42273929712E+02  0.90726789389E+02  0.00000000000E+00 0. -1.
         -4    1    1    2    0  502  0.12911156251E+03  0.46987099356E+02  0.29259875023E+02  0.14047677162E+03  0.00000000000E+00 0.  1.
<scales pt_clust_5="13000.00000" pt_clust_6="13000.00000" pt_clust_7="13000.00000" pt_clust_8="13000.00000" pt_clust_9="13000.00000"></scales>
<clustering>
<clus scale="   78.876">  5  6 -1 -1</clus>
<clus scale="   92.076">  7  8 -1 -1</clus>
<clus scale="  137.396">  5  9 -1 -1</clus>
<clus scale="  254.553">  2  7  1 -1</clus>
<clus scale="  330.834">  1  5  2 -1</clus>
</clustering>
</event>
<event>
 9    2  0.3726337E-005  0.1635761E+03  0.7546771E-02  0.1191956E+00
          2   -1    0    0  502    0 -0.00000000000E+00  0.00000000000E+00  0.34491507760E+03  0.34491507760E+03  0.00000000000E+00 0. -1.
         21   -1    0    0  501  502  0.00000000000E+00 -0.00000000000E+00 -0.28895289383E+03  0.28895289383E+03  0.00000000000E+00 0. -1.
         23    2    1    2    0    0 -0.21990912214E+02 -0.10190750337E+03  0.30534008374E+03  0.33562899581E+03  0.92441963553E+02 0.  0.
         24    2    1    2    0    0 -0.17853200647E+02  0.46836479105E+02 -0.16284686719E+03  0.18820266037E+03  0.79929635735E+02 0.  0.
        -13    1    4    4    0    0 -0.31285909203E+02  0.51966453350E+01 -0.17101410587E+02  0.36031534542E+02  0.00000000000E+00 0.  1.
         14    1    4    4    0    0  0.13432708556E+02  0.41639833770E+02 -0.14574545660E+03  0.15217112583E+03  0.00000000000E+00 0. -1.
        -13    1    3    3    0    0  0.30058063045E+02 -0.69611865997E+02  0.19828990409E+03  0.21229268736E+03  0.00000000000E+00 0. -1.
         13    1    3    3    0    0 -0.52048975259E+02 -0.32295637371E+02  0.10705017965E+03  0.12333630845E+03  0.00000000000E+00 0.  1.
          1    1    1    2  501    0  0.39844112861E+02  0.55071024262E+02 -0.86531032778E+02  0.11003631526E+03  0.00000000000E+00 0. -1.
<scales pt_clust_5="13000.00000" pt_clust_6="13000.00000" pt_clust_7="13000.00000" pt_clust_8="13000.00000" pt_clust_9="13000.00000"></scales>
<clustering>
<clus scale="   79.930">  5  6 -1 -1</clus>
<clus scale="   67.973">  5  9 -1 -1</clus>
<clus scale="   92.442">  7  8 -1 -1</clus>
<clus scale="  139.335">  1  7  2 -1</clus>
<clus scale="  163.576">  2  5  1 -1</clus>
</clustering>
</event>
<event>
 9    2  0.3726337E-005  0.3096123E+03  0.7546771E-02  0.1097942E+00
         21   -1    0    0  501  502  0.00000000000E+00  0.00000000000E+00  0.45724646647E+03  0.45724646647E+03  0.00000000000E+00 0. -1.
          2   -1    0    0  502    0 -0.00000000000E+00 -0.00000000000E+00 -0.24460174590E+03  0.24460174590E+03  0.00000000000E+00 0. -1.
         23    2    1    2    0    0  0.13861956140E+03  0.10219931501E+03 -0.13418344091E+03  0.23692932644E+03  0.92033836823E+02 0.  0.
         24    2    1    2    0    0 -0.11904880342E+02  0.44536457795E+02  0.18265346068E+03  0.21086902902E+03  0.94753566955E+02 0.  0.
        -13    1    4    4    0    0 -0.25041815770E+02 -0.24419576344E+02  0.66971422026E+02  0.75555142870E+02  0.00000000000E+00 0.  1.
         14    1    4    4    0    0  0.13136935429E+02  0.68956034140E+02  0.11568203866E+03  0.13531388615E+03  0.00000000000E+00 0. -1.
        -11    1    3    3    0    0  0.95632198025E+02  0.67481947232E+02 -0.13870425700E+03  0.18148884652E+03  0.00000000000E+00 0. -1.
         11    1    3    3    0    0  0.42987363370E+02  0.34717367780E+02  0.45208160903E+01  0.55440479915E+02  0.00000000000E+00 0.  1.
          1    1    1    2  501    0 -0.12671468105E+03 -0.14673577281E+03  0.16417470080E+03  0.25404985691E+03  0.00000000000E+00 0. -1.
<scales pt_clust_5="13000.00000" pt_clust_6="13000.00000" pt_clust_7="13000.00000" pt_clust_8="13000.00000" pt_clust_9="13000.00000"></scales>
<clustering>
<clus scale="   92.034">  7  8 -1 -1</clus>
<clus scale="   94.754">  5  6 -1 -1</clus>
<clus scale="  193.876">  5  9 -1 -1</clus>
<clus scale="  195.270">  2  7  1 -1</clus>
<clus scale="  309.612">  1  5  2 -1</clus>
</clustering>
</event>
<event>
 9    2  0.3726337E-005  0.1426789E+03  0.7546771E-02  0.1231156E+00
         -1   -1    0    0    0  501 -0.00000000000E+00  0.00000000000E+00  0.21101603075E+03  0.21101603075E+03  0.00000000000E+00 0.  1.
         21   -1    0    0  501  502  0.00000000000E+00 -0.00000000000E+00 -0.37574773565E+03  0.37574773565E+03  0.00000000000E+00 0. -1.
         23    2    1    2    0    0 -0.93616134849E+01 -0.95502005377E+01  0.18655565593E+03  0.20760671425E+03  0.90103767432E+02 0.  0.
         24    2    1    2    0    0 -0.38532877989E+02  0.22068589492E+02 -0.23229950293E+03  0.25028229626E+03  0.81892389348E+02 0.  0.
        -11    1    4    4    0    0 -0.23107544337E+02 -0.30403848029E+02 -0.86166717652E+02  0.94249964515E+02  0.00000000000E+00 0.  1.
         12    1    4    4    0    0 -0.15425333652E+02  0.52472437520E+02 -0.14613278528E+03  0.15603233175E+03  0.00000000000E+00 0. -1.
        -13    1    3    3    0    0  0.38638666701E+01 -0.34426731118E+02  0.22862900697E+02  0.41507126007E+02  0.00000000000E+00 0.  1.
         13    1    3    3    0    0 -0.13225480155E+02  0.24876530580E+02  0.16369275523E+03  0.16609958825E+03  0.00000000000E+00 0. -1.
         -2    1    1    2    0  502  0.47894491474E+02 -0.12518388954E+02 -0.11898785790E+03  0.12887475588E+03  0.00000000000E+00 0.  1.
<scales pt_clust_5="13000.00000" pt_clust_6="13000.00000" pt_clust_7="13000.00000" pt_clust_8="13000.00000" pt_clust_9="13000.00000"></scales>
<clustering>
<clus scale="   81.892">  5  6 -1 -1</clus>
<clus scale="   49.503">  5  9 -1 -1</clus>
<clus scale="   90.104">  7  8 -1 -1</clus>
<clus scale="   91.091">  1  7  2 -1</clus>
<clus scale="  142.679">  2  5  1 -1</clus>
</clustering>
</event>
<event>
 9    2  0.3726337E-005  0.2246407E+03  0.7546771E-02  0.1166794E+00
         -1   -1    0    0    0  501 -0.00000000000E+00  0.00000000000E+00  0.58014028554E+03  0.58014028554E+03  0.00000000000E+00 0.  1.
         21   -1    0    0  501  502  0.00000000000E+00 -0.00000000000E+00 -0.48215158401E+02  0.48215158401E+02  0.00000000000E+00 0.  1.
         23    2    1    2    0    0 -0.24836592209E+02  0.13056015643E+02  0.25330466020E+03  0.27045485917E+03  0.90527698049E+02 0.  0.
         24    2    1    2    0    0 -0.18902940128E+02  0.41869881802E+02  0.27230149163E+03  0.28740285184E+03  0.79635976509E+02 0.  0.
        -13    1    4    4    0    0 -0.10274953838E+02  0.34007736439E+02  0.35190537242E+02  0.50004747030E+02  0.00000000000E+00 0.  1.
         14    1    4    4    0    0 -0.86279862903E+01  0.78621453630E+01  0.23711095439E+03  0.23739810481E+03  0.00000000000E+00 0. -1.
        -13    1    3    3    0    0 -0.51999873848E+02  0.29877553255E+02  0.19443550784E+03  0.20347437622E+03  0.00000000000E+00 0.  1.
         13    1    3    3    0    0  0.27163281639E+02 -0.16821537612E+02  0.58869152353E+02  0.66980482947E+02  0.00000000000E+00 0. -1.
         -2    1    1    2    0  502  0.43739532338E+02 -0.54925897445E+02  0.63189753122E+01  0.70497732930E+02  0.00000000000E+00 0.  1.
<scales pt_clust_5="13000.00000" pt_clust_6="13000.00000" pt_clust_7="13000.00000" pt_clust_8="13000.00000" pt_clust_9="13000.00000"></scales>
<clustering>
<clus scale="   79.636">  5  6 -1 -1</clus>
<clus scale="   70.214">  5  9 -1 -1</clus>
<clus scale="   90.528">  7  8 -1 -1</clus>
<clus scale="   94.776">  1  7  2 -1</clus>
<clus scale="  224.641">  2  5  1 -1</clus>
</clustering>
</event>
<event>
 9    2  0.3726337E-005  0.1450689E+03  0.7546771E-02  0.1210220E+00
         -1   -1    0    0    0  501 -0.00000000000E+00  0.00000000000E+00  0.17562185856E+03  0.17562185856E+03  0.00000000000E+00 0.  1.
         21   -1    0    0  501  502  0.00000000000E+00 -0.00000000000E+00 -0.11284783887E+03  0.11284783887E+03  0.00000000000E+00 0.  1.
         23    2    1    2    0    0  0.95316116765E+02  0.27590792929E+02  0.47559104773E+02  0.14260512371E+03  0.90707986931E+02 0.  0.
         24    2    1    2    0    0 -0.72547238188E+02 -0.28590390463E+02 -0.93328487030E+01  0.11236810038E+03  0.80367753007E+02 0.  0.
        -11    1    4    4    0    0 -0.58019746804E+02 -0.19188336174E+02 -0.42857504969E+02  0.74640799811E+02  0.00000000000E+00 0.  1.
         12    1    4    4    0    0 -0.14527491384E+02 -0.94020542892E+01  0.33524656266E+02  0.37727300573E+02  0.00000000000E+00 0. -1.
        -11    1    3    3    0    0  0.64474257246E+02 -0.18100702521E+02  0.55414907294E+02  0.86921672956E+02  0.00000000000E+00 0. -1.
         11    1    3    3    0    0  0.30841859520E+02  0.45691495450E+02 -0.78558025206E+01  0.55683450758E+02  0.00000000000E+00 0.  1.
         -2    1    1    2    0  502 -0.22768878577E+02  0.99959753421E+00  0.24547763615E+02  0.33496473328E+02  0.00000000000E+00 0.  1.
<scales pt_clust_5="13000.00000" pt_clust_6="13000.00000" pt_clust_7="13000.00000" pt_clust_8="13000.00000" pt_clust_9="13000.00000"></scales>
<clustering>
<clus scale="   80.368">  5  6 -1 -1</clus>
<clus scale="   22.791">  5  9 -1 -1</clus>
<clus scale="   90.708">  7  8 -1 -1</clus>
<clus scale="  134.441">  1  7  2 -1</clus>
<clus scale="  145.069">  2  5  1 -1</clus>
</clustering>
</event>
<event>
 9    2  0.3726337E-005  0.1814821E+03  0.7546771E-02  0.1196048E+00
         21   -1    0    0  501  502  0.00000000000E+00  0.00000000000E+00  0.14051766544E+03  0.14051766544E+03  0.00000000000E+00 0.  1.
          4   -1    0    0  502    0 -0.00000000000E+00 -0.00000000000E+00 -0.13540849441E+03  0.13540849441E+03  0.00000000000E+00 0. -1.
         23    2    1    2    0    0 -0.62860672855E+01 -0.15006521938E+02  0.13561528723E+02  0.94247381845E+02  0.91836504620E+02 0.  0.
         24    2    1    2    0    0  0.57927728909E+02  0.57648712486E+02  0.33513867270E+01  0.11367476333E+03  0.78941270555E+02 0.  0.
        -11    1    4    4    0    0  0.13754844343E+02  0.60107950971E+02 -0.18437227927E+02  0.64359093269E+02  0.00000000000E+00 0.  1.
         12    1    4    4    0    0  0.44172884567E+02 -0.24592384846E+01  0.21788614654E+02  0.49315670059E+02  0.00000000000E+00 0. -1.
        -13    1    3    3    0    0 -0.29768861396E+02 -0.45746652791E+02  0.83444829946E+01  0.55213872776E+02  0.00000000000E+00 0.  1.
         13    1    3    3    0    0  0.23482794111E+02  0.30740130853E+02  0.52170457284E+01  0.39033509069E+02  0.00000000000E+00 0. -1.
          3    1    1    2  501    0 -0.51641661624E+02 -0.42642190549E+02 -0.11803744411E+02  0.68004014677E+02  0.00000000000E+00 0. -1.
<scales pt_clust_5="13000.00000" pt_clust_6="13000.00000" pt_clust_7="13000.00000" pt_clust_8="13000.00000" pt_clust_9="13000.00000"></scales>
<clustering>
<clus scale="   78.941">  5  6 -1 -1</clus>
<clus scale="   66.972">  5  9 -1 -1</clus>
<clus scale="   91.837">  7  8 -1 -1</clus>
<clus scale="   93.267">  2  7  1 -1</clus>
<clus scale="  181.482">  1  5  2 -1</clus>
</clustering>
</event>
<event>
 9    2  0.3726337E-005  0.1744462E+03  0.7546771E-02  0.1198408E+00
         -1   -1    0    0    0  501 -0.00000000000E+00  0.00000000000E+00  0.11063865536E+03  0.11063865536E+03  0.00000000000E+00 0.  1.
         21   -1    0    0  501  502  0.00000000000E+00 -0.00000000000E+00 -0.18075374471E+03  0.18075374471E+03  0.00000000000E+00 0.  1.
         23    2    1    2    0    0 -0.40241969269E+02  0.16868066250E+02  0.83916985405E+01  0.10009473501E+03  0.89691625152E+02 0.  0.
         24    2    1    2    0    0 -0.97132070142E+01 -0.57731081124E+02 -0.18448910634E+02  0.10313727576E+03  0.82883721131E+02 0.  0.
        -11    1    4    4    0    0 -0.48043622228E+01 -0.58201113726E+02 -0.46503421809E+02  0.74652660872E+02  0.00000000000E+00 0.  1.
         12    1    4    4    0    0 -0.49088447915E+01  0.47003260175E+00  0.28054511175E+02  0.28484614884E+02  0.00000000000E+00 0. -1.
        -13    1    3    3    0    0 -0.68429542360E+02  0.44388897536E+01  0.97257816119E+01  0.69259633537E+02  0.00000000000E+00 0.  1.
         13    1    3    3    0    0  0.28187573090E+02  0.12429176497E+02 -0.13340830715E+01  0.30835101471E+02  0.00000000000E+00 0. -1.
         -2    1    1    2    0  502  0.49955176284E+02  0.40863014874E+02 -0.60057877257E+02  0.88160389307E+02  0.00000000000E+00 0.  1.
<scales pt_clust_5="13000.00000" pt_clust_6="13000.00000" pt_clust_7="13000.00000" pt_clust_8="13000.00000" pt_clust_9="13000.00000"></scales>
<clustering>
<clus scale="   82.884">  5  6 -1 -1</clus>
<clus scale="   64.539">  5  9 -1 -1</clus>
<clus scale="   89.692">  7  8 -1 -1</clus>
<clus scale="   99.742">  1  7  2 -1</clus>
<clus scale="  174.446">  2  5  1 -1</clus>
</clustering>
</event>
<event>
 9    2  0.3726337E-005  0.4526431E+03  0.7546771E-02  0.1045643E+00
         -1   -1    0    0    0  501 -0.00000000000E+00  0.00000000000E+00  0.50439873624E+03  0.50439873624E+03  0.00000000000E+00 0.  1.
         21   -1    0    0  501  502  0.00000000000E+00 -0.00000000000E+00 -0.28726040500E+03  0.28726040500E+03  0.00000000000E+00 0.  1.
         23    2    1    2    0    0  0.61626210119E+02 -0.23851624343E+03  0.21561944188E+03  0.33901349296E+03  0.88037585959E+02 0.  0.
         24    2    1    2    0    0  0.30140237954E+02 -0.77035097442E+02  0.44280858011E+02  0.12125114669E+03  0.76799778676E+02 0.  0.
        -13    1    4    4    0    0  0.45125528255E+02 -0.18932879420E+02  0.42511124329E+01  0.49120659404E+02  0.00000000000E+00 0.  1.
         14    1    4    4    0    0 -0.14985290300E+02 -0.58102218021E+02  0.40029745578E+02  0.72130487282E+02  0.00000000000E+00 0. -1.
        -13    1    3    3    0    0  0.73569439761E+02 -0.22071715845E+03  0.16855108047E+03  0.28729426244E+03  0.00000000000E+00 0.  1.
         13    1    3    3    0    0 -0.11943229642E+02 -0.17799084975E+02  0.47068361409E+02  0.51719230524E+02  0.00000000000E+00 0. -1.
         -2    1    1    2    0  502 -0.91766448073E+02  0.31555134087E+03 -0.42761968649E+02  0.33139450158E+03  0.00000000000E+00 0.  1.
<scales pt_clust_5="13000.00000" pt_clust_6="13000.00000" pt_clust_7="13000.00000" pt_clust_8="13000.00000" pt_clust_9="13000.00000"></scales>
<clustering>
<clus scale="   76.800">  5  6 -1 -1</clus>
<clus scale="   88.038">  7  8 -1 -1</clus>
<clus scale="  261.607">  1  7  2 -1</clus>
<clus scale="  172.199">  5  9 -1 -1</clus>
<clus scale="  452.643">  2  5  1 -1</clus>
</clustering>
</event>
<event>
 9    2  0.4116856E-005  0.8218633E+03  0.7546771E-02  0.1019823E+00
         21   -1    0    0  501  502  0.00000000000E+00  0.00000000000E+00  0.52462368274E+03  0.52462368274E+03  0.00000000000E+00 0. -1.
          2   -1    0    0  502    0 -0.00000000000E+00 -0.00000000000E+00 -0.46979610123E+03  0.46979610123E+03  0.00000000000E+00 0. -1.
         23    2    1    2    0    0 -0.12137028551E+02 -0.19600126691E+02  0.13969905482E+03  0.16818593514E+03  0.90770096578E+02 0.  0.
         24    2    1    2    0    0 -0.28060355422E+03  0.22825887092E+03 -0.23268907131E+03  0.43753658536E+03  0.80334256864E+02 0.  0.
        -13    1    4    4    0    0 -0.67024608417E+02  0.73776747016E+02 -0.27226081754E+02  0.10332747002E+03  0.00000000000E+00 0.  1.
         14    1    4    4    0    0 -0.21357894580E+03  0.15448212391E+03 -0.20546298956E+03  0.33420911534E+03  0.00000000000E+00 0. -1.
        -13    1    3    3    0    0 -0.77440657060E+01 -0.52296031699E+02  0.50614860144E+02  0.73189545378E+02  0.00000000000E+00 0. -1.
         13    1    3    3    0    0 -0.43929628448E+01  0.32695905008E+02  0.89084194673E+02  0.94996389760E+02  0.00000000000E+00 0.  1.
          1    1    1    2  501    0  0.29274058277E+03 -0.20865874423E+03  0.14781759801E+03  0.38869726347E+03  0.00000000000E+00 0. -1.
<scales pt_clust_5="13000.00000" pt_clust_6="13000.00000" pt_clust_7="13000.00000" pt_clust_8="13000.00000" pt_clust_9="13000.00000"></scales>
<clustering>
<clus scale="   80.334">  5  6 -1 -1</clus>
<clus scale="   90.770">  7  8 -1 -1</clus>
<clus scale="   93.652">  2  7  1 -1</clus>
<clus scale="  359.940">  5  9 -1 -1</clus>
<clus scale="  821.863">  1  5  2 -1</clus>
</clustering>
</event>
<event>
 9    2  0.3726337E-005  0.2556844E+03  0.7546771E-02  0.1146944E+00
         21   -1    0    0  501  502  0.00000000000E+00  0.00000000000E+00  0.27646209226E+03  0.27646209226E+03  0.00000000000E+00 0.  1.
          4   -1    0    0  502    0 -0.00000000000E+00 -0.00000000000E+00 -0.13381738779E+03  0.13381738779E+03  0.00000000000E+00 0. -1.
         23    2    1    2    0    0 -0.28675292561E+02  0.36979695897E+02  0.11372873798E+03  0.15296521708E+03  0.90963517303E+02 0.  0.
         24    2    1    2    0    0  0.69699643266E+02  0.77781366045E+02  0.21754065993E+02  0.13523071983E+03  0.83103110790E+02 0.  0.
        -13    1    4    4    0    0 -0.16978602477E+01  0.59793275038E+02  0.84897687813E+01  0.60416840725E+02  0.00000000000E+00 0.  1.
         14    1    4    4    0    0  0.71397503513E+02  0.17988091006E+02  0.13264297211E+02  0.74813879103E+02  0.00000000000E+00 0. -1.
        -13    1    3    3    0    0 -0.31875406310E+02 -0.20497621270E+02  0.73627746789E+02  0.82808448255E+02  0.00000000000E+00 0.  1.
         13    1    3    3    0    0  0.32001137496E+01  0.57477317167E+02  0.40100991192E+02  0.70156768821E+02  0.00000000000E+00 0. -1.
          3    1    1    2  501    0 -0.41024350705E+02 -0.11476106194E+03  0.71619004958E+01  0.12208354315E+03  0.00000000000E+00 0. -1.
<scales pt_clust_5="13000.00000" pt_clust_6="13000.00000" pt_clust_7="13000.00000" pt_clust_8="13000.00000" pt_clust_9="13000.00000"></scales>
<clustering>
<clus scale="   83.103">  5  6 -1 -1</clus>
<clus scale="   90.964">  7  8 -1 -1</clus>
<clus scale="  102.294">  2  7  1 -1</clus>
<clus scale="  110.998">  5  9 -1 -1</clus>
<clus scale="  255.684">  1  5  2 -1</clus>
</clustering>
</event>
<event>
 9    2  0.3726337E-005  0.2923746E+03  0.7546771E-02  0.1094024E+00
         -1   -1    0    0    0  501 -0.00000000000E+00  0.00000000000E+00  0.11126318793E+04  0.11126318793E+04  0.00000000000E+00 0.  1.
         21   -1    0    0  501  502  0.00000000000E+00 -0.00000000000E+00 -0.10028317845E+03  0.10028317845E+03  0.00000000000E+00 0. -1.
         23    2    1    2    0    0  0.10023379626E+03 -0.21855331279E+03  0.13934554945E+03  0.29225366998E+03  0.90458062219E+02 0.  0.
         24    2    1    2    0    0 -0.78042430191E+02  0.11343852384E+03  0.31569370860E+03  0.35309166463E+03  0.77796441960E+02 0.  0.
        -13    1    4    4    0    0 -0.70841703837E+02  0.11482049659E+03  0.22679158473E+03  0.26388769646E+03  0.00000000000E+00 0.  1.
         14    1    4    4    0    0 -0.72007263539E+01 -0.13819727468E+01  0.88902123875E+02  0.89203968175E+02  0.00000000000E+00 0. -1.
        -13    1    3    3    0    0  0.61153824420E+02 -0.20655820474E+03  0.10960847020E+03  0.24170250087E+03  0.00000000000E+00 0. -1.
         13    1    3    3    0    0  0.39079971839E+02 -0.11995108052E+02  0.29737079253E+02  0.50551169112E+02  0.00000000000E+00 0.  1.
         -2    1    1    2    0  502 -0.22191366068E+02  0.10511478895E+03  0.55730944280E+03  0.56756972314E+03  0.00000000000E+00 0.  1.
<scales pt_clust_5="13000.00000" pt_clust_6="13000.00000" pt_clust_7="13000.00000" pt_clust_8="13000.00000" pt_clust_9="13000.00000"></scales>
<clustering>
<clus scale="   77.796">  5  6 -1 -1</clus>
<clus scale="   90.458">  7  8 -1 -1</clus>
<clus scale="  107.432">  5  9 -1 -1</clus>
<clus scale="  256.895">  1  7  2 -1</clus>
<clus scale="  292.375">  2  5  1 -1</clus>
</clustering>
</event>
<event>
 9    2  0.3726337E-005  0.4649757E+03  0.7546771E-02  0.1057482E+00
         21   -1    0    0  501  502  0.00000000000E+00  0.00000000000E+00  0.35495983676E+03  0.35495983676E+03  0.00000000000E+00 0. -1.
          2   -1    0    0  502    0 -0.00000000000E+00 -0.00000000000E+00 -0.34177910659E+03  0.34177910659E+03  0.00000000000E+00 0. -1.
         23    2    1    2    0    0  0.44338635206E+02 -0.13792053675E+03 -0.12358645687E+03  0.21206617424E+03  0.93329850008E+02 0.  0.
         24    2    1    2    0    0 -0.71513833514E+02 -0.12120867214E+03 -0.43732389127E+02  0.16770820438E+03  0.80048418917E+02 0.  0.
        -11    1    4    4    0    0 -0.44806038686E+02 -0.20650047276E+02  0.10405675819E+02  0.50421063500E+02  0.00000000000E+00 0.  1.
         12    1    4    4    0    0 -0.26707794828E+02 -0.10055862487E+03 -0.54138064946E+02  0.11728714088E+03  0.00000000000E+00 0. -1.
        -11    1    3    3    0    0 -0.33705997981E+01 -0.65754015309E+02 -0.60406316191E+01  0.66116871543E+02  0.00000000000E+00 0.  1.
         11    1    3    3    0    0  0.47709235004E+02 -0.72166521444E+02 -0.11754582525E+03  0.14594930269E+03  0.00000000000E+00 0. -1.
          1    1    1    2  501    0  0.27175198308E+02  0.25912920889E+03  0.18049957617E+03  0.31696456474E+03  0.00000000000E+00 0. -1.
<scales pt_clust_5="13000.00000" pt_clust_6="13000.00000" pt_clust_7="13000.00000" pt_clust_8="13000.00000" pt_clust_9="13000.00000"></scales>
<clustering>
<clus scale="   80.048">  5  6 -1 -1</clus>
<clus scale="   93.330">  7  8 -1 -1</clus>
<clus scale="  172.332">  2  7  1 -1</clus>
<clus scale="  209.818">  5  9 -1 -1</clus>
<clus scale="  464.976">  1  5  2 -1</clus>
</clustering>
</event>
<event>
 9    2  0.3726337E-005  0.1969105E+03  0.7546771E-02  0.1179310E+00
          2   -1    0    0  502    0 -0.00000000000E+00  0.00000000000E+00  0.52443707193E+02  0.52443707193E+02  0.00000000000E+00 0. -1.
         21   -1    0    0  501  502  0.00000000000E+00 -0.00000000000E+00 -0.43847240612E+03  0.43847240612E+03  0.00000000000E+00 0. -1.
         23    2    1    2    0    0  0.44126070676E+02 -0.22920877991E+02 -0.12137444457E+03  0.16104401019E+03  0.93439502681E+02 0.  0.
         24    2    1    2    0    0  0.40078571502E+02  0.17341656181E+02 -0.21069489501E+03  0.22970643066E+03  0.80409455722E+02 0.  0.
        -11    1    4    4    0    0  0.29205938960E+02  0.14190566246E+02 -0.18886053247E+02  0.37563839636E+02  0.00000000000E+00 0.  1.
         12    1    4    4    0    0  0.10872632541E+02  0.31510899349E+01 -0.19180884176E+03  0.19214259102E+03  0.00000000000E+00 0. -1.
        -13    1    3    3    0    0 -0.67554092342E+01 -0.46848279064E+02 -0.39110066594E+02  0.61400277801E+02  0.00000000000E+00 0.  1.
         13    1    3    3    0    0  0.50881479911E+02  0.23927401072E+02 -0.82264377975E+02  0.99643732385E+02  0.00000000000E+00 0. -1.
          1    1    1    2  501    0 -0.84204642178E+02  0.55792218100E+01 -0.53959359353E+02  0.10016567247E+03  0.00000000000E+00 0. -1.
<scales pt_clust_5="13000.00000" pt_clust_6="13000.00000" pt_clust_7="13000.00000" pt_clust_8="13000.00000" pt_clust_9="13000.00000"></scales>
<clustering>
<clus scale="   80.409">  5  6 -1 -1</clus>
<clus scale="   84.389">  5  9 -1 -1</clus>
<clus scale="   93.440">  7  8 -1 -1</clus>
<clus scale="  105.846">  1  7  2 -1</clus>
<clus scale="  196.910">  2  5  1 -1</clus>
</clustering>
</event>
<event>
 9    2  0.3726337E-005  0.1915936E+03  0.7546771E-02  0.1186310E+00
         -1   -1    0    0    0  501 -0.00000000000E+00  0.00000000000E+00  0.48989839010E+03  0.48989839010E+03  0.00000000000E+00 0.  1.
         21   -1    0    0  501  502  0.00000000000E+00 -0.00000000000E+00 -0.52885470818E+02  0.52885470818E+02  0.00000000000E+00 0.  1.
         23    2    1    2    0    0  0.22113117739E+02  0.37183688995E+02  0.27448696472E+03  0.29154132825E+03  0.88213579308E+02 0.  0.
         24    2    1    2    0    0 -0.34786287280E+02  0.50823795813E+02  0.65410829298E+02  0.11957144942E+03  0.78902540664E+02 0.  0.
        -11    1    4    4    0    0 -0.37155025053E+02  0.69200475376E+02  0.40057603532E+02  0.88169230912E+02  0.00000000000E+00 0.  1.
         12    1    4    4    0    0  0.23687377727E+01 -0.18376679563E+02  0.25353225767E+02  0.31402218507E+02  0.00000000000E+00 0. -1.
        -11    1    3    3    0    0  0.48854008976E+02  0.79294505963E+01  0.88702553651E+02  0.10157624429E+03  0.00000000000E+00 0. -1.
         11    1    3    3    0    0 -0.26740891237E+02  0.29254238399E+02  0.18578441107E+03  0.18996508397E+03  0.00000000000E+00 0.  1.
         -2    1    1    2    0  502  0.12673169541E+02 -0.88007484808E+02  0.97115125263E+02  0.13167108325E+03  0.00000000000E+00 0.  1.
<scales pt_clust_5="13000.00000" pt_clust_6="13000.00000" pt_clust_7="13000.00000" pt_clust_8="13000.00000" pt_clust_9="13000.00000"></scales>
<clustering>
<clus scale="   78.903">  5  6 -1 -1</clus>
<clus scale="   88.214">  7  8 -1 -1</clus>
<clus scale="   88.915">  5  9 -1 -1</clus>
<clus scale="   98.251">  1  7  2 -1</clus>
<clus scale="  191.594">  2  5  1 -1</clus>
</clustering>
</event>
<event>
 9    2  0.3726337E-005  0.1484857E+03  0.7546771E-02  0.1222351E+00
          2   -1    0    0  502    0 -0.00000000000E+00  0.00000000000E+00  0.35623559006E+03  0.35623559006E+03  0.00000000000E+00 0. -1.
         21   -1    0    0  501  502  0.00000000000E+00 -0.00000000000E+00 -0.52089789843E+02  0.52089789843E+02  0.00000000000E+00 0. -1.
         23    2    1    2    0    0  0.10415741296E+02  0.31947372524E+02  0.21310136519E+03  0.23414994914E+03  0.91021341231E+02 0.  0.
         24    2    1    2    0    0  0.11225651046E+02  0.25781622463E+02  0.63674329644E+02  0.10672093207E+03  0.80896413939E+02 0.  0.
        -13    1    4    4    0    0  0.11411957345E+02  0.27147668228E+02  0.82627087263E+02  0.87718095113E+02  0.00000000000E+00 0.  1.
         14    1    4    4    0    0 -0.18630629994E+00 -0.13660457650E+01 -0.18952757619E+02  0.19002836958E+02  0.00000000000E+00 0. -1.
        -13    1    3    3    0    0  0.41384847154E+02 -0.42884234840E+01  0.54659696427E+02  0.68693366226E+02  0.00000000000E+00 0.  1.
         13    1    3    3    0    0 -0.30969105858E+02  0.36235796008E+02  0.15844166876E+03  0.16545658291E+03  0.00000000000E+00 0. -1.
          1    1    1    2  501    0 -0.21641392342E+02 -0.57728994987E+02  0.27370105383E+02  0.67454498689E+02  0.00000000000E+00 0. -1.
<scales pt_clust_5="13000.00000" pt_clust_6="13000.00000" pt_clust_7="13000.00000" pt_clust_8="13000.00000" pt_clust_9="13000.00000"></scales>
<clustering>
<clus scale="   80.896">  5  6 -1 -1</clus>
<clus scale="   61.652">  5  9 -1 -1</clus>
<clus scale="   91.021">  7  8 -1 -1</clus>
<clus scale="   97.026">  1  7  2 -1</clus>
<clus scale="  148.486">  2  5  1 -1</clus>
</clustering>
</event>
<event>
 9    2  0.6048554E-005  0.1670104E+03  0.7546771E-02  0.1199155E+00
         -1   -1    0    0    0  501 -0.00000000000E+00  0.00000000000E+00  0.31372752679E+03  0.31372752679E+03  0.00000000000E+00 0.  1.
         21   -1    0    0  501  502  0.00000000000E+00 -0.00000000000E+00 -0.10005812122E+03  0.10005812122E+03  0.00000000000E+00 0.  1.
         23    2    1    2    0    0 -0.57784285870E+02 -0.25740059552E+02  0.21985225048E+03  0.24666084327E+03  0.92222476666E+02 0.  0.
         24    2    1    2    0    0 -0.19003391763E+02  0.22286597801E+02 -0.26898458110E+02  0.87516950442E+02  0.77960683848E+02 0.  0.
        -11    1    4    4    0    0 -0.15364314784E+02  0.15746116841E+02 -0.54576987101E+02  0.58844285070E+02  0.00000000000E+00 0.  1.
         12    1    4    4    0    0 -0.36390769789E+01  0.65404809600E+01  0.27678528991E+02  0.28672665372E+02  0.00000000000E+00 0. -1.
        -13    1    3    3    0    0 -0.70519267064E+02 -0.96692050276E+01  0.21371574843E+03  0.22525736765E+03  0.00000000000E+00 0.  1.
         13    1    3    3    0    0  0.12734981194E+02 -0.16070854525E+02  0.61365020462E+01  0.21403475618E+02  0.00000000000E+00 0. -1.
         -2    1    1    2    0  502  0.76787677633E+02  0.34534617517E+01  0.20715613203E+02  0.79607854290E+02  0.00000000000E+00 0.  1.
<scales pt_clust_5="13000.00000" pt_clust_6="13000.00000" pt_clust_7="13000.00000" pt_clust_8="13000.00000" pt_clust_9="13000.00000"></scales>
<clustering>
<clus scale="   77.961">  5  6 -1 -1</clus>
<clus scale="   76.865">  5  9 -1 -1</clus>
<clus scale="   92.222">  7  8 -1 -1</clus>
<clus scale="  111.833">  1  7  2 -1</clus>
<clus scale="  167.010">  2  5  1 -1</clus>
</clustering>
</event>
<event>
 9    2  0.3726337E-005  0.2731793E+03  0.7546771E-02  0.1125328E+00
         -1   -1    0    0    0  501 -0.00000000000E+00  0.00000000000E+00  0.31235666474E+03  0.31235666474E+03  0.00000000000E+00 0.  1.
         21   -1    0    0  501  502  0.00000000000E+00 -0.00000000000E+00 -0.17798055337E+03  0.17798055337E+03  0.00000000000E+00 0.  1.
         23    2    1    2    0    0 -0.24774092453E+02 -0.10442883553E+03  0.16255555192E+03  0.21570836296E+03  0.92664195058E+02 0.  0.
         24    2    1    2    0    0 -0.79380335548E+02  0.11428212083E+03  0.17002037812E+02  0.16067009906E+03  0.78512232362E+02 0.  0.
        -11    1    4    4    0    0 -0.90676489530E+02  0.93274392583E+02 -0.21138224948E+01  0.13010306034E+03  0.00000000000E+00 0.  1.
         12    1    4    4    0    0  0.11296153982E+02  0.21007728245E+02  0.19115860307E+02  0.30567038720E+02  0.00000000000E+00 0. -1.
        -13    1    3    3    0    0 -0.42948154122E+01 -0.45207418591E+02  0.14304307001E+03  0.15007823297E+03  0.00000000000E+00 0.  1.
         13    1    3    3    0    0 -0.20479277041E+02 -0.59221416938E+02  0.19512481912E+02  0.65630129991E+02  0.00000000000E+00 0. -1.
         -2    1    1    2    0  502  0.10415442800E+03 -0.98532852988E+01 -0.45181478359E+02  0.11395875609E+03  0.00000000000E+00 0.  1.
<scales pt_clust_5="13000.00000" pt_clust_6="13000.00000" pt_clust_7="13000.00000" pt_clust_8="13000.00000" pt_clust_9="13000.00000"></scales>
<clustering>
<clus scale="   78.512">  5  6 -1 -1</clus>
<clus scale="   92.664">  7  8 -1 -1</clus>
<clus scale="  104.620">  5  9 -1 -1</clus>
<clus scale="  141.795">  1  7  2 -1</clus>
<clus scale="  273.179">  2  5  1 -1</clus>
</clustering>
</event>
<event>
 9    2  0.3726337E-005  0.3586037E+03  0.7546771E-02  0.1083159E+00
         21   -1    0    0  501  502  0.00000000000E+00  0.00000000000E+00  0.12774750054E+03  0.12774750054E+03  0.00000000000E+00 0. -1.
          2   -1    0    0  502    0 -0.00000000000E+00 -0.00000000000E+00 -0.65201003620E+03  0.65201003620E+03  0.00000000000E+00 0. -1.
         23    2    1    2    0    0  0.30852575595E+02 -0.15696704373E+03 -0.64277056686E+02  0.19650520675E+03  0.94298579122E+02 0.  0.
         24    2    1    2    0    0 -0.11486181271E+02 -0.27365121666E+02 -0.36364510766E+03  0.37436271424E+03  0.83838506909E+02 0.  0.
        -13    1    4    4    0    0  0.27864411054E+02 -0.21953537448E+02 -0.74641374032E+02  0.82642107471E+02  0.00000000000E+00 0.  1.
         14    1    4    4    0    0 -0.39350592324E+02 -0.54115842174E+01 -0.28900373363E+03  0.29172060677E+03  0.00000000000E+00 0. -1.
        -13    1    3    3    0    0  0.59750008672E+01 -0.30396055609E+02 -0.59902542486E+02  0.67438382456E+02  0.00000000000E+00 0.  1.
         13    1    3    3    0    0  0.24877574728E+02 -0.12657098812E+03 -0.43745141993E+01  0.12906682429E+03  0.00000000000E+00 0. -1.
          1    1    1    2  501    0 -0.19366394324E+02  0.18433216539E+03 -0.96340371304E+02  0.20888961576E+03  0.00000000000E+00 0. -1.
<scales pt_clust_5="13000.00000" pt_clust_6="13000.00000" pt_clust_7="13000.00000" pt_clust_8="13000.00000" pt_clust_9="13000.00000"></scales>
<clustering>
<clus scale="   83.839">  5  6 -1 -1</clus>
<clus scale="   94.299">  7  8 -1 -1</clus>
<clus scale="  185.347">  5  9 -1 -1</clus>
<clus scale="  185.695">  2  7  1 -1</clus>
<clus scale="  358.604">  1  5  2 -1</clus>
</clustering>
</event>
<event>
 9    2  0.3726337E-005  0.4184469E+03  0.7546771E-02  0.1078290E+00
         21   -1    0    0  501  502  0.00000000000E+00  0.00000000000E+00  0.55652747698E+02  0.55652747698E+02  0.00000000000E+00 0. -1.
          2   -1    0    0  502    0 -0.00000000000E+00 -0.00000000000E+00 -0.19569534900E+04  0.19569534900E+04  0.00000000000E+00 0. -1.
         23    2    1    2    0    0  0.25829057998E+02  0.94102314502E+02 -0.10909770112E+03  0.17220150770E+03  0.90711989458E+02 0.  0.
         24    2    1    2    0    0 -0.20601697501E+03 -0.48237235370E+02 -0.81958389314E+03  0.85017278846E+03  0.79411507137E+02 0.  0.
        -11    1    4    4    0    0 -0.33827126626E+02  0.14834971850E+02 -0.22310347639E+03  0.22614046976E+03  0.00000000000E+00 0.  1.
         12    1    4    4    0    0 -0.17218984839E+03 -0.63072207220E+02 -0.59648041675E+03  0.62403231869E+03  0.00000000000E+00 0. -1.
        -13    1    3    3    0    0 -0.20547197694E+02  0.18321954099E+02  0.45966291433E+01  0.27910756610E+02  0.00000000000E+00 0.  1.
         13    1    3    3    0    0  0.46376255693E+02  0.75780360404E+02 -0.11369433026E+03  0.14429075108E+03  0.00000000000E+00 0. -1.
          1    1    1    2  501    0  0.18018791701E+03 -0.45865079132E+02 -0.97261914804E+03  0.99023194154E+03  0.00000000000E+00 0. -1.
<scales pt_clust_5="13000.00000" pt_clust_6="13000.00000" pt_clust_7="13000.00000" pt_clust_8="13000.00000" pt_clust_9="13000.00000"></scales>
<clustering>
<clus scale="   79.412">  5  6 -1 -1</clus>
<clus scale="   90.712">  7  8 -1 -1</clus>
<clus scale="  133.233">  2  7  1 -1</clus>
<clus scale="  194.208">  5  9 -1 -1</clus>
<clus scale="  418.447">  1  5  2 -1</clus>
</clustering>
</event>
<event>
 9    2  0.3726337E-005  0.3462898E+03  0.7546771E-02  0.1100351E+00
         21   -1    0    0  501  502  0.00000000000E+00  0.00000000000E+00  0.13857922104E+03  0.13857922104E+03  0.00000000000E+00 0.  1.
         -1   -1    0    0    0  501 -0.00000000000E+00 -0.00000000000E+00 -0.46346669517E+03  0.46346669517E+03  0.00000000000E+00 0.  1.
         23    2    1    2    0    0  0.14054449723E+02 -0.95445454178E+02 -0.58962719180E+01  0.13122537067E+03  0.88757926997E+02 0.  0.
         24    2    1    2    0    0 -0.31175205274E+02  0.16835699086E+03 -0.34343579210E+03  0.39203761320E+03  0.80183396477E+02 0.  0.
        -13    1    4    4    0    0 -0.26694060152E+02  0.17060490983E+03 -0.28390460236E+03  0.33229569866E+03  0.00000000000E+00 0.  1.
         14    1    4    4    0    0 -0.44811451217E+01 -0.22479189645E+01 -0.59531189737E+02  0.59741914539E+02  0.00000000000E+00 0. -1.
        -13    1    3    3    0    0 -0.57023466789E+01 -0.45357769112E+02  0.39794084029E+02  0.60608688322E+02  0.00000000000E+00 0.  1.
         13    1    3    3    0    0  0.19756796402E+02 -0.50087685066E+02 -0.45690355947E+02  0.70616682348E+02  0.00000000000E+00 0. -1.
         -2    1    1    2    0  502  0.17120755551E+02 -0.72911536686E+02  0.24444589887E+02  0.78782932335E+02  0.00000000000E+00 0.  1.
<scales pt_clust_5="13000.00000" pt_clust_6="13000.00000" pt_clust_7="13000.00000" pt_clust_8="13000.00000" pt_clust_9="13000.00000"></scales>
<clustering>
<clus scale="   80.183">  5  6 -1 -1</clus>
<clus scale="   74.895">  5  9 -1 -1</clus>
<clus scale="   88.758">  7  8 -1 -1</clus>
<clus scale="  131.093">  2  7  1 -1</clus>
<clus scale="  346.290">  1  5  2 -1</clus>
</clustering>
</event>
<event>
 9    2  0.3726337E-005  0.2345920E+03  0.7546771E-02  0.1155277E+00
         -3   -1    0    0    0  501 -0.00000000000E+00  0.00000000000E+00  0.26637049981E+03  0.26637049981E+03  0.00000000000E+00 0.  1.
         21   -1    0    0  501  502  0.00000000000E+00 -0.00000000000E+00 -0.12077829885E+03  0.12077829885E+03  0.00000000000E+00 0.  1.
         23    2    1    2    0    0 -0.17472556828E+02  0.57054814360E+02 -0.41613407142E+01  0.10883327393E+03  0.90922069237E+02 0.  0.
         24    2    1    2    0    0  0.33620056717E+02 -0.76443053925E+02 -0.97164684661E+01  0.11686172416E+03  0.81168984877E+02 0.  0.
        -11    1    4    4    0    0 -0.70335308532E+01 -0.68603194546E+02 -0.24068381365E+02  0.73042151117E+02  0.00000000000E+00 0.  1.
         12    1    4    4    0    0  0.40653587570E+02 -0.78398593790E+01  0.14351912899E+02  0.43819573038E+02  0.00000000000E+00 0. -1.
        -11    1    3    3    0    0  0.26862842705E+01  0.76708707733E+02  0.98503109129E+01  0.77385209119E+02  0.00000000000E+00 0. -1.
         11    1    3    3    0    0 -0.20158841098E+02 -0.19653893373E+02 -0.14011651627E+02  0.31448064813E+02  0.00000000000E+00 0.  1.
         -4    1    1    2    0  502 -0.16147499889E+02  0.19388239565E+02  0.15947001014E+03  0.16145380058E+03  0.00000000000E+00 0.  1.
<scales pt_clust_5="13000.00000" pt_clust_6="13000.00000" pt_clust_7="13000.00000" pt_clust_8="13000.00000" pt_clust_9="13000.00000"></scales>
<clustering>
<clus scale="   81.169">  5  6 -1 -1</clus>
<clus scale="   25.232">  5  9 -1 -1</clus>
<clus scale="   90.922">  7  8 -1 -1</clus>
<clus scale="  108.754">  1  7  2 -1</clus>
<clus scale="  234.592">  2  5  1 -1</clus>
</clustering>
</event>
<event>
 9    2  0.3726337E-005  0.2972130E+03  0.7546771E-02  0.1130376E+00
         21   -1    0    0  501  502  0.00000000000E+00  0.00000000000E+00  0.20908314288E+03  0.20908314288E+03  0.00000000000E+00 0. -1.
          2   -1    0    0  502    0 -0.00000000000E+00 -0.00000000000E+00 -0.21280785379E+03  0.21280785379E+03  0.00000000000E+00 0. -1.
         23    2    1    2    0    0 -0.85250464703E+01  0.14008296285E+02  0.64857229781E+02  0.11686800878E+03  0.95826731334E+02 0.  0.
         24    2    1    2    0    0 -0.14873340765E+02  0.30344739053E+02  0.95909315570E+02  0.13305773079E+03  0.85812257024E+02 0.  0.
        -13    1    4    4    0    0 -0.26252845192E+01 -0.27123326412E+02  0.55245162285E+02  0.61600283363E+02  0.00000000000E+00 0.  1.
         14    1    4    4    0    0 -0.12248056246E+02  0.57468065465E+02  0.40664153284E+02  0.71457447424E+02  0.00000000000E+00 0. -1.
        -11    1    3    3    0    0 -0.46237489140E+02 -0.38575692275E+01  0.58484341229E+02  0.74653897496E+02  0.00000000000E+00 0. -1.
         11    1    3    3    0    0  0.37712442670E+02  0.17865865512E+02  0.63728885517E+01  0.42214111280E+02  0.00000000000E+00 0.  1.
          1    1    1    2  501    0  0.23398387235E+02 -0.44353035338E+02 -0.16449125626E+03  0.17196525711E+03  0.00000000000E+00 0. -1.
<scales pt_clust_5="13000.00000" pt_clust_6="13000.00000" pt_clust_7="13000.00000" pt_clust_8="13000.00000" pt_clust_9="13000.00000"></scales>
<clustering>
<clus scale="   85.812">  5  6 -1 -1</clus>
<clus scale="   50.147">  5  9 -1 -1</clus>
<clus scale="   95.827">  7  8 -1 -1</clus>
<clus scale="   97.220">  2  7  1 -1</clus>
<clus scale="  297.213">  1  5  2 -1</clus>
</clustering>
</event>
<event>
 9    2  0.3726337E-005  0.2390996E+03  0.7546771E-02  0.1158264E+00
         21   -1    0    0  501  502  0.00000000000E+00  0.00000000000E+00  0.10975298676E+04  0.10975298676E+04  0.00000000000E+00 0. -1.
          4   -1    0    0  502    0 -0.00000000000E+00 -0.00000000000E+00 -0.25567214578E+02  0.25567214578E+02  0.00000000000E+00 0. -1.
         23    2    1    2    0    0 -0.28354377590E+02  0.25217410401E+02  0.32183959762E+03  0.33578951509E+03  0.87943068682E+02 0.  0.
         24    2    1    2    0    0 -0.53618125694E+02 -0.70265805330E+02  0.22950123449E+03  0.25835016844E+03  0.79131574600E+02 0.  0.
        -11    1    4    4    0    0 -0.71660279190E+02 -0.42747549599E+02  0.13985644352E+03  0.16285691083E+03  0.00000000000E+00 0.  1.
         12    1    4    4    0    0  0.18042153496E+02 -0.27518255731E+02  0.89644790968E+02  0.95493257609E+02  0.00000000000E+00 0. -1.
        -11    1    3    3    0    0  0.13094293406E+01 -0.31610913950E+02  0.11082622055E+03  0.11525370123E+03  0.00000000000E+00 0. -1.
         11    1    3    3    0    0 -0.29663806931E+02  0.56828324351E+02  0.21101337708E+03  0.22053581386E+03  0.00000000000E+00 0.  1.
          3    1    1    2  501    0  0.81972503284E+02  0.45048394929E+02  0.52062182090E+03  0.52895739864E+03  0.00000000000E+00 0. -1.
<scales pt_clust_5="13000.00000" pt_clust_6="13000.00000" pt_clust_7="13000.00000" pt_clust_8="13000.00000" pt_clust_9="13000.00000"></scales>
<clustering>
<clus scale="   79.132">  5  6 -1 -1</clus>
<clus scale="   87.943">  7  8 -1 -1</clus>
<clus scale="   93.535">  5  9 -1 -1</clus>
<clus scale="   95.780">  2  7  1 -1</clus>
<clus scale="  239.100">  1  5  2 -1</clus>
</clustering>
</event>
<event>
 9    2  0.3726337E-005  0.4315784E+03  0.7546771E-02  0.1055978E+00
         21   -1    0    0  501  502  0.00000000000E+00  0.00000000000E+00  0.10408448249E+04  0.10408448249E+04  0.00000000000E+00 0.  1.
          2   -1    0    0  502    0 -0.00000000000E+00 -0.00000000000E+00 -0.10946911265E+03  0.10946911265E+03  0.00000000000E+00 0. -1.
         23    2    1    2    0    0  0.19978918923E+03 -0.50234338357E+02  0.45495194913E+03  0.50747687809E+03  0.90068290135E+02 0.  0.
         24    2    1    2    0    0 -0.39761227669E+02 -0.11614968752E+02 -0.41395199725E+02  0.97336588752E+02  0.77749509483E+02 0.  0.
        -11    1    4    4    0    0  0.13430734947E+02 -0.28665245847E+02 -0.96779826178E+01  0.33102028763E+02  0.00000000000E+00 0.  1.
         12    1    4    4    0    0 -0.53191962616E+02  0.17050277096E+02 -0.31717217107E+02  0.64234559989E+02  0.00000000000E+00 0. -1.
        -11    1    3    3    0    0  0.14032846695E+03 -0.26250897401E+02  0.39378278535E+03  0.41886282992E+03  0.00000000000E+00 0.  1.
         11    1    3    3    0    0  0.59460722281E+02 -0.23983440956E+02  0.61169163782E+02  0.88614048164E+02  0.00000000000E+00 0. -1.
          1    1    1    2  501    0 -0.16002796156E+03  0.61849307109E+02  0.51781896283E+03  0.54550047070E+03  0.00000000000E+00 0. -1.
<scales pt_clust_5="13000.00000" pt_clust_6="13000.00000" pt_clust_7="13000.00000" pt_clust_8="13000.00000" pt_clust_9="13000.00000"></scales>
<clustering>
<clus scale="   77.750">  5  6 -1 -1</clus>
<clus scale="   90.068">  7  8 -1 -1</clus>
<clus scale="  171.564">  5  9 -1 -1</clus>
<clus scale="  224.837">  2  7  1 -1</clus>
<clus scale="  431.578">  1  5  2 -1</clus>
</clustering>
</event>
<event>
 9    2  0.3726337E-005  0.5207463E+03  0.7546771E-02  0.1059280E+00
         21   -1    0    0  501  502  0.00000000000E+00  0.00000000000E+00  0.61509811694E+02  0.61509811694E+02  0.00000000000E+00 0. -1.
          2   -1    0    0  502    0 -0.00000000000E+00 -0.00000000000E+00 -0.17413213161E+04  0.17413213161E+04  0.00000000000E+00 0. -1.
         23    2    1    2    0    0  0.69944569343E+02 -0.25683576717E+02 -0.49627060234E+03  0.50979372399E+03  0.89739853920E+02 0.  0.
         24    2    1    2    0    0 -0.21424195730E+03  0.12400586130E+03 -0.32518385844E+03  0.41710029296E+03  0.83372913428E+02 0.  0.
        -13    1    4    4    0    0 -0.13058454592E+03  0.34155785560E+02 -0.20389284093E+03  0.24452245684E+03  0.00000000000E+00 0.  1.
         14    1    4    4    0    0 -0.83657411376E+02  0.89850075736E+02 -0.12129101752E+03  0.17257783611E+03  0.00000000000E+00 0. -1.
        -13    1    3    3    0    0  0.62070757404E+02  0.20764908428E+02 -0.21980911180E+03  0.22934691185E+03  0.00000000000E+00 0. -1.
         13    1    3    3    0    0  0.78738119389E+01 -0.46448485146E+02 -0.27646149054E+03  0.28044681214E+03  0.00000000000E+00 0.  1.
          1    1    1    2  501    0  0.14429738795E+03 -0.98322284579E+02 -0.85835704367E+03  0.87593711089E+03  0.00000000000E+00 0. -1.
<scales pt_clust_5="13000.00000" pt_clust_6="13000.00000" pt_clust_7="13000.00000" pt_clust_8="13000.00000" pt_clust_9="13000.00000"></scales>
<clustering>
<clus scale="   83.373">  5  6 -1 -1</clus>
<clus scale="   89.740">  7  8 -1 -1</clus>
<clus scale="  116.641">  2  7  1 -1</clus>
<clus scale="  225.575">  5  9 -1 -1</clus>
<clus scale="  520.746">  1  5  2 -1</clus>
</clustering>
</event>
<event>
 9    2  0.3726337E-005  0.5148430E+03  0.7546771E-02  0.1014860E+00
         21   -1    0    0  501  502  0.00000000000E+00  0.00000000000E+00  0.14972280713E+03  0.14972280713E+03  0.00000000000E+00 0. -1.
         -1   -1    0    0    0  501 -0.00000000000E+00 -0.00000000000E+00 -0.15335789260E+04  0.15335789260E+04  0.00000000000E+00 0.  1.
         23    2    1    2    0    0 -0.27599353700E+03 -0.33400717979E+03 -0.61489318369E+03  0.75790056522E+03  0.92662887919E+02 0.  0.
         24    2    1    2    0    0  0.22813012775E+03  0.11556401100E+03 -0.55119459028E+03  0.61326117370E+03  0.82918001604E+02 0.  0.
        -13    1    4    4    0    0  0.15252848524E+03  0.91390444662E+02 -0.45523609947E+03  0.48873004660E+03  0.00000000000E+00 0.  1.
         14    1    4    4    0    0  0.75601642508E+02  0.24173566335E+02 -0.95958490807E+02  0.12453112710E+03  0.00000000000E+00 0. -1.
        -13    1    3    3    0    0 -0.16124759300E+03 -0.13370225236E+03 -0.25046675317E+03  0.32651289864E+03  0.00000000000E+00 0.  1.
         13    1    3    3    0    0 -0.11474594400E+03 -0.20030492743E+03 -0.36442643052E+03  0.43138766658E+03  0.00000000000E+00 0. -1.
         -2    1    1    2    0  502  0.47863409250E+02  0.21844316879E+03 -0.21776834491E+03  0.31213999420E+03  0.00000000000E+00 0.  1.
<scales pt_clust_5="13000.00000" pt_clust_6="13000.00000" pt_clust_7="13000.00000" pt_clust_8="13000.00000" pt_clust_9="13000.00000"></scales>
<clustering>
<clus scale="   82.918">  5  6 -1 -1</clus>
<clus scale="   92.663">  7  8 -1 -1</clus>
<clus scale="  223.626">  5  9 -1 -1</clus>
<clus scale="  443.080">  2  7  1 -1</clus>
<clus scale="  514.843">  1  5  2 -1</clus>
</clustering>
</event>
<event>
 9    2  0.3726337E-005  0.2141779E+03  0.7546771E-02  0.1170297E+00
          2   -1    0    0  502    0 -0.00000000000E+00  0.00000000000E+00  0.47430538759E+02  0.47430538759E+02  0.00000000000E+00 0. -1.
         21   -1    0    0  501  502  0.00000000000E+00 -0.00000000000E+00 -0.71548219870E+03  0.71548219870E+03  0.00000000000E+00 0.  1.
         23    2    1    2    0    0 -0.33893310766E+02 -0.40888183677E+02 -0.58084863149E+02  0.11643640204E+03  0.85807833641E+02 0.  0.
         24    2    1    2    0    0  0.41831516547E+02 -0.49824037569E+02 -0.19025772931E+03  0.21700290956E+03  0.81608508733E+02 0.  0.
        -13    1    4    4    0    0  0.64101912037E+02 -0.50788819820E+02 -0.15585800192E+03  0.17601214762E+03  0.00000000000E+00 0.  1.
         14    1    4    4    0    0 -0.22270395490E+02  0.96478225142E+00 -0.34399727389E+02  0.40990761941E+02  0.00000000000E+00 0. -1.
        -11    1    3    3    0    0 -0.24371987922E+02  0.13118981855E+02 -0.54925563798E+02  0.61505439098E+02  0.00000000000E+00 0.  1.
         11    1    3    3    0    0 -0.95213228440E+01 -0.54007165532E+02 -0.31592993517E+01  0.54930962943E+02  0.00000000000E+00 0. -1.
          1    1    1    2  501    0 -0.79382057810E+01  0.90712221245E+02 -0.41970906748E+03  0.42947342586E+03  0.00000000000E+00 0. -1.
<scales pt_clust_5="13000.00000" pt_clust_6="13000.00000" pt_clust_7="13000.00000" pt_clust_8="13000.00000" pt_clust_9="13000.00000"></scales>
<clustering>
<clus scale="   81.609">  5  6 -1 -1</clus>
<clus scale="   85.808">  7  8 -1 -1</clus>
<clus scale="   91.059">  5  9 -1 -1</clus>
<clus scale="  100.914">  1  7  2 -1</clus>
<clus scale="  214.178">  2  5  1 -1</clus>
</clustering>
</event>
<event>
 9    2  0.3726337E-005  0.2093354E+03  0.7546771E-02  0.1180604E+00
         21   -1    0    0  501  502  0.00000000000E+00  0.00000000000E+00  0.37314585775E+02  0.37314585775E+02  0.00000000000E+00 0. -1.
          2   -1    0    0  502    0 -0.00000000000E+00 -0.00000000000E+00 -0.68630247795E+03  0.68630247795E+03  0.00000000000E+00 0. -1.
         23    2    1    2    0    0 -0.43703624540E+01 -0.73301927513E+01 -0.33852755234E+03  0.34917489507E+03  0.85143243184E+02 0.  0.
         24    2    1    2    0    0  0.47536353374E+02  0.31451247378E+02 -0.51721452771E+02  0.11102056793E+03  0.80009824231E+02 0.  0.
        -13    1    4    4    0    0 -0.14728247010E+02 -0.13546497353E+02 -0.34907256307E+01  0.20312902697E+02  0.00000000000E+00 0.  1.
         14    1    4    4    0    0  0.62264600384E+02  0.44997744731E+02 -0.48230727141E+02  0.90707665235E+02  0.00000000000E+00 0. -1.
        -11    1    3    3    0    0 -0.95787172806E+00 -0.44353276050E+02 -0.23554146125E+03  0.23968293761E+03  0.00000000000E+00 0. -1.
         11    1    3    3    0    0 -0.34124907259E+01  0.37023083299E+02 -0.10298609109E+03  0.10949195746E+03  0.00000000000E+00 0.  1.
          1    1    1    2  501    0 -0.43165990920E+02 -0.24121054627E+02 -0.25873888707E+03  0.26342160073E+03  0.00000000000E+00 0. -1.
<scales pt_clust_5="13000.00000" pt_clust_6="13000.00000" pt_clust_7="13000.00000" pt_clust_8="13000.00000" pt_clust_9="13000.00000"></scales>
<clustering>
<clus scale="   80.010">  5  6 -1 -1</clus>
<clus scale="   49.448">  5  9 -1 -1</clus>
<clus scale="   85.143">  7  8 -1 -1</clus>
<clus scale="   85.570">  2  7  1 -1</clus>
<clus scale="  209.335">  1  5  2 -1</clus>
</clustering>
</event>
<event>
 9    2  0.3726337E-005  0.1110708E+03  0.7546771E-02  0.1266095E+00
         21   -1    0    0  501  502  0.00000000000E+00  0.00000000000E+00  0.15100816179E+03  0.15100816179E+03  0.00000000000E+00 0.  1.
          2   -1    0    0  502    0 -0.00000000000E+00 -0.00000000000E+00 -0.10494262004E+03  0.10494262004E+03  0.00000000000E+00 0. -1.
         23    2    1    2    0    0 -0.21254550601E+02  0.29902015939E+02 -0.50837974282E+02  0.10854991436E+03  0.88615448987E+02 0.  0.
         24    2    1    2    0    0  0.23335313080E+02 -0.46876765484E+01  0.68788107222E+02  0.10957800804E+03  0.81908638140E+02 0.  0.
        -11    1    4    4    0    0  0.41551677403E+02 -0.22121030304E+02  0.69976036923E+02  0.84335802718E+02  0.00000000000E+00 0.  1.
         12    1    4    4    0    0 -0.18216364323E+02  0.17433353755E+02 -0.11879297014E+01  0.25242205317E+02  0.00000000000E+00 0. -1.
        -13    1    3    3    0    0  0.27779341545E+02  0.37100681930E+02 -0.24880419713E+02  0.52604065446E+02  0.00000000000E+00 0. -1.
         13    1    3    3    0    0 -0.49033892147E+02 -0.71986659905E+01 -0.25957554569E+02  0.55945848910E+02  0.00000000000E+00 0.  1.
          1    1    1    2  501    0 -0.20807624790E+01 -0.25214339391E+02  0.28115408816E+02  0.37822859441E+02  0.00000000000E+00 0. -1.
<scales pt_clust_5="13000.00000" pt_clust_6="13000.00000" pt_clust_7="13000.00000" pt_clust_8="13000.00000" pt_clust_9="13000.00000"></scales>
<clustering>
<clus scale="   81.909">  5  6 -1 -1</clus>
<clus scale="   25.300">  5  9 -1 -1</clus>
<clus scale="   88.615">  7  8 -1 -1</clus>
<clus scale="   95.909">  2  7  1 -1</clus>
<clus scale="  111.071">  1  5  2 -1</clus>
</clustering>
</event>
<event>
 9    2  0.3726337E-005  0.5330338E+03  0.7546771E-02  0.1052597E+00
         -1   -1    0    0    0  501 -0.00000000000E+00  0.00000000000E+00  0.30538486450E+03  0.30538486450E+03  0.00000000000E+00 0.  1.
         21   -1    0    0  501  502  0.00000000000E+00 -0.00000000000E+00 -0.44259840940E+03  0.44259840940E+03  0.00000000000E+00 0.  1.
         23    2    1    2    0    0  0.70713868113E+00  0.94063874517E+02 -0.16897470819E+03  0.21400404497E+03  0.91633873222E+02 0.  0.
         24    2    1    2    0    0  0.12872475324E+03 -0.27305713762E+03  0.34093507591E+02  0.31307960758E+03  0.75671731299E+02 0.  0.
        -13    1    4    4    0    0  0.81276673611E+02 -0.23651189314E+03  0.16374972762E+02  0.25062304963E+03  0.00000000000E+00 0.  1.
         14    1    4    4    0    0  0.47448079628E+02 -0.36545244479E+02  0.17718534829E+02  0.62456557949E+02  0.00000000000E+00 0. -1.
        -13    1    3    3    0    0 -0.26158731567E+01  0.41517358812E+02 -0.15362937533E+03  0.15916192648E+03  0.00000000000E+00 0.  1.
         13    1    3    3    0    0  0.33230118379E+01  0.52546515706E+02 -0.15345332860E+02  0.54842118495E+02  0.00000000000E+00 0. -1.
         -2    1    1    2    0  502 -0.12943189192E+03  0.17899326310E+03 -0.23323443030E+01  0.22089962135E+03  0.00000000000E+00 0.  1.
<scales pt_clust_5="13000.00000" pt_clust_6="13000.00000" pt_clust_7="13000.00000" pt_clust_8="13000.00000" pt_clust_9="13000.00000"></scales>
<clustering>
<clus scale="   75.672">  5  6 -1 -1</clus>
<clus scale="   91.634">  7  8 -1 -1</clus>
<clus scale="  131.321">  1  7  2 -1</clus>
<clus scale="  251.099">  5  9 -1 -1</clus>
<clus scale="  533.034">  2  5  1 -1</clus>
</clustering>
</event>
<event>
 9    2  0.3726337E-005  0.3707390E+03  0.7546771E-02  0.1080272E+00
         21   -1    0    0  501  502  0.00000000000E+00  0.00000000000E+00  0.31608245639E+03  0.31608245639E+03  0.00000000000E+00 0. -1.
          2   -1    0    0  502    0 -0.00000000000E+00 -0.00000000000E+00 -0.24435030608E+03  0.24435030608E+03  0.00000000000E+00 0. -1.
         23    2    1    2    0    0 -0.52611342561E+02  0.14955153333E+03  0.53203160278E+02  0.18923102127E+03  0.88567424382E+02 0.  0.
         24    2    1    2    0    0  0.45056504773E+01  0.85656807764E+02  0.52439026976E+02  0.12874141055E+03  0.80418341429E+02 0.  0.
        -13    1    4    4    0    0 -0.32651266536E+02  0.69570287957E+02  0.38193424280E+02  0.85818808142E+02  0.00000000000E+00 0.  1.
         14    1    4    4    0    0  0.37156917013E+02  0.16086519807E+02  0.14245602697E+02  0.42922602409E+02  0.00000000000E+00 0. -1.
        -13    1    3    3    0    0 -0.53679031035E+02  0.11503397989E+03  0.13726251787E+01  0.12694935605E+03  0.00000000000E+00 0. -1.
         13    1    3    3    0    0  0.10676884749E+01  0.34517553439E+02  0.51830535099E+02  0.62281665221E+02  0.00000000000E+00 0.  1.
          1    1    1    2  501    0  0.48105692083E+02 -0.23520834109E+03 -0.33910036947E+02  0.24246033064E+03  0.00000000000E+00 0. -1.
<scales pt_clust_5="13000.00000" pt_clust_6="13000.00000" pt_clust_7="13000.00000" pt_clust_8="13000.00000" pt_clust_9="13000.00000"></scales>
<clustering>
<clus scale="   80.418">  5  6 -1 -1</clus>
<clus scale="   88.567">  7  8 -1 -1</clus>
<clus scale="  181.598">  2  7  1 -1</clus>
<clus scale="  118.213">  5  9 -1 -1</clus>
<clus scale="  370.739">  1  5  2 -1</clus>
</clustering>
</event>
<event>
 9    2  0.3726337E-005  0.1605222E+03  0.7546771E-02  0.1192880E+00
          2   -1    0    0  502    0 -0.00000000000E+00  0.00000000000E+00  0.29157739989E+03  0.29157739989E+03  0.00000000000E+00 0. -1.
         21   -1    0    0  501  502  0.00000000000E+00 -0.00000000000E+00 -0.96818212462E+02  0.96818212462E+02  0.00000000000E+00 0. -1.
         23    2    1    2    0    0 -0.36630517451E+02 -0.10237551868E+03  0.17458301171E+03  0.22661037591E+03  0.95134078320E+02 0.  0.
         24    2    1    2    0    0  0.46045114115E+02  0.66921460631E+02 -0.10075649596E+02  0.11423738899E+03  0.79687062325E+02 0.  0.
        -11    1    4    4    0    0  0.25902969091E+02  0.80891642287E+02  0.56311938320E+01  0.85124214790E+02  0.00000000000E+00 0.  1.
         12    1    4    4    0    0  0.20142145024E+02 -0.13970181655E+02 -0.15706843428E+02  0.29113174202E+02  0.00000000000E+00 0. -1.
        -13    1    3    3    0    0  0.18046933202E+02 -0.12114212585E+02 -0.99470677835E+00  0.21758570406E+02  0.00000000000E+00 0.  1.
         13    1    3    3    0    0 -0.54677450653E+02 -0.90261306097E+02  0.17557771848E+03  0.20485180550E+03  0.00000000000E+00 0. -1.
          1    1    1    2  501    0 -0.94145966641E+01  0.35454058050E+02  0.30251825323E+02  0.47547847459E+02  0.00000000000E+00 0. -1.
<scales pt_clust_5="13000.00000" pt_clust_6="13000.00000" pt_clust_7="13000.00000" pt_clust_8="13000.00000" pt_clust_9="13000.00000"></scales>
<clustering>
<clus scale="   79.687">  5  6 -1 -1</clus>
<clus scale="   36.683">  5  9 -1 -1</clus>
<clus scale="   95.134">  7  8 -1 -1</clus>
<clus scale="  144.475">  1  7  2 -1</clus>
<clus scale="  160.522">  2  5  1 -1</clus>
</clustering>
</event>
<event>
 9    2  0.3726337E-005  0.4949513E+03  0.7546771E-02  0.1048677E+00
         -3   -1    0    0    0  501 -0.00000000000E+00  0.00000000000E+00  0.22372880707E+03  0.22372880707E+03  0.00000000000E+00 0.  1.
         21   -1    0    0  501  502  0.00000000000E+00 -0.00000000000E+00 -0.58470310544E+03  0.58470310544E+03  0.00000000000E+00 0.  1.
         23    2    1    2    0    0 -0.15311275267E+03  0.33543349524E+02  0.19079927514E+02  0.18439821987E+03  0.95236487385E+02 0.  0.
         24    2    1    2    0    0 -0.44656083912E+01  0.44305961064E+02  0.87366711426E+02  0.12466029761E+03  0.76969394513E+02 0.  0.
        -13    1    4    4    0    0  0.19770940232E+02  0.51472778326E+02  0.31888329817E+02  0.63696173863E+02  0.00000000000E+00 0.  1.
         14    1    4    4    0    0 -0.24236548623E+02 -0.71668172622E+01  0.55478381608E+02  0.60964123751E+02  0.00000000000E+00 0. -1.
        -11    1    3    3    0    0 -0.11466288944E+03  0.53891458439E+02 -0.17064219503E+02  0.12783995891E+03  0.00000000000E+00 0.  1.
         11    1    3    3    0    0 -0.38449863228E+02 -0.20348108916E+02  0.36144147016E+02  0.56558260955E+02  0.00000000000E+00 0. -1.
         -4    1    1    2    0  502  0.15757836106E+03 -0.77849310587E+02 -0.46742093731E+03  0.49937339503E+03  0.00000000000E+00 0.  1.
<scales pt_clust_5="13000.00000" pt_clust_6="13000.00000" pt_clust_7="13000.00000" pt_clust_8="13000.00000" pt_clust_9="13000.00000"></scales>
<clustering>
<clus scale="   76.969">  5  6 -1 -1</clus>
<clus scale="   95.236">  7  8 -1 -1</clus>
<clus scale="  175.760">  5  9 -1 -1</clus>
<clus scale="  183.408">  1  7  2 -1</clus>
<clus scale="  494.951">  2  5  1 -1</clus>
</clustering>
</event>
<event>
 9    2  0.3726337E-005  0.1409312E+03  0.7546771E-02  0.1222790E+00
         21   -1    0    0  501  502  0.00000000000E+00  0.00000000000E+00  0.44102601833E+02  0.44102601833E+02  0.00000000000E+00 0.  1.
         -1   -1    0    0    0  501 -0.00000000000E+00 -0.00000000000E+00 -0.37652496569E+03  0.37652496569E+03  0.00000000000E+00 0.  1.
         23    2    1    2    0    0  0.13962146406E+01 -0.65971516660E+02 -0.18639614065E+03  0.21768601468E+03  0.91046632643E+02 0.  0.
         24    2    1    2    0    0  0.16033587975E+01  0.24968345215E+02 -0.41201946244E+02  0.90343211150E+02  0.76408811039E+02 0.  0.
        -13    1    4    4    0    0 -0.85583247808E+01  0.50657124958E+02 -0.18561055040E+02  0.54625104085E+02  0.00000000000E+00 0.  1.
         14    1    4    4    0    0  0.10161683578E+02 -0.25688779743E+02 -0.22640891203E+02  0.35718107065E+02  0.00000000000E+00 0. -1.
        -13    1    3    3    0    0  0.39634134293E+02 -0.42119880016E+02 -0.14647676246E+03  0.15748139838E+03  0.00000000000E+00 0.  1.
         13    1    3    3    0    0 -0.38237919653E+02 -0.23851636643E+02 -0.39919378183E+02  0.60204616305E+02  0.00000000000E+00 0. -1.
         -2    1    1    2    0  502 -0.29995734381E+01  0.41003171445E+02 -0.10482427697E+03  0.11259834169E+03  0.00000000000E+00 0.  1.
<scales pt_clust_5="13000.00000" pt_clust_6="13000.00000" pt_clust_7="13000.00000" pt_clust_8="13000.00000" pt_clust_9="13000.00000"></scales>
<clustering>
<clus scale="   76.409">  5  6 -1 -1</clus>
<clus scale="   41.113">  5  9 -1 -1</clus>
<clus scale="   91.047">  7  8 -1 -1</clus>
<clus scale="  112.444">  2  7  1 -1</clus>
<clus scale="  140.931">  1  5  2 -1</clus>
</clustering>
</event>
<event>
 9    2  0.3726337E-005  0.4727020E+03  0.7546771E-02  0.1063082E+00
         21   -1    0    0  501  502  0.00000000000E+00  0.00000000000E+00  0.16752160916E+03  0.16752160916E+03  0.00000000000E+00 0. -1.
          2   -1    0    0  502    0 -0.00000000000E+00 -0.00000000000E+00 -0.56854631820E+03  0.56854631820E+03  0.00000000000E+00 0. -1.
         23    2    1    2    0    0 -0.24727530219E+02  0.10520642274E+03 -0.12976634714E+03  0.19106491712E+03  0.89368090320E+02 0.  0.
         24    2    1    2    0    0 -0.56057205849E+02  0.69405288163E+02  0.79307518816E+02  0.14511320056E+03  0.82514568912E+02 0.  0.
        -13    1    4    4    0    0 -0.40587865271E+02  0.45849535084E+02  0.30444810499E+00  0.61234364235E+02  0.00000000000E+00 0.  1.
         14    1    4    4    0    0 -0.15469340579E+02  0.23555753079E+02  0.79003070711E+02  0.83878836322E+02  0.00000000000E+00 0. -1.
        -13    1    3    3    0    0 -0.54992847674E+01  0.11735266209E+03 -0.10776830055E+03  0.15942363701E+03  0.00000000000E+00 0. -1.
         13    1    3    3    0    0 -0.19228245452E+02 -0.12146239351E+02 -0.21998046588E+02  0.31641280114E+02  0.00000000000E+00 0.  1.
          1    1    1    2  501    0  0.80784736068E+02 -0.17461171090E+03 -0.35056588072E+03  0.39988980968E+03  0.00000000000E+00 0. -1.
<scales pt_clust_5="13000.00000" pt_clust_6="13000.00000" pt_clust_7="13000.00000" pt_clust_8="13000.00000" pt_clust_9="13000.00000"></scales>
<clustering>
<clus scale="   82.515">  5  6 -1 -1</clus>
<clus scale="   89.368">  7  8 -1 -1</clus>
<clus scale="  140.237">  2  7  1 -1</clus>
<clus scale="   97.140">  5  9 -1 -1</clus>
<clus scale="  472.702">  1  5  2 -1</clus>
</clustering>
</event>
<event>
 9    2  0.3726337E-005  0.4026625E+03  0.7546771E-02  0.1089971E+00
         21   -1    0    0  501  502  0.00000000000E+00  0.00000000000E+00  0.25751365040E+03  0.25751365040E+03  0.00000000000E+00 0. -1.
          4   -1    0    0  502    0 -0.00000000000E+00 -0.00000000000E+00 -0.25726172185E+03  0.25726172185E+03  0.00000000000E+00 0. -1.
         23    2    1    2    0    0  0.28369195035E+02 -0.59726550367E+02  0.21654046383E+02  0.11154448757E+03  0.87184877909E+02 0.  0.
         24    2    1    2    0    0 -0.22656274354E+02 -0.15305994410E+03 -0.63669433387E+02  0.18621186327E+03  0.81733763022E+02 0.  0.
        -11    1    4    4    0    0  0.24614742765E+02 -0.15642133316E+02 -0.16041497745E+02  0.33285004821E+02  0.00000000000E+00 0.  1.
         12    1    4    4    0    0 -0.47271017119E+02 -0.13741781079E+03 -0.47627935643E+02  0.15292685845E+03  0.00000000000E+00 0. -1.
        -13    1    3    3    0    0 -0.25648571589E+02 -0.45110651149E+02  0.10233514787E+01  0.51902478938E+02  0.00000000000E+00 0.  1.
         13    1    3    3    0    0  0.54017766624E+02 -0.14615899217E+02  0.20630694904E+02  0.59642008628E+02  0.00000000000E+00 0. -1.
          3    1    1    2  501    0 -0.57129206805E+01  0.21278649447E+03  0.42267315553E+02  0.21701902141E+03  0.00000000000E+00 0. -1.
<scales pt_clust_5="13000.00000" pt_clust_6="13000.00000" pt_clust_7="13000.00000" pt_clust_8="13000.00000" pt_clust_9="13000.00000"></scales>
<clustering>
<clus scale="   81.734">  5  6 -1 -1</clus>
<clus scale="   87.185">  7  8 -1 -1</clus>
<clus scale="  109.423">  2  7  1 -1</clus>
<clus scale="  188.301">  5  9 -1 -1</clus>
<clus scale="  402.663">  1  5  2 -1</clus>
</clustering>
</event>
<event>
 9    2  0.3726337E-005  0.1821710E+03  0.7546771E-02  0.1182755E+00
         21   -1    0    0  501  502  0.00000000000E+00  0.00000000000E+00  0.39639582431E+03  0.39639582431E+03  0.00000000000E+00 0.  1.
         -3   -1    0    0    0  501 -0.00000000000E+00 -0.00000000000E+00 -0.73978496076E+02  0.73978496076E+02  0.00000000000E+00 0.  1.
         23    2    1    2    0    0  0.59764520038E+02 -0.57526863747E+02  0.32420577433E+02  0.12790622422E+03  0.91802889096E+02 0.  0.
         24    2    1    2    0    0 -0.13410706168E+02 -0.25589107177E+02  0.12041125219E+03  0.14800426400E+03  0.81066288061E+02 0.  0.
        -11    1    4    4    0    0 -0.22110884269E+02 -0.23550660909E+02  0.13055142740E+03  0.13448866133E+03  0.00000000000E+00 0.  1.
         12    1    4    4    0    0  0.87001781014E+01 -0.20384462688E+01 -0.10140175202E+02  0.13515602662E+02  0.00000000000E+00 0. -1.
        -13    1    3    3    0    0 -0.74416784570E+01 -0.51429173432E+02  0.30795340957E+02  0.60404399532E+02  0.00000000000E+00 0.  1.
         13    1    3    3    0    0  0.67206198495E+02 -0.60976903151E+01  0.16252364759E+01  0.67501824693E+02  0.00000000000E+00 0. -1.
         -4    1    1    2    0  502 -0.46353813870E+02  0.83115970924E+02  0.16958549860E+03  0.19446383216E+03  0.00000000000E+00 0.  1.
<scales pt_clust_5="13000.00000" pt_clust_6="13000.00000" pt_clust_7="13000.00000" pt_clust_8="13000.00000" pt_clust_9="13000.00000"></scales>
<clustering>
<clus scale="   81.066">  5  6 -1 -1</clus>
<clus scale="   91.803">  7  8 -1 -1</clus>
<clus scale="   95.168">  5  9 -1 -1</clus>
<clus scale="  123.729">  2  7  1 -1</clus>
<clus scale="  182.171">  1  5  2 -1</clus>
</clustering>
</event>
<event>
 9    2  0.3726337E-005  0.3029683E+03  0.7546771E-02  0.1123609E+00
         21   -1    0    0  501  502  0.00000000000E+00  0.00000000000E+00  0.23507892167E+03  0.23507892167E+03  0.00000000000E+00 0. -1.
          2   -1    0    0  502    0 -0.00000000000E+00 -0.00000000000E+00 -0.21443861555E+03  0.21443861555E+03  0.00000000000E+00 0. -1.
         23    2    1    2    0    0 -0.57719465902E+02  0.57788338126E+01 -0.74922449961E+02  0.13183528070E+03  0.91663711824E+02 0.  0.
         24    2    1    2    0    0 -0.78460864679E+02 -0.17144251463E+02  0.13273702524E+03  0.17606240818E+03  0.83239540253E+02 0.  0.
        -11    1    4    4    0    0 -0.42023931268E+02  0.33162940283E+02  0.59922585539E+02  0.80352396760E+02  0.00000000000E+00 0.  1.
         12    1    4    4    0    0 -0.36436933412E+02 -0.50307191746E+02  0.72814439699E+02  0.95710011422E+02  0.00000000000E+00 0. -1.
        -11    1    3    3    0    0 -0.72800016645E+02  0.28471475399E+02 -0.68278557538E+02  0.10379031147E+03  0.00000000000E+00 0. -1.
         11    1    3    3    0    0  0.15080550743E+02 -0.22692641586E+02 -0.66438924228E+01  0.28044969235E+02  0.00000000000E+00 0.  1.
          1    1    1    2  501    0  0.13618033058E+03  0.11365417650E+02 -0.37174269156E+02  0.14161984834E+03  0.00000000000E+00 0. -1.
<scales pt_clust_5="13000.00000" pt_clust_6="13000.00000" pt_clust_7="13000.00000" pt_clust_8="13000.00000" pt_clust_9="13000.00000"></scales>
<clustering>
<clus scale="   83.240">  5  6 -1 -1</clus>
<clus scale="   91.664">  7  8 -1 -1</clus>
<clus scale="  108.477">  2  7  1 -1</clus>
<clus scale="   91.138">  5  9 -1 -1</clus>
<clus scale="  302.968">  1  5  2 -1</clus>
</clustering>
</event>
<event>
 9    2  0.3726337E-005  0.2867721E+03  0.7546771E-02  0.1092205E+00
         21   -1    0    0  501  502  0.00000000000E+00  0.00000000000E+00  0.21303100246E+03  0.21303100246E+03  0.00000000000E+00 0.  1.
         -1   -1    0    0    0  501 -0.00000000000E+00 -0.00000000000E+00 -0.66804088034E+03  0.66804088034E+03  0.00000000000E+00 0.  1.
         23    2    1    2    0    0 -0.62295082288E+02  0.26236209955E+03  0.59807964320E+02  0.29177087763E+03  0.94014381235E+02 0.  0.
         24    2    1    2    0    0  0.56063384558E+02 -0.17912297095E+03 -0.36424616859E+03  0.41713998902E+03  0.78117586351E+02 0.  0.
        -13    1    4    4    0    0  0.62497240884E+02 -0.17746612494E+03 -0.31102758279E+03  0.36350830510E+03  0.00000000000E+00 0.  1.
         14    1    4    4    0    0 -0.64338563257E+01 -0.16568460138E+01 -0.53218585802E+02  0.53631683926E+02  0.00000000000E+00 0. -1.
        -13    1    3    3    0    0 -0.62680113736E+02  0.16638680321E+03  0.77877024373E+02  0.19410872177E+03  0.00000000000E+00 0.  1.
         13    1    3    3    0    0  0.38503144755E+00  0.95975296338E+02 -0.18069060053E+02  0.97662155862E+02  0.00000000000E+00 0. -1.
         -2    1    1    2    0  502  0.62316977299E+01 -0.83239128599E+02 -0.15057167361E+03  0.17216101614E+03  0.00000000000E+00 0.  1.
<scales pt_clust_5="13000.00000" pt_clust_6="13000.00000" pt_clust_7="13000.00000" pt_clust_8="13000.00000" pt_clust_9="13000.00000"></scales>
<clustering>
<clus scale="   78.118">  5  6 -1 -1</clus>
<clus scale="   83.472">  5  9 -1 -1</clus>
<clus scale="   94.014">  7  8 -1 -1</clus>
<clus scale="  285.575">  2  7  1 -1</clus>
<clus scale="  286.772">  1  5  2 -1</clus>
</clustering>
</event>
<event>
 9    2  0.3726337E-005  0.5062750E+03  0.7546771E-02  0.1051863E+00
         -1   -1    0    0    0  501 -0.00000000000E+00  0.00000000000E+00  0.17852490883E+03  0.17852490883E+03  0.00000000000E+00 0.  1.
         21   -1    0    0  501  502  0.00000000000E+00 -0.00000000000E+00 -0.63417537051E+03  0.63417537051E+03  0.00000000000E+00 0.  1.
         23    2    1    2    0    0 -0.29756681599E+02 -0.12690700200E+03 -0.17137160724E+03  0.23207228400E+03  0.86593706317E+02 0.  0.
         24    2    1    2    0    0  0.80838189540E+02 -0.46997447303E+02  0.98557359370E+02  0.15705315598E+03  0.78794465389E+02 0.  0.
        -13    1    4    4    0    0  0.70606786486E+02  0.35274228040E+01  0.55171089461E+02  0.89675025073E+02  0.00000000000E+00 0.  1.
         14    1    4    4    0    0  0.10231403055E+02 -0.50524870107E+02  0.43386269909E+02  0.67378130907E+02  0.00000000000E+00 0. -1.
        -11    1    3    3    0    0 -0.22007436793E+02 -0.15455766315E+01 -0.61002213365E+02  0.64868991951E+02  0.00000000000E+00 0. -1.
         11    1    3    3    0    0 -0.77492448057E+01 -0.12536142537E+03 -0.11036939388E+03  0.16720329205E+03  0.00000000000E+00 0.  1.
         -2    1    1    2    0  502 -0.51081507941E+02  0.17390444931E+03 -0.38283621381E+03  0.42357483937E+03  0.00000000000E+00 0.  1.
<scales pt_clust_5="13000.00000" pt_clust_6="13000.00000" pt_clust_7="13000.00000" pt_clust_8="13000.00000" pt_clust_9="13000.00000"></scales>
<clustering>
<clus scale="   78.794">  5  6 -1 -1</clus>
<clus scale="   86.594">  7  8 -1 -1</clus>
<clus scale="  156.491">  1  7  2 -1</clus>
<clus scale="  165.902">  5  9 -1 -1</clus>
<clus scale="  506.275">  2  5  1 -1</clus>
</clustering>
</event>
<event>
 9    2  0.3726337E-005  0.4901307E+03  0.7546771E-02  0.1045258E+00
          2   -1    0    0  502    0 -0.00000000000E+00  0.00000000000E+00  0.83064318916E+02  0.83064318916E+02  0.00000000000E+00 0. -1.
         21   -1    0    0  501  502  0.00000000000E+00 -0.00000000000E+00 -0.14723080367E+04  0.14723080367E+04  0.00000000000E+00 0. -1.
         23    2    1    2    0    0  0.13466133539E+03 -0.13100639860E+03 -0.45201044169E+03  0.49771725838E+03  0.90070406749E+02 0.  0.
         24    2    1    2    0    0 -0.10505100865E+03 -0.46877128992E+02 -0.47154275426E+02  0.14949214475E+03  0.83013227919E+02 0.  0.
        -11    1    4    4    0    0 -0.42174979578E+02 -0.16568342815E+01  0.20255481221E+02  0.46816220711E+02  0.00000000000E+00 0.  1.
         12    1    4    4    0    0 -0.62876029076E+02 -0.45220294711E+02 -0.67409756647E+02  0.10267592404E+03  0.00000000000E+00 0. -1.
        -13    1    3    3    0    0  0.94471933522E+02 -0.45053918301E+02 -0.16468876256E+03  0.19513377537E+03  0.00000000000E+00 0.  1.
         13    1    3    3    0    0  0.40189401866E+02 -0.85952480295E+02 -0.28732167913E+03  0.30258348301E+03  0.00000000000E+00 0. -1.
          1    1    1    2  501    0 -0.29610326734E+02  0.17788352759E+03 -0.89007900070E+03  0.90816295251E+03  0.00000000000E+00 0. -1.
<scales pt_clust_5="13000.00000" pt_clust_6="13000.00000" pt_clust_7="13000.00000" pt_clust_8="13000.00000" pt_clust_9="13000.00000"></scales>
<clustering>
<clus scale="   83.013">  5  6 -1 -1</clus>
<clus scale="   90.070">  7  8 -1 -1</clus>
<clus scale="  180.331">  5  9 -1 -1</clus>
<clus scale="  208.348">  1  7  2 -1</clus>
<clus scale="  490.131">  2  5  1 -1</clus>
</clustering>
</event>
<event>
 9    2  0.3726337E-005  0.1657415E+03  0.7546771E-02  0.1204750E+00
         21   -1    0    0  501  502  0.00000000000E+00  0.00000000000E+00  0.34801067787E+03  0.34801067787E+03  0.00000000000E+00 0. -1.
         -3   -1    0    0    0  501 -0.00000000000E+00 -0.00000000000E+00 -0.51978665232E+02  0.51978665232E+02  0.00000000000E+00 0.  1.
         23    2    1    2    0    0  0.12671215499E+02  0.43726361051E+02  0.89915810581E+02  0.13550087776E+03  0.90570859151E+02 0.  0.
         24    2    1    2    0    0 -0.50905075130E+01 -0.22247507570E+02  0.22100796163E+03  0.23727499839E+03  0.83270888673E+02 0.  0.
        -13    1    4    4    0    0  0.18310094775E+01 -0.51186479928E+02  0.17615093077E+03  0.18344633748E+03  0.00000000000E+00 0.  1.
         14    1    4    4    0    0 -0.69215169906E+01  0.28938972358E+02  0.44857030854E+02  0.53828660912E+02  0.00000000000E+00 0. -1.
        -11    1    3    3    0    0  0.33913020759E+02 -0.21586015224E+01  0.75699798201E+02  0.82977177496E+02  0.00000000000E+00 0.  1.
         11    1    3    3    0    0 -0.21241805259E+02  0.45884962574E+02  0.14216012380E+02  0.52523700260E+02  0.00000000000E+00 0. -1.
         -4    1    1    2    0  502 -0.75807079864E+01 -0.21478853481E+02 -0.14891759570E+02  0.27213466952E+02  0.00000000000E+00 0.  1.
<scales pt_clust_5="13000.00000" pt_clust_6="13000.00000" pt_clust_7="13000.00000" pt_clust_8="13000.00000" pt_clust_9="13000.00000"></scales>
<clustering>
<clus scale="   83.271">  5  6 -1 -1</clus>
<clus scale="   22.777">  5  9 -1 -1</clus>
<clus scale="   90.571">  7  8 -1 -1</clus>
<clus scale="  101.369">  2  7  1 -1</clus>
<clus scale="  165.742">  1  5  2 -1</clus>
</clustering>
</event>
<event>
 9    2  0.3726337E-005  0.1485276E+03  0.7546771E-02  0.1221482E+00
         -3   -1    0    0    0  501 -0.00000000000E+00  0.00000000000E+00  0.10931182165E+03  0.10931182165E+03  0.00000000000E+00 0.  1.
         21   -1    0    0  501  502  0.00000000000E+00 -0.00000000000E+00 -0.44434888589E+03  0.44434888589E+03  0.00000000000E+00 0.  1.
         23    2    1    2    0    0 -0.41542854358E+02 -0.37449118344E+01  0.70807612952E+02  0.12149136835E+03  0.89479614538E+02 0.  0.
         24    2    1    2    0    0  0.11228398872E+02  0.29553101731E+02 -0.14629926223E+03  0.16958820640E+03  0.79732194602E+02 0.  0.
        -13    1    4    4    0    0 -0.94587762743E+01  0.25091376213E+02 -0.14598057622E+03  0.14842295726E+03  0.00000000000E+00 0.  1.
         14    1    4    4    0    0  0.20687175146E+02  0.44617255188E+01 -0.31868601120E+00  0.21165249134E+02  0.00000000000E+00 0. -1.
        -11    1    3    3    0    0  0.22033279651E+02 -0.76974683727E+01  0.48806807539E+02  0.54100100680E+02  0.00000000000E+00 0.  1.
         11    1    3    3    0    0 -0.63576134009E+02  0.39525565383E+01  0.22000805413E+02  0.67391267666E+02  0.00000000000E+00 0. -1.
         -4    1    1    2    0  502  0.30314455487E+02 -0.25808189897E+02 -0.25954541495E+03  0.26258113280E+03  0.00000000000E+00 0.  1.
<scales pt_clust_5="13000.00000" pt_clust_6="13000.00000" pt_clust_7="13000.00000" pt_clust_8="13000.00000" pt_clust_9="13000.00000"></scales>
<clustering>
<clus scale="   79.732">  5  6 -1 -1</clus>
<clus scale="   39.812">  5  9 -1 -1</clus>
<clus scale="   89.480">  7  8 -1 -1</clus>
<clus scale="   98.724">  1  7  2 -1</clus>
<clus scale="  148.528">  2  5  1 -1</clus>
</clustering>
</event>
<event>
 9    2  0.3726337E-005  0.2567141E+03  0.7546771E-02  0.1150058E+00
         21   -1    0    0  501  502  0.00000000000E+00  0.00000000000E+00  0.13426680622E+03  0.13426680622E+03  0.00000000000E+00 0. -1.
          2   -1    0    0  502    0 -0.00000000000E+00 -0.00000000000E+00 -0.32430127497E+03  0.32430127497E+03  0.00000000000E+00 0. -1.
         23    2    1    2    0    0 -0.19401562876E+02  0.46623804689E+01 -0.17840638169E+03  0.20159081087E+03  0.91716190315E+02 0.  0.
         24    2    1    2    0    0 -0.81390454582E+02 -0.26540029597E+02 -0.68243349492E+02  0.13932120268E+03  0.86165326536E+02 0.  0.
        -13    1    4    4    0    0 -0.16661405295E+02 -0.27009826419E+02 -0.67497862949E+02  0.74586155902E+02  0.00000000000E+00 0.  1.
         14    1    4    4    0    0 -0.64729049287E+02  0.46979682228E+00 -0.74548654315E+00  0.64735046774E+02  0.00000000000E+00 0. -1.
        -13    1    3    3    0    0 -0.46280242537E+02  0.42776245480E+01 -0.16525169112E+03  0.17166327603E+03  0.00000000000E+00 0. -1.
         13    1    3    3    0    0  0.26878679661E+02  0.38475592092E+00 -0.13154690574E+02  0.29927534839E+02  0.00000000000E+00 0.  1.
          1    1    1    2  501    0  0.10079201746E+03  0.21877649128E+02  0.56615262423E+02  0.11765606765E+03  0.00000000000E+00 0. -1.
<scales pt_clust_5="13000.00000" pt_clust_6="13000.00000" pt_clust_7="13000.00000" pt_clust_8="13000.00000" pt_clust_9="13000.00000"></scales>
<clustering>
<clus scale="   86.165">  5  6 -1 -1</clus>
<clus scale="   91.716">  7  8 -1 -1</clus>
<clus scale="   93.862">  2  7  1 -1</clus>
<clus scale="   99.075">  5  9 -1 -1</clus>
<clus scale="  256.714">  1  5  2 -1</clus>
</clustering>
</event>
<event>
 9    2  0.4815155E-005  0.5141324E+03  0.7546771E-02  0.1055528E+00
         21   -1    0    0  501  502  0.00000000000E+00  0.00000000000E+00  0.38507844271E+03  0.38507844271E+03  0.00000000000E+00 0. -1.
          2   -1    0    0  502    0 -0.00000000000E+00 -0.00000000000E+00 -0.27884651572E+03  0.27884651572E+03  0.00000000000E+00 0. -1.
         23    2    1    2    0    0 -0.33111564098E+01 -0.10328228808E+03  0.60834187433E+02  0.14779210283E+03  0.86391622921E+02 0.  0.
         24    2    1    2    0    0 -0.11657482522E+03 -0.77874729288E+02 -0.15083131743E+03  0.22339345554E+03  0.86604770797E+02 0.  0.
        -13    1    4    4    0    0  0.16760402000E+00 -0.42279134599E+02 -0.31725312652E+02  0.52858762532E+02  0.00000000000E+00 0.  1.
         14    1    4    4    0    0 -0.11674242924E+03 -0.35595594689E+02 -0.11910600478E+03  0.17053469301E+03  0.00000000000E+00 0. -1.
        -11    1    3    3    0    0  0.18783079382E+02 -0.72596898738E+02 -0.13667730118E+01  0.74999878973E+02  0.00000000000E+00 0. -1.
         11    1    3    3    0    0 -0.22094235791E+02 -0.30685389347E+02  0.62200960444E+02  0.72792223862E+02  0.00000000000E+00 0.  1.
          1    1    1    2  501    0  0.11988598163E+03  0.18115701737E+03  0.19622905699E+03  0.29273940005E+03  0.00000000000E+00 0. -1.
<scales pt_clust_5="13000.00000" pt_clust_6="13000.00000" pt_clust_7="13000.00000" pt_clust_8="13000.00000" pt_clust_9="13000.00000"></scales>
<clustering>
<clus scale="   86.392">  7  8 -1 -1</clus>
<clus scale="   86.605">  5  6 -1 -1</clus>
<clus scale="  134.691">  2  7  1 -1</clus>
<clus scale="  199.511">  5  9 -1 -1</clus>
<clus scale="  514.132">  1  5  2 -1</clus>
</clustering>
</event>
<event>
 9    2  0.3726337E-005  0.2298441E+03  0.7546771E-02  0.1143486E+00
         21   -1    0    0  501  502  0.00000000000E+00  0.00000000000E+00  0.24274715512E+03  0.24274715512E+03  0.00000000000E+00 0.  1.
         -1   -1    0    0    0  501 -0.00000000000E+00 -0.00000000000E+00 -0.16070814311E+03  0.16070814311E+03  0.00000000000E+00 0.  1.
         23    2    1    2    0    0  0.73831124266E+02 -0.98509979203E+02 -0.15574158849E+02  0.15374216274E+03  0.90768096083E+02 0.  0.
         24    2    1    2    0    0  0.41093025781E+02  0.55569177635E+02  0.32300021987E+02  0.11072651701E+03  0.80252725046E+02 0.  0.
        -11    1    4    4    0    0  0.24765335061E+02  0.68399660534E+02  0.45796520728E+02  0.85960204122E+02  0.00000000000E+00 0.  1.
         12    1    4    4    0    0  0.16327690720E+02 -0.12830482900E+02 -0.13496498740E+02  0.24766312885E+02  0.00000000000E+00 0. -1.
        -13    1    3    3    0    0  0.47357030423E+02  0.93543753046E+00 -0.18347906325E+02  0.50795758094E+02  0.00000000000E+00 0. -1.
         13    1    3    3    0    0  0.26474093843E+02 -0.99445416733E+02  0.27737474756E+01  0.10294640464E+03  0.00000000000E+00 0.  1.
         -2    1    1    2    0  502 -0.11492415005E+03  0.42940801568E+02  0.65313148865E+02  0.13898661849E+03  0.00000000000E+00 0.  1.
<scales pt_clust_5="13000.00000" pt_clust_6="13000.00000" pt_clust_7="13000.00000" pt_clust_8="13000.00000" pt_clust_9="13000.00000"></scales>
<clustering>
<clus scale="   80.253">  5  6 -1 -1</clus>
<clus scale="   90.768">  7  8 -1 -1</clus>
<clus scale="  122.685">  5  9 -1 -1</clus>
<clus scale="  152.951">  2  7  1 -1</clus>
<clus scale="  229.844">  1  5  2 -1</clus>
</clustering>
</event>
<event>
 9    2  0.3726337E-005  0.1943718E+03  0.7546771E-02  0.1174021E+00
         21   -1    0    0  501  502  0.00000000000E+00  0.00000000000E+00  0.23636694279E+03  0.23636694279E+03  0.00000000000E+00 0.  1.
         -1   -1    0    0    0  501 -0.00000000000E+00 -0.00000000000E+00 -0.29440545297E+03  0.29440545297E+03  0.00000000000E+00 0.  1.
         23    2    1    2    0    0  0.69072459877E+02 -0.45635556911E+02 -0.23640403491E+03  0.26696443863E+03  0.92355481701E+02 0.  0.
         24    2    1    2    0    0 -0.43305094185E+02 -0.37051619711E+02  0.52132550572E+02  0.11072010628E+03  0.79328339197E+02 0.  0.
        -13    1    4    4    0    0 -0.48682834541E+02 -0.29626028177E+02  0.70223730444E+02  0.90438333918E+02  0.00000000000E+00 0.  1.
         14    1    4    4    0    0  0.53777403556E+01 -0.74255915339E+01 -0.18091179872E+02  0.20281772361E+02  0.00000000000E+00 0. -1.
        -13    1    3    3    0    0  0.91765586221E+02 -0.40485727799E+02 -0.18234844644E+03  0.20811288497E+03  0.00000000000E+00 0.  1.
         13    1    3    3    0    0 -0.22693126344E+02 -0.51498291117E+01 -0.54055588468E+02  0.58851553657E+02  0.00000000000E+00 0. -1.
         -2    1    1    2    0  502 -0.25767365692E+02  0.82687176622E+02  0.12623297416E+03  0.15308785085E+03  0.00000000000E+00 0.  1.
<scales pt_clust_5="13000.00000" pt_clust_6="13000.00000" pt_clust_7="13000.00000" pt_clust_8="13000.00000" pt_clust_9="13000.00000"></scales>
<clustering>
<clus scale="   79.328">  5  6 -1 -1</clus>
<clus scale="   86.609">  5  9 -1 -1</clus>
<clus scale="   92.355">  7  8 -1 -1</clus>
<clus scale="  124.029">  2  7  1 -1</clus>
<clus scale="  194.372">  1  5  2 -1</clus>
</clustering>
</event>
<event>
 9    2  0.3726337E-005  0.2395634E+03  0.7546771E-02  0.1151380E+00
         21   -1    0    0  501  502  0.00000000000E+00  0.00000000000E+00  0.78932407929E+02  0.78932407929E+02  0.00000000000E+00 0. -1.
          2   -1    0    0  502    0 -0.00000000000E+00 -0.00000000000E+00 -0.40247553934E+03  0.40247553934E+03  0.00000000000E+00 0. -1.
         23    2    1    2    0    0 -0.52400896946E+02 -0.44523264476E+02 -0.14206150706E+03  0.18086479660E+03  0.88331352186E+02 0.  0.
         24    2    1    2    0    0  0.10759791654E+02 -0.14828271440E+02 -0.20557722596E+03  0.22414168156E+03  0.87417657431E+02 0.  0.
        -13    1    4    4    0    0  0.42640514197E+02  0.12488381938E+02 -0.13384031567E+03  0.14102270467E+03  0.00000000000E+00 0.  1.
         14    1    4    4    0    0 -0.31880722542E+02 -0.27316653378E+02 -0.71736910289E+02  0.83118976891E+02  0.00000000000E+00 0. -1.
        -11    1    3    3    0    0 -0.42494817436E+02 -0.50555124899E+01 -0.11794366248E+02  0.44390030306E+02  0.00000000000E+00 0. -1.
         11    1    3    3    0    0 -0.99060795106E+01 -0.39467751986E+02 -0.13026714082E+03  0.13647476629E+03  0.00000000000E+00 0.  1.
          1    1    1    2  501    0  0.41641105292E+02  0.59351535916E+02  0.24095601608E+02  0.76401469111E+02  0.00000000000E+00 0. -1.
<scales pt_clust_5="13000.00000" pt_clust_6="13000.00000" pt_clust_7="13000.00000" pt_clust_8="13000.00000" pt_clust_9="13000.00000"></scales>
<clustering>
<clus scale="   87.418">  5  6 -1 -1</clus>
<clus scale="   72.502">  5  9 -1 -1</clus>
<clus scale="   88.331">  7  8 -1 -1</clus>
<clus scale="  111.940">  2  7  1 -1</clus>
<clus scale="  239.563">  1  5  2 -1</clus>
</clustering>
</event>
<event>
 9    2  0.3726337E-005  0.2749601E+03  0.7546771E-02  0.1138510E+00
         -1   -1    0    0    0  501 -0.00000000000E+00  0.00000000000E+00  0.25258155144E+03  0.25258155144E+03  0.00000000000E+00 0.  1.
         21   -1    0    0  501  502  0.00000000000E+00 -0.00000000000E+00 -0.22050269959E+03  0.22050269959E+03  0.00000000000E+00 0.  1.
         23    2    1    2    0    0 -0.41337868052E+02  0.14574632838E+01  0.14441261934E+03  0.17606250581E+03  0.91826236952E+02 0.  0.
         24    2    1    2    0    0  0.22169451844E+01  0.94110211610E+02  0.24693707026E+02  0.12544040630E+03  0.79144611895E+02 0.  0.
        -13    1    4    4    0    0 -0.31322426179E+02  0.81225833635E+02  0.17695864150E+02  0.88836220312E+02  0.00000000000E+00 0.  1.
         14    1    4    4    0    0  0.33539371363E+02  0.12884377975E+02  0.69978428758E+01  0.36604185992E+02  0.00000000000E+00 0. -1.
        -11    1    3    3    0    0 -0.34011648030E+02  0.26239906383E+02  0.14394232230E+03  0.15021556856E+03  0.00000000000E+00 0.  1.
         11    1    3    3    0    0 -0.73262200220E+01 -0.24782443099E+02  0.47029703852E+00  0.25846937247E+02  0.00000000000E+00 0. -1.
         -2    1    1    2    0  502  0.39120922867E+02 -0.95567674893E+02 -0.13702747452E+03  0.17158133892E+03  0.00000000000E+00 0.  1.
<scales pt_clust_5="13000.00000" pt_clust_6="13000.00000" pt_clust_7="13000.00000" pt_clust_8="13000.00000" pt_clust_9="13000.00000"></scales>
<clustering>
<clus scale="   79.145">  5  6 -1 -1</clus>
<clus scale="   91.826">  7  8 -1 -1</clus>
<clus scale="  100.712">  1  7  2 -1</clus>
<clus scale="  100.331">  5  9 -1 -1</clus>
<clus scale="  274.960">  2  5  1 -1</clus>
</clustering>
</event>
<event>
 9    2  0.3726337E-005  0.3148746E+03  0.7546771E-02  0.1103861E+00
         -1   -1    0    0    0  501 -0.00000000000E+00  0.00000000000E+00  0.32570345136E+03  0.32570345136E+03  0.00000000000E+00 0.  1.
         21   -1    0    0  501  502  0.00000000000E+00 -0.00000000000E+00 -0.17341405041E+03  0.17341405041E+03  0.00000000000E+00 0.  1.
         23    2    1    2    0    0 -0.58365599243E+02  0.10423411074E+03  0.67924674668E+02  0.17313675384E+03  0.10531515126E+03 0.  0.
         24    2    1    2    0    0 -0.81882758052E+02 -0.11821145496E+03  0.29033983533E+01  0.16318972906E+03  0.77095549795E+02 0.  0.
        -11    1    4    4    0    0 -0.67874742596E+02 -0.11769252166E+03 -0.19000663196E+02  0.13718431229E+03  0.00000000000E+00 0.  1.
         12    1    4    4    0    0 -0.14008015456E+02 -0.51893330013E+00  0.21904061550E+02  0.26005416766E+02  0.00000000000E+00 0. -1.
        -13    1    3    3    0    0 -0.70240643344E+02  0.42945344024E+02  0.73626010901E+02  0.11044835912E+03  0.00000000000E+00 0.  1.
         13    1    3    3    0    0  0.11875044101E+02  0.61288766713E+02 -0.57013362336E+01  0.62688394719E+02  0.00000000000E+00 0. -1.
         -2    1    1    2    0  502  0.14024835730E+03  0.13977344227E+02  0.81461327933E+02  0.16279101887E+03  0.00000000000E+00 0.  1.
<scales pt_clust_5="13000.00000" pt_clust_6="13000.00000" pt_clust_7="13000.00000" pt_clust_8="13000.00000" pt_clust_9="13000.00000"></scales>
<clustering>
<clus scale="   77.096">  5  6 -1 -1</clus>
<clus scale="  105.315">  7  8 -1 -1</clus>
<clus scale="  140.943">  5  9 -1 -1</clus>
<clus scale="  159.256">  1  7  2 -1</clus>
<clus scale="  314.875">  2  5  1 -1</clus>
</clustering>
</event>
<event>
 9    2  0.3726337E-005  0.4275142E+03  0.7546771E-02  0.1064593E+00
         -3   -1    0    0    0  501 -0.00000000000E+00  0.00000000000E+00  0.13356267668E+03  0.13356267668E+03  0.00000000000E+00 0.  1.
         21   -1    0    0  501  502  0.00000000000E+00 -0.00000000000E+00 -0.71132987411E+03  0.71132987411E+03  0.00000000000E+00 0.  1.
         23    2    1    2    0    0 -0.41032141017E+01 -0.15818579323E+03 -0.23399521597E+03  0.29630570114E+03  0.89463545011E+02 0.  0.
         24    2    1    2    0    0  0.89371495629E+02  0.24658540706E+03 -0.32328195243E+03  0.42406772321E+03  0.80812040546E+02 0.  0.
        -13    1    4    4    0    0  0.82770646791E+02  0.25224586438E+03 -0.31607375224E+03  0.41277302833E+03  0.00000000000E+00 0.  1.
         14    1    4    4    0    0  0.66008488376E+01 -0.56604573161E+01 -0.72082001925E+01  0.11294694879E+02  0.00000000000E+00 0. -1.
        -13    1    3    3    0    0  0.15022390588E+02 -0.12330904178E+03 -0.22262383107E+03  0.25493560396E+03  0.00000000000E+00 0.  1.
         13    1    3    3    0    0 -0.19125604689E+02 -0.34876751449E+02 -0.11371384895E+02  0.41370097181E+02  0.00000000000E+00 0. -1.
         -4    1    1    2    0  502 -0.85268281527E+02 -0.88399613829E+02 -0.20490029034E+02  0.12451912644E+03  0.00000000000E+00 0.  1.
<scales pt_clust_5="13000.00000" pt_clust_6="13000.00000" pt_clust_7="13000.00000" pt_clust_8="13000.00000" pt_clust_9="13000.00000"></scales>
<clustering>
<clus scale="   80.812">  5  6 -1 -1</clus>
<clus scale="   89.464">  7  8 -1 -1</clus>
<clus scale="  122.822">  5  9 -1 -1</clus>
<clus scale="  181.778">  1  7  2 -1</clus>
<clus scale="  427.514">  2  5  1 -1</clus>
</clustering>
</event>
<event>
 9    2  0.3726337E-005  0.2054397E+03  0.7546771E-02  0.1173009E+00
         21   -1    0    0  501  502  0.00000000000E+00  0.00000000000E+00  0.22984954499E+02  0.22984954499E+02  0.00000000000E+00 0. -1.
          2   -1    0    0  502    0 -0.00000000000E+00 -0.00000000000E+00 -0.11032305981E+04  0.11032305981E+04  0.00000000000E+00 0. -1.
         23    2    1    2    0    0 -0.60724165784E+00 -0.57035647547E+02 -0.27726140054E+03  0.29736744941E+03  0.91104785294E+02 0.  0.
         24    2    1    2    0    0 -0.69933784709E+01 -0.36147423220E+02 -0.20099246893E+03  0.21963964115E+03  0.80548468949E+02 0.  0.
        -11    1    4    4    0    0  0.10252412726E+02 -0.19597292107E+02 -0.56327206050E+01  0.22823088443E+02  0.00000000000E+00 0.  1.
         12    1    4    4    0    0 -0.17245791197E+02 -0.16550131113E+02 -0.19535974833E+03  0.19681655271E+03  0.00000000000E+00 0. -1.
        -11    1    3    3    0    0  0.32580321601E+02 -0.24383109686E+01 -0.39965575653E+02  0.51620441235E+02  0.00000000000E+00 0. -1.
         11    1    3    3    0    0 -0.33187563259E+02 -0.54597336578E+02 -0.23729582489E+03  0.24574700817E+03  0.00000000000E+00 0.  1.
          1    1    1    2  501    0  0.76006201287E+01  0.93183070767E+02 -0.60199177417E+03  0.60920846208E+03  0.00000000000E+00 0. -1.
<scales pt_clust_5="13000.00000" pt_clust_6="13000.00000" pt_clust_7="13000.00000" pt_clust_8="13000.00000" pt_clust_9="13000.00000"></scales>
<clustering>
<clus scale="   80.548">  5  6 -1 -1</clus>
<clus scale="   91.105">  7  8 -1 -1</clus>
<clus scale="   93.493">  5  9 -1 -1</clus>
<clus scale="  107.487">  2  7  1 -1</clus>
<clus scale="  205.440">  1  5  2 -1</clus>
</clustering>
</event>
<event>
 9    2  0.3726337E-005  0.2960910E+03  0.7546771E-02  0.1132093E+00
          2   -1    0    0  502    0 -0.00000000000E+00  0.00000000000E+00  0.30711543067E+03  0.30711543067E+03  0.00000000000E+00 0. -1.
         21   -1    0    0  501  502  0.00000000000E+00 -0.00000000000E+00 -0.12865764478E+03  0.12865764478E+03  0.00000000000E+00 0. -1.
         23    2    1    2    0    0  0.12687792243E+02 -0.25149372904E+02  0.80287657334E+02  0.12383193253E+03  0.89970931775E+02 0.  0.
         24    2    1    2    0    0  0.51049287113E+02 -0.60894915656E+02 -0.54394420959E+02  0.12554914565E+03  0.80558143444E+02 0.  0.
        -13    1    4    4    0    0 -0.20196371985E+02 -0.27552571576E+02 -0.12124985385E+02  0.36249867756E+02  0.00000000000E+00 0.  1.
         14    1    4    4    0    0  0.71245659097E+02 -0.33342344080E+02 -0.42269435574E+02  0.89299277896E+02  0.00000000000E+00 0. -1.
        -11    1    3    3    0    0 -0.13285961799E+02  0.25026556006E+02  0.35764766387E+01  0.28559349985E+02  0.00000000000E+00 0.  1.
         11    1    3    3    0    0  0.25973754042E+02 -0.50175928910E+02  0.76711180696E+02  0.95272582545E+02  0.00000000000E+00 0. -1.
          1    1    1    2  501    0 -0.63737079356E+02  0.86044288560E+02  0.15256454951E+03  0.18639199727E+03  0.00000000000E+00 0. -1.
<scales pt_clust_5="13000.00000" pt_clust_6="13000.00000" pt_clust_7="13000.00000" pt_clust_8="13000.00000" pt_clust_9="13000.00000"></scales>
<clustering>
<clus scale="   80.558">  5  6 -1 -1</clus>
<clus scale="   89.971">  7  8 -1 -1</clus>
<clus scale="   94.277">  1  7  2 -1</clus>
<clus scale="   84.228">  5  9 -1 -1</clus>
<clus scale="  296.091">  2  5  1 -1</clus>
</clustering>
</event>
<event>
 9    2  0.3726337E-005  0.2021187E+03  0.7546771E-02  0.1178331E+00
         21   -1    0    0  501  502  0.00000000000E+00  0.00000000000E+00  0.96004118899E+03  0.96004118899E+03  0.00000000000E+00 0. -1.
         -3   -1    0    0    0  501 -0.00000000000E+00 -0.00000000000E+00 -0.32481340577E+02  0.32481340577E+02  0.00000000000E+00 0.  1.
         23    2    1    2    0    0 -0.22319887402E+02  0.33412762838E+02  0.10318206167E+03  0.14372885604E+03  0.91634360979E+02 0.  0.
         24    2    1    2    0    0 -0.24962287560E+02 -0.89402944854E+02  0.39992422494E+03  0.41806019367E+03  0.78860240213E+02 0.  0.
        -13    1    4    4    0    0 -0.27177124033E+02  0.46143616788E+01  0.81231714667E+02  0.85781582360E+02  0.00000000000E+00 0.  1.
         14    1    4    4    0    0  0.22148364738E+01 -0.94017306533E+02  0.31869251027E+03  0.33227861130E+03  0.00000000000E+00 0. -1.
        -13    1    3    3    0    0 -0.52263684548E+02  0.42705414077E+02  0.59600530818E+02  0.90041481483E+02  0.00000000000E+00 0.  1.
         13    1    3    3    0    0  0.29943797146E+02 -0.92926512389E+01  0.43581530855E+02  0.53687374552E+02  0.00000000000E+00 0. -1.
         -4    1    1    2    0  502  0.47282174961E+02  0.55990182016E+02  0.42445356180E+03  0.43073347986E+03  0.00000000000E+00 0.  1.
<scales pt_clust_5="13000.00000" pt_clust_6="13000.00000" pt_clust_7="13000.00000" pt_clust_8="13000.00000" pt_clust_9="13000.00000"></scales>
<clustering>
<clus scale="   78.860">  5  6 -1 -1</clus>
<clus scale="   73.284">  5  9 -1 -1</clus>
<clus scale="   91.634">  7  8 -1 -1</clus>
<clus scale="  100.057">  2  7  1 -1</clus>
<clus scale="  202.119">  1  5  2 -1</clus>
</clustering>
</event>
<event>
 9    2  0.8122750E-005  0.2939003E+03  0.7546771E-02  0.1115127E+00
          2   -1    0    0  502    0 -0.00000000000E+00  0.00000000000E+00  0.43888040587E+03  0.43888040587E+03  0.00000000000E+00 0. -1.
         21   -1    0    0  501  502  0.00000000000E+00 -0.00000000000E+00 -0.29143149358E+03  0.29143149358E+03  0.00000000000E+00 0. -1.
         23    2    1    2    0    0 -0.10082039018E+03  0.57311670938E+02  0.34580979531E+03  0.37573551612E+03  0.90240705021E+02 0.  0.
         24    2    1    2    0    0 -0.30129661748E+02  0.54549110878E+02 -0.14154708616E+02  0.10240052148E+03  0.80013180225E+02 0.  0.
        -11    1    4    4    0    0  0.87654373199E+01  0.21300055757E+02  0.27891060291E+02  0.36172316912E+02  0.00000000000E+00 0.  1.
         12    1    4    4    0    0 -0.38895099068E+02  0.33249055121E+02 -0.42045768906E+02  0.66228204572E+02  0.00000000000E+00 0. -1.
        -11    1    3    3    0    0 -0.56963446992E+01  0.23192527557E+02  0.11540522708E+02  0.26524052138E+02  0.00000000000E+00 0.  1.
         11    1    3    3    0    0 -0.95124045481E+02  0.34119143381E+02  0.33426927260E+03  0.34921146398E+03  0.00000000000E+00 0. -1.
          1    1    1    2  501    0  0.13095005193E+03 -0.11186078182E+03 -0.18420617440E+03  0.25217586184E+03  0.00000000000E+00 0. -1.
<scales pt_clust_5="13000.00000" pt_clust_6="13000.00000" pt_clust_7="13000.00000" pt_clust_8="13000.00000" pt_clust_9="13000.00000"></scales>
<clustering>
<clus scale="   80.013">  5  6 -1 -1</clus>
<clus scale="   90.241">  7  8 -1 -1</clus>
<clus scale="  146.945">  1  7  2 -1</clus>
<clus scale="  123.042">  5  9 -1 -1</clus>
<clus scale="  293.900">  2  5  1 -1</clus>
</clustering>
</event>
<event>
 9    2  0.3726337E-005  0.2571450E+03  0.7546771E-02  0.1128495E+00
         21   -1    0    0  501  502  0.00000000000E+00  0.00000000000E+00  0.27545495209E+03  0.27545495209E+03  0.00000000000E+00 0. -1.
          2   -1    0    0  502    0 -0.00000000000E+00 -0.00000000000E+00 -0.16051166774E+03  0.16051166774E+03  0.00000000000E+00 0. -1.
         23    2    1    2    0    0 -0.78535874747E+02 -0.10117956780E+03  0.78508139239E+01  0.15741259640E+03  0.91169631260E+02 0.  0.
         24    2    1    2    0    0  0.52832864218E+02 -0.46320089824E+02  0.33936737358E+02  0.11191502731E+03  0.80227233106E+02 0.  0.
        -13    1    4    4    0    0 -0.14455561137E+02 -0.21921315004E+02 -0.98079571877E+01  0.28030399988E+02  0.00000000000E+00 0.  1.
         14    1    4    4    0    0  0.67288425356E+02 -0.24398774820E+02  0.43744694545E+02  0.83884627319E+02  0.00000000000E+00 0. -1.
        -13    1    3    3    0    0  0.15803275256E+01 -0.63134463130E+02  0.23436951110E+02  0.67362812791E+02  0.00000000000E+00 0.  1.
         13    1    3    3    0    0 -0.80116202272E+02 -0.38045104670E+02 -0.15586137186E+02  0.90049783610E+02  0.00000000000E+00 0. -1.
          1    1    1    2  501    0  0.25703010528E+02  0.14749965762E+03  0.73155733068E+02  0.16663899613E+03  0.00000000000E+00 0. -1.
<scales pt_clust_5="13000.00000" pt_clust_6="13000.00000" pt_clust_7="13000.00000" pt_clust_8="13000.00000" pt_clust_9="13000.00000"></scales>
<clustering>
<clus scale="   80.227">  5  6 -1 -1</clus>
<clus scale="   91.170">  7  8 -1 -1</clus>
<clus scale="  149.722">  5  9 -1 -1</clus>
<clus scale="  157.217">  2  7  1 -1</clus>
<clus scale="  257.145">  1  5  2 -1</clus>
</clustering>
</event>
<event>
 9    2  0.3726337E-005  0.1992461E+03  0.7546771E-02  0.1171772E+00
         21   -1    0    0  501  502  0.00000000000E+00  0.00000000000E+00  0.18060771433E+03  0.18060771433E+03  0.00000000000E+00 0. -1.
          2   -1    0    0  502    0 -0.00000000000E+00 -0.00000000000E+00 -0.18838087133E+03  0.18838087133E+03  0.00000000000E+00 0. -1.
         23    2    1    2    0    0  0.33906280576E+02  0.70986359678E+02 -0.92516742311E+02  0.15246955485E+03  0.92189578722E+02 0.  0.
         24    2    1    2    0    0 -0.45570819689E+02  0.28330479054E+02  0.24287337372E+02  0.99665045678E+02  0.80398575378E+02 0.  0.
        -13    1    4    4    0    0 -0.63859579264E+01 -0.23712428936E+02 -0.94369270877E+01  0.26308085022E+02  0.00000000000E+00 0.  1.
         14    1    4    4    0    0 -0.39184861762E+02  0.52042907989E+02  0.33724264460E+02  0.73356960656E+02  0.00000000000E+00 0. -1.
        -11    1    3    3    0    0 -0.80400231545E+01  0.18845156706E+02  0.15301677265E+02  0.25571922703E+02  0.00000000000E+00 0.  1.
         11    1    3    3    0    0  0.41946303730E+02  0.52141202973E+02 -0.10781841958E+03  0.12689763215E+03  0.00000000000E+00 0. -1.
          1    1    1    2  501    0  0.11664539113E+02 -0.99316838732E+02  0.60456247936E+02  0.11685398514E+03  0.00000000000E+00 0. -1.
<scales pt_clust_5="13000.00000" pt_clust_6="13000.00000" pt_clust_7="13000.00000" pt_clust_8="13000.00000" pt_clust_9="13000.00000"></scales>
<clustering>
<clus scale="   80.399">  5  6 -1 -1</clus>
<clus scale="   92.190">  7  8 -1 -1</clus>
<clus scale="  100.000">  5  9 -1 -1</clus>
<clus scale="  121.192">  2  7  1 -1</clus>
<clus scale="  199.246">  1  5  2 -1</clus>
</clustering>
</event>
<event>
 9    2  0.3726337E-005  0.2497135E+03  0.7546771E-02  0.1142437E+00
         21   -1    0    0  501  502  0.00000000000E+00  0.00000000000E+00  0.44279623017E+03  0.44279623017E+03  0.00000000000E+00 0.  1.
          2   -1    0    0  502    0 -0.00000000000E+00 -0.00000000000E+00 -0.78327627044E+02  0.78327627044E+02  0.00000000000E+00 0. -1.
         23    2    1    2    0    0  0.10050493596E+02  0.79658306191E+02  0.10801911508E+03  0.16318086240E+03  0.92268122689E+02 0.  0.
         24    2    1    2    0    0  0.15679428880E+02 -0.60100455287E+02  0.29265472607E+03  0.30941096721E+03  0.78933191509E+02 0.  0.
        -13    1    4    4    0    0  0.32374232135E+02 -0.30605788165E+02  0.25453075778E+03  0.25840029379E+03  0.00000000000E+00 0.  1.
         14    1    4    4    0    0 -0.16694803255E+02 -0.29494667123E+02  0.38123968297E+02  0.51010673423E+02  0.00000000000E+00 0. -1.
        -13    1    3    3    0    0  0.43271465298E+02  0.21292465323E+02  0.72863214293E+02  0.87377553100E+02  0.00000000000E+00 0. -1.
         13    1    3    3    0    0 -0.33220971702E+02  0.58365840868E+02  0.35155900791E+02  0.75803309304E+02  0.00000000000E+00 0.  1.
          1    1    1    2  501    0 -0.25729922477E+02 -0.19557850903E+02 -0.36205238027E+02  0.48532027603E+02  0.00000000000E+00 0. -1.
<scales pt_clust_5="13000.00000" pt_clust_6="13000.00000" pt_clust_7="13000.00000" pt_clust_8="13000.00000" pt_clust_9="13000.00000"></scales>
<clustering>
<clus scale="   78.933">  5  6 -1 -1</clus>
<clus scale="   32.319">  5  9 -1 -1</clus>
<clus scale="   92.268">  7  8 -1 -1</clus>
<clus scale="  122.311">  2  7  1 -1</clus>
<clus scale="  249.714">  1  5  2 -1</clus>
</clustering>
</event>
<event>
 9    2  0.3726337E-005  0.2617278E+03  0.7546771E-02  0.1131722E+00
         -1   -1    0    0    0  501 -0.00000000000E+00  0.00000000000E+00  0.12323712662E+04  0.12323712662E+04  0.00000000000E+00 0.  1.
         21   -1    0    0  501  502  0.00000000000E+00 -0.00000000000E+00 -0.33057376322E+02  0.33057376322E+02  0.00000000000E+00 0.  1.
         23    2    1    2    0    0 -0.92172972302E+02  0.32495605877E+02  0.33069826331E+03  0.35823816809E+03  0.97064012369E+02 0.  0.
         24    2    1    2    0    0 -0.15714658064E+02  0.74822145548E+02  0.34355670190E+03  0.36052447500E+03  0.78111367378E+02 0.  0.
        -13    1    4    4    0    0  0.15012469870E+02  0.40814403229E+02  0.64895859787E+02  0.78119539042E+02  0.00000000000E+00 0.  1.
         14    1    4    4    0    0 -0.30727127934E+02  0.34007742319E+02  0.27866084211E+03  0.28240493596E+03  0.00000000000E+00 0. -1.
        -13    1    3    3    0    0 -0.10843258952E+03  0.16256675790E+02  0.22791429308E+03  0.25291664826E+03  0.00000000000E+00 0.  1.
         13    1    3    3    0    0  0.16259617223E+02  0.16238930087E+02  0.10278397023E+03  0.10532151983E+03  0.00000000000E+00 0. -1.
         -2    1    1    2    0  502  0.10788763037E+03 -0.10731775143E+03  0.52505892470E+03  0.54666599946E+03  0.00000000000E+00 0.  1.
<scales pt_clust_5="13000.00000" pt_clust_6="13000.00000" pt_clust_7="13000.00000" pt_clust_8="13000.00000" pt_clust_9="13000.00000"></scales>
<clustering>
<clus scale="   78.111">  5  6 -1 -1</clus>
<clus scale="   97.064">  7  8 -1 -1</clus>
<clus scale="  137.743">  1  7  2 -1</clus>
<clus scale="  102.095">  5  9 -1 -1</clus>
<clus scale="  261.728">  2  5  1 -1</clus>
</clustering>
</event>
<event>
 9    2  0.3726337E-005  0.1473381E+03  0.7546771E-02  0.1229435E+00
         -3   -1    0    0    0  501 -0.00000000000E+00  0.00000000000E+00  0.45641916214E+03  0.45641916214E+03  0.00000000000E+00 0.  1.
         21   -1    0    0  501  502  0.00000000000E+00 -0.00000000000E+00 -0.36687397845E+02  0.36687397845E+02  0.00000000000E+00 0. -1.
         23    2    1    2    0    0  0.11104565666E+02 -0.45879586730E+01  0.60726650327E+02  0.10504319572E+03  0.84864516522E+02 0.  0.
         24    2    1    2    0    0  0.27083186128E+02 -0.27389643089E+02  0.28899662197E+03  0.30214444694E+03  0.79300238258E+02 0.  0.
        -11    1    4    4    0    0  0.40649057582E+02  0.15037676525E+02  0.15446577405E+03  0.16043114707E+03  0.00000000000E+00 0.  1.
         12    1    4    4    0    0 -0.13565871454E+02 -0.42427319614E+02  0.13453084792E+03  0.14171329987E+03  0.00000000000E+00 0. -1.
        -13    1    3    3    0    0 -0.32380331017E+02  0.12550370986E+02  0.10159108927E+02  0.36182939942E+02  0.00000000000E+00 0. -1.
         13    1    3    3    0    0  0.43484896684E+02 -0.17138329659E+02  0.50567541400E+02  0.68860255782E+02  0.00000000000E+00 0.  1.
         -4    1    1    2    0  502 -0.38187751794E+02  0.31977601762E+02  0.70008491999E+02  0.85918917321E+02  0.00000000000E+00 0.  1.
<scales pt_clust_5="13000.00000" pt_clust_6="13000.00000" pt_clust_7="13000.00000" pt_clust_8="13000.00000" pt_clust_9="13000.00000"></scales>
<clustering>
<clus scale="   79.300">  5  6 -1 -1</clus>
<clus scale="   49.808">  5  9 -1 -1</clus>
<clus scale="   84.865">  7  8 -1 -1</clus>
<clus scale="   85.711">  1  7  2 -1</clus>
<clus scale="  147.338">  2  5  1 -1</clus>
</clustering>
</event>
<event>
 9    2  0.3726337E-005  0.3035817E+03  0.7546771E-02  0.1091144E+00
         21   -1    0    0  501  502  0.00000000000E+00  0.00000000000E+00  0.13382302255E+03  0.13382302255E+03  0.00000000000E+00 0. -1.
          2   -1    0    0  502    0 -0.00000000000E+00 -0.00000000000E+00 -0.98654933267E+03  0.98654933267E+03  0.00000000000E+00 0. -1.
         23    2    1    2    0    0  0.13140920550E+03  0.18411895531E+03 -0.76546911795E+03  0.80449950049E+03  0.10054007543E+03 0.  0.
         24    2    1    2    0    0 -0.44488263348E+02 -0.25559864654E+02 -0.94421544590E+02  0.13490997633E+03  0.81564461459E+02 0.  0.
        -11    1    4    4    0    0 -0.56768085964E+02  0.88689905563E+01 -0.71656765917E+02  0.91847518634E+02  0.00000000000E+00 0.  1.
         12    1    4    4    0    0  0.12279822616E+02 -0.34428855210E+02 -0.22764778672E+02  0.43062457693E+02  0.00000000000E+00 0. -1.
        -11    1    3    3    0    0  0.38220487282E+02  0.12633649240E+03 -0.50340040491E+03  0.52041683545E+03  0.00000000000E+00 0. -1.
         11    1    3    3    0    0  0.93188718218E+02  0.57782462916E+02 -0.26206871304E+03  0.28408266504E+03  0.00000000000E+00 0.  1.
          1    1    1    2  501    0 -0.86920942152E+02 -0.15855909066E+03  0.71643524152E+01  0.18096287841E+03  0.00000000000E+00 0. -1.
<scales pt_clust_5="13000.00000" pt_clust_6="13000.00000" pt_clust_7="13000.00000" pt_clust_8="13000.00000" pt_clust_9="13000.00000"></scales>
<clustering>
<clus scale="   81.564">  5  6 -1 -1</clus>
<clus scale="  100.540">  7  8 -1 -1</clus>
<clus scale="  180.821">  5  9 -1 -1</clus>
<clus scale="  247.541">  2  7  1 -1</clus>
<clus scale="  303.582">  1  5  2 -1</clus>
</clustering>
</event>
<event>
 9    2  0.3726337E-005  0.5212214E+03  0.7546771E-02  0.1055825E+00
         21   -1    0    0  501  502  0.00000000000E+00  0.00000000000E+00  0.14379361512E+03  0.14379361512E+03  0.00000000000E+00 0.  1.
         -1   -1    0    0    0  501 -0.00000000000E+00 -0.00000000000E+00 -0.78064373080E+03  0.78064373080E+03  0.00000000000E+00 0.  1.
         23    2    1    2    0    0 -0.83585382446E+02  0.32614210155E+02 -0.45156143334E+02  0.13591116981E+03  0.91556353872E+02 0.  0.
         24    2    1    2    0    0  0.21630090418E+03 -0.55672821084E+02 -0.60740235626E+03  0.65290957473E+03  0.86416122446E+02 0.  0.
        -11    1    4    4    0    0  0.18972812916E+03 -0.73823527882E+02 -0.47765593765E+03  0.51923200116E+03  0.00000000000E+00 0.  1.
         12    1    4    4    0    0  0.26572775015E+02  0.18150706797E+02 -0.12974641862E+03  0.13367757356E+03  0.00000000000E+00 0. -1.
        -11    1    3    3    0    0 -0.10092623394E+03  0.14368171791E+02 -0.43018404933E+02  0.11064868830E+03  0.00000000000E+00 0. -1.
         11    1    3    3    0    0  0.17340851496E+02  0.18246038364E+02 -0.21377384014E+01  0.25262481511E+02  0.00000000000E+00 0.  1.
         -2    1    1    2    0  502 -0.13271552173E+03  0.23058610929E+02  0.15708383911E+02  0.13561660139E+03  0.00000000000E+00 0.  1.
<scales pt_clust_5="13000.00000" pt_clust_6="13000.00000" pt_clust_7="13000.00000" pt_clust_8="13000.00000" pt_clust_9="13000.00000"></scales>
<clustering>
<clus scale="   86.416">  5  6 -1 -1</clus>
<clus scale="   91.556">  7  8 -1 -1</clus>
<clus scale="  128.190">  2  7  1 -1</clus>
<clus scale="  142.352">  5  9 -1 -1</clus>
<clus scale="  521.221">  1  5  2 -1</clus>
</clustering>
</event>
<event>
 9    2  0.3726337E-005  0.3402394E+03  0.7546771E-02  0.1092258E+00
         21   -1    0    0  501  502  0.00000000000E+00  0.00000000000E+00  0.29070881940E+03  0.29070881940E+03  0.00000000000E+00 0. -1.
          2   -1    0    0  502    0 -0.00000000000E+00 -0.00000000000E+00 -0.22909314662E+03  0.22909314662E+03  0.00000000000E+00 0. -1.
         23    2    1    2    0    0  0.11305421823E+03  0.91770069694E+02 -0.13777511998E+02  0.17130951677E+03  0.89185922364E+02 0.  0.
         24    2    1    2    0    0 -0.14364217605E+03  0.66345043469E+02  0.23410417495E+02  0.17926414113E+03  0.80949645561E+02 0.  0.
        -11    1    4    4    0    0 -0.23811143241E+02  0.30936418505E+02 -0.23763645187E+02  0.45702771961E+02  0.00000000000E+00 0.  1.
         12    1    4    4    0    0 -0.11983103281E+03  0.35408624964E+02  0.47174062681E+02  0.13356136917E+03  0.00000000000E+00 0. -1.
        -11    1    3    3    0    0  0.71695479287E+02  0.84742675766E+02 -0.44209652147E+02  0.11948245139E+03  0.00000000000E+00 0. -1.
         11    1    3    3    0    0  0.41358738938E+02  0.70273939288E+01  0.30432140150E+02  0.51827065382E+02  0.00000000000E+00 0.  1.
          1    1    1    2  501    0  0.30587957823E+02 -0.15811511316E+03  0.51982767289E+02  0.16922830812E+03  0.00000000000E+00 0. -1.
<scales pt_clust_5="13000.00000" pt_clust_6="13000.00000" pt_clust_7="13000.00000" pt_clust_8="13000.00000" pt_clust_9="13000.00000"></scales>
<clustering>
<clus scale="   80.950">  5  6 -1 -1</clus>
<clus scale="   89.186">  7  8 -1 -1</clus>
<clus scale="  161.047">  5  9 -1 -1</clus>
<clus scale="  170.755">  2  7  1 -1</clus>
<clus scale="  340.239">  1  5  2 -1</clus>
</clustering>
</event>
<event>
 9    2  0.3726337E-005  0.3646369E+03  0.7546771E-02  0.1073985E+00
          2   -1    0    0  502    0 -0.00000000000E+00  0.00000000000E+00  0.41096485511E+03  0.41096485511E+03  0.00000000000E+00 0. -1.
         21   -1    0    0  501  502  0.00000000000E+00 -0.00000000000E+00 -0.25419588086E+03  0.25419588086E+03  0.00000000000E+00 0. -1.
         23    2    1    2    0    0 -0.24913290147E+02 -0.20660243447E+03 -0.68642037181E+02  0.23647644668E+03  0.88905245120E+02 0.  0.
         24    2    1    2    0    0 -0.24684648968E+02 -0.16658943108E+02  0.17393921162E+03  0.19425957972E+03  0.81210114494E+02 0.  0.
        -11    1    4    4    0    0 -0.46915294757E+02  0.30357167476E+01  0.14637464330E+03  0.15373937901E+03  0.00000000000E+00 0.  1.
         12    1    4    4    0    0  0.22230645790E+02 -0.19694659856E+02  0.27564568318E+02  0.40520200711E+02  0.00000000000E+00 0. -1.
        -11    1    3    3    0    0 -0.43050307626E+02 -0.16006084865E+03 -0.20341868630E+02  0.16699280187E+03  0.00000000000E+00 0. -1.
         11    1    3    3    0    0  0.18137017480E+02 -0.46541585824E+02 -0.48300168551E+02  0.69483644810E+02  0.00000000000E+00 0.  1.
          1    1    1    2  501    0  0.49597939114E+02  0.22326137758E+03  0.51471799806E+02  0.23442470957E+03  0.00000000000E+00 0. -1.
<scales pt_clust_5="13000.00000" pt_clust_6="13000.00000" pt_clust_7="13000.00000" pt_clust_8="13000.00000" pt_clust_9="13000.00000"></scales>
<clustering>
<clus scale="   81.210">  5  6 -1 -1</clus>
<clus scale="   88.905">  7  8 -1 -1</clus>
<clus scale="  226.295">  1  7  2 -1</clus>
<clus scale="  138.478">  5  9 -1 -1</clus>
<clus scale="  364.637">  2  5  1 -1</clus>
</clustering>
</event>
<event>
 9    2  0.3726337E-005  0.2026740E+03  0.7546771E-02  0.1172071E+00
          2   -1    0    0  502    0 -0.00000000000E+00  0.00000000000E+00  0.18431586908E+03  0.18431586908E+03  0.00000000000E+00 0. -1.
         21   -1    0    0  501  502  0.00000000000E+00 -0.00000000000E+00 -0.16286592007E+03  0.16286592007E+03  0.00000000000E+00 0. -1.
         23    2    1    2    0    0 -0.37356861005E+02 -0.63941779491E+02  0.75974606482E+02  0.13730161704E+03  0.87152205837E+02 0.  0.
         24    2    1    2    0    0  0.66851628678E+01 -0.57269384564E+01  0.39015046278E+02  0.89281003351E+02  0.79821265942E+02 0.  0.
        -11    1    4    4    0    0 -0.24505900989E+02  0.53593180739E+01  0.48708281635E+02  0.54788303253E+02  0.00000000000E+00 0.  1.
         12    1    4    4    0    0  0.31191063857E+02 -0.11086256530E+02 -0.96932353566E+01  0.34492700098E+02  0.00000000000E+00 0. -1.
        -13    1    3    3    0    0  0.73598952506E+01 -0.65443557212E+02  0.27593158437E+02  0.71403148608E+02  0.00000000000E+00 0. -1.
         13    1    3    3    0    0 -0.44716756256E+02  0.15017777209E+01  0.48381448045E+02  0.65898468429E+02  0.00000000000E+00 0.  1.
          1    1    1    2  501    0  0.30671698137E+02  0.69668717947E+02 -0.93539703753E+02  0.12059916876E+03  0.00000000000E+00 0. -1.
<scales pt_clust_5="13000.00000" pt_clust_6="13000.00000" pt_clust_7="13000.00000" pt_clust_8="13000.00000" pt_clust_9="13000.00000"></scales>
<clustering>
<clus scale="   79.821">  5  6 -1 -1</clus>
<clus scale="   76.122">  5  9 -1 -1</clus>
<clus scale="   87.152">  7  8 -1 -1</clus>
<clus scale="  114.366">  1  7  2 -1</clus>
<clus scale="  202.674">  2  5  1 -1</clus>
</clustering>
</event>
<event>
 9    2  0.3726337E-005  0.2336404E+03  0.7546771E-02  0.1158102E+00
          4   -1    0    0  502    0 -0.00000000000E+00  0.00000000000E+00  0.69739979948E+03  0.69739979948E+03  0.00000000000E+00 0. -1.
         21   -1    0    0  501  502  0.00000000000E+00 -0.00000000000E+00 -0.41561864484E+02  0.41561864484E+02  0.00000000000E+00 0.  1.
         23    2    1    2    0    0  0.25252848802E+02  0.38069861672E+02  0.25451473421E+03  0.27458235221E+03  0.92361774979E+02 0.  0.
         24    2    1    2    0    0  0.84769387934E+02  0.22011263590E+01  0.21125891413E+03  0.24110576178E+03  0.79441585309E+02 0.  0.
        -13    1    4    4    0    0  0.32066817349E+02  0.26835059369E+02  0.32030387410E+02  0.52672069485E+02  0.00000000000E+00 0.  1.
         14    1    4    4    0    0  0.52702570586E+02 -0.24633933010E+02  0.17922852672E+03  0.18843369229E+03  0.00000000000E+00 0. -1.
        -11    1    3    3    0    0 -0.18296429762E+02  0.46220441715E+02  0.18946419488E+03  0.19587692492E+03  0.00000000000E+00 0.  1.
         11    1    3    3    0    0  0.43549278564E+02 -0.81505800428E+01  0.65050539326E+02  0.78705427291E+02  0.00000000000E+00 0. -1.
          3    1    1    2  501    0 -0.11002223674E+03 -0.40270988031E+02  0.19006428666E+03  0.22327354997E+03  0.00000000000E+00 0. -1.
<scales pt_clust_5="13000.00000" pt_clust_6="13000.00000" pt_clust_7="13000.00000" pt_clust_8="13000.00000" pt_clust_9="13000.00000"></scales>
<clustering>
<clus scale="   79.442">  5  6 -1 -1</clus>
<clus scale="   92.362">  7  8 -1 -1</clus>
<clus scale="  103.042">  1  7  2 -1</clus>
<clus scale="  100.426">  5  9 -1 -1</clus>
<clus scale="  233.640">  2  5  1 -1</clus>
</clustering>
</event>
<event>
 9    2  0.3726337E-005  0.2466394E+03  0.7546771E-02  0.1156383E+00
         21   -1    0    0  501  502  0.00000000000E+00  0.00000000000E+00  0.32325006453E+02  0.32325006453E+02  0.00000000000E+00 0. -1.
          2   -1    0    0  502    0 -0.00000000000E+00 -0.00000000000E+00 -0.93801017969E+03  0.93801017969E+03  0.00000000000E+00 0. -1.
         23    2    1    2    0    0 -0.40704911289E+02  0.35148344402E+02 -0.15128760222E+03  0.17664338989E+03  0.73638663023E+02 0.  0.
         24    2    1    2    0    0  0.21723061897E+02 -0.10170022376E+03 -0.23024352731E+03  0.26498873707E+03  0.79950747164E+02 0.  0.
        -13    1    4    4    0    0 -0.44790863844E+01 -0.34426275334E+02 -0.16188024551E+03  0.16556099944E+03  0.00000000000E+00 0.  1.
         14    1    4    4    0    0  0.26202148281E+02 -0.67273948425E+02 -0.68363281801E+02  0.99427737628E+02  0.00000000000E+00 0. -1.
        -13    1    3    3    0    0 -0.37400555506E+02 -0.14667698578E+02 -0.81169001645E+02  0.90566824841E+02  0.00000000000E+00 0. -1.
         13    1    3    3    0    0 -0.33043557835E+01  0.49816042980E+02 -0.70118600572E+02  0.86076565054E+02  0.00000000000E+00 0.  1.
          1    1    1    2  501    0  0.18981849393E+02  0.66551879356E+02 -0.52415404371E+03  0.52870305918E+03  0.00000000000E+00 0. -1.
<scales pt_clust_5="13000.00000" pt_clust_6="13000.00000" pt_clust_7="13000.00000" pt_clust_8="13000.00000" pt_clust_9="13000.00000"></scales>
<clustering>
<clus scale="   73.639">  7  8 -1 -1</clus>
<clus scale="   79.951">  5  6 -1 -1</clus>
<clus scale="   69.206">  5  9 -1 -1</clus>
<clus scale="   91.186">  2  7  1 -1</clus>
<clus scale="  246.639">  1  5  2 -1</clus>
</clustering>
</event>
<event>
 9    2  0.3726337E-005  0.2486187E+03  0.7546771E-02  0.1139614E+00
          4   -1    0    0  502    0 -0.00000000000E+00  0.00000000000E+00  0.16345720856E+03  0.16345720856E+03  0.00000000000E+00 0. -1.
         21   -1    0    0  501  502  0.00000000000E+00 -0.00000000000E+00 -0.25986844429E+03  0.25986844429E+03  0.00000000000E+00 0. -1.
         23    2    1    2    0    0  0.73751241439E+02  0.62158894542E+02  0.41538083157E+02  0.13899966427E+03  0.91063277624E+02 0.  0.
         24    2    1    2    0    0 -0.12660137717E+03 -0.60042267759E+02 -0.15959015641E+03  0.22717756073E+03  0.80669966271E+02 0.  0.
        -13    1    4    4    0    0 -0.57929698894E+02 -0.33280499991E+02 -0.13297951176E+03  0.14881865556E+03  0.00000000000E+00 0.  1.
         14    1    4    4    0    0 -0.68671678278E+02 -0.26761767768E+02 -0.26610644646E+02  0.78358905174E+02  0.00000000000E+00 0. -1.
        -13    1    3    3    0    0  0.41194238327E+02  0.83180545380E+02  0.21114756175E+02  0.95193494155E+02  0.00000000000E+00 0. -1.
         13    1    3    3    0    0  0.32557003111E+02 -0.21021650838E+02  0.20423326982E+02  0.43806170120E+02  0.00000000000E+00 0.  1.
          3    1    1    2  501    0  0.52850135734E+02 -0.21166267832E+01  0.21640837518E+02  0.57148427839E+02  0.00000000000E+00 0. -1.
<scales pt_clust_5="13000.00000" pt_clust_6="13000.00000" pt_clust_7="13000.00000" pt_clust_8="13000.00000" pt_clust_9="13000.00000"></scales>
<clustering>
<clus scale="   80.670">  5  6 -1 -1</clus>
<clus scale="   52.893">  5  9 -1 -1</clus>
<clus scale="   91.063">  7  8 -1 -1</clus>
<clus scale="  132.648">  1  7  2 -1</clus>
<clus scale="  248.619">  2  5  1 -1</clus>
</clustering>
</event>
<event>
 9    2  0.3726337E-005  0.1853998E+03  0.7546771E-02  0.1194771E+00
         21   -1    0    0  501  502  0.00000000000E+00  0.00000000000E+00  0.34398227691E+02  0.34398227691E+02  0.00000000000E+00 0. -1.
          2   -1    0    0  502    0 -0.00000000000E+00 -0.00000000000E+00 -0.62156501390E+03  0.62156501390E+03  0.00000000000E+00 0. -1.
         23    2    1    2    0    0  0.61940730772E+01 -0.63537028365E+01 -0.98949787726E+02  0.13372869167E+03  0.89518525475E+02 0.  0.
         24    2    1    2    0    0  0.51802528431E+02  0.27432245689E+02 -0.41538483691E+03  0.42677547746E+03  0.78464739690E+02 0.  0.
        -13    1    4    4    0    0 -0.11769141946E+02  0.29987713524E+02 -0.10084157611E+03  0.10586217048E+03  0.00000000000E+00 0.  1.
         14    1    4    4    0    0  0.63571670378E+02 -0.25554678353E+01 -0.31454326079E+03  0.32091330699E+03  0.00000000000E+00 0. -1.
        -13    1    3    3    0    0 -0.43299971655E+01 -0.43693032635E+02 -0.78326513441E+02  0.89793500233E+02  0.00000000000E+00 0. -1.
         13    1    3    3    0    0  0.10524070243E+02  0.37339329798E+02 -0.20623274285E+02  0.43935191436E+02  0.00000000000E+00 0.  1.
          1    1    1    2  501    0 -0.57996601509E+02 -0.21078542853E+02 -0.72832161576E+02  0.95459072461E+02  0.00000000000E+00 0. -1.
<scales pt_clust_5="13000.00000" pt_clust_6="13000.00000" pt_clust_7="13000.00000" pt_clust_8="13000.00000" pt_clust_9="13000.00000"></scales>
<clustering>
<clus scale="   78.465">  5  6 -1 -1</clus>
<clus scale="   61.708">  5  9 -1 -1</clus>
<clus scale="   89.519">  7  8 -1 -1</clus>
<clus scale="   89.957">  2  7  1 -1</clus>
<clus scale="  185.400">  1  5  2 -1</clus>
</clustering>
</event>
<event>
 9    2  0.3726337E-005  0.2678034E+03  0.7546771E-02  0.1140100E+00
         21   -1    0    0  501  502  0.00000000000E+00  0.00000000000E+00  0.54791338968E+02  0.54791338968E+02  0.00000000000E+00 0. -1.
          2   -1    0    0  502    0 -0.00000000000E+00 -0.00000000000E+00 -0.65871686129E+03  0.65871686129E+03  0.00000000000E+00 0. -1.
         23    2    1    2    0    0 -0.43362370494E+02  0.19757191449E+02 -0.11227360764E+03  0.15365084593E+03  0.93448262124E+02 0.  0.
         24    2    1    2    0    0 -0.56496164727E+02  0.66930993659E+02 -0.11472410548E+03  0.16040630370E+03  0.69978477753E+02 0.  0.
        -11    1    4    4    0    0 -0.18914951710E+02  0.57679281621E+02 -0.10370659275E+03  0.12016543723E+03  0.00000000000E+00 0.  1.
         12    1    4    4    0    0 -0.37581213017E+02  0.92517120375E+01 -0.11017512735E+02  0.40240866470E+02  0.00000000000E+00 0. -1.
        -13    1    3    3    0    0 -0.15699529825E+02 -0.34280342423E+02 -0.70534820186E+02  0.79979859790E+02  0.00000000000E+00 0.  1.
         13    1    3    3    0    0 -0.27662840669E+02  0.54037533872E+02 -0.41738787450E+02  0.73670986138E+02  0.00000000000E+00 0. -1.
          1    1    1    2  501    0  0.99858535222E+02 -0.86688185108E+02 -0.37692780920E+03  0.39945105062E+03  0.00000000000E+00 0. -1.
<scales pt_clust_5="13000.00000" pt_clust_6="13000.00000" pt_clust_7="13000.00000" pt_clust_8="13000.00000" pt_clust_9="13000.00000"></scales>
<clustering>
<clus scale="   69.978">  5  6 -1 -1</clus>
<clus scale="   93.448">  7  8 -1 -1</clus>
<clus scale="  104.896">  2  7  1 -1</clus>
<clus scale="   99.000">  5  9 -1 -1</clus>
<clus scale="  267.803">  1  5  2 -1</clus>
</clustering>
</event>
<event>
 9    2  0.3726337E-005  0.3017346E+03  0.7546771E-02  0.1123805E+00
         -3   -1    0    0    0  501 -0.00000000000E+00  0.00000000000E+00  0.80647978171E+02  0.80647978171E+02  0.00000000000E+00 0.  1.
         21   -1    0    0  501  502  0.00000000000E+00 -0.00000000000E+00 -0.55356351228E+03  0.55356351228E+03  0.00000000000E+00 0. -1.
         23    2    1    2    0    0 -0.96114932546E+01  0.46182565860E+02 -0.66109704857E+02  0.12771890355E+03  0.98571877613E+02 0.  0.
         24    2    1    2    0    0  0.66769941609E+02 -0.34855759288E+02 -0.42998141544E+03  0.44378299783E+03  0.79913593847E+02 0.  0.
        -13    1    4    4    0    0  0.48545826294E+02  0.83324907351E+01 -0.11183068851E+03  0.12219750629E+03  0.00000000000E+00 0.  1.
         14    1    4    4    0    0  0.18224115316E+02 -0.43188250024E+02 -0.31815072693E+03  0.32158549154E+03  0.00000000000E+00 0. -1.
        -11    1    3    3    0    0 -0.35283116042E+02 -0.17506006849E+02 -0.15119416014E+02  0.42189516399E+02  0.00000000000E+00 0.  1.
         11    1    3    3    0    0  0.25671622787E+02  0.63688572709E+02 -0.50990288843E+02  0.85529387152E+02  0.00000000000E+00 0. -1.
         -4    1    1    2    0  502 -0.57158448355E+02 -0.11326806572E+02  0.23175586191E+02  0.62709589065E+02  0.00000000000E+00 0.  1.
<scales pt_clust_5="13000.00000" pt_clust_6="13000.00000" pt_clust_7="13000.00000" pt_clust_8="13000.00000" pt_clust_9="13000.00000"></scales>
<clustering>
<clus scale="   79.914">  5  6 -1 -1</clus>
<clus scale="   58.270">  5  9 -1 -1</clus>
<clus scale="   98.572">  7  8 -1 -1</clus>
<clus scale="  109.278">  1  7  2 -1</clus>
<clus scale="  301.735">  2  5  1 -1</clus>
</clustering>
</event>
