<event>
10    2  0.5921424E-006  0.2785603E+03  0.7546771E-02  0.1132680E+00
         -1   -1    0    0    0  501 -0.00000000000E+00  0.00000000000E+00  0.30356749452E+03  0.30356749452E+03  0.00000000000E+00 0.  1.
         21   -1    0    0  501  502  0.00000000000E+00 -0.00000000000E+00 -0.19280830736E+03  0.19280830736E+03  0.00000000000E+00 0.  1.
         23    2    1    2    0    0 -0.65704621200E+02  0.48897187544E+01  0.10569192473E+03  0.15223201688E+03  0.87537405796E+02 0.  0.
         23    2    1    2    0    0 -0.54757567325E+02 -0.16259396646E+02  0.83702470177E+02  0.13773453662E+03  0.93284188930E+02 0.  0.
        -11    1    4    4    0    0 -0.58149672294E+02  0.27892310468E+02  0.42413348340E+02  0.77189749892E+02  0.00000000000E+00 0. -1.
         11    1    4    4    0    0  0.33921049686E+01 -0.44151707114E+02  0.41289121837E+02  0.60544786723E+02  0.00000000000E+00 0.  1.
        -11    1    3    3    0    0  0.11245941728E+02  0.27206471585E+02  0.28741799771E+02  0.41143096086E+02  0.00000000000E+00 0. -1.
         11    1    3    3    0    0 -0.76950562929E+02 -0.22316752831E+02  0.76950124957E+02  0.11108892079E+03  0.00000000000E+00 0.  1.
         21    1    1    2  503  502 -0.21658621195E+02 -0.25748963954E+02 -0.44181114834E+02  0.55534457094E+02  0.00000000000E+00 0.  1.
         -1    1    1    2    0  503  0.14212080972E+03  0.37118641846E+02 -0.34454092913E+02  0.15087479129E+03  0.00000000000E+00 0.  1.
<scales pt_clust_5="13000.00000" pt_clust_6="13000.00000" pt_clust_7="13000.00000" pt_clust_8="13000.00000" pt_clust_9="33.64677" pt_clust_10="13000.00000"></scales>
<clustering>
<clus scale="   33.647">  2  9  1 -1</clus>
<clus scale="   87.537">  7  8 -1 -1</clus>
<clus scale="   93.284">  5  6 -1 -1</clus>
<clus scale="  111.607">  1  7  2 -1</clus>
<clus scale="  109.838">  5 10 -1 -1</clus>
<clus scale="   33.647">  2  5  1 -1</clus>
</clustering>
</event>
<event>
10    2  0.5921424E-006  0.2045900E+03  0.7546771E-02  0.1176764E+00
         21   -1    0    0  501  502  0.00000000000E+00  0.00000000000E+00  0.85677670296E+02  0.85677670296E+02  0.00000000000E+00 0. -1.
          2   -1    0    0  503    0 -0.00000000000E+00 -0.00000000000E+00 -0.63001489593E+03  0.63001489593E+03  0.00000000000E+00 0. -1.
         23    2    1    2    0    0 -0.73811950275E+01 -0.58171904989E+01 -0.14245750271E+03  0.17031587438E+03  0.92871067842E+02 0.  0.
         23    2    1    2    0    0  0.64285595224E+02 -0.23485219686E+02 -0.39297465935E+03  0.40925212684E+03  0.91509710594E+02 0.  0.
        -11    1    4    4    0    0 -0.20167053352E+02 -0.84602788647E+01 -0.36053095948E+02  0.42167666367E+02  0.00000000000E+00 0. -1.
         11    1    4    4    0    0  0.84452648576E+02 -0.15024940821E+02 -0.35692156340E+03  0.36708446047E+03  0.00000000000E+00 0.  1.
        -13    1    3    3    0    0 -0.47753212064E+02  0.11961024948E+02 -0.75906577543E+02  0.90472337731E+02  0.00000000000E+00 0.  1.
         13    1    3    3    0    0  0.40372017036E+02 -0.17778215447E+02 -0.66550925163E+02  0.79843536645E+02  0.00000000000E+00 0. -1.
         21    1    1    2  503  502 -0.90338357276E+02 -0.15318114864E+01 -0.59310431693E+01  0.90545803408E+02  0.00000000000E+00 0. -1.
          2    1    1    2  501    0  0.33433957080E+02  0.30834221671E+02 -0.29740204112E+01  0.45578761605E+02  0.00000000000E+00 0. -1.
<scales pt_clust_5="13000.00000" pt_clust_6="13000.00000" pt_clust_7="13000.00000" pt_clust_8="13000.00000" pt_clust_9="90.35134" pt_clust_10="13000.00000"></scales>
<clustering>
<clus scale="   90.351">  1  9  2 -1</clus>
<clus scale="   91.510">  5  6 -1 -1</clus>
<clus scale="   32.009">  5 10 -1 -1</clus>
<clus scale="   92.871">  7  8 -1 -1</clus>
<clus scale="   99.947">  2  7  1 -1</clus>
<clus scale="   90.351">  1  5  2 -1</clus>
</clustering>
</event>
<event>
10    2  0.5921424E-006  0.3297212E+03  0.7546771E-02  0.1114278E+00
          2   -1    0    0  503    0 -0.00000000000E+00  0.00000000000E+00  0.97320484351E+03  0.97320484351E+03  0.00000000000E+00 0. -1.
         21   -1    0    0  501  502  0.00000000000E+00 -0.00000000000E+00 -0.69091739882E+02  0.69091739882E+02  0.00000000000E+00 0. -1.
         23    2    1    2    0    0 -0.53066204426E+02  0.32090758756E+02  0.36815202681E+03  0.38368206516E+03  0.88488267206E+02 0.  0.
         23    2    1    2    0    0 -0.22912974843E+02 -0.11478591413E+03  0.45716346414E+03  0.48069083608E+03  0.91457292996E+02 0.  0.
        -13    1    4    4    0    0 -0.43567046641E+02 -0.30391582369E+02  0.25782167941E+03  0.26323706845E+03  0.00000000000E+00 0.  1.
         13    1    4    4    0    0  0.20654071797E+02 -0.84394331758E+02  0.19934178474E+03  0.21745376763E+03  0.00000000000E+00 0. -1.
        -13    1    3    3    0    0 -0.45312556726E+02 -0.22779915832E+02  0.14021174447E+03  0.14910226575E+03  0.00000000000E+00 0. -1.
         13    1    3    3    0    0 -0.77536476995E+01  0.54870674588E+02  0.22794028233E+03  0.23457979941E+03  0.00000000000E+00 0.  1.
         21    1    1    2  503  502  0.10110585035E+02 -0.24739049643E+02 -0.41645790576E+01  0.27047887639E+02  0.00000000000E+00 0.  1.
          2    1    1    2  501    0  0.65868594235E+02  0.10743420501E+03  0.82962191732E+02  0.15087579451E+03  0.00000000000E+00 0. -1.
<scales pt_clust_5="13000.00000" pt_clust_6="13000.00000" pt_clust_7="13000.00000" pt_clust_8="13000.00000" pt_clust_9="26.72535" pt_clust_10="13000.00000"></scales>
<clustering>
<clus scale="   26.725">  2  9  1 -1</clus>
<clus scale="   88.488">  7  8 -1 -1</clus>
<clus scale="   91.457">  5  6 -1 -1</clus>
<clus scale="  106.324">  1  7  2 -1</clus>
<clus scale="  115.541">  5 10 -1 -1</clus>
<clus scale="   26.725">  2  5  1 -1</clus>
</clustering>
</event>
<event>
10    2  0.5921424E-006  0.2374800E+03  0.7546771E-02  0.1159867E+00
         -2   -1    0    0    0  501 -0.00000000000E+00  0.00000000000E+00  0.20566036057E+03  0.20566036057E+03  0.00000000000E+00 0.  1.
         21   -1    0    0  503  502  0.00000000000E+00 -0.00000000000E+00 -0.27189252365E+03  0.27189252365E+03  0.00000000000E+00 0. -1.
         23    2    1    2    0    0  0.14504596037E+02 -0.26910338155E+02  0.88076862312E+02  0.12809620750E+03  0.87843924630E+02 0.  0.
         23    2    1    2    0    0  0.40615066303E+02  0.46311573704E+02  0.53112450748E+02  0.12144128661E+03  0.90181529150E+02 0.  0.
        -11    1    4    4    0    0  0.38134982899E+02  0.72607591041E+02  0.46235149423E+02  0.94147906188E+02  0.00000000000E+00 0. -1.
         11    1    4    4    0    0  0.24800834045E+01 -0.26296017337E+02  0.68773013249E+01  0.27293380424E+02  0.00000000000E+00 0.  1.
        -13    1    3    3    0    0 -0.33076925047E+02 -0.10463550822E+02  0.62841375699E+02  0.71781664554E+02  0.00000000000E+00 0.  1.
         13    1    3    3    0    0  0.47581521084E+02 -0.16446787333E+02  0.25235486613E+02  0.56314542942E+02  0.00000000000E+00 0. -1.
         21    1    1    2  503  501  0.56407182153E+01 -0.30052706384E+02 -0.94760140197E+02  0.99571416748E+02  0.00000000000E+00 0.  1.
         -2    1    1    2    0  502 -0.60760380555E+02  0.10651470835E+02 -0.11266133595E+03  0.12844397337E+03  0.00000000000E+00 0.  1.
<scales pt_clust_5="13000.00000" pt_clust_6="13000.00000" pt_clust_7="13000.00000" pt_clust_8="13000.00000" pt_clust_9="30.57749" pt_clust_10="13000.00000"></scales>
<clustering>
<clus scale="   30.577">  2  9  1 -1</clus>
<clus scale="   87.844">  7  8 -1 -1</clus>
<clus scale="   90.182">  5  6 -1 -1</clus>
<clus scale="   57.756">  5 10 -1 -1</clus>
<clus scale="   94.167">  1  7  2 -1</clus>
<clus scale="   30.577">  2  5  1 -1</clus>
</clustering>
</event>
<event>
10    2  0.5921424E-006  0.2144125E+03  0.7546771E-02  0.1150471E+00
         21   -1    0    0  501  502  0.00000000000E+00  0.00000000000E+00  0.11794235963E+03  0.11794235963E+03  0.00000000000E+00 0. -1.
          2   -1    0    0  503    0 -0.00000000000E+00 -0.00000000000E+00 -0.60024231763E+03  0.60024231763E+03  0.00000000000E+00 0. -1.
         23    2    1    2    0    0  0.10815894440E+03  0.76806369271E+02 -0.45718883650E+03  0.48491152190E+03  0.92303717317E+02 0.  0.
         23    2    1    2    0    0 -0.10224540493E+03  0.84795353170E+01 -0.22968072526E+02  0.14044958247E+03  0.93126406092E+02 0.  0.
        -11    1    4    4    0    0  0.51254214487E+01 -0.23586808604E+02 -0.14306209799E+02  0.28058423405E+02  0.00000000000E+00 0.  1.
         11    1    4    4    0    0 -0.10737082638E+03  0.32066343921E+02 -0.86618627270E+01  0.11239115907E+03  0.00000000000E+00 0. -1.
        -11    1    3    3    0    0  0.62351388521E+02  0.83154759797E+02 -0.38808216257E+03  0.40175885134E+03  0.00000000000E+00 0. -1.
         11    1    3    3    0    0  0.45807555883E+02 -0.63483905257E+01 -0.69106673933E+02  0.83152670555E+02  0.00000000000E+00 0.  1.
         21    1    1    2  503  502 -0.92789934669E+01 -0.18533730936E+02  0.12767612287E+02  0.24343599275E+02  0.00000000000E+00 0. -1.
          2    1    1    2  501    0  0.33654539947E+01 -0.66752173652E+02 -0.14910661254E+02  0.68479973619E+02  0.00000000000E+00 0. -1.
<scales pt_clust_5="13000.00000" pt_clust_6="13000.00000" pt_clust_7="13000.00000" pt_clust_8="13000.00000" pt_clust_9="20.72677" pt_clust_10="13000.00000"></scales>
<clustering>
<clus scale="   20.727">  1  9  2 -1</clus>
<clus scale="   92.304">  7  8 -1 -1</clus>
<clus scale="   93.126">  5  6 -1 -1</clus>
<clus scale="   71.752">  5 10 -1 -1</clus>
<clus scale="  159.527">  2  7  1 -1</clus>
<clus scale="   20.727">  1  5  2 -1</clus>
</clustering>
</event>
<event>
10    2  0.5921424E-006  0.1392663E+03  0.7546771E-02  0.1227824E+00
         21   -1    0    0  501  502  0.00000000000E+00  0.00000000000E+00  0.53090959845E+02  0.53090959845E+02  0.00000000000E+00 0. -1.
          1   -1    0    0  503    0 -0.00000000000E+00 -0.00000000000E+00 -0.49413472117E+03  0.49413472117E+03  0.00000000000E+00 0. -1.
         23    2    1    2    0    0  0.95895485866E+01 -0.18525666217E+02 -0.11530639374E+03  0.15127525978E+03  0.95673821052E+02 0.  0.
         23    2    1    2    0    0 -0.53556066930E+02 -0.24924806552E+02 -0.17758638733E+03  0.20780395708E+03  0.90310914753E+02 0.  0.
        -11    1    4    4    0    0 -0.45798489115E+02  0.43209598101E+01 -0.25218497734E+02  0.52460889497E+02  0.00000000000E+00 0.  1.
         11    1    4    4    0    0 -0.77575778152E+01 -0.29245766362E+02 -0.15236788960E+03  0.15534306758E+03  0.00000000000E+00 0. -1.
        -13    1    3    3    0    0 -0.42306946586E+02 -0.11515983499E+02 -0.38713094293E+02  0.58491018756E+02  0.00000000000E+00 0.  1.
         13    1    3    3    0    0  0.51896495173E+02 -0.70096827186E+01 -0.76593299445E+02  0.92784241027E+02  0.00000000000E+00 0. -1.
         21    1    1    2  503  502  0.63641614551E+02  0.56937672487E+01 -0.49915650923E+02  0.81081726025E+02  0.00000000000E+00 0. -1.
          1    1    1    2  501    0 -0.19675096207E+02  0.37756705521E+02 -0.98235329331E+02  0.10706473813E+03  0.00000000000E+00 0. -1.
<scales pt_clust_5="13000.00000" pt_clust_6="13000.00000" pt_clust_7="13000.00000" pt_clust_8="13000.00000" pt_clust_9="63.89581" pt_clust_10="13000.00000"></scales>
<clustering>
<clus scale="   63.896">  1  9  2 -1</clus>
<clus scale="   90.311">  5  6 -1 -1</clus>
<clus scale="   40.312">  5 10 -1 -1</clus>
<clus scale="   95.674">  7  8 -1 -1</clus>
<clus scale="  104.935">  2  7  1 -1</clus>
<clus scale="   63.896">  1  5  2 -1</clus>
</clustering>
</event>
<event>
10    2  0.5921424E-006  0.2139953E+03  0.7546771E-02  0.1165699E+00
         -4   -1    0    0    0  501 -0.00000000000E+00  0.00000000000E+00  0.21453649836E+03  0.21453649836E+03  0.00000000000E+00 0.  1.
         21   -1    0    0  501  502  0.00000000000E+00 -0.00000000000E+00 -0.18680426108E+03  0.18680426108E+03  0.00000000000E+00 0. -1.
         23    2    1    2    0    0  0.56552703691E+02  0.45323848599E+02 -0.55052479017E+02  0.12864833362E+03  0.90923917374E+02 0.  0.
         23    2    1    2    0    0  0.13932700545E+02 -0.68990478740E+02  0.90011833289E+02  0.14592375203E+03  0.90762354385E+02 0.  0.
        -11    1    4    4    0    0  0.41932392659E+02 -0.51604722220E+02  0.21476859241E+02  0.69875806917E+02  0.00000000000E+00 0. -1.
         11    1    4    4    0    0 -0.27999692114E+02 -0.17385756520E+02  0.68534974048E+02  0.76047945113E+02  0.00000000000E+00 0.  1.
        -13    1    3    3    0    0 -0.20528661365E+02  0.15086945290E+02  0.55078692920E+01  0.26064889790E+02  0.00000000000E+00 0.  1.
         13    1    3    3    0    0  0.77081365056E+02  0.30236903309E+02 -0.60560348309E+02  0.10258344383E+03  0.00000000000E+00 0. -1.
         21    1    1    2  503  502  0.44348863575E+01 -0.27038225300E+02 -0.21956772317E+02  0.35111731586E+02  0.00000000000E+00 0. -1.
         -4    1    1    2    0  503 -0.74920290593E+02  0.50704855441E+02  0.14729655325E+02  0.91656942202E+02  0.00000000000E+00 0.  1.
<scales pt_clust_5="13000.00000" pt_clust_6="13000.00000" pt_clust_7="13000.00000" pt_clust_8="13000.00000" pt_clust_9="27.39952" pt_clust_10="13000.00000"></scales>
<clustering>
<clus scale="   27.400">  2  9  1 -1</clus>
<clus scale="   90.762">  5  6 -1 -1</clus>
<clus scale="   86.026">  5 10 -1 -1</clus>
<clus scale="   90.924">  7  8 -1 -1</clus>
<clus scale="  112.433">  1  7  2 -1</clus>
<clus scale="   27.400">  2  5  1 -1</clus>
</clustering>
</event>
<event>
10    2  0.5921424E-006  0.2148245E+03  0.7546771E-02  0.1150355E+00
         21   -1    0    0  501  502  0.00000000000E+00  0.00000000000E+00  0.39275789100E+03  0.39275789100E+03  0.00000000000E+00 0. -1.
          1   -1    0    0  503    0 -0.00000000000E+00 -0.00000000000E+00 -0.34797167676E+03  0.34797167676E+03  0.00000000000E+00 0. -1.
         23    2    1    2    0    0 -0.67273027635E+02 -0.11987416103E+03 -0.66428004687E+02  0.17480936308E+03  0.85147864824E+02 0.  0.
         23    2    1    2    0    0  0.54196020520E+02  0.14977267229E+03 -0.15240664787E+03  0.23884624207E+03  0.91927574928E+02 0.  0.
        -11    1    3    3    0    0 -0.79824608418E+02 -0.66963222931E+02 -0.59516127208E+02  0.11999254449E+03  0.00000000000E+00 0. -1.
         11    1    3    3    0    0  0.12551580783E+02 -0.52910938096E+02 -0.69118774797E+01  0.54816818593E+02  0.00000000000E+00 0.  1.
        -13    1    4    4    0    0  0.10179953963E+02  0.78622204715E+02 -0.19242177781E+02  0.81580291386E+02  0.00000000000E+00 0.  1.
         13    1    4    4    0    0  0.44016066557E+02  0.71150467575E+02 -0.13316447009E+03  0.15726595069E+03  0.00000000000E+00 0. -1.
         21    1    1    2  503  502  0.37006912684E+02 -0.10706556113E+02  0.28632842056E+03  0.28890847400E+03  0.00000000000E+00 0. -1.
          1    1    1    2  501    0 -0.23929905569E+02 -0.19191955150E+02 -0.22707553755E+02  0.38165488606E+02  0.00000000000E+00 0. -1.
<scales pt_clust_5="13000.00000" pt_clust_6="13000.00000" pt_clust_7="13000.00000" pt_clust_8="13000.00000" pt_clust_9="38.52456" pt_clust_10="13000.00000"></scales>
<clustering>
<clus scale="   38.525">  1  9  2 -1</clus>
<clus scale="   85.148">  5  6 -1 -1</clus>
<clus scale="   91.928">  7  8 -1 -1</clus>
<clus scale="   29.138">  7 10 -1 -1</clus>
<clus scale="  159.049">  2  5  1 -1</clus>
<clus scale="   38.525">  1  5  2 -1</clus>
</clustering>
</event>
<event>
10    2  0.5921424E-006  0.3408575E+03  0.7546771E-02  0.1108238E+00
          2   -1    0    0  503    0 -0.00000000000E+00  0.00000000000E+00  0.22776088411E+03  0.22776088411E+03  0.00000000000E+00 0. -1.
         21   -1    0    0  501  502  0.00000000000E+00 -0.00000000000E+00 -0.28830871563E+03  0.28830871563E+03  0.00000000000E+00 0. -1.
         23    2    1    2    0    0 -0.60904097952E+02  0.26714529351E+02 -0.50634503182E+02  0.12410893190E+03  0.91739843248E+02 0.  0.
         23    2    1    2    0    0 -0.80949583709E+02 -0.68656493333E+02  0.64869595324E+02  0.16329748784E+03  0.10578967793E+03 0.  0.
        -11    1    4    4    0    0 -0.14557975641E+02 -0.44728650590E+02 -0.21536534839E+02  0.51734023343E+02  0.00000000000E+00 0.  1.
         11    1    4    4    0    0 -0.66391608067E+02 -0.23927842744E+02  0.86406130163E+02  0.11156346449E+03  0.00000000000E+00 0. -1.
        -11    1    3    3    0    0 -0.19047194538E+02  0.52697010867E+02 -0.49599821584E+02  0.74832565606E+02  0.00000000000E+00 0. -1.
         11    1    3    3    0    0 -0.41856903414E+02 -0.25982481516E+02 -0.10346815980E+01  0.49276366294E+02  0.00000000000E+00 0.  1.
         21    1    1    2  503  502 -0.74906329229E+01 -0.42738080479E+02 -0.24216726152E+02  0.49690068727E+02  0.00000000000E+00 0. -1.
          2    1    1    2  501    0  0.14934431458E+03  0.84680044462E+02 -0.50566197508E+02  0.17897311127E+03  0.00000000000E+00 0. -1.
<scales pt_clust_5="13000.00000" pt_clust_6="13000.00000" pt_clust_7="13000.00000" pt_clust_8="13000.00000" pt_clust_9="43.38955" pt_clust_10="13000.00000"></scales>
<clustering>
<clus scale="   43.390">  2  9  1 -1</clus>
<clus scale="   91.740">  7  8 -1 -1</clus>
<clus scale="  105.790">  5  6 -1 -1</clus>
<clus scale="  112.206">  1  7  2 -1</clus>
<clus scale="  142.896">  5 10 -1 -1</clus>
<clus scale="   43.390">  2  5  1 -1</clus>
</clustering>
</event>
<event>
10    2  0.5921424E-006  0.3843392E+03  0.7546771E-02  0.1101537E+00
         21   -1    0    0  503  502  0.00000000000E+00  0.00000000000E+00  0.37355775415E+03  0.37355775415E+03  0.00000000000E+00 0.  1.
          2   -1    0    0  502    0 -0.00000000000E+00 -0.00000000000E+00 -0.36497685824E+03  0.36497685824E+03  0.00000000000E+00 0. -1.
         23    2    1    2    0    0 -0.22487870632E+02  0.11731174808E+02 -0.13460006723E+03  0.16359572281E+03  0.89459810167E+02 0.  0.
         23    2    1    2    0    0 -0.89056937791E+02  0.14865302349E+03  0.46379926622E+02  0.20021583101E+03  0.88918062449E+02 0.  0.
        -11    1    4    4    0    0 -0.55858264625E+02  0.88734830595E+02  0.71877627533E+02  0.12712359823E+03  0.00000000000E+00 0.  1.
         11    1    4    4    0    0 -0.33198673166E+02  0.59918192899E+02 -0.25497700911E+02  0.73092232775E+02  0.00000000000E+00 0. -1.
        -11    1    3    3    0    0  0.27425183290E+02 -0.33960394832E+01 -0.11554297200E+02  0.29952888783E+02  0.00000000000E+00 0.  1.
         11    1    3    3    0    0 -0.49913053922E+02  0.15127214292E+02 -0.12304577003E+03  0.13364283403E+03  0.00000000000E+00 0. -1.
         21    1    1    2  503  501  0.10379090716E+03  0.62538524378E+01  0.16456877221E+03  0.19466520970E+03  0.00000000000E+00 0.  1.
          2    1    1    2  501    0  0.77539012649E+01 -0.16663805074E+03 -0.67767735698E+02  0.18005784887E+03  0.00000000000E+00 0. -1.
<scales pt_clust_5="13000.00000" pt_clust_6="13000.00000" pt_clust_7="13000.00000" pt_clust_8="13000.00000" pt_clust_9="102.46766" pt_clust_10="13000.00000"></scales>
<clustering>
<clus scale="   88.918">  5  6 -1 -1</clus>
<clus scale="   89.460">  7  8 -1 -1</clus>
<clus scale="   92.986">  2  7  1 -1</clus>
<clus scale="  102.468">  1  9  2 -1</clus>
<clus scale="  159.893">  5 10 -1 -1</clus>
<clus scale="  102.468">  1  5  2 -1</clus>
</clustering>
</event>
<event>
10    2  0.5921424E-006  0.1662998E+03  0.7546771E-02  0.1192876E+00
         21   -1    0    0  501  502  0.00000000000E+00  0.00000000000E+00  0.54565206951E+03  0.54565206951E+03  0.00000000000E+00 0.  1.
          3   -1    0    0  503    0 -0.00000000000E+00 -0.00000000000E+00 -0.27092327775E+03  0.27092327775E+03  0.00000000000E+00 0. -1.
         23    2    1    2    0    0  0.95126502122E+01  0.61649941125E+02 -0.64657849508E+02  0.12932689631E+03  0.93024743222E+02 0.  0.
         23    2    1    2    0    0 -0.10848808900E+01 -0.80781040149E+02 -0.10295394739E+03  0.16129879675E+03  0.94292275070E+02 0.  0.
        -11    1    4    4    0    0 -0.24989743693E+02  0.97674399434E+01 -0.81561455027E+01  0.28043054084E+02  0.00000000000E+00 0.  1.
         11    1    4    4    0    0  0.23904862803E+02 -0.90548480093E+02 -0.94797801884E+02  0.13325574267E+03  0.00000000000E+00 0. -1.
        -13    1    3    3    0    0 -0.26173585243E+02  0.61986268855E+02 -0.65118098051E+02  0.93636108339E+02  0.00000000000E+00 0.  1.
         13    1    3    3    0    0  0.35686235455E+02 -0.33632773093E+00  0.46024854284E+00  0.35690787971E+02  0.00000000000E+00 0. -1.
         21    1    1    2  503  502 -0.31795618290E+02  0.83344012806E+02  0.44855143822E+03  0.45733530210E+03  0.00000000000E+00 0.  1.
          3    1    1    2  501    0  0.23367848968E+02 -0.64212913781E+02 -0.62108495709E+01  0.68614352100E+02  0.00000000000E+00 0. -1.
<scales pt_clust_5="13000.00000" pt_clust_6="13000.00000" pt_clust_7="13000.00000" pt_clust_8="13000.00000" pt_clust_9="89.20306" pt_clust_10="13000.00000"></scales>
<clustering>
<clus scale="   89.203">  1  9  2 -1</clus>
<clus scale="   93.025">  7  8 -1 -1</clus>
<clus scale="   94.292">  5  6 -1 -1</clus>
<clus scale="   38.317">  5 10 -1 -1</clus>
<clus scale="  129.946">  2  7  1 -1</clus>
<clus scale="   89.203">  1  5  2 -1</clus>
</clustering>
</event>
<event>
10    2  0.5921424E-006  0.5898865E+03  0.7546771E-02  0.1030035E+00
         21   -1    0    0  501  502  0.00000000000E+00  0.00000000000E+00  0.53423191026E+03  0.53423191026E+03  0.00000000000E+00 0.  1.
          1   -1    0    0  503    0 -0.00000000000E+00 -0.00000000000E+00 -0.57707943651E+03  0.57707943651E+03  0.00000000000E+00 0. -1.
         23    2    1    2    0    0 -0.16526900308E+03  0.99787828159E+02  0.10939123170E+03  0.23974258302E+03  0.90766791894E+02 0.  0.
         23    2    1    2    0    0 -0.20822082848E+03 -0.14378819753E+03 -0.29991608357E+03  0.40326755887E+03  0.92973693569E+02 0.  0.
        -11    1    3    3    0    0 -0.21445151728E+02 -0.15608756560E+02  0.25890324532E+01  0.26650157655E+02  0.00000000000E+00 0. -1.
         11    1    3    3    0    0 -0.14382385135E+03  0.11539658472E+03  0.10680219924E+03  0.21309242536E+03  0.00000000000E+00 0.  1.
        -13    1    4    4    0    0 -0.89810418223E+02 -0.97622894881E+02 -0.20690857983E+03  0.24577896825E+03  0.00000000000E+00 0. -1.
         13    1    4    4    0    0 -0.11841041025E+03 -0.46165302646E+02 -0.93007503741E+02  0.15748859063E+03  0.00000000000E+00 0.  1.
         21    1    1    2  503  502  0.10968298428E+03  0.40043851735E+02  0.16698483050E+03  0.20375917334E+03  0.00000000000E+00 0.  1.
          1    1    1    2  501    0  0.26380684728E+03  0.39565176332E+01 -0.19307504879E+02  0.26454203154E+03  0.00000000000E+00 0. -1.
<scales pt_clust_5="13000.00000" pt_clust_6="13000.00000" pt_clust_7="13000.00000" pt_clust_8="13000.00000" pt_clust_9="116.76415" pt_clust_10="13000.00000"></scales>
<clustering>
<clus scale="   90.767">  5  6 -1 -1</clus>
<clus scale="   92.974">  7  8 -1 -1</clus>
<clus scale="  116.764">  1  9  2 -1</clus>
<clus scale="  186.498">  2  5  1 -1</clus>
<clus scale="  268.015">  7 10 -1 -1</clus>
<clus scale="  116.764">  1  5  2 -1</clus>
</clustering>
</event>
<event>
10    2  0.5921424E-006  0.8447428E+03  0.7546771E-02  0.9943271E-01
         -1   -1    0    0    0  501 -0.00000000000E+00  0.00000000000E+00  0.34678384402E+03  0.34678384402E+03  0.00000000000E+00 0.  1.
         21   -1    0    0  503  502  0.00000000000E+00 -0.00000000000E+00 -0.10971019221E+04  0.10971019221E+04  0.00000000000E+00 0. -1.
         23    2    1    2    0    0 -0.28644893896E+02  0.15876210240E+03 -0.43516040588E+03  0.47244888179E+03  0.88416242623E+02 0.  0.
         23    2    1    2    0    0 -0.66948795553E+02  0.13313834858E+03  0.24963358892E+03  0.30482151220E+03  0.91603845401E+02 0.  0.
        -13    1    3    3    0    0 -0.20876435264E+02 -0.37713853647E+01 -0.47421225112E+02  0.51950182752E+02  0.00000000000E+00 0.  1.
         13    1    3    3    0    0 -0.77684586318E+01  0.16253348776E+03 -0.38773918077E+03  0.42049869904E+03  0.00000000000E+00 0. -1.
        -13    1    4    4    0    0  0.38438883420E+01  0.78071086672E+02  0.74121322040E+02  0.10772112343E+03  0.00000000000E+00 0. -1.
         13    1    4    4    0    0 -0.70792683895E+02  0.55067261908E+02  0.17551226689E+03  0.19710038877E+03  0.00000000000E+00 0.  1.
         21    1    1    2  503  501  0.13941220506E+02  0.18645789788E+02 -0.93350213659E+02  0.96209591498E+02  0.00000000000E+00 0. -1.
         -1    1    1    2    0  502  0.81652468944E+02 -0.31054624076E+03 -0.47144104749E+03  0.57040578064E+03  0.00000000000E+00 0.  1.
<scales pt_clust_5="13000.00000" pt_clust_6="13000.00000" pt_clust_7="13000.00000" pt_clust_8="13000.00000" pt_clust_9="23.28139" pt_clust_10="13000.00000"></scales>
<clustering>
<clus scale="   23.281">  2  9  1 -1</clus>
<clus scale="   88.416">  5  6 -1 -1</clus>
<clus scale="   91.604">  7  8 -1 -1</clus>
<clus scale="  190.456">  1  5  2 -1</clus>
<clus scale="  289.241">  7 10 -1 -1</clus>
<clus scale="   23.281">  2  5  1 -1</clus>
</clustering>
</event>
<event>
10    2  0.5921424E-006  0.2800491E+03  0.7546771E-02  0.1122758E+00
          2   -1    0    0  503    0 -0.00000000000E+00  0.00000000000E+00  0.72124165426E+03  0.72124165426E+03  0.00000000000E+00 0. -1.
         21   -1    0    0  501  502  0.00000000000E+00 -0.00000000000E+00 -0.30600795847E+03  0.30600795847E+03  0.00000000000E+00 0.  1.
         23    2    1    2    0    0  0.11277887538E+03  0.62414826394E+01  0.40644786041E+03  0.43161771360E+03  0.91301460127E+02 0.  0.
         23    2    1    2    0    0  0.11345661246E+02  0.41464350772E+02  0.24550926860E+03  0.26579168499E+03  0.92316858855E+02 0.  0.
        -11    1    4    4    0    0  0.24757809497E+02  0.66241797786E+02  0.14373409971E+03  0.16018868975E+03  0.00000000000E+00 0. -1.
         11    1    4    4    0    0 -0.13412148251E+02 -0.24777447015E+02  0.10177516889E+03  0.10560299524E+03  0.00000000000E+00 0.  1.
        -11    1    3    3    0    0  0.10376921227E+03  0.39137357873E+02  0.32072821042E+03  0.33936170549E+03  0.00000000000E+00 0. -1.
         11    1    3    3    0    0  0.90096631095E+01 -0.32895875234E+02  0.85719649994E+02  0.92256008107E+02  0.00000000000E+00 0.  1.
         21    1    1    2  503  502 -0.37052747365E+02 -0.90696004615E+01 -0.23130274360E+03  0.23442722311E+03  0.00000000000E+00 0.  1.
          2    1    1    2  501    0 -0.87071789258E+02 -0.38636232950E+02 -0.54206896253E+01  0.95412991029E+02  0.00000000000E+00 0. -1.
<scales pt_clust_5="13000.00000" pt_clust_6="13000.00000" pt_clust_7="13000.00000" pt_clust_8="13000.00000" pt_clust_9="38.14661" pt_clust_10="13000.00000"></scales>
<clustering>
<clus scale="   38.147">  2  9  1 -1</clus>
<clus scale="   91.301">  7  8 -1 -1</clus>
<clus scale="   92.317">  5  6 -1 -1</clus>
<clus scale="  121.229">  5 10 -1 -1</clus>
<clus scale="  140.284">  1  7  2 -1</clus>
<clus scale="   38.147">  2  5  1 -1</clus>
</clustering>
</event>
<event>
10    2  0.5921424E-006  0.1405792E+03  0.7546771E-02  0.1230766E+00
         21   -1    0    0  501  502  0.00000000000E+00  0.00000000000E+00  0.12775911277E+03  0.12775911277E+03  0.00000000000E+00 0.  1.
          1   -1    0    0  503    0 -0.00000000000E+00 -0.00000000000E+00 -0.14039307302E+03  0.14039307302E+03  0.00000000000E+00 0. -1.
         23    2    1    2    0    0 -0.16252047598E+02  0.18688211340E+02 -0.24193818987E+02  0.10074574284E+03  0.94609648182E+02 0.  0.
         23    2    1    2    0    0 -0.33612691795E+02  0.14942533576E+02 -0.12496754434E+02  0.97444870640E+02  0.89365774115E+02 0.  0.
        -11    1    3    3    0    0  0.24103964921E+02  0.13624678712E+02  0.24729529634E+02  0.37123882216E+02  0.00000000000E+00 0.  1.
         11    1    3    3    0    0 -0.40356012519E+02  0.50635326282E+01 -0.48923348621E+02  0.63621860625E+02  0.00000000000E+00 0. -1.
        -13    1    4    4    0    0  0.23327497762E+01 -0.32583528963E+02 -0.18521822920E+02  0.37552443402E+02  0.00000000000E+00 0.  1.
         13    1    4    4    0    0 -0.35945441571E+02  0.47526062539E+02  0.60250684857E+01  0.59892427238E+02  0.00000000000E+00 0. -1.
         21    1    1    2  503  502  0.21597017437E+02 -0.15700837398E+02 -0.30681710023E+01  0.26876776787E+02  0.00000000000E+00 0.  1.
          1    1    1    2  501    0  0.28267721956E+02 -0.17929907518E+02  0.27124784178E+02  0.43084795519E+02  0.00000000000E+00 0. -1.
<scales pt_clust_5="13000.00000" pt_clust_6="13000.00000" pt_clust_7="13000.00000" pt_clust_8="13000.00000" pt_clust_9="26.70109" pt_clust_10="13000.00000"></scales>
<clustering>
<clus scale="   26.701">  1  9  2 -1</clus>
<clus scale="   89.366">  7  8 -1 -1</clus>
<clus scale="   41.552">  7 10 -1 -1</clus>
<clus scale="   94.610">  5  6 -1 -1</clus>
<clus scale="   96.002">  2  5  1 -1</clus>
<clus scale="   26.701">  1  5  2 -1</clus>
</clustering>
</event>
<event>
10    2  0.5921424E-006  0.1259517E+03  0.7546771E-02  0.1247068E+00
          1   -1    0    0  503    0 -0.00000000000E+00  0.00000000000E+00  0.10018141918E+03  0.10018141918E+03  0.00000000000E+00 0. -1.
         21   -1    0    0  501  502  0.00000000000E+00 -0.00000000000E+00 -0.21384889132E+03  0.21384889132E+03  0.00000000000E+00 0.  1.
         23    2    1    2    0    0  0.36344312709E+02 -0.10527770451E+02 -0.32467861707E+02  0.10495322897E+03  0.92354075230E+02 0.  0.
         23    2    1    2    0    0  0.14824294892E+02 -0.71143531528E+01 -0.76224470186E+00  0.92791733109E+02  0.91320046959E+02 0.  0.
        -13    1    3    3    0    0  0.49207367958E+02  0.11340265530E+02  0.13656936141E+02  0.52311361944E+02  0.00000000000E+00 0.  1.
         13    1    3    3    0    0 -0.12863055249E+02 -0.21868035981E+02 -0.46124797848E+02  0.52641867031E+02  0.00000000000E+00 0. -1.
        -13    1    4    4    0    0  0.34308647190E+01  0.36867344830E+02  0.20835163914E+02  0.42486186024E+02  0.00000000000E+00 0. -1.
         13    1    4    4    0    0  0.11393430173E+02 -0.43981697983E+02 -0.21597408616E+02  0.50305547085E+02  0.00000000000E+00 0.  1.
         21    1    1    2  503  502 -0.25038513827E+02  0.27743726610E-01 -0.80985622499E+02  0.84767912537E+02  0.00000000000E+00 0.  1.
          1    1    1    2  501    0 -0.26130093773E+02  0.17614379877E+02  0.54825677447E+00  0.31517435881E+02  0.00000000000E+00 0. -1.
<scales pt_clust_5="13000.00000" pt_clust_6="13000.00000" pt_clust_7="13000.00000" pt_clust_8="13000.00000" pt_clust_9="25.03853" pt_clust_10="13000.00000"></scales>
<clustering>
<clus scale="   25.039">  2  9  1 -1</clus>
<clus scale="   91.320">  7  8 -1 -1</clus>
<clus scale="   34.009">  7 10 -1 -1</clus>
<clus scale="   92.354">  5  6 -1 -1</clus>
<clus scale="   95.804">  1  5  2 -1</clus>
<clus scale="   25.039">  2  5  1 -1</clus>
</clustering>
</event>
<event>
10    2  0.5921424E-006  0.4817192E+03  0.7546771E-02  0.1075397E+00
          1   -1    0    0  503    0 -0.00000000000E+00  0.00000000000E+00  0.39102450100E+03  0.39102450100E+03  0.00000000000E+00 0. -1.
         21   -1    0    0  501  502  0.00000000000E+00 -0.00000000000E+00 -0.31908842098E+03  0.31908842098E+03  0.00000000000E+00 0. -1.
         23    2    1    2    0    0  0.43955165338E+02  0.16505748542E+02  0.26492125272E+02  0.10137566675E+03  0.85852762406E+02 0.  0.
         23    2    1    2    0    0  0.46898818098E+01  0.17865067695E+03 -0.85632101332E+02  0.21791298796E+03  0.90637487695E+02 0.  0.
        -11    1    4    4    0    0  0.40115379099E+02  0.13298436503E+03 -0.78843403969E+02  0.15971965230E+03  0.00000000000E+00 0. -1.
         11    1    4    4    0    0 -0.35425497289E+02  0.45666311923E+02 -0.67886973630E+01  0.58193335655E+02  0.00000000000E+00 0.  1.
        -13    1    3    3    0    0 -0.24518401130E+02  0.36045427472E+01  0.19135729746E+02  0.31310076258E+02  0.00000000000E+00 0.  1.
         13    1    3    3    0    0  0.68473566468E+02  0.12901205795E+02  0.73563955260E+01  0.70065590492E+02  0.00000000000E+00 0. -1.
         21    1    1    2  503  502 -0.36717972647E+02 -0.28140930055E+02 -0.97244167592E+02  0.10768727683E+03  0.00000000000E+00 0.  1.
          1    1    1    2  501    0 -0.11927074501E+02 -0.16701549544E+03  0.22832022367E+03  0.28313699045E+03  0.00000000000E+00 0. -1.
<scales pt_clust_5="13000.00000" pt_clust_6="13000.00000" pt_clust_7="13000.00000" pt_clust_8="13000.00000" pt_clust_9="46.26145" pt_clust_10="13000.00000"></scales>
<clustering>
<clus scale="   46.261">  2  9  1 -1</clus>
<clus scale="   85.853">  7  8 -1 -1</clus>
<clus scale="   90.637">  5  6 -1 -1</clus>
<clus scale="   94.449">  1  7  2 -1</clus>
<clus scale="  161.709">  5 10 -1 -1</clus>
<clus scale="   46.261">  2  5  1 -1</clus>
</clustering>
</event>
<event>
10    2  0.5921424E-006  0.3900011E+03  0.7546771E-02  0.1071699E+00
         21   -1    0    0  503  502  0.00000000000E+00  0.00000000000E+00  0.56258960491E+03  0.56258960491E+03  0.00000000000E+00 0. -1.
          1   -1    0    0  502    0 -0.00000000000E+00 -0.00000000000E+00 -0.62755636863E+03  0.62755636863E+03  0.00000000000E+00 0. -1.
         23    2    1    2    0    0  0.97623011322E+00  0.17112661494E+03 -0.19046680310E+03  0.27273765035E+03  0.93930567278E+02 0.  0.
         23    2    1    2    0    0  0.98139912047E+02 -0.58969404823E+01 -0.17638239226E+03  0.22118829279E+03  0.90262374902E+02 0.  0.
        -13    1    3    3    0    0  0.23085167459E+01  0.54821599803E+02 -0.13116589853E+03  0.14218027286E+03  0.00000000000E+00 0.  1.
         13    1    3    3    0    0 -0.13322866327E+01  0.11630501514E+03 -0.59300904577E+02  0.13055737749E+03  0.00000000000E+00 0. -1.
        -13    1    4    4    0    0  0.89932670630E+01  0.24422623694E+02 -0.89002172467E+02  0.92729337884E+02  0.00000000000E+00 0.  1.
         13    1    4    4    0    0  0.89146644984E+02 -0.30319564177E+02 -0.87380219795E+02  0.12845895490E+03  0.00000000000E+00 0. -1.
         21    1    1    2  503  501  0.84047538318E+02  0.12166976867E+00  0.41596102275E+03  0.42436726541E+03  0.00000000000E+00 0. -1.
          1    1    1    2  501    0 -0.18316368048E+03 -0.16535134423E+03 -0.11407859111E+03  0.27185276499E+03  0.00000000000E+00 0. -1.
<scales pt_clust_5="13000.00000" pt_clust_6="13000.00000" pt_clust_7="13000.00000" pt_clust_8="13000.00000" pt_clust_9="84.04763" pt_clust_10="13000.00000"></scales>
<clustering>
<clus scale="   84.048">  1  9  2 -1</clus>
<clus scale="   90.262">  7  8 -1 -1</clus>
<clus scale="   93.931">  5  6 -1 -1</clus>
<clus scale="  196.868">  2  5  1 -1</clus>
<clus scale="  160.272">  7 10 -1 -1</clus>
<clus scale="   84.048">  1  5  2 -1</clus>
</clustering>
</event>
<event>
10    2  0.5921424E-006  0.4988803E+03  0.7546771E-02  0.1034582E+00
         21   -1    0    0  501  502  0.00000000000E+00  0.00000000000E+00  0.67569462181E+03  0.67569462181E+03  0.00000000000E+00 0.  1.
          1   -1    0    0  503    0 -0.00000000000E+00 -0.00000000000E+00 -0.47891264124E+03  0.47891264124E+03  0.00000000000E+00 0. -1.
         23    2    1    2    0    0  0.29037951428E+02  0.21620555662E+03  0.45152081722E+02  0.24026441964E+03  0.90001308449E+02 0.  0.
         23    2    1    2    0    0  0.13716626244E+02 -0.12640417102E+03 -0.25088508935E+03  0.29602351559E+03  0.92306193916E+02 0.  0.
        -11    1    3    3    0    0  0.23150368116E+02  0.16343332955E+03  0.72791138491E+02  0.18040216904E+03  0.00000000000E+00 0.  1.
         11    1    3    3    0    0  0.58875833121E+01  0.52772227069E+02 -0.27639056769E+02  0.59862250594E+02  0.00000000000E+00 0. -1.
        -13    1    4    4    0    0 -0.27106767429E+02 -0.37578333354E+01 -0.35438640304E+02  0.44774941412E+02  0.00000000000E+00 0.  1.
         13    1    4    4    0    0  0.40823393673E+02 -0.12264633768E+03 -0.21544644904E+03  0.25124857417E+03  0.00000000000E+00 0. -1.
         21    1    1    2  503  502 -0.20148998729E+03  0.84138254413E+02  0.27296606265E+03  0.34955390456E+03  0.00000000000E+00 0.  1.
          1    1    1    2  501    0  0.15873540962E+03 -0.17393964001E+03  0.12954892554E+03  0.26876542327E+03  0.00000000000E+00 0. -1.
<scales pt_clust_5="13000.00000" pt_clust_6="13000.00000" pt_clust_7="13000.00000" pt_clust_8="13000.00000" pt_clust_9="218.35169" pt_clust_10="13000.00000"></scales>
<clustering>
<clus scale="   90.001">  5  6 -1 -1</clus>
<clus scale="   92.306">  7  8 -1 -1</clus>
<clus scale="  218.352">  1  9  2 -1</clus>
<clus scale="  136.887">  7 10 -1 -1</clus>
<clus scale="  269.562">  2  5  1 -1</clus>
<clus scale="  218.352">  1  5  2 -1</clus>
</clustering>
</event>
<event>
10    2  0.5921424E-006  0.4396583E+03  0.7546771E-02  0.1075038E+00
          1   -1    0    0  502    0 -0.00000000000E+00  0.00000000000E+00  0.14011650617E+04  0.14011650617E+04  0.00000000000E+00 0. -1.
         21   -1    0    0  503  502  0.00000000000E+00 -0.00000000000E+00 -0.22643103548E+03  0.22643103548E+03  0.00000000000E+00 0.  1.
         23    2    1    2    0    0  0.34420080115E+02  0.65761572736E+02  0.50224336997E+03  0.51779553779E+03  0.10175701406E+03 0.  0.
         23    2    1    2    0    0 -0.22072503803E+03 -0.32050039809E+02  0.64437684387E+03  0.68794149554E+03  0.91078191150E+02 0.  0.
        -11    1    4    4    0    0 -0.52981600994E+02  0.22170145865E+02  0.24057383273E+03  0.24733445859E+03  0.00000000000E+00 0.  1.
         11    1    4    4    0    0 -0.16774343703E+03 -0.54220185674E+02  0.40380301114E+03  0.44060703695E+03  0.00000000000E+00 0. -1.
        -13    1    3    3    0    0 -0.25905702937E+02  0.47759268928E+02  0.14097146970E+03  0.15107947737E+03  0.00000000000E+00 0.  1.
         13    1    3    3    0    0  0.60325783052E+02  0.18002303807E+02  0.36127190027E+03  0.36671606042E+03  0.00000000000E+00 0. -1.
         21    1    1    2  503  501  0.16727092613E+02 -0.16950093091E+02 -0.16362064587E+03  0.16534454040E+03  0.00000000000E+00 0.  1.
          1    1    1    2  501    0  0.16957786530E+03 -0.16761439836E+02  0.19173445828E+03  0.25651452348E+03  0.00000000000E+00 0. -1.
<scales pt_clust_5="13000.00000" pt_clust_6="13000.00000" pt_clust_7="13000.00000" pt_clust_8="13000.00000" pt_clust_9="23.81389" pt_clust_10="13000.00000"></scales>
<clustering>
<clus scale="   23.814">  2  9  1 -1</clus>
<clus scale="   91.078">  5  6 -1 -1</clus>
<clus scale="  101.757">  7  8 -1 -1</clus>
<clus scale="  125.449">  1  7  2 -1</clus>
<clus scale="  188.779">  5 10 -1 -1</clus>
<clus scale="   23.814">  2  5  1 -1</clus>
</clustering>
</event>
<event>
10    2  0.5921424E-006  0.1577998E+03  0.7546771E-02  0.1208833E+00
         21   -1    0    0  501  502  0.00000000000E+00  0.00000000000E+00  0.42594434708E+03  0.42594434708E+03  0.00000000000E+00 0. -1.
          1   -1    0    0  503    0 -0.00000000000E+00 -0.00000000000E+00 -0.95718320207E+02  0.95718320207E+02  0.00000000000E+00 0. -1.
         23    2    1    2    0    0 -0.74522193177E+02 -0.30619474841E+00  0.32510006680E+02  0.12077025590E+03  0.89302313213E+02 0.  0.
         23    2    1    2    0    0  0.93395348093E+01  0.49164560994E+02  0.34130251618E+02  0.10880924655E+03  0.90389142550E+02 0.  0.
        -13    1    3    3    0    0 -0.73695605664E+02 -0.34181669697E+02  0.14935725912E+02  0.82598454865E+02  0.00000000000E+00 0.  1.
         13    1    3    3    0    0 -0.82658751287E+00  0.33875474949E+02  0.17574280768E+02  0.38171801037E+02  0.00000000000E+00 0. -1.
        -13    1    4    4    0    0 -0.28359134190E+01 -0.23139232226E+02  0.26184137416E+02  0.35058173443E+02  0.00000000000E+00 0.  1.
         13    1    4    4    0    0  0.12175448228E+02  0.72303793220E+02  0.79461142019E+01  0.73751073107E+02  0.00000000000E+00 0. -1.
         21    1    1    2  503  502  0.36680285859E+02 -0.11953245024E+02  0.23332892926E+03  0.23649674980E+03  0.00000000000E+00 0. -1.
          1    1    1    2  501    0  0.28502372509E+02 -0.36905121221E+02  0.30256839318E+02  0.55586415036E+02  0.00000000000E+00 0. -1.
<scales pt_clust_5="13000.00000" pt_clust_6="13000.00000" pt_clust_7="13000.00000" pt_clust_8="13000.00000" pt_clust_9="38.57880" pt_clust_10="13000.00000"></scales>
<clustering>
<clus scale="   38.579">  1  9  2 -1</clus>
<clus scale="   89.302">  5  6 -1 -1</clus>
<clus scale="   90.389">  7  8 -1 -1</clus>
<clus scale="   54.014">  7 10 -1 -1</clus>
<clus scale="  107.600">  2  5  1 -1</clus>
<clus scale="   38.579">  1  5  2 -1</clus>
</clustering>
</event>
<event>
10    2  0.5921424E-006  0.2157395E+03  0.7546771E-02  0.1173696E+00
         21   -1    0    0  501  502  0.00000000000E+00  0.00000000000E+00  0.25701427254E+03  0.25701427254E+03  0.00000000000E+00 0. -1.
          1   -1    0    0  503    0 -0.00000000000E+00 -0.00000000000E+00 -0.27638853252E+03  0.27638853252E+03  0.00000000000E+00 0. -1.
         23    2    1    2    0    0 -0.36541436564E+01 -0.14136203174E+02 -0.18713140469E+03  0.20824482333E+03  0.90191789081E+02 0.  0.
         23    2    1    2    0    0 -0.16303959507E+02 -0.76710509559E+02  0.48282647763E+02  0.13074042780E+03  0.92798297471E+02 0.  0.
        -11    1    4    4    0    0  0.38364778717E+02 -0.32867027959E+02  0.28131051561E+02  0.57822606607E+02  0.00000000000E+00 0.  1.
         11    1    4    4    0    0 -0.54668738225E+02 -0.43843481600E+02  0.20151596202E+02  0.72917821192E+02  0.00000000000E+00 0. -1.
        -13    1    3    3    0    0  0.76744548648E+01  0.37153283721E+02 -0.64361255656E+02  0.74710340505E+02  0.00000000000E+00 0.  1.
         13    1    3    3    0    0 -0.11328598521E+02 -0.51289486895E+02 -0.12277014903E+03  0.13353448283E+03  0.00000000000E+00 0. -1.
         21    1    1    2  503  502 -0.35787544636E+02  0.11045317093E+02  0.81929067337E+02  0.90083957814E+02  0.00000000000E+00 0.  1.
          1    1    1    2  501    0  0.55745647800E+02  0.79801395641E+02  0.37545429603E+02  0.10433359612E+03  0.00000000000E+00 0. -1.
<scales pt_clust_5="13000.00000" pt_clust_6="13000.00000" pt_clust_7="13000.00000" pt_clust_8="13000.00000" pt_clust_9="37.45327" pt_clust_10="13000.00000"></scales>
<clustering>
<clus scale="   37.453">  1  9  2 -1</clus>
<clus scale="   90.192">  7  8 -1 -1</clus>
<clus scale="   91.378">  2  7  1 -1</clus>
<clus scale="   92.798">  5  6 -1 -1</clus>
<clus scale="   87.546">  5 10 -1 -1</clus>
<clus scale="   37.453">  1  5  2 -1</clus>
</clustering>
</event>
<event>
10    2  0.5921424E-006  0.6469501E+03  0.7546771E-02  0.1041958E+00
          1   -1    0    0  503    0 -0.00000000000E+00  0.00000000000E+00  0.26253064289E+04  0.26253064289E+04  0.00000000000E+00 0. -1.
         21   -1    0    0  501  502  0.00000000000E+00 -0.00000000000E+00 -0.35965026242E+03  0.35965026242E+03  0.00000000000E+00 0. -1.
         23    2    1    2    0    0 -0.88180852915E+01 -0.43604126640E+02  0.25136571062E+03  0.27145817384E+03  0.92334940195E+02 0.  0.
         23    2    1    2    0    0  0.87763449308E+02  0.26876438026E+03  0.16882154485E+04  0.17139982376E+04  0.88214755088E+02 0.  0.
        -11    1    3    3    0    0 -0.48259381257E+02 -0.71810932524E+01  0.11730985819E+03  0.12705171706E+03  0.00000000000E+00 0.  1.
         11    1    3    3    0    0  0.39441295966E+02 -0.36423033388E+02  0.13405585243E+03  0.14440645678E+03  0.00000000000E+00 0. -1.
        -13    1    4    4    0    0  0.52963825499E+01  0.15514265495E+03  0.93823488600E+03  0.95099000855E+03  0.00000000000E+00 0. -1.
         13    1    4    4    0    0  0.82467066758E+02  0.11362172530E+03  0.74998056247E+03  0.76300822908E+03  0.00000000000E+00 0.  1.
         21    1    1    2  503  502  0.48984136657E+02  0.33064166795E+02 -0.30239192926E+03  0.30811290731E+03  0.00000000000E+00 0. -1.
          1    1    1    2  501    0 -0.12792950067E+03 -0.25822442041E+03  0.62846693669E+03  0.69138737257E+03  0.00000000000E+00 0. -1.
<scales pt_clust_5="13000.00000" pt_clust_6="13000.00000" pt_clust_7="13000.00000" pt_clust_8="13000.00000" pt_clust_9="59.09894" pt_clust_10="13000.00000"></scales>
<clustering>
<clus scale="   59.099">  2  9  1 -1</clus>
<clus scale="   88.215">  7  8 -1 -1</clus>
<clus scale="   92.335">  5  6 -1 -1</clus>
<clus scale="   99.659">  1  5  2 -1</clus>
<clus scale="  266.959">  7 10 -1 -1</clus>
<clus scale="   59.099">  2  5  1 -1</clus>
</clustering>
</event>
<event>
10    2  0.5921424E-006  0.2597027E+03  0.7546771E-02  0.1149298E+00
         -1   -1    0    0    0  501 -0.00000000000E+00  0.00000000000E+00  0.26580781713E+03  0.26580781713E+03  0.00000000000E+00 0.  1.
         21   -1    0    0  503  502  0.00000000000E+00 -0.00000000000E+00 -0.37927181619E+03  0.37927181619E+03  0.00000000000E+00 0.  1.
         23    2    1    2    0    0 -0.15702867538E+02 -0.13355719420E+02  0.16856811367E+03  0.19220537807E+03  0.90015238287E+02 0.  0.
         23    2    1    2    0    0 -0.22791311922E+02 -0.66426412770E+02 -0.14260167011E+03  0.18370515175E+03  0.92089273252E+02 0.  0.
        -11    1    3    3    0    0 -0.22508050962E+02  0.29840016306E+02  0.12503449281E+03  0.13050158361E+03  0.00000000000E+00 0.  1.
         11    1    3    3    0    0  0.68051834243E+01 -0.43195735727E+02  0.43533620854E+02  0.61703794463E+02  0.00000000000E+00 0. -1.
        -13    1    4    4    0    0  0.14669168345E+02 -0.69677310542E+02 -0.12084620137E+03  0.14026373904E+03  0.00000000000E+00 0.  1.
         13    1    4    4    0    0 -0.37460480267E+02  0.32508977716E+01 -0.21755468748E+02  0.43441412714E+02  0.00000000000E+00 0. -1.
         21    1    1    2  503  501  0.20152160962E+02 -0.17473137050E+02 -0.16484451045E+03  0.16698842096E+03  0.00000000000E+00 0.  1.
         -1    1    1    2    0  502  0.18342018498E+02  0.97255269240E+02  0.25414067840E+02  0.10218068253E+03  0.00000000000E+00 0.  1.
<scales pt_clust_5="13000.00000" pt_clust_6="13000.00000" pt_clust_7="13000.00000" pt_clust_8="13000.00000" pt_clust_9="26.67246" pt_clust_10="13000.00000"></scales>
<clustering>
<clus scale="   26.672">  2  9  1 -1</clus>
<clus scale="   90.015">  5  6 -1 -1</clus>
<clus scale="   92.089">  7  8 -1 -1</clus>
<clus scale="   92.308">  1  5  2 -1</clus>
<clus scale="   84.661">  7 10 -1 -1</clus>
<clus scale="   26.672">  2  5  1 -1</clus>
</clustering>
</event>
<event>
10    2  0.5921424E-006  0.3702206E+03  0.7546771E-02  0.1096125E+00
          2   -1    0    0  503    0 -0.00000000000E+00  0.00000000000E+00  0.82001352302E+03  0.82001352302E+03  0.00000000000E+00 0. -1.
         21   -1    0    0  501  502  0.00000000000E+00 -0.00000000000E+00 -0.17182647594E+03  0.17182647594E+03  0.00000000000E+00 0. -1.
         23    2    1    2    0    0 -0.84689542873E+02  0.98027237215E+01  0.24003359771E+03  0.27017675950E+03  0.90060764391E+02 0.  0.
         23    2    1    2    0    0  0.24498234507E+02 -0.15553901699E+03  0.46643367902E+03  0.50058156849E+03  0.90713728253E+02 0.  0.
        -11    1    3    3    0    0 -0.65909049421E+01  0.39785134903E+02  0.80881063400E+02  0.90377228349E+02  0.00000000000E+00 0.  1.
         11    1    3    3    0    0 -0.78098637931E+02 -0.29982411181E+02  0.15915253431E+03  0.17979953116E+03  0.00000000000E+00 0. -1.
        -13    1    4    4    0    0 -0.17135608551E+02 -0.74106202709E+02  0.31164040743E+03  0.32078825088E+03  0.00000000000E+00 0. -1.
         13    1    4    4    0    0  0.41633843058E+02 -0.81432814278E+02  0.15479327159E+03  0.17979331761E+03  0.00000000000E+00 0.  1.
         21    1    1    2  503  502  0.37698169828E+02  0.34146199059E+02 -0.89588322346E+02  0.10302030101E+03  0.00000000000E+00 0. -1.
          2    1    1    2  501    0  0.22493138539E+02  0.11159009421E+03  0.31308092701E+02  0.11806136995E+03  0.00000000000E+00 0. -1.
<scales pt_clust_5="13000.00000" pt_clust_6="13000.00000" pt_clust_7="13000.00000" pt_clust_8="13000.00000" pt_clust_9="50.86369" pt_clust_10="13000.00000"></scales>
<clustering>
<clus scale="   50.864">  2  9  1 -1</clus>
<clus scale="   90.061">  5  6 -1 -1</clus>
<clus scale="   90.714">  7  8 -1 -1</clus>
<clus scale="  119.757">  1  5  2 -1</clus>
<clus scale="  137.557">  7 10 -1 -1</clus>
<clus scale="   50.864">  2  5  1 -1</clus>
</clustering>
</event>
<event>
10    2  0.5921424E-006  0.3117940E+03  0.7546771E-02  0.1115062E+00
         21   -1    0    0  503  502  0.00000000000E+00  0.00000000000E+00  0.30969925195E+03  0.30969925195E+03  0.00000000000E+00 0.  1.
         -3   -1    0    0    0  501 -0.00000000000E+00 -0.00000000000E+00 -0.30264548498E+03  0.30264548498E+03  0.00000000000E+00 0.  1.
         23    2    1    2    0    0 -0.85722863549E+01 -0.80075385675E+02  0.38061074393E+02  0.12901388823E+03  0.93329451348E+02 0.  0.
         23    2    1    2    0    0 -0.67378334835E+01  0.21152543305E+02 -0.10887844049E+03  0.14400574544E+03  0.91598643148E+02 0.  0.
        -11    1    3    3    0    0  0.30786894353E+02 -0.21975182841E+02 -0.15352555057E+02  0.40822083136E+02  0.00000000000E+00 0. -1.
         11    1    3    3    0    0 -0.39359180708E+02 -0.58100202833E+02  0.53413629450E+02  0.88191805097E+02  0.00000000000E+00 0.  1.
        -13    1    4    4    0    0 -0.44629781293E+02  0.35791508601E+01 -0.27527380583E+02  0.52558390204E+02  0.00000000000E+00 0.  1.
         13    1    4    4    0    0  0.37891947809E+02  0.17573392445E+02 -0.81351059907E+02  0.91447355232E+02  0.00000000000E+00 0. -1.
         21    1    1    2  503  501 -0.15230022675E+03  0.12241017883E+01  0.24988351229E+02  0.15434142409E+03  0.00000000000E+00 0.  1.
         -3    1    1    2    0  502  0.16761034659E+03  0.57698740581E+02  0.52882781837E+02  0.18498367918E+03  0.00000000000E+00 0.  1.
<scales pt_clust_5="13000.00000" pt_clust_6="13000.00000" pt_clust_7="13000.00000" pt_clust_8="13000.00000" pt_clust_9="155.60991" pt_clust_10="13000.00000"></scales>
<clustering>
<clus scale="   91.599">  7  8 -1 -1</clus>
<clus scale="   93.329">  5  6 -1 -1</clus>
<clus scale="  123.272">  2  5  1 -1</clus>
<clus scale="  155.610">  1  9  2 -1</clus>
<clus scale="   73.170">  7 10 -1 -1</clus>
<clus scale="  155.610">  1  5  2 -1</clus>
</clustering>
</event>
<event>
10    2  0.5921424E-006  0.2087473E+03  0.7546771E-02  0.1175984E+00
         -1   -1    0    0    0  501 -0.00000000000E+00  0.00000000000E+00  0.36453264657E+03  0.36453264657E+03  0.00000000000E+00 0.  1.
         21   -1    0    0  501  502  0.00000000000E+00 -0.00000000000E+00 -0.36990526315E+03  0.36990526315E+03  0.00000000000E+00 0.  1.
         23    2    1    2    0    0  0.14017935528E+00  0.36730078617E+02  0.21333123487E+03  0.23419416220E+03  0.89373214727E+02 0.  0.
         23    2    1    2    0    0 -0.26320970151E+02 -0.58142167073E+02 -0.56166135870E+01  0.11203206730E+03  0.91903931875E+02 0.  0.
        -11    1    3    3    0    0  0.29108281972E+02  0.51099866838E+02  0.17162136950E+03  0.18141770294E+03  0.00000000000E+00 0.  1.
         11    1    3    3    0    0 -0.28968102616E+02 -0.14369788221E+02  0.41709865369E+02  0.52776459258E+02  0.00000000000E+00 0. -1.
        -13    1    4    4    0    0  0.21520986033E+02 -0.56984856540E+02 -0.16177020948E+02  0.63024778631E+02  0.00000000000E+00 0.  1.
         13    1    4    4    0    0 -0.47841956184E+02 -0.11573105326E+01  0.10560407361E+02  0.49007288670E+02  0.00000000000E+00 0. -1.
         21    1    1    2  503  502 -0.48167575497E+02 -0.24037263412E+02 -0.27570222093E+03  0.28090856162E+03  0.00000000000E+00 0.  1.
         -1    1    1    2    0  503  0.74348366293E+02  0.45449351868E+02  0.62614983066E+02  0.10730311859E+03  0.00000000000E+00 0.  1.
<scales pt_clust_5="13000.00000" pt_clust_6="13000.00000" pt_clust_7="13000.00000" pt_clust_8="13000.00000" pt_clust_9="53.83220" pt_clust_10="13000.00000"></scales>
<clustering>
<clus scale="   53.832">  2  9  1 -1</clus>
<clus scale="   89.373">  5  6 -1 -1</clus>
<clus scale="   91.904">  7  8 -1 -1</clus>
<clus scale="   74.065">  7 10 -1 -1</clus>
<clus scale="   95.769">  1  5  2 -1</clus>
<clus scale="   53.832">  2  5  1 -1</clus>
</clustering>
</event>
<event>
10    2  0.5921424E-006  0.1172654E+03  0.7546771E-02  0.1260703E+00
         -1   -1    0    0    0  501 -0.00000000000E+00  0.00000000000E+00  0.24978495363E+03  0.24978495363E+03  0.00000000000E+00 0.  1.
         21   -1    0    0  503  502  0.00000000000E+00 -0.00000000000E+00 -0.16217233141E+03  0.16217233141E+03  0.00000000000E+00 0. -1.
         23    2    1    2    0    0  0.11119926532E+02  0.69615651517E+01  0.18763894884E+03  0.20849639373E+03  0.89945844375E+02 0.  0.
         23    2    1    2    0    0 -0.23852867560E+02  0.30855276441E+02 -0.42127204748E+02  0.10678563130E+03  0.90041447667E+02 0.  0.
        -11    1    4    4    0    0  0.15619579039E+02  0.47052315605E+02 -0.42964177073E+01  0.49762946640E+02  0.00000000000E+00 0.  1.
         11    1    4    4    0    0 -0.39472446599E+02 -0.16197039164E+02 -0.37830787040E+02  0.57022684664E+02  0.00000000000E+00 0. -1.
        -13    1    3    3    0    0  0.28657907991E+02  0.34755650223E+02  0.51384463476E+02  0.68334427630E+02  0.00000000000E+00 0.  1.
         13    1    3    3    0    0 -0.17537981459E+02 -0.27794085071E+02  0.13625448537E+03  0.14016196610E+03  0.00000000000E+00 0. -1.
         21    1    1    2  503  501 -0.75529343861E+01 -0.42605454303E+02 -0.61827754771E+02  0.75464844890E+02  0.00000000000E+00 0.  1.
         -1    1    1    2    0  502  0.20285875414E+02  0.47886127109E+01  0.39286329005E+01  0.21210415118E+02  0.00000000000E+00 0.  1.
<scales pt_clust_5="13000.00000" pt_clust_6="13000.00000" pt_clust_7="13000.00000" pt_clust_8="13000.00000" pt_clust_9="43.26975" pt_clust_10="13000.00000"></scales>
<clustering>
<clus scale="   43.270">  2  9  1 -1</clus>
<clus scale="   89.946">  7  8 -1 -1</clus>
<clus scale="   90.041">  5  6 -1 -1</clus>
<clus scale="   19.607">  5 10 -1 -1</clus>
<clus scale="   90.558">  1  7  2 -1</clus>
<clus scale="   43.270">  2  5  1 -1</clus>
</clustering>
</event>
<event>
10    2  0.5921424E-006  0.3738732E+03  0.7546771E-02  0.1081583E+00
         21   -1    0    0  503  502  0.00000000000E+00  0.00000000000E+00  0.31058047866E+03  0.31058047866E+03  0.00000000000E+00 0. -1.
          1   -1    0    0  502    0 -0.00000000000E+00 -0.00000000000E+00 -0.75209298096E+03  0.75209298096E+03  0.00000000000E+00 0. -1.
         23    2    1    2    0    0  0.93892574662E+02  0.11673306575E+03 -0.50136228935E+03  0.53128819529E+03  0.91981395163E+02 0.  0.
         23    2    1    2    0    0 -0.19485904330E+03 -0.24280817739E+02 -0.11082385027E+03  0.24206542158E+03  0.88057581582E+02 0.  0.
        -11    1    3    3    0    0  0.24500423693E+02  0.87776871767E+02 -0.18653404188E+03  0.20760539193E+03  0.00000000000E+00 0.  1.
         11    1    3    3    0    0  0.69392150969E+02  0.28956193985E+02 -0.31482824747E+03  0.32368280336E+03  0.00000000000E+00 0. -1.
        -13    1    4    4    0    0 -0.12096322789E+03 -0.89478757980E+00 -0.11155752925E+03  0.16455389840E+03  0.00000000000E+00 0. -1.
         13    1    4    4    0    0 -0.73895815412E+02 -0.23386030160E+02  0.73367898270E+00  0.77511523188E+02  0.00000000000E+00 0.  1.
         21    1    1    2  503  501 -0.19617302951E+02 -0.60249728646E+02  0.14996793815E+03  0.16280433302E+03  0.00000000000E+00 0. -1.
          1    1    1    2  501    0  0.12058377159E+03 -0.32202519367E+02  0.20705699165E+02  0.12651550973E+03  0.00000000000E+00 0. -1.
<scales pt_clust_5="13000.00000" pt_clust_6="13000.00000" pt_clust_7="13000.00000" pt_clust_8="13000.00000" pt_clust_9="63.36299" pt_clust_10="13000.00000"></scales>
<clustering>
<clus scale="   63.363">  1  9  2 -1</clus>
<clus scale="   88.058">  7  8 -1 -1</clus>
<clus scale="   91.981">  5  6 -1 -1</clus>
<clus scale="  126.832">  7 10 -1 -1</clus>
<clus scale="  170.934">  2  5  1 -1</clus>
<clus scale="   63.363">  1  5  2 -1</clus>
</clustering>
</event>
<event>
10    2  0.5921424E-006  0.1464613E+03  0.7546771E-02  0.1206998E+00
         -1   -1    0    0    0  501 -0.00000000000E+00  0.00000000000E+00  0.58695677287E+02  0.58695677287E+02  0.00000000000E+00 0.  1.
         21   -1    0    0  501  502  0.00000000000E+00 -0.00000000000E+00 -0.54591929167E+03  0.54591929167E+03  0.00000000000E+00 0. -1.
         23    2    1    2    0    0 -0.23377476923E+02  0.12377752608E+03 -0.30617030876E+03  0.34315390961E+03  0.90260541317E+02 0.  0.
         23    2    1    2    0    0  0.42335741576E+02 -0.69289901810E+02 -0.95114749136E+02  0.15324558724E+03  0.88566297183E+02 0.  0.
        -13    1    4    4    0    0  0.51891565958E+02 -0.36308994163E+01 -0.28899021952E+02  0.59506903112E+02  0.00000000000E+00 0. -1.
         13    1    4    4    0    0 -0.95558243824E+01 -0.65659002394E+02 -0.66215727184E+02  0.93738684125E+02  0.00000000000E+00 0.  1.
        -13    1    3    3    0    0  0.45385789324E+01  0.10309882798E+03 -0.28342817451E+03  0.30163139282E+03  0.00000000000E+00 0. -1.
         13    1    3    3    0    0 -0.27916055855E+02  0.20678698100E+02 -0.22742134255E+02  0.41522516784E+02  0.00000000000E+00 0.  1.
         21    1    1    2  503  502 -0.20010226191E+02 -0.33744560310E+02 -0.75236442581E+02  0.84850614582E+02  0.00000000000E+00 0.  1.
         -1    1    1    2    0  503  0.10519615381E+01 -0.20743063963E+02 -0.10702113905E+02  0.23364857536E+02  0.00000000000E+00 0.  1.
<scales pt_clust_5="13000.00000" pt_clust_6="13000.00000" pt_clust_7="13000.00000" pt_clust_8="13000.00000" pt_clust_9="39.23142" pt_clust_10="13000.00000"></scales>
<clustering>
<clus scale="   39.231">  2  9  1 -1</clus>
<clus scale="   88.566">  5  6 -1 -1</clus>
<clus scale="   21.979">  5 10 -1 -1</clus>
<clus scale="   90.261">  7  8 -1 -1</clus>
<clus scale="  139.972">  1  7  2 -1</clus>
<clus scale="   39.231">  2  5  1 -1</clus>
</clustering>
</event>
<event>
10    2  0.5921424E-006  0.3974671E+03  0.7546771E-02  0.1077066E+00
         21   -1    0    0  501  502  0.00000000000E+00  0.00000000000E+00  0.15268636235E+03  0.15268636235E+03  0.00000000000E+00 0.  1.
          1   -1    0    0  503    0 -0.00000000000E+00 -0.00000000000E+00 -0.81917838559E+03  0.81917838559E+03  0.00000000000E+00 0. -1.
         23    2    1    2    0    0  0.11844484529E+02  0.13998031074E+03 -0.30323082652E+03  0.34568892993E+03  0.88414494930E+02 0.  0.
         23    2    1    2    0    0 -0.69782803570E+02 -0.22555421994E+03 -0.19885160382E+03  0.32149578962E+03  0.89851191384E+02 0.  0.
        -11    1    3    3    0    0  0.12556758680E+02  0.37917603368E+02 -0.18605566747E+03  0.19029484552E+03  0.00000000000E+00 0.  1.
         11    1    3    3    0    0 -0.71227415077E+00  0.10206270737E+03 -0.11717515905E+03  0.15539408441E+03  0.00000000000E+00 0. -1.
        -13    1    4    4    0    0 -0.84579629944E+02 -0.15163145025E+03 -0.11260120038E+03  0.20694163630E+03  0.00000000000E+00 0.  1.
         13    1    4    4    0    0  0.14796826374E+02 -0.73922769692E+02 -0.86250403439E+02  0.11455415332E+03  0.00000000000E+00 0. -1.
         21    1    1    2  503  502  0.17304792800E+02 -0.31324485302E+02  0.47383404689E+02  0.59379005324E+02  0.00000000000E+00 0.  1.
          1    1    1    2  501    0  0.40633526241E+02  0.11689839451E+03 -0.21179299758E+03  0.24530102307E+03  0.00000000000E+00 0. -1.
<scales pt_clust_5="13000.00000" pt_clust_6="13000.00000" pt_clust_7="13000.00000" pt_clust_8="13000.00000" pt_clust_9="35.78658" pt_clust_10="13000.00000"></scales>
<clustering>
<clus scale="   35.787">  1  9  2 -1</clus>
<clus scale="   88.414">  5  6 -1 -1</clus>
<clus scale="   89.851">  7  8 -1 -1</clus>
<clus scale="  119.810">  7 10 -1 -1</clus>
<clus scale="  160.696">  2  5  1 -1</clus>
<clus scale="   35.787">  1  5  2 -1</clus>
</clustering>
</event>
<event>
10    2  0.5921424E-006  0.6089519E+03  0.7546771E-02  0.1020739E+00
         21   -1    0    0  501  502  0.00000000000E+00  0.00000000000E+00  0.37190078323E+03  0.37190078323E+03  0.00000000000E+00 0. -1.
          1   -1    0    0  503    0 -0.00000000000E+00 -0.00000000000E+00 -0.51570177082E+03  0.51570177082E+03  0.00000000000E+00 0. -1.
         23    2    1    2    0    0 -0.17339054695E+02  0.19874887265E+03 -0.88477600595E+02  0.23620439787E+03  0.90346414245E+02 0.  0.
         23    2    1    2    0    0 -0.25865111646E+03 -0.70670414474E+02 -0.27040863551E+02  0.28407678993E+03  0.89853807631E+02 0.  0.
        -11    1    4    4    0    0 -0.32748443495E+02  0.12607327067E+02  0.17523435846E+02  0.39223412026E+02  0.00000000000E+00 0.  1.
         11    1    4    4    0    0 -0.22590267296E+03 -0.83277741541E+02 -0.44564299396E+02  0.24485337790E+03  0.00000000000E+00 0. -1.
        -13    1    3    3    0    0 -0.45079596795E+02  0.74123011959E+02 -0.12550527232E+02  0.87657895725E+02  0.00000000000E+00 0.  1.
         13    1    3    3    0    0  0.27740542101E+02  0.12462586069E+03 -0.75927073362E+02  0.14854650214E+03  0.00000000000E+00 0. -1.
         21    1    1    2  503  502 -0.20922388962E+02  0.23930934874E+02  0.46970029954E+01  0.32132504430E+02  0.00000000000E+00 0. -1.
          1    1    1    2  501    0  0.29691256011E+03 -0.15200939305E+03 -0.32979526442E+02  0.33518886183E+03  0.00000000000E+00 0. -1.
<scales pt_clust_5="13000.00000" pt_clust_6="13000.00000" pt_clust_7="13000.00000" pt_clust_8="13000.00000" pt_clust_9="31.78736" pt_clust_10="13000.00000"></scales>
<clustering>
<clus scale="   31.787">  1  9  2 -1</clus>
<clus scale="   89.854">  5  6 -1 -1</clus>
<clus scale="   90.346">  7  8 -1 -1</clus>
<clus scale="  223.937">  2  7  1 -1</clus>
<clus scale="  279.344">  5 10 -1 -1</clus>
<clus scale="   31.787">  1  5  2 -1</clus>
</clustering>
</event>
<event>
10    2  0.5921424E-006  0.2162731E+03  0.7546771E-02  0.1161476E+00
         -1   -1    0    0    0  501 -0.00000000000E+00  0.00000000000E+00  0.98089146611E+03  0.98089146611E+03  0.00000000000E+00 0.  1.
         21   -1    0    0  503  502  0.00000000000E+00 -0.00000000000E+00 -0.50121330012E+02  0.50121330012E+02  0.00000000000E+00 0.  1.
         23    2    1    2    0    0 -0.81483482950E+02 -0.59835800577E+01  0.46672419350E+03  0.48399382128E+03  0.98707573235E+02 0.  0.
         23    2    1    2    0    0  0.10321116852E+03  0.96370452458E+00  0.27410563555E+03  0.30642991769E+03  0.90066203307E+02 0.  0.
        -11    1    4    4    0    0  0.78677736612E+02  0.41457971958E+02  0.19326916796E+03  0.21274849226E+03  0.00000000000E+00 0.  1.
         11    1    4    4    0    0  0.24533431913E+02 -0.40494267434E+02  0.80836467597E+02  0.93681425426E+02  0.00000000000E+00 0. -1.
        -11    1    3    3    0    0 -0.59289800889E+02  0.43306402456E+02  0.29264753737E+03  0.30171726188E+03  0.00000000000E+00 0.  1.
         11    1    3    3    0    0 -0.22193682061E+02 -0.49289982514E+02  0.17407665613E+03  0.18227655940E+03  0.00000000000E+00 0. -1.
         21    1    1    2  503  501  0.48050254753E+02  0.62659093588E+01  0.12685106913E+02  0.50089924529E+02  0.00000000000E+00 0.  1.
         -1    1    1    2    0  502 -0.69777940328E+02 -0.12460338257E+01  0.17725520013E+03  0.19049913262E+03  0.00000000000E+00 0.  1.
<scales pt_clust_5="13000.00000" pt_clust_6="13000.00000" pt_clust_7="13000.00000" pt_clust_8="13000.00000" pt_clust_9="48.45708" pt_clust_10="13000.00000"></scales>
<clustering>
<clus scale="   48.457">  2  9  1 -1</clus>
<clus scale="   90.066">  5  6 -1 -1</clus>
<clus scale="   59.651">  5 10 -1 -1</clus>
<clus scale="   98.708">  7  8 -1 -1</clus>
<clus scale="  120.097">  1  7  2 -1</clus>
<clus scale="   48.457">  2  5  1 -1</clus>
</clustering>
</event>
<event>
10    2  0.5921424E-006  0.3329959E+03  0.7546771E-02  0.1093094E+00
         -3   -1    0    0    0  501 -0.00000000000E+00  0.00000000000E+00  0.43904510299E+03  0.43904510299E+03  0.00000000000E+00 0.  1.
         21   -1    0    0  501  502  0.00000000000E+00 -0.00000000000E+00 -0.51217929885E+03  0.51217929885E+03  0.00000000000E+00 0. -1.
         23    2    1    2    0    0  0.12194379497E+03 -0.92721489869E+02  0.24300401121E+03  0.30133073038E+03  0.91003822947E+02 0.  0.
         23    2    1    2    0    0  0.16986674775E+03 -0.52962311888E+02 -0.18486435793E+03  0.27213745100E+03  0.90687611789E+02 0.  0.
        -13    1    4    4    0    0  0.92893227519E+02 -0.51498692088E+01 -0.14691887513E+03  0.17389890380E+03  0.00000000000E+00 0.  1.
         13    1    4    4    0    0  0.76973520231E+02 -0.47812442679E+02 -0.37945482798E+02  0.98238547202E+02  0.00000000000E+00 0. -1.
        -13    1    3    3    0    0 -0.16594319084E+01 -0.36690979332E+02  0.24627864582E+02  0.44221187144E+02  0.00000000000E+00 0.  1.
         13    1    3    3    0    0  0.12360322688E+03 -0.56030510538E+02  0.21837614663E+03  0.25710954324E+03  0.00000000000E+00 0. -1.
         21    1    1    2  503  502 -0.20722823240E+03  0.64698618260E+02 -0.23067321376E+02  0.21831526017E+03  0.00000000000E+00 0.  1.
         -3    1    1    2    0  503 -0.84582310322E+02  0.80985183498E+02 -0.10820652776E+03  0.15944096028E+03  0.00000000000E+00 0.  1.
<scales pt_clust_5="13000.00000" pt_clust_6="13000.00000" pt_clust_7="13000.00000" pt_clust_8="13000.00000" pt_clust_9="136.29251" pt_clust_10="13000.00000"></scales>
<clustering>
<clus scale="   90.688">  5  6 -1 -1</clus>
<clus scale="   91.004">  7  8 -1 -1</clus>
<clus scale="  117.102">  5 10 -1 -1</clus>
<clus scale="  178.183">  1  7  2 -1</clus>
<clus scale="  136.293">  2  9  1 -1</clus>
<clus scale="  136.293">  2  5  1 -1</clus>
</clustering>
</event>
<event>
10    2  0.5921424E-006  0.2068880E+03  0.7546771E-02  0.1174541E+00
         21   -1    0    0  503  502  0.00000000000E+00  0.00000000000E+00  0.26280273280E+03  0.26280273280E+03  0.00000000000E+00 0. -1.
          3   -1    0    0  502    0 -0.00000000000E+00 -0.00000000000E+00 -0.26175799026E+03  0.26175799026E+03  0.00000000000E+00 0. -1.
         23    2    1    2    0    0 -0.17922801081E+02 -0.47037767159E+02 -0.12865952313E+03  0.16679972279E+03  0.93461737066E+02 0.  0.
         23    2    1    2    0    0  0.10809523118E+02 -0.65455449274E+02 -0.50045252378E+02  0.12754207533E+03  0.96753253503E+02 0.  0.
        -11    1    3    3    0    0  0.37486962841E+02 -0.24237150606E+02 -0.40946111636E+02  0.60574713459E+02  0.00000000000E+00 0. -1.
         11    1    3    3    0    0 -0.55409763922E+02 -0.22800616553E+02 -0.87713411489E+02  0.10622500933E+03  0.00000000000E+00 0.  1.
        -13    1    4    4    0    0  0.66723982450E+01  0.19904449075E+02  0.98437219185E+01  0.23186350565E+02  0.00000000000E+00 0.  1.
         13    1    4    4    0    0  0.41371248735E+01 -0.85359898349E+02 -0.59888974297E+02  0.10435572476E+03  0.00000000000E+00 0. -1.
         21    1    1    2  503  501  0.36221142447E+02  0.54540498508E+02  0.13894447174E+03  0.15359753698E+03  0.00000000000E+00 0. -1.
          3    1    1    2  501    0 -0.29107864485E+02  0.57952717925E+02  0.40805046300E+02  0.76621387962E+02  0.00000000000E+00 0. -1.
<scales pt_clust_5="13000.00000" pt_clust_6="13000.00000" pt_clust_7="13000.00000" pt_clust_8="13000.00000" pt_clust_9="65.47242" pt_clust_10="13000.00000"></scales>
<clustering>
<clus scale="   65.472">  1  9  2 -1</clus>
<clus scale="   93.462">  5  6 -1 -1</clus>
<clus scale="   96.753">  7  8 -1 -1</clus>
<clus scale="   86.120">  7 10 -1 -1</clus>
<clus scale="  101.644">  2  5  1 -1</clus>
<clus scale="   65.472">  1  5  2 -1</clus>
</clustering>
</event>
<event>
10    2  0.5921424E-006  0.1390446E+03  0.7546771E-02  0.1223409E+00
         21   -1    0    0  503  502  0.00000000000E+00  0.00000000000E+00  0.39119974948E+03  0.39119974948E+03  0.00000000000E+00 0. -1.
          2   -1    0    0  502    0 -0.00000000000E+00 -0.00000000000E+00 -0.31898112482E+03  0.31898112482E+03  0.00000000000E+00 0. -1.
         23    2    1    2    0    0  0.53310119582E+02 -0.22353751936E+02 -0.28337129516E+03  0.30596302488E+03  0.99862017796E+02 0.  0.
         23    2    1    2    0    0 -0.54733889114E+02 -0.15612566402E+02  0.19315415749E+03  0.22145916025E+03  0.92174184321E+02 0.  0.
        -11    1    3    3    0    0  0.35999785418E+02 -0.52080713658E+02 -0.25052167194E+03  0.25839793613E+03  0.00000000000E+00 0.  1.
         11    1    3    3    0    0  0.17310334164E+02  0.29726961722E+02 -0.32849623220E+02  0.47565088750E+02  0.00000000000E+00 0. -1.
        -11    1    4    4    0    0 -0.34565129678E+01  0.35630282575E+02  0.66735396528E+02  0.75730295575E+02  0.00000000000E+00 0.  1.
         11    1    4    4    0    0 -0.51277376147E+02 -0.51242848977E+02  0.12641876096E+03  0.14572886467E+03  0.00000000000E+00 0. -1.
         21    1    1    2  503  501  0.16328608328E+02  0.19032649386E+02  0.15574448362E+03  0.15775046551E+03  0.00000000000E+00 0. -1.
          2    1    1    2  501    0 -0.14904838796E+02  0.18933668953E+02  0.66912787249E+01  0.25008223658E+02  0.00000000000E+00 0. -1.
<scales pt_clust_5="13000.00000" pt_clust_6="13000.00000" pt_clust_7="13000.00000" pt_clust_8="13000.00000" pt_clust_9="25.07718" pt_clust_10="13000.00000"></scales>
<clustering>
<clus scale="   25.077">  1  9  2 -1</clus>
<clus scale="   92.174">  7  8 -1 -1</clus>
<clus scale="   24.481">  7 10 -1 -1</clus>
<clus scale="   99.862">  5  6 -1 -1</clus>
<clus scale="  115.579">  2  5  1 -1</clus>
<clus scale="   25.077">  1  5  2 -1</clus>
</clustering>
</event>
<event>
10    2  0.5921424E-006  0.1968457E+03  0.7546771E-02  0.1181410E+00
          2   -1    0    0  502    0 -0.00000000000E+00  0.00000000000E+00  0.54181006105E+03  0.54181006105E+03  0.00000000000E+00 0. -1.
         21   -1    0    0  503  502  0.00000000000E+00 -0.00000000000E+00 -0.68912931712E+02  0.68912931712E+02  0.00000000000E+00 0.  1.
         23    2    1    2    0    0 -0.31566606383E+01 -0.46464490623E+02  0.17077179344E+03  0.19912320802E+03  0.91203800043E+02 0.  0.
         23    2    1    2    0    0  0.23710902744E+01  0.51318286273E+02  0.32743235995E+03  0.34353461176E+03  0.90359783991E+02 0.  0.
        -11    1    3    3    0    0 -0.42933847298E+02 -0.45132935643E+02  0.11169234157E+03  0.12788853072E+03  0.00000000000E+00 0.  1.
         11    1    3    3    0    0  0.39777186660E+02 -0.13315549803E+01  0.59079451868E+02  0.71234677301E+02  0.00000000000E+00 0. -1.
        -13    1    4    4    0    0 -0.18122532943E+02  0.71028045806E+02  0.20114071572E+03  0.21408175310E+03  0.00000000000E+00 0.  1.
         13    1    4    4    0    0  0.20493623217E+02 -0.19709759533E+02  0.12629164423E+03  0.12945285866E+03  0.00000000000E+00 0. -1.
         21    1    1    2  503  501 -0.26019115565E+02  0.13558956369E+02 -0.18956953325E+02  0.34931443599E+02  0.00000000000E+00 0. -1.
          2    1    1    2  501    0  0.26804685928E+02 -0.18412752018E+02 -0.63500707231E+01  0.33133729382E+02  0.00000000000E+00 0. -1.
<scales pt_clust_5="13000.00000" pt_clust_6="13000.00000" pt_clust_7="13000.00000" pt_clust_8="13000.00000" pt_clust_9="29.34007" pt_clust_10="13000.00000"></scales>
<clustering>
<clus scale="   29.340">  2  9  1 -1</clus>
<clus scale="   90.360">  7  8 -1 -1</clus>
<clus scale="   18.894">  7 10 -1 -1</clus>
<clus scale="   91.204">  5  6 -1 -1</clus>
<clus scale="  101.070">  1  5  2 -1</clus>
<clus scale="   29.340">  2  5  1 -1</clus>
</clustering>
</event>
<event>
10    2  0.5921424E-006  0.1287505E+03  0.7546771E-02  0.1240460E+00
         21   -1    0    0  501  502  0.00000000000E+00  0.00000000000E+00  0.79259339883E+02  0.79259339883E+02  0.00000000000E+00 0.  1.
          1   -1    0    0  503    0 -0.00000000000E+00 -0.00000000000E+00 -0.48880506020E+03  0.48880506020E+03  0.00000000000E+00 0. -1.
         23    2    1    2    0    0  0.30183217181E+02 -0.48505298693E+02 -0.16692552202E+03  0.20030407301E+03  0.94835653426E+02 0.  0.
         23    2    1    2    0    0 -0.49335960108E+01  0.17792594044E+02 -0.17517876256E+03  0.19938846409E+03  0.93419719473E+02 0.  0.
        -11    1    4    4    0    0  0.28255350950E+01 -0.34958540990E+02 -0.10841413755E+03  0.11394607698E+03  0.00000000000E+00 0.  1.
         11    1    4    4    0    0 -0.77591311058E+01  0.52751135035E+02 -0.66764625008E+02  0.85442387112E+02  0.00000000000E+00 0. -1.
        -13    1    3    3    0    0  0.48470659271E+02 -0.12917120759E+02 -0.31832277857E+02  0.59410022155E+02  0.00000000000E+00 0.  1.
         13    1    3    3    0    0 -0.18287442090E+02 -0.35588177934E+02 -0.13509324417E+03  0.14089405085E+03  0.00000000000E+00 0. -1.
         21    1    1    2  503  502 -0.51662310425E+02  0.17979408182E+02  0.32900597336E+02  0.63833398328E+02  0.00000000000E+00 0.  1.
          1    1    1    2  501    0  0.26412689254E+02  0.12733296466E+02 -0.10034203307E+03  0.10453846466E+03  0.00000000000E+00 0. -1.
<scales pt_clust_5="13000.00000" pt_clust_6="13000.00000" pt_clust_7="13000.00000" pt_clust_8="13000.00000" pt_clust_9="54.70149" pt_clust_10="13000.00000"></scales>
<clustering>
<clus scale="   54.701">  1  9  2 -1</clus>
<clus scale="   93.420">  5  6 -1 -1</clus>
<clus scale="   26.820">  5 10 -1 -1</clus>
<clus scale="   94.836">  7  8 -1 -1</clus>
<clus scale="  102.488">  2  7  1 -1</clus>
<clus scale="   54.701">  1  5  2 -1</clus>
</clustering>
</event>
<event>
10    2  0.5921424E-006  0.2110492E+03  0.7546771E-02  0.1176529E+00
         -2   -1    0    0    0  501 -0.00000000000E+00  0.00000000000E+00  0.31949188260E+03  0.31949188260E+03  0.00000000000E+00 0.  1.
         21   -1    0    0  501  502  0.00000000000E+00 -0.00000000000E+00 -0.17548086201E+03  0.17548086201E+03  0.00000000000E+00 0.  1.
         23    2    1    2    0    0  0.23214142572E+02 -0.25135515901E+02  0.52749208490E+02  0.10921997892E+03  0.89307526137E+02 0.  0.
         23    2    1    2    0    0  0.44487770840E+02 -0.63060271117E+02  0.16456542661E+03  0.20314976783E+03  0.90731962326E+02 0.  0.
        -11    1    3    3    0    0 -0.72246303258E+01  0.26293816338E+02 -0.30745580533E+01  0.27441081760E+02  0.00000000000E+00 0. -1.
         11    1    3    3    0    0  0.30438772898E+02 -0.51429332239E+02  0.55823766544E+02  0.81778897163E+02  0.00000000000E+00 0.  1.
        -13    1    4    4    0    0  0.21445697759E+01 -0.75067434418E+02  0.10443082201E+03  0.12862937252E+03  0.00000000000E+00 0.  1.
         13    1    4    4    0    0  0.42343201064E+02  0.12007163302E+02  0.60134604600E+02  0.74520395311E+02  0.00000000000E+00 0. -1.
         21    1    1    2  503  502 -0.40403629487E+02  0.18296111073E+02 -0.94699345197E+02  0.10457134855E+03  0.00000000000E+00 0.  1.
         -2    1    1    2    0  503 -0.27298283925E+02  0.69899675944E+02  0.21395730685E+02  0.78031649309E+02  0.00000000000E+00 0.  1.
<scales pt_clust_5="13000.00000" pt_clust_6="13000.00000" pt_clust_7="13000.00000" pt_clust_8="13000.00000" pt_clust_9="44.35314" pt_clust_10="13000.00000"></scales>
<clustering>
<clus scale="   44.353">  2  9  1 -1</clus>
<clus scale="   89.308">  5  6 -1 -1</clus>
<clus scale="   90.732">  7  8 -1 -1</clus>
<clus scale="   87.658">  7 10 -1 -1</clus>
<clus scale="   91.534">  1  5  2 -1</clus>
<clus scale="   44.353">  2  5  1 -1</clus>
</clustering>
</event>
<event>
10    2  0.6994262E-006  0.1320471E+03  0.7546771E-02  0.1227486E+00
         21   -1    0    0  501  502  0.00000000000E+00  0.00000000000E+00  0.68650975198E+03  0.68650975198E+03  0.00000000000E+00 0.  1.
          1   -1    0    0  503    0 -0.00000000000E+00 -0.00000000000E+00 -0.60984353022E+03  0.60984353022E+03  0.00000000000E+00 0. -1.
         23    2    1    2    0    0 -0.82700889590E+02 -0.43022412669E+01 -0.44862316653E+03  0.46938441778E+03  0.11045831652E+03 0.  0.
         23    2    1    2    0    0 -0.23415502654E+02 -0.70204012419E+01 -0.98735183655E+02  0.13746045874E+03  0.92461718710E+02 0.  0.
        -11    1    3    3    0    0 -0.64269015995E+02  0.30509869059E+02 -0.40245945509E+03  0.40869912102E+03  0.00000000000E+00 0. -1.
         11    1    3    3    0    0 -0.18431873594E+02 -0.34812110325E+02 -0.46163711440E+02  0.60685296764E+02  0.00000000000E+00 0.  1.
        -13    1    4    4    0    0 -0.49621220887E+02  0.67329580201E+01 -0.95314064929E+02  0.10766786549E+03  0.00000000000E+00 0. -1.
         13    1    4    4    0    0  0.26205718233E+02 -0.13753359262E+02 -0.34211187264E+01  0.29792593248E+02  0.00000000000E+00 0.  1.
         21    1    1    2  503  502  0.94947627536E+02  0.37547953025E+02  0.64568494534E+03  0.65370784713E+03  0.00000000000E+00 0.  1.
          1    1    1    2  501    0  0.11168764708E+02 -0.26225310516E+02 -0.21660373394E+02  0.35800558548E+02  0.00000000000E+00 0. -1.
<scales pt_clust_5="13000.00000" pt_clust_6="13000.00000" pt_clust_7="13000.00000" pt_clust_8="13000.00000" pt_clust_9="102.10240" pt_clust_10="13000.00000"></scales>
<clustering>
<clus scale="   92.462">  7  8 -1 -1</clus>
<clus scale="   28.505">  7 10 -1 -1</clus>
<clus scale="  102.102">  1  9  2 -1</clus>
<clus scale="  110.458">  5  6 -1 -1</clus>
<clus scale="  123.970">  2  5  1 -1</clus>
<clus scale="  102.102">  1  5  2 -1</clus>
</clustering>
</event>
<event>
10    2  0.5921424E-006  0.6995965E+03  0.7546771E-02  0.1004263E+00
          1   -1    0    0  503    0 -0.00000000000E+00  0.00000000000E+00  0.42646207052E+03  0.42646207052E+03  0.00000000000E+00 0. -1.
         21   -1    0    0  501  502  0.00000000000E+00 -0.00000000000E+00 -0.18066547202E+04  0.18066547202E+04  0.00000000000E+00 0. -1.
         23    2    1    2    0    0  0.18857868082E+03 -0.12405604444E+03  0.27764491866E+03  0.36896511668E+03  0.89981861778E+02 0.  0.
         23    2    1    2    0    0 -0.14268429251E+03 -0.17273579687E+03 -0.11464377019E+03  0.26805026299E+03  0.92256634417E+02 0.  0.
        -13    1    4    4    0    0 -0.13333022018E+03 -0.13656453460E+03 -0.12635816520E+03  0.22889562171E+03  0.00000000000E+00 0. -1.
         13    1    4    4    0    0 -0.93540723328E+01 -0.36171262267E+02  0.11714395010E+02  0.39154641279E+02  0.00000000000E+00 0.  1.
        -13    1    3    3    0    0  0.66762737588E+02 -0.75480200497E+02  0.67608452495E+02  0.12134836895E+03  0.00000000000E+00 0. -1.
         13    1    3    3    0    0  0.12181594323E+03 -0.48575843942E+02  0.21003646616E+03  0.24761674773E+03  0.00000000000E+00 0.  1.
         21    1    1    2  503  502  0.97498946112E+02  0.25660455309E+02 -0.38680417530E+03  0.39972737396E+03  0.00000000000E+00 0.  1.
          1    1    1    2  501    0 -0.14339333442E+03  0.27113138600E+03 -0.11563896228E+04  0.11963740371E+04  0.00000000000E+00 0. -1.
<scales pt_clust_5="13000.00000" pt_clust_6="13000.00000" pt_clust_7="13000.00000" pt_clust_8="13000.00000" pt_clust_9="100.81916" pt_clust_10="13000.00000"></scales>
<clustering>
<clus scale="   89.982">  7  8 -1 -1</clus>
<clus scale="   92.257">  5  6 -1 -1</clus>
<clus scale="  100.819">  2  9  1 -1</clus>
<clus scale="  245.034">  1  7  2 -1</clus>
<clus scale="  261.438">  5 10 -1 -1</clus>
<clus scale="  100.819">  2  5  1 -1</clus>
</clustering>
</event>
<event>
10    2  0.5921424E-006  0.1928666E+03  0.7546771E-02  0.1179197E+00
         21   -1    0    0  501  502  0.00000000000E+00  0.00000000000E+00  0.17388342476E+03  0.17388342476E+03  0.00000000000E+00 0.  1.
          1   -1    0    0  503    0 -0.00000000000E+00 -0.00000000000E+00 -0.28134555771E+03  0.28134555771E+03  0.00000000000E+00 0. -1.
         23    2    1    2    0    0 -0.29274304528E+02 -0.49749337573E+02 -0.43118368923E+02  0.11671116083E+03  0.91816773141E+02 0.  0.
         23    2    1    2    0    0 -0.48393434926E+02  0.64809114135E+02 -0.11353237957E+03  0.16660985735E+03  0.91252931667E+02 0.  0.
        -11    1    4    4    0    0 -0.72070706675E+01  0.74322778945E+02 -0.93986758338E+02  0.12003886071E+03  0.00000000000E+00 0.  1.
         11    1    4    4    0    0 -0.41186364258E+02 -0.95136648104E+01 -0.19545621228E+02  0.46570996641E+02  0.00000000000E+00 0. -1.
        -13    1    3    3    0    0  0.30136690620E+02 -0.44106051820E+00 -0.19790401277E+02  0.36056547791E+02  0.00000000000E+00 0.  1.
         13    1    3    3    0    0 -0.59410995148E+02 -0.49308277055E+02 -0.23327967646E+02  0.80654613043E+02  0.00000000000E+00 0. -1.
         21    1    1    2  503  502  0.55967372925E+01 -0.23829740984E+02  0.86769067245E+02  0.90155704502E+02  0.00000000000E+00 0.  1.
          1    1    1    2  501    0  0.72071002162E+02  0.87699644224E+01 -0.37580451712E+02  0.81752259782E+02  0.00000000000E+00 0. -1.
<scales pt_clust_5="13000.00000" pt_clust_6="13000.00000" pt_clust_7="13000.00000" pt_clust_8="13000.00000" pt_clust_9="24.47815" pt_clust_10="13000.00000"></scales>
<clustering>
<clus scale="   24.478">  1  9  2 -1</clus>
<clus scale="   91.253">  5  6 -1 -1</clus>
<clus scale="   73.564">  5 10 -1 -1</clus>
<clus scale="   91.817">  7  8 -1 -1</clus>
<clus scale="  112.932">  2  7  1 -1</clus>
<clus scale="   24.478">  1  5  2 -1</clus>
</clustering>
</event>
<event>
10    2  0.5921424E-006  0.2462251E+03  0.7546771E-02  0.1142079E+00
         21   -1    0    0  501  502  0.00000000000E+00  0.00000000000E+00  0.33427219109E+03  0.33427219109E+03  0.00000000000E+00 0.  1.
         -1   -1    0    0    0  501 -0.00000000000E+00 -0.00000000000E+00 -0.31200242864E+03  0.31200242864E+03  0.00000000000E+00 0.  1.
         23    2    1    2    0    0 -0.31370389516E+02 -0.79415416582E+02  0.10037321152E+03  0.15840182314E+03  0.87894517773E+02 0.  0.
         23    2    1    2    0    0  0.73589202774E+02  0.46817152157E+02 -0.25965324344E+03  0.28913157940E+03  0.92574547682E+02 0.  0.
        -11    1    4    4    0    0  0.29124852757E+02  0.65173385483E+02 -0.10345029356E+03  0.12568926152E+03  0.00000000000E+00 0. -1.
         11    1    4    4    0    0  0.44464350017E+02 -0.18356233326E+02 -0.15620294988E+03  0.16344231788E+03  0.00000000000E+00 0.  1.
        -13    1    3    3    0    0 -0.49278981975E+02 -0.97495725254E+01  0.35224628735E+02  0.61353457103E+02  0.00000000000E+00 0. -1.
         13    1    3    3    0    0  0.17908592459E+02 -0.69665844056E+02  0.65148582783E+02  0.97048366038E+02  0.00000000000E+00 0.  1.
         21    1    1    2  503  502 -0.29044658729E+02  0.13976601519E+01  0.14884937213E+03  0.15166305166E+03  0.00000000000E+00 0.  1.
         -1    1    1    2    0  503 -0.13174154529E+02  0.31200604273E+02  0.32700422242E+02  0.47078165527E+02  0.00000000000E+00 0.  1.
<scales pt_clust_5="13000.00000" pt_clust_6="13000.00000" pt_clust_7="13000.00000" pt_clust_8="13000.00000" pt_clust_9="29.07827" pt_clust_10="13000.00000"></scales>
<clustering>
<clus scale="   29.078">  1  9  2 -1</clus>
<clus scale="   87.895">  7  8 -1 -1</clus>
<clus scale="   92.575">  5  6 -1 -1</clus>
<clus scale="   37.035">  5 10 -1 -1</clus>
<clus scale="  128.684">  2  7  1 -1</clus>
<clus scale="   29.078">  1  5  2 -1</clus>
</clustering>
</event>
<event>
10    2  0.5921424E-006  0.2575037E+03  0.7546771E-02  0.1145544E+00
         21   -1    0    0  501  502  0.00000000000E+00  0.00000000000E+00  0.24600738511E+03  0.24600738511E+03  0.00000000000E+00 0. -1.
          1   -1    0    0  503    0 -0.00000000000E+00 -0.00000000000E+00 -0.55334841705E+03  0.55334841705E+03  0.00000000000E+00 0. -1.
         23    2    1    2    0    0 -0.43308221204E+02  0.23371579440E+02 -0.76028757835E+02  0.12845886681E+03  0.91101458245E+02 0.  0.
         23    2    1    2    0    0 -0.12284940507E+03  0.64595882225E+02 -0.25701600699E+03  0.30572465915E+03  0.90253725884E+02 0.  0.
        -13    1    4    4    0    0 -0.82348517501E+02  0.86202426518E+02 -0.19526994082E+03  0.22878480382E+03  0.00000000000E+00 0. -1.
         13    1    4    4    0    0 -0.40500887569E+02 -0.21606544293E+02 -0.61746066177E+02  0.76939855332E+02  0.00000000000E+00 0.  1.
        -13    1    3    3    0    0  0.28572416432E+02  0.10944083551E+02 -0.22528689519E+02  0.37996023436E+02  0.00000000000E+00 0.  1.
         13    1    3    3    0    0 -0.71880637636E+02  0.12427495890E+02 -0.53500068317E+02  0.90462843372E+02  0.00000000000E+00 0. -1.
         21    1    1    2  503  502  0.10536254860E+03 -0.11979784659E+03  0.15268828480E+03  0.22083139046E+03  0.00000000000E+00 0. -1.
          1    1    1    2  501    0  0.60795077672E+02  0.31830384926E+02 -0.12698455191E+03  0.14434088575E+03  0.00000000000E+00 0. -1.
<scales pt_clust_5="13000.00000" pt_clust_6="13000.00000" pt_clust_7="13000.00000" pt_clust_8="13000.00000" pt_clust_9="156.05888" pt_clust_10="13000.00000"></scales>
<clustering>
<clus scale="   90.254">  5  6 -1 -1</clus>
<clus scale="   68.624">  5 10 -1 -1</clus>
<clus scale="   91.101">  7  8 -1 -1</clus>
<clus scale="  103.544">  2  7  1 -1</clus>
<clus scale="  156.059">  1  9  2 -1</clus>
<clus scale="  156.059">  1  5  2 -1</clus>
</clustering>
</event>
<event>
10    2  0.5921424E-006  0.2091790E+03  0.7546771E-02  0.1160829E+00
          1   -1    0    0  503    0 -0.00000000000E+00  0.00000000000E+00  0.47817364800E+03  0.47817364800E+03  0.00000000000E+00 0. -1.
         21   -1    0    0  501  502  0.00000000000E+00 -0.00000000000E+00 -0.18628932099E+03  0.18628932099E+03  0.00000000000E+00 0. -1.
         23    2    1    2    0    0  0.10496151689E+03 -0.76935161921E+02 -0.16468286316E+02  0.16063514483E+03  0.92717345376E+02 0.  0.
         23    2    1    2    0    0 -0.36963726800E+02  0.29015944926E+02  0.30824019818E+03  0.32510434675E+03  0.92046587911E+02 0.  0.
        -11    1    4    4    0    0  0.30188309567E+02  0.13907825925E+02  0.77759675879E+02  0.84565529912E+02  0.00000000000E+00 0. -1.
         11    1    4    4    0    0 -0.67152036367E+02  0.15108119000E+02  0.23048052230E+03  0.24053881684E+03  0.00000000000E+00 0.  1.
        -13    1    3    3    0    0  0.23974366426E+02 -0.52988912092E+02 -0.42756300388E+02  0.72185152719E+02  0.00000000000E+00 0.  1.
         13    1    3    3    0    0  0.80987150460E+02 -0.23946249829E+02  0.26288014072E+02  0.88449992110E+02  0.00000000000E+00 0. -1.
         21    1    1    2  503  502 -0.89986064871E+02 -0.17925088479E+02 -0.38252779470E+02  0.99408630436E+02  0.00000000000E+00 0. -1.
          1    1    1    2  501    0  0.21988274785E+02  0.65844305474E+02  0.38365194620E+02  0.79314846968E+02  0.00000000000E+00 0. -1.
<scales pt_clust_5="13000.00000" pt_clust_6="13000.00000" pt_clust_7="13000.00000" pt_clust_8="13000.00000" pt_clust_9="91.75402" pt_clust_10="13000.00000"></scales>
<clustering>
<clus scale="   91.754">  2  9  1 -1</clus>
<clus scale="   92.047">  5  6 -1 -1</clus>
<clus scale="   63.036">  5 10 -1 -1</clus>
<clus scale="   92.717">  7  8 -1 -1</clus>
<clus scale="  134.742">  1  7  2 -1</clus>
<clus scale="   91.754">  2  5  1 -1</clus>
</clustering>
</event>
<event>
10    2  0.5921424E-006  0.2634489E+03  0.7546771E-02  0.1136748E+00
          2   -1    0    0  503    0 -0.00000000000E+00  0.00000000000E+00  0.13344762879E+04  0.13344762879E+04  0.00000000000E+00 0. -1.
         21   -1    0    0  501  502  0.00000000000E+00 -0.00000000000E+00 -0.62249212560E+02  0.62249212560E+02  0.00000000000E+00 0.  1.
         23    2    1    2    0    0  0.24292429344E+02  0.77060224681E+02  0.54567418281E+03  0.55909111613E+03  0.91072289990E+02 0.  0.
         23    2    1    2    0    0 -0.70950759736E+02 -0.12251994798E+03  0.59506545239E+03  0.61638077847E+03  0.76008048771E+02 0.  0.
        -11    1    4    4    0    0  0.16175382108E+02 -0.15497924466E+02  0.96719031898E+02  0.99279402599E+02  0.00000000000E+00 0. -1.
         11    1    4    4    0    0 -0.87126141844E+02 -0.10702202352E+03  0.49834642049E+03  0.51710137587E+03  0.00000000000E+00 0.  1.
        -11    1    3    3    0    0  0.18965056330E+02 -0.16286998135E+02  0.70384782862E+02  0.74692418146E+02  0.00000000000E+00 0.  1.
         11    1    3    3    0    0  0.53273730133E+01  0.93347222816E+02  0.47528939995E+03  0.48439869799E+03  0.00000000000E+00 0. -1.
         21    1    1    2  503  502 -0.22426509310E+02 -0.88676822675E+01 -0.29339768364E+02  0.37979022055E+02  0.00000000000E+00 0.  1.
          2    1    1    2  501    0  0.69084839702E+02  0.54327405571E+02  0.16082720852E+03  0.18327458381E+03  0.00000000000E+00 0. -1.
<scales pt_clust_5="13000.00000" pt_clust_6="13000.00000" pt_clust_7="13000.00000" pt_clust_8="13000.00000" pt_clust_9="24.11605" pt_clust_10="13000.00000"></scales>
<clustering>
<clus scale="   24.116">  2  9  1 -1</clus>
<clus scale="   76.008">  5  6 -1 -1</clus>
<clus scale="   78.861">  5 10 -1 -1</clus>
<clus scale="   91.072">  7  8 -1 -1</clus>
<clus scale="  119.492">  1  7  2 -1</clus>
<clus scale="   24.116">  2  5  1 -1</clus>
</clustering>
</event>
<event>
10    2  0.5921424E-006  0.2017795E+03  0.7546771E-02  0.1171453E+00
         21   -1    0    0  501  502  0.00000000000E+00  0.00000000000E+00  0.49746801459E+02  0.49746801459E+02  0.00000000000E+00 0. -1.
          2   -1    0    0  503    0 -0.00000000000E+00 -0.00000000000E+00 -0.10317571689E+04  0.10317571689E+04  0.00000000000E+00 0. -1.
         23    2    1    2    0    0 -0.92952783941E+02  0.27185574642E+02 -0.34857778234E+03  0.37343587030E+03  0.92566750941E+02 0.  0.
         23    2    1    2    0    0  0.65765048792E+02 -0.44399196188E+02 -0.21544438302E+03  0.24656514272E+03  0.89898593802E+02 0.  0.
        -11    1    3    3    0    0 -0.52032382595E+02 -0.24279276847E+02 -0.23763175737E+03  0.24447025224E+03  0.00000000000E+00 0.  1.
         11    1    3    3    0    0 -0.40920401346E+02  0.51464851489E+02 -0.11094602497E+03  0.12896561806E+03  0.00000000000E+00 0. -1.
        -11    1    4    4    0    0  0.42586055668E+02 -0.47248227681E+02 -0.21390382036E+03  0.22316095430E+03  0.00000000000E+00 0. -1.
         11    1    4    4    0    0  0.23178993124E+02  0.28490314925E+01 -0.15405626549E+01  0.23404188428E+02  0.00000000000E+00 0.  1.
         21    1    1    2  503  502  0.10228838039E+03  0.48425606418E+02 -0.21839443429E+03  0.24597577330E+03  0.00000000000E+00 0. -1.
          2    1    1    2  501    0 -0.75100645243E+02 -0.31211984873E+02 -0.19959376782E+03  0.21552718406E+03  0.00000000000E+00 0. -1.
<scales pt_clust_5="13000.00000" pt_clust_6="13000.00000" pt_clust_7="13000.00000" pt_clust_8="13000.00000" pt_clust_9="113.17222" pt_clust_10="13000.00000"></scales>
<clustering>
<clus scale="   89.899">  7  8 -1 -1</clus>
<clus scale="   81.328">  7 10 -1 -1</clus>
<clus scale="   92.567">  5  6 -1 -1</clus>
<clus scale="  113.172">  1  9  2 -1</clus>
<clus scale="  117.538">  2  5  1 -1</clus>
<clus scale="  113.172">  1  5  2 -1</clus>
</clustering>
</event>
<event>
10    2  0.5921424E-006  0.2233657E+03  0.7546771E-02  0.1138130E+00
         -1   -1    0    0    0  501 -0.00000000000E+00  0.00000000000E+00  0.23207509166E+03  0.23207509166E+03  0.00000000000E+00 0.  1.
         21   -1    0    0  503  502  0.00000000000E+00 -0.00000000000E+00 -0.22690661248E+03  0.22690661248E+03  0.00000000000E+00 0.  1.
         23    2    1    2    0    0 -0.31106055894E+02  0.15757303552E+03  0.28773915566E+02  0.18763161566E+03  0.92632805961E+02 0.  0.
         23    2    1    2    0    0  0.58330207346E+02 -0.54566816559E+02  0.16753535726E+02  0.12134897344E+03  0.89805021222E+02 0.  0.
        -11    1    4    4    0    0  0.76290203818E+01 -0.56573042497E+02  0.35537294951E+02  0.67242920979E+02  0.00000000000E+00 0. -1.
         11    1    4    4    0    0  0.50701186964E+02  0.20062259380E+01 -0.18783759226E+02  0.54106052459E+02  0.00000000000E+00 0.  1.
        -13    1    3    3    0    0 -0.58639721768E+02  0.10758120923E+03 -0.25035333959E+01  0.12255040281E+03  0.00000000000E+00 0.  1.
         13    1    3    3    0    0  0.27533665875E+02  0.49991826289E+02  0.31277448962E+02  0.65081212848E+02  0.00000000000E+00 0. -1.
         21    1    1    2  503  501 -0.33156085505E+02  0.41490454919E+01 -0.24683674761E+02  0.41543042549E+02  0.00000000000E+00 0. -1.
         -1    1    1    2    0  502  0.59319340532E+01 -0.10715526446E+03 -0.15675297350E+02  0.10845807249E+03  0.00000000000E+00 0.  1.
<scales pt_clust_5="13000.00000" pt_clust_6="13000.00000" pt_clust_7="13000.00000" pt_clust_8="13000.00000" pt_clust_9="33.41468" pt_clust_10="13000.00000"></scales>
<clustering>
<clus scale="   33.415">  2  9  1 -1</clus>
<clus scale="   89.805">  5  6 -1 -1</clus>
<clus scale="   92.633">  7  8 -1 -1</clus>
<clus scale="  105.930">  5 10 -1 -1</clus>
<clus scale="  189.596">  1  7  2 -1</clus>
<clus scale="   33.415">  2  5  1 -1</clus>
</clustering>
</event>
<event>
10    2  0.5921424E-006  0.1493153E+03  0.7546771E-02  0.1215426E+00
         -1   -1    0    0    0  501 -0.00000000000E+00  0.00000000000E+00  0.32544932245E+03  0.32544932245E+03  0.00000000000E+00 0.  1.
         21   -1    0    0  501  502  0.00000000000E+00 -0.00000000000E+00 -0.21447865249E+03  0.21447865249E+03  0.00000000000E+00 0. -1.
         23    2    1    2    0    0  0.58989595707E+02  0.33141836942E+02  0.14475274296E+03  0.18523088248E+03  0.93696155059E+02 0.  0.
         23    2    1    2    0    0  0.13494422730E+02  0.96299136923E+00  0.99428074116E+02  0.12292089653E+03  0.70997028700E+02 0.  0.
        -11    1    4    4    0    0  0.11421859792E+02  0.32778718539E+02  0.27642882617E+02  0.44373778626E+02  0.00000000000E+00 0. -1.
         11    1    4    4    0    0  0.20725629379E+01 -0.31815727170E+02  0.71785191499E+02  0.78547117904E+02  0.00000000000E+00 0.  1.
        -11    1    3    3    0    0  0.71632762163E+02  0.92816113644E+01  0.14038406498E+03  0.15787680838E+03  0.00000000000E+00 0.  1.
         11    1    3    3    0    0 -0.12643166455E+02  0.23860225578E+02  0.43686779820E+01  0.27354074101E+02  0.00000000000E+00 0. -1.
         21    1    1    2  503  502 -0.86605365984E+01 -0.42900434396E+02 -0.15708509914E+03  0.16306802426E+03  0.00000000000E+00 0. -1.
         -1    1    1    2    0  503 -0.63823481839E+02  0.87956060844E+01  0.23874952016E+02  0.68708171669E+02  0.00000000000E+00 0.  1.
<scales pt_clust_5="13000.00000" pt_clust_6="13000.00000" pt_clust_7="13000.00000" pt_clust_8="13000.00000" pt_clust_9="43.76588" pt_clust_10="13000.00000"></scales>
<clustering>
<clus scale="   43.766">  2  9  1 -1</clus>
<clus scale="   70.997">  5  6 -1 -1</clus>
<clus scale="   67.975">  5 10 -1 -1</clus>
<clus scale="   93.696">  7  8 -1 -1</clus>
<clus scale="  110.382">  1  7  2 -1</clus>
<clus scale="   43.766">  2  5  1 -1</clus>
</clustering>
</event>
<event>
10    2  0.5921424E-006  0.2379974E+03  0.7546771E-02  0.1163218E+00
          4   -1    0    0  502    0 -0.00000000000E+00  0.00000000000E+00  0.11574807327E+03  0.11574807327E+03  0.00000000000E+00 0. -1.
         21   -1    0    0  503  502  0.00000000000E+00 -0.00000000000E+00 -0.61884280288E+03  0.61884280288E+03  0.00000000000E+00 0. -1.
         23    2    1    2    0    0 -0.30188575252E+02  0.23937033990E+02  0.53039975751E+02  0.10182039794E+03  0.77909067105E+02 0.  0.
         23    2    1    2    0    0  0.33278345684E+02 -0.33063762456E+02 -0.36417358418E+03  0.37786907527E+03  0.89229916258E+02 0.  0.
        -11    1    3    3    0    0 -0.12841073462E+01 -0.27036208977E+02  0.25053821161E+02  0.36882238032E+02  0.00000000000E+00 0.  1.
         11    1    3    3    0    0 -0.28904467906E+02  0.50973242967E+02  0.27986154591E+02  0.64938159909E+02  0.00000000000E+00 0. -1.
        -11    1    4    4    0    0 -0.20682145165E+02  0.17168797385E+02 -0.86923906691E+02  0.90985077275E+02  0.00000000000E+00 0.  1.
         11    1    4    4    0    0  0.53960490849E+02 -0.50232559842E+02 -0.27724967748E+03  0.28688399800E+03  0.00000000000E+00 0. -1.
         21    1    1    2  503  501 -0.94538881932E+01 -0.35763973080E+02 -0.20453281123E+03  0.20785116945E+03  0.00000000000E+00 0.  1.
          4    1    1    2  501    0  0.63641177616E+01  0.44890701547E+02  0.12571690042E+02  0.47050233482E+02  0.00000000000E+00 0. -1.
<scales pt_clust_5="13000.00000" pt_clust_6="13000.00000" pt_clust_7="13000.00000" pt_clust_8="13000.00000" pt_clust_9="36.99240" pt_clust_10="13000.00000"></scales>
<clustering>
<clus scale="   36.992">  2  9  1 -1</clus>
<clus scale="   77.909">  5  6 -1 -1</clus>
<clus scale="   86.553">  1  5  2 -1</clus>
<clus scale="   89.230">  7  8 -1 -1</clus>
<clus scale="   61.375">  7 10 -1 -1</clus>
<clus scale="   36.992">  2  5  1 -1</clus>
</clustering>
</event>
<event>
10    2  0.5921424E-006  0.3688307E+03  0.7546771E-02  0.1104571E+00
         21   -1    0    0  501  502  0.00000000000E+00  0.00000000000E+00  0.49249182405E+03  0.49249182405E+03  0.00000000000E+00 0.  1.
         -2   -1    0    0    0  501 -0.00000000000E+00 -0.00000000000E+00 -0.17456026353E+03  0.17456026353E+03  0.00000000000E+00 0.  1.
         23    2    1    2    0    0  0.22662190386E+02  0.40183960059E+02 -0.24038389980E+02  0.10144188437E+03  0.87087807371E+02 0.  0.
         23    2    1    2    0    0  0.12263771626E+03 -0.99235437707E+02  0.71066661863E+01  0.18798725259E+03  0.10198539544E+03 0.  0.
        -13    1    3    3    0    0  0.43524136281E+02 -0.88309329377E+01 -0.42443973081E+01  0.44613346928E+02  0.00000000000E+00 0.  1.
         13    1    3    3    0    0 -0.20861945895E+02  0.49014892997E+02 -0.19793992671E+02  0.56828537443E+02  0.00000000000E+00 0. -1.
        -13    1    4    4    0    0  0.10681522505E+03 -0.39552549648E+02  0.36493176070E+02  0.11960622219E+03  0.00000000000E+00 0.  1.
         13    1    4    4    0    0  0.15822491212E+02 -0.59682888059E+02 -0.29386509884E+02  0.68381030399E+02  0.00000000000E+00 0. -1.
         21    1    1    2  503  502 -0.38589110945E+02 -0.80629878702E+01  0.14075868930E+03  0.14617503162E+03  0.00000000000E+00 0. -1.
         -2    1    1    2    0  503 -0.10671079570E+03  0.67114465518E+02  0.19410459502E+03  0.23144791900E+03  0.00000000000E+00 0.  1.
<scales pt_clust_5="13000.00000" pt_clust_6="13000.00000" pt_clust_7="13000.00000" pt_clust_8="13000.00000" pt_clust_9="39.42247" pt_clust_10="13000.00000"></scales>
<clustering>
<clus scale="   39.422">  1  9  2 -1</clus>
<clus scale="   87.088">  5  6 -1 -1</clus>
<clus scale="   97.293">  2  5  1 -1</clus>
<clus scale="  101.985">  7  8 -1 -1</clus>
<clus scale="  144.775">  7 10 -1 -1</clus>
<clus scale="   39.422">  1  5  2 -1</clus>
</clustering>
</event>
<event>
10    2  0.5921424E-006  0.2539883E+03  0.7546771E-02  0.1148118E+00
         21   -1    0    0  503  502  0.00000000000E+00  0.00000000000E+00  0.76186257792E+03  0.76186257792E+03  0.00000000000E+00 0. -1.
         -4   -1    0    0    0  501 -0.00000000000E+00 -0.00000000000E+00 -0.57030186380E+02  0.57030186380E+02  0.00000000000E+00 0.  1.
         23    2    1    2    0    0  0.39258961530E+02 -0.26158933280E+02  0.10634103238E+03  0.14813312749E+03  0.91703066701E+02 0.  0.
         23    2    1    2    0    0  0.10152518553E+03  0.17192599702E+02  0.35007163554E+03  0.37627720452E+03  0.91822850389E+02 0.  0.
        -11    1    3    3    0    0  0.61695025022E+02 -0.36572986911E+02  0.52501498858E+02  0.88883445401E+02  0.00000000000E+00 0. -1.
         11    1    3    3    0    0 -0.22436063492E+02  0.10414053631E+02  0.53839533523E+02  0.59249682092E+02  0.00000000000E+00 0.  1.
        -11    1    4    4    0    0  0.46485479438E+02  0.19097545587E+02  0.48929495617E+02  0.70140655738E+02  0.00000000000E+00 0.  1.
         11    1    4    4    0    0  0.55039706092E+02 -0.19049458853E+01  0.30114213992E+03  0.30613654878E+03  0.00000000000E+00 0. -1.
         21    1    1    2  503  501 -0.40925538923E+02 -0.21217262636E+02  0.12295865822E+03  0.13131604472E+03  0.00000000000E+00 0. -1.
         -4    1    1    2    0  502 -0.99858608137E+02  0.30183596214E+02  0.12546106541E+03  0.16316638757E+03  0.00000000000E+00 0.  1.
<scales pt_clust_5="13000.00000" pt_clust_6="13000.00000" pt_clust_7="13000.00000" pt_clust_8="13000.00000" pt_clust_9="46.09850" pt_clust_10="13000.00000"></scales>
<clustering>
<clus scale="   46.099">  1  9  2 -1</clus>
<clus scale="   91.703">  5  6 -1 -1</clus>
<clus scale="   91.823">  7  8 -1 -1</clus>
<clus scale="  101.483">  2  5  1 -1</clus>
<clus scale="   89.793">  7 10 -1 -1</clus>
<clus scale="   46.099">  1  5  2 -1</clus>
</clustering>
</event>
<event>
10    2  0.5921424E-006  0.2508885E+03  0.7546771E-02  0.1139869E+00
         21   -1    0    0  501  502  0.00000000000E+00  0.00000000000E+00  0.19688086514E+03  0.19688086514E+03  0.00000000000E+00 0.  1.
          2   -1    0    0  503    0 -0.00000000000E+00 -0.00000000000E+00 -0.58552094319E+03  0.58552094319E+03  0.00000000000E+00 0. -1.
         23    2    1    2    0    0 -0.92021817275E+02  0.18596185500E+02 -0.44354458864E+03  0.46245655250E+03  0.91216379347E+02 0.  0.
         23    2    1    2    0    0  0.80716446669E+02 -0.83016575558E+02  0.78614693229E+02  0.17141282994E+03  0.98970660783E+02 0.  0.
        -13    1    4    4    0    0  0.53514158828E+02  0.26199469602E+01  0.58515661183E+02  0.79339220571E+02  0.00000000000E+00 0.  1.
         13    1    4    4    0    0  0.27202287841E+02 -0.85636522518E+02  0.20099032046E+02  0.92073609368E+02  0.00000000000E+00 0. -1.
        -13    1    3    3    0    0 -0.29347744997E+02 -0.12645046907E+02 -0.32830804739E+02  0.45815380469E+02  0.00000000000E+00 0.  1.
         13    1    3    3    0    0 -0.62674072278E+02  0.31241232407E+02 -0.41071378390E+03  0.41664117203E+03  0.00000000000E+00 0. -1.
         21    1    1    2  503  502  0.69758055170E+02  0.18167445920E+02 -0.11115115551E+02  0.72936877819E+02  0.00000000000E+00 0.  1.
          2    1    1    2  501    0 -0.58452684564E+02  0.46252944138E+02 -0.12595067089E+02  0.75595548078E+02  0.00000000000E+00 0. -1.
<scales pt_clust_5="13000.00000" pt_clust_6="13000.00000" pt_clust_7="13000.00000" pt_clust_8="13000.00000" pt_clust_9="72.08497" pt_clust_10="13000.00000"></scales>
<clustering>
<clus scale="   72.085">  1  9  2 -1</clus>
<clus scale="   91.216">  7  8 -1 -1</clus>
<clus scale="   98.971">  5  6 -1 -1</clus>
<clus scale="   67.189">  5 10 -1 -1</clus>
<clus scale="  128.289">  2  7  1 -1</clus>
<clus scale="   72.085">  1  5  2 -1</clus>
</clustering>
</event>
<event>
10    2  0.5921424E-006  0.2399842E+03  0.7546771E-02  0.1133814E+00
         21   -1    0    0  501  502  0.00000000000E+00  0.00000000000E+00  0.11553685753E+03  0.11553685753E+03  0.00000000000E+00 0. -1.
          2   -1    0    0  503    0 -0.00000000000E+00 -0.00000000000E+00 -0.71962819346E+03  0.71962819346E+03  0.00000000000E+00 0. -1.
         23    2    1    2    0    0  0.54493258855E+02 -0.96011162776E+02 -0.17919063692E+03  0.22915928861E+03  0.90647871225E+02 0.  0.
         23    2    1    2    0    0 -0.51765103362E+02  0.90746765046E+02 -0.14267331698E+03  0.21505893488E+03  0.12239309131E+03 0.  0.
        -11    1    3    3    0    0 -0.15048724234E+02 -0.53356295634E+02 -0.10570777251E+03  0.11936285668E+03  0.00000000000E+00 0.  1.
         11    1    3    3    0    0  0.69541983090E+02 -0.42654867142E+02 -0.73482864403E+02  0.10979643193E+03  0.00000000000E+00 0. -1.
        -13    1    4    4    0    0 -0.58163879780E+02  0.49653934414E+02 -0.15401087405E+03  0.17195318968E+03  0.00000000000E+00 0.  1.
         13    1    4    4    0    0  0.63987764173E+01  0.41092830632E+02  0.11337557075E+02  0.43105745202E+02  0.00000000000E+00 0. -1.
         21    1    1    2  503  502  0.11960568114E+03 -0.53658920696E+02 -0.10667746221E+03  0.16901147794E+03  0.00000000000E+00 0. -1.
          2    1    1    2  501    0 -0.12233383663E+03  0.58923318426E+02 -0.17554991983E+03  0.22193534957E+03  0.00000000000E+00 0. -1.
<scales pt_clust_5="13000.00000" pt_clust_6="13000.00000" pt_clust_7="13000.00000" pt_clust_8="13000.00000" pt_clust_9="131.09080" pt_clust_10="13000.00000"></scales>
<clustering>
<clus scale="   90.648">  5  6 -1 -1</clus>
<clus scale="  122.393">  7  8 -1 -1</clus>
<clus scale="  131.091">  1  9  2 -1</clus>
<clus scale="   99.767">  7 10 -1 -1</clus>
<clus scale="  169.774">  2  5  1 -1</clus>
<clus scale="  131.091">  1  5  2 -1</clus>
</clustering>
</event>
<event>
10    2  0.5921424E-006  0.2609393E+03  0.7546771E-02  0.1134530E+00
          1   -1    0    0  503    0 -0.00000000000E+00  0.00000000000E+00  0.60492717417E+03  0.60492717417E+03  0.00000000000E+00 0. -1.
         21   -1    0    0  501  502  0.00000000000E+00 -0.00000000000E+00 -0.14739647462E+03  0.14739647462E+03  0.00000000000E+00 0. -1.
         23    2    1    2    0    0 -0.88784656316E+02  0.22986560867E+02  0.40576137785E+03  0.42706048033E+03  0.96577745480E+02 0.  0.
         23    2    1    2    0    0  0.13613988946E+02  0.69415729543E+00  0.15292922891E+03  0.17828382264E+03  0.90619809157E+02 0.  0.
        -11    1    3    3    0    0  0.51310564082E+01  0.33907058871E+02  0.65850266948E+02  0.74244690303E+02  0.00000000000E+00 0.  1.
         11    1    3    3    0    0 -0.93915712724E+02 -0.10920498003E+02  0.33991111091E+03  0.35281579002E+03  0.00000000000E+00 0. -1.
        -13    1    4    4    0    0 -0.70434870214E+01  0.42825667627E+02  0.58531446829E+02  0.72866856561E+02  0.00000000000E+00 0. -1.
         13    1    4    4    0    0  0.20657475967E+02 -0.42131510331E+02  0.94397782079E+02  0.10541696608E+03  0.00000000000E+00 0.  1.
         21    1    1    2  503  502  0.40496658470E+02 -0.39792963854E+02 -0.25566160570E+02  0.62266266034E+02  0.00000000000E+00 0. -1.
          1    1    1    2  501    0  0.34674008900E+02  0.16112245692E+02 -0.75593746650E+02  0.84713079787E+02  0.00000000000E+00 0. -1.
<scales pt_clust_5="13000.00000" pt_clust_6="13000.00000" pt_clust_7="13000.00000" pt_clust_8="13000.00000" pt_clust_9="56.77552" pt_clust_10="13000.00000"></scales>
<clustering>
<clus scale="   56.776">  2  9  1 -1</clus>
<clus scale="   90.620">  7  8 -1 -1</clus>
<clus scale="   67.660">  7 10 -1 -1</clus>
<clus scale="   96.578">  5  6 -1 -1</clus>
<clus scale="  129.785">  1  5  2 -1</clus>
<clus scale="   56.776">  2  5  1 -1</clus>
</clustering>
</event>
<event>
10    2  0.5921424E-006  0.1409281E+03  0.7546771E-02  0.1228277E+00
         -1   -1    0    0    0  501 -0.00000000000E+00  0.00000000000E+00  0.91155183061E+02  0.91155183061E+02  0.00000000000E+00 0.  1.
         21   -1    0    0  503  502  0.00000000000E+00 -0.00000000000E+00 -0.55843871183E+03  0.55843871183E+03  0.00000000000E+00 0.  1.
         23    2    1    2    0    0 -0.67456239857E+02 -0.78505791642E+02 -0.93547099279E+02  0.15890492787E+03  0.76067159147E+02 0.  0.
         23    2    1    2    0    0  0.63128379318E+02 -0.51557614882E+01 -0.33800961978E+02  0.11327680437E+03  0.87620518289E+02 0.  0.
        -11    1    4    4    0    0  0.48480419719E+02  0.32489122050E+02  0.32681210880E+01  0.58451473576E+02  0.00000000000E+00 0. -1.
         11    1    4    4    0    0  0.14647959599E+02 -0.37644883539E+02 -0.37069083066E+02  0.54825330792E+02  0.00000000000E+00 0.  1.
        -11    1    3    3    0    0 -0.28704317289E+02  0.99329537164E+01 -0.33406176775E+02  0.45150570841E+02  0.00000000000E+00 0. -1.
         11    1    3    3    0    0 -0.38751922568E+02 -0.88438745358E+02 -0.60140922504E+02  0.11375435703E+03  0.00000000000E+00 0.  1.
         21    1    1    2  503  501  0.21120437444E+02  0.69945059682E+02 -0.34699921673E+03  0.35460800986E+03  0.00000000000E+00 0.  1.
         -1    1    1    2    0  502 -0.16792576905E+02  0.13716493448E+02  0.70637492124E+01  0.22804152792E+02  0.00000000000E+00 0.  1.
<scales pt_clust_5="13000.00000" pt_clust_6="13000.00000" pt_clust_7="13000.00000" pt_clust_8="13000.00000" pt_clust_9="73.06425" pt_clust_10="13000.00000"></scales>
<clustering>
<clus scale="   73.064">  2  9  1 -1</clus>
<clus scale="   76.067">  7  8 -1 -1</clus>
<clus scale="   87.621">  5  6 -1 -1</clus>
<clus scale="   22.883">  5 10 -1 -1</clus>
<clus scale="  100.320">  1  7  2 -1</clus>
<clus scale="   73.064">  2  5  1 -1</clus>
</clustering>
</event>
<event>
10    2  0.6820391E-006  0.1789339E+03  0.7546771E-02  0.1193996E+00
          1   -1    0    0  503    0 -0.00000000000E+00  0.00000000000E+00  0.76614618051E+03  0.76614618051E+03  0.00000000000E+00 0. -1.
         21   -1    0    0  501  502  0.00000000000E+00 -0.00000000000E+00 -0.30043151920E+03  0.30043151920E+03  0.00000000000E+00 0. -1.
         23    2    1    2    0    0  0.51410525713E+02  0.11130644572E+02  0.50746242281E+03  0.51821027499E+03  0.90867184094E+02 0.  0.
         23    2    1    2    0    0  0.20110749573E+01  0.10959733313E+01  0.23347612315E+03  0.25017692376E+03  0.89845130750E+02 0.  0.
        -11    1    4    4    0    0 -0.50964571039E+00 -0.43594571596E+02  0.92381212644E+02  0.10215201839E+03  0.00000000000E+00 0.  1.
         11    1    4    4    0    0  0.25207206677E+01  0.44690544927E+02  0.14109491051E+03  0.14802490537E+03  0.00000000000E+00 0. -1.
        -13    1    3    3    0    0 -0.25916427598E+02 -0.14304587307E+01  0.10213320558E+03  0.10537978513E+03  0.00000000000E+00 0.  1.
         13    1    3    3    0    0  0.77326953311E+02  0.12561103303E+02  0.40532921723E+03  0.41283048987E+03  0.00000000000E+00 0. -1.
         21    1    1    2  503  502 -0.39584307793E+02 -0.36469212507E+02 -0.26169220792E+03  0.26716985715E+03  0.00000000000E+00 0. -1.
          1    1    1    2  501    0 -0.13837292877E+02  0.24242594603E+02 -0.13531676728E+02  0.31020643809E+02  0.00000000000E+00 0. -1.
<scales pt_clust_5="13000.00000" pt_clust_6="13000.00000" pt_clust_7="13000.00000" pt_clust_8="13000.00000" pt_clust_9="53.82305" pt_clust_10="13000.00000"></scales>
<clustering>
<clus scale="   53.823">  2  9  1 -1</clus>
<clus scale="   89.845">  5  6 -1 -1</clus>
<clus scale="   38.368">  5 10 -1 -1</clus>
<clus scale="   90.867">  7  8 -1 -1</clus>
<clus scale="  101.782">  1  7  2 -1</clus>
<clus scale="   53.823">  2  5  1 -1</clus>
</clustering>
</event>
<event>
10    2  0.5921424E-006  0.1276020E+03  0.7546771E-02  0.1244476E+00
         21   -1    0    0  501  502  0.00000000000E+00  0.00000000000E+00  0.15916544348E+03  0.15916544348E+03  0.00000000000E+00 0.  1.
          1   -1    0    0  503    0 -0.00000000000E+00 -0.00000000000E+00 -0.28000234625E+03  0.28000234625E+03  0.00000000000E+00 0. -1.
         23    2    1    2    0    0  0.22168609391E+02 -0.32332662832E+02 -0.16394138287E+03  0.19231056776E+03  0.92572831477E+02 0.  0.
         23    2    1    2    0    0 -0.20996796881E+02 -0.54033708717E+01 -0.99394674577E+01  0.94298311710E+02  0.91232212962E+02 0.  0.
        -11    1    4    4    0    0  0.17793283861E+02 -0.34139203464E+02 -0.22268482498E+02  0.44474391244E+02  0.00000000000E+00 0. -1.
         11    1    4    4    0    0 -0.38790080742E+02  0.28735832592E+02  0.12329015040E+02  0.49823920466E+02  0.00000000000E+00 0.  1.
        -13    1    3    3    0    0  0.58675887863E+02 -0.19818727865E+02 -0.99942475610E+02  0.11757610396E+03  0.00000000000E+00 0. -1.
         13    1    3    3    0    0 -0.36507278472E+02 -0.12513934967E+02 -0.63998907257E+02  0.74734463803E+02  0.00000000000E+00 0.  1.
         21    1    1    2  503  502  0.30854512283E+01  0.59664356782E+02  0.90798606650E+02  0.10869104125E+03  0.00000000000E+00 0.  1.
          1    1    1    2  501    0 -0.42572637389E+01 -0.21928323078E+02 -0.37754659097E+02  0.43867869005E+02  0.00000000000E+00 0. -1.
<scales pt_clust_5="13000.00000" pt_clust_6="13000.00000" pt_clust_7="13000.00000" pt_clust_8="13000.00000" pt_clust_9="59.74408" pt_clust_10="13000.00000"></scales>
<clustering>
<clus scale="   59.744">  1  9  2 -1</clus>
<clus scale="   91.232">  5  6 -1 -1</clus>
<clus scale="   19.299">  5 10 -1 -1</clus>
<clus scale="   92.573">  7  8 -1 -1</clus>
<clus scale="   97.065">  2  7  1 -1</clus>
<clus scale="   59.744">  1  5  2 -1</clus>
</clustering>
</event>
<event>
10    2  0.5921424E-006  0.2433805E+03  0.7546771E-02  0.1156736E+00
         -1   -1    0    0    0  501 -0.00000000000E+00  0.00000000000E+00  0.41382868695E+03  0.41382868695E+03  0.00000000000E+00 0.  1.
         21   -1    0    0  503  502  0.00000000000E+00 -0.00000000000E+00 -0.13427272804E+03  0.13427272804E+03  0.00000000000E+00 0.  1.
         23    2    1    2    0    0 -0.62133708355E+01  0.54583414289E+02  0.12964188049E+03  0.16180105457E+03  0.79715801374E+02 0.  0.
         23    2    1    2    0    0  0.20194645432E+02 -0.64092971080E+02  0.24572625196E+03  0.26926405476E+03  0.87212428243E+02 0.  0.
        -13    1    4    4    0    0 -0.83922900860E+01 -0.46253340500E+02  0.22465739079E+03  0.22952286439E+03  0.00000000000E+00 0.  1.
         13    1    4    4    0    0  0.28586935518E+02 -0.17839630580E+02  0.21068861170E+02  0.39741190377E+02  0.00000000000E+00 0. -1.
        -13    1    3    3    0    0 -0.26894313424E+02  0.44600517715E+01  0.76700762014E+01  0.28320067537E+02  0.00000000000E+00 0. -1.
         13    1    3    3    0    0  0.20680942589E+02  0.50123362518E+02  0.12197180429E+03  0.13348098703E+03  0.00000000000E+00 0.  1.
         21    1    1    2  503  501 -0.17944191593E+02 -0.24817014451E+02 -0.59449660054E+02  0.66874062974E+02  0.00000000000E+00 0.  1.
         -1    1    1    2    0  502  0.39629169964E+01  0.34326571241E+02 -0.36362513490E+02  0.50162242689E+02  0.00000000000E+00 0.  1.
<scales pt_clust_5="13000.00000" pt_clust_6="13000.00000" pt_clust_7="13000.00000" pt_clust_8="13000.00000" pt_clust_9="30.62480" pt_clust_10="13000.00000"></scales>
<clustering>
<clus scale="   30.625">  2  9  1 -1</clus>
<clus scale="   79.716">  7  8 -1 -1</clus>
<clus scale="   87.212">  5  6 -1 -1</clus>
<clus scale="   20.447">  5 10 -1 -1</clus>
<clus scale="   94.119">  1  7  2 -1</clus>
<clus scale="   30.625">  2  5  1 -1</clus>
</clustering>
</event>
<event>
10    2  0.5921424E-006  0.3342213E+03  0.7546771E-02  0.1118031E+00
          1   -1    0    0  503    0 -0.00000000000E+00  0.00000000000E+00  0.53810959631E+03  0.53810959631E+03  0.00000000000E+00 0. -1.
         21   -1    0    0  501  502  0.00000000000E+00 -0.00000000000E+00 -0.38589844918E+03  0.38589844918E+03  0.00000000000E+00 0. -1.
         23    2    1    2    0    0 -0.19356167431E+01 -0.18999528843E+02  0.76624621654E+02  0.12040613629E+03  0.90893213736E+02 0.  0.
         23    2    1    2    0    0  0.50823612827E+02  0.20585464612E+03  0.36367893639E+03  0.43097212915E+03  0.92279100443E+02 0.  0.
        -11    1    4    4    0    0 -0.21057720076E+02  0.32998295001E+02  0.34000436318E+02  0.51849249923E+02  0.00000000000E+00 0.  1.
         11    1    4    4    0    0  0.71881332902E+02  0.17285635112E+03  0.32967850008E+03  0.37912287923E+03  0.00000000000E+00 0. -1.
        -13    1    3    3    0    0 -0.41998242059E+02  0.10052955956E+02  0.31726831644E+02  0.53586435837E+02  0.00000000000E+00 0.  1.
         13    1    3    3    0    0  0.40062625316E+02 -0.29052484800E+02  0.44897790009E+02  0.66819700448E+02  0.00000000000E+00 0. -1.
         21    1    1    2  503  502 -0.16837547309E+01 -0.17821434979E+03 -0.26504601324E+03  0.31939408046E+03  0.00000000000E+00 0. -1.
          1    1    1    2  501    0 -0.47204241353E+02 -0.86407674858E+01 -0.23046397684E+02  0.53235699588E+02  0.00000000000E+00 0. -1.
<scales pt_clust_5="13000.00000" pt_clust_6="13000.00000" pt_clust_7="13000.00000" pt_clust_8="13000.00000" pt_clust_9="179.39789" pt_clust_10="13000.00000"></scales>
<clustering>
<clus scale="   90.893">  7  8 -1 -1</clus>
<clus scale="   92.279">  5  6 -1 -1</clus>
<clus scale="   47.989">  5 10 -1 -1</clus>
<clus scale="   92.878">  1  7  2 -1</clus>
<clus scale="  179.398">  2  9  1 -1</clus>
<clus scale="  179.398">  2  5  1 -1</clus>
</clustering>
</event>
<event>
10    2  0.5921424E-006  0.1943566E+03  0.7546771E-02  0.1184065E+00
         21   -1    0    0  501  502  0.00000000000E+00  0.00000000000E+00  0.54074046700E+02  0.54074046700E+02  0.00000000000E+00 0.  1.
          1   -1    0    0  503    0 -0.00000000000E+00 -0.00000000000E+00 -0.79510094563E+03  0.79510094563E+03  0.00000000000E+00 0. -1.
         23    2    1    2    0    0 -0.61236770759E+01 -0.21520345361E+02 -0.25555873714E+03  0.27195444660E+03  0.90268090784E+02 0.  0.
         23    2    1    2    0    0  0.43339150272E+02 -0.30219171366E+01 -0.32429924246E+03  0.34568176525E+03  0.11152788994E+03 0.  0.
        -11    1    3    3    0    0 -0.13646625542E+01  0.25260865709E+02 -0.21442315282E+02  0.33162426402E+02  0.00000000000E+00 0.  1.
         11    1    3    3    0    0 -0.47590145218E+01 -0.46781211070E+02 -0.23411642185E+03  0.23879202020E+03  0.00000000000E+00 0. -1.
        -11    1    4    4    0    0  0.11804803583E+02  0.43206841330E+02 -0.56509907506E+02  0.72107934179E+02  0.00000000000E+00 0.  1.
         11    1    4    4    0    0  0.31534346689E+02 -0.46228758466E+02 -0.26778933496E+03  0.27357383107E+03  0.00000000000E+00 0. -1.
         21    1    1    2  503  502 -0.56388776166E+02 -0.56749133969E+02 -0.58075384764E+02  0.98858022433E+02  0.00000000000E+00 0.  1.
          1    1    1    2  501    0  0.19173302970E+02  0.81291396467E+02 -0.10309353457E+03  0.13268075805E+03  0.00000000000E+00 0. -1.
<scales pt_clust_5="13000.00000" pt_clust_6="13000.00000" pt_clust_7="13000.00000" pt_clust_8="13000.00000" pt_clust_9="80.00099" pt_clust_10="13000.00000"></scales>
<clustering>
<clus scale="   80.001">  1  9  2 -1</clus>
<clus scale="   90.268">  5  6 -1 -1</clus>
<clus scale="   98.948">  2  5  1 -1</clus>
<clus scale="  111.528">  7  8 -1 -1</clus>
<clus scale="   49.543">  7 10 -1 -1</clus>
<clus scale="   80.001">  1  5  2 -1</clus>
</clustering>
</event>
<event>
10    2  0.5921424E-006  0.1720659E+03  0.7546771E-02  0.1202332E+00
         21   -1    0    0  503  502  0.00000000000E+00  0.00000000000E+00  0.15093195245E+03  0.15093195245E+03  0.00000000000E+00 0. -1.
          2   -1    0    0  502    0 -0.00000000000E+00 -0.00000000000E+00 -0.42444794004E+03  0.42444794004E+03  0.00000000000E+00 0. -1.
         23    2    1    2    0    0 -0.30994992747E+02 -0.13005207067E+02 -0.35434496785E+03  0.36705800605E+03  0.89673845567E+02 0.  0.
         23    2    1    2    0    0 -0.31637223279E+02  0.46163151941E+02  0.74240019349E+02  0.12651309702E+03  0.85802288731E+02 0.  0.
        -11    1    3    3    0    0  0.22177741336E+02 -0.20412487241E+02 -0.53028904041E+02  0.60996610643E+02  0.00000000000E+00 0.  1.
         11    1    3    3    0    0 -0.53172734083E+02  0.74072801741E+01 -0.30131606381E+03  0.30606139541E+03  0.00000000000E+00 0. -1.
        -13    1    4    4    0    0  0.27281685198E+02  0.15713416184E+02  0.73767419647E+01  0.32336018886E+02  0.00000000000E+00 0.  1.
         13    1    4    4    0    0 -0.58918908477E+02  0.30449735757E+02  0.66863277384E+02  0.94177078137E+02  0.00000000000E+00 0. -1.
         21    1    1    2  503  501  0.18177752662E+02  0.88215680498E+01 -0.79869772629E+00  0.20220995840E+02  0.00000000000E+00 0. -1.
          2    1    1    2  501    0  0.44454463365E+02 -0.41979512923E+02  0.73876586388E+01  0.61587793583E+02  0.00000000000E+00 0. -1.
<scales pt_clust_5="13000.00000" pt_clust_6="13000.00000" pt_clust_7="13000.00000" pt_clust_8="13000.00000" pt_clust_9="20.20522" pt_clust_10="13000.00000"></scales>
<clustering>
<clus scale="   20.205">  1  9  2 -1</clus>
<clus scale="   85.802">  7  8 -1 -1</clus>
<clus scale="   63.061">  7 10 -1 -1</clus>
<clus scale="   89.674">  5  6 -1 -1</clus>
<clus scale="   95.452">  2  5  1 -1</clus>
<clus scale="   20.205">  1  5  2 -1</clus>
</clustering>
</event>
<event>
10    2  0.5921424E-006  0.2508901E+03  0.7546771E-02  0.1127232E+00
         21   -1    0    0  503  502  0.00000000000E+00  0.00000000000E+00  0.22874392422E+03  0.22874392422E+03  0.00000000000E+00 0. -1.
          2   -1    0    0  502    0 -0.00000000000E+00 -0.00000000000E+00 -0.92086903083E+03  0.92086903083E+03  0.00000000000E+00 0. -1.
         23    2    1    2    0    0 -0.93434229903E+02 -0.11965526210E+03 -0.32451367028E+03  0.36851481276E+03  0.86294310105E+02 0.  0.
         23    2    1    2    0    0  0.72215666692E+02 -0.52349149278E+02 -0.42672579162E+03  0.44525756974E+03  0.90575196530E+02 0.  0.
        -11    1    4    4    0    0  0.68630738324E+02 -0.11444990876E+02 -0.36185556311E+03  0.36848421216E+03  0.00000000000E+00 0.  1.
         11    1    4    4    0    0  0.35849283675E+01 -0.40904158403E+02 -0.64870228511E+02  0.76773357573E+02  0.00000000000E+00 0. -1.
        -13    1    3    3    0    0 -0.32904347926E+02 -0.87405189950E+02 -0.25178410684E+03  0.26854720218E+03  0.00000000000E+00 0.  1.
         13    1    3    3    0    0 -0.60529881977E+02 -0.32250072152E+02 -0.72729563442E+02  0.99967610576E+02  0.00000000000E+00 0. -1.
         21    1    1    2  503  501  0.10389885035E+02  0.22176319427E+03  0.12326798707E+03  0.25393278772E+03  0.00000000000E+00 0. -1.
          2    1    1    2  501    0  0.10828678175E+02 -0.49758782888E+02 -0.64153631774E+02  0.81907784828E+02  0.00000000000E+00 0. -1.
<scales pt_clust_5="13000.00000" pt_clust_6="13000.00000" pt_clust_7="13000.00000" pt_clust_8="13000.00000" pt_clust_9="208.15264" pt_clust_10="13000.00000"></scales>
<clustering>
<clus scale="   86.294">  7  8 -1 -1</clus>
<clus scale="   90.575">  5  6 -1 -1</clus>
<clus scale="   50.923">  5 10 -1 -1</clus>
<clus scale="  174.625">  2  7  1 -1</clus>
<clus scale="  208.153">  1  9  2 -1</clus>
<clus scale="  208.153">  1  5  2 -1</clus>
</clustering>
</event>
<event>
10    2  0.5921424E-006  0.1498897E+03  0.7546771E-02  0.1214545E+00
          2   -1    0    0  502    0 -0.00000000000E+00  0.00000000000E+00  0.16431620778E+03  0.16431620778E+03  0.00000000000E+00 0. -1.
         21   -1    0    0  503  502  0.00000000000E+00 -0.00000000000E+00 -0.24509342278E+03  0.24509342278E+03  0.00000000000E+00 0.  1.
         23    2    1    2    0    0  0.44330101544E+02 -0.36269548664E+02  0.50572199612E+02  0.11917815186E+03  0.91461721200E+02 0.  0.
         23    2    1    2    0    0 -0.46894926436E+02  0.65551741460E+01 -0.26837952758E+02  0.10670698364E+03  0.91782352425E+02 0.  0.
        -11    1    3    3    0    0  0.20491626820E+02  0.76379792468E-01 -0.24800113810E+02  0.32170766988E+02  0.00000000000E+00 0.  1.
         11    1    3    3    0    0  0.23838474724E+02 -0.36345928456E+02  0.75372313422E+02  0.87007384877E+02  0.00000000000E+00 0. -1.
        -13    1    4    4    0    0  0.16505969582E+02  0.26740440814E+02 -0.24981643580E+02  0.40144498038E+02  0.00000000000E+00 0.  1.
         13    1    4    4    0    0 -0.63400896018E+02 -0.20185266668E+02 -0.18563091779E+01  0.66562485606E+02  0.00000000000E+00 0. -1.
         21    1    1    2  503  501  0.18640222565E+02 -0.75226955894E+01 -0.13264759122E+03  0.13416196295E+03  0.00000000000E+00 0.  1.
          2    1    1    2  501    0 -0.16075397673E+02  0.37237070107E+02  0.28136129367E+02  0.49362532110E+02  0.00000000000E+00 0. -1.
<scales pt_clust_5="13000.00000" pt_clust_6="13000.00000" pt_clust_7="13000.00000" pt_clust_8="13000.00000" pt_clust_9="20.10097" pt_clust_10="13000.00000"></scales>
<clustering>
<clus scale="   20.101">  2  9  1 -1</clus>
<clus scale="   91.462">  5  6 -1 -1</clus>
<clus scale="   91.782">  7  8 -1 -1</clus>
<clus scale="   39.223">  7 10 -1 -1</clus>
<clus scale="  111.172">  1  5  2 -1</clus>
<clus scale="   20.101">  2  5  1 -1</clus>
</clustering>
</event>
<event>
10    2  0.5921424E-006  0.2883825E+03  0.7546771E-02  0.1102839E+00
         21   -1    0    0  501  502  0.00000000000E+00  0.00000000000E+00  0.14075116287E+03  0.14075116287E+03  0.00000000000E+00 0. -1.
          1   -1    0    0  503    0 -0.00000000000E+00 -0.00000000000E+00 -0.76909431183E+03  0.76909431183E+03  0.00000000000E+00 0. -1.
         23    2    1    2    0    0  0.13375824486E+03  0.15109641787E+03 -0.32046107026E+03  0.38989980018E+03  0.92764007375E+02 0.  0.
         23    2    1    2    0    0 -0.56586417010E+02 -0.85451361778E+01 -0.28240958470E+03  0.30237740719E+03  0.91661774506E+02 0.  0.
        -13    1    4    4    0    0 -0.57834360778E+02 -0.37221392827E+02 -0.24903449438E+03  0.25835716511E+03  0.00000000000E+00 0.  1.
         13    1    4    4    0    0  0.12479437681E+01  0.28676256649E+02 -0.33375090315E+02  0.44020242078E+02  0.00000000000E+00 0. -1.
        -13    1    3    3    0    0 -0.13340289977E+02  0.24714561227E+02 -0.37210202211E+02  0.46619438241E+02  0.00000000000E+00 0.  1.
         13    1    3    3    0    0  0.14709853484E+03  0.12638185664E+03 -0.28325086805E+03  0.34328036193E+03  0.00000000000E+00 0. -1.
         21    1    1    2  503  502  0.84239927157E+01 -0.41888139773E+02  0.49704105849E+02  0.65544473796E+02  0.00000000000E+00 0. -1.
          1    1    1    2  501    0 -0.85595820567E+02 -0.10066314191E+03 -0.75176599854E+02  0.15202379355E+03  0.00000000000E+00 0. -1.
<scales pt_clust_5="13000.00000" pt_clust_6="13000.00000" pt_clust_7="13000.00000" pt_clust_8="13000.00000" pt_clust_9="42.72681" pt_clust_10="13000.00000"></scales>
<clustering>
<clus scale="   42.727">  1  9  2 -1</clus>
<clus scale="   91.662">  5  6 -1 -1</clus>
<clus scale="   92.764">  7  8 -1 -1</clus>
<clus scale="  145.194">  5 10 -1 -1</clus>
<clus scale="  212.836">  2  7  1 -1</clus>
<clus scale="   42.727">  1  5  2 -1</clus>
</clustering>
</event>
<event>
10    2  0.5921424E-006  0.3275381E+03  0.7546771E-02  0.1077991E+00
          2   -1    0    0  502    0 -0.00000000000E+00  0.00000000000E+00  0.14269778212E+04  0.14269778212E+04  0.00000000000E+00 0. -1.
         21   -1    0    0  503  502  0.00000000000E+00 -0.00000000000E+00 -0.19503122063E+03  0.19503122063E+03  0.00000000000E+00 0. -1.
         23    2    1    2    0    0  0.24243642668E+03  0.72339702599E+02  0.97263192979E+03  0.10093719234E+04  0.93863493180E+02 0.  0.
         23    2    1    2    0    0 -0.56569977003E+02 -0.48786544681E+02  0.10715597391E+03  0.16168522762E+03  0.95285995013E+02 0.  0.
        -11    1    4    4    0    0 -0.32326821082E+02  0.13784988728E+02 -0.12813980549E+00  0.35143501466E+02  0.00000000000E+00 0. -1.
         11    1    4    4    0    0 -0.24243155921E+02 -0.62571533408E+02  0.10728411372E+03  0.12654172615E+03  0.00000000000E+00 0.  1.
        -13    1    3    3    0    0  0.20545808229E+03  0.48687963748E+02  0.90058374979E+03  0.92500520635E+03  0.00000000000E+00 0. -1.
         13    1    3    3    0    0  0.36978344387E+02  0.23651738851E+02  0.72048179993E+02  0.84366717043E+02  0.00000000000E+00 0.  1.
         21    1    1    2  503  501  0.56142992741E+02  0.11667196567E+02 -0.90045952673E+02  0.10675407581E+03  0.00000000000E+00 0. -1.
          2    1    1    2  501    0 -0.24200944242E+03 -0.35220354486E+02  0.24220464955E+03  0.34419781501E+03  0.00000000000E+00 0. -1.
<scales pt_clust_5="13000.00000" pt_clust_6="13000.00000" pt_clust_7="13000.00000" pt_clust_8="13000.00000" pt_clust_9="57.34247" pt_clust_10="13000.00000"></scales>
<clustering>
<clus scale="   57.342">  2  9  1 -1</clus>
<clus scale="   93.863">  7  8 -1 -1</clus>
<clus scale="   95.286">  5  6 -1 -1</clus>
<clus scale="  214.360">  5 10 -1 -1</clus>
<clus scale="  280.060">  1  7  2 -1</clus>
<clus scale="   57.342">  2  5  1 -1</clus>
</clustering>
</event>
<event>
10    2  0.5921424E-006  0.2336874E+03  0.7546771E-02  0.1158731E+00
         -3   -1    0    0    0  501 -0.00000000000E+00  0.00000000000E+00  0.56800313022E+03  0.56800313022E+03  0.00000000000E+00 0.  1.
         21   -1    0    0  503  502  0.00000000000E+00 -0.00000000000E+00 -0.69066382986E+02  0.69066382986E+02  0.00000000000E+00 0.  1.
         23    2    1    2    0    0  0.16157088003E+02  0.32512425215E+02  0.27550959522E+03  0.29343188201E+03  0.94226445536E+02 0.  0.
         23    2    1    2    0    0 -0.34129559724E+02  0.37530412208E+02  0.22578802841E+03  0.24914802044E+03  0.92310040775E+02 0.  0.
        -11    1    3    3    0    0 -0.21860600057E+02  0.46145852437E+02  0.89075088029E+02  0.10267276581E+03  0.00000000000E+00 0. -1.
         11    1    3    3    0    0  0.38017688060E+02 -0.13633427222E+02  0.18643450719E+03  0.19075911620E+03  0.00000000000E+00 0.  1.
        -11    1    4    4    0    0 -0.65658550269E+02  0.32194839169E+02  0.14939233942E+03  0.16632986494E+03  0.00000000000E+00 0.  1.
         11    1    4    4    0    0  0.31528990545E+02  0.53355730393E+01  0.76395688991E+02  0.82818155503E+02  0.00000000000E+00 0. -1.
         21    1    1    2  503  501  0.23273896673E+02 -0.21614729974E+01  0.97621305043E+01  0.25330720950E+02  0.00000000000E+00 0. -1.
         -3    1    1    2    0  502 -0.53014249526E+01 -0.67881364426E+02 -0.12123006897E+02  0.69158889805E+02  0.00000000000E+00 0.  1.
<scales pt_clust_5="13000.00000" pt_clust_6="13000.00000" pt_clust_7="13000.00000" pt_clust_8="13000.00000" pt_clust_9="23.37405" pt_clust_10="13000.00000"></scales>
<clustering>
<clus scale="   23.374">  2  9  1 -1</clus>
<clus scale="   92.310">  7  8 -1 -1</clus>
<clus scale="   70.052">  7 10 -1 -1</clus>
<clus scale="   94.226">  5  6 -1 -1</clus>
<clus scale="  101.478">  1  5  2 -1</clus>
<clus scale="   23.374">  2  5  1 -1</clus>
</clustering>
</event>
<event>
10    2  0.5921424E-006  0.7526176E+03  0.7546771E-02  0.1026778E+00
          2   -1    0    0  503    0 -0.00000000000E+00  0.00000000000E+00  0.10503448235E+04  0.10503448235E+04  0.00000000000E+00 0. -1.
         21   -1    0    0  501  502  0.00000000000E+00 -0.00000000000E+00 -0.21378528001E+03  0.21378528001E+03  0.00000000000E+00 0. -1.
         23    2    1    2    0    0  0.46146531576E+02  0.93276053844E+01  0.32127553448E+02  0.10348697105E+03  0.86376309763E+02 0.  0.
         23    2    1    2    0    0  0.23163860237E+03 -0.27420890809E+03  0.59790639405E+03  0.70459731405E+03  0.10059001708E+03 0.  0.
        -11    1    4    4    0    0  0.10329648173E+03 -0.16730671087E+03  0.24488871199E+03  0.31405760602E+03  0.00000000000E+00 0.  1.
         11    1    4    4    0    0  0.12834212064E+03 -0.10690219723E+03  0.35301768206E+03  0.39053970803E+03  0.00000000000E+00 0. -1.
        -13    1    3    3    0    0  0.13773544785E+02 -0.37100810811E+02  0.26324625120E+01  0.39662457787E+02  0.00000000000E+00 0. -1.
         13    1    3    3    0    0  0.32372986791E+02  0.46428416196E+02  0.29495090936E+02  0.63824513265E+02  0.00000000000E+00 0.  1.
         21    1    1    2  503  502 -0.10167423653E+02  0.51901756704E+02 -0.62239015461E+01  0.53253223406E+02  0.00000000000E+00 0.  1.
          2    1    1    2  501    0 -0.26761771030E+03  0.21297954601E+03  0.21274949755E+03  0.40279259500E+03  0.00000000000E+00 0. -1.
<scales pt_clust_5="13000.00000" pt_clust_6="13000.00000" pt_clust_7="13000.00000" pt_clust_8="13000.00000" pt_clust_9="52.88827" pt_clust_10="13000.00000"></scales>
<clustering>
<clus scale="   52.888">  2  9  1 -1</clus>
<clus scale="   86.376">  7  8 -1 -1</clus>
<clus scale="   98.936">  1  7  2 -1</clus>
<clus scale="  100.590">  5  6 -1 -1</clus>
<clus scale="  356.083">  5 10 -1 -1</clus>
<clus scale="   52.888">  2  5  1 -1</clus>
</clustering>
</event>
<event>
10    2  0.5921424E-006  0.1845653E+03  0.7546771E-02  0.1184409E+00
          1   -1    0    0  502    0 -0.00000000000E+00  0.00000000000E+00  0.64102704685E+03  0.64102704685E+03  0.00000000000E+00 0. -1.
         21   -1    0    0  503  502  0.00000000000E+00 -0.00000000000E+00 -0.68986682851E+02  0.68986682851E+02  0.00000000000E+00 0. -1.
         23    2    1    2    0    0  0.84759860619E+01  0.71518435433E+02  0.44514341052E+03  0.45936706072E+03  0.87628257954E+02 0.  0.
         23    2    1    2    0    0  0.22445787490E+02 -0.35356177399E+01  0.91152405036E+02  0.12893860480E+03  0.88318111929E+02 0.  0.
        -11    1    3    3    0    0 -0.20977725599E+02 -0.11707955205E+02  0.71213404275E+02  0.75156437747E+02  0.00000000000E+00 0.  1.
         11    1    3    3    0    0  0.29453711661E+02  0.83226390638E+02  0.37393000625E+03  0.38421062297E+03  0.00000000000E+00 0. -1.
        -13    1    4    4    0    0 -0.31048869811E+02  0.15113820755E+02  0.35449923758E+02  0.49488958252E+02  0.00000000000E+00 0. -1.
         13    1    4    4    0    0  0.53494657301E+02 -0.18649438494E+02  0.55702481277E+02  0.79449646546E+02  0.00000000000E+00 0.  1.
         21    1    1    2  503  501  0.15270613599E+02  0.13880671912E+02 -0.12945810670E+01  0.20677055703E+02  0.00000000000E+00 0. -1.
          1    1    1    2  501    0 -0.46192387151E+02 -0.81863489605E+02  0.37039129509E+02  0.10103100849E+03  0.00000000000E+00 0. -1.
<scales pt_clust_5="13000.00000" pt_clust_6="13000.00000" pt_clust_7="13000.00000" pt_clust_8="13000.00000" pt_clust_9="20.63649" pt_clust_10="13000.00000"></scales>
<clustering>
<clus scale="   20.636">  2  9  1 -1</clus>
<clus scale="   87.628">  5  6 -1 -1</clus>
<clus scale="   88.318">  7  8 -1 -1</clus>
<clus scale="   83.265">  7 10 -1 -1</clus>
<clus scale="  114.661">  1  5  2 -1</clus>
<clus scale="   20.636">  2  5  1 -1</clus>
</clustering>
</event>
<event>
10    2  0.5921424E-006  0.1405411E+03  0.7546771E-02  0.1230305E+00
          2   -1    0    0  503    0 -0.00000000000E+00  0.00000000000E+00  0.72993159246E+03  0.72993159246E+03  0.00000000000E+00 0. -1.
         21   -1    0    0  501  502  0.00000000000E+00 -0.00000000000E+00 -0.25331452213E+02  0.25331452213E+02  0.00000000000E+00 0.  1.
         23    2    1    2    0    0 -0.82911018089E+01  0.23675515176E+02  0.30596846565E+03  0.32040919515E+03  0.91739184532E+02 0.  0.
         23    2    1    2    0    0  0.89318780897E+01 -0.46487548912E+02  0.35416050094E+03  0.36871562736E+03  0.90998257021E+02 0.  0.
        -11    1    3    3    0    0 -0.25813435984E+02 -0.23950196897E+02  0.19803324119E+03  0.20113952874E+03  0.00000000000E+00 0.  1.
         11    1    3    3    0    0  0.17522334175E+02  0.47625712072E+02  0.10793522446E+03  0.11926966641E+03  0.00000000000E+00 0. -1.
        -13    1    4    4    0    0 -0.13123109820E+02 -0.67587878604E+02  0.19879049897E+03  0.21037585371E+03  0.00000000000E+00 0.  1.
         13    1    4    4    0    0  0.22054987909E+02  0.21100329692E+02  0.15537000197E+03  0.15833977365E+03  0.00000000000E+00 0. -1.
         21    1    1    2  503  502 -0.21693456439E+02  0.10172067987E+02  0.26386925478E+02  0.35641925532E+02  0.00000000000E+00 0.  1.
          2    1    1    2  501    0  0.21052680158E+02  0.12639965749E+02  0.18084248177E+02  0.30496296630E+02  0.00000000000E+00 0. -1.
<scales pt_clust_5="13000.00000" pt_clust_6="13000.00000" pt_clust_7="13000.00000" pt_clust_8="13000.00000" pt_clust_9="23.95990" pt_clust_10="13000.00000"></scales>
<clustering>
<clus scale="   23.960">  2  9  1 -1</clus>
<clus scale="   90.998">  7  8 -1 -1</clus>
<clus scale="   21.397">  7 10 -1 -1</clus>
<clus scale="   91.739">  5  6 -1 -1</clus>
<clus scale="   96.998">  1  5  2 -1</clus>
<clus scale="   23.960">  2  5  1 -1</clus>
</clustering>
</event>
<event>
10    2  0.5921424E-006  0.2438278E+03  0.7546771E-02  0.1154630E+00
         21   -1    0    0  501  502  0.00000000000E+00  0.00000000000E+00  0.31308474507E+03  0.31308474507E+03  0.00000000000E+00 0.  1.
          1   -1    0    0  503    0 -0.00000000000E+00 -0.00000000000E+00 -0.22540132578E+03  0.22540132578E+03  0.00000000000E+00 0. -1.
         23    2    1    2    0    0  0.41474193048E+01  0.37265861351E+02 -0.15181458489E+03  0.18099477855E+03  0.91134494928E+02 0.  0.
         23    2    1    2    0    0 -0.88809430674E+02 -0.46161274116E+02  0.13892413750E+03  0.19401246885E+03  0.91230169818E+02 0.  0.
        -13    1    4    4    0    0 -0.33603980166E+02 -0.22249169591E+02  0.12625479802E+03  0.13253123048E+03  0.00000000000E+00 0.  1.
         13    1    4    4    0    0 -0.55205450509E+02 -0.23912104526E+02  0.12669339484E+02  0.61481238371E+02  0.00000000000E+00 0. -1.
        -13    1    3    3    0    0  0.15304245759E+02 -0.28220815222E+02 -0.48097858816E+02  0.57827660966E+02  0.00000000000E+00 0.  1.
         13    1    3    3    0    0 -0.11156826454E+02  0.65486676573E+02 -0.10371672608E+03  0.12316711758E+03  0.00000000000E+00 0. -1.
         21    1    1    2  503  502 -0.20348070016E+02 -0.87674516522E+01  0.21206583176E+02  0.30669713593E+02  0.00000000000E+00 0.  1.
          1    1    1    2  501    0  0.10501008139E+03  0.17662864418E+02  0.79367283506E+02  0.13280910987E+03  0.00000000000E+00 0. -1.
<scales pt_clust_5="13000.00000" pt_clust_6="13000.00000" pt_clust_7="13000.00000" pt_clust_8="13000.00000" pt_clust_9="22.15654" pt_clust_10="13000.00000"></scales>
<clustering>
<clus scale="   22.157">  1  9  2 -1</clus>
<clus scale="   91.134">  7  8 -1 -1</clus>
<clus scale="   91.230">  5  6 -1 -1</clus>
<clus scale="   98.341">  2  7  1 -1</clus>
<clus scale="  103.233">  5 10 -1 -1</clus>
<clus scale="   22.157">  1  5  2 -1</clus>
</clustering>
</event>
<event>
10    2  0.5921424E-006  0.3375774E+03  0.7546771E-02  0.1103739E+00
          1   -1    0    0  502    0 -0.00000000000E+00  0.00000000000E+00  0.77128738464E+03  0.77128738464E+03  0.00000000000E+00 0. -1.
         21   -1    0    0  503  502  0.00000000000E+00 -0.00000000000E+00 -0.24791635868E+03  0.24791635868E+03  0.00000000000E+00 0. -1.
         23    2    1    2    0    0 -0.57026178999E+02 -0.70833814625E+02  0.20294311329E+03  0.24081876637E+03  0.92403228399E+02 0.  0.
         23    2    1    2    0    0  0.39373293157E+02  0.10268489560E+03  0.29311015378E+03  0.32483006078E+03  0.86640418625E+02 0.  0.
        -11    1    3    3    0    0  0.23253793427E+02 -0.13027844889E+01  0.32201399197E+02  0.39741241380E+02  0.00000000000E+00 0.  1.
         11    1    3    3    0    0 -0.80279972427E+02 -0.69531030136E+02  0.17074171409E+03  0.20107752499E+03  0.00000000000E+00 0. -1.
        -13    1    4    4    0    0  0.43027231540E+02  0.64254563660E+02  0.92625568929E+02  0.12066270188E+03  0.00000000000E+00 0.  1.
         13    1    4    4    0    0 -0.36539383824E+01  0.38430331944E+02  0.20048458485E+03  0.20416735890E+03  0.00000000000E+00 0. -1.
         21    1    1    2  503  501  0.98012085358E+02 -0.20471150280E+03 -0.72646723869E+02  0.23830802492E+03  0.00000000000E+00 0. -1.
          1    1    1    2  501    0 -0.80359199516E+02  0.17286042182E+03  0.99964482763E+02  0.21524689125E+03  0.00000000000E+00 0. -1.
<scales pt_clust_5="13000.00000" pt_clust_6="13000.00000" pt_clust_7="13000.00000" pt_clust_8="13000.00000" pt_clust_9="233.21260" pt_clust_10="13000.00000"></scales>
<clustering>
<clus scale="   86.640">  7  8 -1 -1</clus>
<clus scale="   92.403">  5  6 -1 -1</clus>
<clus scale="  129.645">  1  5  2 -1</clus>
<clus scale="  180.619">  7 10 -1 -1</clus>
<clus scale="  233.213">  2  9  1 -1</clus>
<clus scale="  233.213">  2  5  1 -1</clus>
</clustering>
</event>
<event>
10    2  0.5921424E-006  0.1917506E+03  0.7546771E-02  0.1185558E+00
         21   -1    0    0  503  502  0.00000000000E+00  0.00000000000E+00  0.16146606663E+03  0.16146606663E+03  0.00000000000E+00 0. -1.
          1   -1    0    0  502    0 -0.00000000000E+00 -0.00000000000E+00 -0.20409721421E+03  0.20409721421E+03  0.00000000000E+00 0. -1.
         23    2    1    2    0    0  0.16924468511E+02  0.59512012694E+02 -0.17751216176E+02  0.11186336557E+03  0.91488740240E+02 0.  0.
         23    2    1    2    0    0 -0.38913822299E+02  0.60543786515E+02 -0.31006882116E+02  0.12027586644E+03  0.91241556645E+02 0.  0.
        -11    1    3    3    0    0  0.36496704951E+02  0.65695666573E+02 -0.36961651343E+02  0.83750186560E+02  0.00000000000E+00 0. -1.
         11    1    3    3    0    0 -0.19572236440E+02 -0.61836538798E+01  0.19210435166E+02  0.28113179006E+02  0.00000000000E+00 0.  1.
        -13    1    4    4    0    0 -0.43899928475E+02  0.49426149847E+01 -0.44647188774E+02  0.62809271835E+02  0.00000000000E+00 0.  1.
         13    1    4    4    0    0  0.49861061758E+01  0.55601171530E+02  0.13640306658E+02  0.57466594610E+02  0.00000000000E+00 0. -1.
         21    1    1    2  503  501 -0.11287703849E+02 -0.56942286520E+02  0.18674585797E+02  0.60980131248E+02  0.00000000000E+00 0. -1.
          1    1    1    2  501    0  0.33277057637E+02 -0.63113512688E+02 -0.12547635082E+02  0.72443917584E+02  0.00000000000E+00 0. -1.
<scales pt_clust_5="13000.00000" pt_clust_6="13000.00000" pt_clust_7="13000.00000" pt_clust_8="13000.00000" pt_clust_9="58.05029" pt_clust_10="13000.00000"></scales>
<clustering>
<clus scale="   58.050">  1  9  2 -1</clus>
<clus scale="   91.242">  7  8 -1 -1</clus>
<clus scale="   82.944">  7 10 -1 -1</clus>
<clus scale="   91.489">  5  6 -1 -1</clus>
<clus scale="   99.664">  2  5  1 -1</clus>
<clus scale="   58.050">  1  5  2 -1</clus>
</clustering>
</event>
<event>
10    2  0.5921424E-006  0.1538795E+03  0.7546771E-02  0.1206815E+00
         21   -1    0    0  501  502  0.00000000000E+00  0.00000000000E+00  0.24326719007E+03  0.24326719007E+03  0.00000000000E+00 0. -1.
          1   -1    0    0  503    0 -0.00000000000E+00 -0.00000000000E+00 -0.18969746573E+03  0.18969746573E+03  0.00000000000E+00 0. -1.
         23    2    1    2    0    0  0.57675907806E+02  0.39711358518E+02 -0.62544923867E+02  0.13145313317E+03  0.92003023764E+02 0.  0.
         23    2    1    2    0    0 -0.48815883720E+02  0.14206432600E+02  0.22016640954E+02  0.10670567280E+03  0.91195147334E+02 0.  0.
        -11    1    3    3    0    0 -0.21855716354E+02  0.17869421365E+02 -0.33964131527E+02  0.44165040333E+02  0.00000000000E+00 0. -1.
         11    1    3    3    0    0  0.79531624160E+02  0.21841937153E+02 -0.28580792341E+02  0.87288092836E+02  0.00000000000E+00 0.  1.
        -13    1    4    4    0    0 -0.27266940241E+02 -0.23945086907E+02 -0.23731269016E+02  0.43359270591E+02  0.00000000000E+00 0.  1.
         13    1    4    4    0    0 -0.21548943479E+02  0.38151519506E+02  0.45747909970E+02  0.63346402205E+02  0.00000000000E+00 0. -1.
         21    1    1    2  503  502  0.71290157405E+02 -0.50732127122E+02  0.66770402113E+02  0.11006508013E+03  0.00000000000E+00 0. -1.
          1    1    1    2  501    0 -0.80150181491E+02 -0.31856639954E+01  0.27327605139E+02  0.84740769709E+02  0.00000000000E+00 0. -1.
<scales pt_clust_5="13000.00000" pt_clust_6="13000.00000" pt_clust_7="13000.00000" pt_clust_8="13000.00000" pt_clust_9="87.49877" pt_clust_10="13000.00000"></scales>
<clustering>
<clus scale="   87.499">  1  9  2 -1</clus>
<clus scale="   91.195">  7  8 -1 -1</clus>
<clus scale="   58.467">  7 10 -1 -1</clus>
<clus scale="   92.003">  5  6 -1 -1</clus>
<clus scale="  121.162">  2  5  1 -1</clus>
<clus scale="   87.499">  1  5  2 -1</clus>
</clustering>
</event>
<event>
10    2  0.5921424E-006  0.2315490E+03  0.7546771E-02  0.1149843E+00
         21   -1    0    0  503  502  0.00000000000E+00  0.00000000000E+00  0.35522346137E+03  0.35522346137E+03  0.00000000000E+00 0. -1.
         -3   -1    0    0    0  501 -0.00000000000E+00 -0.00000000000E+00 -0.55404261744E+03  0.55404261744E+03  0.00000000000E+00 0.  1.
         23    2    1    2    0    0  0.38998392997E+02 -0.10432681680E+03 -0.28683241760E+03  0.32096157614E+03  0.91315596756E+02 0.  0.
         23    2    1    2    0    0 -0.46440670456E+02  0.93678827297E+02 -0.15747131559E+03  0.20955775053E+03  0.90469757476E+02 0.  0.
        -13    1    3    3    0    0 -0.77823066268E+01 -0.35587916066E+02 -0.20176833225E+02  0.41643350794E+02  0.00000000000E+00 0. -1.
         13    1    3    3    0    0  0.46780699624E+02 -0.68738900735E+02 -0.26665558437E+03  0.27931822534E+03  0.00000000000E+00 0.  1.
        -13    1    4    4    0    0  0.74786161391E+01  0.33233192333E+02 -0.18452591177E+01  0.34114216292E+02  0.00000000000E+00 0.  1.
         13    1    4    4    0    0 -0.53919286596E+02  0.60445634964E+02 -0.15562605647E+03  0.17544353424E+03  0.00000000000E+00 0. -1.
         21    1    1    2  503  501 -0.11284748894E+02  0.80999119042E+02  0.28459009931E+03  0.29610762818E+03  0.00000000000E+00 0. -1.
         -3    1    1    2    0  502  0.18727026354E+02 -0.70351129538E+02 -0.39105522192E+02  0.82639123962E+02  0.00000000000E+00 0.  1.
<scales pt_clust_5="13000.00000" pt_clust_6="13000.00000" pt_clust_7="13000.00000" pt_clust_8="13000.00000" pt_clust_9="81.78143" pt_clust_10="13000.00000"></scales>
<clustering>
<clus scale="   81.781">  1  9  2 -1</clus>
<clus scale="   90.470">  7  8 -1 -1</clus>
<clus scale="   45.686">  7 10 -1 -1</clus>
<clus scale="   91.316">  5  6 -1 -1</clus>
<clus scale="  128.566">  2  5  1 -1</clus>
<clus scale="   81.781">  1  5  2 -1</clus>
</clustering>
</event>
<event>
10    2  0.5921424E-006  0.2508713E+03  0.7546771E-02  0.1135149E+00
         21   -1    0    0  503  502  0.00000000000E+00  0.00000000000E+00  0.18501962659E+03  0.18501962659E+03  0.00000000000E+00 0. -1.
          1   -1    0    0  502    0 -0.00000000000E+00 -0.00000000000E+00 -0.28746716981E+03  0.28746716981E+03  0.00000000000E+00 0. -1.
         23    2    1    2    0    0 -0.97725184732E+02  0.57888718013E+02 -0.12851427933E+03  0.19438402237E+03  0.91476296145E+02 0.  0.
         23    2    1    2    0    0  0.41400273983E+02  0.10778419173E+02 -0.84462351923E+02  0.13078754835E+03  0.90229357223E+02 0.  0.
        -11    1    4    4    0    0 -0.27208184665E+02  0.12136434058E+01 -0.40285417326E+02  0.48627904460E+02  0.00000000000E+00 0. -1.
         11    1    4    4    0    0  0.68608458647E+02  0.95647757674E+01 -0.44176934597E+02  0.82159643888E+02  0.00000000000E+00 0.  1.
        -13    1    3    3    0    0 -0.82166290838E+02 -0.19340540120E+01 -0.57891958234E+02  0.10053118294E+03  0.00000000000E+00 0. -1.
         13    1    3    3    0    0 -0.15558893894E+02  0.59822772025E+02 -0.70622321096E+02  0.93852839429E+02  0.00000000000E+00 0.  1.
         21    1    1    2  503  501  0.30647784265E+00 -0.24698419874E+02  0.18040008794E+02  0.30586725719E+02  0.00000000000E+00 0. -1.
          1    1    1    2  501    0  0.56018432907E+02 -0.43968717312E+02  0.92489079236E+02  0.11672849997E+03  0.00000000000E+00 0. -1.
<scales pt_clust_5="13000.00000" pt_clust_6="13000.00000" pt_clust_7="13000.00000" pt_clust_8="13000.00000" pt_clust_9="24.70032" pt_clust_10="13000.00000"></scales>
<clustering>
<clus scale="   24.700">  1  9  2 -1</clus>
<clus scale="   90.229">  5  6 -1 -1</clus>
<clus scale="   82.255">  5 10 -1 -1</clus>
<clus scale="   91.476">  7  8 -1 -1</clus>
<clus scale="  143.863">  2  7  1 -1</clus>
<clus scale="   24.700">  1  5  2 -1</clus>
</clustering>
</event>
<event>
10    2  0.5921424E-006  0.3702467E+03  0.7546771E-02  0.1059874E+00
         21   -1    0    0  503  502  0.00000000000E+00  0.00000000000E+00  0.55087007283E+03  0.55087007283E+03  0.00000000000E+00 0. -1.
          1   -1    0    0  502    0 -0.00000000000E+00 -0.00000000000E+00 -0.78154560207E+03  0.78154560207E+03  0.00000000000E+00 0. -1.
         23    2    1    2    0    0 -0.27004503581E+03  0.17023790254E+03 -0.61030388136E+03  0.69474347020E+03  0.91062599070E+02 0.  0.
         23    2    1    2    0    0  0.26160465129E-01 -0.93605700156E+02  0.22764216279E+02  0.13312178271E+03  0.91875849403E+02 0.  0.
        -11    1    4    4    0    0 -0.18308159340E+02 -0.10197362668E+03  0.12071031833E+01  0.10361113036E+03  0.00000000000E+00 0.  1.
         11    1    4    4    0    0  0.18334319805E+02  0.83679265254E+01  0.21557113096E+02  0.29510652349E+02  0.00000000000E+00 0. -1.
        -13    1    3    3    0    0 -0.23513352676E+03  0.13592992236E+03 -0.56977060180E+03  0.63119193427E+03  0.00000000000E+00 0. -1.
         13    1    3    3    0    0 -0.34911509047E+02  0.34307980173E+02 -0.40533279559E+02  0.63551535932E+02  0.00000000000E+00 0.  1.
         21    1    1    2  503  501  0.17555200679E+03  0.61451148251E+02  0.15311348224E+03  0.24091178708E+03  0.00000000000E+00 0. -1.
          1    1    1    2  501    0  0.94466868554E+02 -0.13808335063E+03  0.20375065360E+03  0.26363863491E+03  0.00000000000E+00 0. -1.
<scales pt_clust_5="13000.00000" pt_clust_6="13000.00000" pt_clust_7="13000.00000" pt_clust_8="13000.00000" pt_clust_9="185.99664" pt_clust_10="13000.00000"></scales>
<clustering>
<clus scale="   91.063">  7  8 -1 -1</clus>
<clus scale="   91.876">  5  6 -1 -1</clus>
<clus scale="  167.305">  5 10 -1 -1</clus>
<clus scale="  185.997">  1  9  2 -1</clus>
<clus scale="  319.177">  2  7  1 -1</clus>
<clus scale="  185.997">  1  5  2 -1</clus>
</clustering>
</event>
<event>
10    2  0.5921424E-006  0.4220806E+03  0.7546771E-02  0.1067616E+00
         -2   -1    0    0    0  501 -0.00000000000E+00  0.00000000000E+00  0.69888398901E+03  0.69888398901E+03  0.00000000000E+00 0.  1.
         21   -1    0    0  501  502  0.00000000000E+00 -0.00000000000E+00 -0.16590951197E+03  0.16590951197E+03  0.00000000000E+00 0.  1.
         23    2    1    2    0    0 -0.15462271191E+03  0.13265665500E+02  0.21364799505E+03  0.27960509560E+03  0.91920524233E+02 0.  0.
         23    2    1    2    0    0  0.33614781696E+02  0.57755078135E+02  0.39453916243E+03  0.41038212269E+03  0.91031496411E+02 0.  0.
        -11    1    3    3    0    0 -0.98669741838E+02  0.42529475189E+02  0.17566130062E+03  0.20591592155E+03  0.00000000000E+00 0.  1.
         11    1    3    3    0    0 -0.55952970077E+02 -0.29263809690E+02  0.37986694436E+02  0.73689174050E+02  0.00000000000E+00 0. -1.
        -13    1    4    4    0    0  0.64978717570E+02  0.44962370985E+02  0.27138242190E+03  0.28265220229E+03  0.00000000000E+00 0.  1.
         13    1    4    4    0    0 -0.31363935873E+02  0.12792707150E+02  0.12315674052E+03  0.12772992040E+03  0.00000000000E+00 0. -1.
         21    1    1    2  503  502  0.31896151574E+02  0.12087394402E+02 -0.27990814860E+02  0.44124316484E+02  0.00000000000E+00 0.  1.
         -2    1    1    2    0  503  0.89111778645E+02 -0.83108138036E+02 -0.47221865580E+02  0.13068196620E+03  0.00000000000E+00 0.  1.
<scales pt_clust_5="13000.00000" pt_clust_6="13000.00000" pt_clust_7="13000.00000" pt_clust_8="13000.00000" pt_clust_9="34.10967" pt_clust_10="13000.00000"></scales>
<clustering>
<clus scale="   34.110">  2  9  1 -1</clus>
<clus scale="   91.031">  7  8 -1 -1</clus>
<clus scale="   91.921">  5  6 -1 -1</clus>
<clus scale="  133.835">  7 10 -1 -1</clus>
<clus scale="  173.738">  1  5  2 -1</clus>
<clus scale="   34.110">  2  5  1 -1</clus>
</clustering>
</event>
<event>
10    2  0.5921424E-006  0.4528130E+03  0.7546771E-02  0.1075054E+00
         21   -1    0    0  501  502  0.00000000000E+00  0.00000000000E+00  0.89906836216E+02  0.89906836216E+02  0.00000000000E+00 0. -1.
          1   -1    0    0  503    0 -0.00000000000E+00 -0.00000000000E+00 -0.11168647201E+04  0.11168647201E+04  0.00000000000E+00 0. -1.
         23    2    1    2    0    0  0.62644977073E+02  0.12106120510E+02 -0.12801948916E+03  0.17036377976E+03  0.92541215377E+02 0.  0.
         23    2    1    2    0    0 -0.21907301274E+03  0.70639555668E+02 -0.59136636067E+03  0.64142465041E+03  0.93426323317E+02 0.  0.
        -13    1    4    4    0    0 -0.81189794528E+02  0.54712029925E+02 -0.15330819377E+03  0.18190269715E+03  0.00000000000E+00 0. -1.
         13    1    4    4    0    0 -0.13788321821E+03  0.15927525743E+02 -0.43805816690E+03  0.45952195326E+03  0.00000000000E+00 0.  1.
        -13    1    3    3    0    0  0.84325330286E+02  0.22894019369E+02 -0.10816629453E+03  0.13904979224E+03  0.00000000000E+00 0.  1.
         13    1    3    3    0    0 -0.21680353213E+02 -0.10787898859E+02 -0.19853194635E+02  0.31313987521E+02  0.00000000000E+00 0. -1.
         21    1    1    2  503  502  0.36704656270E+01  0.41810864427E+02 -0.20372778198E+02  0.46654804614E+02  0.00000000000E+00 0. -1.
          1    1    1    2  501    0  0.15275757004E+03 -0.12455654060E+03 -0.28719925583E+03  0.34832832151E+03  0.00000000000E+00 0. -1.
<scales pt_clust_5="13000.00000" pt_clust_6="13000.00000" pt_clust_7="13000.00000" pt_clust_8="13000.00000" pt_clust_9="41.97167" pt_clust_10="13000.00000"></scales>
<clustering>
<clus scale="   41.972">  1  9  2 -1</clus>
<clus scale="   92.541">  7  8 -1 -1</clus>
<clus scale="   93.426">  5  6 -1 -1</clus>
<clus scale="  114.782">  2  7  1 -1</clus>
<clus scale="  201.537">  5 10 -1 -1</clus>
<clus scale="   41.972">  1  5  2 -1</clus>
</clustering>
</event>
<event>
10    2  0.5921424E-006  0.4783617E+03  0.7546771E-02  0.1049939E+00
         -1   -1    0    0    0  501 -0.00000000000E+00  0.00000000000E+00  0.50743164597E+03  0.50743164597E+03  0.00000000000E+00 0.  1.
         21   -1    0    0  501  502  0.00000000000E+00 -0.00000000000E+00 -0.42610396133E+03  0.42610396133E+03  0.00000000000E+00 0.  1.
         23    2    1    2    0    0  0.66164016006E+02 -0.13467061434E+03  0.50384939391E+02  0.18234558586E+03  0.90539600105E+02 0.  0.
         23    2    1    2    0    0  0.20675714802E+01 -0.56160205293E+02  0.20360191197E+03  0.24667512236E+03  0.12742305100E+03 0.  0.
        -11    1    3    3    0    0  0.63524458086E+02 -0.10027300194E+03  0.74599713403E+02  0.14019682212E+03  0.00000000000E+00 0.  1.
         11    1    3    3    0    0  0.26395579199E+01 -0.34397612400E+02 -0.24214774012E+02  0.42148763746E+02  0.00000000000E+00 0. -1.
        -13    1    4    4    0    0 -0.38106283860E+02 -0.14177464996E+02  0.64852666037E+01  0.41172175875E+02  0.00000000000E+00 0. -1.
         13    1    4    4    0    0  0.40173855340E+02 -0.41982740296E+02  0.19711664536E+03  0.20550294649E+03  0.00000000000E+00 0.  1.
         21    1    1    2  503  502 -0.34774436284E+02 -0.10723374960E+03 -0.17070855888E+03  0.20457211576E+03  0.00000000000E+00 0.  1.
         -1    1    1    2    0  503 -0.33457151202E+02  0.29806456923E+03 -0.19506078382E+01  0.29994278332E+03  0.00000000000E+00 0.  1.
<scales pt_clust_5="13000.00000" pt_clust_6="13000.00000" pt_clust_7="13000.00000" pt_clust_8="13000.00000" pt_clust_9="112.73127" pt_clust_10="13000.00000"></scales>
<clustering>
<clus scale="   90.540">  5  6 -1 -1</clus>
<clus scale="  112.731">  2  9  1 -1</clus>
<clus scale="  127.423">  7  8 -1 -1</clus>
<clus scale="  195.965">  1  5  2 -1</clus>
<clus scale="  184.854">  7 10 -1 -1</clus>
<clus scale="  112.731">  2  5  1 -1</clus>
</clustering>
</event>
<event>
10    2  0.5921424E-006  0.1779937E+03  0.7546771E-02  0.1201495E+00
          2   -1    0    0  502    0 -0.00000000000E+00  0.00000000000E+00  0.32565585803E+03  0.32565585803E+03  0.00000000000E+00 0. -1.
         21   -1    0    0  503  502  0.00000000000E+00 -0.00000000000E+00 -0.24058571708E+03  0.24058571708E+03  0.00000000000E+00 0.  1.
         23    2    1    2    0    0  0.32925711889E+01 -0.40395180702E+02  0.49384726488E+02  0.10074114144E+03  0.77892969639E+02 0.  0.
         23    2    1    2    0    0  0.40285311045E+02 -0.36525153660E+02  0.16897506051E+03  0.20009795671E+03  0.92355985564E+02 0.  0.
        -11    1    3    3    0    0  0.23685113209E+02 -0.13796880468E+02  0.59684793661E+02  0.65678102079E+02  0.00000000000E+00 0. -1.
         11    1    3    3    0    0 -0.20392542020E+02 -0.26598300233E+02 -0.10300067174E+02  0.35063039359E+02  0.00000000000E+00 0.  1.
        -13    1    4    4    0    0  0.35856177021E+02  0.16894931607E+02  0.12382174275E+03  0.13001126152E+03  0.00000000000E+00 0. -1.
         13    1    4    4    0    0  0.44291340241E+01 -0.53420085267E+02  0.45153317766E+02  0.70086695195E+02  0.00000000000E+00 0.  1.
         21    1    1    2  503  501 -0.93089030515E+02  0.52811286719E+02 -0.16880502369E+03  0.19987429958E+03  0.00000000000E+00 0.  1.
          2    1    1    2  501    0  0.49511148281E+02  0.24109047642E+02  0.35515377635E+02  0.65528177381E+02  0.00000000000E+00 0. -1.
<scales pt_clust_5="13000.00000" pt_clust_6="13000.00000" pt_clust_7="13000.00000" pt_clust_8="13000.00000" pt_clust_9="105.63340" pt_clust_10="13000.00000"></scales>
<clustering>
<clus scale="   77.893">  5  6 -1 -1</clus>
<clus scale="   87.806">  1  5  2 -1</clus>
<clus scale="   92.356">  7  8 -1 -1</clus>
<clus scale="   52.654">  7 10 -1 -1</clus>
<clus scale="  105.633">  2  9  1 -1</clus>
<clus scale="  105.633">  2  5  1 -1</clus>
</clustering>
</event>
<event>
10    2  0.5921424E-006  0.3952025E+03  0.7546771E-02  0.1064703E+00
          2   -1    0    0  503    0 -0.00000000000E+00  0.00000000000E+00  0.20302371562E+04  0.20302371562E+04  0.00000000000E+00 0. -1.
         21   -1    0    0  501  502  0.00000000000E+00 -0.00000000000E+00 -0.54424873283E+02  0.54424873283E+02  0.00000000000E+00 0.  1.
         23    2    1    2    0    0  0.32240207901E+02 -0.20619838643E+03  0.76001386522E+03  0.79343290328E+03  0.91419314785E+02 0.  0.
         23    2    1    2    0    0 -0.14766023589E+03  0.41200944615E+02  0.51712992802E+03  0.54649118662E+03  0.87910133122E+02 0.  0.
        -11    1    4    4    0    0 -0.72104178174E+01  0.28982529478E+02  0.47074123717E+02  0.55748993388E+02  0.00000000000E+00 0.  1.
         11    1    4    4    0    0 -0.14044981808E+03  0.12218415137E+02  0.47005580430E+03  0.49074219324E+03  0.00000000000E+00 0. -1.
        -13    1    3    3    0    0  0.35375686495E+01 -0.12036604362E+03  0.27744337119E+03  0.30244887678E+03  0.00000000000E+00 0.  1.
         13    1    3    3    0    0  0.28702639251E+02 -0.85832342805E+02  0.48257049403E+03  0.49098402650E+03  0.00000000000E+00 0. -1.
         21    1    1    2  503  502 -0.21361573146E+02 -0.79766005854E+01  0.17442623984E+02  0.28708676312E+02  0.00000000000E+00 0. -1.
          2    1    1    2  501    0  0.13678160114E+03  0.17297404240E+03  0.68122586568E+03  0.71602926325E+03  0.00000000000E+00 0. -1.
<scales pt_clust_5="13000.00000" pt_clust_6="13000.00000" pt_clust_7="13000.00000" pt_clust_8="13000.00000" pt_clust_9="22.80226" pt_clust_10="13000.00000"></scales>
<clustering>
<clus scale="   22.802">  2  9  1 -1</clus>
<clus scale="   87.910">  5  6 -1 -1</clus>
<clus scale="   91.419">  7  8 -1 -1</clus>
<clus scale="  213.605">  5 10 -1 -1</clus>
<clus scale="  229.413">  1  7  2 -1</clus>
<clus scale="   22.802">  2  5  1 -1</clus>
</clustering>
</event>
<event>
10    2  0.5921424E-006  0.8627835E+03  0.7546771E-02  0.1007656E+00
         21   -1    0    0  501  502  0.00000000000E+00  0.00000000000E+00  0.62537384760E+03  0.62537384760E+03  0.00000000000E+00 0. -1.
          2   -1    0    0  503    0 -0.00000000000E+00 -0.00000000000E+00 -0.90647155245E+03  0.90647155245E+03  0.00000000000E+00 0. -1.
         23    2    1    2    0    0  0.43514511182E+02  0.59938152988E+02 -0.73931591416E+02  0.13885773513E+03  0.91266069980E+02 0.  0.
         23    2    1    2    0    0 -0.16956290203E+03  0.18320630746E+03 -0.42104786720E+03  0.49860514946E+03  0.94919227540E+02 0.  0.
        -13    1    3    3    0    0 -0.19600369128E+02  0.18035594036E+02  0.74640372660E+01  0.27661687846E+02  0.00000000000E+00 0.  1.
         13    1    3    3    0    0  0.63114880310E+02  0.41902558952E+02 -0.81395628682E+02  0.11119604728E+03  0.00000000000E+00 0. -1.
        -13    1    4    4    0    0 -0.15206880735E+03  0.16776707373E+03 -0.41757511568E+03  0.47501546336E+03  0.00000000000E+00 0. -1.
         13    1    4    4    0    0 -0.17494094681E+02  0.15439233731E+02 -0.34727515116E+01  0.23589686093E+02  0.00000000000E+00 0.  1.
         21    1    1    2  503  502 -0.30813391870E+03 -0.54592469329E+02  0.27563521023E+03  0.41701513003E+03  0.00000000000E+00 0. -1.
          2    1    1    2  501    0  0.43418230955E+03 -0.18855199112E+03 -0.61753456473E+02  0.47736738542E+03  0.00000000000E+00 0. -1.
<scales pt_clust_5="13000.00000" pt_clust_6="13000.00000" pt_clust_7="13000.00000" pt_clust_8="13000.00000" pt_clust_9="308.25656" pt_clust_10="13000.00000"></scales>
<clustering>
<clus scale="   91.266">  5  6 -1 -1</clus>
<clus scale="   94.919">  7  8 -1 -1</clus>
<clus scale="  117.540">  2  5  1 -1</clus>
<clus scale="  308.257">  1  9  2 -1</clus>
<clus scale="  297.629">  7 10 -1 -1</clus>
<clus scale="  308.257">  1  5  2 -1</clus>
</clustering>
</event>
<event>
10    2  0.5921424E-006  0.3574192E+03  0.7546771E-02  0.1075971E+00
         21   -1    0    0  503  502  0.00000000000E+00  0.00000000000E+00  0.16021596564E+04  0.16021596564E+04  0.00000000000E+00 0.  1.
         -2   -1    0    0    0  501 -0.00000000000E+00 -0.00000000000E+00 -0.59537908844E+02  0.59537908844E+02  0.00000000000E+00 0.  1.
         23    2    1    2    0    0 -0.15215075506E+03  0.14421029934E+03  0.50435603454E+03  0.55385946090E+03  0.91863105485E+02 0.  0.
         23    2    1    2    0    0 -0.28014294683E+02 -0.80492511215E+02  0.16415203904E+03  0.20625686868E+03  0.91280659986E+02 0.  0.
        -11    1    3    3    0    0 -0.13301865531E+03  0.73143336888E+02  0.38223977524E+03  0.41127990002E+03  0.00000000000E+00 0.  1.
         11    1    3    3    0    0 -0.19132099752E+02  0.71066962451E+02  0.12211625930E+03  0.14257956088E+03  0.00000000000E+00 0. -1.
        -11    1    4    4    0    0  0.32467594257E+02 -0.36031398145E+02  0.79396064126E+02  0.93038386313E+02  0.00000000000E+00 0.  1.
         11    1    4    4    0    0 -0.60481888940E+02 -0.44461113070E+02  0.84755974917E+02  0.11321848237E+03  0.00000000000E+00 0. -1.
         21    1    1    2  503  501 -0.11285684842E+02 -0.17839031045E+02  0.13758909918E+03  0.13919898680E+03  0.00000000000E+00 0.  1.
         -2    1    1    2    0  502  0.19145073458E+03 -0.45878757079E+02  0.73652457483E+03  0.76238224891E+03  0.00000000000E+00 0.  1.
<scales pt_clust_5="13000.00000" pt_clust_6="13000.00000" pt_clust_7="13000.00000" pt_clust_8="13000.00000" pt_clust_9="21.10919" pt_clust_10="13000.00000"></scales>
<clustering>
<clus scale="   21.109">  1  9  2 -1</clus>
<clus scale="   91.281">  7  8 -1 -1</clus>
<clus scale="   91.863">  5  6 -1 -1</clus>
<clus scale="  193.651">  7 10 -1 -1</clus>
<clus scale="  227.651">  2  5  1 -1</clus>
<clus scale="   21.109">  1  5  2 -1</clus>
</clustering>
</event>
<event>
10    2  0.5921424E-006  0.2067201E+03  0.7546771E-02  0.1177196E+00
         21   -1    0    0  503  502  0.00000000000E+00  0.00000000000E+00  0.16156290583E+03  0.16156290583E+03  0.00000000000E+00 0. -1.
         -1   -1    0    0    0  501 -0.00000000000E+00 -0.00000000000E+00 -0.21498564679E+03  0.21498564679E+03  0.00000000000E+00 0.  1.
         23    2    1    2    0    0 -0.44697356250E+02  0.12007091470E+02 -0.15792671665E+02  0.10168965480E+03  0.89159147115E+02 0.  0.
         23    2    1    2    0    0  0.47814991599E+02  0.46683003065E+02 -0.11661037797E+03  0.16057590441E+03  0.87869588775E+02 0.  0.
        -11    1    4    4    0    0  0.16652533104E+00  0.39738064458E+02 -0.10320737664E+03  0.11059341793E+03  0.00000000000E+00 0.  1.
         11    1    4    4    0    0  0.47648466268E+02  0.69449386075E+01 -0.13403001327E+02  0.49982486478E+02  0.00000000000E+00 0. -1.
        -13    1    3    3    0    0 -0.10441855469E+01 -0.29076555618E+02  0.16655782537E+02  0.33525385933E+02  0.00000000000E+00 0. -1.
         13    1    3    3    0    0 -0.43653170703E+02  0.41083647088E+02 -0.32448454202E+02  0.68164268870E+02  0.00000000000E+00 0.  1.
         21    1    1    2  503  501  0.25046985916E+02 -0.18508251292E+02  0.44479532453E+02  0.54298578956E+02  0.00000000000E+00 0. -1.
         -1    1    1    2    0  502 -0.28164621266E+02 -0.40181843243E+02  0.34500776211E+02  0.59984414447E+02  0.00000000000E+00 0.  1.
<scales pt_clust_5="13000.00000" pt_clust_6="13000.00000" pt_clust_7="13000.00000" pt_clust_8="13000.00000" pt_clust_9="31.14333" pt_clust_10="13000.00000"></scales>
<clustering>
<clus scale="   31.143">  1  9  2 -1</clus>
<clus scale="   87.870">  5  6 -1 -1</clus>
<clus scale="   51.109">  5 10 -1 -1</clus>
<clus scale="   89.159">  7  8 -1 -1</clus>
<clus scale="   95.948">  2  7  1 -1</clus>
<clus scale="   31.143">  1  5  2 -1</clus>
</clustering>
</event>
<event>
10    2  0.5921424E-006  0.2665345E+03  0.7546771E-02  0.1139957E+00
          2   -1    0    0  503    0 -0.00000000000E+00  0.00000000000E+00  0.27670752212E+03  0.27670752212E+03  0.00000000000E+00 0. -1.
         21   -1    0    0  501  502  0.00000000000E+00 -0.00000000000E+00 -0.73725996835E+03  0.73725996835E+03  0.00000000000E+00 0.  1.
         23    2    1    2    0    0 -0.56200441968E+02 -0.90376786301E+00  0.23089930301E+03  0.25424326611E+03  0.90365058274E+02 0.  0.
         23    2    1    2    0    0  0.80081569557E+02  0.48287664722E+02 -0.11984847795E+03  0.17675077013E+03  0.90179935275E+02 0.  0.
        -13    1    4    4    0    0  0.92261271008E+02  0.14805250725E+02 -0.77424282405E+02  0.12135014249E+03  0.00000000000E+00 0.  1.
         13    1    4    4    0    0 -0.12179701451E+02  0.33482413998E+02 -0.42424195545E+02  0.55400627633E+02  0.00000000000E+00 0. -1.
        -13    1    3    3    0    0  0.21569570637E+02  0.15964895756E+02  0.59418998971E+02  0.65197712480E+02  0.00000000000E+00 0.  1.
         13    1    3    3    0    0 -0.77770012605E+02 -0.16868663619E+02  0.17148030404E+03  0.18904555363E+03  0.00000000000E+00 0. -1.
         21    1    1    2  503  502 -0.36658500132E+02  0.10254815437E+02 -0.89361289064E+02  0.97131080787E+02  0.00000000000E+00 0. -1.
          2    1    1    2  501    0  0.12777372543E+02 -0.57638712296E+02 -0.48224198224E+03  0.48584237345E+03  0.00000000000E+00 0. -1.
<scales pt_clust_5="13000.00000" pt_clust_6="13000.00000" pt_clust_7="13000.00000" pt_clust_8="13000.00000" pt_clust_9="38.06582" pt_clust_10="13000.00000"></scales>
<clustering>
<clus scale="   38.066">  2  9  1 -1</clus>
<clus scale="   90.180">  5  6 -1 -1</clus>
<clus scale="   52.071">  5 10 -1 -1</clus>
<clus scale="   90.365">  7  8 -1 -1</clus>
<clus scale="  106.771">  1  7  2 -1</clus>
<clus scale="   38.066">  2  5  1 -1</clus>
</clustering>
</event>
<event>
10    2  0.5921424E-006  0.2365438E+03  0.7546771E-02  0.1153491E+00
         -3   -1    0    0    0  501 -0.00000000000E+00  0.00000000000E+00  0.26236923862E+03  0.26236923862E+03  0.00000000000E+00 0.  1.
         21   -1    0    0  503  502  0.00000000000E+00 -0.00000000000E+00 -0.60047180668E+03  0.60047180668E+03  0.00000000000E+00 0.  1.
         23    2    1    2    0    0  0.18634657761E+02  0.49468068039E+02  0.35780449969E+02  0.11199279599E+03  0.92020679901E+02 0.  0.
         23    2    1    2    0    0 -0.67583114720E+02 -0.55606402839E+02  0.10336621212E+03  0.16625612391E+03  0.96420825020E+02 0.  0.
        -13    1    4    4    0    0 -0.28134855096E+02 -0.53210229913E+02  0.11075175992E+03  0.12605098558E+03  0.00000000000E+00 0.  1.
         13    1    4    4    0    0 -0.39448259624E+02 -0.23961729260E+01 -0.73855478028E+01  0.40205138333E+02  0.00000000000E+00 0. -1.
        -13    1    3    3    0    0  0.41307552256E+02  0.64181824079E+02  0.37237088600E+02  0.84924797220E+02  0.00000000000E+00 0.  1.
         13    1    3    3    0    0 -0.22672894494E+02 -0.14713756040E+02 -0.14566386316E+01  0.27067998775E+02  0.00000000000E+00 0. -1.
         21    1    1    2  503  501 -0.47601881145E+02  0.37070230660E+02 -0.47940345419E+03  0.48318507114E+03  0.00000000000E+00 0.  1.
         -3    1    1    2    0  502  0.96550338104E+02 -0.30931895860E+02  0.21542240376E+01  0.10140705425E+03  0.00000000000E+00 0.  1.
<scales pt_clust_5="13000.00000" pt_clust_6="13000.00000" pt_clust_7="13000.00000" pt_clust_8="13000.00000" pt_clust_9="60.33358" pt_clust_10="13000.00000"></scales>
<clustering>
<clus scale="   60.334">  2  9  1 -1</clus>
<clus scale="   92.021">  7  8 -1 -1</clus>
<clus scale="   96.421">  5  6 -1 -1</clus>
<clus scale="   78.278">  5 10 -1 -1</clus>
<clus scale="  110.633">  1  7  2 -1</clus>
<clus scale="   60.334">  2  5  1 -1</clus>
</clustering>
</event>
<event>
10    2  0.5921424E-006  0.2842204E+03  0.7546771E-02  0.1117685E+00
         21   -1    0    0  503  502  0.00000000000E+00  0.00000000000E+00  0.44726204347E+03  0.44726204347E+03  0.00000000000E+00 0. -1.
         -2   -1    0    0    0  501 -0.00000000000E+00 -0.00000000000E+00 -0.26607478780E+03  0.26607478780E+03  0.00000000000E+00 0.  1.
         23    2    1    2    0    0 -0.50809279005E+02  0.11046806877E+03  0.47579111932E+02  0.15960123717E+03  0.91782383726E+02 0.  0.
         23    2    1    2    0    0  0.20301543734E+02  0.10439021774E+02 -0.13348279397E+03  0.16155149091E+03  0.88091441559E+02 0.  0.
        -11    1    4    4    0    0 -0.65739918189E+01  0.43083557887E+02 -0.40892717766E+02  0.59763071331E+02  0.00000000000E+00 0.  1.
         11    1    4    4    0    0  0.26875535553E+02 -0.32644536112E+02 -0.92590076199E+02  0.10178841958E+03  0.00000000000E+00 0. -1.
        -13    1    3    3    0    0 -0.67458032536E+02  0.71435163586E+02  0.33536409210E+01  0.98309794312E+02  0.00000000000E+00 0.  1.
         13    1    3    3    0    0  0.16648753531E+02  0.39032905188E+02  0.44225471011E+02  0.61291442859E+02  0.00000000000E+00 0. -1.
         21    1    1    2  503  501 -0.59900533224E+02 -0.16635567879E+03  0.21502800114E+03  0.27838700943E+03  0.00000000000E+00 0. -1.
         -2    1    1    2    0  502  0.90408268495E+02  0.45448588240E+02  0.52062936571E+02  0.11379709377E+03  0.00000000000E+00 0.  1.
<scales pt_clust_5="13000.00000" pt_clust_6="13000.00000" pt_clust_7="13000.00000" pt_clust_8="13000.00000" pt_clust_9="164.23667" pt_clust_10="13000.00000"></scales>
<clustering>
<clus scale="   88.091">  5  6 -1 -1</clus>
<clus scale="   91.782">  7  8 -1 -1</clus>
<clus scale="  101.189">  5 10 -1 -1</clus>
<clus scale="  152.344">  2  7  1 -1</clus>
<clus scale="  164.237">  1  9  2 -1</clus>
<clus scale="  164.237">  1  5  2 -1</clus>
</clustering>
</event>
<event>
10    2  0.5921424E-006  0.2406088E+03  0.7546771E-02  0.1135651E+00
          2   -1    0    0  502    0 -0.00000000000E+00  0.00000000000E+00  0.65298444085E+03  0.65298444085E+03  0.00000000000E+00 0. -1.
         21   -1    0    0  503  502  0.00000000000E+00 -0.00000000000E+00 -0.26023198507E+03  0.26023198507E+03  0.00000000000E+00 0. -1.
         23    2    1    2    0    0 -0.10975008948E+03 -0.11734887690E+03  0.30430838093E+03  0.35630783587E+03  0.92389621409E+02 0.  0.
         23    2    1    2    0    0  0.50887271618E+02  0.22392696140E+02  0.28874787746E+03  0.31300342808E+03  0.10726071976E+03 0.  0.
        -13    1    4    4    0    0  0.67158033690E+02 -0.17191405320E+02  0.23065816717E+03  0.24085044320E+03  0.00000000000E+00 0. -1.
         13    1    4    4    0    0 -0.16270762072E+02  0.39584101460E+02  0.58089710288E+02  0.72152984887E+02  0.00000000000E+00 0.  1.
        -13    1    3    3    0    0  0.16499893581E+02 -0.13229662787E+02  0.44270809088E+02  0.49062969773E+02  0.00000000000E+00 0.  1.
         13    1    3    3    0    0 -0.12624998306E+03 -0.10411921412E+03  0.26003757184E+03  0.30724486610E+03  0.00000000000E+00 0. -1.
         21    1    1    2  503  501  0.25234272777E+02  0.77402656807E+02 -0.18657392825E+03  0.20356269429E+03  0.00000000000E+00 0. -1.
          2    1    1    2  501    0  0.33628545090E+02  0.17553523956E+02 -0.13729874364E+02  0.40342467675E+02  0.00000000000E+00 0. -1.
<scales pt_clust_5="13000.00000" pt_clust_6="13000.00000" pt_clust_7="13000.00000" pt_clust_8="13000.00000" pt_clust_9="81.41216" pt_clust_10="13000.00000"></scales>
<clustering>
<clus scale="   81.412">  2  9  1 -1</clus>
<clus scale="   92.390">  7  8 -1 -1</clus>
<clus scale="  107.261">  5  6 -1 -1</clus>
<clus scale="   66.419">  5 10 -1 -1</clus>
<clus scale="  161.086">  1  7  2 -1</clus>
<clus scale="   81.412">  2  5  1 -1</clus>
</clustering>
</event>
<event>
10    2  0.5921424E-006  0.2046706E+03  0.7546771E-02  0.1173156E+00
         21   -1    0    0  503  502  0.00000000000E+00  0.00000000000E+00  0.29421907075E+03  0.29421907075E+03  0.00000000000E+00 0. -1.
          3   -1    0    0  502    0 -0.00000000000E+00 -0.00000000000E+00 -0.23979999326E+03  0.23979999326E+03  0.00000000000E+00 0. -1.
         23    2    1    2    0    0 -0.45986693891E+02 -0.34992990497E+02 -0.98230612637E+02  0.14562206315E+03  0.90649029879E+02 0.  0.
         23    2    1    2    0    0  0.12941020321E+02  0.31009725564E+02 -0.89192695657E+02  0.13424007402E+03  0.94530351892E+02 0.  0.
        -11    1    3    3    0    0  0.23192169284E+02 -0.29406920839E+02 -0.26998176929E+02  0.46168661090E+02  0.00000000000E+00 0.  1.
         11    1    3    3    0    0 -0.69178863175E+02 -0.55860696585E+01 -0.71232435708E+02  0.99453402060E+02  0.00000000000E+00 0. -1.
        -13    1    4    4    0    0 -0.17474289404E+01 -0.33761827807E+02 -0.32971720926E+02  0.47223393626E+02  0.00000000000E+00 0.  1.
         13    1    4    4    0    0  0.14688449261E+02  0.64771553371E+02 -0.56220974731E+02  0.87016680398E+02  0.00000000000E+00 0. -1.
         21    1    1    2  503  501  0.12979914715E+02 -0.27179350259E+02  0.17635339969E+03  0.17890700615E+03  0.00000000000E+00 0. -1.
          3    1    1    2  501    0  0.20065758855E+02  0.31162615192E+02  0.65488986088E+02  0.75249920684E+02  0.00000000000E+00 0. -1.
<scales pt_clust_5="13000.00000" pt_clust_6="13000.00000" pt_clust_7="13000.00000" pt_clust_8="13000.00000" pt_clust_9="30.11968" pt_clust_10="13000.00000"></scales>
<clustering>
<clus scale="   30.120">  1  9  2 -1</clus>
<clus scale="   90.649">  5  6 -1 -1</clus>
<clus scale="   94.530">  7  8 -1 -1</clus>
<clus scale="   31.563">  7 10 -1 -1</clus>
<clus scale="  108.342">  2  5  1 -1</clus>
<clus scale="   30.120">  1  5  2 -1</clus>
</clustering>
</event>
<event>
10    2  0.5921424E-006  0.2295658E+03  0.7546771E-02  0.1152389E+00
         21   -1    0    0  501  502  0.00000000000E+00  0.00000000000E+00  0.16449152998E+03  0.16449152998E+03  0.00000000000E+00 0.  1.
          2   -1    0    0  503    0 -0.00000000000E+00 -0.00000000000E+00 -0.43368611095E+03  0.43368611095E+03  0.00000000000E+00 0. -1.
         23    2    1    2    0    0 -0.48173517544E+02  0.88251907917E+02 -0.36779223664E+02  0.13040802693E+03  0.74461098244E+02 0.  0.
         23    2    1    2    0    0  0.22799787182E+02 -0.11244989512E+03 -0.25055663362E+03  0.29043538023E+03  0.91702095004E+02 0.  0.
        -11    1    3    3    0    0 -0.66220825173E+02  0.53654945160E+02 -0.18027766898E+02  0.87115160598E+02  0.00000000000E+00 0. -1.
         11    1    3    3    0    0  0.18047307629E+02  0.34596962756E+02 -0.18751456766E+02  0.43292866335E+02  0.00000000000E+00 0.  1.
        -13    1    4    4    0    0  0.77676772639E+01 -0.72399934797E+02 -0.57739030210E+02  0.92929451620E+02  0.00000000000E+00 0.  1.
         13    1    4    4    0    0  0.15032109918E+02 -0.40049960328E+02 -0.19281760341E+03  0.19750592861E+03  0.00000000000E+00 0. -1.
         21    1    1    2  503  502 -0.31279762825E+02 -0.24256202326E+02  0.74174839429E+02  0.84075523894E+02  0.00000000000E+00 0.  1.
          2    1    1    2  501    0  0.56653493187E+02  0.48454189534E+02 -0.56033563118E+02  0.93258709885E+02  0.00000000000E+00 0. -1.
<scales pt_clust_5="13000.00000" pt_clust_6="13000.00000" pt_clust_7="13000.00000" pt_clust_8="13000.00000" pt_clust_9="39.58266" pt_clust_10="13000.00000"></scales>
<clustering>
<clus scale="   39.583">  1  9  2 -1</clus>
<clus scale="   74.461">  5  6 -1 -1</clus>
<clus scale="   91.702">  7  8 -1 -1</clus>
<clus scale="   65.929">  7 10 -1 -1</clus>
<clus scale="  124.216">  2  5  1 -1</clus>
<clus scale="   39.583">  1  5  2 -1</clus>
</clustering>
</event>
<event>
10    2  0.5921424E-006  0.2822945E+03  0.7546771E-02  0.1106291E+00
          2   -1    0    0  503    0 -0.00000000000E+00  0.00000000000E+00  0.13575281754E+04  0.13575281754E+04  0.00000000000E+00 0. -1.
         21   -1    0    0  501  502  0.00000000000E+00 -0.00000000000E+00 -0.14599678523E+03  0.14599678523E+03  0.00000000000E+00 0. -1.
         23    2    1    2    0    0 -0.16993351979E+03  0.34327710711E+02  0.58082252996E+03  0.61343993670E+03  0.94328954995E+02 0.  0.
         23    2    1    2    0    0  0.37864803984E+02 -0.72771143276E+02  0.44605458333E+03  0.46235896512E+03  0.89898490746E+02 0.  0.
        -13    1    3    3    0    0 -0.12100155972E+02 -0.25776694463E+02  0.84596816340E+02  0.89260702926E+02  0.00000000000E+00 0.  1.
         13    1    3    3    0    0 -0.15783336381E+03  0.60104405174E+02  0.49622571363E+03  0.52417923377E+03  0.00000000000E+00 0. -1.
        -13    1    4    4    0    0  0.52305639280E+02 -0.49831881852E+02  0.41455228892E+03  0.42080006725E+03  0.00000000000E+00 0.  1.
         13    1    4    4    0    0 -0.14440835296E+02 -0.22939261423E+02  0.31502294414E+02  0.41558897869E+02  0.00000000000E+00 0. -1.
         21    1    1    2  503  502 -0.26763662604E+02  0.28011699892E+02 -0.96863602816E+02  0.10432404573E+03  0.00000000000E+00 0. -1.
          2    1    1    2  501    0  0.15883237841E+03  0.10431732673E+02  0.28151787968E+03  0.32340201307E+03  0.00000000000E+00 0. -1.
<scales pt_clust_5="13000.00000" pt_clust_6="13000.00000" pt_clust_7="13000.00000" pt_clust_8="13000.00000" pt_clust_9="38.74208" pt_clust_10="13000.00000"></scales>
<clustering>
<clus scale="   38.742">  2  9  1 -1</clus>
<clus scale="   89.898">  7  8 -1 -1</clus>
<clus scale="   94.329">  5  6 -1 -1</clus>
<clus scale="  148.337">  7 10 -1 -1</clus>
<clus scale="  207.619">  1  5  2 -1</clus>
<clus scale="   38.742">  2  5  1 -1</clus>
</clustering>
</event>
<event>
10    2  0.5921424E-006  0.3422784E+03  0.7546771E-02  0.1109595E+00
          1   -1    0    0  503    0 -0.00000000000E+00  0.00000000000E+00  0.14300964597E+04  0.14300964597E+04  0.00000000000E+00 0. -1.
         21   -1    0    0  501  502  0.00000000000E+00 -0.00000000000E+00 -0.44131730379E+02  0.44131730379E+02  0.00000000000E+00 0. -1.
         23    2    1    2    0    0 -0.36716483033E+02 -0.47151556659E+02  0.33152234503E+03  0.34899296169E+03  0.91201165767E+02 0.  0.
         23    2    1    2    0    0  0.65042777918E+02 -0.11764812284E+03  0.64613816148E+03  0.66591992950E+03  0.88787302062E+02 0.  0.
        -13    1    3    3    0    0 -0.14276474842E+02 -0.73118082897E+02  0.23698958772E+03  0.24842330097E+03  0.00000000000E+00 0. -1.
         13    1    3    3    0    0 -0.22440008191E+02  0.25966526238E+02  0.94532757308E+02  0.10056966072E+03  0.00000000000E+00 0.  1.
        -13    1    4    4    0    0 -0.65629522081E+01 -0.69964223141E+02  0.37272522737E+03  0.37929165557E+03  0.00000000000E+00 0.  1.
         13    1    4    4    0    0  0.71605730126E+02 -0.47683899701E+02  0.27341293411E+03  0.28662827393E+03  0.00000000000E+00 0. -1.
         21    1    1    2  503  502  0.21866090746E+02  0.29453441714E+01  0.61322459039E+01  0.22899899926E+02  0.00000000000E+00 0. -1.
          1    1    1    2  501    0 -0.50192385631E+02  0.16185433533E+03  0.40217197686E+03  0.43641539892E+03  0.00000000000E+00 0. -1.
<scales pt_clust_5="13000.00000" pt_clust_6="13000.00000" pt_clust_7="13000.00000" pt_clust_8="13000.00000" pt_clust_9="22.06357" pt_clust_10="13000.00000"></scales>
<clustering>
<clus scale="   22.064">  2  9  1 -1</clus>
<clus scale="   88.787">  7  8 -1 -1</clus>
<clus scale="   91.201">  5  6 -1 -1</clus>
<clus scale="  107.041">  1  5  2 -1</clus>
<clus scale="  154.431">  7 10 -1 -1</clus>
<clus scale="   22.064">  2  5  1 -1</clus>
</clustering>
</event>
<event>
10    2  0.5921424E-006  0.3899192E+03  0.7546771E-02  0.1067050E+00
          2   -1    0    0  503    0 -0.00000000000E+00  0.00000000000E+00  0.17223138008E+04  0.17223138008E+04  0.00000000000E+00 0. -1.
         21   -1    0    0  501  502  0.00000000000E+00 -0.00000000000E+00 -0.76156168147E+02  0.76156168147E+02  0.00000000000E+00 0.  1.
         23    2    1    2    0    0  0.12599151239E+03 -0.15346616580E+03  0.86744632801E+03  0.89468660744E+03  0.92602744624E+02 0.  0.
         23    2    1    2    0    0 -0.60107608264E+01 -0.56405994315E+02  0.97468468550E+02  0.14429236105E+03  0.90013430420E+02 0.  0.
        -11    1    3    3    0    0  0.11015838241E+03 -0.71163384897E+02  0.61010730935E+03  0.62404328815E+03  0.00000000000E+00 0.  1.
         11    1    3    3    0    0  0.15833129979E+02 -0.82302780905E+02  0.25733901866E+03  0.27064331929E+03  0.00000000000E+00 0. -1.
        -11    1    4    4    0    0 -0.34894857530E+02 -0.23173573710E+02  0.53978245593E+01  0.42235081514E+02  0.00000000000E+00 0.  1.
         11    1    4    4    0    0  0.28884096704E+02 -0.33232420606E+02  0.92070643990E+02  0.10205727954E+03  0.00000000000E+00 0. -1.
         21    1    1    2  503  502  0.16790039775E+02 -0.16858627711E+02 -0.46663133696E+01  0.24246509943E+02  0.00000000000E+00 0.  1.
          2    1    1    2  501    0 -0.13677079134E+03  0.22673078783E+03  0.68590914944E+03  0.73524449049E+03  0.00000000000E+00 0. -1.
<scales pt_clust_5="13000.00000" pt_clust_6="13000.00000" pt_clust_7="13000.00000" pt_clust_8="13000.00000" pt_clust_9="23.79325" pt_clust_10="13000.00000"></scales>
<clustering>
<clus scale="   23.793">  2  9  1 -1</clus>
<clus scale="   90.013">  7  8 -1 -1</clus>
<clus scale="   92.603">  5  6 -1 -1</clus>
<clus scale="  223.841">  1  5  2 -1</clus>
<clus scale="   92.128">  7 10 -1 -1</clus>
<clus scale="   23.793">  2  5  1 -1</clus>
</clustering>
</event>
<event>
10    2  0.5921424E-006  0.3383421E+03  0.7546771E-02  0.1109007E+00
          2   -1    0    0  503    0 -0.00000000000E+00  0.00000000000E+00  0.60643633408E+03  0.60643633408E+03  0.00000000000E+00 0. -1.
         21   -1    0    0  501  502  0.00000000000E+00 -0.00000000000E+00 -0.24345907293E+03  0.24345907293E+03  0.00000000000E+00 0. -1.
         23    2    1    2    0    0  0.31121273520E+02  0.57997124649E+02  0.34660984687E+03  0.36440814076E+03  0.91228871379E+02 0.  0.
         23    2    1    2    0    0 -0.24366114716E+02 -0.11677697604E+03  0.81461616448E+02  0.17057115151E+03  0.90708065203E+02 0.  0.
        -11    1    4    4    0    0 -0.12257807196E+02 -0.78784802664E+02 -0.15691684175E+00  0.79732826307E+02  0.00000000000E+00 0. -1.
         11    1    4    4    0    0 -0.12108307521E+02 -0.37992173377E+02  0.81618533290E+02  0.90838325201E+02  0.00000000000E+00 0.  1.
        -13    1    3    3    0    0 -0.10103233475E+02  0.19394695179E+02  0.11761981431E+02  0.24830902822E+02  0.00000000000E+00 0.  1.
         13    1    3    3    0    0  0.41224506995E+02  0.38602429470E+02  0.33484786544E+03  0.33957723794E+03  0.00000000000E+00 0. -1.
         21    1    1    2  503  502  0.10224501716E+03 -0.79286538763E+02 -0.48700263134E+02  0.13824657100E+03  0.00000000000E+00 0. -1.
          2    1    1    2  501    0 -0.10900017596E+03  0.13806639015E+03 -0.16393939026E+02  0.17666954374E+03  0.00000000000E+00 0. -1.
<scales pt_clust_5="13000.00000" pt_clust_6="13000.00000" pt_clust_7="13000.00000" pt_clust_8="13000.00000" pt_clust_9="127.95651" pt_clust_10="13000.00000"></scales>
<clustering>
<clus scale="   90.708">  5  6 -1 -1</clus>
<clus scale="   91.229">  7  8 -1 -1</clus>
<clus scale="  112.494">  1  7  2 -1</clus>
<clus scale="  127.957">  2  9  1 -1</clus>
<clus scale="  107.977">  5 10 -1 -1</clus>
<clus scale="  127.957">  2  5  1 -1</clus>
</clustering>
</event>
<event>
10    2  0.5921424E-006  0.1634406E+03  0.7546771E-02  0.1201781E+00
          2   -1    0    0  503    0 -0.00000000000E+00  0.00000000000E+00  0.10482780392E+03  0.10482780392E+03  0.00000000000E+00 0. -1.
         21   -1    0    0  501  502  0.00000000000E+00 -0.00000000000E+00 -0.50748724960E+03  0.50748724960E+03  0.00000000000E+00 0. -1.
         23    2    1    2    0    0 -0.42963441916E+02 -0.64721346872E+02 -0.21138029011E+03  0.24266410332E+03  0.90385451897E+02 0.  0.
         23    2    1    2    0    0  0.92541658925E+01  0.20667757662E+02  0.47261805669E+02  0.10622952798E+03  0.92402589499E+02 0.  0.
        -11    1    3    3    0    0  0.61999261350E+01 -0.67410731769E+02 -0.98571271072E+02  0.11957818080E+03  0.00000000000E+00 0.  1.
         11    1    3    3    0    0 -0.49163368051E+02  0.26893848965E+01 -0.11280901903E+03  0.12308592253E+03  0.00000000000E+00 0. -1.
        -13    1    4    4    0    0 -0.16470482107E+02  0.41983266423E+02  0.55801322097E+02  0.71747188016E+02  0.00000000000E+00 0. -1.
         13    1    4    4    0    0  0.25724647999E+02 -0.21315508761E+02 -0.85395164281E+01  0.34482339962E+02  0.00000000000E+00 0.  1.
         21    1    1    2  503  502  0.35444318498E+02 -0.79492963603E+00 -0.20327014365E+03  0.20633875769E+03  0.00000000000E+00 0. -1.
          2    1    1    2  501    0 -0.17350424747E+01  0.44848518847E+02 -0.35270817595E+02  0.57082664522E+02  0.00000000000E+00 0. -1.
<scales pt_clust_5="13000.00000" pt_clust_6="13000.00000" pt_clust_7="13000.00000" pt_clust_8="13000.00000" pt_clust_9="35.45323" pt_clust_10="13000.00000"></scales>
<clustering>
<clus scale="   35.453">  2  9  1 -1</clus>
<clus scale="   90.385">  5  6 -1 -1</clus>
<clus scale="   92.403">  7  8 -1 -1</clus>
<clus scale="   44.878">  7 10 -1 -1</clus>
<clus scale="  112.713">  1  5  2 -1</clus>
<clus scale="   35.453">  2  5  1 -1</clus>
</clustering>
</event>
<event>
10    2  0.5921424E-006  0.4377273E+03  0.7546771E-02  0.1048141E+00
         21   -1    0    0  501  502  0.00000000000E+00  0.00000000000E+00  0.29954598196E+03  0.29954598196E+03  0.00000000000E+00 0. -1.
          4   -1    0    0  503    0 -0.00000000000E+00 -0.00000000000E+00 -0.76273199286E+03  0.76273199286E+03  0.00000000000E+00 0. -1.
         23    2    1    2    0    0  0.23425354647E+03 -0.88405033356E+02 -0.23582249701E+03  0.35685575437E+03  0.95097872605E+02 0.  0.
         23    2    1    2    0    0 -0.44054637343E+02 -0.12956756483E+02 -0.27464795131E+03  0.29343378048E+03  0.92537547803E+02 0.  0.
        -13    1    3    3    0    0  0.14115333305E+03 -0.18533921624E+02 -0.83145424127E+02  0.16486640420E+03  0.00000000000E+00 0. -1.
         13    1    3    3    0    0  0.93100213427E+02 -0.69871111732E+02 -0.15267707288E+03  0.19198935017E+03  0.00000000000E+00 0.  1.
        -13    1    4    4    0    0 -0.83988172181E+01  0.37187851206E+02 -0.14496883449E+03  0.14989809666E+03  0.00000000000E+00 0. -1.
         13    1    4    4    0    0 -0.35655820125E+02 -0.50144607689E+02 -0.12967911682E+03  0.14353568382E+03  0.00000000000E+00 0.  1.
         21    1    1    2  503  502 -0.47444268796E+02 -0.11030184631E+03  0.93942600161E+02  0.15245546257E+03  0.00000000000E+00 0.  1.
          4    1    1    2  501    0 -0.14275464033E+03  0.21166363615E+03 -0.46658162738E+02  0.25953297740E+03  0.00000000000E+00 0. -1.
<scales pt_clust_5="13000.00000" pt_clust_6="13000.00000" pt_clust_7="13000.00000" pt_clust_8="13000.00000" pt_clust_9="120.07271" pt_clust_10="13000.00000"></scales>
<clustering>
<clus scale="   92.538">  7  8 -1 -1</clus>
<clus scale="   95.098">  5  6 -1 -1</clus>
<clus scale="  120.073">  1  9  2 -1</clus>
<clus scale="  224.556">  7 10 -1 -1</clus>
<clus scale="  269.251">  2  5  1 -1</clus>
<clus scale="  120.073">  1  5  2 -1</clus>
</clustering>
</event>
<event>
10    2  0.5921424E-006  0.2703521E+03  0.7546771E-02  0.1134085E+00
          2   -1    0    0  503    0 -0.00000000000E+00  0.00000000000E+00  0.50183168004E+03  0.50183168004E+03  0.00000000000E+00 0. -1.
         21   -1    0    0  501  502  0.00000000000E+00 -0.00000000000E+00 -0.10260340716E+03  0.10260340716E+03  0.00000000000E+00 0. -1.
         23    2    1    2    0    0 -0.69491331485E+02  0.31531770549E+02  0.66758838499E+02  0.13546666537E+03  0.89839730652E+02 0.  0.
         23    2    1    2    0    0 -0.17014767339E+02 -0.31278307459E+02  0.29690897295E+03  0.31324289897E+03  0.93264895387E+02 0.  0.
        -11    1    3    3    0    0 -0.88201361238E+02  0.40346150629E+02  0.57967245952E+02  0.11299333431E+03  0.00000000000E+00 0. -1.
         11    1    3    3    0    0  0.18710029753E+02 -0.88143800804E+01  0.87915925475E+01  0.22473331063E+02  0.00000000000E+00 0.  1.
        -13    1    4    4    0    0 -0.25975923101E+01  0.33343952655E+02  0.91063799770E+02  0.97011248281E+02  0.00000000000E+00 0.  1.
         13    1    4    4    0    0 -0.14417175029E+02 -0.64622260114E+02  0.20584517318E+03  0.21623165069E+03  0.00000000000E+00 0. -1.
         21    1    1    2  503  502  0.30114554489E+02  0.47985620238E+02  0.55056244006E+02  0.78998076848E+02  0.00000000000E+00 0.  1.
          2    1    1    2  501    0  0.56391544335E+02 -0.48239083328E+02 -0.19495782570E+02  0.76727446008E+02  0.00000000000E+00 0. -1.
<scales pt_clust_5="13000.00000" pt_clust_6="13000.00000" pt_clust_7="13000.00000" pt_clust_8="13000.00000" pt_clust_9="56.65253" pt_clust_10="13000.00000"></scales>
<clustering>
<clus scale="   56.653">  2  9  1 -1</clus>
<clus scale="   89.840">  5  6 -1 -1</clus>
<clus scale="   93.265">  7  8 -1 -1</clus>
<clus scale="   75.874">  7 10 -1 -1</clus>
<clus scale="  117.967">  1  5  2 -1</clus>
<clus scale="   56.653">  2  5  1 -1</clus>
</clustering>
</event>
<event>
10    2  0.5921424E-006  0.2316336E+03  0.7546771E-02  0.1140768E+00
         21   -1    0    0  501  502  0.00000000000E+00  0.00000000000E+00  0.14133026226E+03  0.14133026226E+03  0.00000000000E+00 0.  1.
         -1   -1    0    0    0  501 -0.00000000000E+00 -0.00000000000E+00 -0.51553006155E+03  0.51553006155E+03  0.00000000000E+00 0.  1.
         23    2    1    2    0    0  0.13772404139E+03 -0.21269736625E+02 -0.12296716978E+03  0.20923378284E+03  0.96112110392E+02 0.  0.
         23    2    1    2    0    0 -0.60099468626E+02 -0.44694662799E+02 -0.24553005004E+03  0.27065979088E+03  0.85803018095E+02 0.  0.
        -13    1    4    4    0    0 -0.58672569133E+02  0.59088006285E+01 -0.16815889219E+03  0.17819875790E+03  0.00000000000E+00 0.  1.
         13    1    4    4    0    0 -0.14268994928E+01 -0.50603463428E+02 -0.77371157852E+02  0.92461032984E+02  0.00000000000E+00 0. -1.
        -13    1    3    3    0    0  0.73201218959E+01  0.23119549201E+02 -0.44557360353E+02  0.50729243060E+02  0.00000000000E+00 0. -1.
         13    1    3    3    0    0  0.13040391950E+03 -0.44389285826E+02 -0.78409809427E+02  0.15850453978E+03  0.00000000000E+00 0.  1.
         21    1    1    2  503  502 -0.24637365079E+02 -0.10332977522E+02  0.58320596860E+02  0.64148750577E+02  0.00000000000E+00 0.  1.
         -1    1    1    2    0  503 -0.52987207689E+02  0.76297376947E+02 -0.64023176330E+02  0.11281799952E+03  0.00000000000E+00 0.  1.
<scales pt_clust_5="13000.00000" pt_clust_6="13000.00000" pt_clust_7="13000.00000" pt_clust_8="13000.00000" pt_clust_9="26.71648" pt_clust_10="13000.00000"></scales>
<clustering>
<clus scale="   26.716">  1  9  2 -1</clus>
<clus scale="   85.803">  5  6 -1 -1</clus>
<clus scale="   94.922">  5 10 -1 -1</clus>
<clus scale="   96.112">  7  8 -1 -1</clus>
<clus scale="  159.521">  2  7  1 -1</clus>
<clus scale="   26.716">  1  5  2 -1</clus>
</clustering>
</event>
<event>
10    2  0.5921424E-006  0.1443444E+03  0.7546771E-02  0.1217801E+00
          1   -1    0    0  502    0 -0.00000000000E+00  0.00000000000E+00  0.41691650617E+03  0.41691650617E+03  0.00000000000E+00 0. -1.
         21   -1    0    0  503  502  0.00000000000E+00 -0.00000000000E+00 -0.14416103265E+03  0.14416103265E+03  0.00000000000E+00 0.  1.
         23    2    1    2    0    0  0.16262097333E+02 -0.86413689110E+02  0.22436584981E+03  0.25741699627E+03  0.90507977177E+02 0.  0.
         23    2    1    2    0    0 -0.10015365014E+02  0.16119101102E+02  0.14509419939E+03  0.16565562387E+03  0.77648735119E+02 0.  0.
        -13    1    3    3    0    0 -0.25277912623E+02 -0.60316569704E+02  0.17909840783E+03  0.19066541673E+03  0.00000000000E+00 0.  1.
         13    1    3    3    0    0  0.41540009956E+02 -0.26097119406E+02  0.45267441980E+02  0.66751579546E+02  0.00000000000E+00 0. -1.
        -13    1    4    4    0    0  0.11576756038E+02  0.33661050414E+02  0.12832963832E+03  0.13317501142E+03  0.00000000000E+00 0.  1.
         13    1    4    4    0    0 -0.21592121051E+02 -0.17541949311E+02  0.16764561071E+02  0.32480612449E+02  0.00000000000E+00 0. -1.
         21    1    1    2  503  501 -0.90441444930E+01  0.37738540158E+02 -0.97895922036E+02  0.10530719593E+03  0.00000000000E+00 0.  1.
          1    1    1    2  501    0  0.27974121735E+01  0.32556047850E+02  0.11913463524E+01  0.32697722743E+02  0.00000000000E+00 0. -1.
<scales pt_clust_5="13000.00000" pt_clust_6="13000.00000" pt_clust_7="13000.00000" pt_clust_8="13000.00000" pt_clust_9="38.80714" pt_clust_10="13000.00000"></scales>
<clustering>
<clus scale="   38.807">  2  9  1 -1</clus>
<clus scale="   77.649">  7  8 -1 -1</clus>
<clus scale="   46.528">  7 10 -1 -1</clus>
<clus scale="   90.508">  5  6 -1 -1</clus>
<clus scale="  116.206">  1  5  2 -1</clus>
<clus scale="   38.807">  2  5  1 -1</clus>
</clustering>
</event>
<event>
10    2  0.5921424E-006  0.2024628E+03  0.7546771E-02  0.1152838E+00
         21   -1    0    0  501  502  0.00000000000E+00  0.00000000000E+00  0.21243579163E+03  0.21243579163E+03  0.00000000000E+00 0.  1.
          2   -1    0    0  503    0 -0.00000000000E+00 -0.00000000000E+00 -0.38355072873E+03  0.38355072873E+03  0.00000000000E+00 0. -1.
         23    2    1    2    0    0 -0.91318308184E+02 -0.18192986001E+03 -0.73579014366E+02  0.23450212670E+03  0.90221220885E+02 0.  0.
         23    2    1    2    0    0 -0.11814183321E+02  0.67607632926E+02 -0.13124795061E+02  0.11614781962E+03  0.92777630927E+02 0.  0.
        -11    1    3    3    0    0  0.78592768427E+01 -0.60881501643E+02 -0.43271722528E+02  0.75105042742E+02  0.00000000000E+00 0. -1.
         11    1    3    3    0    0 -0.99177585027E+02 -0.12104835836E+03 -0.30307291838E+02  0.15939708395E+03  0.00000000000E+00 0.  1.
        -11    1    4    4    0    0 -0.24999632484E+02  0.27570763090E+02  0.35750422242E+02  0.51606407472E+02  0.00000000000E+00 0.  1.
         11    1    4    4    0    0  0.13185449163E+02  0.40036869836E+02 -0.48875217304E+02  0.64541412151E+02  0.00000000000E+00 0. -1.
         21    1    1    2  503  502  0.14675024841E+03  0.54991537998E+02 -0.58103942042E+02  0.16713997948E+03  0.00000000000E+00 0.  1.
          2    1    1    2  501    0 -0.43617756910E+02  0.59330689082E+02 -0.26307185631E+02  0.78196594559E+02  0.00000000000E+00 0. -1.
<scales pt_clust_5="13000.00000" pt_clust_6="13000.00000" pt_clust_7="13000.00000" pt_clust_8="13000.00000" pt_clust_9="156.71544" pt_clust_10="13000.00000"></scales>
<clustering>
<clus scale="   90.221">  5  6 -1 -1</clus>
<clus scale="   92.778">  7  8 -1 -1</clus>
<clus scale="   73.639">  7 10 -1 -1</clus>
<clus scale="  156.715">  1  9  2 -1</clus>
<clus scale="  179.171">  2  5  1 -1</clus>
<clus scale="  156.715">  1  5  2 -1</clus>
</clustering>
</event>
<event>
10    2  0.5921424E-006  0.2636076E+03  0.7546771E-02  0.1146962E+00
         21   -1    0    0  503  502  0.00000000000E+00  0.00000000000E+00  0.17363588626E+03  0.17363588626E+03  0.00000000000E+00 0.  1.
          1   -1    0    0  502    0 -0.00000000000E+00 -0.00000000000E+00 -0.48688829467E+03  0.48688829467E+03  0.00000000000E+00 0. -1.
         23    2    1    2    0    0  0.15170782419E+02  0.17118044573E+02  0.78478146191E+01  0.93635674927E+02  0.90459224712E+02 0.  0.
         23    2    1    2    0    0  0.23168781387E+02 -0.42059333307E+02 -0.26696943360E+03  0.28647840305E+03  0.92148884915E+02 0.  0.
        -11    1    4    4    0    0 -0.24811588944E+02  0.15200192908E+02 -0.80812449765E+02  0.85891285049E+02  0.00000000000E+00 0.  1.
         11    1    4    4    0    0  0.47980370331E+02 -0.57259526215E+02 -0.18615698383E+03  0.20058711800E+03  0.00000000000E+00 0. -1.
        -13    1    3    3    0    0  0.46118362911E+02 -0.14527683052E+02 -0.15867628463E+01  0.48378453766E+02  0.00000000000E+00 0. -1.
         13    1    3    3    0    0 -0.30947580492E+02  0.31645727625E+02  0.94345774654E+01  0.45257221161E+02  0.00000000000E+00 0.  1.
         21    1    1    2  503  501 -0.89290404885E+02 -0.86336633562E+02  0.34958876538E+02  0.12903066980E+03  0.00000000000E+00 0.  1.
          1    1    1    2  501    0  0.50950841078E+02  0.11127792230E+03 -0.89089665971E+02  0.15137943315E+03  0.00000000000E+00 0. -1.
<scales pt_clust_5="13000.00000" pt_clust_6="13000.00000" pt_clust_7="13000.00000" pt_clust_8="13000.00000" pt_clust_9="121.78883" pt_clust_10="13000.00000"></scales>
<clustering>
<clus scale="   90.459">  7  8 -1 -1</clus>
<clus scale="   92.149">  5  6 -1 -1</clus>
<clus scale="   93.306">  2  7  1 -1</clus>
<clus scale="  121.789">  1  9  2 -1</clus>
<clus scale="   76.404">  5 10 -1 -1</clus>
<clus scale="  121.789">  1  5  2 -1</clus>
</clustering>
</event>
<event>
10    2  0.5921424E-006  0.1480295E+03  0.7546771E-02  0.1222972E+00
         21   -1    0    0  503  502  0.00000000000E+00  0.00000000000E+00  0.33980372117E+03  0.33980372117E+03  0.00000000000E+00 0.  1.
         -3   -1    0    0    0  501 -0.00000000000E+00 -0.00000000000E+00 -0.20273901452E+03  0.20273901452E+03  0.00000000000E+00 0.  1.
         23    2    1    2    0    0 -0.18831692989E+02 -0.16769514265E+02 -0.14317902280E+03  0.17269415284E+03  0.93205088827E+02 0.  0.
         23    2    1    2    0    0  0.34103324956E+02  0.31766610850E+02  0.14836778970E+03  0.18030282400E+03  0.91235700162E+02 0.  0.
        -13    1    4    4    0    0  0.24326900431E+02 -0.29827071799E+02  0.41750437983E+02  0.56785133340E+02  0.00000000000E+00 0.  1.
         13    1    4    4    0    0  0.97764245252E+01  0.61593682650E+02  0.10661735171E+03  0.12351769066E+03  0.00000000000E+00 0. -1.
        -13    1    3    3    0    0  0.28243140371E+02  0.21807206771E+02 -0.51643118893E+02  0.62771338795E+02  0.00000000000E+00 0. -1.
         13    1    3    3    0    0 -0.47074833361E+02 -0.38576721036E+02 -0.91535903911E+02  0.10992281404E+03  0.00000000000E+00 0.  1.
         21    1    1    2  503  501  0.27113175153E+02 -0.40382538351E+02 -0.84092581101E-01  0.48640320127E+02  0.00000000000E+00 0.  1.
         -3    1    1    2    0  502 -0.42384807120E+02  0.25385441766E+02  0.13196003235E+03  0.14090543873E+03  0.00000000000E+00 0.  1.
<scales pt_clust_5="13000.00000" pt_clust_6="13000.00000" pt_clust_7="13000.00000" pt_clust_8="13000.00000" pt_clust_9="48.64027" pt_clust_10="13000.00000"></scales>
<clustering>
<clus scale="   48.640">  1  9  2 -1</clus>
<clus scale="   91.236">  5  6 -1 -1</clus>
<clus scale="   31.669">  5 10 -1 -1</clus>
<clus scale="   93.205">  7  8 -1 -1</clus>
<clus scale="   96.663">  2  7  1 -1</clus>
<clus scale="   48.640">  1  5  2 -1</clus>
</clustering>
</event>
<event>
10    2  0.5921424E-006  0.2705104E+03  0.7546771E-02  0.1120621E+00
          1   -1    0    0  502    0 -0.00000000000E+00  0.00000000000E+00  0.99863209420E+03  0.99863209420E+03  0.00000000000E+00 0. -1.
         21   -1    0    0  503  502  0.00000000000E+00 -0.00000000000E+00 -0.12512237773E+03  0.12512237773E+03  0.00000000000E+00 0. -1.
         23    2    1    2    0    0 -0.57266650982E+02  0.10667756716E+03  0.44337101610E+03  0.46851443804E+03  0.90930457385E+02 0.  0.
         23    2    1    2    0    0 -0.58311435455E+01 -0.42076069180E+02  0.26658499338E+03  0.28538098002E+03  0.92576169874E+02 0.  0.
        -11    1    4    4    0    0  0.31140491494E+02 -0.30930522529E+02  0.55324201453E+02  0.70620072932E+02  0.00000000000E+00 0.  1.
         11    1    4    4    0    0 -0.36971635040E+02 -0.11145546652E+02  0.21126079192E+03  0.21476090708E+03  0.00000000000E+00 0. -1.
        -13    1    3    3    0    0 -0.25745027836E+02  0.98580092989E+02  0.40765492016E+03  0.42019444918E+03  0.00000000000E+00 0. -1.
         13    1    3    3    0    0 -0.31521623146E+02  0.80974741754E+01  0.35716095940E+02  0.48319988855E+02  0.00000000000E+00 0.  1.
         21    1    1    2  503  501  0.58920974908E+02  0.12394679498E+03  0.35042688891E+02  0.14164208173E+03  0.00000000000E+00 0. -1.
          1    1    1    2  501    0  0.41768196190E+01 -0.18854829297E+03  0.12851101810E+03  0.22821697215E+03  0.00000000000E+00 0. -1.
<scales pt_clust_5="13000.00000" pt_clust_6="13000.00000" pt_clust_7="13000.00000" pt_clust_8="13000.00000" pt_clust_9="137.23880" pt_clust_10="13000.00000"></scales>
<clustering>
<clus scale="   90.930">  7  8 -1 -1</clus>
<clus scale="   92.576">  5  6 -1 -1</clus>
<clus scale="  137.239">  2  9  1 -1</clus>
<clus scale="  111.987">  5 10 -1 -1</clus>
<clus scale="  164.172">  1  7  2 -1</clus>
<clus scale="  137.239">  2  5  1 -1</clus>
</clustering>
</event>
<event>
10    2  0.5921424E-006  0.1906185E+03  0.7546771E-02  0.1179748E+00
         21   -1    0    0  501  502  0.00000000000E+00  0.00000000000E+00  0.84055090207E+02  0.84055090207E+02  0.00000000000E+00 0. -1.
          1   -1    0    0  503    0 -0.00000000000E+00 -0.00000000000E+00 -0.36880324952E+03  0.36880324952E+03  0.00000000000E+00 0. -1.
         23    2    1    2    0    0  0.80948453311E+02 -0.30210752480E+02 -0.90370676067E+02  0.15462543795E+03  0.90977059256E+02 0.  0.
         23    2    1    2    0    0 -0.62176826291E+02  0.63072459983E+02 -0.17987696449E+03  0.22282921438E+03  0.97226763236E+02 0.  0.
        -13    1    4    4    0    0 -0.66000990976E+02 -0.25364962531E+00 -0.11137373183E+03  0.12946159002E+03  0.00000000000E+00 0. -1.
         13    1    4    4    0    0  0.38241646847E+01  0.63326109609E+02 -0.68503232665E+02  0.93367624363E+02  0.00000000000E+00 0.  1.
        -13    1    3    3    0    0  0.71401653515E+02  0.19794511759E+02 -0.46971159880E+02  0.87728608110E+02  0.00000000000E+00 0. -1.
         13    1    3    3    0    0  0.95467997952E+01 -0.50005264238E+02 -0.43399516187E+02  0.66896829843E+02  0.00000000000E+00 0.  1.
         21    1    1    2  503  502 -0.36639073667E+02 -0.76652369954E+00 -0.12095517943E+02  0.38591590173E+02  0.00000000000E+00 0. -1.
          1    1    1    2  501    0  0.17867446648E+02 -0.32095183804E+02 -0.24050008126E+01  0.36812097224E+02  0.00000000000E+00 0. -1.
<scales pt_clust_5="13000.00000" pt_clust_6="13000.00000" pt_clust_7="13000.00000" pt_clust_8="13000.00000" pt_clust_9="36.64709" pt_clust_10="13000.00000"></scales>
<clustering>
<clus scale="   36.647">  1  9  2 -1</clus>
<clus scale="   90.977">  7  8 -1 -1</clus>
<clus scale="   97.227">  5  6 -1 -1</clus>
<clus scale="   33.503">  5 10 -1 -1</clus>
<clus scale="  115.535">  2  7  1 -1</clus>
<clus scale="   36.647">  1  5  2 -1</clus>
</clustering>
</event>
<event>
10    2  0.5921424E-006  0.4438614E+03  0.7546771E-02  0.1048081E+00
          1   -1    0    0  502    0 -0.00000000000E+00  0.00000000000E+00  0.46163273933E+03  0.46163273933E+03  0.00000000000E+00 0. -1.
         21   -1    0    0  503  502  0.00000000000E+00 -0.00000000000E+00 -0.55610992413E+03  0.55610992413E+03  0.00000000000E+00 0.  1.
         23    2    1    2    0    0 -0.10639026889E+03 -0.18842730441E+03  0.26096514335E+02  0.23676458398E+03  0.92480818575E+02 0.  0.
         23    2    1    2    0    0 -0.19017813707E+02 -0.20017334244E+02  0.15134063374E+03  0.17918257530E+03  0.91869673780E+02 0.  0.
        -11    1    4    4    0    0 -0.45775773367E+02  0.10714001853E+02  0.11629025085E+03  0.12543378215E+03  0.00000000000E+00 0. -1.
         11    1    4    4    0    0  0.26757959660E+02 -0.30731336097E+02  0.35050382895E+02  0.53748793145E+02  0.00000000000E+00 0.  1.
        -13    1    3    3    0    0 -0.31610136921E+02 -0.76267585694E+02 -0.33855910401E+02  0.89230981463E+02  0.00000000000E+00 0.  1.
         13    1    3    3    0    0 -0.74780131964E+02 -0.11215971872E+03  0.59952424735E+02  0.14753360252E+03  0.00000000000E+00 0. -1.
         21    1    1    2  503  501  0.48898330982E+02 -0.97304156168E+02 -0.26504441768E+03  0.28654439259E+03  0.00000000000E+00 0. -1.
          1    1    1    2  501    0  0.76509751611E+02  0.30574879483E+03 -0.68699151971E+01  0.31525111160E+03  0.00000000000E+00 0. -1.
<scales pt_clust_5="13000.00000" pt_clust_6="13000.00000" pt_clust_7="13000.00000" pt_clust_8="13000.00000" pt_clust_9="108.89970" pt_clust_10="13000.00000"></scales>
<clustering>
<clus scale="   91.870">  5  6 -1 -1</clus>
<clus scale="   92.481">  7  8 -1 -1</clus>
<clus scale="  108.900">  2  9  1 -1</clus>
<clus scale="  258.690">  1  7  2 -1</clus>
<clus scale="  171.980">  5 10 -1 -1</clus>
<clus scale="  108.900">  2  5  1 -1</clus>
</clustering>
</event>
<event>
10    2  0.5921424E-006  0.1832793E+03  0.7546771E-02  0.1191197E+00
          2   -1    0    0  503    0 -0.00000000000E+00  0.00000000000E+00  0.72937154985E+02  0.72937154985E+02  0.00000000000E+00 0. -1.
         21   -1    0    0  501  502  0.00000000000E+00 -0.00000000000E+00 -0.47805984835E+03  0.47805984835E+03  0.00000000000E+00 0. -1.
         23    2    1    2    0    0 -0.48957715969E+01  0.44400029620E+02 -0.42505406511E+02  0.11015245718E+03  0.91277176943E+02 0.  0.
         23    2    1    2    0    0  0.92917163728E+01 -0.44682240449E+02 -0.37286987974E+02  0.10638670026E+03  0.88571846062E+02 0.  0.
        -13    1    4    4    0    0 -0.19741451239E+02 -0.60437387584E+02 -0.36568886201E+02  0.73346343829E+02  0.00000000000E+00 0.  1.
         13    1    4    4    0    0  0.29033167612E+02  0.15755147135E+02 -0.71810177274E+00  0.33040356429E+02  0.00000000000E+00 0. -1.
        -13    1    3    3    0    0  0.21425212352E+02  0.16776913692E+02 -0.61704904137E+02  0.67438859362E+02  0.00000000000E+00 0.  1.
         13    1    3    3    0    0 -0.26320983949E+02  0.27623115927E+02  0.19199497627E+02  0.42713597820E+02  0.00000000000E+00 0. -1.
         21    1    1    2  503  502 -0.36992177384E+02 -0.16953128390E+02 -0.16538032681E+03  0.17031289512E+03  0.00000000000E+00 0.  1.
          2    1    1    2  501    0  0.32596232608E+02  0.17235339220E+02 -0.15994997208E+03  0.16414495078E+03  0.00000000000E+00 0. -1.
<scales pt_clust_5="13000.00000" pt_clust_6="13000.00000" pt_clust_7="13000.00000" pt_clust_8="13000.00000" pt_clust_9="40.69189" pt_clust_10="13000.00000"></scales>
<clustering>
<clus scale="   40.692">  2  9  1 -1</clus>
<clus scale="   88.572">  5  6 -1 -1</clus>
<clus scale="   15.696">  5 10 -1 -1</clus>
<clus scale="   91.277">  7  8 -1 -1</clus>
<clus scale="  100.726">  1  7  2 -1</clus>
<clus scale="   40.692">  2  5  1 -1</clus>
</clustering>
</event>
<event>
10    2  0.5921424E-006  0.1586246E+03  0.7546771E-02  0.1215190E+00
         21   -1    0    0  503  502  0.00000000000E+00  0.00000000000E+00  0.69716735152E+02  0.69716735152E+02  0.00000000000E+00 0.  1.
          2   -1    0    0  502    0 -0.00000000000E+00 -0.00000000000E+00 -0.28983696053E+03  0.28983696053E+03  0.00000000000E+00 0. -1.
         23    2    1    2    0    0 -0.11640679595E+02 -0.25190146098E+02 -0.46180027099E+02  0.10499763729E+03  0.90121362905E+02 0.  0.
         23    2    1    2    0    0  0.40833993867E+02  0.43212244073E+02 -0.13634398892E+03  0.17591416207E+03  0.93922287073E+02 0.  0.
        -11    1    4    4    0    0  0.35128630420E+02  0.72527479452E+02 -0.90275549148E+02  0.12101210983E+03  0.00000000000E+00 0.  1.
         11    1    4    4    0    0  0.57053634469E+01 -0.29315235379E+02 -0.46068439769E+02  0.54902052239E+02  0.00000000000E+00 0. -1.
        -13    1    3    3    0    0  0.28438713584E+02  0.18864285103E+02 -0.11151040559E+02  0.35902191971E+02  0.00000000000E+00 0.  1.
         13    1    3    3    0    0 -0.40079393179E+02 -0.44054431201E+02 -0.35028986539E+02  0.69095445320E+02  0.00000000000E+00 0. -1.
         21    1    1    2  503  501 -0.61072352211E+01  0.20907967112E+02 -0.36953156621E+01  0.22092912181E+02  0.00000000000E+00 0.  1.
          2    1    1    2  501    0 -0.23086079051E+02 -0.38930065088E+02 -0.33900893697E+02  0.56548984139E+02  0.00000000000E+00 0. -1.
<scales pt_clust_5="13000.00000" pt_clust_6="13000.00000" pt_clust_7="13000.00000" pt_clust_8="13000.00000" pt_clust_9="21.78168" pt_clust_10="13000.00000"></scales>
<clustering>
<clus scale="   21.782">  1  9  2 -1</clus>
<clus scale="   90.121">  7  8 -1 -1</clus>
<clus scale="   92.527">  2  7  1 -1</clus>
<clus scale="   93.922">  5  6 -1 -1</clus>
<clus scale="   46.862">  5 10 -1 -1</clus>
<clus scale="   21.782">  1  5  2 -1</clus>
</clustering>
</event>
<event>
10    2  0.5921424E-006  0.2114476E+03  0.7546771E-02  0.1163073E+00
         21   -1    0    0  501  502  0.00000000000E+00  0.00000000000E+00  0.13111240373E+03  0.13111240373E+03  0.00000000000E+00 0. -1.
          3   -1    0    0  503    0 -0.00000000000E+00 -0.00000000000E+00 -0.67972382561E+03  0.67972382561E+03  0.00000000000E+00 0. -1.
         23    2    1    2    0    0  0.56283774089E+02  0.53340139975E+02 -0.31381702004E+03  0.33576610510E+03  0.90800448846E+02 0.  0.
         23    2    1    2    0    0 -0.81049996519E+02 -0.49020246216E+02  0.44192435073E+02  0.13893294571E+03  0.91527622123E+02 0.  0.
        -11    1    3    3    0    0  0.39533883851E+02  0.39935567287E+02 -0.30861746997E+03  0.31369175997E+03  0.00000000000E+00 0. -1.
         11    1    3    3    0    0  0.16749890239E+02  0.13404572689E+02 -0.51995500757E+01  0.22074345131E+02  0.00000000000E+00 0.  1.
        -11    1    4    4    0    0 -0.29712794407E+02  0.19551432030E+02 -0.10761909607E+02  0.37160830780E+02  0.00000000000E+00 0.  1.
         11    1    4    4    0    0 -0.51337202112E+02 -0.68571678247E+02  0.54954344680E+02  0.10177211493E+03  0.00000000000E+00 0. -1.
         21    1    1    2  503  502  0.23752009872E+02  0.81811437155E+02 -0.20712475538E+03  0.22395966939E+03  0.00000000000E+00 0. -1.
          3    1    1    2  501    0  0.10142125574E+01 -0.86131330914E+02 -0.71862081535E+02  0.11217750913E+03  0.00000000000E+00 0. -1.
<scales pt_clust_5="13000.00000" pt_clust_6="13000.00000" pt_clust_7="13000.00000" pt_clust_8="13000.00000" pt_clust_9="85.18965" pt_clust_10="13000.00000"></scales>
<clustering>
<clus scale="   85.190">  1  9  2 -1</clus>
<clus scale="   90.800">  5  6 -1 -1</clus>
<clus scale="   91.528">  7  8 -1 -1</clus>
<clus scale="   72.857">  7 10 -1 -1</clus>
<clus scale="  123.837">  2  5  1 -1</clus>
<clus scale="   85.190">  1  5  2 -1</clus>
</clustering>
</event>
<event>
10    2  0.5921424E-006  0.1668684E+03  0.7546771E-02  0.1198050E+00
          1   -1    0    0  503    0 -0.00000000000E+00  0.00000000000E+00  0.63619327622E+03  0.63619327622E+03  0.00000000000E+00 0. -1.
         21   -1    0    0  501  502  0.00000000000E+00 -0.00000000000E+00 -0.63324552159E+02  0.63324552159E+02  0.00000000000E+00 0.  1.
         23    2    1    2    0    0  0.36974712305E+02 -0.60123297638E+02  0.42556732852E+03  0.44055333417E+03  0.89430134041E+02 0.  0.
         23    2    1    2    0    0 -0.45436257310E+01  0.12453034615E+01  0.89714189352E+02  0.12986856849E+03  0.93781735939E+02 0.  0.
        -13    1    3    3    0    0 -0.26418582673E+02 -0.33088646911E+02  0.21041072474E+03  0.21462868669E+03  0.00000000000E+00 0. -1.
         13    1    3    3    0    0  0.63393294978E+02 -0.27034650727E+02  0.21515660378E+03  0.22592464748E+03  0.00000000000E+00 0.  1.
        -13    1    4    4    0    0 -0.26676702811E+02  0.40340586589E+02  0.39097817958E+02  0.62190423445E+02  0.00000000000E+00 0. -1.
         13    1    4    4    0    0  0.22133077080E+02 -0.39095283128E+02  0.50616371394E+02  0.67678145047E+02  0.00000000000E+00 0.  1.
         21    1    1    2  503  502  0.20236376777E+02  0.26289140905E+01 -0.13328161141E+02  0.24373387408E+02  0.00000000000E+00 0.  1.
          1    1    1    2  501    0 -0.52667463351E+02  0.56249080086E+02  0.70915367329E+02  0.10472253831E+03  0.00000000000E+00 0. -1.
<scales pt_clust_5="13000.00000" pt_clust_6="13000.00000" pt_clust_7="13000.00000" pt_clust_8="13000.00000" pt_clust_9="20.40642" pt_clust_10="13000.00000"></scales>
<clustering>
<clus scale="   20.406">  2  9  1 -1</clus>
<clus scale="   89.430">  5  6 -1 -1</clus>
<clus scale="   93.782">  7  8 -1 -1</clus>
<clus scale="   72.803">  7 10 -1 -1</clus>
<clus scale="  114.849">  1  5  2 -1</clus>
<clus scale="   20.406">  2  5  1 -1</clus>
</clustering>
</event>
<event>
10    2  0.5921424E-006  0.2578805E+03  0.7546771E-02  0.1133602E+00
         21   -1    0    0  503  502  0.00000000000E+00  0.00000000000E+00  0.64131595625E+02  0.64131595625E+02  0.00000000000E+00 0. -1.
          2   -1    0    0  502    0 -0.00000000000E+00 -0.00000000000E+00 -0.77132634283E+03  0.77132634283E+03  0.00000000000E+00 0. -1.
         23    2    1    2    0    0 -0.10590675048E+03 -0.36729690371E+02 -0.15360572004E+03  0.21022386988E+03  0.89632852713E+02 0.  0.
         23    2    1    2    0    0  0.14205873356E+03  0.30011842693E+02 -0.44568794344E+03  0.47879401238E+03  0.97593897765E+02 0.  0.
        -11    1    4    4    0    0  0.12203557990E+01  0.32857732277E+02 -0.10823865684E+03  0.11312261787E+03  0.00000000000E+00 0.  1.
         11    1    4    4    0    0  0.14083837777E+03 -0.28458895838E+01 -0.33744928660E+03  0.36567139452E+03  0.00000000000E+00 0. -1.
        -13    1    3    3    0    0 -0.27299119995E+02  0.26140600666E+02 -0.69250434357E+02  0.78893571438E+02  0.00000000000E+00 0.  1.
         13    1    3    3    0    0 -0.78607630484E+02 -0.62870291037E+02 -0.84355285681E+02  0.13133029844E+03  0.00000000000E+00 0. -1.
         21    1    1    2  503  501  0.25437221311E+02 -0.19470837888E+02 -0.37024052586E+02  0.48958617484E+02  0.00000000000E+00 0. -1.
          2    1    1    2  501    0 -0.61589204396E+02  0.26188685566E+02 -0.70877031136E+02  0.97481438708E+02  0.00000000000E+00 0. -1.
<scales pt_clust_5="13000.00000" pt_clust_6="13000.00000" pt_clust_7="13000.00000" pt_clust_8="13000.00000" pt_clust_9="32.03382" pt_clust_10="13000.00000"></scales>
<clustering>
<clus scale="   32.034">  1  9  2 -1</clus>
<clus scale="   89.633">  7  8 -1 -1</clus>
<clus scale="   97.594">  5  6 -1 -1</clus>
<clus scale="   59.858">  5 10 -1 -1</clus>
<clus scale="  137.536">  2  7  1 -1</clus>
<clus scale="   32.034">  1  5  2 -1</clus>
</clustering>
</event>
<event>
10    2  0.8761493E-006  0.2391726E+03  0.7546771E-02  0.1146487E+00
         21   -1    0    0  503  502  0.00000000000E+00  0.00000000000E+00  0.40597331935E+03  0.40597331935E+03  0.00000000000E+00 0. -1.
          1   -1    0    0  502    0 -0.00000000000E+00 -0.00000000000E+00 -0.73109768440E+03  0.73109768440E+03  0.00000000000E+00 0. -1.
         23    2    1    2    0    0 -0.16980033773E+01  0.14027461705E+03 -0.32493493916E+03  0.36614895005E+03  0.93821572843E+02 0.  0.
         23    2    1    2    0    0  0.33609496525E+02 -0.55550735209E+02 -0.31394688725E+03  0.33419711429E+03  0.94390575531E+02 0.  0.
        -11    1    4    4    0    0  0.54857342753E+02 -0.69571022534E+02 -0.22994802057E+03  0.24642554128E+03  0.00000000000E+00 0.  1.
         11    1    4    4    0    0 -0.21247846228E+02  0.14020287325E+02 -0.83998866678E+02  0.87771573013E+02  0.00000000000E+00 0. -1.
        -11    1    3    3    0    0 -0.36422631104E+02  0.33671816279E+02 -0.56168179012E+02  0.74935062564E+02  0.00000000000E+00 0.  1.
         11    1    3    3    0    0  0.34724627727E+02  0.10660280077E+03 -0.26876676015E+03  0.29121388749E+03  0.00000000000E+00 0. -1.
         21    1    1    2  503  501 -0.23413512008E+02 -0.15027229013E+03  0.33449894164E+03  0.36744999072E+03  0.00000000000E+00 0. -1.
          1    1    1    2  501    0 -0.84979811394E+01  0.65548408283E+02 -0.20741480275E+02  0.69274948689E+02  0.00000000000E+00 0. -1.
<scales pt_clust_5="13000.00000" pt_clust_6="13000.00000" pt_clust_7="13000.00000" pt_clust_8="13000.00000" pt_clust_9="152.08535" pt_clust_10="13000.00000"></scales>
<clustering>
<clus scale="   93.822">  7  8 -1 -1</clus>
<clus scale="   94.391">  5  6 -1 -1</clus>
<clus scale="   66.097">  5 10 -1 -1</clus>
<clus scale="  152.085">  1  9  2 -1</clus>
<clus scale="  126.345">  2  7  1 -1</clus>
<clus scale="  152.085">  1  5  2 -1</clus>
</clustering>
</event>
<event>
10    2  0.5921424E-006  0.4507635E+03  0.7546771E-02  0.1055178E+00
          2   -1    0    0  503    0 -0.00000000000E+00  0.00000000000E+00  0.11223473400E+04  0.11223473400E+04  0.00000000000E+00 0. -1.
         21   -1    0    0  501  502  0.00000000000E+00 -0.00000000000E+00 -0.34437508261E+03  0.34437508261E+03  0.00000000000E+00 0. -1.
         23    2    1    2    0    0  0.16416570247E+03 -0.73860123222E+02  0.28157463625E+03  0.34417838079E+03  0.82272634287E+02 0.  0.
         23    2    1    2    0    0  0.91034978093E+02  0.20538203820E+03  0.48192335073E+03  0.53942453306E+03  0.90882132611E+02 0.  0.
        -11    1    4    4    0    0  0.46592306469E+02  0.14883014638E+03  0.40560947363E+03  0.43455759180E+03  0.00000000000E+00 0.  1.
         11    1    4    4    0    0  0.44442671624E+02  0.56551891817E+02  0.76313877104E+02  0.10486694125E+03  0.00000000000E+00 0. -1.
        -13    1    3    3    0    0  0.10579304754E+03 -0.66619003360E+01  0.18199727326E+03  0.21061708691E+03  0.00000000000E+00 0. -1.
         13    1    3    3    0    0  0.58372654927E+02 -0.67198222886E+02  0.99577362995E+02  0.13356129388E+03  0.00000000000E+00 0.  1.
         21    1    1    2  503  502 -0.45718798122E+02 -0.10643710989E+03 -0.23161703103E+03  0.25897010624E+03  0.00000000000E+00 0. -1.
          2    1    1    2  501    0 -0.20948188244E+03 -0.25084805090E+02  0.24609130148E+03  0.32414940256E+03  0.00000000000E+00 0. -1.
<scales pt_clust_5="13000.00000" pt_clust_6="13000.00000" pt_clust_7="13000.00000" pt_clust_8="13000.00000" pt_clust_9="115.84070" pt_clust_10="13000.00000"></scales>
<clustering>
<clus scale="   82.273">  7  8 -1 -1</clus>
<clus scale="   90.882">  5  6 -1 -1</clus>
<clus scale="  115.841">  2  9  1 -1</clus>
<clus scale="  201.838">  1  7  2 -1</clus>
<clus scale="  195.641">  5 10 -1 -1</clus>
<clus scale="  115.841">  2  5  1 -1</clus>
</clustering>
</event>
<event>
10    2  0.5921424E-006  0.1392045E+03  0.7546771E-02  0.1234290E+00
         21   -1    0    0  501  502  0.00000000000E+00  0.00000000000E+00  0.63411130776E+02  0.63411130776E+02  0.00000000000E+00 0. -1.
          2   -1    0    0  503    0 -0.00000000000E+00 -0.00000000000E+00 -0.43186865235E+03  0.43186865235E+03  0.00000000000E+00 0. -1.
         23    2    1    2    0    0 -0.34251567332E+02 -0.19935486467E+02 -0.60293896984E+02  0.11563215009E+03  0.90359540927E+02 0.  0.
         23    2    1    2    0    0 -0.32526319759E+02  0.73699691260E+01 -0.18577608608E+03  0.21022942089E+03  0.92581733233E+02 0.  0.
        -11    1    4    4    0    0 -0.57706322422E+02  0.29227842984E+02 -0.13106041286E+03  0.14615443296E+03  0.00000000000E+00 0.  1.
         11    1    4    4    0    0  0.25180002662E+02 -0.21857873858E+02 -0.54715673212E+02  0.64074987934E+02  0.00000000000E+00 0. -1.
        -13    1    3    3    0    0 -0.26558843424E+01 -0.31331395134E+02 -0.73186036947E+02  0.79654918534E+02  0.00000000000E+00 0. -1.
         13    1    3    3    0    0 -0.31595682990E+02  0.11395908667E+02  0.12892139962E+02  0.35977231561E+02  0.00000000000E+00 0.  1.
         21    1    1    2  503  502  0.32125722225E+02  0.13772907258E+02  0.68428734375E+01  0.35617129583E+02  0.00000000000E+00 0. -1.
          2    1    1    2  501    0  0.34652164867E+02 -0.12073899172E+01 -0.12923041196E+03  0.13380108256E+03  0.00000000000E+00 0. -1.
<scales pt_clust_5="13000.00000" pt_clust_6="13000.00000" pt_clust_7="13000.00000" pt_clust_8="13000.00000" pt_clust_9="34.95361" pt_clust_10="13000.00000"></scales>
<clustering>
<clus scale="   34.954">  1  9  2 -1</clus>
<clus scale="   90.360">  7  8 -1 -1</clus>
<clus scale="   91.964">  2  7  1 -1</clus>
<clus scale="   92.582">  5  6 -1 -1</clus>
<clus scale="   31.185">  5 10 -1 -1</clus>
<clus scale="   34.954">  1  5  2 -1</clus>
</clustering>
</event>
<event>
10    2  0.5921424E-006  0.1358629E+03  0.7546771E-02  0.1234074E+00
         -3   -1    0    0    0  501 -0.00000000000E+00  0.00000000000E+00  0.51454324886E+03  0.51454324886E+03  0.00000000000E+00 0.  1.
         21   -1    0    0  501  502  0.00000000000E+00 -0.00000000000E+00 -0.11213097563E+03  0.11213097563E+03  0.00000000000E+00 0.  1.
         23    2    1    2    0    0 -0.18384306364E+02  0.82277570827E+01  0.55311042154E+02  0.10984807336E+03  0.92744860398E+02 0.  0.
         23    2    1    2    0    0  0.50078498386E+02 -0.35457455098E+02  0.28410939029E+03  0.30461860999E+03  0.91155168689E+02 0.  0.
        -13    1    3    3    0    0 -0.51210685622E+02 -0.43088778156E+01  0.54201008757E+02  0.74691700343E+02  0.00000000000E+00 0.  1.
         13    1    3    3    0    0  0.32826379258E+02  0.12536634898E+02  0.11100333971E+01  0.35156373019E+02  0.00000000000E+00 0. -1.
        -13    1    4    4    0    0  0.68733996476E+02 -0.10844679074E+02  0.13006588339E+03  0.14750967209E+03  0.00000000000E+00 0. -1.
         13    1    4    4    0    0 -0.18655498090E+02 -0.24612776024E+02  0.15404350690E+03  0.15710893790E+03  0.00000000000E+00 0.  1.
         21    1    1    2  503  502 -0.18264666460E+02  0.12113796020E+02 -0.72230218214E+02  0.75482094023E+02  0.00000000000E+00 0.  1.
         -3    1    1    2    0  503 -0.13429525562E+02  0.15115901995E+02  0.13522205900E+03  0.13672544712E+03  0.00000000000E+00 0.  1.
<scales pt_clust_5="13000.00000" pt_clust_6="13000.00000" pt_clust_7="13000.00000" pt_clust_8="13000.00000" pt_clust_9="21.91671" pt_clust_10="13000.00000"></scales>
<clustering>
<clus scale="   21.917">  2  9  1 -1</clus>
<clus scale="   91.155">  7  8 -1 -1</clus>
<clus scale="   20.636">  7 10 -1 -1</clus>
<clus scale="   92.745">  5  6 -1 -1</clus>
<clus scale="   99.356">  1  5  2 -1</clus>
<clus scale="   21.917">  2  5  1 -1</clus>
</clustering>
</event>
<event>
10    2  0.5921424E-006  0.3721604E+03  0.7546771E-02  0.1105760E+00
         21   -1    0    0  503  502  0.00000000000E+00  0.00000000000E+00  0.14372169636E+04  0.14372169636E+04  0.00000000000E+00 0.  1.
         -3   -1    0    0    0  501 -0.00000000000E+00 -0.00000000000E+00 -0.78072649570E+02  0.78072649570E+02  0.00000000000E+00 0.  1.
         23    2    1    2    0    0 -0.81103335734E+01 -0.36187592903E+01 -0.76569472520E+01  0.92203289648E+02  0.91454605413E+02 0.  0.
         23    2    1    2    0    0  0.50516618826E+02 -0.13893423482E+03  0.47896303381E+03  0.51490652566E+03  0.11776456183E+03 0.  0.
        -13    1    4    4    0    0  0.75380165845E+02 -0.14104119389E+03  0.36927739417E+03  0.40241841610E+03  0.00000000000E+00 0.  1.
         13    1    4    4    0    0 -0.24863547019E+02  0.21069590635E+01  0.10968563965E+03  0.11248810956E+03  0.00000000000E+00 0. -1.
        -13    1    3    3    0    0  0.13933439297E+01  0.43258161677E+02  0.23219483903E+01  0.43342835663E+02  0.00000000000E+00 0. -1.
         13    1    3    3    0    0 -0.95036775030E+01 -0.46876920967E+02 -0.99788956423E+01  0.48860453986E+02  0.00000000000E+00 0.  1.
         21    1    1    2  503  501  0.18076499314E+02 -0.14253062451E+02  0.10023542481E+03  0.10284478598E+03  0.00000000000E+00 0.  1.
         -3    1    1    2    0  502 -0.60482784567E+02  0.15680605657E+03  0.78760280264E+03  0.80533501186E+03  0.00000000000E+00 0.  1.
<scales pt_clust_5="13000.00000" pt_clust_6="13000.00000" pt_clust_7="13000.00000" pt_clust_8="13000.00000" pt_clust_9="23.01977" pt_clust_10="13000.00000"></scales>
<clustering>
<clus scale="   23.020">  1  9  2 -1</clus>
<clus scale="   91.455">  7  8 -1 -1</clus>
<clus scale="   91.855">  2  7  1 -1</clus>
<clus scale="  117.765">  5  6 -1 -1</clus>
<clus scale="  155.992">  5 10 -1 -1</clus>
<clus scale="   23.020">  1  5  2 -1</clus>
</clustering>
</event>
<event>
10    2  0.5921424E-006  0.2374614E+03  0.7546771E-02  0.1157747E+00
         -1   -1    0    0    0  501 -0.00000000000E+00  0.00000000000E+00  0.30499331715E+03  0.30499331715E+03  0.00000000000E+00 0.  1.
         21   -1    0    0  501  502  0.00000000000E+00 -0.00000000000E+00 -0.20880115180E+03  0.20880115180E+03  0.00000000000E+00 0.  1.
         23    2    1    2    0    0  0.21732993262E+02 -0.36503083536E+02  0.15174409758E+03  0.18103169202E+03  0.89114556966E+02 0.  0.
         23    2    1    2    0    0 -0.74892362190E+02 -0.60121802769E+01  0.21116003424E+02  0.12069628024E+03  0.92068964568E+02 0.  0.
        -13    1    3    3    0    0  0.47738866329E+02 -0.23466393093E+02  0.13981101770E+03  0.14958874167E+03  0.00000000000E+00 0.  1.
         13    1    3    3    0    0 -0.26005873067E+02 -0.13036690443E+02  0.11933079877E+02  0.31442950355E+02  0.00000000000E+00 0. -1.
        -13    1    4    4    0    0  0.13107028036E+02 -0.20556121817E+02 -0.98310777709E+01  0.26286848770E+02  0.00000000000E+00 0. -1.
         13    1    4    4    0    0 -0.87999390227E+02  0.14543941540E+02  0.30947081195E+02  0.94409431469E+02  0.00000000000E+00 0.  1.
         21    1    1    2  503  502 -0.47201213199E+02 -0.29201656034E+02 -0.68893492880E+02  0.88470360029E+02  0.00000000000E+00 0.  1.
         -1    1    1    2    0  503  0.10036058213E+03  0.71716919848E+02 -0.77744427713E+01  0.12359613666E+03  0.00000000000E+00 0.  1.
<scales pt_clust_5="13000.00000" pt_clust_6="13000.00000" pt_clust_7="13000.00000" pt_clust_8="13000.00000" pt_clust_9="55.50398" pt_clust_10="13000.00000"></scales>
<clustering>
<clus scale="   55.504">  2  9  1 -1</clus>
<clus scale="   89.115">  5  6 -1 -1</clus>
<clus scale="   92.069">  7  8 -1 -1</clus>
<clus scale="   95.412">  7 10 -1 -1</clus>
<clus scale="   98.966">  1  5  2 -1</clus>
<clus scale="   55.504">  2  5  1 -1</clus>
</clustering>
</event>
<event>
10    2  0.5921424E-006  0.2245303E+03  0.7546771E-02  0.1153183E+00
          3   -1    0    0  502    0 -0.00000000000E+00  0.00000000000E+00  0.10203363049E+04  0.10203363049E+04  0.00000000000E+00 0. -1.
         21   -1    0    0  503  502  0.00000000000E+00 -0.00000000000E+00 -0.90556924639E+02  0.90556924639E+02  0.00000000000E+00 0. -1.
         23    2    1    2    0    0 -0.36413745437E+02  0.48909576055E+02  0.20771184155E+03  0.23653094437E+03  0.95313016091E+02 0.  0.
         23    2    1    2    0    0  0.28720732700E+02 -0.85468165759E+02  0.72536103430E+03  0.73726293699E+03  0.96324038188E+02 0.  0.
        -11    1    4    4    0    0  0.62486640611E+02 -0.38315255953E+02  0.44070246130E+03  0.44675641964E+03  0.00000000000E+00 0. -1.
         11    1    4    4    0    0 -0.33765907911E+02 -0.47152909806E+02  0.28465857300E+03  0.29050651735E+03  0.00000000000E+00 0.  1.
        -11    1    3    3    0    0 -0.58774307940E+02  0.16826546639E+02  0.17557343720E+03  0.18591283924E+03  0.00000000000E+00 0.  1.
         11    1    3    3    0    0  0.22360562504E+02  0.32083029416E+02  0.32138404349E+02  0.50618105121E+02  0.00000000000E+00 0. -1.
         21    1    1    2  503  501  0.13319300057E+02  0.81061160220E+02 -0.26861089314E+02  0.86428198924E+02  0.00000000000E+00 0. -1.
          3    1    1    2  501    0 -0.56262873208E+01 -0.44502570516E+02  0.23567593697E+02  0.50671149229E+02  0.00000000000E+00 0. -1.
<scales pt_clust_5="13000.00000" pt_clust_6="13000.00000" pt_clust_7="13000.00000" pt_clust_8="13000.00000" pt_clust_9="82.14813" pt_clust_10="13000.00000"></scales>
<clustering>
<clus scale="   82.148">  2  9  1 -1</clus>
<clus scale="   95.313">  7  8 -1 -1</clus>
<clus scale="   96.324">  5  6 -1 -1</clus>
<clus scale="   12.113">  5 10 -1 -1</clus>
<clus scale="  130.300">  1  7  2 -1</clus>
<clus scale="   82.148">  2  5  1 -1</clus>
</clustering>
</event>
<event>
10    2  0.5921424E-006  0.6531112E+03  0.7546771E-02  0.1014442E+00
         21   -1    0    0  501  502  0.00000000000E+00  0.00000000000E+00  0.13596186394E+04  0.13596186394E+04  0.00000000000E+00 0.  1.
         -2   -1    0    0    0  501 -0.00000000000E+00 -0.00000000000E+00 -0.34311793794E+03  0.34311793794E+03  0.00000000000E+00 0.  1.
         23    2    1    2    0    0 -0.22249769996E+03  0.30825283637E+02  0.81989925220E+03  0.85494120348E+03  0.90742785042E+02 0.  0.
         23    2    1    2    0    0  0.35403772950E+03 -0.69045442924E+02 -0.16925681059E+03  0.40864743924E+03  0.90746209646E+02 0.  0.
        -13    1    3    3    0    0 -0.14194452156E+03  0.33056610436E+02  0.36611493708E+03  0.39405727229E+03  0.00000000000E+00 0. -1.
         13    1    3    3    0    0 -0.80553178401E+02 -0.22313267993E+01  0.45378431512E+03  0.46088393118E+03  0.00000000000E+00 0.  1.
        -13    1    4    4    0    0  0.31061082954E+03 -0.73641640704E+02 -0.17589883824E+03  0.36447576047E+03  0.00000000000E+00 0.  1.
         13    1    4    4    0    0  0.43426899964E+02  0.45961977796E+01  0.66420276474E+01  0.44171678774E+02  0.00000000000E+00 0. -1.
         21    1    1    2  503  502  0.35842921757E+02  0.91468550242E+01  0.19398810600E+03  0.19748358227E+03  0.00000000000E+00 0. -1.
         -2    1    1    2    0  503 -0.16738295130E+03  0.29073304263E+02  0.17187015382E+03  0.24166435232E+03  0.00000000000E+00 0.  1.
<scales pt_clust_5="13000.00000" pt_clust_6="13000.00000" pt_clust_7="13000.00000" pt_clust_8="13000.00000" pt_clust_9="36.99162" pt_clust_10="13000.00000"></scales>
<clustering>
<clus scale="   36.992">  1  9  2 -1</clus>
<clus scale="   90.743">  5  6 -1 -1</clus>
<clus scale="   90.746">  7  8 -1 -1</clus>
<clus scale="  163.916">  7 10 -1 -1</clus>
<clus scale="  219.836">  2  5  1 -1</clus>
<clus scale="   36.992">  1  5  2 -1</clus>
</clustering>
</event>
<event>
10    2  0.5921424E-006  0.3964841E+03  0.7546771E-02  0.1095669E+00
         21   -1    0    0  501  502  0.00000000000E+00  0.00000000000E+00  0.82175213710E+02  0.82175213710E+02  0.00000000000E+00 0.  1.
          1   -1    0    0  503    0 -0.00000000000E+00 -0.00000000000E+00 -0.12223091930E+04  0.12223091930E+04  0.00000000000E+00 0. -1.
         23    2    1    2    0    0 -0.51850180668E+02  0.28195552403E+01 -0.36267807651E+03  0.37708993728E+03  0.89247086726E+02 0.  0.
         23    2    1    2    0    0 -0.68928592678E+01  0.17096818852E+03 -0.40265345580E+03  0.44711479535E+03  0.92218229001E+02 0.  0.
        -11    1    3    3    0    0  0.74509573462E+01 -0.25551236574E+02 -0.41852002290E+02  0.49598110362E+02  0.00000000000E+00 0. -1.
         11    1    3    3    0    0 -0.59301138014E+02  0.28370791814E+02 -0.32082607422E+03  0.32749182692E+03  0.00000000000E+00 0.  1.
        -11    1    4    4    0    0  0.18693665776E+02  0.12264359727E+03 -0.18534829928E+03  0.22303564096E+03  0.00000000000E+00 0.  1.
         11    1    4    4    0    0 -0.25586525043E+02  0.48324591245E+02 -0.21730515652E+03  0.22407915439E+03  0.00000000000E+00 0. -1.
         21    1    1    2  503  502  0.81473506365E+02  0.24662985446E+02 -0.49286279018E+02  0.98363267483E+02  0.00000000000E+00 0. -1.
          1    1    1    2  501    0 -0.22730466430E+02 -0.19845072920E+03 -0.32551616799E+03  0.38191640662E+03  0.00000000000E+00 0. -1.
<scales pt_clust_5="13000.00000" pt_clust_6="13000.00000" pt_clust_7="13000.00000" pt_clust_8="13000.00000" pt_clust_9="85.12459" pt_clust_10="13000.00000"></scales>
<clustering>
<clus scale="   85.125">  1  9  2 -1</clus>
<clus scale="   89.247">  5  6 -1 -1</clus>
<clus scale="   92.218">  7  8 -1 -1</clus>
<clus scale="   98.670">  2  5  1 -1</clus>
<clus scale="  183.939">  7 10 -1 -1</clus>
<clus scale="   85.125">  1  5  2 -1</clus>
</clustering>
</event>
<event>
10    2  0.5921424E-006  0.1309316E+03  0.7546771E-02  0.1241855E+00
         21   -1    0    0  503  502  0.00000000000E+00  0.00000000000E+00  0.25605631620E+03  0.25605631620E+03  0.00000000000E+00 0. -1.
          2   -1    0    0  502    0 -0.00000000000E+00 -0.00000000000E+00 -0.10008819843E+03  0.10008819843E+03  0.00000000000E+00 0. -1.
         23    2    1    2    0    0  0.24147655472E+02 -0.28764525702E+02 -0.14814677967E+02  0.98150422658E+02  0.89462414349E+02 0.  0.
         23    2    1    2    0    0  0.22001091470E+01  0.24136776306E+02  0.18160691886E+02  0.96282831592E+02  0.91395560499E+02 0.  0.
        -11    1    4    4    0    0  0.33894634387E+02  0.98106185024E+01 -0.23208930212E+02  0.42234451781E+02  0.00000000000E+00 0. -1.
         11    1    4    4    0    0 -0.31694525240E+02  0.14326157803E+02  0.41369622098E+02  0.54048379811E+02  0.00000000000E+00 0.  1.
        -11    1    3    3    0    0 -0.30718322010E+02 -0.12937878049E+02 -0.22953090530E+02  0.40470339267E+02  0.00000000000E+00 0.  1.
         11    1    3    3    0    0  0.54865977482E+02 -0.15826647653E+02  0.81384125626E+01  0.57680083391E+02  0.00000000000E+00 0. -1.
         21    1    1    2  503  501 -0.89977066179E+01  0.20447985551E+02  0.11654188806E+03  0.11866377084E+03  0.00000000000E+00 0. -1.
          2    1    1    2  501    0 -0.17350058001E+02 -0.15820236154E+02  0.36080215788E+02  0.43047489543E+02  0.00000000000E+00 0. -1.
<scales pt_clust_5="13000.00000" pt_clust_6="13000.00000" pt_clust_7="13000.00000" pt_clust_8="13000.00000" pt_clust_9="22.34007" pt_clust_10="13000.00000"></scales>
<clustering>
<clus scale="   22.340">  1  9  2 -1</clus>
<clus scale="   89.462">  7  8 -1 -1</clus>
<clus scale="   91.396">  5  6 -1 -1</clus>
<clus scale="   22.280">  5 10 -1 -1</clus>
<clus scale="   94.733">  2  7  1 -1</clus>
<clus scale="   22.340">  1  5  2 -1</clus>
</clustering>
</event>
<event>
10    2  0.5921424E-006  0.1770240E+03  0.7546771E-02  0.1199463E+00
         21   -1    0    0  503  502  0.00000000000E+00  0.00000000000E+00  0.79855977520E+02  0.79855977520E+02  0.00000000000E+00 0.  1.
          3   -1    0    0  502    0 -0.00000000000E+00 -0.00000000000E+00 -0.38245456736E+03  0.38245456736E+03  0.00000000000E+00 0. -1.
         23    2    1    2    0    0 -0.13942920683E+02  0.19137221825E+02 -0.20341471969E+03  0.22376222544E+03  0.90173982122E+02 0.  0.
         23    2    1    2    0    0 -0.19053231659E+02 -0.80851326770E+02 -0.48044729905E+02  0.13309249207E+03  0.92224469073E+02 0.  0.
        -11    1    4    4    0    0 -0.54358217527E+02 -0.49709144210E+02 -0.13959438539E+02  0.74971199504E+02  0.00000000000E+00 0.  1.
         11    1    4    4    0    0  0.35304985867E+02 -0.31142182560E+02 -0.34085291366E+02  0.58121292563E+02  0.00000000000E+00 0. -1.
        -13    1    3    3    0    0  0.67653217381E+01  0.52850118853E+02 -0.12664829162E+03  0.13739976132E+03  0.00000000000E+00 0. -1.
         13    1    3    3    0    0 -0.20708242421E+02 -0.33712897028E+02 -0.76766428065E+02  0.86362464115E+02  0.00000000000E+00 0.  1.
         21    1    1    2  503  501  0.24155797387E+02  0.15470775626E+02  0.80803889029E+01  0.29801679998E+02  0.00000000000E+00 0.  1.
          3    1    1    2  501    0  0.88403549546E+01  0.46243329318E+02 -0.59219529149E+02  0.75654147373E+02  0.00000000000E+00 0. -1.
<scales pt_clust_5="13000.00000" pt_clust_6="13000.00000" pt_clust_7="13000.00000" pt_clust_8="13000.00000" pt_clust_9="28.68532" pt_clust_10="13000.00000"></scales>
<clustering>
<clus scale="   28.685">  1  9  2 -1</clus>
<clus scale="   90.174">  7  8 -1 -1</clus>
<clus scale="   92.224">  5  6 -1 -1</clus>
<clus scale="   49.822">  5 10 -1 -1</clus>
<clus scale="   93.281">  2  7  1 -1</clus>
<clus scale="   28.685">  1  5  2 -1</clus>
</clustering>
</event>
<event>
10    2  0.5921424E-006  0.9386163E+03  0.7546771E-02  0.9910409E-01
         21   -1    0    0  501  502  0.00000000000E+00  0.00000000000E+00  0.41953758497E+03  0.41953758497E+03  0.00000000000E+00 0. -1.
          1   -1    0    0  503    0 -0.00000000000E+00 -0.00000000000E+00 -0.14618952140E+04  0.14618952140E+04  0.00000000000E+00 0. -1.
         23    2    1    2    0    0 -0.76047386781E+02  0.99056900361E+02 -0.30575401711E+03  0.34244951189E+03  0.90502346226E+02 0.  0.
         23    2    1    2    0    0  0.34082921971E+03  0.25096009960E+03 -0.12144469449E+03  0.44971630321E+03  0.91380583009E+02 0.  0.
        -11    1    4    4    0    0  0.60743177793E+02  0.61367544355E+02  0.98475709266E+01  0.86906178156E+02  0.00000000000E+00 0.  1.
         11    1    4    4    0    0  0.28008604192E+03  0.18959255525E+03 -0.13129226542E+03  0.36281012505E+03  0.00000000000E+00 0. -1.
        -13    1    3    3    0    0 -0.73463573309E+02  0.22661936462E+02 -0.13474444981E+03  0.15513389933E+03  0.00000000000E+00 0.  1.
         13    1    3    3    0    0 -0.25838134724E+01  0.76394963900E+02 -0.17100956730E+03  0.18731561256E+03  0.00000000000E+00 0. -1.
         21    1    1    2  503  502 -0.16958388559E+03  0.28002613670E+02  0.15154821430E+03  0.22914995501E+03  0.00000000000E+00 0. -1.
          1    1    1    2  501    0 -0.95197947339E+02 -0.37801961363E+03 -0.76670713173E+03  0.86011702884E+03  0.00000000000E+00 0. -1.
<scales pt_clust_5="13000.00000" pt_clust_6="13000.00000" pt_clust_7="13000.00000" pt_clust_8="13000.00000" pt_clust_9="175.01356" pt_clust_10="13000.00000"></scales>
<clustering>
<clus scale="   90.502">  7  8 -1 -1</clus>
<clus scale="   91.381">  5  6 -1 -1</clus>
<clus scale="  154.228">  2  7  1 -1</clus>
<clus scale="  175.014">  1  9  2 -1</clus>
<clus scale="  355.100">  5 10 -1 -1</clus>
<clus scale="  175.014">  1  5  2 -1</clus>
</clustering>
</event>
<event>
10    2  0.5921424E-006  0.1415284E+03  0.7546771E-02  0.1227003E+00
          4   -1    0    0  503    0 -0.00000000000E+00  0.00000000000E+00  0.58270270481E+02  0.58270270481E+02  0.00000000000E+00 0. -1.
         21   -1    0    0  501  502  0.00000000000E+00 -0.00000000000E+00 -0.31153306032E+03  0.31153306032E+03  0.00000000000E+00 0.  1.
         23    2    1    2    0    0 -0.43382243613E+02 -0.72306539987E+01 -0.99821637962E+02  0.14040546449E+03  0.88402678895E+02 0.  0.
         23    2    1    2    0    0  0.37517190615E+02  0.87066932512E+01 -0.13931391142E+03  0.17057618401E+03  0.90578819474E+02 0.  0.
        -13    1    4    4    0    0 -0.26876198652E+01  0.26441819953E+02 -0.22876071628E+01  0.26676324512E+02  0.00000000000E+00 0. -1.
         13    1    4    4    0    0  0.40204810481E+02 -0.17735126702E+02 -0.13702630426E+03  0.14389985950E+03  0.00000000000E+00 0.  1.
        -13    1    3    3    0    0 -0.66030139618E+02 -0.24233135248E+02 -0.73726833253E+02  0.10189636953E+03  0.00000000000E+00 0.  1.
         13    1    3    3    0    0  0.22647896004E+02  0.17002481249E+02 -0.26094804710E+02  0.38509094963E+02  0.00000000000E+00 0. -1.
         21    1    1    2  503  502 -0.94538686316E+01 -0.22953752791E+02 -0.19900406505E+02  0.31816294227E+02  0.00000000000E+00 0.  1.
          4    1    1    2  501    0  0.15318921630E+02  0.21477713538E+02  0.57731660485E+01  0.27005388072E+02  0.00000000000E+00 0. -1.
<scales pt_clust_5="13000.00000" pt_clust_6="13000.00000" pt_clust_7="13000.00000" pt_clust_8="13000.00000" pt_clust_9="24.82440" pt_clust_10="13000.00000"></scales>
<clustering>
<clus scale="   24.824">  2  9  1 -1</clus>
<clus scale="   88.403">  7  8 -1 -1</clus>
<clus scale="   90.579">  5  6 -1 -1</clus>
<clus scale="   25.483">  5 10 -1 -1</clus>
<clus scale="  101.699">  1  7  2 -1</clus>
<clus scale="   24.824">  2  5  1 -1</clus>
</clustering>
</event>
<event>
10    2  0.5921424E-006  0.2289122E+03  0.7546771E-02  0.1159263E+00
         21   -1    0    0  501  502  0.00000000000E+00  0.00000000000E+00  0.19546345285E+03  0.19546345285E+03  0.00000000000E+00 0. -1.
          1   -1    0    0  503    0 -0.00000000000E+00 -0.00000000000E+00 -0.34284076540E+03  0.34284076540E+03  0.00000000000E+00 0. -1.
         23    2    1    2    0    0 -0.24278288915E+02 -0.48594589106E+02 -0.91535462500E+02  0.13820915361E+03  0.88159853927E+02 0.  0.
         23    2    1    2    0    0 -0.14809503537E+02 -0.30589590598E+02 -0.14371177554E+03  0.17581315087E+03  0.95405163070E+02 0.  0.
        -13    1    3    3    0    0 -0.37328704526E+02  0.13046441564E+02 -0.26157700882E+02  0.47411677195E+02  0.00000000000E+00 0.  1.
         13    1    3    3    0    0  0.13050415611E+02 -0.61641030670E+02 -0.65377761618E+02  0.90797476418E+02  0.00000000000E+00 0. -1.
        -13    1    4    4    0    0  0.30165111030E+02  0.17339862261E+02 -0.39853500789E+02  0.52904690453E+02  0.00000000000E+00 0.  1.
         13    1    4    4    0    0 -0.44974614568E+02 -0.47929452860E+02 -0.10385827475E+03  0.12290846041E+03  0.00000000000E+00 0. -1.
         21    1    1    2  503  502 -0.43504538310E+01 -0.20324695002E+02  0.11128476476E+03  0.11320918047E+03  0.00000000000E+00 0. -1.
          1    1    1    2  501    0  0.43438246284E+02  0.99508874706E+02 -0.23414839265E+02  0.11107273330E+03  0.00000000000E+00 0. -1.
<scales pt_clust_5="13000.00000" pt_clust_6="13000.00000" pt_clust_7="13000.00000" pt_clust_8="13000.00000" pt_clust_9="20.78508" pt_clust_10="13000.00000"></scales>
<clustering>
<clus scale="   20.785">  1  9  2 -1</clus>
<clus scale="   88.160">  5  6 -1 -1</clus>
<clus scale="   95.405">  7  8 -1 -1</clus>
<clus scale="   97.874">  7 10 -1 -1</clus>
<clus scale="  106.631">  2  5  1 -1</clus>
<clus scale="   20.785">  1  5  2 -1</clus>
</clustering>
</event>
<event>
10    2  0.5921424E-006  0.1439406E+03  0.7546771E-02  0.1223031E+00
          3   -1    0    0  503    0 -0.00000000000E+00  0.00000000000E+00  0.36124220684E+03  0.36124220684E+03  0.00000000000E+00 0. -1.
         21   -1    0    0  501  502  0.00000000000E+00 -0.00000000000E+00 -0.10938684953E+03  0.10938684953E+03  0.00000000000E+00 0.  1.
         23    2    1    2    0    0 -0.67795615448E+02 -0.19373621231E+02  0.23317157188E+03  0.25636869873E+03  0.79902096856E+02 0.  0.
         23    2    1    2    0    0  0.87211588005E+01  0.96036092060E+01  0.63480308460E+02  0.10796656024E+03  0.86364000869E+02 0.  0.
        -11    1    4    4    0    0  0.13242544933E+01 -0.29627621381E+02  0.61166457006E+02  0.67977092181E+02  0.00000000000E+00 0. -1.
         11    1    4    4    0    0  0.73969043072E+01  0.39231230587E+02  0.23138514544E+01  0.39989468054E+02  0.00000000000E+00 0.  1.
        -11    1    3    3    0    0 -0.15210894196E+02 -0.41602915011E+02  0.14245324698E+03  0.14918143790E+03  0.00000000000E+00 0. -1.
         11    1    3    3    0    0 -0.52584721252E+02  0.22229293780E+02  0.90718324909E+02  0.10718726084E+03  0.00000000000E+00 0.  1.
         21    1    1    2  503  502  0.16708770500E+02 -0.15260508940E+02 -0.51859896415E+02  0.56581931753E+02  0.00000000000E+00 0.  1.
          3    1    1    2  501    0  0.42365686147E+02  0.25030520964E+02  0.70633733766E+01  0.49711865645E+02  0.00000000000E+00 0. -1.
<scales pt_clust_5="13000.00000" pt_clust_6="13000.00000" pt_clust_7="13000.00000" pt_clust_8="13000.00000" pt_clust_9="22.62888" pt_clust_10="13000.00000"></scales>
<clustering>
<clus scale="   22.629">  2  9  1 -1</clus>
<clus scale="   79.902">  7  8 -1 -1</clus>
<clus scale="   86.364">  5  6 -1 -1</clus>
<clus scale="   52.439">  5 10 -1 -1</clus>
<clus scale="  105.007">  1  7  2 -1</clus>
<clus scale="   22.629">  2  5  1 -1</clus>
</clustering>
</event>
<event>
10    2  0.5921424E-006  0.4325380E+03  0.7546771E-02  0.1034663E+00
         21   -1    0    0  501  502  0.00000000000E+00  0.00000000000E+00  0.42708133701E+03  0.42708133701E+03  0.00000000000E+00 0. -1.
          2   -1    0    0  503    0 -0.00000000000E+00 -0.00000000000E+00 -0.12037467765E+04  0.12037467765E+04  0.00000000000E+00 0. -1.
         23    2    1    2    0    0 -0.38517763447E+03  0.11153513947E+03 -0.41906524759E+03  0.58810061127E+03  0.97184102696E+02 0.  0.
         23    2    1    2    0    0  0.85740959018E+01 -0.55724879207E+02 -0.10960301170E+03  0.15355609648E+03  0.91585355317E+02 0.  0.
        -11    1    4    4    0    0 -0.15131748565E+02 -0.75055063334E+02 -0.84088059562E+02  0.11372349848E+03  0.00000000000E+00 0.  1.
         11    1    4    4    0    0  0.23705844466E+02  0.19330184127E+02 -0.25514952139E+02  0.39832597993E+02  0.00000000000E+00 0. -1.
        -11    1    3    3    0    0 -0.29773398181E+03  0.67874000848E+02 -0.36675782329E+03  0.47724595845E+03  0.00000000000E+00 0.  1.
         11    1    3    3    0    0 -0.87443652660E+02  0.43661138624E+02 -0.52307424302E+02  0.11085465283E+03  0.00000000000E+00 0. -1.
         21    1    1    2  503  502  0.47292042729E+03 -0.49900140361E+02  0.13489377879E+03  0.49430768364E+03  0.00000000000E+00 0. -1.
          2    1    1    2  501    0 -0.96316888722E+02 -0.59101199045E+01 -0.38289095897E+03  0.39486372210E+03  0.00000000000E+00 0. -1.
<scales pt_clust_5="13000.00000" pt_clust_6="13000.00000" pt_clust_7="13000.00000" pt_clust_8="13000.00000" pt_clust_9="374.66356" pt_clust_10="13000.00000"></scales>
<clustering>
<clus scale="   91.585">  5  6 -1 -1</clus>
<clus scale="   96.498">  5 10 -1 -1</clus>
<clus scale="   97.184">  7  8 -1 -1</clus>
<clus scale="  412.610">  2  7  1 -1</clus>
<clus scale="  374.664">  1  9  2 -1</clus>
<clus scale="  374.664">  1  5  2 -1</clus>
</clustering>
</event>
<event>
10    2  0.5921424E-006  0.3960668E+03  0.7546771E-02  0.1055911E+00
          1   -1    0    0  503    0 -0.00000000000E+00  0.00000000000E+00  0.28517066893E+04  0.28517066893E+04  0.00000000000E+00 0. -1.
         21   -1    0    0  501  502  0.00000000000E+00 -0.00000000000E+00 -0.22567266147E+03  0.22567266147E+03  0.00000000000E+00 0. -1.
         23    2    1    2    0    0 -0.17975279690E+03 -0.23652693554E+03  0.15257131876E+04  0.15568420391E+04  0.87751606889E+02 0.  0.
         23    2    1    2    0    0 -0.35065877290E+01  0.23057762510E+03  0.10365185022E+04  0.10656703489E+04  0.90024162635E+02 0.  0.
        -13    1    3    3    0    0 -0.15445060720E+03 -0.23862160711E+03  0.14126547703E+04  0.14409679946E+04  0.00000000000E+00 0. -1.
         13    1    3    3    0    0 -0.25302189697E+02  0.20946715658E+01  0.11305841728E+03  0.11587404442E+03  0.00000000000E+00 0.  1.
        -13    1    4    4    0    0 -0.42873197618E+02  0.76573711834E+02  0.41168222456E+03  0.42093217795E+03  0.00000000000E+00 0. -1.
         13    1    4    4    0    0  0.39366609889E+02  0.15400391326E+03  0.62483627763E+03  0.64473817098E+03  0.00000000000E+00 0.  1.
         21    1    1    2  503  502  0.71309585919E+02  0.13633822571E+02 -0.17584828504E+03  0.19024604468E+03  0.00000000000E+00 0. -1.
          1    1    1    2  501    0  0.11194979871E+03 -0.76845121259E+01  0.23965062309E+03  0.26462091812E+03  0.00000000000E+00 0. -1.
<scales pt_clust_5="13000.00000" pt_clust_6="13000.00000" pt_clust_7="13000.00000" pt_clust_8="13000.00000" pt_clust_9="72.60123" pt_clust_10="13000.00000"></scales>
<clustering>
<clus scale="   72.601">  2  9  1 -1</clus>
<clus scale="   87.752">  5  6 -1 -1</clus>
<clus scale="   90.024">  7  8 -1 -1</clus>
<clus scale="  132.888">  7 10 -1 -1</clus>
<clus scale="  291.450">  1  5  2 -1</clus>
<clus scale="   72.601">  2  5  1 -1</clus>
</clustering>
</event>
<event>
10    2  0.5921424E-006  0.1366650E+03  0.7546771E-02  0.1236331E+00
          1   -1    0    0  502    0 -0.00000000000E+00  0.00000000000E+00  0.25575460072E+03  0.25575460072E+03  0.00000000000E+00 0. -1.
         21   -1    0    0  503  502  0.00000000000E+00 -0.00000000000E+00 -0.22037538693E+03  0.22037538693E+03  0.00000000000E+00 0.  1.
         23    2    1    2    0    0 -0.13478508438E+01  0.27391711285E+02  0.17749590045E+03  0.20072309773E+03  0.89626138693E+02 0.  0.
         23    2    1    2    0    0 -0.20849600464E+02 -0.37900159463E+02 -0.25895354586E+02  0.10455541306E+03  0.91597691480E+02 0.  0.
        -11    1    3    3    0    0  0.22212397549E+02 -0.22610030139E+02  0.31816158855E+02  0.44909598440E+02  0.00000000000E+00 0.  1.
         11    1    3    3    0    0 -0.23560248393E+02  0.50001741424E+02  0.14567974159E+03  0.15581349929E+03  0.00000000000E+00 0. -1.
        -11    1    4    4    0    0 -0.43288862059E+02 -0.48873727905E+02 -0.39303135200E+02  0.76205664450E+02  0.00000000000E+00 0.  1.
         11    1    4    4    0    0  0.22439261596E+02  0.10973568442E+02  0.13407780614E+02  0.28349748611E+02  0.00000000000E+00 0. -1.
         21    1    1    2  503  501  0.18885053068E+02 -0.12945716726E+02 -0.13726834804E+03  0.13916478069E+03  0.00000000000E+00 0.  1.
          1    1    1    2  501    0  0.33123982398E+01  0.23454164904E+02  0.21047015968E+02  0.31686696177E+02  0.00000000000E+00 0. -1.
<scales pt_clust_5="13000.00000" pt_clust_6="13000.00000" pt_clust_7="13000.00000" pt_clust_8="13000.00000" pt_clust_9="22.89622" pt_clust_10="13000.00000"></scales>
<clustering>
<clus scale="   22.896">  2  9  1 -1</clus>
<clus scale="   89.626">  5  6 -1 -1</clus>
<clus scale="   91.598">  7  8 -1 -1</clus>
<clus scale="   23.066">  7 10 -1 -1</clus>
<clus scale="   93.209">  1  5  2 -1</clus>
<clus scale="   22.896">  2  5  1 -1</clus>
</clustering>
</event>
<event>
10    2  0.5921424E-006  0.1965944E+03  0.7546771E-02  0.1172193E+00
          2   -1    0    0  503    0 -0.00000000000E+00  0.00000000000E+00  0.45716289864E+03  0.45716289864E+03  0.00000000000E+00 0. -1.
         21   -1    0    0  501  502  0.00000000000E+00 -0.00000000000E+00 -0.18587638915E+03  0.18587638915E+03  0.00000000000E+00 0.  1.
         23    2    1    2    0    0  0.66851305365E+02  0.37032021361E+02  0.12317626143E+03  0.17126950408E+03  0.91216138982E+02 0.  0.
         23    2    1    2    0    0 -0.36456963259E+02 -0.16022267582E+02  0.26314501907E+03  0.28128533769E+03  0.91051177429E+02 0.  0.
        -11    1    4    4    0    0  0.23362292570E+02  0.15971153702E+01  0.21728894445E+02  0.31945145882E+02  0.00000000000E+00 0.  1.
         11    1    4    4    0    0 -0.59819255828E+02 -0.17619382952E+02  0.24141612462E+03  0.24934019181E+03  0.00000000000E+00 0. -1.
        -13    1    3    3    0    0  0.23420704315E+02  0.60476325239E+02  0.93138134215E+02  0.11349285154E+03  0.00000000000E+00 0.  1.
         13    1    3    3    0    0  0.43430601050E+02 -0.23444303878E+02  0.30038127220E+02  0.57776652540E+02  0.00000000000E+00 0. -1.
         21    1    1    2  503  502  0.27052800297E+02 -0.63890487604E+01 -0.12700340315E+03  0.13000976255E+03  0.00000000000E+00 0.  1.
          2    1    1    2  501    0 -0.57447142403E+02 -0.14620705019E+02  0.11968632131E+02  0.60474683469E+02  0.00000000000E+00 0. -1.
<scales pt_clust_5="13000.00000" pt_clust_6="13000.00000" pt_clust_7="13000.00000" pt_clust_8="13000.00000" pt_clust_9="27.79701" pt_clust_10="13000.00000"></scales>
<clustering>
<clus scale="   27.797">  2  9  1 -1</clus>
<clus scale="   91.051">  5  6 -1 -1</clus>
<clus scale="   49.163">  5 10 -1 -1</clus>
<clus scale="   91.216">  7  8 -1 -1</clus>
<clus scale="  124.957">  1  7  2 -1</clus>
<clus scale="   27.797">  2  5  1 -1</clus>
</clustering>
</event>
<event>
10    2  0.5921424E-006  0.2440052E+03  0.7546771E-02  0.1145809E+00
         21   -1    0    0  501  502  0.00000000000E+00  0.00000000000E+00  0.41865640363E+03  0.41865640363E+03  0.00000000000E+00 0.  1.
          2   -1    0    0  503    0 -0.00000000000E+00 -0.00000000000E+00 -0.68957027493E+03  0.68957027493E+03  0.00000000000E+00 0. -1.
         23    2    1    2    0    0  0.65752359919E+02  0.53842170283E+02 -0.50166435162E+03  0.51643767433E+03  0.88421703477E+02 0.  0.
         23    2    1    2    0    0 -0.89011705402E+02 -0.82879170136E+02 -0.34077484567E+02  0.15690695372E+03  0.93093912956E+02 0.  0.
        -13    1    3    3    0    0  0.59754762889E+02  0.77019208622E+02 -0.37068371269E+03  0.38328710524E+03  0.00000000000E+00 0. -1.
         13    1    3    3    0    0  0.59975970299E+01 -0.23177038339E+02 -0.13098063893E+03  0.13315056909E+03  0.00000000000E+00 0.  1.
        -13    1    4    4    0    0 -0.59736298992E+02 -0.65356232405E+02  0.22027744280E+02  0.91241898542E+02  0.00000000000E+00 0. -1.
         13    1    4    4    0    0 -0.29275406410E+02 -0.17522937730E+02 -0.56105228847E+02  0.65665055175E+02  0.00000000000E+00 0.  1.
         21    1    1    2  503  502 -0.25700575550E+01 -0.43925747199E+02  0.33047531747E+03  0.33339167944E+03  0.00000000000E+00 0.  1.
          2    1    1    2  501    0  0.25829403038E+02  0.72962747052E+02 -0.65647352593E+02  0.10149037108E+03  0.00000000000E+00 0. -1.
<scales pt_clust_5="13000.00000" pt_clust_6="13000.00000" pt_clust_7="13000.00000" pt_clust_8="13000.00000" pt_clust_9="44.00087" pt_clust_10="13000.00000"></scales>
<clustering>
<clus scale="   44.001">  1  9  2 -1</clus>
<clus scale="   88.422">  5  6 -1 -1</clus>
<clus scale="   93.094">  7  8 -1 -1</clus>
<clus scale="   68.712">  7 10 -1 -1</clus>
<clus scale="  120.926">  2  5  1 -1</clus>
<clus scale="   44.001">  1  5  2 -1</clus>
</clustering>
</event>
<event>
10    2  0.5921424E-006  0.4960979E+03  0.7546771E-02  0.1058148E+00
          2   -1    0    0  502    0 -0.00000000000E+00  0.00000000000E+00  0.73012612351E+03  0.73012612351E+03  0.00000000000E+00 0. -1.
         21   -1    0    0  503  502  0.00000000000E+00 -0.00000000000E+00 -0.34690948105E+03  0.34690948105E+03  0.00000000000E+00 0. -1.
         23    2    1    2    0    0  0.97853378319E+02 -0.87731581903E+01  0.58945828925E+01  0.13369919249E+03  0.90490198435E+02 0.  0.
         23    2    1    2    0    0  0.15935713702E+03 -0.40623974831E+02  0.36039567459E+03  0.40514928197E+03  0.84946418214E+02 0.  0.
        -11    1    4    4    0    0  0.11174049784E+03 -0.67065234264E+02  0.26461380164E+03  0.29496465640E+03  0.00000000000E+00 0. -1.
         11    1    4    4    0    0  0.47616639171E+02  0.26441259433E+02  0.95781872948E+02  0.11018462557E+03  0.00000000000E+00 0.  1.
        -13    1    3    3    0    0  0.44957493109E+02 -0.10574878537E+02  0.47594250037E+02  0.66319053667E+02  0.00000000000E+00 0.  1.
         13    1    3    3    0    0  0.52895885210E+02  0.18017203472E+01 -0.41699667144E+02  0.67380138827E+02  0.00000000000E+00 0. -1.
         21    1    1    2  503  501  0.16750378629E+02 -0.18147883466E+02 -0.18790070638E+03  0.18951674416E+03  0.00000000000E+00 0. -1.
          2    1    1    2  501    0 -0.27396089396E+03  0.67545016487E+02  0.20482709135E+03  0.34867038593E+03  0.00000000000E+00 0. -1.
<scales pt_clust_5="13000.00000" pt_clust_6="13000.00000" pt_clust_7="13000.00000" pt_clust_8="13000.00000" pt_clust_9="24.69658" pt_clust_10="13000.00000"></scales>
<clustering>
<clus scale="   24.697">  2  9  1 -1</clus>
<clus scale="   84.946">  5  6 -1 -1</clus>
<clus scale="   90.490">  7  8 -1 -1</clus>
<clus scale="  139.259">  1  7  2 -1</clus>
<clus scale="  230.960">  5 10 -1 -1</clus>
<clus scale="   24.697">  2  5  1 -1</clus>
</clustering>
</event>
<event>
10    2  0.5921424E-006  0.2585966E+03  0.7546771E-02  0.1134207E+00
          2   -1    0    0  502    0 -0.00000000000E+00  0.00000000000E+00  0.76520794242E+03  0.76520794242E+03  0.00000000000E+00 0.  1.
         21   -1    0    0  503  502  0.00000000000E+00 -0.00000000000E+00 -0.16189448889E+03  0.16189448889E+03  0.00000000000E+00 0. -1.
         23    2    1    2    0    0 -0.92803908283E+02 -0.31383427037E+02 -0.37742241146E+02  0.14054163256E+03  0.93434409241E+02 0.  0.
         23    2    1    2    0    0  0.12378477489E+02 -0.73791158291E+02  0.49986344378E+03  0.51351110902E+03  0.90729460008E+02 0.  0.
        -13    1    4    4    0    0 -0.16659707225E+01 -0.89545122262E+02  0.45747267994E+03  0.46615700925E+03  0.00000000000E+00 0.  1.
         13    1    4    4    0    0  0.14044448211E+02  0.15753963971E+02  0.42390763836E+02  0.47354099769E+02  0.00000000000E+00 0. -1.
        -13    1    3    3    0    0 -0.37821225059E+02  0.32999386298E+02 -0.20033918872E+02  0.54044078921E+02  0.00000000000E+00 0.  1.
         13    1    3    3    0    0 -0.54982683224E+02 -0.64382813335E+02 -0.17708322274E+02  0.86497553637E+02  0.00000000000E+00 0. -1.
         21    1    1    2  503  501 -0.38335174620E+01  0.24267755815E+02 -0.46144272117E+02  0.52277276877E+02  0.00000000000E+00 0. -1.
          2    1    1    2  501    0  0.84258948256E+02  0.80906829513E+02  0.18733652302E+03  0.22077241286E+03  0.00000000000E+00 0.  1.
<scales pt_clust_5="13000.00000" pt_clust_6="13000.00000" pt_clust_7="13000.00000" pt_clust_8="13000.00000" pt_clust_9="24.56868" pt_clust_10="13000.00000"></scales>
<clustering>
<clus scale="   24.569">  2  9  1 -1</clus>
<clus scale="   90.729">  5  6 -1 -1</clus>
<clus scale="   93.434">  7  8 -1 -1</clus>
<clus scale="  118.935">  5 10 -1 -1</clus>
<clus scale="  134.399">  1  7  2 -1</clus>
<clus scale="   24.569">  2  5  1 -1</clus>
</clustering>
</event>
<event>
10    2  0.5921424E-006  0.1566020E+03  0.7546771E-02  0.1207260E+00
         21   -1    0    0  501  502  0.00000000000E+00  0.00000000000E+00  0.20501383961E+03  0.20501383961E+03  0.00000000000E+00 0. -1.
         -1   -1    0    0    0  501 -0.00000000000E+00 -0.00000000000E+00 -0.44024248734E+03  0.44024248734E+03  0.00000000000E+00 0.  1.
         23    2    1    2    0    0  0.68059123899E+02  0.31221830986E+02 -0.15297523941E+03  0.19257029833E+03  0.89861275570E+02 0.  0.
         23    2    1    2    0    0  0.21394989102E+02 -0.69831418785E+02 -0.21738494788E+03  0.24710445108E+03  0.92033806680E+02 0.  0.
        -11    1    4    4    0    0  0.21210489561E+02  0.11766754882E+02 -0.14105031794E+02  0.28058747473E+02  0.00000000000E+00 0.  1.
         11    1    4    4    0    0  0.18449954138E+00 -0.81598173667E+02 -0.20327991609E+03  0.21904570361E+03  0.00000000000E+00 0. -1.
        -13    1    3    3    0    0  0.75024835058E+02  0.66462469461E+01 -0.14867825764E+03  0.16666770164E+03  0.00000000000E+00 0. -1.
         13    1    3    3    0    0 -0.69657111588E+01  0.24575584040E+02 -0.42969817749E+01  0.25902596689E+02  0.00000000000E+00 0.  1.
         21    1    1    2  503  502 -0.61772999212E+02  0.58495342214E+02  0.14670420061E+03  0.16958694221E+03  0.00000000000E+00 0. -1.
         -1    1    1    2    0  503 -0.27681113789E+02 -0.19885754415E+02 -0.11572661044E+02  0.35994635335E+02  0.00000000000E+00 0.  1.
<scales pt_clust_5="13000.00000" pt_clust_6="13000.00000" pt_clust_7="13000.00000" pt_clust_8="13000.00000" pt_clust_9="85.07414" pt_clust_10="13000.00000"></scales>
<clustering>
<clus scale="   85.074">  1  9  2 -1</clus>
<clus scale="   89.861">  7  8 -1 -1</clus>
<clus scale="   92.034">  5  6 -1 -1</clus>
<clus scale="   44.021">  5 10 -1 -1</clus>
<clus scale="  113.861">  2  7  1 -1</clus>
<clus scale="   85.074">  1  5  2 -1</clus>
</clustering>
</event>
<event>
10    2  0.5921424E-006  0.5171045E+03  0.7546771E-02  0.1058169E+00
          1   -1    0    0  502    0 -0.00000000000E+00  0.00000000000E+00  0.59526043253E+03  0.59526043253E+03  0.00000000000E+00 0. -1.
         21   -1    0    0  503  502  0.00000000000E+00 -0.00000000000E+00 -0.23578264532E+03  0.23578264532E+03  0.00000000000E+00 0. -1.
         23    2    1    2    0    0 -0.79840416539E+02 -0.18445113650E+02  0.75123322803E+02  0.14411407119E+03  0.91709528154E+02 0.  0.
         23    2    1    2    0    0  0.12265700256E+03  0.15684214776E+03  0.42164121126E+03  0.47302129618E+03  0.79521292816E+02 0.  0.
        -11    1    4    4    0    0  0.12992951066E+03  0.12643120943E+03  0.33497387369E+03  0.38088584184E+03  0.00000000000E+00 0. -1.
         11    1    4    4    0    0 -0.72725081008E+01  0.30410938326E+02  0.86667337571E+02  0.92135454336E+02  0.00000000000E+00 0.  1.
        -11    1    3    3    0    0 -0.26770531416E+02  0.33643699674E+02  0.49257119084E+02  0.65382135637E+02  0.00000000000E+00 0. -1.
         11    1    3    3    0    0 -0.53069885123E+02 -0.52088813323E+02  0.25866203719E+02  0.78731935549E+02  0.00000000000E+00 0.  1.
         21    1    1    2  503  501  0.56987376422E+01 -0.19384386589E+02 -0.61435097275E+02  0.64672260137E+02  0.00000000000E+00 0. -1.
          1    1    1    2  501    0 -0.48515323664E+02 -0.11901264752E+03 -0.75851649581E+02  0.14923545036E+03  0.00000000000E+00 0. -1.
<scales pt_clust_5="13000.00000" pt_clust_6="13000.00000" pt_clust_7="13000.00000" pt_clust_8="13000.00000" pt_clust_9="20.20470" pt_clust_10="13000.00000"></scales>
<clustering>
<clus scale="   20.205">  2  9  1 -1</clus>
<clus scale="   79.521">  5  6 -1 -1</clus>
<clus scale="   91.710">  7  8 -1 -1</clus>
<clus scale="  122.893">  1  7  2 -1</clus>
<clus scale="  143.451">  5 10 -1 -1</clus>
<clus scale="   20.205">  2  5  1 -1</clus>
</clustering>
</event>
<event>
10    2  0.5921424E-006  0.2422244E+03  0.7546771E-02  0.1155647E+00
          2   -1    0    0  503    0 -0.00000000000E+00  0.00000000000E+00  0.68193582881E+03  0.68193582881E+03  0.00000000000E+00 0. -1.
         21   -1    0    0  501  502  0.00000000000E+00 -0.00000000000E+00 -0.10178228986E+03  0.10178228986E+03  0.00000000000E+00 0.  1.
         23    2    1    2    0    0 -0.27866436634E+02  0.17991166036E+02  0.23624918615E+03  0.25574603474E+03  0.92152786106E+02 0.  0.
         23    2    1    2    0    0 -0.10950166886E+02 -0.70370404210E+02  0.56400529544E+02  0.13504305262E+03  0.99918498715E+02 0.  0.
        -13    1    4    4    0    0  0.37785702423E+02 -0.36267414027E+02 -0.99573909023E+00  0.52383930018E+02  0.00000000000E+00 0.  1.
         13    1    4    4    0    0 -0.48735869309E+02 -0.34102990182E+02  0.57396268634E+02  0.82659122605E+02  0.00000000000E+00 0. -1.
        -13    1    3    3    0    0 -0.31891376308E+02  0.49215679487E+02  0.10018790236E+03  0.11608987367E+03  0.00000000000E+00 0.  1.
         13    1    3    3    0    0  0.40249396741E+01 -0.31224513451E+02  0.13606128379E+03  0.13965616107E+03  0.00000000000E+00 0. -1.
         21    1    1    2  503  502  0.12793486526E+03 -0.18864982294E+02  0.23300526036E+03  0.26648577572E+03  0.00000000000E+00 0.  1.
          2    1    1    2  501    0 -0.89118261737E+02  0.71244220467E+02  0.54498562902E+02  0.12644325559E+03  0.00000000000E+00 0. -1.
<scales pt_clust_5="13000.00000" pt_clust_6="13000.00000" pt_clust_7="13000.00000" pt_clust_8="13000.00000" pt_clust_9="112.29703" pt_clust_10="13000.00000"></scales>
<clustering>
<clus scale="   92.153">  7  8 -1 -1</clus>
<clus scale="   97.941">  1  7  2 -1</clus>
<clus scale="   99.918">  5  6 -1 -1</clus>
<clus scale="  112.297">  2  9  1 -1</clus>
<clus scale="   80.512">  5 10 -1 -1</clus>
<clus scale="  112.297">  2  5  1 -1</clus>
</clustering>
</event>
<event>
10    2  0.5921424E-006  0.1034051E+04  0.7546771E-02  0.9596581E-01
         21   -1    0    0  501  502  0.00000000000E+00  0.00000000000E+00  0.49808117461E+03  0.49808117461E+03  0.00000000000E+00 0. -1.
          1   -1    0    0  503    0 -0.00000000000E+00 -0.00000000000E+00 -0.99287555727E+03  0.99287555727E+03  0.00000000000E+00 0. -1.
         23    2    1    2    0    0  0.30603087085E+03 -0.39963917151E+02 -0.12403705580E+03  0.34502602949E+03  0.91682938579E+02 0.  0.
         23    2    1    2    0    0 -0.20939844514E+03  0.11463202781E+03 -0.71886302076E+03  0.76291993315E+03  0.91074536262E+02 0.  0.
        -11    1    4    4    0    0 -0.12965359839E+03  0.26003241877E+02 -0.30991975155E+03  0.33695174219E+03  0.00000000000E+00 0.  1.
         11    1    4    4    0    0 -0.79744846753E+02  0.88628785937E+02 -0.40894326921E+03  0.42596819096E+03  0.00000000000E+00 0. -1.
        -13    1    3    3    0    0  0.20192008349E+03 -0.80008506354E+00 -0.11745515108E+03  0.23359810095E+03  0.00000000000E+00 0. -1.
         13    1    3    3    0    0  0.10411078736E+03 -0.39163832087E+02 -0.65819047172E+01  0.11142792854E+03  0.00000000000E+00 0.  1.
         21    1    1    2  503  502  0.20306248849E+02 -0.47625786805E+01  0.26395255064E+02  0.33641275063E+02  0.00000000000E+00 0.  1.
          1    1    1    2  501    0 -0.11693867456E+03 -0.69905531982E+02  0.32171043883E+03  0.34936949418E+03  0.00000000000E+00 0. -1.
<scales pt_clust_5="13000.00000" pt_clust_6="13000.00000" pt_clust_7="13000.00000" pt_clust_8="13000.00000" pt_clust_9="20.85727" pt_clust_10="13000.00000"></scales>
<clustering>
<clus scale="   20.857">  1  9  2 -1</clus>
<clus scale="   91.075">  5  6 -1 -1</clus>
<clus scale="   91.683">  7  8 -1 -1</clus>
<clus scale="  125.928">  5 10 -1 -1</clus>
<clus scale="  326.659">  2  7  1 -1</clus>
<clus scale="   20.857">  1  5  2 -1</clus>
</clustering>
</event>
<event>
10    2  0.5921424E-006  0.4107984E+03  0.7546771E-02  0.1044555E+00
         21   -1    0    0  503  502  0.00000000000E+00  0.00000000000E+00  0.53694850571E+02  0.53694850571E+02  0.00000000000E+00 0. -1.
          2   -1    0    0  502    0 -0.00000000000E+00 -0.00000000000E+00 -0.33830271285E+04  0.33830271285E+04  0.00000000000E+00 0. -1.
         23    2    1    2    0    0 -0.32547234507E+03 -0.11661354298E+03 -0.19003022803E+04  0.19337409586E+04  0.93136310654E+02 0.  0.
         23    2    1    2    0    0  0.49403282023E+02  0.42487498308E+02 -0.25695852628E+03  0.28049156418E+03  0.91662214461E+02 0.  0.
        -11    1    4    4    0    0 -0.10647414610E+02  0.50135748174E+02 -0.10267220253E+03  0.11475426726E+03  0.00000000000E+00 0. -1.
         11    1    4    4    0    0  0.60050696634E+02 -0.76482498661E+01 -0.15428632375E+03  0.16573729691E+03  0.00000000000E+00 0.  1.
        -13    1    3    3    0    0 -0.27440760799E+03 -0.13154998999E+03 -0.16534195182E+04  0.16811903636E+04  0.00000000000E+00 0. -1.
         13    1    3    3    0    0 -0.51064737077E+02  0.14936447011E+02 -0.24688276209E+03  0.25255059501E+03  0.00000000000E+00 0.  1.
         21    1    1    2  503  501  0.19896235716E+01 -0.30538155566E+02 -0.28273927742E+02  0.41664763737E+02  0.00000000000E+00 0. -1.
          2    1    1    2  501    0  0.27407943947E+03  0.10466420024E+03 -0.11437975435E+04  0.11808246926E+04  0.00000000000E+00 0. -1.
<scales pt_clust_5="13000.00000" pt_clust_6="13000.00000" pt_clust_7="13000.00000" pt_clust_8="13000.00000" pt_clust_9="30.60290" pt_clust_10="13000.00000"></scales>
<clustering>
<clus scale="   30.603">  1  9  2 -1</clus>
<clus scale="   91.662">  5  6 -1 -1</clus>
<clus scale="   93.136">  7  8 -1 -1</clus>
<clus scale="  290.054">  5 10 -1 -1</clus>
<clus scale="  361.105">  2  7  1 -1</clus>
<clus scale="   30.603">  1  5  2 -1</clus>
</clustering>
</event>
<event>
10    2  0.5921424E-006  0.2172049E+03  0.7546771E-02  0.1166422E+00
         21   -1    0    0  503  502  0.00000000000E+00  0.00000000000E+00  0.48976614573E+03  0.48976614573E+03  0.00000000000E+00 0. -1.
          2   -1    0    0  502    0 -0.00000000000E+00 -0.00000000000E+00 -0.21477524737E+03  0.21477524737E+03  0.00000000000E+00 0. -1.
         23    2    1    2    0    0 -0.14580313401E+01 -0.57201522969E+02 -0.12245378991E+03  0.16312835659E+03  0.91333400110E+02 0.  0.
         23    2    1    2    0    0 -0.49996685762E+02 -0.13881288421E+02 -0.42207738364E+01  0.10571277851E+03  0.92005531649E+02 0.  0.
        -13    1    3    3    0    0  0.18226159699E+02  0.12548190887E+02 -0.15698823086E+01  0.22183654396E+02  0.00000000000E+00 0.  1.
         13    1    3    3    0    0 -0.19684191039E+02 -0.69749713856E+02 -0.12088390760E+03  0.14094470220E+03  0.00000000000E+00 0. -1.
        -13    1    4    4    0    0 -0.32393178177E+02  0.29560124890E+02  0.24999012341E+02  0.50478407205E+02  0.00000000000E+00 0.  1.
         13    1    4    4    0    0 -0.17603507586E+02 -0.43441413311E+02 -0.29219786177E+02  0.55234371310E+02  0.00000000000E+00 0. -1.
         21    1    1    2  503  501 -0.23559797629E+02  0.36235768413E+02  0.30684183917E+03  0.30987095579E+03  0.00000000000E+00 0. -1.
          2    1    1    2  501    0  0.75014514732E+02  0.34847042977E+02  0.94823622936E+02  0.12582930220E+03  0.00000000000E+00 0. -1.
<scales pt_clust_5="13000.00000" pt_clust_6="13000.00000" pt_clust_7="13000.00000" pt_clust_8="13000.00000" pt_clust_9="43.22146" pt_clust_10="13000.00000"></scales>
<clustering>
<clus scale="   43.221">  1  9  2 -1</clus>
<clus scale="   91.333">  5  6 -1 -1</clus>
<clus scale="   92.006">  7  8 -1 -1</clus>
<clus scale="   83.178">  7 10 -1 -1</clus>
<clus scale="  105.747">  2  5  1 -1</clus>
<clus scale="   43.221">  1  5  2 -1</clus>
</clustering>
</event>
<event>
10    2  0.5921424E-006  0.4976962E+03  0.7546771E-02  0.1028243E+00
          1   -1    0    0  502    0 -0.00000000000E+00  0.00000000000E+00  0.25233341028E+03  0.25233341028E+03  0.00000000000E+00 0. -1.
         21   -1    0    0  503  502  0.00000000000E+00 -0.00000000000E+00 -0.73499267115E+03  0.73499267115E+03  0.00000000000E+00 0. -1.
         23    2    1    2    0    0  0.29656014297E+03 -0.13316325525E+03 -0.17446251161E+03  0.37915346390E+03  0.87406008304E+02 0.  0.
         23    2    1    2    0    0  0.35404300484E+01  0.13681871965E+03  0.15487247777E+02  0.16447657435E+03  0.89893225409E+02 0.  0.
        -11    1    3    3    0    0  0.77557606667E+02 -0.58878244462E+02 -0.91051738211E+02  0.13331259901E+03  0.00000000000E+00 0.  1.
         11    1    3    3    0    0  0.21900253630E+03 -0.74285010785E+02 -0.83410773395E+02  0.24584086489E+03  0.00000000000E+00 0. -1.
        -13    1    4    4    0    0  0.19993407594E+02  0.11312296615E+01 -0.14274838055E+02  0.24592418125E+02  0.00000000000E+00 0.  1.
         13    1    4    4    0    0 -0.16452977545E+02  0.13568748999E+03  0.29762085831E+02  0.13988415623E+03  0.00000000000E+00 0. -1.
         21    1    1    2  503  501 -0.24948288235E+02  0.15821659211E+01 -0.48228465603E+02  0.54322235128E+02  0.00000000000E+00 0. -1.
          1    1    1    2  501    0 -0.27515228478E+03 -0.52376303270E+01 -0.27545553144E+03  0.38937380805E+03  0.00000000000E+00 0. -1.
<scales pt_clust_5="13000.00000" pt_clust_6="13000.00000" pt_clust_7="13000.00000" pt_clust_8="13000.00000" pt_clust_9="24.99841" pt_clust_10="13000.00000"></scales>
<clustering>
<clus scale="   24.998">  2  9  1 -1</clus>
<clus scale="   87.406">  5  6 -1 -1</clus>
<clus scale="   89.893">  7  8 -1 -1</clus>
<clus scale="  287.317">  7 10 -1 -1</clus>
<clus scale="  327.508">  1  5  2 -1</clus>
<clus scale="   24.998">  2  5  1 -1</clus>
</clustering>
</event>
<event>
10    2  0.5921424E-006  0.2320404E+03  0.7546771E-02  0.1129905E+00
          2   -1    0    0  503    0 -0.00000000000E+00  0.00000000000E+00  0.73918006826E+03  0.73918006826E+03  0.00000000000E+00 0. -1.
         21   -1    0    0  501  502  0.00000000000E+00 -0.00000000000E+00 -0.60919925925E+03  0.60919925925E+03  0.00000000000E+00 0.  1.
         23    2    1    2    0    0  0.13001202204E+03 -0.96543428349E+02  0.95345427697E+02  0.20932602053E+03  0.92211023496E+02 0.  0.
         23    2    1    2    0    0 -0.93660621271E+02  0.62046027629E+02  0.29158121248E+03  0.32451430264E+03  0.87566589672E+02 0.  0.
        -11    1    4    4    0    0 -0.55042587872E+02 -0.10205015837E+02  0.80133232888E+02  0.97750518367E+02  0.00000000000E+00 0.  1.
         11    1    4    4    0    0 -0.38618033399E+02  0.72251043467E+02  0.21144797959E+03  0.22676378427E+03  0.00000000000E+00 0. -1.
        -13    1    3    3    0    0  0.11941805826E+03 -0.11449231757E+03  0.82808350107E+02  0.18500374663E+03  0.00000000000E+00 0. -1.
         13    1    3    3    0    0  0.10593963786E+02  0.17948889221E+02  0.12537077590E+02  0.24322273896E+02  0.00000000000E+00 0.  1.
         21    1    1    2  503  502  0.62080919137E+02  0.44881494379E+02 -0.52408437751E+03  0.52965349410E+03  0.00000000000E+00 0.  1.
          2    1    1    2  501    0 -0.98432319910E+02 -0.10384093660E+02  0.26713854635E+03  0.28488551025E+03  0.00000000000E+00 0. -1.
<scales pt_clust_5="13000.00000" pt_clust_6="13000.00000" pt_clust_7="13000.00000" pt_clust_8="13000.00000" pt_clust_9="76.60541" pt_clust_10="13000.00000"></scales>
<clustering>
<clus scale="   76.605">  2  9  1 -1</clus>
<clus scale="   87.567">  5  6 -1 -1</clus>
<clus scale="   91.909">  5 10 -1 -1</clus>
<clus scale="   92.211">  7  8 -1 -1</clus>
<clus scale="  206.673">  1  7  2 -1</clus>
<clus scale="   76.605">  2  5  1 -1</clus>
</clustering>
</event>
<event>
10    2  0.5921424E-006  0.5331664E+03  0.7546771E-02  0.1058905E+00
          1   -1    0    0  502    0 -0.00000000000E+00  0.00000000000E+00  0.17278144381E+04  0.17278144381E+04  0.00000000000E+00 0. -1.
         21   -1    0    0  503  502  0.00000000000E+00 -0.00000000000E+00 -0.92910050851E+02  0.92910050851E+02  0.00000000000E+00 0. -1.
         23    2    1    2    0    0  0.64289375084E+02  0.45270421730E+02  0.52133193079E+03  0.53333807836E+03  0.80498378473E+02 0.  0.
         23    2    1    2    0    0 -0.22127389067E+03 -0.49757811878E+02  0.25696719627E+03  0.35376162460E+03  0.87619475844E+02 0.  0.
        -11    1    3    3    0    0  0.10761102942E+02 -0.22600322079E+02  0.89193632227E+02  0.92639515999E+02  0.00000000000E+00 0.  1.
         11    1    3    3    0    0  0.53528272142E+02  0.67870743809E+02  0.43213829856E+03  0.44069856236E+03  0.00000000000E+00 0. -1.
        -13    1    4    4    0    0 -0.18593965705E+02  0.20454954176E+02  0.19913348518E+02  0.34068785716E+02  0.00000000000E+00 0.  1.
         13    1    4    4    0    0 -0.20267992497E+03 -0.70212766054E+02  0.23705384775E+03  0.31969283889E+03  0.00000000000E+00 0. -1.
         21    1    1    2  503  501 -0.34926738596E+02 -0.24176647260E+02 -0.11573129464E+02  0.44026408748E+02  0.00000000000E+00 0. -1.
          1    1    1    2  501    0  0.19191125419E+03  0.28664037408E+02  0.86817838967E+03  0.88959837725E+03  0.00000000000E+00 0. -1.
<scales pt_clust_5="13000.00000" pt_clust_6="13000.00000" pt_clust_7="13000.00000" pt_clust_8="13000.00000" pt_clust_9="42.47808" pt_clust_10="13000.00000"></scales>
<clustering>
<clus scale="   42.478">  2  9  1 -1</clus>
<clus scale="   80.498">  5  6 -1 -1</clus>
<clus scale="   87.619">  7  8 -1 -1</clus>
<clus scale="  109.827">  1  5  2 -1</clus>
<clus scale="  233.858">  7 10 -1 -1</clus>
<clus scale="   42.478">  2  5  1 -1</clus>
</clustering>
</event>
<event>
10    2  0.5921424E-006  0.2314041E+03  0.7546771E-02  0.1165083E+00
         21   -1    0    0  501  502  0.00000000000E+00  0.00000000000E+00  0.63048965835E+02  0.63048965835E+02  0.00000000000E+00 0. -1.
          1   -1    0    0  503    0 -0.00000000000E+00 -0.00000000000E+00 -0.85859483782E+03  0.85859483782E+03  0.00000000000E+00 0. -1.
         23    2    1    2    0    0  0.16830975758E+01 -0.14257736500E+02 -0.33356584836E+03  0.34575214709E+03  0.89845735329E+02 0.  0.
         23    2    1    2    0    0  0.95392060258E+02 -0.23863983850E+02 -0.20229878834E+03  0.24271771205E+03  0.91202812977E+02 0.  0.
        -11    1    3    3    0    0  0.35128915243E+02  0.15949228659E+02 -0.88006577012E+02  0.96091498991E+02  0.00000000000E+00 0.  1.
         11    1    3    3    0    0 -0.33445817668E+02 -0.30206965159E+02 -0.24555927135E+03  0.24966064810E+03  0.00000000000E+00 0. -1.
        -13    1    4    4    0    0  0.13882702301E+02 -0.26504576347E+02 -0.13106139856E+03  0.13443330013E+03  0.00000000000E+00 0.  1.
         13    1    4    4    0    0  0.81509357958E+02  0.26405924965E+01 -0.71237389778E+02  0.10828441192E+03  0.00000000000E+00 0. -1.
         21    1    1    2  503  502 -0.11981183335E+02  0.34161317137E+02  0.19616137343E+02  0.41174472515E+02  0.00000000000E+00 0. -1.
          1    1    1    2  501    0 -0.85093974499E+02  0.39604032139E+01 -0.27929737263E+03  0.29199947200E+03  0.00000000000E+00 0. -1.
<scales pt_clust_5="13000.00000" pt_clust_6="13000.00000" pt_clust_7="13000.00000" pt_clust_8="13000.00000" pt_clust_9="36.20144" pt_clust_10="13000.00000"></scales>
<clustering>
<clus scale="   36.201">  1  9  2 -1</clus>
<clus scale="   89.846">  5  6 -1 -1</clus>
<clus scale="   90.193">  2  5  1 -1</clus>
<clus scale="   91.203">  7  8 -1 -1</clus>
<clus scale="   87.952">  7 10 -1 -1</clus>
<clus scale="   36.201">  1  5  2 -1</clus>
</clustering>
</event>
<event>
10    2  0.5921424E-006  0.1325332E+03  0.7546771E-02  0.1226474E+00
         21   -1    0    0  503  502  0.00000000000E+00  0.00000000000E+00  0.44224936906E+02  0.44224936906E+02  0.00000000000E+00 0.  1.
          4   -1    0    0  502    0 -0.00000000000E+00 -0.00000000000E+00 -0.52614046843E+03  0.52614046843E+03  0.00000000000E+00 0. -1.
         23    2    1    2    0    0 -0.70929072422E+02  0.32245908897E+02 -0.29670548882E+03  0.32039114601E+03  0.92442454498E+02 0.  0.
         23    2    1    2    0    0  0.66621029940E+02 -0.38418180592E+02 -0.14277227567E+03  0.18557407240E+03  0.90219152147E+02 0.  0.
        -11    1    4    4    0    0  0.26873549387E+02 -0.33952519622E+02 -0.67882025410E+01  0.43829681028E+02  0.00000000000E+00 0.  1.
         11    1    4    4    0    0  0.39747480553E+02 -0.44656609699E+01 -0.13598407313E+03  0.14174439137E+03  0.00000000000E+00 0. -1.
        -11    1    3    3    0    0 -0.76135007514E+02 -0.10630130059E+02 -0.20743527175E+03  0.22122145239E+03  0.00000000000E+00 0. -1.
         11    1    3    3    0    0  0.52059350921E+01  0.42876038956E+02 -0.89270217069E+02  0.99169693618E+02  0.00000000000E+00 0.  1.
         21    1    1    2  503  501 -0.14138064845E+02  0.20435642221E+02 -0.25297557554E+02  0.35460777892E+02  0.00000000000E+00 0. -1.
          4    1    1    2  501    0  0.18446107327E+02 -0.14263370526E+02 -0.17140209477E+02  0.28939409033E+02  0.00000000000E+00 0. -1.
<scales pt_clust_5="13000.00000" pt_clust_6="13000.00000" pt_clust_7="13000.00000" pt_clust_8="13000.00000" pt_clust_9="24.84955" pt_clust_10="13000.00000"></scales>
<clustering>
<clus scale="   24.850">  1  9  2 -1</clus>
<clus scale="   90.219">  5  6 -1 -1</clus>
<clus scale="   19.780">  5 10 -1 -1</clus>
<clus scale="   92.442">  7  8 -1 -1</clus>
<clus scale="  125.213">  2  7  1 -1</clus>
<clus scale="   24.850">  1  5  2 -1</clus>
</clustering>
</event>
<event>
10    2  0.5921424E-006  0.6241627E+03  0.7546771E-02  0.1047959E+00
          1   -1    0    0  503    0 -0.00000000000E+00  0.00000000000E+00  0.47560471878E+03  0.47560471878E+03  0.00000000000E+00 0. -1.
         21   -1    0    0  501  502  0.00000000000E+00 -0.00000000000E+00 -0.29144217113E+03  0.29144217113E+03  0.00000000000E+00 0. -1.
         23    2    1    2    0    0 -0.18349580920E+02 -0.55819625500E+01  0.25954933406E+02  0.96347932509E+02  0.90782157414E+02 0.  0.
         23    2    1    2    0    0 -0.10745931581E+02 -0.27832637900E+02  0.39853777032E+03  0.41006663368E+03  0.91826787503E+02 0.  0.
        -11    1    4    4    0    0 -0.48786077215E+02 -0.31196014895E+02  0.22028939940E+03  0.22777333505E+03  0.00000000000E+00 0. -1.
         11    1    4    4    0    0  0.38040145634E+02  0.33633769951E+01  0.17824837093E+03  0.18229329862E+03  0.00000000000E+00 0.  1.
        -13    1    3    3    0    0  0.99747701602E+01 -0.26977462867E+02  0.46984517100E+02  0.55089240234E+02  0.00000000000E+00 0. -1.
         13    1    3    3    0    0 -0.28324351080E+02  0.21395500317E+02 -0.21029583693E+02  0.41258692275E+02  0.00000000000E+00 0.  1.
         21    1    1    2  503  502 -0.19209013331E+02 -0.63288757946E+01 -0.11203707174E+02  0.23120638322E+02  0.00000000000E+00 0. -1.
          1    1    1    2  501    0  0.48304525832E+02  0.39743476244E+02 -0.22912644890E+03  0.23751168541E+03  0.00000000000E+00 0. -1.
<scales pt_clust_5="13000.00000" pt_clust_6="13000.00000" pt_clust_7="13000.00000" pt_clust_8="13000.00000" pt_clust_9="20.22476" pt_clust_10="13000.00000"></scales>
<clustering>
<clus scale="   20.225">  2  9  1 -1</clus>
<clus scale="   90.782">  7  8 -1 -1</clus>
<clus scale="   91.827">  5  6 -1 -1</clus>
<clus scale="   46.929">  5 10 -1 -1</clus>
<clus scale="   93.357">  1  7  2 -1</clus>
<clus scale="   20.225">  2  5  1 -1</clus>
</clustering>
</event>
<event>
10    2  0.5921424E-006  0.1181589E+03  0.7546771E-02  0.1253762E+00
         21   -1    0    0  501  502  0.00000000000E+00  0.00000000000E+00  0.22998965439E+02  0.22998965439E+02  0.00000000000E+00 0.  1.
          1   -1    0    0  503    0 -0.00000000000E+00 -0.00000000000E+00 -0.75107002641E+03  0.75107002641E+03  0.00000000000E+00 0. -1.
         23    2    1    2    0    0  0.20101631235E+02  0.39427017768E+02 -0.20022577960E+03  0.22455204742E+03  0.91513353550E+02 0.  0.
         23    2    1    2    0    0  0.19151554605E+01 -0.18535556600E+02 -0.38079093907E+03  0.39146331129E+03  0.88851280945E+02 0.  0.
        -11    1    4    4    0    0 -0.43147620872E+02 -0.13498493379E+02 -0.17616042113E+03  0.18186924007E+03  0.00000000000E+00 0.  1.
         11    1    4    4    0    0  0.45062776333E+02 -0.50370632202E+01 -0.20463051794E+03  0.20959407122E+03  0.00000000000E+00 0. -1.
        -11    1    3    3    0    0  0.35003325183E+02 -0.18749144781E+02 -0.10156044867E+03  0.10904718216E+03  0.00000000000E+00 0. -1.
         11    1    3    3    0    0 -0.14901693949E+02  0.58176162548E+02 -0.98665330930E+02  0.11550486526E+03  0.00000000000E+00 0.  1.
         21    1    1    2  503  502 -0.26047204071E+02  0.69706869553E+01 -0.47763135048E+02  0.54848558651E+02  0.00000000000E+00 0.  1.
          1    1    1    2  501    0  0.40304173763E+01 -0.27862148123E+02 -0.99291207255E+02  0.10320507449E+03  0.00000000000E+00 0. -1.
<scales pt_clust_5="13000.00000" pt_clust_6="13000.00000" pt_clust_7="13000.00000" pt_clust_8="13000.00000" pt_clust_9="26.96381" pt_clust_10="13000.00000"></scales>
<clustering>
<clus scale="   26.964">  1  9  2 -1</clus>
<clus scale="   88.851">  5  6 -1 -1</clus>
<clus scale="   27.198">  5 10 -1 -1</clus>
<clus scale="   91.513">  7  8 -1 -1</clus>
<clus scale="  101.520">  2  7  1 -1</clus>
<clus scale="   26.964">  1  5  2 -1</clus>
</clustering>
</event>
<event>
10    2  0.5921424E-006  0.3864497E+03  0.7546771E-02  0.1083551E+00
         -1   -1    0    0    0  501 -0.00000000000E+00  0.00000000000E+00  0.15176050807E+03  0.15176050807E+03  0.00000000000E+00 0.  1.
         21   -1    0    0  503  502  0.00000000000E+00 -0.00000000000E+00 -0.81676180932E+03  0.81676180932E+03  0.00000000000E+00 0.  1.
         23    2    1    2    0    0  0.87789313608E+02  0.70767160746E+02  0.33363512372E+02  0.14922368137E+03  0.91867450717E+02 0.  0.
         23    2    1    2    0    0  0.18100445691E+02  0.60146017321E+02 -0.28811807645E+02  0.11600571966E+03  0.93177450067E+02 0.  0.
        -11    1    4    4    0    0  0.54986620322E+02  0.35212942857E+02 -0.29090448389E+02  0.71482403055E+02  0.00000000000E+00 0.  1.
         11    1    4    4    0    0 -0.36886174631E+02  0.24933074464E+02  0.27864074460E+00  0.44523316608E+02  0.00000000000E+00 0. -1.
        -13    1    3    3    0    0  0.66288854459E+02  0.92019033320E+02  0.16488797110E+02  0.11460189854E+03  0.00000000000E+00 0.  1.
         13    1    3    3    0    0  0.21500459149E+02 -0.21251872574E+02  0.16874715262E+02  0.34621782835E+02  0.00000000000E+00 0. -1.
         21    1    1    2  503  501  0.13724390750E+02  0.17567808917E+02 -0.10727081962E+03  0.10956283838E+03  0.00000000000E+00 0.  1.
         -1    1    1    2    0  502 -0.11961415005E+03 -0.14848098698E+03 -0.56228218635E+03  0.59373007796E+03  0.00000000000E+00 0.  1.
<scales pt_clust_5="13000.00000" pt_clust_6="13000.00000" pt_clust_7="13000.00000" pt_clust_8="13000.00000" pt_clust_9="22.29320" pt_clust_10="13000.00000"></scales>
<clustering>
<clus scale="   22.293">  2  9  1 -1</clus>
<clus scale="   91.867">  7  8 -1 -1</clus>
<clus scale="   93.177">  5  6 -1 -1</clus>
<clus scale="  146.828">  1  7  2 -1</clus>
<clus scale="  146.423">  5 10 -1 -1</clus>
<clus scale="   22.293">  2  5  1 -1</clus>
</clustering>
</event>
<event>
10    2  0.5921424E-006  0.1967441E+03  0.7546771E-02  0.1185431E+00
         21   -1    0    0  501  502  0.00000000000E+00  0.00000000000E+00  0.72678054537E+03  0.72678054537E+03  0.00000000000E+00 0. -1.
          1   -1    0    0  503    0 -0.00000000000E+00 -0.00000000000E+00 -0.75227901605E+02  0.75227901605E+02  0.00000000000E+00 0. -1.
         23    2    1    2    0    0  0.22342725703E+02  0.16517869481E+02  0.21772394857E+02  0.97015850215E+02  0.90365926162E+02 0.  0.
         23    2    1    2    0    0 -0.53472366912E+02 -0.28220514814E+02  0.13789196941E+03  0.17504556745E+03  0.89280815278E+02 0.  0.
        -13    1    3    3    0    0  0.20329468301E+02  0.46885082712E+02 -0.11019485554E+02  0.52277407398E+02  0.00000000000E+00 0.  1.
         13    1    3    3    0    0  0.20132574016E+01 -0.30367213231E+02  0.32791880411E+02  0.44738442817E+02  0.00000000000E+00 0. -1.
        -13    1    4    4    0    0 -0.76266139183E+02 -0.33712615562E+02  0.97050094274E+02  0.12795227717E+03  0.00000000000E+00 0. -1.
         13    1    4    4    0    0  0.22793772271E+02  0.54921007480E+01  0.40841875139E+02  0.47093290285E+02  0.00000000000E+00 0.  1.
         21    1    1    2  503  502 -0.59166720554E+02 -0.39919421904E+01  0.38326076714E+03  0.38782141773E+03  0.00000000000E+00 0. -1.
          1    1    1    2  501    0  0.90296361763E+02  0.15694587523E+02  0.10862751236E+03  0.14212561158E+03  0.00000000000E+00 0. -1.
<scales pt_clust_5="13000.00000" pt_clust_6="13000.00000" pt_clust_7="13000.00000" pt_clust_8="13000.00000" pt_clust_9="59.30123" pt_clust_10="13000.00000"></scales>
<clustering>
<clus scale="   59.301">  1  9  2 -1</clus>
<clus scale="   89.281">  7  8 -1 -1</clus>
<clus scale="   70.018">  7 10 -1 -1</clus>
<clus scale="   90.366">  5  6 -1 -1</clus>
<clus scale="   92.528">  2  5  1 -1</clus>
<clus scale="   59.301">  1  5  2 -1</clus>
</clustering>
</event>
<event>
10    2  0.5921424E-006  0.3934172E+03  0.7546771E-02  0.1087863E+00
         21   -1    0    0  503  502  0.00000000000E+00  0.00000000000E+00  0.33110740415E+03  0.33110740415E+03  0.00000000000E+00 0.  1.
          2   -1    0    0  502    0 -0.00000000000E+00 -0.00000000000E+00 -0.11145254342E+04  0.11145254342E+04  0.00000000000E+00 0. -1.
         23    2    1    2    0    0 -0.95261617891E+02 -0.34567157647E+02 -0.33995539341E+03  0.36547655057E+03  0.87941885804E+02 0.  0.
         23    2    1    2    0    0  0.18617732641E+03  0.36839134138E+02 -0.31180316615E+03  0.37763936906E+03  0.96804751781E+02 0.  0.
        -13    1    3    3    0    0 -0.27708268430E+02 -0.53103593605E+02 -0.11213599704E+03  0.12713072652E+03  0.00000000000E+00 0.  1.
         13    1    3    3    0    0 -0.67553349461E+02  0.18536435958E+02 -0.22781939637E+03  0.23834582405E+03  0.00000000000E+00 0. -1.
        -13    1    4    4    0    0  0.13815055725E+03  0.18094223079E+02 -0.13703896516E+03  0.19542941270E+03  0.00000000000E+00 0. -1.
         13    1    4    4    0    0  0.48026769160E+02  0.18744911059E+02 -0.17476420100E+03  0.18220995636E+03  0.00000000000E+00 0.  1.
         21    1    1    2  503  501  0.72867527897E+02 -0.14856011203E+01  0.26422335938E+03  0.27409098357E+03  0.00000000000E+00 0.  1.
          2    1    1    2  501    0 -0.16378323642E+03 -0.78637537052E+00 -0.39588282988E+03  0.42842593516E+03  0.00000000000E+00 0. -1.
<scales pt_clust_5="13000.00000" pt_clust_6="13000.00000" pt_clust_7="13000.00000" pt_clust_8="13000.00000" pt_clust_9="72.88267" pt_clust_10="13000.00000"></scales>
<clustering>
<clus scale="   72.883">  1  9  2 -1</clus>
<clus scale="   87.942">  5  6 -1 -1</clus>
<clus scale="   96.805">  7  8 -1 -1</clus>
<clus scale="  124.058">  2  5  1 -1</clus>
<clus scale="  178.344">  7 10 -1 -1</clus>
<clus scale="   72.883">  1  5  2 -1</clus>
</clustering>
</event>
<event>
10    2  0.5921424E-006  0.3988758E+03  0.7546771E-02  0.1049174E+00
         21   -1    0    0  501  502  0.00000000000E+00  0.00000000000E+00  0.56360590122E+03  0.56360590122E+03  0.00000000000E+00 0.  1.
          4   -1    0    0  503    0 -0.00000000000E+00 -0.00000000000E+00 -0.48558794704E+03  0.48558794704E+03  0.00000000000E+00 0. -1.
         23    2    1    2    0    0 -0.14554027749E+03  0.39137764501E+03  0.60309094974E+02  0.43050872589E+03  0.85686304296E+02 0.  0.
         23    2    1    2    0    0  0.36451285349E+02 -0.20578588398E+03 -0.17366114015E+03  0.28656039837E+03  0.91006285880E+02 0.  0.
        -11    1    3    3    0    0 -0.10092833544E+03  0.16622702773E+03  0.55908085767E+01  0.19454873627E+03  0.00000000000E+00 0. -1.
         11    1    3    3    0    0 -0.44611942044E+02  0.22515061728E+03  0.54718286398E+02  0.23595998961E+03  0.00000000000E+00 0.  1.
        -13    1    4    4    0    0 -0.25396003432E+02 -0.11035895366E+03 -0.73346653102E+02  0.13492141107E+03  0.00000000000E+00 0.  1.
         13    1    4    4    0    0  0.61847288781E+02 -0.95426930320E+02 -0.10031448705E+03  0.15163898731E+03  0.00000000000E+00 0. -1.
         21    1    1    2  503  502  0.12969440212E+02 -0.12791292703E+03  0.17750144270E+03  0.21917272970E+03  0.00000000000E+00 0.  1.
          4    1    1    2  501    0  0.96119551928E+02 -0.57678833999E+02  0.13868556653E+02  0.11295199431E+03  0.00000000000E+00 0. -1.
<scales pt_clust_5="13000.00000" pt_clust_6="13000.00000" pt_clust_7="13000.00000" pt_clust_8="13000.00000" pt_clust_9="128.56875" pt_clust_10="13000.00000"></scales>
<clustering>
<clus scale="   85.686">  5  6 -1 -1</clus>
<clus scale="   91.006">  7  8 -1 -1</clus>
<clus scale="  112.097">  7 10 -1 -1</clus>
<clus scale="  128.569">  1  9  2 -1</clus>
<clus scale="  345.480">  2  5  1 -1</clus>
<clus scale="  128.569">  1  5  2 -1</clus>
</clustering>
</event>
<event>
10    2  0.5921424E-006  0.1379131E+03  0.7546771E-02  0.1234071E+00
          3   -1    0    0  503    0 -0.00000000000E+00  0.00000000000E+00  0.12343545851E+03  0.12343545851E+03  0.00000000000E+00 0. -1.
         21   -1    0    0  501  502  0.00000000000E+00 -0.00000000000E+00 -0.16772228103E+03  0.16772228103E+03  0.00000000000E+00 0. -1.
         23    2    1    2    0    0  0.84188015568E+01 -0.62631342144E+01  0.39465088816E+02  0.10321303421E+03  0.94791002345E+02 0.  0.
         23    2    1    2    0    0  0.23341934911E+02  0.29929022754E+02 -0.92084514750E+01  0.97539044448E+02  0.89378281953E+02 0.  0.
        -11    1    3    3    0    0 -0.44701701097E+01 -0.43686395839E+02 -0.43951268243E+01  0.44133895613E+02  0.00000000000E+00 0.  1.
         11    1    3    3    0    0  0.12888971667E+02  0.37423261624E+02  0.43860215640E+02  0.59079138596E+02  0.00000000000E+00 0. -1.
        -13    1    4    4    0    0  0.49249239013E+02  0.41381679758E+02  0.73227508082E+01  0.64742209125E+02  0.00000000000E+00 0. -1.
         13    1    4    4    0    0 -0.25907304102E+02 -0.11452657004E+02 -0.16531202283E+02  0.32796835323E+02  0.00000000000E+00 0.  1.
         21    1    1    2  503  502 -0.20299329437E+02  0.40892390312E+01 -0.36189649849E+02  0.41695028572E+02  0.00000000000E+00 0. -1.
          3    1    1    2  501    0 -0.11461407031E+02 -0.27755127571E+02 -0.38353810009E+02  0.48710632307E+02  0.00000000000E+00 0. -1.
<scales pt_clust_5="13000.00000" pt_clust_6="13000.00000" pt_clust_7="13000.00000" pt_clust_8="13000.00000" pt_clust_9="20.70712" pt_clust_10="13000.00000"></scales>
<clustering>
<clus scale="   20.707">  2  9  1 -1</clus>
<clus scale="   89.378">  7  8 -1 -1</clus>
<clus scale="   32.113">  7 10 -1 -1</clus>
<clus scale="   94.791">  5  6 -1 -1</clus>
<clus scale="   94.997">  1  5  2 -1</clus>
<clus scale="   20.707">  2  5  1 -1</clus>
</clustering>
</event>
<event>
10    2  0.5921424E-006  0.3412520E+03  0.7546771E-02  0.1115429E+00
         21   -1    0    0  503  502  0.00000000000E+00  0.00000000000E+00  0.92586035464E+03  0.92586035464E+03  0.00000000000E+00 0. -1.
          1   -1    0    0  502    0 -0.00000000000E+00 -0.00000000000E+00 -0.61938021244E+02  0.61938021244E+02  0.00000000000E+00 0. -1.
         23    2    1    2    0    0  0.18302770671E+02  0.64350951279E+01  0.20681645348E+03  0.22678504749E+03  0.91005551863E+02 0.  0.
         23    2    1    2    0    0 -0.10561112315E+03 -0.27583397834E+02  0.58666967086E+02  0.15190156159E+03  0.87850544769E+02 0.  0.
        -11    1    4    4    0    0 -0.71949120101E+02 -0.62105071667E-01  0.76398292165E+02  0.10494464630E+03  0.00000000000E+00 0. -1.
         11    1    4    4    0    0 -0.33662003052E+02 -0.27521292762E+02 -0.17731325079E+02  0.46956915293E+02  0.00000000000E+00 0.  1.
        -11    1    3    3    0    0  0.52133838771E+02  0.20714195887E+02  0.11707382333E+03  0.12982024174E+03  0.00000000000E+00 0.  1.
         11    1    3    3    0    0 -0.33831068100E+02 -0.14279100759E+02  0.89742630157E+02  0.96964805754E+02  0.00000000000E+00 0. -1.
         21    1    1    2  503  501  0.58103024884E+01 -0.20661639520E+02  0.13678694182E+03  0.13846057351E+03  0.00000000000E+00 0.  1.
          1    1    1    2  501    0  0.81498049994E+02  0.41809942226E+02  0.46165197100E+03  0.47065119329E+03  0.00000000000E+00 0. -1.
<scales pt_clust_5="13000.00000" pt_clust_6="13000.00000" pt_clust_7="13000.00000" pt_clust_8="13000.00000" pt_clust_9="21.46306" pt_clust_10="13000.00000"></scales>
<clustering>
<clus scale="   21.463">  1  9  2 -1</clus>
<clus scale="   87.851">  5  6 -1 -1</clus>
<clus scale="   89.941">  5 10 -1 -1</clus>
<clus scale="   91.006">  7  8 -1 -1</clus>
<clus scale="   93.159">  2  7  1 -1</clus>
<clus scale="   21.463">  1  5  2 -1</clus>
</clustering>
</event>
<event>
10    2  0.5921424E-006  0.1619215E+03  0.7546771E-02  0.1207276E+00
         -1   -1    0    0    0  501 -0.00000000000E+00  0.00000000000E+00  0.36399811742E+03  0.36399811742E+03  0.00000000000E+00 0.  1.
         21   -1    0    0  501  502  0.00000000000E+00 -0.00000000000E+00 -0.78462765563E+02  0.78462765563E+02  0.00000000000E+00 0. -1.
         23    2    1    2    0    0  0.38174276924E+02  0.13112949958E+02  0.10434039573E+03  0.14396882985E+03  0.90613911246E+02 0.  0.
         23    2    1    2    0    0 -0.20701578347E+02 -0.53422632976E+02  0.20122610816E+03  0.22843981116E+03  0.91707511453E+02 0.  0.
        -11    1    3    3    0    0 -0.61790670610E+00 -0.35082745697E+02  0.53053945973E+02  0.63607405525E+02  0.00000000000E+00 0.  1.
         11    1    3    3    0    0  0.38792183630E+02  0.48195695655E+02  0.51286449760E+02  0.80361424324E+02  0.00000000000E+00 0. -1.
        -11    1    4    4    0    0 -0.41985046204E+02 -0.67956717447E+02  0.12874321923E+03  0.15151130667E+03  0.00000000000E+00 0.  1.
         11    1    4    4    0    0  0.21283467857E+02  0.14534084471E+02  0.72482888926E+02  0.76928504486E+02  0.00000000000E+00 0. -1.
         21    1    1    2  503  502  0.13036640708E+02  0.23653155303E+02 -0.22573628005E+02  0.35199352808E+02  0.00000000000E+00 0. -1.
         -1    1    1    2    0  503 -0.30509339285E+02  0.16656527715E+02  0.25424759686E+01  0.34852889166E+02  0.00000000000E+00 0.  1.
<scales pt_clust_5="13000.00000" pt_clust_6="13000.00000" pt_clust_7="13000.00000" pt_clust_8="13000.00000" pt_clust_9="27.00788" pt_clust_10="13000.00000"></scales>
<clustering>
<clus scale="   27.008">  2  9  1 -1</clus>
<clus scale="   90.614">  5  6 -1 -1</clus>
<clus scale="   91.708">  7  8 -1 -1</clus>
<clus scale="   35.823">  7 10 -1 -1</clus>
<clus scale="  102.968">  1  5  2 -1</clus>
<clus scale="   27.008">  2  5  1 -1</clus>
</clustering>
</event>
<event>
10    2  0.5921424E-006  0.4459524E+03  0.7546771E-02  0.1060784E+00
          1   -1    0    0  502    0 -0.00000000000E+00  0.00000000000E+00  0.13452027005E+04  0.13452027005E+04  0.00000000000E+00 0. -1.
         21   -1    0    0  503  502  0.00000000000E+00 -0.00000000000E+00 -0.13061974660E+03  0.13061974660E+03  0.00000000000E+00 0. -1.
         23    2    1    2    0    0  0.13899414277E+03 -0.66494998669E+02  0.27279957771E+02  0.18117067794E+03  0.91310798248E+02 0.  0.
         23    2    1    2    0    0  0.89188557747E+02  0.16717875760E+03  0.75547928849E+03  0.78435307507E+03  0.92506514407E+02 0.  0.
        -11    1    3    3    0    0  0.12279320816E+03 -0.31310008207E+02  0.50038884032E+02  0.13624382004E+03  0.00000000000E+00 0. -1.
         11    1    3    3    0    0  0.16200934609E+02 -0.35184990462E+02 -0.22758926261E+02  0.44926857898E+02  0.00000000000E+00 0.  1.
        -11    1    4    4    0    0  0.23643747159E+02 -0.56639936952E+01  0.60308078601E+02  0.65024395029E+02  0.00000000000E+00 0. -1.
         11    1    4    4    0    0  0.65544810587E+02  0.17284275130E+03  0.69517120989E+03  0.71932868004E+03  0.00000000000E+00 0.  1.
         21    1    1    2  503  501 -0.22031252512E+02 -0.33805652454E+02  0.20245104600E+02  0.45144905420E+02  0.00000000000E+00 0.  1.
          1    1    1    2  501    0 -0.20615144801E+03 -0.66878106479E+02  0.41157860305E+03  0.46515378869E+03  0.00000000000E+00 0. -1.
<scales pt_clust_5="13000.00000" pt_clust_6="13000.00000" pt_clust_7="13000.00000" pt_clust_8="13000.00000" pt_clust_9="40.35094" pt_clust_10="13000.00000"></scales>
<clustering>
<clus scale="   40.351">  2  9  1 -1</clus>
<clus scale="   91.311">  5  6 -1 -1</clus>
<clus scale="   92.507">  7  8 -1 -1</clus>
<clus scale="  178.069">  1  5  2 -1</clus>
<clus scale="  195.753">  7 10 -1 -1</clus>
<clus scale="   40.351">  2  5  1 -1</clus>
</clustering>
</event>
<event>
10    2  0.5921424E-006  0.1685706E+03  0.7546771E-02  0.1204988E+00
         21   -1    0    0  501  502  0.00000000000E+00  0.00000000000E+00  0.73786957465E+02  0.73786957465E+02  0.00000000000E+00 0.  1.
         -1   -1    0    0    0  501 -0.00000000000E+00 -0.00000000000E+00 -0.36758547790E+03  0.36758547790E+03  0.00000000000E+00 0.  1.
         23    2    1    2    0    0 -0.18888231985E+02 -0.35491023777E+02 -0.13170216678E+03  0.16318907892E+03  0.87571894280E+02 0.  0.
         23    2    1    2    0    0  0.76629252462E+02 -0.25541828846E+02 -0.77034231293E+02  0.14422094575E+03  0.91328971565E+02 0.  0.
        -11    1    3    3    0    0 -0.22792890321E+02 -0.62536432115E+02 -0.10875204070E+03  0.12750422561E+03  0.00000000000E+00 0.  1.
         11    1    3    3    0    0  0.39046583358E+01  0.27045408338E+02 -0.22950126075E+02  0.35684853310E+02  0.00000000000E+00 0. -1.
        -13    1    4    4    0    0  0.97112505899E+02 -0.13654575045E+02 -0.65028145644E+02  0.11766879768E+03  0.00000000000E+00 0.  1.
         13    1    4    4    0    0 -0.20483253437E+02 -0.11887253802E+02 -0.12006085649E+02  0.26552148066E+02  0.00000000000E+00 0. -1.
         21    1    1    2  503  502 -0.33243582428E+02  0.30788453038E+02 -0.58266837055E+01  0.45683857719E+02  0.00000000000E+00 0. -1.
         -1    1    1    2    0  503 -0.24497438049E+02  0.30244399586E+02 -0.79235438657E+02  0.88278552981E+02  0.00000000000E+00 0.  1.
<scales pt_clust_5="13000.00000" pt_clust_6="13000.00000" pt_clust_7="13000.00000" pt_clust_8="13000.00000" pt_clust_9="45.31076" pt_clust_10="13000.00000"></scales>
<clustering>
<clus scale="   45.311">  1  9  2 -1</clus>
<clus scale="   87.572">  5  6 -1 -1</clus>
<clus scale="   91.329">  7  8 -1 -1</clus>
<clus scale="   42.690">  7 10 -1 -1</clus>
<clus scale="   95.859">  2  5  1 -1</clus>
<clus scale="   45.311">  1  5  2 -1</clus>
</clustering>
</event>
<event>
10    2  0.5921424E-006  0.5322892E+03  0.7546771E-02  0.1023368E+00
          1   -1    0    0  503    0 -0.00000000000E+00  0.00000000000E+00  0.11196723606E+04  0.11196723606E+04  0.00000000000E+00 0. -1.
         21   -1    0    0  501  502  0.00000000000E+00 -0.00000000000E+00 -0.25812433627E+03  0.25812433627E+03  0.00000000000E+00 0.  1.
         23    2    1    2    0    0  0.28007522912E+03 -0.56375077325E+02 -0.40627016417E+02  0.30254532898E+03  0.90900155746E+02 0.  0.
         23    2    1    2    0    0 -0.14884381289E+03  0.99153500612E+02  0.86413059432E+03  0.88830020441E+03  0.10183158549E+03 0.  0.
        -11    1    3    3    0    0  0.25459891286E+03 -0.26961399664E+02 -0.53511316792E+02  0.26155493596E+03  0.00000000000E+00 0.  1.
         11    1    3    3    0    0  0.25476316267E+02 -0.29413677662E+02  0.12884300376E+02  0.40990393024E+02  0.00000000000E+00 0. -1.
        -13    1    4    4    0    0 -0.70117511134E+02 -0.99078287827E+01  0.32759143505E+03  0.33515784155E+03  0.00000000000E+00 0. -1.
         13    1    4    4    0    0 -0.78726301751E+02  0.10906132939E+03  0.53653915927E+03  0.55314236286E+03  0.00000000000E+00 0.  1.
         21    1    1    2  503  502  0.17479299871E+02  0.13198779186E+02 -0.47077977373E+01  0.22403059066E+02  0.00000000000E+00 0. -1.
          1    1    1    2  501    0 -0.14871071611E+03 -0.55977202472E+02  0.42752244177E+02  0.16454810441E+03  0.00000000000E+00 0. -1.
<scales pt_clust_5="13000.00000" pt_clust_6="13000.00000" pt_clust_7="13000.00000" pt_clust_8="13000.00000" pt_clust_9="21.90282" pt_clust_10="13000.00000"></scales>
<clustering>
<clus scale="   21.903">  2  9  1 -1</clus>
<clus scale="   90.900">  5  6 -1 -1</clus>
<clus scale="  101.832">  7  8 -1 -1</clus>
<clus scale="  153.674">  7 10 -1 -1</clus>
<clus scale="  309.749">  1  5  2 -1</clus>
<clus scale="   21.903">  2  5  1 -1</clus>
</clustering>
</event>
<event>
10    2  0.5921424E-006  0.3742589E+03  0.7546771E-02  0.1079036E+00
         21   -1    0    0  501  502  0.00000000000E+00  0.00000000000E+00  0.22138172029E+03  0.22138172029E+03  0.00000000000E+00 0. -1.
         -2   -1    0    0    0  501 -0.00000000000E+00 -0.00000000000E+00 -0.50626359803E+03  0.50626359803E+03  0.00000000000E+00 0.  1.
         23    2    1    2    0    0  0.92024390019E+02 -0.15103212639E+03 -0.99357624100E+02  0.22243120034E+03  0.91238751938E+02 0.  0.
         23    2    1    2    0    0  0.26532908446E+02 -0.20706474781E+02  0.46353988842E+02  0.10782362623E+03  0.91348173288E+02 0.  0.
        -13    1    4    4    0    0  0.70220448393E+01 -0.48725680292E+02  0.53751414677E+02  0.72888377766E+02  0.00000000000E+00 0. -1.
         13    1    4    4    0    0  0.19510863607E+02  0.28019205511E+02 -0.73974258352E+01  0.34935248462E+02  0.00000000000E+00 0.  1.
        -13    1    3    3    0    0  0.52835835620E+02 -0.50888370489E+02  0.37448786137E+01  0.73452541770E+02  0.00000000000E+00 0.  1.
         13    1    3    3    0    0  0.39188554400E+02 -0.10014375590E+03 -0.10310250271E+03  0.14897865857E+03  0.00000000000E+00 0. -1.
         21    1    1    2  503  502 -0.63553896518E+01  0.54271158397E+02  0.48690933624E+02  0.73188500658E+02  0.00000000000E+00 0. -1.
         -2    1    1    2    0  503 -0.11220190881E+03  0.11746744278E+03 -0.28056917610E+03  0.32420199110E+03  0.00000000000E+00 0.  1.
<scales pt_clust_5="13000.00000" pt_clust_6="13000.00000" pt_clust_7="13000.00000" pt_clust_8="13000.00000" pt_clust_9="54.64201" pt_clust_10="13000.00000"></scales>
<clustering>
<clus scale="   54.642">  1  9  2 -1</clus>
<clus scale="   91.239">  7  8 -1 -1</clus>
<clus scale="   91.348">  5  6 -1 -1</clus>
<clus scale="  168.436">  5 10 -1 -1</clus>
<clus scale="  182.501">  2  7  1 -1</clus>
<clus scale="   54.642">  1  5  2 -1</clus>
</clustering>
</event>
<event>
10    2  0.5921424E-006  0.2197457E+03  0.7546771E-02  0.1165690E+00
          2   -1    0    0  502    0 -0.00000000000E+00  0.00000000000E+00  0.32216796118E+03  0.32216796118E+03  0.00000000000E+00 0. -1.
         21   -1    0    0  503  502  0.00000000000E+00 -0.00000000000E+00 -0.13573047204E+03  0.13573047204E+03  0.00000000000E+00 0. -1.
         23    2    1    2    0    0 -0.63787684040E+02 -0.68077909082E+01 -0.62534961630E+01  0.11162982903E+03  0.91142184875E+02 0.  0.
         23    2    1    2    0    0 -0.56268537408E+02  0.94056613222E+01  0.17839278446E+03  0.20615983182E+03  0.86158435124E+02 0.  0.
        -11    1    4    4    0    0 -0.29529437494E+02 -0.30722370638E+02  0.13401399593E+03  0.14062575454E+03  0.00000000000E+00 0. -1.
         11    1    4    4    0    0 -0.26739099914E+02  0.40128031960E+02  0.44378788527E+02  0.65534077276E+02  0.00000000000E+00 0.  1.
        -13    1    3    3    0    0 -0.34406143353E+02 -0.71430795309E+01 -0.48670102730E+02  0.60029869109E+02  0.00000000000E+00 0. -1.
         13    1    3    3    0    0 -0.29381540687E+02  0.33528862269E+00  0.42416606567E+02  0.51599959925E+02  0.00000000000E+00 0.  1.
         21    1    1    2  503  501  0.36925209094E+02 -0.31739826399E+02 -0.77395839983E+01  0.49303030403E+02  0.00000000000E+00 0. -1.
          2    1    1    2  501    0  0.83131012354E+02  0.29141955985E+02  0.22037784849E+02  0.90805741970E+02  0.00000000000E+00 0. -1.
<scales pt_clust_5="13000.00000" pt_clust_6="13000.00000" pt_clust_7="13000.00000" pt_clust_8="13000.00000" pt_clust_9="48.69176" pt_clust_10="13000.00000"></scales>
<clustering>
<clus scale="   48.692">  2  9  1 -1</clus>
<clus scale="   86.158">  5  6 -1 -1</clus>
<clus scale="   91.142">  7  8 -1 -1</clus>
<clus scale="   96.848">  5 10 -1 -1</clus>
<clus scale="  103.858">  1  7  2 -1</clus>
<clus scale="   48.692">  2  5  1 -1</clus>
</clustering>
</event>
<event>
10    2  0.5921424E-006  0.2483040E+03  0.7546771E-02  0.1144546E+00
          2   -1    0    0  503    0 -0.00000000000E+00  0.00000000000E+00  0.57040868488E+03  0.57040868488E+03  0.00000000000E+00 0. -1.
         21   -1    0    0  501  502  0.00000000000E+00 -0.00000000000E+00 -0.80789934503E+02  0.80789934503E+02  0.00000000000E+00 0. -1.
         23    2    1    2    0    0 -0.38922722118E+02  0.62951574278E+02  0.22103404108E+03  0.25007241739E+03  0.90566481800E+02 0.  0.
         23    2    1    2    0    0  0.26085099671E+02 -0.50742271753E+02  0.30046778938E+03  0.31892148582E+03  0.90414661920E+02 0.  0.
        -11    1    4    4    0    0 -0.20641572434E+02  0.15091857171E+02  0.58593289746E+02  0.63929744788E+02  0.00000000000E+00 0.  1.
         11    1    4    4    0    0  0.46726672105E+02 -0.65834128924E+02  0.24187449964E+03  0.25499174103E+03  0.00000000000E+00 0. -1.
        -13    1    3    3    0    0 -0.40853081543E+02 -0.34726605020E+01  0.40221330484E+02  0.57435085692E+02  0.00000000000E+00 0.  1.
         13    1    3    3    0    0  0.19303594256E+01  0.66424234780E+02  0.18081271059E+03  0.19263733170E+03  0.00000000000E+00 0. -1.
         21    1    1    2  503  502  0.23359228570E+02  0.23359800517E+02  0.38975608411E+00  0.33037641402E+02  0.00000000000E+00 0.  1.
          2    1    1    2  501    0 -0.10521606123E+02 -0.35569103043E+02 -0.32272836172E+02  0.49167074768E+02  0.00000000000E+00 0. -1.
<scales pt_clust_5="13000.00000" pt_clust_6="13000.00000" pt_clust_7="13000.00000" pt_clust_8="13000.00000" pt_clust_9="33.03534" pt_clust_10="13000.00000"></scales>
<clustering>
<clus scale="   33.035">  2  9  1 -1</clus>
<clus scale="   90.415">  5  6 -1 -1</clus>
<clus scale="   21.240">  5 10 -1 -1</clus>
<clus scale="   90.566">  7  8 -1 -1</clus>
<clus scale="  118.272">  1  7  2 -1</clus>
<clus scale="   33.035">  2  5  1 -1</clus>
</clustering>
</event>
<event>
10    2  0.5921424E-006  0.2734081E+03  0.7546771E-02  0.1141998E+00
         21   -1    0    0  503  502  0.00000000000E+00  0.00000000000E+00  0.94113633634E+03  0.94113633634E+03  0.00000000000E+00 0.  1.
          2   -1    0    0  502    0 -0.00000000000E+00 -0.00000000000E+00 -0.19921037452E+03  0.19921037452E+03  0.00000000000E+00 0. -1.
         23    2    1    2    0    0 -0.13184789761E+02  0.14302394980E+02 -0.12305947502E+03  0.15495966367E+03  0.92143723547E+02 0.  0.
         23    2    1    2    0    0  0.69830430088E+01  0.44107958005E+02  0.76968232863E+02  0.12932316486E+03  0.93840808024E+02 0.  0.
        -13    1    3    3    0    0  0.38256382146E+02  0.71931258960E+01 -0.33143880830E+02  0.51125420991E+02  0.00000000000E+00 0.  1.
         13    1    3    3    0    0 -0.51441171906E+02  0.71092690839E+01 -0.89915594192E+02  0.10383424268E+03  0.00000000000E+00 0. -1.
        -13    1    4    4    0    0 -0.30310259524E+02  0.60264167276E+01 -0.52430502746E+01  0.31345160825E+02  0.00000000000E+00 0. -1.
         13    1    4    4    0    0  0.37293302532E+02  0.38081541278E+02  0.82211283137E+02  0.97978004036E+02  0.00000000000E+00 0.  1.
         21    1    1    2  503  501  0.58129730838E+02  0.10047576704E+03  0.56805929297E+03  0.57979807321E+03  0.00000000000E+00 0.  1.
          2    1    1    2  501    0 -0.51927984086E+02 -0.15888612003E+03  0.21995791101E+03  0.27626580912E+03  0.00000000000E+00 0. -1.
<scales pt_clust_5="13000.00000" pt_clust_6="13000.00000" pt_clust_7="13000.00000" pt_clust_8="13000.00000" pt_clust_9="116.65680" pt_clust_10="13000.00000"></scales>
<clustering>
<clus scale="   92.144">  5  6 -1 -1</clus>
<clus scale="   93.841">  7  8 -1 -1</clus>
<clus scale="   94.175">  2  5  1 -1</clus>
<clus scale="  116.657">  1  9  2 -1</clus>
<clus scale="   86.659">  7 10 -1 -1</clus>
<clus scale="  116.657">  1  5  2 -1</clus>
</clustering>
</event>
<event>
10    2  0.5921424E-006  0.1985798E+03  0.7546771E-02  0.1177896E+00
         21   -1    0    0  503  502  0.00000000000E+00  0.00000000000E+00  0.17344950284E+03  0.17344950284E+03  0.00000000000E+00 0.  1.
          1   -1    0    0  502    0 -0.00000000000E+00 -0.00000000000E+00 -0.33013517629E+03  0.33013517629E+03  0.00000000000E+00 0. -1.
         23    2    1    2    0    0 -0.50062572920E+02 -0.15118252652E+02 -0.23948866025E+03  0.26223651704E+03  0.93157660512E+02 0.  0.
         23    2    1    2    0    0 -0.51802534540E+02  0.41094093850E+01  0.51976828430E+02  0.11694620067E+03  0.90963912229E+02 0.  0.
        -11    1    4    4    0    0 -0.24835479987E+02  0.26320461178E+02 -0.16729315542E+02  0.39867753151E+02  0.00000000000E+00 0. -1.
         11    1    4    4    0    0 -0.26967054554E+02 -0.22211051793E+02  0.68706143972E+02  0.77078447523E+02  0.00000000000E+00 0.  1.
        -13    1    3    3    0    0 -0.58225296521E+02 -0.46288957851E+02 -0.15904211299E+03  0.17557689620E+03  0.00000000000E+00 0.  1.
         13    1    3    3    0    0  0.81627236013E+01  0.31170705198E+02 -0.80446547260E+02  0.86659620846E+02  0.00000000000E+00 0. -1.
         21    1    1    2  503  501  0.15996141625E+02 -0.23121207558E+02  0.76097640800E+01  0.29126882689E+02  0.00000000000E+00 0.  1.
          1    1    1    2  501    0  0.85868965835E+02  0.34130050825E+02  0.23216394288E+02  0.95275078728E+02  0.00000000000E+00 0. -1.
<scales pt_clust_5="13000.00000" pt_clust_6="13000.00000" pt_clust_7="13000.00000" pt_clust_8="13000.00000" pt_clust_9="28.11524" pt_clust_10="13000.00000"></scales>
<clustering>
<clus scale="   28.115">  1  9  2 -1</clus>
<clus scale="   90.964">  5  6 -1 -1</clus>
<clus scale="   93.158">  7  8 -1 -1</clus>
<clus scale="   95.395">  5 10 -1 -1</clus>
<clus scale="  106.542">  2  7  1 -1</clus>
<clus scale="   28.115">  1  5  2 -1</clus>
</clustering>
</event>
<event>
10    2  0.5921424E-006  0.2690057E+03  0.7546771E-02  0.1136689E+00
          2   -1    0    0  503    0 -0.00000000000E+00  0.00000000000E+00  0.75314104749E+03  0.75314104749E+03  0.00000000000E+00 0. -1.
         21   -1    0    0  501  502  0.00000000000E+00 -0.00000000000E+00 -0.61317143246E+02  0.61317143246E+02  0.00000000000E+00 0. -1.
         23    2    1    2    0    0 -0.28548540767E+01 -0.71454835884E+02  0.24975264535E+03  0.27553780075E+03  0.91819126645E+02 0.  0.
         23    2    1    2    0    0 -0.75785234207E+02  0.90596735298E+02  0.14958353717E+03  0.21611173207E+03  0.10187186056E+03 0.  0.
        -11    1    4    4    0    0  0.17945508753E+02  0.29579436581E+02  0.76934607312E+01  0.35442540695E+02  0.00000000000E+00 0.  1.
         11    1    4    4    0    0 -0.93730742960E+02  0.61017298717E+02  0.14189007644E+03  0.18066919137E+03  0.00000000000E+00 0. -1.
        -11    1    3    3    0    0  0.42635230408E+02 -0.43778633705E+02  0.10763648504E+03  0.12377376359E+03  0.00000000000E+00 0.  1.
         11    1    3    3    0    0 -0.45490084484E+02 -0.27676202179E+02  0.14211616031E+03  0.15176403716E+03  0.00000000000E+00 0. -1.
         21    1    1    2  503  502  0.21005095993E+02  0.26385336709E+02  0.17135168950E+02  0.37828746555E+02  0.00000000000E+00 0. -1.
          2    1    1    2  501    0  0.57634992290E+02 -0.45527236124E+02  0.27535255276E+03  0.28497991136E+03  0.00000000000E+00 0. -1.
<scales pt_clust_5="13000.00000" pt_clust_6="13000.00000" pt_clust_7="13000.00000" pt_clust_8="13000.00000" pt_clust_9="33.72536" pt_clust_10="13000.00000"></scales>
<clustering>
<clus scale="   33.725">  2  9  1 -1</clus>
<clus scale="   91.819">  7  8 -1 -1</clus>
<clus scale="  101.872">  5  6 -1 -1</clus>
<clus scale="   73.529">  5 10 -1 -1</clus>
<clus scale="  112.398">  1  7  2 -1</clus>
<clus scale="   33.725">  2  5  1 -1</clus>
</clustering>
</event>
<event>
10    2  0.5921424E-006  0.6030888E+03  0.7546771E-02  0.1033296E+00
         21   -1    0    0  501  502  0.00000000000E+00  0.00000000000E+00  0.46876793875E+03  0.46876793875E+03  0.00000000000E+00 0. -1.
          1   -1    0    0  503    0 -0.00000000000E+00 -0.00000000000E+00 -0.60414542217E+03  0.60414542217E+03  0.00000000000E+00 0. -1.
         23    2    1    2    0    0  0.12556907263E+03 -0.29155932674E+02 -0.23072495442E+03  0.27990549679E+03  0.92170614218E+02 0.  0.
         23    2    1    2    0    0 -0.16366965434E+03  0.13873966741E+03 -0.83432622004E+02  0.24722850272E+03  0.90135892300E+02 0.  0.
        -11    1    4    4    0    0 -0.76594268883E+02  0.19073218149E+02 -0.34602883627E+01  0.79009134104E+02  0.00000000000E+00 0. -1.
         11    1    4    4    0    0 -0.87075385452E+02  0.11966644926E+03 -0.79972333642E+02  0.16821936862E+03  0.00000000000E+00 0.  1.
        -13    1    3    3    0    0  0.13451075481E+02 -0.34257462036E+02 -0.21888102958E+02  0.42820487945E+02  0.00000000000E+00 0.  1.
         13    1    3    3    0    0  0.11211799715E+03  0.51015293620E+01 -0.20883685146E+03  0.23708500884E+03  0.00000000000E+00 0. -1.
         21    1    1    2  503  502 -0.16995566839E+03  0.10005604808E+03 -0.61262368777E+01  0.19731617459E+03  0.00000000000E+00 0. -1.
          1    1    1    2  501    0  0.20805625009E+03 -0.20963978282E+03  0.18490632989E+03  0.34846318683E+03  0.00000000000E+00 0. -1.
<scales pt_clust_5="13000.00000" pt_clust_6="13000.00000" pt_clust_7="13000.00000" pt_clust_8="13000.00000" pt_clust_9="161.74492" pt_clust_10="13000.00000"></scales>
<clustering>
<clus scale="   90.136">  5  6 -1 -1</clus>
<clus scale="   92.171">  7  8 -1 -1</clus>
<clus scale="  158.471">  2  7  1 -1</clus>
<clus scale="  161.745">  1  9  2 -1</clus>
<clus scale="  191.926">  5 10 -1 -1</clus>
<clus scale="  161.745">  1  5  2 -1</clus>
</clustering>
</event>
<event>
10    2  0.5921424E-006  0.1419657E+03  0.7546771E-02  0.1231701E+00
         21   -1    0    0  501  502  0.00000000000E+00  0.00000000000E+00  0.36333996680E+02  0.36333996680E+02  0.00000000000E+00 0. -1.
          1   -1    0    0  503    0 -0.00000000000E+00 -0.00000000000E+00 -0.64927619949E+03  0.64927619949E+03  0.00000000000E+00 0. -1.
         23    2    1    2    0    0 -0.46707850614E+01  0.20670581071E+02 -0.40068553445E+03  0.41118989306E+03  0.89884044638E+02 0.  0.
         23    2    1    2    0    0  0.25254520836E+02  0.17720255412E+02 -0.17950995541E+03  0.20343713620E+03  0.90614822297E+02 0.  0.
        -11    1    4    4    0    0  0.57180703653E+02  0.43076439351E+01 -0.82827957895E+02  0.10074055427E+03  0.00000000000E+00 0. -1.
         11    1    4    4    0    0 -0.31926182817E+02  0.13412611477E+02 -0.96681997512E+02  0.10269658192E+03  0.00000000000E+00 0.  1.
        -11    1    3    3    0    0  0.31519870645E+02 -0.19745563620E+02 -0.13551293922E+03  0.14052453958E+03  0.00000000000E+00 0.  1.
         11    1    3    3    0    0 -0.36190655707E+02  0.40416144690E+02 -0.26517259524E+03  0.27066535348E+03  0.00000000000E+00 0. -1.
         21    1    1    2  503  502  0.12755816917E+02 -0.20889882991E+02 -0.73174710683E+01  0.25546887471E+02  0.00000000000E+00 0. -1.
          1    1    1    2  501    0 -0.33339552692E+02 -0.17500953492E+02 -0.25429241883E+02  0.45436279442E+02  0.00000000000E+00 0. -1.
<scales pt_clust_5="13000.00000" pt_clust_6="13000.00000" pt_clust_7="13000.00000" pt_clust_8="13000.00000" pt_clust_9="24.47648" pt_clust_10="13000.00000"></scales>
<clustering>
<clus scale="   24.476">  1  9  2 -1</clus>
<clus scale="   89.884">  7  8 -1 -1</clus>
<clus scale="   90.615">  5  6 -1 -1</clus>
<clus scale="   38.143">  5 10 -1 -1</clus>
<clus scale="   91.438">  2  7  1 -1</clus>
<clus scale="   24.476">  1  5  2 -1</clus>
</clustering>
</event>
<event>
10    2  0.5921424E-006  0.3159160E+03  0.7546771E-02  0.1108283E+00
         21   -1    0    0  501  502  0.00000000000E+00  0.00000000000E+00  0.57619656075E+02  0.57619656075E+02  0.00000000000E+00 0. -1.
          2   -1    0    0  503    0 -0.00000000000E+00 -0.00000000000E+00 -0.11110322085E+04  0.11110322085E+04  0.00000000000E+00 0. -1.
         23    2    1    2    0    0 -0.11471332098E+03  0.11306504612E+02 -0.41664720938E+03  0.44152269380E+03  0.89779780556E+02 0.  0.
         23    2    1    2    0    0  0.71075318854E+02  0.97355276728E+02 -0.53350008324E+03  0.55481465541E+03  0.93097863517E+02 0.  0.
        -11    1    4    4    0    0  0.93348312106E+02  0.86777176784E+02 -0.45692460753E+03  0.47436724460E+03  0.00000000000E+00 0. -1.
         11    1    4    4    0    0 -0.22272993252E+02  0.10578099944E+02 -0.76575475703E+02  0.80447410809E+02  0.00000000000E+00 0.  1.
        -11    1    3    3    0    0 -0.91104421586E+02 -0.32127078237E+02 -0.26912593165E+03  0.28593868552E+03  0.00000000000E+00 0. -1.
         11    1    3    3    0    0 -0.23608899399E+02  0.43433582848E+02 -0.14752127773E+03  0.15558400828E+03  0.00000000000E+00 0.  1.
         21    1    1    2  503  502  0.26884905486E+02 -0.27861382346E+00 -0.11208091819E+02  0.29128973392E+02  0.00000000000E+00 0. -1.
          2    1    1    2  501    0  0.16753096645E+02 -0.10838316752E+03 -0.92057167956E+02  0.14318554194E+03  0.00000000000E+00 0. -1.
<scales pt_clust_5="13000.00000" pt_clust_6="13000.00000" pt_clust_7="13000.00000" pt_clust_8="13000.00000" pt_clust_9="26.88635" pt_clust_10="13000.00000"></scales>
<clustering>
<clus scale="   26.886">  1  9  2 -1</clus>
<clus scale="   89.780">  7  8 -1 -1</clus>
<clus scale="   93.098">  5  6 -1 -1</clus>
<clus scale="  112.837">  5 10 -1 -1</clus>
<clus scale="  140.771">  2  7  1 -1</clus>
<clus scale="   26.886">  1  5  2 -1</clus>
</clustering>
</event>
<event>
10    2  0.5921424E-006  0.4959339E+03  0.7546771E-02  0.1061558E+00
          1   -1    0    0  503    0 -0.00000000000E+00  0.00000000000E+00  0.97850051636E+03  0.97850051636E+03  0.00000000000E+00 0. -1.
         21   -1    0    0  501  502  0.00000000000E+00 -0.00000000000E+00 -0.22235952565E+03  0.22235952565E+03  0.00000000000E+00 0.  1.
         23    2    1    2    0    0  0.62886030791E+02  0.66476911106E+02  0.33558660328E+03  0.35931051742E+03  0.90065792865E+02 0.  0.
         23    2    1    2    0    0 -0.21019813738E+03 -0.80312056251E+02  0.10063928210E+03  0.26350360380E+03  0.93126799461E+02 0.  0.
        -13    1    4    4    0    0 -0.13007859292E+03 -0.89906568747E+02  0.90460223172E+02  0.18217212580E+03  0.00000000000E+00 0.  1.
         13    1    4    4    0    0 -0.80119544451E+02  0.95945124966E+01  0.10179058925E+02  0.81331478000E+02  0.00000000000E+00 0. -1.
        -13    1    3    3    0    0  0.29124184210E+02 -0.19932883918E+02  0.81308317274E+02  0.88637353442E+02  0.00000000000E+00 0.  1.
         13    1    3    3    0    0  0.33761846582E+02  0.86409795024E+02  0.25427828601E+03  0.27067316398E+03  0.00000000000E+00 0. -1.
         21    1    1    2  503  502 -0.13319557522E+02 -0.17410078470E+02 -0.11306680427E+03  0.11517214799E+03  0.00000000000E+00 0.  1.
          1    1    1    2  501    0  0.16063166411E+03  0.31245223615E+02  0.43298190960E+03  0.46287377281E+03  0.00000000000E+00 0. -1.
<scales pt_clust_5="13000.00000" pt_clust_6="13000.00000" pt_clust_7="13000.00000" pt_clust_8="13000.00000" pt_clust_9="21.92080" pt_clust_10="13000.00000"></scales>
<clustering>
<clus scale="   21.921">  2  9  1 -1</clus>
<clus scale="   90.066">  7  8 -1 -1</clus>
<clus scale="   93.127">  5  6 -1 -1</clus>
<clus scale="  126.705">  1  7  2 -1</clus>
<clus scale="  213.487">  5 10 -1 -1</clus>
<clus scale="   21.921">  2  5  1 -1</clus>
</clustering>
</event>
<event>
10    2  0.5921424E-006  0.2187971E+03  0.7546771E-02  0.1162487E+00
         21   -1    0    0  503  502  0.00000000000E+00  0.00000000000E+00  0.87868465001E+02  0.87868465001E+02  0.00000000000E+00 0.  1.
         -2   -1    0    0    0  501 -0.00000000000E+00 -0.00000000000E+00 -0.66314926361E+03  0.66314926361E+03  0.00000000000E+00 0.  1.
         23    2    1    2    0    0  0.67211890579E+02 -0.24559324700E+02 -0.41986652879E+03  0.43573913407E+03  0.91978760028E+02 0.  0.
         23    2    1    2    0    0 -0.11487152603E+02 -0.48037065720E+02 -0.15688405399E+03  0.18844812358E+03  0.91981381407E+02 0.  0.
        -11    1    4    4    0    0 -0.22095844174E+02  0.16685826310E+02 -0.92445417544E+02  0.96502841173E+02  0.00000000000E+00 0. -1.
         11    1    4    4    0    0  0.10608691571E+02 -0.64722892030E+02 -0.64438636450E+02  0.91945282408E+02  0.00000000000E+00 0.  1.
        -11    1    3    3    0    0  0.84198718099E+02  0.28731856394E+01 -0.30738823259E+03  0.31872433992E+03  0.00000000000E+00 0.  1.
         11    1    3    3    0    0 -0.16986827520E+02 -0.27432510340E+02 -0.11247829620E+03  0.11701479415E+03  0.00000000000E+00 0. -1.
         21    1    1    2  503  501 -0.34562561149E+02  0.50578386449E+02 -0.41587704793E+02  0.74042427019E+02  0.00000000000E+00 0. -1.
         -2    1    1    2    0  502 -0.21162176827E+02  0.22018003972E+02  0.43057488969E+02  0.52788043942E+02  0.00000000000E+00 0.  1.
<scales pt_clust_5="13000.00000" pt_clust_6="13000.00000" pt_clust_7="13000.00000" pt_clust_8="13000.00000" pt_clust_9="61.25964" pt_clust_10="13000.00000"></scales>
<clustering>
<clus scale="   61.260">  1  9  2 -1</clus>
<clus scale="   91.979">  7  8 -1 -1</clus>
<clus scale="   91.981">  5  6 -1 -1</clus>
<clus scale="   71.276">  5 10 -1 -1</clus>
<clus scale="  113.300">  2  7  1 -1</clus>
<clus scale="   61.260">  1  5  2 -1</clus>
</clustering>
</event>
<event>
10    2  0.5921424E-006  0.1812169E+03  0.7546771E-02  0.1189076E+00
         21   -1    0    0  501  502  0.00000000000E+00  0.00000000000E+00  0.84644002527E+02  0.84644002527E+02  0.00000000000E+00 0.  1.
          3   -1    0    0  503    0 -0.00000000000E+00 -0.00000000000E+00 -0.29928873389E+03  0.29928873389E+03  0.00000000000E+00 0. -1.
         23    2    1    2    0    0 -0.32027799070E+02 -0.44657130984E+02 -0.49930015962E+02  0.11804162125E+03  0.91764800401E+02 0.  0.
         23    2    1    2    0    0 -0.15790622724E+02  0.54621044029E+02 -0.97657688128E+02  0.14658962702E+03  0.93373938985E+02 0.  0.
        -13    1    4    4    0    0  0.10781277867E+02  0.74717772435E+02 -0.61018906716E+02  0.97068472981E+02  0.00000000000E+00 0.  1.
         13    1    4    4    0    0 -0.26571900591E+02 -0.20096728406E+02 -0.36638781413E+02  0.49521154036E+02  0.00000000000E+00 0. -1.
        -13    1    3    3    0    0 -0.42495395860E+02  0.11512325179E+02 -0.41094848549E+02  0.60226064769E+02  0.00000000000E+00 0.  1.
         13    1    3    3    0    0  0.10467596790E+02 -0.56169456162E+02 -0.88351674128E+01  0.57815556482E+02  0.00000000000E+00 0. -1.
         21    1    1    2  503  502 -0.23607794957E+02  0.72506177894E+01 -0.22277249858E+02  0.33259213795E+02  0.00000000000E+00 0. -1.
          3    1    1    2  501    0  0.71426216751E+02 -0.17214530835E+02 -0.44779777419E+02  0.86042274359E+02  0.00000000000E+00 0. -1.
<scales pt_clust_5="13000.00000" pt_clust_6="13000.00000" pt_clust_7="13000.00000" pt_clust_8="13000.00000" pt_clust_9="24.69615" pt_clust_10="13000.00000"></scales>
<clustering>
<clus scale="   24.696">  1  9  2 -1</clus>
<clus scale="   91.765">  7  8 -1 -1</clus>
<clus scale="   93.374">  5  6 -1 -1</clus>
<clus scale="   67.048">  5 10 -1 -1</clus>
<clus scale="  109.205">  2  7  1 -1</clus>
<clus scale="   24.696">  1  5  2 -1</clus>
</clustering>
</event>
<event>
10    2  0.5921424E-006  0.1447395E+03  0.7546771E-02  0.1226472E+00
         21   -1    0    0  501  502  0.00000000000E+00  0.00000000000E+00  0.23451234307E+03  0.23451234307E+03  0.00000000000E+00 0. -1.
          1   -1    0    0  503    0 -0.00000000000E+00 -0.00000000000E+00 -0.39340942580E+03  0.39340942580E+03  0.00000000000E+00 0. -1.
         23    2    1    2    0    0 -0.20742981518E+02  0.10261069359E+02 -0.79574912597E+02  0.12155445981E+03  0.88925582139E+02 0.  0.
         23    2    1    2    0    0  0.39979958034E+02 -0.68760937788E+02 -0.22097971101E+03  0.25214276938E+03  0.91746824804E+02 0.  0.
        -11    1    3    3    0    0  0.32629393493E+02  0.17159125303E+02 -0.22901714072E+02  0.43400477052E+02  0.00000000000E+00 0. -1.
         11    1    3    3    0    0 -0.53372375011E+02 -0.68980559445E+01 -0.56673198525E+02  0.78153982760E+02  0.00000000000E+00 0.  1.
        -13    1    4    4    0    0  0.52091987759E+02 -0.32759596988E+02 -0.19891256661E+03  0.20821377365E+03  0.00000000000E+00 0. -1.
         13    1    4    4    0    0 -0.12112029725E+02 -0.36001340800E+02 -0.22067144402E+02  0.43928995727E+02  0.00000000000E+00 0.  1.
         21    1    1    2  503  502 -0.44522964950E+00  0.37613976656E+02  0.19249722436E+03  0.19613819326E+03  0.00000000000E+00 0. -1.
          1    1    1    2  501    0 -0.18791746866E+02  0.20885891773E+02 -0.50839683474E+02  0.58086346426E+02  0.00000000000E+00 0. -1.
<scales pt_clust_5="13000.00000" pt_clust_6="13000.00000" pt_clust_7="13000.00000" pt_clust_8="13000.00000" pt_clust_9="37.61661" pt_clust_10="13000.00000"></scales>
<clustering>
<clus scale="   37.617">  1  9  2 -1</clus>
<clus scale="   88.926">  5  6 -1 -1</clus>
<clus scale="   91.747">  7  8 -1 -1</clus>
<clus scale="   30.724">  7 10 -1 -1</clus>
<clus scale="   96.135">  2  5  1 -1</clus>
<clus scale="   37.617">  1  5  2 -1</clus>
</clustering>
</event>
<event>
10    2  0.5921424E-006  0.4748657E+03  0.7546771E-02  0.1031556E+00
         21   -1    0    0  503  502  0.00000000000E+00  0.00000000000E+00  0.55821030056E+03  0.55821030056E+03  0.00000000000E+00 0.  1.
          1   -1    0    0  502    0 -0.00000000000E+00 -0.00000000000E+00 -0.36970699038E+03  0.36970699038E+03  0.00000000000E+00 0. -1.
         23    2    1    2    0    0 -0.33905204780E+03  0.20945746603E+02 -0.52960802624E+02  0.35586761968E+03  0.91879816611E+02 0.  0.
         23    2    1    2    0    0  0.20963152181E+02 -0.18322739057E+02  0.18709128450E+03  0.21267275438E+03  0.97218183492E+02 0.  0.
        -13    1    4    4    0    0 -0.23116713137E+02  0.11446731317E+02  0.98334351894E+01  0.27606277035E+02  0.00000000000E+00 0. -1.
         13    1    4    4    0    0  0.44079865318E+02 -0.29769470373E+02  0.17725784931E+03  0.18506647734E+03  0.00000000000E+00 0.  1.
        -13    1    3    3    0    0 -0.25858496862E+03 -0.24036230505E+02 -0.37474753908E+02  0.26238956449E+03  0.00000000000E+00 0.  1.
         13    1    3    3    0    0 -0.80467079183E+02  0.44981977108E+02 -0.15486048716E+02  0.93478055188E+02  0.00000000000E+00 0. -1.
         21    1    1    2  503  501  0.37297862392E+02  0.36299748675E+02  0.55244536143E+02  0.75899677644E+02  0.00000000000E+00 0.  1.
          1    1    1    2  501    0  0.28079103323E+03 -0.38922756222E+02 -0.87170784775E+00  0.28347723924E+03  0.00000000000E+00 0. -1.
<scales pt_clust_5="13000.00000" pt_clust_6="13000.00000" pt_clust_7="13000.00000" pt_clust_8="13000.00000" pt_clust_9="52.04616" pt_clust_10="13000.00000"></scales>
<clustering>
<clus scale="   52.046">  1  9  2 -1</clus>
<clus scale="   91.880">  7  8 -1 -1</clus>
<clus scale="   97.218">  5  6 -1 -1</clus>
<clus scale="  292.880">  5 10 -1 -1</clus>
<clus scale="  341.738">  2  7  1 -1</clus>
<clus scale="   52.046">  1  5  2 -1</clus>
</clustering>
</event>
<event>
10    2  0.5921424E-006  0.2828198E+03  0.7546771E-02  0.1135775E+00
         21   -1    0    0  503  502  0.00000000000E+00  0.00000000000E+00  0.53934551284E+03  0.53934551284E+03  0.00000000000E+00 0. -1.
          2   -1    0    0  502    0 -0.00000000000E+00 -0.00000000000E+00 -0.54314407250E+03  0.54314407250E+03  0.00000000000E+00 0. -1.
         23    2    1    2    0    0  0.35177707951E+02 -0.18902862753E+02 -0.25698389485E+03  0.27535433277E+03  0.90468209913E+02 0.  0.
         23    2    1    2    0    0 -0.58577047298E+02 -0.19157929119E+03 -0.15846316564E+03  0.27142264505E+03  0.91792059007E+02 0.  0.
        -13    1    3    3    0    0  0.20096677761E+02  0.35121102585E+02 -0.13804622585E+03  0.14385454034E+03  0.00000000000E+00 0.  1.
         13    1    3    3    0    0  0.15081030190E+02 -0.54023965338E+02 -0.11893766900E+03  0.13149979243E+03  0.00000000000E+00 0. -1.
        -13    1    4    4    0    0 -0.51541422865E+02 -0.33331509690E+02 -0.35614905882E+02  0.70964282072E+02  0.00000000000E+00 0.  1.
         13    1    4    4    0    0 -0.70356244333E+01 -0.15824778150E+03 -0.12284825976E+03  0.20045836297E+03  0.00000000000E+00 0. -1.
         21    1    1    2  503  501  0.80225472425E+02  0.20382429605E+03  0.42394664885E+03  0.47719097976E+03  0.00000000000E+00 0. -1.
          2    1    1    2  501    0 -0.56826133078E+02  0.66578578893E+01 -0.12298148010E+02  0.58521627769E+02  0.00000000000E+00 0. -1.
<scales pt_clust_5="13000.00000" pt_clust_6="13000.00000" pt_clust_7="13000.00000" pt_clust_8="13000.00000" pt_clust_9="218.62540" pt_clust_10="13000.00000"></scales>
<clustering>
<clus scale="   90.468">  5  6 -1 -1</clus>
<clus scale="   91.792">  7  8 -1 -1</clus>
<clus scale="   57.215">  7 10 -1 -1</clus>
<clus scale="   98.890">  2  5  1 -1</clus>
<clus scale="  218.625">  1  9  2 -1</clus>
<clus scale="  218.625">  1  5  2 -1</clus>
</clustering>
</event>
<event>
10    2  0.5921424E-006  0.4870682E+03  0.7546771E-02  0.1036426E+00
          2   -1    0    0  502    0 -0.00000000000E+00  0.00000000000E+00  0.48585643907E+03  0.48585643907E+03  0.00000000000E+00 0. -1.
         21   -1    0    0  503  502  0.00000000000E+00 -0.00000000000E+00 -0.60648076472E+03  0.60648076472E+03  0.00000000000E+00 0.  1.
         23    2    1    2    0    0 -0.43971724902E+01  0.25806911320E+03  0.23343875370E+03  0.36020283715E+03  0.92916251785E+02 0.  0.
         23    2    1    2    0    0  0.19581319915E+03 -0.23824918237E+03 -0.92196992869E+02  0.33574007372E+03  0.95475807123E+02 0.  0.
        -11    1    3    3    0    0  0.13938977083E+02  0.13563065955E+03  0.64698488294E+02  0.15091674950E+03  0.00000000000E+00 0.  1.
         11    1    3    3    0    0 -0.18336149573E+02  0.12243845365E+03  0.16874026541E+03  0.20928608765E+03  0.00000000000E+00 0. -1.
        -13    1    4    4    0    0  0.76509733600E+02 -0.78388760269E+02 -0.80480752414E+02  0.13592530515E+03  0.00000000000E+00 0.  1.
         13    1    4    4    0    0  0.11930346556E+03 -0.15986042210E+03 -0.11716240455E+02  0.19981476857E+03  0.00000000000E+00 0. -1.
         21    1    1    2  503  501 -0.27726370535E+02 -0.27377387669E+00 -0.22598805892E+03  0.22768273836E+03  0.00000000000E+00 0.  1.
          2    1    1    2  501    0 -0.16368965613E+03 -0.19546156957E+02 -0.35878027564E+02  0.16871155455E+03  0.00000000000E+00 0. -1.
<scales pt_clust_5="13000.00000" pt_clust_6="13000.00000" pt_clust_7="13000.00000" pt_clust_8="13000.00000" pt_clust_9="27.72772" pt_clust_10="13000.00000"></scales>
<clustering>
<clus scale="   27.728">  2  9  1 -1</clus>
<clus scale="   92.916">  5  6 -1 -1</clus>
<clus scale="   95.476">  7  8 -1 -1</clus>
<clus scale="  172.281">  7 10 -1 -1</clus>
<clus scale="  274.392">  1  5  2 -1</clus>
<clus scale="   27.728">  2  5  1 -1</clus>
</clustering>
</event>
<event>
10    2  0.5921424E-006  0.2465690E+03  0.7546771E-02  0.1129068E+00
          1   -1    0    0  503    0 -0.00000000000E+00  0.00000000000E+00  0.53099199959E+03  0.53099199959E+03  0.00000000000E+00 0. -1.
         21   -1    0    0  501  502  0.00000000000E+00 -0.00000000000E+00 -0.27527127323E+03  0.27527127323E+03  0.00000000000E+00 0. -1.
         23    2    1    2    0    0  0.17351594968E+03 -0.76005209240E+01  0.23462247169E+03  0.30678652049E+03  0.94364782749E+02 0.  0.
         23    2    1    2    0    0 -0.62004516983E+02 -0.97102554889E+01  0.15255799327E+03  0.18845703916E+03  0.91122253665E+02 0.  0.
        -13    1    4    4    0    0 -0.35080704622E+02  0.40426765121E+02  0.68153904979E+02  0.86659875022E+02  0.00000000000E+00 0.  1.
         13    1    4    4    0    0 -0.26923812361E+02 -0.50137020610E+02  0.84404088286E+02  0.10179716414E+03  0.00000000000E+00 0. -1.
        -13    1    3    3    0    0  0.32769036818E+02  0.36920170820E+02  0.48194102005E+02  0.68989711229E+02  0.00000000000E+00 0.  1.
         13    1    3    3    0    0  0.14074691286E+03 -0.44520691744E+02  0.18642836968E+03  0.23779680926E+03  0.00000000000E+00 0. -1.
         21    1    1    2  503  502 -0.79940598841E+02 -0.84619203709E+02 -0.16249686650E+03  0.19989032143E+03  0.00000000000E+00 0. -1.
          1    1    1    2  501    0 -0.31570833860E+02  0.10192998012E+03  0.31037127909E+02  0.11112939173E+03  0.00000000000E+00 0. -1.
<scales pt_clust_5="13000.00000" pt_clust_6="13000.00000" pt_clust_7="13000.00000" pt_clust_8="13000.00000" pt_clust_9="116.40837" pt_clust_10="13000.00000"></scales>
<clustering>
<clus scale="   91.122">  5  6 -1 -1</clus>
<clus scale="   94.365">  7  8 -1 -1</clus>
<clus scale="  106.707">  5 10 -1 -1</clus>
<clus scale="  116.408">  2  9  1 -1</clus>
<clus scale="  175.832">  1  7  2 -1</clus>
<clus scale="  116.408">  2  5  1 -1</clus>
</clustering>
</event>
<event>
10    2  0.5921424E-006  0.2716706E+03  0.7546771E-02  0.1134758E+00
         21   -1    0    0  503  502  0.00000000000E+00  0.00000000000E+00  0.10400127364E+03  0.10400127364E+03  0.00000000000E+00 0. -1.
          2   -1    0    0  502    0 -0.00000000000E+00 -0.00000000000E+00 -0.56673363495E+03  0.56673363495E+03  0.00000000000E+00 0. -1.
         23    2    1    2    0    0 -0.43314783805E+02  0.56580532172E+02 -0.22345865827E+03  0.25206375788E+03  0.92330054507E+02 0.  0.
         23    2    1    2    0    0  0.24074172004E+02  0.91668326544E+02 -0.11336435283E+03  0.17134905075E+03  0.86754670492E+02 0.  0.
        -11    1    4    4    0    0  0.38738912451E+02  0.73615706639E+02 -0.12102886726E+03  0.14686034970E+03  0.00000000000E+00 0. -1.
         11    1    4    4    0    0 -0.14664740446E+02  0.18052619905E+02  0.76645144362E+01  0.24488701054E+02  0.00000000000E+00 0.  1.
        -11    1    3    3    0    0 -0.39698295542E+02 -0.16435148372E+02 -0.71098013290E+02  0.83072235222E+02  0.00000000000E+00 0.  1.
         11    1    3    3    0    0 -0.36164882635E+01  0.73015680544E+02 -0.15236064498E+03  0.16899152266E+03  0.00000000000E+00 0. -1.
         21    1    1    2  503  501  0.18299474911E+02 -0.92173732278E+01  0.31326436162E+02  0.37432290256E+02  0.00000000000E+00 0.  1.
          2    1    1    2  501    0  0.94113689044E+00 -0.13903148549E+03 -0.15723578638E+03  0.20988980969E+03  0.00000000000E+00 0. -1.
<scales pt_clust_5="13000.00000" pt_clust_6="13000.00000" pt_clust_7="13000.00000" pt_clust_8="13000.00000" pt_clust_9="20.48977" pt_clust_10="13000.00000"></scales>
<clustering>
<clus scale="   20.490">  1  9  2 -1</clus>
<clus scale="   86.755">  5  6 -1 -1</clus>
<clus scale="   92.330">  7  8 -1 -1</clus>
<clus scale="  114.368">  2  7  1 -1</clus>
<clus scale="  111.951">  5 10 -1 -1</clus>
<clus scale="   20.490">  1  5  2 -1</clus>
</clustering>
</event>
<event>
10    2  0.5921424E-006  0.3628875E+03  0.7546771E-02  0.1095602E+00
         21   -1    0    0  503  502  0.00000000000E+00  0.00000000000E+00  0.20731155952E+03  0.20731155952E+03  0.00000000000E+00 0.  1.
          2   -1    0    0  502    0 -0.00000000000E+00 -0.00000000000E+00 -0.14347464493E+04  0.14347464493E+04  0.00000000000E+00 0. -1.
         23    2    1    2    0    0  0.78302892473E+02  0.31649146442E+02 -0.65804901541E+03  0.67055765340E+03  0.97396347024E+02 0.  0.
         23    2    1    2    0    0  0.10346310287E+03 -0.71169710801E+02 -0.22410470107E+03  0.27301516654E+03  0.92437128515E+02 0.  0.
        -11    1    4    4    0    0  0.70815192485E+02 -0.91830797271E+02 -0.18259656113E+03  0.21630809266E+03  0.00000000000E+00 0.  1.
         11    1    4    4    0    0  0.32647910384E+02  0.20661086470E+02 -0.41508139939E+02  0.56707073878E+02  0.00000000000E+00 0. -1.
        -11    1    3    3    0    0  0.95640167685E+02  0.45922451520E+02 -0.56105070871E+03  0.57099370485E+03  0.00000000000E+00 0.  1.
         11    1    3    3    0    0 -0.17337275212E+02 -0.14273305078E+02 -0.96998306700E+02  0.99563948557E+02  0.00000000000E+00 0. -1.
         21    1    1    2  503  501  0.17444523079E+02  0.15089508388E+03  0.11111621523E+03  0.18820321732E+03  0.00000000000E+00 0.  1.
          2    1    1    2  501    0 -0.19921051842E+03 -0.11137451952E+03 -0.45639738853E+03  0.51028197157E+03  0.00000000000E+00 0. -1.
<scales pt_clust_5="13000.00000" pt_clust_6="13000.00000" pt_clust_7="13000.00000" pt_clust_8="13000.00000" pt_clust_9="153.96752" pt_clust_10="13000.00000"></scales>
<clustering>
<clus scale="   92.437">  5  6 -1 -1</clus>
<clus scale="   97.396">  7  8 -1 -1</clus>
<clus scale="  128.915">  2  7  1 -1</clus>
<clus scale="  153.968">  1  9  2 -1</clus>
<clus scale="  145.559">  5 10 -1 -1</clus>
<clus scale="  153.968">  1  5  2 -1</clus>
</clustering>
</event>
<event>
10    2  0.5921424E-006  0.2236827E+03  0.7546771E-02  0.1166041E+00
         -2   -1    0    0    0  501 -0.00000000000E+00  0.00000000000E+00  0.14233911789E+03  0.14233911789E+03  0.00000000000E+00 0.  1.
         21   -1    0    0  503  502  0.00000000000E+00 -0.00000000000E+00 -0.59044007411E+03  0.59044007411E+03  0.00000000000E+00 0.  1.
         23    2    1    2    0    0 -0.16868859233E+02  0.29961864382E+02  0.98131581934E+01  0.98167719315E+02  0.91423909962E+02 0.  0.
         23    2    1    2    0    0  0.48804189772E+02 -0.95234022850E+02 -0.34440282086E+02  0.14489361525E+03  0.91414761738E+02 0.  0.
        -11    1    3    3    0    0 -0.61788998963E+01  0.47914855211E+02 -0.27362694827E+02  0.55522330841E+02  0.00000000000E+00 0.  1.
         11    1    3    3    0    0 -0.10689959337E+02 -0.17952990829E+02  0.37175853020E+02  0.42645388474E+02  0.00000000000E+00 0. -1.
        -13    1    4    4    0    0  0.35045858979E+02 -0.11291304867E+03 -0.26814657812E+02  0.12122951236E+03  0.00000000000E+00 0. -1.
         13    1    4    4    0    0  0.13758330793E+02  0.17679025825E+02 -0.76256242741E+01  0.23664102897E+02  0.00000000000E+00 0.  1.
         21    1    1    2  503  501 -0.12228772908E+03  0.59910389217E+02 -0.34132148065E+03  0.36748319223E+03  0.00000000000E+00 0.  1.
         -2    1    1    2    0  502  0.90352398537E+02  0.53617692503E+01 -0.82152351683E+02  0.12223466521E+03  0.00000000000E+00 0.  1.
<scales pt_clust_5="13000.00000" pt_clust_6="13000.00000" pt_clust_7="13000.00000" pt_clust_8="13000.00000" pt_clust_9="140.39890" pt_clust_10="13000.00000"></scales>
<clustering>
<clus scale="   91.415">  7  8 -1 -1</clus>
<clus scale="   90.511">  7 10 -1 -1</clus>
<clus scale="   91.424">  5  6 -1 -1</clus>
<clus scale="   97.676">  1  5  2 -1</clus>
<clus scale="  140.399">  2  9  1 -1</clus>
<clus scale="  140.399">  2  5  1 -1</clus>
</clustering>
</event>
<event>
10    2  0.5921424E-006  0.2111056E+03  0.7546771E-02  0.1152527E+00
         21   -1    0    0  503  502  0.00000000000E+00  0.00000000000E+00  0.30067388533E+03  0.30067388533E+03  0.00000000000E+00 0. -1.
          4   -1    0    0  502    0 -0.00000000000E+00 -0.00000000000E+00 -0.21456756522E+03  0.21456756522E+03  0.00000000000E+00 0. -1.
         23    2    1    2    0    0 -0.69675211669E+02 -0.12257558193E+03 -0.57338609114E+02  0.17769483689E+03  0.91696949557E+02 0.  0.
         23    2    1    2    0    0  0.71622284880E+02  0.61837569773E+02 -0.42097511748E+02  0.13866874487E+03  0.92212708358E+02 0.  0.
        -11    1    4    4    0    0  0.25417874475E+02  0.65232902354E+02  0.79613630379E+01  0.70461217658E+02  0.00000000000E+00 0. -1.
         11    1    4    4    0    0  0.46204410404E+02 -0.33953325812E+01 -0.50058874786E+02  0.68207527216E+02  0.00000000000E+00 0.  1.
        -11    1    3    3    0    0 -0.76223093584E+01 -0.52481952834E+02  0.19581503544E+02  0.56532205461E+02  0.00000000000E+00 0.  1.
         11    1    3    3    0    0 -0.62052902311E+02 -0.70093629091E+02 -0.76920112658E+02  0.12116263143E+03  0.00000000000E+00 0. -1.
         21    1    1    2  503  501  0.90947449654E+01  0.29093330805E+02  0.13380567815E+03  0.13723372686E+03  0.00000000000E+00 0. -1.
          4    1    1    2  501    0 -0.11041818176E+02  0.31644681348E+02  0.51736762821E+02  0.61644141923E+02  0.00000000000E+00 0. -1.
<scales pt_clust_5="13000.00000" pt_clust_6="13000.00000" pt_clust_7="13000.00000" pt_clust_8="13000.00000" pt_clust_9="30.48174" pt_clust_10="13000.00000"></scales>
<clustering>
<clus scale="   30.482">  1  9  2 -1</clus>
<clus scale="   91.697">  7  8 -1 -1</clus>
<clus scale="   92.213">  5  6 -1 -1</clus>
<clus scale="   42.378">  5 10 -1 -1</clus>
<clus scale="  159.218">  2  7  1 -1</clus>
<clus scale="   30.482">  1  5  2 -1</clus>
</clustering>
</event>
<event>
10    2  0.5921424E-006  0.3164310E+03  0.7546771E-02  0.1113345E+00
          1   -1    0    0  503    0 -0.00000000000E+00  0.00000000000E+00  0.67108157378E+03  0.67108157378E+03  0.00000000000E+00 0. -1.
         21   -1    0    0  501  502  0.00000000000E+00 -0.00000000000E+00 -0.29012966246E+03  0.29012966246E+03  0.00000000000E+00 0. -1.
         23    2    1    2    0    0 -0.82022154438E+02  0.66019717780E+01  0.57213621608E+02  0.13580450414E+03  0.91641939079E+02 0.  0.
         23    2    1    2    0    0  0.18027258823E+03  0.16461218274E+03  0.35863426674E+03  0.44333908396E+03  0.91299667619E+02 0.  0.
        -11    1    4    4    0    0  0.17758352064E+02 -0.10294788670E+02  0.42302713755E+02  0.47019797243E+02  0.00000000000E+00 0.  1.
         11    1    4    4    0    0  0.16251423617E+03  0.17490697141E+03  0.31633155298E+03  0.39631928671E+03  0.00000000000E+00 0. -1.
        -11    1    3    3    0    0 -0.88767875451E+02  0.32776142157E+02  0.52973551046E+02  0.10844449418E+03  0.00000000000E+00 0. -1.
         11    1    3    3    0    0  0.67457210134E+01 -0.26174170379E+02  0.42400705620E+01  0.27360009966E+02  0.00000000000E+00 0.  1.
         21    1    1    2  503  502 -0.98482642889E+02 -0.24846918806E+03 -0.95556503442E+02  0.28384293846E+03  0.00000000000E+00 0. -1.
          1    1    1    2  501    0  0.23220909150E+00  0.77255033536E+02  0.60660526418E+02  0.98224709686E+02  0.00000000000E+00 0. -1.
<scales pt_clust_5="13000.00000" pt_clust_6="13000.00000" pt_clust_7="13000.00000" pt_clust_8="13000.00000" pt_clust_9="271.52729" pt_clust_10="13000.00000"></scales>
<clustering>
<clus scale="   91.300">  5  6 -1 -1</clus>
<clus scale="   77.255">  5 10 -1 -1</clus>
<clus scale="   91.642">  7  8 -1 -1</clus>
<clus scale="  123.164">  1  7  2 -1</clus>
<clus scale="  271.527">  2  9  1 -1</clus>
<clus scale="  271.527">  2  5  1 -1</clus>
</clustering>
</event>
<event>
10    2  0.5921424E-006  0.2244636E+03  0.7546771E-02  0.1165697E+00
          1   -1    0    0  503    0 -0.00000000000E+00  0.00000000000E+00  0.43669353795E+03  0.43669353795E+03  0.00000000000E+00 0. -1.
         21   -1    0    0  501  502  0.00000000000E+00 -0.00000000000E+00 -0.86321919671E+02  0.86321919671E+02  0.00000000000E+00 0. -1.
         23    2    1    2    0    0 -0.45800291117E+02  0.54742435573E+01  0.13964471596E+03  0.17011764601E+03  0.85508670793E+02 0.  0.
         23    2    1    2    0    0  0.68132613270E+02  0.20666670743E+02  0.23824627772E+03  0.26563276884E+03  0.93436153407E+02 0.  0.
        -13    1    4    4    0    0 -0.22120581738E+02  0.28849576860E+01  0.75065071794E+02  0.78309693658E+02  0.00000000000E+00 0.  1.
         13    1    4    4    0    0  0.90253195008E+02  0.17781713057E+02  0.16318120592E+03  0.18732307518E+03  0.00000000000E+00 0. -1.
        -13    1    3    3    0    0 -0.16973895051E+02  0.43333562055E+02  0.48010363280E+02  0.66864831532E+02  0.00000000000E+00 0. -1.
         13    1    3    3    0    0 -0.28826396066E+02 -0.37859318498E+02  0.91634352676E+02  0.10325281448E+03  0.00000000000E+00 0.  1.
         21    1    1    2  503  502  0.21114991498E+01  0.24085331652E+02 -0.19022628778E+02  0.30763973005E+02  0.00000000000E+00 0. -1.
          1    1    1    2  501    0 -0.24443821303E+02 -0.50226245952E+02 -0.84967466128E+01  0.56501069772E+02  0.00000000000E+00 0. -1.
<scales pt_clust_5="13000.00000" pt_clust_6="13000.00000" pt_clust_7="13000.00000" pt_clust_8="13000.00000" pt_clust_9="24.17771" pt_clust_10="13000.00000"></scales>
<clustering>
<clus scale="   24.178">  2  9  1 -1</clus>
<clus scale="   85.509">  7  8 -1 -1</clus>
<clus scale="   93.436">  5  6 -1 -1</clus>
<clus scale="   44.149">  5 10 -1 -1</clus>
<clus scale="   97.431">  1  7  2 -1</clus>
<clus scale="   24.178">  2  5  1 -1</clus>
</clustering>
</event>
<event>
10    2  0.5921424E-006  0.6420677E+03  0.7546771E-02  0.1045537E+00
         21   -1    0    0  503  502  0.00000000000E+00  0.00000000000E+00  0.91003935010E+02  0.91003935010E+02  0.00000000000E+00 0. -1.
          2   -1    0    0  502    0 -0.00000000000E+00 -0.00000000000E+00 -0.18604977647E+04  0.18604977647E+04  0.00000000000E+00 0. -1.
         23    2    1    2    0    0  0.72516308285E+01  0.12460481473E+02 -0.36205215211E+03  0.37353285638E+03  0.90758934537E+02 0.  0.
         23    2    1    2    0    0 -0.19764798425E+02 -0.32369154073E+03 -0.63445641537E+03  0.71820131883E+03  0.90062925599E+02 0.  0.
        -11    1    4    4    0    0 -0.26277510124E+02 -0.10461644096E+03 -0.13521362200E+03  0.17296771616E+03  0.00000000000E+00 0.  1.
         11    1    4    4    0    0  0.65127116987E+01 -0.21907509976E+03 -0.49924279337E+03  0.54523360267E+03  0.00000000000E+00 0. -1.
        -13    1    3    3    0    0  0.15865005709E+02  0.50396743944E+02 -0.19753157032E+03  0.20447555228E+03  0.00000000000E+00 0.  1.
         13    1    3    3    0    0 -0.86133748803E+01 -0.37936262471E+02 -0.16452058179E+03  0.16905730410E+03  0.00000000000E+00 0. -1.
         21    1    1    2  503  501 -0.20383716749E+02  0.13899828322E+02  0.59375161352E+01  0.25376273046E+02  0.00000000000E+00 0. -1.
          2    1    1    2  501    0  0.32896884346E+02  0.29733123093E+03 -0.77892277835E+03  0.83439125146E+03  0.00000000000E+00 0. -1.
<scales pt_clust_5="13000.00000" pt_clust_6="13000.00000" pt_clust_7="13000.00000" pt_clust_8="13000.00000" pt_clust_9="24.67187" pt_clust_10="13000.00000"></scales>
<clustering>
<clus scale="   24.672">  1  9  2 -1</clus>
<clus scale="   90.063">  5  6 -1 -1</clus>
<clus scale="   90.759">  7  8 -1 -1</clus>
<clus scale="   91.937">  2  7  1 -1</clus>
<clus scale="  311.331">  5 10 -1 -1</clus>
<clus scale="   24.672">  1  5  2 -1</clus>
</clustering>
</event>
<event>
10    2  0.5921424E-006  0.2017148E+03  0.7546771E-02  0.1189949E+00
         -2   -1    0    0    0  501 -0.00000000000E+00  0.00000000000E+00  0.35804520275E+03  0.35804520275E+03  0.00000000000E+00 0.  1.
         21   -1    0    0  501  502  0.00000000000E+00 -0.00000000000E+00 -0.60745345663E+03  0.60745345663E+03  0.00000000000E+00 0. -1.
         23    2    1    2    0    0  0.11833262385E+02  0.17443999701E+02  0.28822206218E+03  0.29850303300E+03  0.74751483963E+02 0.  0.
         23    2    1    2    0    0 -0.12817321785E+02 -0.50097631983E+01  0.50198020310E-01  0.87783874825E+02  0.86698469965E+02 0.  0.
        -13    1    3    3    0    0 -0.22710327361E+02  0.31533560420E+02  0.17612205466E+03  0.18035826163E+03  0.00000000000E+00 0.  1.
         13    1    3    3    0    0  0.34543589746E+02 -0.14089560719E+02  0.11210000752E+03  0.11814477136E+03  0.00000000000E+00 0. -1.
        -13    1    4    4    0    0 -0.39607002850E+02 -0.26997027924E+02 -0.14673765822E+02  0.50128570645E+02  0.00000000000E+00 0. -1.
         13    1    4    4    0    0  0.26789681065E+02  0.21987264726E+02  0.14723963842E+02  0.37655304180E+02  0.00000000000E+00 0.  1.
         21    1    1    2  503  502  0.11148767988E+02 -0.96842420270E+02 -0.43555038849E+03  0.44632599107E+03  0.00000000000E+00 0. -1.
         -2    1    1    2    0  503 -0.10164708588E+02  0.84408183767E+02 -0.10213012559E+03  0.13288576049E+03  0.00000000000E+00 0.  1.
<scales pt_clust_5="13000.00000" pt_clust_6="13000.00000" pt_clust_7="13000.00000" pt_clust_8="13000.00000" pt_clust_9="96.15812" pt_clust_10="13000.00000"></scales>
<clustering>
<clus scale="   74.751">  5  6 -1 -1</clus>
<clus scale="   77.667">  1  5  2 -1</clus>
<clus scale="   86.698">  7  8 -1 -1</clus>
<clus scale="   88.860">  7 10 -1 -1</clus>
<clus scale="   96.158">  2  9  1 -1</clus>
<clus scale="   96.158">  2  5  1 -1</clus>
</clustering>
</event>
<event>
10    2  0.5921424E-006  0.1784780E+03  0.7546771E-02  0.1195939E+00
         21   -1    0    0  501  502  0.00000000000E+00  0.00000000000E+00  0.46417730593E+03  0.46417730593E+03  0.00000000000E+00 0.  1.
         -1   -1    0    0    0  501 -0.00000000000E+00 -0.00000000000E+00 -0.84363140193E+02  0.84363140193E+02  0.00000000000E+00 0.  1.
         23    2    1    2    0    0 -0.44123234050E+01  0.35464653608E+02 -0.16972033612E+02  0.10057996589E+03  0.92471992303E+02 0.  0.
         23    2    1    2    0    0 -0.91673224556E+01  0.42258334667E+02  0.24828536631E+03  0.26787286577E+03  0.90776882760E+02 0.  0.
        -11    1    4    4    0    0 -0.46829734017E+02  0.61982182481E+01  0.97813712450E+02  0.10862303734E+03  0.00000000000E+00 0.  1.
         11    1    4    4    0    0  0.37662411561E+02  0.36060116418E+02  0.15047165385E+03  0.15924982843E+03  0.00000000000E+00 0. -1.
        -13    1    3    3    0    0  0.22342251472E+02  0.58754871233E+02 -0.46586459546E+01  0.63031849700E+02  0.00000000000E+00 0.  1.
         13    1    3    3    0    0 -0.26754574877E+02 -0.23290217625E+02 -0.12313387657E+02  0.37548116191E+02  0.00000000000E+00 0. -1.
         21    1    1    2  503  502 -0.42988728079E+01 -0.21600941976E+02  0.10389154491E+03  0.10620044306E+03  0.00000000000E+00 0.  1.
         -1    1    1    2    0  503  0.17878518668E+02 -0.56122046299E+02  0.44609288130E+02  0.73887171404E+02  0.00000000000E+00 0.  1.
<scales pt_clust_5="13000.00000" pt_clust_6="13000.00000" pt_clust_7="13000.00000" pt_clust_8="13000.00000" pt_clust_9="22.02455" pt_clust_10="13000.00000"></scales>
<clustering>
<clus scale="   22.025">  1  9  2 -1</clus>
<clus scale="   90.777">  5  6 -1 -1</clus>
<clus scale="   62.106">  5 10 -1 -1</clus>
<clus scale="   92.472">  7  8 -1 -1</clus>
<clus scale="   98.290">  2  7  1 -1</clus>
<clus scale="   22.025">  1  5  2 -1</clus>
</clustering>
</event>
<event>
10    2  0.5921424E-006  0.3261753E+03  0.7546771E-02  0.1107181E+00
         21   -1    0    0  503  502  0.00000000000E+00  0.00000000000E+00  0.11677907854E+03  0.11677907854E+03  0.00000000000E+00 0. -1.
          4   -1    0    0  502    0 -0.00000000000E+00 -0.00000000000E+00 -0.75883734877E+03  0.75883734877E+03  0.00000000000E+00 0. -1.
         23    2    1    2    0    0 -0.60631901025E+02 -0.50486679979E+01 -0.19718158276E+03  0.23696532436E+03  0.11649150999E+03 0.  0.
         23    2    1    2    0    0  0.15563973506E+03 -0.61606480821E+01 -0.43699713295E+03  0.47183553380E+03  0.86026717007E+02 0.  0.
        -11    1    3    3    0    0 -0.67293019096E+02 -0.41046123405E+02 -0.18004691851E+03  0.19654523024E+03  0.00000000000E+00 0.  1.
         11    1    3    3    0    0  0.66611180713E+01  0.35997455407E+02 -0.17134664245E+02  0.40420094118E+02  0.00000000000E+00 0. -1.
        -13    1    4    4    0    0  0.13308583962E+03  0.84755966216E+01 -0.41841487335E+03  0.43915223180E+03  0.00000000000E+00 0. -1.
         13    1    4    4    0    0  0.22553895438E+02 -0.14636244704E+02 -0.18582259592E+02  0.32683302005E+02  0.00000000000E+00 0.  1.
         21    1    1    2  503  501  0.25409478075E+01 -0.25037149387E+02  0.43883569587E+02  0.50587379304E+02  0.00000000000E+00 0. -1.
          4    1    1    2  501    0 -0.97548781844E+02  0.36246465467E+02 -0.51763124112E+02  0.11622818985E+03  0.00000000000E+00 0. -1.
<scales pt_clust_5="13000.00000" pt_clust_6="13000.00000" pt_clust_7="13000.00000" pt_clust_8="13000.00000" pt_clust_9="25.16576" pt_clust_10="13000.00000"></scales>
<clustering>
<clus scale="   25.166">  1  9  2 -1</clus>
<clus scale="   86.027">  7  8 -1 -1</clus>
<clus scale="   99.472">  7 10 -1 -1</clus>
<clus scale="  116.492">  5  6 -1 -1</clus>
<clus scale="  131.560">  2  5  1 -1</clus>
<clus scale="   25.166">  1  5  2 -1</clus>
</clustering>
</event>
<event>
10    2  0.5921424E-006  0.2344324E+03  0.7546771E-02  0.1147314E+00
          1   -1    0    0  503    0 -0.00000000000E+00  0.00000000000E+00  0.40425131463E+03  0.40425131463E+03  0.00000000000E+00 0. -1.
         21   -1    0    0  501  502  0.00000000000E+00 -0.00000000000E+00 -0.34570269315E+03  0.34570269315E+03  0.00000000000E+00 0. -1.
         23    2    1    2    0    0 -0.79801134727E+02 -0.21552630020E+03 -0.13469416645E+02  0.24944187654E+03  0.96020921703E+02 0.  0.
         23    2    1    2    0    0  0.51460869020E+02  0.10357767607E+02  0.14671496532E+03  0.18192900051E+03  0.93900882784E+02 0.  0.
        -13    1    4    4    0    0  0.47870117012E+02  0.45117831151E+02  0.12364852589E+03  0.14005757654E+03  0.00000000000E+00 0.  1.
         13    1    4    4    0    0  0.35907520078E+01 -0.34760063544E+02  0.23066439429E+02  0.41871423973E+02  0.00000000000E+00 0. -1.
        -13    1    3    3    0    0 -0.13758771172E+02 -0.12482798491E+03  0.30004105306E+02  0.12911845700E+03  0.00000000000E+00 0.  1.
         13    1    3    3    0    0 -0.66042363555E+02 -0.90698315287E+02 -0.43473521950E+02  0.12032341954E+03  0.00000000000E+00 0. -1.
         21    1    1    2  503  502 -0.84565972992E+01  0.23427981547E+03 -0.11088035528E+03  0.25933183214E+03  0.00000000000E+00 0. -1.
          1    1    1    2  501    0  0.36796863006E+02 -0.29111282873E+02  0.36183428085E+02  0.59251298598E+02  0.00000000000E+00 0. -1.
<scales pt_clust_5="13000.00000" pt_clust_6="13000.00000" pt_clust_7="13000.00000" pt_clust_8="13000.00000" pt_clust_9="234.43239" pt_clust_10="13000.00000"></scales>
<clustering>
<clus scale="   93.901">  5  6 -1 -1</clus>
<clus scale="   46.920">  5 10 -1 -1</clus>
<clus scale="   96.021">  7  8 -1 -1</clus>
<clus scale="  234.432">  2  9  1 -1</clus>
<clus scale="  131.550">  1  7  2 -1</clus>
<clus scale="  234.432">  2  5  1 -1</clus>
</clustering>
</event>
<event>
10    2  0.5921424E-006  0.5827614E+03  0.7546771E-02  0.1053669E+00
         21   -1    0    0  501  502  0.00000000000E+00  0.00000000000E+00  0.44926027301E+03  0.44926027301E+03  0.00000000000E+00 0.  1.
          3   -1    0    0  503    0 -0.00000000000E+00 -0.00000000000E+00 -0.86448236679E+03  0.86448236679E+03  0.00000000000E+00 0. -1.
         23    2    1    2    0    0  0.35400087418E+02  0.71572162771E+01 -0.10137044130E+03  0.14063520728E+03  0.90542273130E+02 0.  0.
         23    2    1    2    0    0 -0.10335758176E+03  0.21937005107E+03 -0.64177782066E+03  0.69289778281E+03  0.97069857902E+02 0.  0.
        -11    1    4    4    0    0 -0.37020395716E+02  0.60413754807E+01 -0.81288523853E+02  0.89525594255E+02  0.00000000000E+00 0.  1.
         11    1    4    4    0    0 -0.66337186043E+02  0.21332867559E+03 -0.56048929681E+03  0.60337218855E+03  0.00000000000E+00 0. -1.
        -13    1    3    3    0    0  0.22249003073E+02 -0.36529943263E+02 -0.19712071978E+02  0.47095866849E+02  0.00000000000E+00 0.  1.
         13    1    3    3    0    0  0.13151084345E+02  0.43687159540E+02 -0.81658369323E+02  0.93539340433E+02  0.00000000000E+00 0. -1.
         21    1    1    2  503  502  0.15729760268E+03 -0.20569550713E+03  0.24770574534E+03  0.35834524378E+03  0.00000000000E+00 0.  1.
          3    1    1    2  501    0 -0.89340108344E+02 -0.20831760220E+02  0.80220422845E+02  0.12186440594E+03  0.00000000000E+00 0. -1.
<scales pt_clust_5="13000.00000" pt_clust_6="13000.00000" pt_clust_7="13000.00000" pt_clust_8="13000.00000" pt_clust_9="260.13450" pt_clust_10="13000.00000"></scales>
<clustering>
<clus scale="   90.542">  7  8 -1 -1</clus>
<clus scale="   97.070">  5  6 -1 -1</clus>
<clus scale="   91.737">  5 10 -1 -1</clus>
<clus scale="   97.480">  2  7  1 -1</clus>
<clus scale="  260.135">  1  9  2 -1</clus>
<clus scale="  260.135">  1  5  2 -1</clus>
</clustering>
</event>
<event>
10    2  0.5921424E-006  0.9107779E+03  0.7546771E-02  0.9891245E-01
         21   -1    0    0  503  502  0.00000000000E+00  0.00000000000E+00  0.92639438081E+03  0.92639438081E+03  0.00000000000E+00 0. -1.
          1   -1    0    0  502    0 -0.00000000000E+00 -0.00000000000E+00 -0.39355142503E+03  0.39355142503E+03  0.00000000000E+00 0. -1.
         23    2    1    2    0    0  0.13913695207E+03 -0.46136102652E+02  0.53398511097E+02  0.18104276912E+03  0.91855603330E+02 0.  0.
         23    2    1    2    0    0  0.15799385429E+02  0.35492354554E+03 -0.64426188092E+02  0.37267738383E+03  0.92289516971E+02 0.  0.
        -11    1    4    4    0    0  0.22186614330E+01  0.27544732200E+02 -0.33697425384E+02  0.43579252036E+02  0.00000000000E+00 0.  1.
         11    1    4    4    0    0  0.13580723996E+02  0.32737881334E+03 -0.30728762708E+02  0.32909813179E+03  0.00000000000E+00 0. -1.
        -13    1    3    3    0    0  0.11624609300E+01 -0.26543050062E+02  0.29411349379E+02  0.39634735956E+02  0.00000000000E+00 0.  1.
         13    1    3    3    0    0  0.13797449114E+03 -0.19593052591E+02  0.23987161718E+02  0.14140803316E+03  0.00000000000E+00 0. -1.
         21    1    1    2  503  501  0.74041834413E+02  0.66879123808E+02  0.99561233947E+02  0.14095194128E+03  0.00000000000E+00 0. -1.
          1    1    1    2  501    0 -0.22897817192E+03 -0.37566656670E+03  0.44430939883E+03  0.62527371162E+03  0.00000000000E+00 0. -1.
<scales pt_clust_5="13000.00000" pt_clust_6="13000.00000" pt_clust_7="13000.00000" pt_clust_8="13000.00000" pt_clust_9="99.77480" pt_clust_10="13000.00000"></scales>
<clustering>
<clus scale="   91.856">  7  8 -1 -1</clus>
<clus scale="   92.290">  5  6 -1 -1</clus>
<clus scale="   99.775">  1  9  2 -1</clus>
<clus scale="  179.539">  2  7  1 -1</clus>
<clus scale="  368.870">  5 10 -1 -1</clus>
<clus scale="   99.775">  1  5  2 -1</clus>
</clustering>
</event>
<event>
10    2  0.5921424E-006  0.1633248E+03  0.7546771E-02  0.1189413E+00
          1   -1    0    0  503    0 -0.00000000000E+00  0.00000000000E+00  0.44555047209E+03  0.44555047209E+03  0.00000000000E+00 0. -1.
         21   -1    0    0  501  502  0.00000000000E+00 -0.00000000000E+00 -0.90133190380E+02  0.90133190380E+02  0.00000000000E+00 0.  1.
         23    2    1    2    0    0  0.11085620799E+03 -0.88787855086E+02  0.17641761966E+03  0.24469864309E+03  0.92638368647E+02 0.  0.
         23    2    1    2    0    0 -0.40466160319E+02  0.34510549234E+02  0.14583834064E+03  0.17978964434E+03  0.90702847104E+02 0.  0.
        -13    1    3    3    0    0  0.23270171446E+02 -0.77730640436E+02  0.79348652272E+02  0.11348903894E+03  0.00000000000E+00 0.  1.
         13    1    3    3    0    0  0.87586036544E+02 -0.11057214649E+02  0.97068967383E+02  0.13120960415E+03  0.00000000000E+00 0. -1.
        -13    1    4    4    0    0 -0.63140274871E+02  0.47500072853E+02  0.11000653852E+03  0.13544146244E+03  0.00000000000E+00 0. -1.
         13    1    4    4    0    0  0.22674114551E+02 -0.12989523619E+02  0.35831802117E+02  0.44348181896E+02  0.00000000000E+00 0.  1.
         21    1    1    2  503  502 -0.29604615354E+02  0.38426817189E+02 -0.10225920775E+02  0.49574418658E+02  0.00000000000E+00 0.  1.
          1    1    1    2  501    0 -0.40785432317E+02  0.15850488663E+02  0.43387242194E+02  0.61620956381E+02  0.00000000000E+00 0. -1.
<scales pt_clust_5="13000.00000" pt_clust_6="13000.00000" pt_clust_7="13000.00000" pt_clust_8="13000.00000" pt_clust_9="48.50828" pt_clust_10="13000.00000"></scales>
<clustering>
<clus scale="   48.508">  2  9  1 -1</clus>
<clus scale="   90.703">  7  8 -1 -1</clus>
<clus scale="   50.185">  7 10 -1 -1</clus>
<clus scale="   92.638">  5  6 -1 -1</clus>
<clus scale="  148.061">  1  5  2 -1</clus>
<clus scale="   48.508">  2  5  1 -1</clus>
</clustering>
</event>
<event>
10    2  0.5921424E-006  0.4581109E+03  0.7546771E-02  0.1073728E+00
         21   -1    0    0  501  502  0.00000000000E+00  0.00000000000E+00  0.29997737113E+03  0.29997737113E+03  0.00000000000E+00 0.  1.
          1   -1    0    0  503    0 -0.00000000000E+00 -0.00000000000E+00 -0.67771641048E+03  0.67771641048E+03  0.00000000000E+00 0. -1.
         23    2    1    2    0    0  0.48487739561E+02 -0.78928339615E+02 -0.59778195676E+02  0.14352520239E+03  0.91898353411E+02 0.  0.
         23    2    1    2    0    0  0.14373514645E+03  0.19761392532E+03 -0.25516005099E+03  0.36507835729E+03  0.92002714808E+02 0.  0.
        -11    1    3    3    0    0  0.43975550715E+02 -0.50278191766E+02 -0.82879538457E+02  0.10644605922E+03  0.00000000000E+00 0. -1.
         11    1    3    3    0    0  0.45121888457E+01 -0.28650147849E+02  0.23101342781E+02  0.37079143170E+02  0.00000000000E+00 0.  1.
        -11    1    4    4    0    0  0.28686275889E+02  0.10119780933E+02 -0.74337308495E+02  0.80320282773E+02  0.00000000000E+00 0.  1.
         11    1    4    4    0    0  0.11504887056E+03  0.18749414439E+03 -0.18082274250E+03  0.28475807451E+03  0.00000000000E+00 0. -1.
         21    1    1    2  503  502 -0.85090315896E+02  0.43299987466E+02  0.15200871098E+03  0.17950459322E+03  0.00000000000E+00 0.  1.
          1    1    1    2  501    0 -0.10713257011E+03 -0.16198557317E+03 -0.21480950366E+03  0.28958562871E+03  0.00000000000E+00 0. -1.
<scales pt_clust_5="13000.00000" pt_clust_6="13000.00000" pt_clust_7="13000.00000" pt_clust_8="13000.00000" pt_clust_9="95.47382" pt_clust_10="13000.00000"></scales>
<clustering>
<clus scale="   91.898">  5  6 -1 -1</clus>
<clus scale="   92.003">  7  8 -1 -1</clus>
<clus scale="   95.474">  1  9  2 -1</clus>
<clus scale="  114.920">  2  5  1 -1</clus>
<clus scale="  217.048">  7 10 -1 -1</clus>
<clus scale="   95.474">  1  5  2 -1</clus>
</clustering>
</event>
<event>
10    2  0.5921424E-006  0.2300536E+03  0.7546771E-02  0.1160623E+00
         -1   -1    0    0    0  501 -0.00000000000E+00  0.00000000000E+00  0.71397570134E+03  0.71397570134E+03  0.00000000000E+00 0.  1.
         21   -1    0    0  503  502  0.00000000000E+00 -0.00000000000E+00 -0.50434793948E+03  0.50434793948E+03  0.00000000000E+00 0.  1.
         23    2    1    2    0    0 -0.36116746827E+02  0.28210899614E+02  0.19099146799E+03  0.21641817427E+03  0.90878000913E+02 0.  0.
         23    2    1    2    0    0 -0.89840201577E+00 -0.12398594921E+03  0.34789826037E+03  0.38127513522E+03  0.94679493239E+02 0.  0.
        -13    1    4    4    0    0 -0.32629211842E+02 -0.11190173072E+03  0.30533838182E+03  0.32683052217E+03  0.00000000000E+00 0.  1.
         13    1    4    4    0    0  0.31730809826E+02 -0.12084218493E+02  0.42559878543E+02  0.54444613052E+02  0.00000000000E+00 0. -1.
        -13    1    3    3    0    0  0.19302077294E+02  0.29865585126E+02  0.31290853666E+02  0.47367086525E+02  0.00000000000E+00 0. -1.
         13    1    3    3    0    0 -0.55418824122E+02 -0.16546855119E+01  0.15970061433E+03  0.16905108774E+03  0.00000000000E+00 0.  1.
         21    1    1    2  503  501  0.42817917461E+01  0.18036334940E+03 -0.44113900454E+03  0.47660559467E+03  0.00000000000E+00 0.  1.
         -1    1    1    2    0  502  0.32733357097E+02 -0.84588299802E+02  0.11187703803E+03  0.14402473666E+03  0.00000000000E+00 0.  1.
<scales pt_clust_5="13000.00000" pt_clust_6="13000.00000" pt_clust_7="13000.00000" pt_clust_8="13000.00000" pt_clust_9="181.36901" pt_clust_10="13000.00000"></scales>
<clustering>
<clus scale="   90.878">  7  8 -1 -1</clus>
<clus scale="   94.679">  5  6 -1 -1</clus>
<clus scale="   90.701">  5 10 -1 -1</clus>
<clus scale="  101.780">  1  7  2 -1</clus>
<clus scale="  181.369">  2  9  1 -1</clus>
<clus scale="  181.369">  2  5  1 -1</clus>
</clustering>
</event>
<event>
10    2  0.5921424E-006  0.1401084E+03  0.7546771E-02  0.1231675E+00
         21   -1    0    0  503  502  0.00000000000E+00  0.00000000000E+00  0.29879181100E+03  0.29879181100E+03  0.00000000000E+00 0.  1.
          2   -1    0    0  502    0 -0.00000000000E+00 -0.00000000000E+00 -0.15360497673E+03  0.15360497673E+03  0.00000000000E+00 0. -1.
         23    2    1    2    0    0 -0.31841324764E+00 -0.13337099233E+02 -0.56619372102E+01  0.92681271672E+02  0.91541143661E+02 0.  0.
         23    2    1    2    0    0  0.13984500827E+02 -0.21179832983E+02 -0.48196191159E+02  0.10654231716E+03  0.91565500679E+02 0.  0.
        -13    1    3    3    0    0  0.28813709329E+02 -0.42333136219E+02 -0.13803829089E+00  0.51208820744E+02  0.00000000000E+00 0. -1.
         13    1    3    3    0    0 -0.29132122576E+02  0.28996036986E+02 -0.55238989193E+01  0.41472450928E+02  0.00000000000E+00 0.  1.
        -13    1    4    4    0    0  0.15187425995E+02  0.35139776609E+02 -0.14721391916E+02  0.41014402207E+02  0.00000000000E+00 0.  1.
         13    1    4    4    0    0 -0.12029251687E+01 -0.56319609591E+02 -0.33474799243E+02  0.65527914951E+02  0.00000000000E+00 0. -1.
         21    1    1    2  503  501 -0.58496704250E+02  0.57161201430E+02  0.18300400031E+03  0.20044882511E+03  0.00000000000E+00 0.  1.
          2    1    1    2  501    0  0.44830616671E+02 -0.22644269215E+02  0.16040962326E+02  0.52724373791E+02  0.00000000000E+00 0. -1.
<scales pt_clust_5="13000.00000" pt_clust_6="13000.00000" pt_clust_7="13000.00000" pt_clust_8="13000.00000" pt_clust_9="81.78794" pt_clust_10="13000.00000"></scales>
<clustering>
<clus scale="   81.788">  1  9  2 -1</clus>
<clus scale="   91.541">  5  6 -1 -1</clus>
<clus scale="   91.566">  7  8 -1 -1</clus>
<clus scale="   26.396">  7 10 -1 -1</clus>
<clus scale="   95.174">  2  5  1 -1</clus>
<clus scale="   81.788">  1  5  2 -1</clus>
</clustering>
</event>
<event>
10    2  0.5921424E-006  0.1731332E+03  0.7546771E-02  0.1194906E+00
         21   -1    0    0  501  502  0.00000000000E+00  0.00000000000E+00  0.27213806215E+03  0.27213806215E+03  0.00000000000E+00 0.  1.
          2   -1    0    0  503    0 -0.00000000000E+00 -0.00000000000E+00 -0.25269683272E+03  0.25269683272E+03  0.00000000000E+00 0. -1.
         23    2    1    2    0    0  0.35151132786E+02  0.61689898956E+02 -0.15331891168E+03  0.19061191259E+03  0.88232458735E+02 0.  0.
         23    2    1    2    0    0 -0.54486527107E+02 -0.39605589574E+02 -0.28013845048E+02  0.11672158157E+03  0.91114036950E+02 0.  0.
        -11    1    3    3    0    0  0.27277257805E+02 -0.17610909588E+02 -0.57014123274E+02  0.65610998945E+02  0.00000000000E+00 0.  1.
         11    1    3    3    0    0  0.78738749810E+01  0.79300808544E+02 -0.96304788405E+02  0.12500091365E+03  0.00000000000E+00 0. -1.
        -13    1    4    4    0    0  0.18889484492E+02 -0.12077516979E+02  0.15333623349E+02  0.27162456549E+02  0.00000000000E+00 0. -1.
         13    1    4    4    0    0 -0.73376011600E+02 -0.27528072595E+02 -0.43347468397E+02  0.89559125026E+02  0.00000000000E+00 0.  1.
         21    1    1    2  503  502  0.20418966004E+02 -0.49760990123E+02  0.15422268260E+03  0.16333317526E+03  0.00000000000E+00 0.  1.
          2    1    1    2  501    0 -0.10835716819E+01  0.27676680741E+02  0.46551303559E+02  0.54168225441E+02  0.00000000000E+00 0. -1.
<scales pt_clust_5="13000.00000" pt_clust_6="13000.00000" pt_clust_7="13000.00000" pt_clust_8="13000.00000" pt_clust_9="53.78745" pt_clust_10="13000.00000"></scales>
<clustering>
<clus scale="   53.787">  1  9  2 -1</clus>
<clus scale="   88.232">  5  6 -1 -1</clus>
<clus scale="   91.114">  7  8 -1 -1</clus>
<clus scale="    9.738">  7 10 -1 -1</clus>
<clus scale="  110.140">  2  5  1 -1</clus>
<clus scale="   53.787">  1  5  2 -1</clus>
</clustering>
</event>
<event>
10    2  0.5921424E-006  0.3460154E+03  0.7546771E-02  0.1094412E+00
         -1   -1    0    0    0  501 -0.00000000000E+00  0.00000000000E+00  0.92186575176E+03  0.92186575176E+03  0.00000000000E+00 0.  1.
         21   -1    0    0  501  502  0.00000000000E+00 -0.00000000000E+00 -0.17175843446E+03  0.17175843446E+03  0.00000000000E+00 0. -1.
         23    2    1    2    0    0  0.75237023924E+02 -0.96212067794E+02  0.50128481768E+03  0.52418393349E+03  0.92547047101E+02 0.  0.
         23    2    1    2    0    0  0.95629082847E+02  0.76942204228E+02  0.13881905937E+03  0.20835672758E+03  0.95272086196E+02 0.  0.
        -11    1    3    3    0    0 -0.43878667275E+01 -0.65199239810E+02  0.26447845101E+03  0.27243172593E+03  0.00000000000E+00 0.  1.
         11    1    3    3    0    0  0.79624890651E+02 -0.31012827984E+02  0.23680636667E+03  0.25175220755E+03  0.00000000000E+00 0. -1.
        -11    1    4    4    0    0  0.73068571103E+02  0.29856025755E+02  0.24449306425E+02  0.82632723189E+02  0.00000000000E+00 0. -1.
         11    1    4    4    0    0  0.22560511745E+02  0.47086178472E+02  0.11436975294E+03  0.12572400439E+03  0.00000000000E+00 0.  1.
         21    1    1    2  503  502  0.20683839594E+02  0.14534114430E+02 -0.84412045377E+02  0.88116145554E+02  0.00000000000E+00 0. -1.
         -1    1    1    2    0  503 -0.19154994637E+03  0.47357491360E+01  0.19441548563E+03  0.27296737960E+03  0.00000000000E+00 0.  1.
<scales pt_clust_5="13000.00000" pt_clust_6="13000.00000" pt_clust_7="13000.00000" pt_clust_8="13000.00000" pt_clust_9="25.27967" pt_clust_10="13000.00000"></scales>
<clustering>
<clus scale="   25.280">  2  9  1 -1</clus>
<clus scale="   92.547">  5  6 -1 -1</clus>
<clus scale="   95.272">  7  8 -1 -1</clus>
<clus scale="  153.415">  1  5  2 -1</clus>
<clus scale="  146.245">  7 10 -1 -1</clus>
<clus scale="   25.280">  2  5  1 -1</clus>
</clustering>
</event>
<event>
10    2  0.5921424E-006  0.1599714E+03  0.7546771E-02  0.1202180E+00
         21   -1    0    0  503  502  0.00000000000E+00  0.00000000000E+00  0.41796447986E+03  0.41796447986E+03  0.00000000000E+00 0.  1.
         -1   -1    0    0    0  501 -0.00000000000E+00 -0.00000000000E+00 -0.66570492764E+02  0.66570492764E+02  0.00000000000E+00 0.  1.
         23    2    1    2    0    0 -0.64672976677E+02  0.37807289327E+02  0.55507928259E+02  0.12732328153E+03  0.86706994428E+02 0.  0.
         23    2    1    2    0    0  0.33244913882E+02 -0.62964174765E+02  0.12906009643E+03  0.17267959392E+03  0.89955667218E+02 0.  0.
        -11    1    3    3    0    0 -0.45475447255E+02 -0.52801642059E+01  0.64706285384E+02  0.79264114234E+02  0.00000000000E+00 0. -1.
         11    1    3    3    0    0 -0.19197529421E+02  0.43087453533E+02 -0.91983571251E+01  0.48059167300E+02  0.00000000000E+00 0.  1.
        -11    1    4    4    0    0  0.66838778196E+00 -0.78474458341E+02  0.92667877418E+02  0.12143320328E+03  0.00000000000E+00 0. -1.
         11    1    4    4    0    0  0.32576526100E+02  0.15510283575E+02  0.36392219009E+02  0.51246390641E+02  0.00000000000E+00 0.  1.
         21    1    1    2  503  501 -0.19262094006E+02  0.20139237933E+02  0.55352437094E+02  0.61971844109E+02  0.00000000000E+00 0.  1.
         -1    1    1    2    0  502  0.50690156800E+02  0.50176475056E+01  0.11147352531E+03  0.12256025305E+03  0.00000000000E+00 0.  1.
<scales pt_clust_5="13000.00000" pt_clust_6="13000.00000" pt_clust_7="13000.00000" pt_clust_8="13000.00000" pt_clust_9="27.86785" pt_clust_10="13000.00000"></scales>
<clustering>
<clus scale="   27.868">  1  9  2 -1</clus>
<clus scale="   86.707">  5  6 -1 -1</clus>
<clus scale="   89.956">  7  8 -1 -1</clus>
<clus scale="   45.901">  7 10 -1 -1</clus>
<clus scale="  119.171">  2  5  1 -1</clus>
<clus scale="   27.868">  1  5  2 -1</clus>
</clustering>
</event>
<event>
10    2  0.5921424E-006  0.2470585E+03  0.7546771E-02  0.1122588E+00
         21   -1    0    0  501  502  0.00000000000E+00  0.00000000000E+00  0.61125445220E+02  0.61125445220E+02  0.00000000000E+00 0. -1.
          1   -1    0    0  503    0 -0.00000000000E+00 -0.00000000000E+00 -0.13008231625E+04  0.13008231625E+04  0.00000000000E+00 0. -1.
         23    2    1    2    0    0  0.12513697848E+03  0.12808093151E+03 -0.62553839170E+03  0.65703903613E+03  0.91312798183E+02 0.  0.
         23    2    1    2    0    0 -0.10666715200E+03 -0.59800106642E+02 -0.21393380612E+03  0.26300868012E+03  0.91934532947E+02 0.  0.
        -13    1    4    4    0    0 -0.62785559507E+02 -0.11832405220E+02 -0.35478899093E+02  0.73080671704E+02  0.00000000000E+00 0.  1.
         13    1    4    4    0    0 -0.43881592495E+02 -0.47967701422E+02 -0.17845490703E+03  0.18992800842E+03  0.00000000000E+00 0. -1.
        -13    1    3    3    0    0  0.10105965847E+03  0.46025570859E+02 -0.28350281438E+03  0.30447537421E+03  0.00000000000E+00 0.  1.
         13    1    3    3    0    0  0.24077320007E+02  0.82055360650E+02 -0.34203557733E+03  0.35256366192E+03  0.00000000000E+00 0. -1.
         21    1    1    2  503  502 -0.13291625090E+02  0.36597015300E+02 -0.27821596156E+03  0.28092726833E+03  0.00000000000E+00 0. -1.
          1    1    1    2  501    0 -0.51782013888E+01 -0.10487784017E+03 -0.12200955793E+03  0.16097362316E+03  0.00000000000E+00 0. -1.
<scales pt_clust_5="13000.00000" pt_clust_6="13000.00000" pt_clust_7="13000.00000" pt_clust_8="13000.00000" pt_clust_9="38.93598" pt_clust_10="13000.00000"></scales>
<clustering>
<clus scale="   38.936">  1  9  2 -1</clus>
<clus scale="   91.313">  7  8 -1 -1</clus>
<clus scale="   91.935">  5  6 -1 -1</clus>
<clus scale="   93.434">  5 10 -1 -1</clus>
<clus scale="  205.186">  2  7  1 -1</clus>
<clus scale="   38.936">  1  5  2 -1</clus>
</clustering>
</event>
<event>
10    2  0.5921424E-006  0.8905511E+03  0.7546771E-02  0.9980685E-01
          4   -1    0    0  502    0 -0.00000000000E+00  0.00000000000E+00  0.20391254337E+03  0.20391254337E+03  0.00000000000E+00 0. -1.
         21   -1    0    0  503  502  0.00000000000E+00 -0.00000000000E+00 -0.14810205076E+04  0.14810205076E+04  0.00000000000E+00 0. -1.
         23    2    1    2    0    0 -0.87525140206E+02  0.62366550049E+02 -0.98352096532E+02  0.17254459274E+03  0.92456826993E+02 0.  0.
         23    2    1    2    0    0  0.41072409752E+03 -0.28366441232E+03 -0.81055741511E+03  0.95770934183E+03  0.10509080424E+03 0.  0.
        -13    1    4    4    0    0  0.24938588024E+03 -0.14037510570E+03 -0.54471022681E+03  0.61531107479E+03  0.00000000000E+00 0. -1.
         13    1    4    4    0    0  0.16133821728E+03 -0.14328930662E+03 -0.26584718830E+03  0.34239826704E+03  0.00000000000E+00 0.  1.
        -13    1    3    3    0    0 -0.47445761796E+02  0.22124207708E+02  0.70410324302E+01  0.52821936890E+02  0.00000000000E+00 0. -1.
         13    1    3    3    0    0 -0.40079378410E+02  0.40242342341E+02 -0.10539312896E+03  0.11972265585E+03  0.00000000000E+00 0.  1.
         21    1    1    2  503  501 -0.53857988064E+01  0.51414606904E+02 -0.69465497307E+02  0.86590553457E+02  0.00000000000E+00 0. -1.
          4    1    1    2  501    0 -0.31781315850E+03  0.16988325537E+03 -0.29873295524E+03  0.46808856290E+03  0.00000000000E+00 0. -1.
<scales pt_clust_5="13000.00000" pt_clust_6="13000.00000" pt_clust_7="13000.00000" pt_clust_8="13000.00000" pt_clust_9="51.69592" pt_clust_10="13000.00000"></scales>
<clustering>
<clus scale="   51.696">  2  9  1 -1</clus>
<clus scale="   92.457">  7  8 -1 -1</clus>
<clus scale="  105.091">  5  6 -1 -1</clus>
<clus scale="  144.338">  1  7  2 -1</clus>
<clus scale="  429.935">  5 10 -1 -1</clus>
<clus scale="   51.696">  2  5  1 -1</clus>
</clustering>
</event>
<event>
10    2  0.5921424E-006  0.2160717E+03  0.7546771E-02  0.1164466E+00
         21   -1    0    0  503  502  0.00000000000E+00  0.00000000000E+00  0.17896320010E+03  0.17896320010E+03  0.00000000000E+00 0.  1.
          1   -1    0    0  502    0 -0.00000000000E+00 -0.00000000000E+00 -0.60589361361E+03  0.60589361361E+03  0.00000000000E+00 0. -1.
         23    2    1    2    0    0  0.24998770271E+02 -0.49475761674E+02 -0.11306645312E+03  0.15571263193E+03  0.91594821975E+02 0.  0.
         23    2    1    2    0    0 -0.55249604881E+02  0.24317620886E+02 -0.41963648867E+03  0.43357645183E+03  0.90828912961E+02 0.  0.
        -11    1    4    4    0    0 -0.61965680475E+02 -0.18743631778E+02 -0.22554368340E+03  0.23465085214E+03  0.00000000000E+00 0.  1.
         11    1    4    4    0    0  0.67160755939E+01  0.43061252664E+02 -0.19409280527E+03  0.19892559969E+03  0.00000000000E+00 0. -1.
        -13    1    3    3    0    0 -0.26491912403E+02 -0.43827330627E+02 -0.35020510201E+02  0.62041054693E+02  0.00000000000E+00 0.  1.
         13    1    3    3    0    0  0.51490682675E+02 -0.56484310467E+01 -0.78045942924E+02  0.93671577239E+02  0.00000000000E+00 0. -1.
         21    1    1    2  503  501 -0.87336956107E-01 -0.23502675408E+02  0.13087636711E+03  0.13296994716E+03  0.00000000000E+00 0.  1.
          1    1    1    2  501    0  0.30338171566E+02  0.48660816195E+02 -0.25103838826E+02  0.62597782792E+02  0.00000000000E+00 0. -1.
<scales pt_clust_5="13000.00000" pt_clust_6="13000.00000" pt_clust_7="13000.00000" pt_clust_8="13000.00000" pt_clust_9="23.50284" pt_clust_10="13000.00000"></scales>
<clustering>
<clus scale="   23.503">  1  9  2 -1</clus>
<clus scale="   90.829">  5  6 -1 -1</clus>
<clus scale="   49.622">  5 10 -1 -1</clus>
<clus scale="   91.595">  7  8 -1 -1</clus>
<clus scale="  112.375">  2  7  1 -1</clus>
<clus scale="   23.503">  1  5  2 -1</clus>
</clustering>
</event>
<event>
10    2  0.5921424E-006  0.1705191E+03  0.7546771E-02  0.1193071E+00
         -1   -1    0    0    0  501 -0.00000000000E+00  0.00000000000E+00  0.32857827938E+03  0.32857827938E+03  0.00000000000E+00 0.  1.
         21   -1    0    0  503  502  0.00000000000E+00 -0.00000000000E+00 -0.10512979071E+03  0.10512979071E+03  0.00000000000E+00 0. -1.
         23    2    1    2    0    0  0.50788662445E+02  0.23327642036E+02  0.19941647718E+03  0.23366792350E+03  0.10821321540E+03 0.  0.
         23    2    1    2    0    0  0.28813844934E+02  0.12099214452E+02  0.30078022232E+02  0.10161724053E+03  0.91895307289E+02 0.  0.
        -13    1    3    3    0    0  0.30437077792E+02 -0.36286760991E+02  0.39088108513E+02  0.61408671658E+02  0.00000000000E+00 0.  1.
         13    1    3    3    0    0  0.20351584654E+02  0.59614403028E+02  0.16032836867E+03  0.17225925184E+03  0.00000000000E+00 0. -1.
        -13    1    4    4    0    0 -0.99566442261E+01  0.41570308245E+02  0.31172133301E+02  0.52904888114E+02  0.00000000000E+00 0.  1.
         13    1    4    4    0    0  0.38770489160E+02 -0.29471093793E+02 -0.10941110695E+01  0.48712352418E+02  0.00000000000E+00 0. -1.
         21    1    1    2  503  501 -0.11531068979E+02 -0.22900240392E+02 -0.13203225330E+02  0.28839412631E+02  0.00000000000E+00 0.  1.
         -1    1    1    2    0  502 -0.68071438401E+02 -0.12526616097E+02  0.71572145873E+01  0.69583493427E+02  0.00000000000E+00 0.  1.
<scales pt_clust_5="13000.00000" pt_clust_6="13000.00000" pt_clust_7="13000.00000" pt_clust_8="13000.00000" pt_clust_9="25.63955" pt_clust_10="13000.00000"></scales>
<clustering>
<clus scale="   25.640">  2  9  1 -1</clus>
<clus scale="   91.895">  7  8 -1 -1</clus>
<clus scale="   75.344">  7 10 -1 -1</clus>
<clus scale="  108.213">  5  6 -1 -1</clus>
<clus scale="  120.021">  1  5  2 -1</clus>
<clus scale="   25.640">  2  5  1 -1</clus>
</clustering>
</event>
<event>
10    2  0.5921424E-006  0.2753279E+03  0.7546771E-02  0.1139492E+00
         21   -1    0    0  501  502  0.00000000000E+00  0.00000000000E+00  0.52574122538E+02  0.52574122538E+02  0.00000000000E+00 0. -1.
          2   -1    0    0  503    0 -0.00000000000E+00 -0.00000000000E+00 -0.87023357881E+03  0.87023357881E+03  0.00000000000E+00 0. -1.
         23    2    1    2    0    0 -0.10701950181E+02 -0.38024291739E+02 -0.29096968302E+03  0.30735587669E+03  0.90795925002E+02 0.  0.
         23    2    1    2    0    0  0.49939251918E+02 -0.88461651511E+02 -0.20941775359E+03  0.25032962442E+03  0.92139745362E+02 0.  0.
        -13    1    3    3    0    0 -0.16653101805E+02  0.26281902672E+02 -0.60812198011E+02  0.68309498861E+02  0.00000000000E+00 0.  1.
         13    1    3    3    0    0  0.59511516246E+01 -0.64306194411E+02 -0.23015748501E+03  0.23904637782E+03  0.00000000000E+00 0. -1.
        -13    1    4    4    0    0  0.37057684073E+02 -0.20807622679E+01 -0.11885476154E+03  0.12451528365E+03  0.00000000000E+00 0.  1.
         13    1    4    4    0    0  0.12881567845E+02 -0.86380889243E+02 -0.90562992051E+02  0.12581434078E+03  0.00000000000E+00 0. -1.
         21    1    1    2  503  502  0.22286313190E+02  0.93034182717E+01 -0.32746898666E+01  0.24371231829E+02  0.00000000000E+00 0. -1.
          2    1    1    2  501    0 -0.61523614927E+02  0.11718252498E+03 -0.31399732979E+03  0.34075096841E+03  0.00000000000E+00 0. -1.
<scales pt_clust_5="13000.00000" pt_clust_6="13000.00000" pt_clust_7="13000.00000" pt_clust_8="13000.00000" pt_clust_9="24.15022" pt_clust_10="13000.00000"></scales>
<clustering>
<clus scale="   24.150">  1  9  2 -1</clus>
<clus scale="   90.796">  5  6 -1 -1</clus>
<clus scale="   92.140">  7  8 -1 -1</clus>
<clus scale="   97.957">  2  5  1 -1</clus>
<clus scale="  115.090">  7 10 -1 -1</clus>
<clus scale="   24.150">  1  5  2 -1</clus>
</clustering>
</event>
<event>
10    2  0.5921424E-006  0.2805984E+03  0.7546771E-02  0.1116599E+00
         -3   -1    0    0    0  501 -0.00000000000E+00  0.00000000000E+00  0.86196926235E+03  0.86196926235E+03  0.00000000000E+00 0.  1.
         21   -1    0    0  501  502  0.00000000000E+00 -0.00000000000E+00 -0.83855557307E+02  0.83855557307E+02  0.00000000000E+00 0.  1.
         23    2    1    2    0    0  0.95702613609E+01 -0.15646787474E+03  0.39404740540E+03  0.43282729510E+03  0.86558211338E+02 0.  0.
         23    2    1    2    0    0  0.73856005424E+02  0.11811874878E+03  0.31815765171E+03  0.35917020840E+03  0.91499720845E+02 0.  0.
        -11    1    4    4    0    0  0.38193091703E+02  0.11407971777E+03  0.28861530399E+03  0.31268464618E+03  0.00000000000E+00 0.  1.
         11    1    4    4    0    0  0.35662913720E+02  0.40390310082E+01  0.29542347719E+02  0.46485562223E+02  0.00000000000E+00 0. -1.
        -13    1    3    3    0    0  0.33195114504E+02 -0.79199736902E+02  0.12313482128E+03  0.15012227737E+03  0.00000000000E+00 0. -1.
         13    1    3    3    0    0 -0.23624853143E+02 -0.77268137842E+02  0.27091258412E+03  0.28270501773E+03  0.00000000000E+00 0.  1.
         21    1    1    2  503  502 -0.94584531740E+01  0.60171509784E+02  0.20164416880E+02  0.64161332859E+02  0.00000000000E+00 0.  1.
         -3    1    1    2    0  503 -0.73967813610E+02 -0.21822383816E+02  0.45744231058E+02  0.89665983298E+02  0.00000000000E+00 0.  1.
<scales pt_clust_5="13000.00000" pt_clust_6="13000.00000" pt_clust_7="13000.00000" pt_clust_8="13000.00000" pt_clust_9="60.91037" pt_clust_10="13000.00000"></scales>
<clustering>
<clus scale="   60.910">  2  9  1 -1</clus>
<clus scale="   86.558">  7  8 -1 -1</clus>
<clus scale="   91.500">  5  6 -1 -1</clus>
<clus scale="   77.327">  5 10 -1 -1</clus>
<clus scale="  162.700">  1  7  2 -1</clus>
<clus scale="   60.910">  2  5  1 -1</clus>
</clustering>
</event>
<event>
10    2  0.5921424E-006  0.2123156E+03  0.7546771E-02  0.1175531E+00
          1   -1    0    0  503    0 -0.00000000000E+00  0.00000000000E+00  0.24041747136E+03  0.24041747136E+03  0.00000000000E+00 0. -1.
         21   -1    0    0  501  502  0.00000000000E+00 -0.00000000000E+00 -0.25119487688E+03  0.25119487688E+03  0.00000000000E+00 0.  1.
         23    2    1    2    0    0 -0.64277776069E+01 -0.92530129071E+01  0.11564036551E+03  0.14798340710E+03  0.91648568290E+02 0.  0.
         23    2    1    2    0    0  0.66898131226E+02  0.12102195735E+02 -0.10082643896E+01  0.11257834552E+03  0.89727611021E+02 0.  0.
        -11    1    4    4    0    0  0.21400999879E+02  0.16794941598E+02  0.41838825822E+02  0.49905512774E+02  0.00000000000E+00 0. -1.
         11    1    4    4    0    0  0.45497131347E+02 -0.46927458628E+01 -0.42847090212E+02  0.62672832744E+02  0.00000000000E+00 0.  1.
        -13    1    3    3    0    0  0.40172696730E+02 -0.19332146773E+02  0.52840367580E+02  0.69135243598E+02  0.00000000000E+00 0. -1.
         13    1    3    3    0    0 -0.46600474337E+02  0.10079133866E+02  0.62799997929E+02  0.78848163503E+02  0.00000000000E+00 0.  1.
         21    1    1    2  503  502  0.40485638872E+02  0.13975839608E+02 -0.12127818712E+03  0.12861885444E+03  0.00000000000E+00 0.  1.
          1    1    1    2  501    0 -0.10095599249E+03 -0.16825022436E+02 -0.41313195268E+01  0.10243174118E+03  0.00000000000E+00 0. -1.
<scales pt_clust_5="13000.00000" pt_clust_6="13000.00000" pt_clust_7="13000.00000" pt_clust_8="13000.00000" pt_clust_9="42.83003" pt_clust_10="13000.00000"></scales>
<clustering>
<clus scale="   42.830">  2  9  1 -1</clus>
<clus scale="   89.728">  5  6 -1 -1</clus>
<clus scale="   84.578">  5 10 -1 -1</clus>
<clus scale="   91.649">  7  8 -1 -1</clus>
<clus scale="   91.960">  1  7  2 -1</clus>
<clus scale="   42.830">  2  5  1 -1</clus>
</clustering>
</event>
<event>
10    2  0.5921424E-006  0.3126687E+03  0.7546771E-02  0.1106465E+00
         21   -1    0    0  501  502  0.00000000000E+00  0.00000000000E+00  0.18831376718E+03  0.18831376718E+03  0.00000000000E+00 0. -1.
          2   -1    0    0  503    0 -0.00000000000E+00 -0.00000000000E+00 -0.62061213332E+03  0.62061213332E+03  0.00000000000E+00 0. -1.
         23    2    1    2    0    0  0.79706533523E+02 -0.94695355357E+02 -0.41447384730E+03  0.44208327236E+03  0.91261754274E+02 0.  0.
         23    2    1    2    0    0 -0.16351531895E+03  0.72874438286E+02 -0.46933212199E+02  0.20828349106E+03  0.95558060657E+02 0.  0.
        -11    1    3    3    0    0  0.79659765545E+02 -0.32266472612E+02 -0.29522998497E+03  0.30748584932E+03  0.00000000000E+00 0. -1.
         11    1    3    3    0    0  0.46767978347E-01 -0.62428882745E+02 -0.11924386232E+03  0.13459742304E+03  0.00000000000E+00 0.  1.
        -13    1    4    4    0    0 -0.12325785623E+03  0.78609800182E+02 -0.94605852004E-02  0.14619165468E+03  0.00000000000E+00 0. -1.
         13    1    4    4    0    0 -0.40257462710E+02 -0.57353618959E+01 -0.46923751614E+02  0.62091836384E+02  0.00000000000E+00 0.  1.
         21    1    1    2  503  502 -0.18683266928E+02  0.11201361349E+02  0.48992744856E+02  0.53617385312E+02  0.00000000000E+00 0.  1.
          2    1    1    2  501    0  0.10249205235E+03  0.10619555722E+02 -0.19884051503E+02  0.10494175176E+03  0.00000000000E+00 0. -1.
<scales pt_clust_5="13000.00000" pt_clust_6="13000.00000" pt_clust_7="13000.00000" pt_clust_8="13000.00000" pt_clust_9="21.78382" pt_clust_10="13000.00000"></scales>
<clustering>
<clus scale="   21.784">  1  9  2 -1</clus>
<clus scale="   91.262">  5  6 -1 -1</clus>
<clus scale="   95.558">  7  8 -1 -1</clus>
<clus scale="   97.715">  7 10 -1 -1</clus>
<clus scale="  152.118">  2  5  1 -1</clus>
<clus scale="   21.784">  1  5  2 -1</clus>
</clustering>
</event>
<event>
10    2  0.5921424E-006  0.2692555E+03  0.7546771E-02  0.1144369E+00
         21   -1    0    0  501  502  0.00000000000E+00  0.00000000000E+00  0.47477622168E+03  0.47477622168E+03  0.00000000000E+00 0.  1.
         -2   -1    0    0    0  501 -0.00000000000E+00 -0.00000000000E+00 -0.22390403264E+03  0.22390403264E+03  0.00000000000E+00 0.  1.
         23    2    1    2    0    0 -0.10616648872E+02  0.20763066883E+02 -0.58977923875E+02  0.11047062232E+03  0.90451891693E+02 0.  0.
         23    2    1    2    0    0 -0.30723161974E+02 -0.93739139364E+02 -0.90736582501E+02  0.16244535754E+03  0.91784682018E+02 0.  0.
        -11    1    3    3    0    0  0.38098888636E+02  0.96974848928E+01 -0.10123040241E+02  0.40596089372E+02  0.00000000000E+00 0. -1.
         11    1    3    3    0    0 -0.48715537508E+02  0.11065581990E+02 -0.48854883634E+02  0.69874532946E+02  0.00000000000E+00 0.  1.
        -13    1    4    4    0    0 -0.46627947948E+02 -0.44103630079E+02 -0.89721155439E+02  0.11031401293E+03  0.00000000000E+00 0.  1.
         13    1    4    4    0    0  0.15904785974E+02 -0.49635509285E+02 -0.10154270623E+01  0.52131344611E+02  0.00000000000E+00 0. -1.
         21    1    1    2  503  502  0.37960569751E+02  0.64151122157E+01  0.31473018518E+03  0.31707609179E+03  0.00000000000E+00 0.  1.
         -2    1    1    2    0  503  0.33792410948E+01  0.66560960266E+02  0.85856510234E+02  0.10868818267E+03  0.00000000000E+00 0.  1.
<scales pt_clust_5="13000.00000" pt_clust_6="13000.00000" pt_clust_7="13000.00000" pt_clust_8="13000.00000" pt_clust_9="38.49881" pt_clust_10="13000.00000"></scales>
<clustering>
<clus scale="   38.499">  1  9  2 -1</clus>
<clus scale="   90.452">  5  6 -1 -1</clus>
<clus scale="   91.785">  7  8 -1 -1</clus>
<clus scale="   75.348">  7 10 -1 -1</clus>
<clus scale="   93.150">  2  5  1 -1</clus>
<clus scale="   38.499">  1  5  2 -1</clus>
</clustering>
</event>
<event>
10    2  0.5921424E-006  0.1457819E+03  0.7546771E-02  0.1222085E+00
          3   -1    0    0  502    0 -0.00000000000E+00  0.00000000000E+00  0.59552402360E+03  0.59552402360E+03  0.00000000000E+00 0. -1.
         21   -1    0    0  503  502  0.00000000000E+00 -0.00000000000E+00 -0.50695489053E+02  0.50695489053E+02  0.00000000000E+00 0. -1.
         23    2    1    2    0    0  0.54940092458E+01  0.59252612071E+02  0.30487378227E+03  0.32363816129E+03  0.90843712786E+02 0.  0.
         23    2    1    2    0    0  0.49851793486E+02  0.33562305852E+01  0.11349069250E+03  0.15417307710E+03  0.91611870531E+02 0.  0.
        -13    1    3    3    0    0 -0.39588657500E+02  0.46887451252E+02  0.15771704020E+03  0.16923462901E+03  0.00000000000E+00 0.  1.
         13    1    3    3    0    0  0.45082666746E+02  0.12365160819E+02  0.14715674207E+03  0.15440353228E+03  0.00000000000E+00 0. -1.
        -13    1    4    4    0    0  0.25870355198E+02 -0.44034786785E+02  0.59985028095E+02  0.78781605219E+02  0.00000000000E+00 0.  1.
         13    1    4    4    0    0  0.23981438288E+02  0.47391017370E+02  0.53505664402E+02  0.75391471884E+02  0.00000000000E+00 0. -1.
         21    1    1    2  503  501 -0.45182568954E+02 -0.37475244842E+02  0.25735342771E+02  0.64094979373E+02  0.00000000000E+00 0. -1.
          3    1    1    2  501    0 -0.10163233778E+02 -0.25133597814E+02  0.10072871701E+03  0.10431329489E+03  0.00000000000E+00 0. -1.
<scales pt_clust_5="13000.00000" pt_clust_6="13000.00000" pt_clust_7="13000.00000" pt_clust_8="13000.00000" pt_clust_9="58.70144" pt_clust_10="13000.00000"></scales>
<clustering>
<clus scale="   58.701">  2  9  1 -1</clus>
<clus scale="   90.844">  5  6 -1 -1</clus>
<clus scale="   91.612">  7  8 -1 -1</clus>
<clus scale="   30.091">  7 10 -1 -1</clus>
<clus scale="  103.098">  1  5  2 -1</clus>
<clus scale="   58.701">  2  5  1 -1</clus>
</clustering>
</event>
<event>
10    2  0.5921424E-006  0.2989007E+03  0.7546771E-02  0.1130477E+00
         21   -1    0    0  503  502  0.00000000000E+00  0.00000000000E+00  0.28785843900E+03  0.28785843900E+03  0.00000000000E+00 0. -1.
         -2   -1    0    0    0  501 -0.00000000000E+00 -0.00000000000E+00 -0.52071804059E+03  0.52071804059E+03  0.00000000000E+00 0.  1.
         23    2    1    2    0    0 -0.23332318457E+02  0.86290260414E+01 -0.19760868158E+03  0.21940747841E+03  0.92041259087E+02 0.  0.
         23    2    1    2    0    0 -0.67092952113E+02 -0.14303443588E+03 -0.10099403169E+03  0.20715138576E+03  0.88043103727E+02 0.  0.
        -11    1    4    4    0    0  0.10686325433E+02 -0.56749145966E+02 -0.61726687753E+02  0.84527197399E+02  0.00000000000E+00 0.  1.
         11    1    4    4    0    0 -0.77779277546E+02 -0.86285289918E+02 -0.39267343940E+02  0.12262418836E+03  0.00000000000E+00 0. -1.
        -11    1    3    3    0    0 -0.41750366822E+02  0.39250415670E+02 -0.97252791774E+02  0.11287955425E+03  0.00000000000E+00 0. -1.
         11    1    3    3    0    0  0.18418048365E+02 -0.30621389628E+02 -0.10035588980E+03  0.10652792416E+03  0.00000000000E+00 0.  1.
         21    1    1    2  503  501 -0.20482174464E+02  0.19197248074E+03  0.13833288568E+03  0.23750566329E+03  0.00000000000E+00 0. -1.
         -2    1    1    2    0  502  0.11090744503E+03 -0.57567070902E+02 -0.72589774006E+02  0.14451195212E+03  0.00000000000E+00 0.  1.
<scales pt_clust_5="13000.00000" pt_clust_6="13000.00000" pt_clust_7="13000.00000" pt_clust_8="13000.00000" pt_clust_9="194.85010" pt_clust_10="13000.00000"></scales>
<clustering>
<clus scale="   88.043">  5  6 -1 -1</clus>
<clus scale="   92.041">  7  8 -1 -1</clus>
<clus scale="   95.344">  2  7  1 -1</clus>
<clus scale="  116.380">  5 10 -1 -1</clus>
<clus scale="  194.850">  1  9  2 -1</clus>
<clus scale="  194.850">  1  5  2 -1</clus>
</clustering>
</event>
<event>
10    2  0.5921424E-006  0.1930931E+03  0.7546771E-02  0.1179397E+00
         -2   -1    0    0    0  501 -0.00000000000E+00  0.00000000000E+00  0.45363816733E+03  0.45363816733E+03  0.00000000000E+00 0.  1.
         21   -1    0    0  501  502  0.00000000000E+00 -0.00000000000E+00 -0.18669113734E+03  0.18669113734E+03  0.00000000000E+00 0. -1.
         23    2    1    2    0    0  0.59067236786E+02 -0.24250108511E+02  0.27890710819E+02  0.11391394998E+03  0.90119309947E+02 0.  0.
         23    2    1    2    0    0 -0.73815807630E+02  0.69345142353E+01  0.33257395366E+03  0.35248586382E+03  0.90244050210E+02 0.  0.
        -11    1    4    4    0    0 -0.16863691616E+02 -0.38858077632E+02  0.14889044568E+03  0.15479889892E+03  0.00000000000E+00 0. -1.
         11    1    4    4    0    0 -0.56952116015E+02  0.45792591868E+02  0.18368350797E+03  0.19768696490E+03  0.00000000000E+00 0.  1.
        -13    1    3    3    0    0  0.42269525438E+02 -0.58550419611E+02  0.16777786242E+02  0.74137430011E+02  0.00000000000E+00 0. -1.
         13    1    3    3    0    0  0.16797711348E+02  0.34300311100E+02  0.11112924577E+02  0.39776519968E+02  0.00000000000E+00 0.  1.
         21    1    1    2  503  502  0.94476120260E+01  0.62229118432E+02 -0.10921780443E+03  0.12605653239E+03  0.00000000000E+00 0. -1.
         -2    1    1    2    0  503  0.53009588181E+01 -0.44913524156E+02  0.15700169947E+02  0.47872958472E+02  0.00000000000E+00 0.  1.
<scales pt_clust_5="13000.00000" pt_clust_6="13000.00000" pt_clust_7="13000.00000" pt_clust_8="13000.00000" pt_clust_9="62.94220" pt_clust_10="13000.00000"></scales>
<clustering>
<clus scale="   62.942">  2  9  1 -1</clus>
<clus scale="   90.119">  7  8 -1 -1</clus>
<clus scale="   90.244">  5  6 -1 -1</clus>
<clus scale="   31.328">  5 10 -1 -1</clus>
<clus scale="  112.030">  1  7  2 -1</clus>
<clus scale="   62.942">  2  5  1 -1</clus>
</clustering>
</event>
<event>
10    2  0.5921424E-006  0.3723138E+03  0.7546771E-02  0.1097827E+00
          4   -1    0    0  503    0 -0.00000000000E+00  0.00000000000E+00  0.18773071147E+03  0.18773071147E+03  0.00000000000E+00 0. -1.
         21   -1    0    0  501  502  0.00000000000E+00 -0.00000000000E+00 -0.47108834529E+03  0.47108834529E+03  0.00000000000E+00 0. -1.
         23    2    1    2    0    0 -0.15326170533E+02  0.53628396197E+02 -0.10807623492E+03  0.15319445928E+03  0.93151346838E+02 0.  0.
         23    2    1    2    0    0 -0.40051137258E+02  0.56640183695E+02  0.10469987321E+03  0.16143126972E+03  0.10141887097E+03 0.  0.
        -11    1    3    3    0    0  0.28807071004E+01 -0.25744815735E+02 -0.16823683507E+02  0.30889000265E+02  0.00000000000E+00 0.  1.
         11    1    3    3    0    0 -0.18206877634E+02  0.79373211932E+02 -0.91252551415E+02  0.12230545902E+03  0.00000000000E+00 0. -1.
        -13    1    4    4    0    0  0.98247395986E+01 -0.20525852089E+02  0.48893982418E+02  0.53930118013E+02  0.00000000000E+00 0.  1.
         13    1    4    4    0    0 -0.49875876857E+02  0.77166035784E+02  0.55805890787E+02  0.10750115170E+03  0.00000000000E+00 0. -1.
         21    1    1    2  503  502 -0.35947054373E+02  0.72920019121E+01 -0.12081837783E+03  0.12626339307E+03  0.00000000000E+00 0. -1.
          4    1    1    2  501    0  0.91324362165E+02 -0.11756058180E+03 -0.15916289427E+03  0.21792993469E+03  0.00000000000E+00 0. -1.
<scales pt_clust_5="13000.00000" pt_clust_6="13000.00000" pt_clust_7="13000.00000" pt_clust_8="13000.00000" pt_clust_9="36.67920" pt_clust_10="13000.00000"></scales>
<clustering>
<clus scale="   36.679">  2  9  1 -1</clus>
<clus scale="   93.151">  5  6 -1 -1</clus>
<clus scale="  101.419">  7  8 -1 -1</clus>
<clus scale="  112.634">  1  5  2 -1</clus>
<clus scale="  124.409">  7 10 -1 -1</clus>
<clus scale="   36.679">  2  5  1 -1</clus>
</clustering>
</event>
<event>
10    2  0.5921424E-006  0.1613836E+03  0.7546771E-02  0.1199039E+00
         -1   -1    0    0    0  501 -0.00000000000E+00  0.00000000000E+00  0.13154162399E+03  0.13154162399E+03  0.00000000000E+00 0.  1.
         21   -1    0    0  501  502  0.00000000000E+00 -0.00000000000E+00 -0.21189939062E+03  0.21189939062E+03  0.00000000000E+00 0. -1.
         23    2    1    2    0    0  0.90241895652E+02 -0.35945959679E+02 -0.74567739221E+02  0.15173421814E+03  0.89594717893E+02 0.  0.
         23    2    1    2    0    0 -0.35203449520E+02 -0.12126577767E+02 -0.17817243295E+01  0.10460836887E+03  0.97741493487E+02 0.  0.
        -11    1    3    3    0    0  0.36175662013E+02 -0.59663359498E+02 -0.57114019349E+02  0.90168765074E+02  0.00000000000E+00 0. -1.
         11    1    3    3    0    0  0.54066233638E+02  0.23717399820E+02 -0.17453719872E+02  0.61565453068E+02  0.00000000000E+00 0.  1.
        -13    1    4    4    0    0 -0.32797339727E+01 -0.48327185433E+02 -0.20819965465E+02  0.52723282038E+02  0.00000000000E+00 0. -1.
         13    1    4    4    0    0 -0.31923715547E+02  0.36200607667E+02  0.19038241136E+02  0.51885086830E+02  0.00000000000E+00 0.  1.
         21    1    1    2  503  502 -0.12013421036E+02  0.20489762540E+02 -0.22530705463E+02  0.32738132851E+02  0.00000000000E+00 0. -1.
         -1    1    1    2    0  503 -0.43025025095E+02  0.27582774905E+02  0.18522402376E+02  0.54360294754E+02  0.00000000000E+00 0.  1.
<scales pt_clust_5="13000.00000" pt_clust_6="13000.00000" pt_clust_7="13000.00000" pt_clust_8="13000.00000" pt_clust_9="23.75190" pt_clust_10="13000.00000"></scales>
<clustering>
<clus scale="   23.752">  2  9  1 -1</clus>
<clus scale="   89.595">  5  6 -1 -1</clus>
<clus scale="   97.741">  7  8 -1 -1</clus>
<clus scale="   53.177">  7 10 -1 -1</clus>
<clus scale="  124.257">  1  5  2 -1</clus>
<clus scale="   23.752">  2  5  1 -1</clus>
</clustering>
</event>
<event>
10    2  0.5921424E-006  0.3070470E+03  0.7546771E-02  0.1117490E+00
         21   -1    0    0  501  502  0.00000000000E+00  0.00000000000E+00  0.30818489474E+03  0.30818489474E+03  0.00000000000E+00 0.  1.
          1   -1    0    0  503    0 -0.00000000000E+00 -0.00000000000E+00 -0.40369841675E+03  0.40369841675E+03  0.00000000000E+00 0. -1.
         23    2    1    2    0    0  0.34773409061E+02  0.85284912016E+02 -0.93593025105E+02  0.16009495458E+03  0.91586210419E+02 0.  0.
         23    2    1    2    0    0 -0.29834912105E+02 -0.69667944551E+02 -0.25855804651E+03  0.28430259478E+03  0.90730135613E+02 0.  0.
        -11    1    3    3    0    0 -0.27400468921E+02  0.48375733834E+02 -0.27038447161E+02  0.61822932201E+02  0.00000000000E+00 0. -1.
         11    1    3    3    0    0  0.62173877982E+02  0.36909178182E+02 -0.66554577944E+02  0.98272022381E+02  0.00000000000E+00 0.  1.
        -13    1    4    4    0    0  0.22130089847E+02 -0.61800667374E+02 -0.14606994666E+03  0.16014210153E+03  0.00000000000E+00 0.  1.
         13    1    4    4    0    0 -0.51965001952E+02 -0.78672771769E+01 -0.11248809985E+03  0.12416049326E+03  0.00000000000E+00 0. -1.
         21    1    1    2  503  502 -0.23906910035E+02 -0.36861549902E+02  0.19006474700E+03  0.19507670866E+03  0.00000000000E+00 0.  1.
          1    1    1    2  501    0  0.18968413079E+02  0.21244582438E+02  0.66572802601E+02  0.72409053466E+02  0.00000000000E+00 0. -1.
<scales pt_clust_5="13000.00000" pt_clust_6="13000.00000" pt_clust_7="13000.00000" pt_clust_8="13000.00000" pt_clust_9="43.93534" pt_clust_10="13000.00000"></scales>
<clustering>
<clus scale="   43.935">  1  9  2 -1</clus>
<clus scale="   90.730">  7  8 -1 -1</clus>
<clus scale="    4.688">  7 10 -1 -1</clus>
<clus scale="   91.586">  5  6 -1 -1</clus>
<clus scale="  121.425">  2  5  1 -1</clus>
<clus scale="   43.935">  1  5  2 -1</clus>
</clustering>
</event>
<event>
10    2  0.5921424E-006  0.2101228E+03  0.7546771E-02  0.1171299E+00
         21   -1    0    0  501  502  0.00000000000E+00  0.00000000000E+00  0.76745877067E+02  0.76745877067E+02  0.00000000000E+00 0. -1.
          1   -1    0    0  503    0 -0.00000000000E+00 -0.00000000000E+00 -0.74493553858E+03  0.74493553858E+03  0.00000000000E+00 0. -1.
         23    2    1    2    0    0 -0.33134778775E+02  0.39634423177E+02 -0.39299333529E+03  0.40673454952E+03  0.91216397222E+02 0.  0.
         23    2    1    2    0    0  0.95675578944E+02  0.12824915755E+02 -0.29892629142E+03  0.32741734547E+03  0.92341190944E+02 0.  0.
        -11    1    4    4    0    0  0.35247544132E+02  0.16057553839E+02 -0.23245304389E+02  0.45172763683E+02  0.00000000000E+00 0.  1.
         11    1    4    4    0    0  0.60428034812E+02 -0.32326380839E+01 -0.27568098703E+03  0.28224458179E+03  0.00000000000E+00 0. -1.
        -13    1    3    3    0    0 -0.17812740785E+02 -0.29207985027E+02 -0.13645515005E+03  0.14067838533E+03  0.00000000000E+00 0.  1.
         13    1    3    3    0    0 -0.15322037990E+02  0.68842408204E+02 -0.25653818524E+03  0.26605616419E+03  0.00000000000E+00 0. -1.
         21    1    1    2  503  502 -0.29942736460E+02 -0.35560326760E+02  0.20051533869E+02  0.50627742558E+02  0.00000000000E+00 0. -1.
          1    1    1    2  501    0 -0.32598063708E+02 -0.16899012172E+02  0.36784313279E+01  0.36901778100E+02  0.00000000000E+00 0. -1.
<scales pt_clust_5="13000.00000" pt_clust_6="13000.00000" pt_clust_7="13000.00000" pt_clust_8="13000.00000" pt_clust_9="46.48768" pt_clust_10="13000.00000"></scales>
<clustering>
<clus scale="   46.488">  1  9  2 -1</clus>
<clus scale="   91.216">  7  8 -1 -1</clus>
<clus scale="   92.341">  5  6 -1 -1</clus>
<clus scale="   58.418">  5 10 -1 -1</clus>
<clus scale="  104.452">  2  7  1 -1</clus>
<clus scale="   46.488">  1  5  2 -1</clus>
</clustering>
</event>
<event>
10    2  0.5921424E-006  0.1488773E+03  0.7546771E-02  0.1217531E+00
         -3   -1    0    0    0  501 -0.00000000000E+00  0.00000000000E+00  0.46256443963E+02  0.46256443963E+02  0.00000000000E+00 0.  1.
         21   -1    0    0  503  502  0.00000000000E+00 -0.00000000000E+00 -0.46462252454E+03  0.46462252454E+03  0.00000000000E+00 0. -1.
         23    2    1    2    0    0 -0.58671316239E+02  0.87325843316E+00 -0.10768022358E+03  0.15260111264E+03  0.90823912597E+02 0.  0.
         23    2    1    2    0    0  0.21056861262E+02  0.12683433675E+02 -0.12550888815E+03  0.15558196783E+03  0.88594620674E+02 0.  0.
        -13    1    4    4    0    0  0.34089763998E+02 -0.19855804911E+02 -0.19655879270E+02  0.44076281468E+02  0.00000000000E+00 0.  1.
         13    1    4    4    0    0 -0.13032902737E+02  0.32539238587E+02 -0.10585300888E+03  0.11150568636E+03  0.00000000000E+00 0. -1.
        -13    1    3    3    0    0  0.10702728916E+02  0.30712640665E+02 -0.35250882507E+02  0.47962896289E+02  0.00000000000E+00 0.  1.
         13    1    3    3    0    0 -0.69374045155E+02 -0.29839382232E+02 -0.72429341074E+02  0.10463821635E+03  0.00000000000E+00 0. -1.
         21    1    1    2  503  501  0.12172469150E+02  0.25986565714E+02 -0.34618389644E+02  0.44965581330E+02  0.00000000000E+00 0.  1.
         -3    1    1    2    0  502  0.25441985827E+02 -0.39543257822E+02 -0.15055857920E+03  0.15773030670E+03  0.00000000000E+00 0.  1.
<scales pt_clust_5="13000.00000" pt_clust_6="13000.00000" pt_clust_7="13000.00000" pt_clust_8="13000.00000" pt_clust_9="28.69619" pt_clust_10="13000.00000"></scales>
<clustering>
<clus scale="   28.696">  2  9  1 -1</clus>
<clus scale="   88.595">  5  6 -1 -1</clus>
<clus scale="   42.408">  5 10 -1 -1</clus>
<clus scale="   90.824">  7  8 -1 -1</clus>
<clus scale="  106.516">  1  7  2 -1</clus>
<clus scale="   28.696">  2  5  1 -1</clus>
</clustering>
</event>
<event>
10    2  0.5921424E-006  0.3453429E+03  0.7546771E-02  0.1112099E+00
          2   -1    0    0  503    0 -0.00000000000E+00  0.00000000000E+00  0.15488396603E+03  0.15488396603E+03  0.00000000000E+00 0. -1.
         21   -1    0    0  501  502  0.00000000000E+00 -0.00000000000E+00 -0.41028157457E+03  0.41028157457E+03  0.00000000000E+00 0. -1.
         23    2    1    2    0    0  0.67559164059E+01 -0.21077753096E+02 -0.36608617212E+01  0.96687831742E+02  0.94049034106E+02 0.  0.
         23    2    1    2    0    0  0.51688812948E+02  0.73776541209E+02 -0.25601588111E+03  0.28646595637E+03  0.91672795085E+02 0.  0.
        -11    1    4    4    0    0 -0.19540041364E+02  0.48527075853E+02 -0.11899508013E+03  0.12998661240E+03  0.00000000000E+00 0.  1.
         11    1    4    4    0    0  0.71228854312E+02  0.25249465356E+02 -0.13702080098E+03  0.15647934397E+03  0.00000000000E+00 0. -1.
        -13    1    3    3    0    0  0.28454660251E+02 -0.51610170426E+02  0.98909865359E+00  0.58942817184E+02  0.00000000000E+00 0.  1.
         13    1    3    3    0    0 -0.21698743845E+02  0.30532417330E+02 -0.46499603748E+01  0.37745014558E+02  0.00000000000E+00 0. -1.
         21    1    1    2  503  502  0.30017923132E+02 -0.22702019114E+02 -0.58431815395E+02  0.69503485031E+02  0.00000000000E+00 0. -1.
          2    1    1    2  501    0 -0.88462652486E+02 -0.29996768999E+02  0.62710949696E+02  0.11250826746E+03  0.00000000000E+00 0. -1.
<scales pt_clust_5="13000.00000" pt_clust_6="13000.00000" pt_clust_7="13000.00000" pt_clust_8="13000.00000" pt_clust_9="37.63585" pt_clust_10="13000.00000"></scales>
<clustering>
<clus scale="   37.636">  2  9  1 -1</clus>
<clus scale="   91.673">  5  6 -1 -1</clus>
<clus scale="   91.918">  5 10 -1 -1</clus>
<clus scale="   94.049">  7  8 -1 -1</clus>
<clus scale="   97.787">  1  7  2 -1</clus>
<clus scale="   37.636">  2  5  1 -1</clus>
</clustering>
</event>
<event>
10    2  0.5921424E-006  0.1394607E+03  0.7546771E-02  0.1231065E+00
          1   -1    0    0  502    0 -0.00000000000E+00  0.00000000000E+00  0.45984110829E+03  0.45984110829E+03  0.00000000000E+00 0. -1.
         21   -1    0    0  503  502  0.00000000000E+00 -0.00000000000E+00 -0.13643100295E+03  0.13643100295E+03  0.00000000000E+00 0. -1.
         23    2    1    2    0    0 -0.38887928131E+02 -0.78353737635E+01  0.18068533857E+03  0.20581648787E+03  0.90219571415E+02 0.  0.
         23    2    1    2    0    0  0.10086961027E+02 -0.77623827238E+01  0.17503202601E+03  0.19857933220E+03  0.92927604507E+02 0.  0.
        -11    1    4    4    0    0  0.25100718601E+02 -0.38477046853E+02  0.14808784850E+03  0.15505012119E+03  0.00000000000E+00 0. -1.
         11    1    4    4    0    0 -0.15013757574E+02  0.30714664129E+02  0.26944177506E+02  0.43529211003E+02  0.00000000000E+00 0.  1.
        -13    1    3    3    0    0  0.31263076706E+01  0.35846213139E+02  0.48416853648E+02  0.60323432539E+02  0.00000000000E+00 0.  1.
         13    1    3    3    0    0 -0.42014235802E+02 -0.43681586903E+02  0.13226848493E+03  0.14549305533E+03  0.00000000000E+00 0. -1.
         21    1    1    2  503  501  0.17311589008E+02 -0.29726811413E+02 -0.10217243508E+03  0.10780807447E+03  0.00000000000E+00 0. -1.
          1    1    1    2  501    0  0.11489378097E+02  0.45324567901E+02  0.69865175847E+02  0.84068216709E+02  0.00000000000E+00 0. -1.
<scales pt_clust_5="13000.00000" pt_clust_6="13000.00000" pt_clust_7="13000.00000" pt_clust_8="13000.00000" pt_clust_9="34.40021" pt_clust_10="13000.00000"></scales>
<clustering>
<clus scale="   34.400">  2  9  1 -1</clus>
<clus scale="   90.220">  7  8 -1 -1</clus>
<clus scale="   92.928">  5  6 -1 -1</clus>
<clus scale="   41.568">  5 10 -1 -1</clus>
<clus scale="   97.726">  1  7  2 -1</clus>
<clus scale="   34.400">  2  5  1 -1</clus>
</clustering>
</event>
<event>
10    2  0.5921424E-006  0.2046493E+03  0.7546771E-02  0.1170418E+00
         -1   -1    0    0    0  501 -0.00000000000E+00  0.00000000000E+00  0.33960371770E+03  0.33960371770E+03  0.00000000000E+00 0.  1.
         21   -1    0    0  501  502  0.00000000000E+00 -0.00000000000E+00 -0.20494036606E+03  0.20494036606E+03  0.00000000000E+00 0.  1.
         23    2    1    2    0    0 -0.63610426908E+02  0.56268896800E+01  0.31477348363E+02  0.11650243538E+03  0.92217382798E+02 0.  0.
         23    2    1    2    0    0  0.58746589067E+02  0.38125657068E+02  0.24615822052E+03  0.27178493840E+03  0.91479264089E+02 0.  0.
        -11    1    3    3    0    0  0.23869237501E+02 -0.25168101020E+01  0.10361817620E+02  0.26142725496E+02  0.00000000000E+00 0. -1.
         11    1    3    3    0    0 -0.87479664409E+02  0.81436997820E+01  0.21115530743E+02  0.90359709881E+02  0.00000000000E+00 0.  1.
        -13    1    4    4    0    0  0.50078898495E+02  0.67478684556E+02  0.16788888742E+03  0.18774436733E+03  0.00000000000E+00 0.  1.
         13    1    4    4    0    0  0.86676905720E+01 -0.29353027488E+02  0.78269333098E+02  0.84040571073E+02  0.00000000000E+00 0. -1.
         21    1    1    2  503  502 -0.10364514948E+02 -0.25441480944E+02 -0.12022218541E+03  0.12332098762E+03  0.00000000000E+00 0.  1.
         -1    1    1    2    0  503  0.15228352789E+02 -0.18311065803E+02 -0.22750031826E+02  0.32935722363E+02  0.00000000000E+00 0.  1.
<scales pt_clust_5="13000.00000" pt_clust_6="13000.00000" pt_clust_7="13000.00000" pt_clust_8="13000.00000" pt_clust_9="27.47166" pt_clust_10="13000.00000"></scales>
<clustering>
<clus scale="   27.472">  2  9  1 -1</clus>
<clus scale="   91.479">  7  8 -1 -1</clus>
<clus scale="   29.292">  7 10 -1 -1</clus>
<clus scale="   92.217">  5  6 -1 -1</clus>
<clus scale="  115.355">  1  5  2 -1</clus>
<clus scale="   27.472">  2  5  1 -1</clus>
</clustering>
</event>
<event>
10    2  0.5921424E-006  0.2638644E+03  0.7546771E-02  0.1146861E+00
         21   -1    0    0  503  502  0.00000000000E+00  0.00000000000E+00  0.23139364192E+03  0.23139364192E+03  0.00000000000E+00 0. -1.
          1   -1    0    0  502    0 -0.00000000000E+00 -0.00000000000E+00 -0.36124006796E+03  0.36124006796E+03  0.00000000000E+00 0. -1.
         23    2    1    2    0    0  0.12505608314E+01  0.22812743955E+02 -0.55321122141E+02  0.10843171998E+03  0.90415851228E+02 0.  0.
         23    2    1    2    0    0 -0.38387618701E+02  0.16058713925E+02 -0.55019797202E+02  0.11596208464E+03  0.93212313714E+02 0.  0.
        -11    1    3    3    0    0 -0.83268903821E+01  0.56512789981E+02 -0.42201939914E+02  0.71021378946E+02  0.00000000000E+00 0. -1.
         11    1    3    3    0    0  0.95774512135E+01 -0.33700046026E+02 -0.13119182227E+02  0.37410341033E+02  0.00000000000E+00 0.  1.
        -11    1    4    4    0    0  0.29830174172E+02  0.13875727350E+02 -0.10757554246E+02  0.34613582219E+02  0.00000000000E+00 0. -1.
         11    1    4    4    0    0 -0.68217792874E+02  0.21829865750E+01 -0.44262242956E+02  0.81348502423E+02  0.00000000000E+00 0.  1.
         21    1    1    2  503  501 -0.29270554287E+02 -0.17375802725E+03  0.74079851988E+02  0.19114508064E+03  0.00000000000E+00 0. -1.
          1    1    1    2  501    0  0.66407612157E+02  0.13488656937E+03 -0.93585358684E+02  0.17709482462E+03  0.00000000000E+00 0. -1.
<scales pt_clust_5="13000.00000" pt_clust_6="13000.00000" pt_clust_7="13000.00000" pt_clust_8="13000.00000" pt_clust_9="171.45014" pt_clust_10="13000.00000"></scales>
<clustering>
<clus scale="   90.416">  5  6 -1 -1</clus>
<clus scale="   93.212">  7  8 -1 -1</clus>
<clus scale="   93.258">  2  5  1 -1</clus>
<clus scale="  160.589">  7 10 -1 -1</clus>
<clus scale="  171.450">  1  9  2 -1</clus>
<clus scale="  171.450">  1  5  2 -1</clus>
</clustering>
</event>
<event>
10    2  0.5921424E-006  0.2568401E+03  0.7546771E-02  0.1142280E+00
         21   -1    0    0  501  502  0.00000000000E+00  0.00000000000E+00  0.15841258546E+03  0.15841258546E+03  0.00000000000E+00 0. -1.
          2   -1    0    0  503    0 -0.00000000000E+00 -0.00000000000E+00 -0.31074188746E+03  0.31074188746E+03  0.00000000000E+00 0. -1.
         23    2    1    2    0    0 -0.68811667470E+02 -0.28055909441E+02 -0.56173569800E+02  0.12656173751E+03  0.85675106207E+02 0.  0.
         23    2    1    2    0    0 -0.45656366115E+02  0.34568578423E+02 -0.12798888234E+03  0.16832680310E+03  0.93130383112E+02 0.  0.
        -11    1    4    4    0    0 -0.62307818154E+02  0.52888077277E+02 -0.11275403895E+03  0.13925834345E+03  0.00000000000E+00 0. -1.
         11    1    4    4    0    0  0.16651452039E+02 -0.18319498854E+02 -0.15234843386E+02  0.29068459647E+02  0.00000000000E+00 0.  1.
        -13    1    3    3    0    0 -0.43782370934E+02 -0.59024055676E+02 -0.33823089266E+02  0.80899545861E+02  0.00000000000E+00 0. -1.
         13    1    3    3    0    0 -0.25029296535E+02  0.30968146235E+02 -0.22350480534E+02  0.45662191651E+02  0.00000000000E+00 0.  1.
         21    1    1    2  503  502 -0.53971139408E+01  0.24069454360E+02  0.43505025609E+02  0.50011545920E+02  0.00000000000E+00 0. -1.
          2    1    1    2  501    0  0.11986514753E+03 -0.30582123342E+02 -0.11671875470E+02  0.12425438639E+03  0.00000000000E+00 0. -1.
<scales pt_clust_5="13000.00000" pt_clust_6="13000.00000" pt_clust_7="13000.00000" pt_clust_8="13000.00000" pt_clust_9="24.66713" pt_clust_10="13000.00000"></scales>
<clustering>
<clus scale="   24.667">  1  9  2 -1</clus>
<clus scale="   85.675">  7  8 -1 -1</clus>
<clus scale="   93.130">  5  6 -1 -1</clus>
<clus scale="  112.833">  2  7  1 -1</clus>
<clus scale="   99.514">  5 10 -1 -1</clus>
<clus scale="   24.667">  1  5  2 -1</clus>
</clustering>
</event>
<event>
10    2  0.5921424E-006  0.2934987E+03  0.7546771E-02  0.1131530E+00
          1   -1    0    0  503    0 -0.00000000000E+00  0.00000000000E+00  0.16462052684E+03  0.16462052684E+03  0.00000000000E+00 0. -1.
         21   -1    0    0  501  502  0.00000000000E+00 -0.00000000000E+00 -0.13737721107E+04  0.13737721107E+04  0.00000000000E+00 0. -1.
         23    2    1    2    0    0 -0.33516812814E+02  0.22880861349E+02  0.84621938257E+02  0.12958617183E+03  0.89357668597E+02 0.  0.
         23    2    1    2    0    0  0.63114162051E+02  0.22327526580E+02 -0.26943675351E+03  0.29227318532E+03  0.91353898779E+02 0.  0.
        -11    1    4    4    0    0  0.21345117303E+02  0.43305182042E+02 -0.21577008608E+03  0.22110559213E+03  0.00000000000E+00 0. -1.
         11    1    4    4    0    0  0.41769044748E+02 -0.20977655462E+02 -0.53666667434E+02  0.71167593196E+02  0.00000000000E+00 0.  1.
        -11    1    3    3    0    0  0.46460224895E+00  0.46464820010E+02  0.73150622246E+02  0.86661461382E+02  0.00000000000E+00 0. -1.
         11    1    3    3    0    0 -0.33981415063E+02 -0.23583958660E+02  0.11471316011E+02  0.42924710445E+02  0.00000000000E+00 0.  1.
         21    1    1    2  503  502 -0.80465552240E+02  0.12361809136E+03 -0.86935667652E+03  0.88178068057E+03  0.00000000000E+00 0. -1.
          1    1    1    2  501    0  0.50868203002E+02 -0.16882647929E+03 -0.15498009210E+03  0.23475259984E+03  0.00000000000E+00 0. -1.
<scales pt_clust_5="13000.00000" pt_clust_6="13000.00000" pt_clust_7="13000.00000" pt_clust_8="13000.00000" pt_clust_9="151.55489" pt_clust_10="13000.00000"></scales>
<clustering>
<clus scale="   89.358">  7  8 -1 -1</clus>
<clus scale="   91.354">  5  6 -1 -1</clus>
<clus scale="   98.141">  1  7  2 -1</clus>
<clus scale="  151.555">  2  9  1 -1</clus>
<clus scale="  106.590">  5 10 -1 -1</clus>
<clus scale="  151.555">  2  5  1 -1</clus>
</clustering>
</event>
<event>
10    2  0.5921424E-006  0.1754303E+03  0.7546771E-02  0.1183322E+00
          1   -1    0    0  502    0 -0.00000000000E+00  0.00000000000E+00  0.43144634666E+03  0.43144634666E+03  0.00000000000E+00 0. -1.
         21   -1    0    0  503  502  0.00000000000E+00 -0.00000000000E+00 -0.13770668851E+03  0.13770668851E+03  0.00000000000E+00 0.  1.
         23    2    1    2    0    0 -0.59309356348E+02  0.91791501514E+02  0.88051930733E+02  0.16733523918E+03  0.91129908732E+02 0.  0.
         23    2    1    2    0    0  0.23203400486E+02 -0.68968842740E+02  0.25243725642E+03  0.27810004577E+03  0.91213858398E+02 0.  0.
        -11    1    4    4    0    0  0.56242325083E+02 -0.32910288874E+02  0.11442772957E+03  0.13168140164E+03  0.00000000000E+00 0.  1.
         11    1    4    4    0    0 -0.33038924596E+02 -0.36058553865E+02  0.13800952685E+03  0.14641864413E+03  0.00000000000E+00 0. -1.
        -13    1    3    3    0    0  0.42201574422E+00  0.63418720075E+02  0.77870138136E+02  0.10042843505E+03  0.00000000000E+00 0.  1.
         13    1    3    3    0    0 -0.59731372092E+02  0.28372781439E+02  0.10181792596E+02  0.66906804132E+02  0.00000000000E+00 0. -1.
         21    1    1    2  503  501  0.54686982723E+02  0.11231963456E+02 -0.60720120072E+02  0.82484883852E+02  0.00000000000E+00 0.  1.
          1    1    1    2  501    0 -0.18581026861E+02 -0.34054622231E+02  0.13970591068E+02  0.41232866372E+02  0.00000000000E+00 0. -1.
<scales pt_clust_5="13000.00000" pt_clust_6="13000.00000" pt_clust_7="13000.00000" pt_clust_8="13000.00000" pt_clust_9="55.82851" pt_clust_10="13000.00000"></scales>
<clustering>
<clus scale="   55.829">  2  9  1 -1</clus>
<clus scale="   91.130">  7  8 -1 -1</clus>
<clus scale="   91.214">  5  6 -1 -1</clus>
<clus scale="   32.568">  5 10 -1 -1</clus>
<clus scale="  136.804">  1  7  2 -1</clus>
<clus scale="   55.829">  2  5  1 -1</clus>
</clustering>
</event>
<event>
10    2  0.5921424E-006  0.1256055E+03  0.7546771E-02  0.1247263E+00
         21   -1    0    0  503  502  0.00000000000E+00  0.00000000000E+00  0.12761025361E+03  0.12761025361E+03  0.00000000000E+00 0.  1.
          3   -1    0    0  502    0 -0.00000000000E+00 -0.00000000000E+00 -0.30720197086E+03  0.30720197086E+03  0.00000000000E+00 0. -1.
         23    2    1    2    0    0 -0.21406772727E+01 -0.27805282979E+02 -0.49289171646E+02  0.11123118552E+03  0.95735249156E+02 0.  0.
         23    2    1    2    0    0 -0.63583629946E+00 -0.26823743993E+02 -0.18095183918E+03  0.20530056083E+03  0.93192460238E+02 0.  0.
        -13    1    3    3    0    0  0.40051119206E+02 -0.19514540038E+02  0.16342206831E+01  0.44582284596E+02  0.00000000000E+00 0.  1.
         13    1    3    3    0    0 -0.42191796479E+02 -0.82907429402E+01 -0.50923392329E+02  0.66648900928E+02  0.00000000000E+00 0. -1.
        -13    1    4    4    0    0  0.27070331098E+02 -0.26772007287E+02 -0.22041198903E+02  0.43992699951E+02  0.00000000000E+00 0.  1.
         13    1    4    4    0    0 -0.27706167397E+02 -0.51736705940E-01 -0.15891064027E+03  0.16130786088E+03  0.00000000000E+00 0. -1.
         21    1    1    2  503  501  0.94003069223E+01  0.29718604178E+02  0.75989930584E+02  0.82134224016E+02  0.00000000000E+00 0.  1.
          3    1    1    2  501    0 -0.66237933501E+01  0.24910422794E+02 -0.25340637011E+02  0.36146254110E+02  0.00000000000E+00 0. -1.
<scales pt_clust_5="13000.00000" pt_clust_6="13000.00000" pt_clust_7="13000.00000" pt_clust_8="13000.00000" pt_clust_9="31.16988" pt_clust_10="13000.00000"></scales>
<clustering>
<clus scale="   31.170">  1  9  2 -1</clus>
<clus scale="   93.192">  7  8 -1 -1</clus>
<clus scale="   28.764">  7 10 -1 -1</clus>
<clus scale="   95.735">  5  6 -1 -1</clus>
<clus scale="   96.220">  2  5  1 -1</clus>
<clus scale="   31.170">  1  5  2 -1</clus>
</clustering>
</event>
<event>
10    2  0.5921424E-006  0.2644570E+03  0.7546771E-02  0.1123978E+00
          2   -1    0    0  503    0 -0.00000000000E+00  0.00000000000E+00  0.58641618373E+03  0.58641618373E+03  0.00000000000E+00 0. -1.
         21   -1    0    0  501  502  0.00000000000E+00 -0.00000000000E+00 -0.11650945620E+03  0.11650945620E+03  0.00000000000E+00 0. -1.
         23    2    1    2    0    0  0.74944831628E+02  0.83054679452E+02  0.15840609902E+03  0.21877496779E+03  0.10126789599E+03 0.  0.
         23    2    1    2    0    0 -0.23258424769E+02  0.12199624121E+02  0.14182029030E+03  0.16840763019E+03  0.86938771641E+02 0.  0.
        -11    1    4    4    0    0  0.33793244649E+01  0.46690093090E+02  0.65265804824E+02  0.80318179175E+02  0.00000000000E+00 0.  1.
         11    1    4    4    0    0 -0.26637749234E+02 -0.34490468969E+02  0.76554485475E+02  0.88089451016E+02  0.00000000000E+00 0. -1.
        -13    1    3    3    0    0  0.93628821434E+02  0.90883937323E+02  0.13361896139E+03  0.18676261165E+03  0.00000000000E+00 0. -1.
         13    1    3    3    0    0 -0.18683989806E+02 -0.78292578713E+01  0.24787137628E+02  0.32012356140E+02  0.00000000000E+00 0.  1.
         21    1    1    2  503  502  0.36919645924E+02  0.37026345387E+02  0.14561750426E+03  0.15472061289E+03  0.00000000000E+00 0.  1.
          2    1    1    2  501    0 -0.88606052784E+02 -0.13228064896E+03  0.24062833952E+02  0.16102242905E+03  0.00000000000E+00 0. -1.
<scales pt_clust_5="13000.00000" pt_clust_6="13000.00000" pt_clust_7="13000.00000" pt_clust_8="13000.00000" pt_clust_9="52.28779" pt_clust_10="13000.00000"></scales>
<clustering>
<clus scale="   52.288">  2  9  1 -1</clus>
<clus scale="   86.939">  5  6 -1 -1</clus>
<clus scale="  101.268">  7  8 -1 -1</clus>
<clus scale="  127.979">  5 10 -1 -1</clus>
<clus scale="  161.613">  1  7  2 -1</clus>
<clus scale="   52.288">  2  5  1 -1</clus>
</clustering>
</event>
<event>
10    2  0.5921424E-006  0.1180804E+03  0.7546771E-02  0.1249983E+00
          2   -1    0    0  502    0 -0.00000000000E+00  0.00000000000E+00  0.19474454368E+03  0.19474454368E+03  0.00000000000E+00 0. -1.
         21   -1    0    0  503  502  0.00000000000E+00 -0.00000000000E+00 -0.14329218702E+03  0.14329218702E+03  0.00000000000E+00 0.  1.
         23    2    1    2    0    0 -0.52155781304E+02 -0.34192995063E+01  0.55578655019E+02  0.12725381146E+03  0.10184610206E+03 0.  0.
         23    2    1    2    0    0 -0.69554215545E+01  0.11037425006E+02  0.50094945350E+02  0.95387639151E+02  0.80119258068E+02 0.  0.
        -11    1    3    3    0    0 -0.74390426426E+02 -0.25605159899E+02  0.54719399502E+02  0.95832001123E+02  0.00000000000E+00 0.  1.
         11    1    3    3    0    0  0.22234645122E+02  0.22185860393E+02  0.85925551723E+00  0.31421810341E+02  0.00000000000E+00 0. -1.
        -11    1    4    4    0    0 -0.16744394507E+02  0.43730030580E+02  0.25476709002E+02  0.53308095290E+02  0.00000000000E+00 0.  1.
         11    1    4    4    0    0  0.97889729523E+01 -0.32692605574E+02  0.24618236348E+02  0.42079543861E+02  0.00000000000E+00 0. -1.
         21    1    1    2  503  501  0.26395386648E+02 -0.18662236537E+02 -0.70246877425E+02  0.77327998143E+02  0.00000000000E+00 0.  1.
          2    1    1    2  501    0  0.32715816210E+02  0.11044111037E+02  0.16025633710E+02  0.38067281945E+02  0.00000000000E+00 0. -1.
<scales pt_clust_5="13000.00000" pt_clust_6="13000.00000" pt_clust_7="13000.00000" pt_clust_8="13000.00000" pt_clust_9="32.32639" pt_clust_10="13000.00000"></scales>
<clustering>
<clus scale="   32.326">  2  9  1 -1</clus>
<clus scale="   80.119">  7  8 -1 -1</clus>
<clus scale="   37.776">  7 10 -1 -1</clus>
<clus scale="  101.846">  5  6 -1 -1</clus>
<clus scale="  109.675">  1  5  2 -1</clus>
<clus scale="   32.326">  2  5  1 -1</clus>
</clustering>
</event>
<event>
10    2  0.5921424E-006  0.8960920E+03  0.7546771E-02  0.9819089E-01
         21   -1    0    0  503  502  0.00000000000E+00  0.00000000000E+00  0.35985758543E+03  0.35985758543E+03  0.00000000000E+00 0. -1.
          1   -1    0    0  502    0 -0.00000000000E+00 -0.00000000000E+00 -0.13770764876E+04  0.13770764876E+04  0.00000000000E+00 0. -1.
         23    2    1    2    0    0 -0.63970357569E+02  0.21157259667E+03 -0.69717161096E+03  0.73674365203E+03  0.88813193717E+02 0.  0.
         23    2    1    2    0    0  0.20544858922E+03 -0.48300673394E+03 -0.38591012124E+03  0.65774777615E+03  0.90558751735E+02 0.  0.
        -11    1    4    4    0    0  0.21439390456E+03 -0.45528646961E+03 -0.36941147490E+03  0.62427185866E+03  0.00000000000E+00 0. -1.
         11    1    4    4    0    0 -0.89453153437E+01 -0.27720264331E+02 -0.16498646336E+02  0.33475917495E+02  0.00000000000E+00 0.  1.
        -11    1    3    3    0    0 -0.18684360707E+01  0.15135440569E+03 -0.46225018568E+03  0.48640197505E+03  0.00000000000E+00 0. -1.
         11    1    3    3    0    0 -0.62101921499E+02  0.60218190976E+02 -0.23492142528E+03  0.25034167698E+03  0.00000000000E+00 0.  1.
         21    1    1    2  503  501 -0.27980631460E+02 -0.72544766181E+01  0.26039983001E+02  0.38905319464E+02  0.00000000000E+00 0. -1.
          1    1    1    2  501    0 -0.11349760019E+03  0.27868861389E+03  0.39822847009E+02  0.30353732539E+03  0.00000000000E+00 0. -1.
<scales pt_clust_5="13000.00000" pt_clust_6="13000.00000" pt_clust_7="13000.00000" pt_clust_8="13000.00000" pt_clust_9="28.90576" pt_clust_10="13000.00000"></scales>
<clustering>
<clus scale="   28.906">  1  9  2 -1</clus>
<clus scale="   88.813">  7  8 -1 -1</clus>
<clus scale="   90.559">  5  6 -1 -1</clus>
<clus scale="  238.279">  2  7  1 -1</clus>
<clus scale="  349.523">  5 10 -1 -1</clus>
<clus scale="   28.906">  1  5  2 -1</clus>
</clustering>
</event>
<event>
10    2  0.5921424E-006  0.2213742E+03  0.7546771E-02  0.1170030E+00
         -1   -1    0    0    0  501 -0.00000000000E+00  0.00000000000E+00  0.48797837275E+03  0.48797837275E+03  0.00000000000E+00 0.  1.
         21   -1    0    0  503  502  0.00000000000E+00 -0.00000000000E+00 -0.15694018084E+03  0.15694018084E+03  0.00000000000E+00 0. -1.
         23    2    1    2    0    0  0.52037622301E+01  0.89990989266E+01  0.25395816647E+03  0.27009110649E+03  0.91358593279E+02 0.  0.
         23    2    1    2    0    0  0.34252799754E+01 -0.32080239148E+02 -0.71867270404E+01  0.97919094555E+02  0.92171718799E+02 0.  0.
        -13    1    4    4    0    0 -0.40614454060E+02 -0.86520469711E+01 -0.20470227110E+02  0.46297105668E+02  0.00000000000E+00 0. -1.
         13    1    4    4    0    0  0.44039734035E+02 -0.23428192177E+02  0.13283500069E+02  0.51621988887E+02  0.00000000000E+00 0.  1.
        -13    1    3    3    0    0  0.35212595676E+02  0.34771079801E+02  0.17373765653E+03  0.18064807827E+03  0.00000000000E+00 0.  1.
         13    1    3    3    0    0 -0.30008833446E+02 -0.25771980874E+02  0.80220509934E+02  0.89443028219E+02  0.00000000000E+00 0. -1.
         21    1    1    2  503  501 -0.67396001449E+02  0.12619876436E+03  0.28970165374E+02  0.14597129724E+03  0.00000000000E+00 0. -1.
         -1    1    1    2    0  502  0.58766959244E+02 -0.10311762413E+03  0.55296587111E+02  0.13093705531E+03  0.00000000000E+00 0.  1.
<scales pt_clust_5="13000.00000" pt_clust_6="13000.00000" pt_clust_7="13000.00000" pt_clust_8="13000.00000" pt_clust_9="145.23185" pt_clust_10="13000.00000"></scales>
<clustering>
<clus scale="   91.359">  7  8 -1 -1</clus>
<clus scale="   91.948">  1  7  2 -1</clus>
<clus scale="   92.172">  5  6 -1 -1</clus>
<clus scale="  116.586">  5 10 -1 -1</clus>
<clus scale="  145.232">  2  9  1 -1</clus>
<clus scale="  145.232">  2  5  1 -1</clus>
</clustering>
</event>
<event>
10    2  0.5921424E-006  0.1924482E+03  0.7546771E-02  0.1183848E+00
          2   -1    0    0  502    0 -0.00000000000E+00  0.00000000000E+00  0.37891004824E+03  0.37891004824E+03  0.00000000000E+00 0. -1.
         21   -1    0    0  503  502  0.00000000000E+00 -0.00000000000E+00 -0.22663321410E+03  0.22663321410E+03  0.00000000000E+00 0. -1.
         23    2    1    2    0    0 -0.18079177021E+02 -0.58801142451E+02  0.11170551608E+03  0.15689750671E+03  0.91401719302E+02 0.  0.
         23    2    1    2    0    0 -0.28381623002E+02 -0.23417330692E+02  0.20583790322E+03  0.22761010183E+03  0.89906774766E+02 0.  0.
        -11    1    3    3    0    0  0.20603700472E+02 -0.62339239856E+02  0.92851338782E+02  0.11371923502E+03  0.00000000000E+00 0. -1.
         11    1    3    3    0    0 -0.38682877493E+02  0.35380974041E+01  0.18854177302E+02  0.43178271690E+02  0.00000000000E+00 0.  1.
        -13    1    4    4    0    0 -0.23946614659E+02  0.32056707226E+02  0.67070342461E+02  0.78099319265E+02  0.00000000000E+00 0.  1.
         13    1    4    4    0    0 -0.44350083424E+01 -0.55474037919E+02  0.13876756076E+03  0.14951078256E+03  0.00000000000E+00 0. -1.
         21    1    1    2  503  501  0.28731383157E+02  0.34610630196E+02 -0.16417095117E+03  0.17022188258E+03  0.00000000000E+00 0. -1.
          2    1    1    2  501    0  0.17729416866E+02  0.47607842948E+02 -0.10956339884E+01  0.50813771228E+02  0.00000000000E+00 0. -1.
<scales pt_clust_5="13000.00000" pt_clust_6="13000.00000" pt_clust_7="13000.00000" pt_clust_8="13000.00000" pt_clust_9="44.98209" pt_clust_10="13000.00000"></scales>
<clustering>
<clus scale="   44.982">  2  9  1 -1</clus>
<clus scale="   89.907">  7  8 -1 -1</clus>
<clus scale="   69.646">  7 10 -1 -1</clus>
<clus scale="   91.402">  5  6 -1 -1</clus>
<clus scale="  102.415">  1  5  2 -1</clus>
<clus scale="   44.982">  2  5  1 -1</clus>
</clustering>
</event>
<event>
10    2  0.5921424E-006  0.1625785E+03  0.7546771E-02  0.1198687E+00
         21   -1    0    0  501  502  0.00000000000E+00  0.00000000000E+00  0.54090756093E+02  0.54090756093E+02  0.00000000000E+00 0. -1.
          2   -1    0    0  503    0 -0.00000000000E+00 -0.00000000000E+00 -0.65069897643E+03  0.65069897643E+03  0.00000000000E+00 0. -1.
         23    2    1    2    0    0 -0.76459935457E+01  0.69638684808E+02 -0.27344629873E+03  0.29618548721E+03  0.89693683743E+02 0.  0.
         23    2    1    2    0    0  0.86923893984E+01 -0.39718370225E+02 -0.10415278202E+03  0.14462028330E+03  0.91728500323E+02 0.  0.
        -11    1    3    3    0    0 -0.47846375160E+02  0.44183515631E+02 -0.17791498711E+03  0.18946028952E+03  0.00000000000E+00 0.  1.
         11    1    3    3    0    0  0.40200381615E+02  0.25455169177E+02 -0.95531311627E+02  0.10672519769E+03  0.00000000000E+00 0. -1.
        -13    1    4    4    0    0 -0.85659515330E+01 -0.26397330654E+02 -0.11636697566E+03  0.11963054634E+03  0.00000000000E+00 0.  1.
         13    1    4    4    0    0  0.17258340931E+02 -0.13321039570E+02  0.12214193645E+02  0.24989736960E+02  0.00000000000E+00 0. -1.
         21    1    1    2  503  502 -0.39568787225E+02  0.46929674681E+02 -0.94140240546E+02  0.11238535571E+03  0.00000000000E+00 0. -1.
          2    1    1    2  501    0  0.38522391372E+02 -0.76849989265E+02 -0.12486889904E+03  0.15159860631E+03  0.00000000000E+00 0. -1.
<scales pt_clust_5="13000.00000" pt_clust_6="13000.00000" pt_clust_7="13000.00000" pt_clust_8="13000.00000" pt_clust_9="61.38472" pt_clust_10="13000.00000"></scales>
<clustering>
<clus scale="   61.385">  1  9  2 -1</clus>
<clus scale="   89.694">  5  6 -1 -1</clus>
<clus scale="   91.729">  7  8 -1 -1</clus>
<clus scale="   68.359">  7 10 -1 -1</clus>
<clus scale="  122.472">  2  5  1 -1</clus>
<clus scale="   61.385">  1  5  2 -1</clus>
</clustering>
</event>
<event>
10    2  0.5921424E-006  0.2393842E+03  0.7546771E-02  0.1135519E+00
          1   -1    0    0  502    0 -0.00000000000E+00  0.00000000000E+00  0.98535954141E+03  0.98535954141E+03  0.00000000000E+00 0. -1.
         21   -1    0    0  503  502  0.00000000000E+00 -0.00000000000E+00 -0.62974779350E+02  0.62974779350E+02  0.00000000000E+00 0. -1.
         23    2    1    2    0    0  0.96416173714E+02  0.91614076433E+02  0.62369318948E+03  0.64412307028E+03  0.90620734408E+02 0.  0.
         23    2    1    2    0    0 -0.19471573091E+02  0.66098875195E+01  0.78125995808E+02  0.12658006641E+03  0.97447469030E+02 0.  0.
        -11    1    4    4    0    0  0.37110025263E+02  0.14535037738E+02  0.46624170226E+02  0.61337056877E+02  0.00000000000E+00 0. -1.
         11    1    4    4    0    0 -0.56581598354E+02 -0.79251502186E+01  0.31501825581E+02  0.65243009535E+02  0.00000000000E+00 0.  1.
        -11    1    3    3    0    0 -0.17908673351E+02  0.13824069819E+02  0.92461339093E+02  0.95188889659E+02  0.00000000000E+00 0.  1.
         11    1    3    3    0    0  0.11432484707E+03  0.77790006613E+02  0.53123185039E+03  0.54893418062E+03  0.00000000000E+00 0. -1.
         21    1    1    2  503  501  0.18784354725E+02  0.11749669600E+02  0.21424306732E+02  0.30820571654E+02  0.00000000000E+00 0. -1.
          1    1    1    2  501    0 -0.95728955348E+02 -0.10997363355E+03  0.19914127004E+03  0.24681061242E+03  0.00000000000E+00 0. -1.
<scales pt_clust_5="13000.00000" pt_clust_6="13000.00000" pt_clust_7="13000.00000" pt_clust_8="13000.00000" pt_clust_9="22.15641" pt_clust_10="13000.00000"></scales>
<clustering>
<clus scale="   22.156">  2  9  1 -1</clus>
<clus scale="   90.621">  7  8 -1 -1</clus>
<clus scale="   97.447">  5  6 -1 -1</clus>
<clus scale="  137.159">  5 10 -1 -1</clus>
<clus scale="  164.100">  1  7  2 -1</clus>
<clus scale="   22.156">  2  5  1 -1</clus>
</clustering>
</event>
<event>
10    2  0.1289472E-005  0.1337181E+03  0.7546771E-02  0.1229926E+00
          1   -1    0    0  503    0 -0.00000000000E+00  0.00000000000E+00  0.35317719564E+03  0.35317719564E+03  0.00000000000E+00 0. -1.
         21   -1    0    0  501  502  0.00000000000E+00 -0.00000000000E+00 -0.35157836431E+03  0.35157836431E+03  0.00000000000E+00 0.  1.
         23    2    1    2    0    0  0.34099713089E+02  0.74774773061E+01  0.74965163063E+02  0.12260240859E+03  0.90514484025E+02 0.  0.
         23    2    1    2    0    0 -0.74332754880E+02 -0.41486474081E+01  0.20784870729E+03  0.23866464306E+03  0.90648535576E+02 0.  0.
        -11    1    4    4    0    0 -0.11781302215E+02 -0.35159725999E+02  0.30313458785E+02  0.47894793013E+02  0.00000000000E+00 0.  1.
         11    1    4    4    0    0 -0.62551452665E+02  0.31011078591E+02  0.17753524850E+03  0.19076985005E+03  0.00000000000E+00 0. -1.
        -11    1    3    3    0    0  0.64581319013E+02 -0.32294225977E+01  0.48239431631E+02  0.80673531594E+02  0.00000000000E+00 0.  1.
         11    1    3    3    0    0 -0.30481605924E+02  0.10706899904E+02  0.26725731432E+02  0.41928876992E+02  0.00000000000E+00 0. -1.
         21    1    1    2  503  502  0.65441208162E+02  0.12352917739E+02 -0.30069414139E+03  0.30798070227E+03  0.00000000000E+00 0.  1.
          1    1    1    2  501    0 -0.25208166371E+02 -0.15681747637E+02  0.19479102371E+02  0.35507806042E+02  0.00000000000E+00 0. -1.
<scales pt_clust_5="13000.00000" pt_clust_6="13000.00000" pt_clust_7="13000.00000" pt_clust_8="13000.00000" pt_clust_9="66.59689" pt_clust_10="13000.00000"></scales>
<clustering>
<clus scale="   66.597">  2  9  1 -1</clus>
<clus scale="   90.514">  7  8 -1 -1</clus>
<clus scale="   90.649">  5  6 -1 -1</clus>
<clus scale="   19.585">  5 10 -1 -1</clus>
<clus scale="  113.501">  1  7  2 -1</clus>
<clus scale="   66.597">  2  5  1 -1</clus>
</clustering>
</event>
<event>
10    2  0.5921424E-006  0.2216915E+03  0.7546771E-02  0.1160013E+00
          1   -1    0    0  503    0 -0.00000000000E+00  0.00000000000E+00  0.31674909885E+03  0.31674909885E+03  0.00000000000E+00 0. -1.
         21   -1    0    0  501  502  0.00000000000E+00 -0.00000000000E+00 -0.29892976859E+03  0.29892976859E+03  0.00000000000E+00 0.  1.
         23    2    1    2    0    0  0.74384102748E+02  0.21782427180E+02  0.21052575073E+03  0.24235013705E+03  0.91678941608E+02 0.  0.
         23    2    1    2    0    0  0.65756163280E+01 -0.43923566909E+02  0.42924069572E+02  0.11008784542E+03  0.91128148780E+02 0.  0.
        -11    1    4    4    0    0  0.38253318428E+02  0.14335245922E+00  0.40577005777E+02  0.55765852621E+02  0.00000000000E+00 0. -1.
         11    1    4    4    0    0 -0.31677702100E+02 -0.44066919369E+02  0.23470637943E+01  0.54321992797E+02  0.00000000000E+00 0.  1.
        -13    1    3    3    0    0  0.23482335020E+02  0.12894587775E+02  0.12816588819E+01  0.26820385928E+02  0.00000000000E+00 0.  1.
         13    1    3    3    0    0  0.50901767728E+02  0.88878394051E+01  0.20924409185E+03  0.21552975112E+03  0.00000000000E+00 0. -1.
         21    1    1    2  503  502 -0.67822974067E+02 -0.21953396068E+02 -0.13888150848E+03  0.15610887485E+03  0.00000000000E+00 0.  1.
          1    1    1    2  501    0 -0.13136745009E+02  0.44094535798E+02 -0.96748981572E+02  0.10713201012E+03  0.00000000000E+00 0. -1.
<scales pt_clust_5="13000.00000" pt_clust_6="13000.00000" pt_clust_7="13000.00000" pt_clust_8="13000.00000" pt_clust_9="71.28750" pt_clust_10="13000.00000"></scales>
<clustering>
<clus scale="   71.287">  2  9  1 -1</clus>
<clus scale="   91.128">  5  6 -1 -1</clus>
<clus scale="   65.697">  5 10 -1 -1</clus>
<clus scale="   91.679">  7  8 -1 -1</clus>
<clus scale="  115.360">  1  7  2 -1</clus>
<clus scale="   71.287">  2  5  1 -1</clus>
</clustering>
</event>
<event>
10    2  0.5921424E-006  0.3004564E+03  0.7546771E-02  0.1124257E+00
          2   -1    0    0  503    0 -0.00000000000E+00  0.00000000000E+00  0.56663654662E+03  0.56663654662E+03  0.00000000000E+00 0. -1.
         21   -1    0    0  501  502  0.00000000000E+00 -0.00000000000E+00 -0.22069222334E+03  0.22069222334E+03  0.00000000000E+00 0. -1.
         23    2    1    2    0    0  0.56198284907E+02 -0.15290277177E+02  0.33399106458E+03  0.35101241400E+03  0.90926584471E+02 0.  0.
         23    2    1    2    0    0 -0.10101175407E+03 -0.81903589379E+02  0.17270432942E+03  0.23467622231E+03  0.91293874415E+02 0.  0.
        -11    1    4    4    0    0 -0.10909260814E+02 -0.64875348158E+02  0.87765536031E+02  0.10968414692E+03  0.00000000000E+00 0. -1.
         11    1    4    4    0    0 -0.90102493251E+02 -0.17028241221E+02  0.84938793392E+02  0.12499207540E+03  0.00000000000E+00 0.  1.
        -13    1    3    3    0    0 -0.17572734733E+02 -0.27762444640E+02  0.90127581329E+02  0.95929845484E+02  0.00000000000E+00 0.  1.
         13    1    3    3    0    0  0.73771019640E+02  0.12472167463E+02  0.24386348325E+03  0.25508256852E+03  0.00000000000E+00 0. -1.
         21    1    1    2  503  502  0.52196438262E+02  0.48392027979E+02 -0.80785174673E+02  0.10766847722E+03  0.00000000000E+00 0. -1.
          2    1    1    2  501    0 -0.73829691039E+01  0.48801838577E+02 -0.79965896042E+02  0.93971656424E+02  0.00000000000E+00 0. -1.
<scales pt_clust_5="13000.00000" pt_clust_6="13000.00000" pt_clust_7="13000.00000" pt_clust_8="13000.00000" pt_clust_9="71.17764" pt_clust_10="13000.00000"></scales>
<clustering>
<clus scale="   71.178">  2  9  1 -1</clus>
<clus scale="   90.927">  7  8 -1 -1</clus>
<clus scale="   91.294">  5  6 -1 -1</clus>
<clus scale="   86.892">  5 10 -1 -1</clus>
<clus scale="  109.443">  1  7  2 -1</clus>
<clus scale="   71.178">  2  5  1 -1</clus>
</clustering>
</event>
<event>
10    2  0.5921424E-006  0.1510694E+03  0.7546771E-02  0.1220658E+00
         -1   -1    0    0    0  501 -0.00000000000E+00  0.00000000000E+00  0.32537357957E+03  0.32537357957E+03  0.00000000000E+00 0.  1.
         21   -1    0    0  503  502  0.00000000000E+00 -0.00000000000E+00 -0.90966288220E+02  0.90966288220E+02  0.00000000000E+00 0. -1.
         23    2    1    2    0    0  0.36327416260E+02 -0.24298972355E+02  0.77712839810E+02  0.12800427563E+03  0.91846000887E+02 0.  0.
         23    2    1    2    0    0 -0.26279676343E+02  0.17329304237E+02  0.18955749976E+03  0.21338380455E+03  0.92788340621E+02 0.  0.
        -11    1    4    4    0    0 -0.13999342023E+02  0.55821480191E+02  0.11390982069E+03  0.12762235885E+03  0.00000000000E+00 0. -1.
         11    1    4    4    0    0 -0.12280334320E+02 -0.38492175954E+02  0.75647679072E+02  0.85761445707E+02  0.00000000000E+00 0.  1.
        -11    1    3    3    0    0  0.22965447561E+02  0.25544463802E+01 -0.16979728711E+02  0.28674869923E+02  0.00000000000E+00 0. -1.
         11    1    3    3    0    0  0.13361968699E+02 -0.26853418735E+02  0.94692568521E+02  0.99329405708E+02  0.00000000000E+00 0.  1.
         21    1    1    2  503  501 -0.25613495275E+02  0.27914517560E+02 -0.30708070166E+02  0.48767376433E+02  0.00000000000E+00 0. -1.
         -1    1    1    2    0  502  0.15565755357E+02 -0.20944849442E+02 -0.21549780570E+01  0.26184411172E+02  0.00000000000E+00 0.  1.
<scales pt_clust_5="13000.00000" pt_clust_6="13000.00000" pt_clust_7="13000.00000" pt_clust_8="13000.00000" pt_clust_9="37.88498" pt_clust_10="13000.00000"></scales>
<clustering>
<clus scale="   37.885">  2  9  1 -1</clus>
<clus scale="   91.846">  7  8 -1 -1</clus>
<clus scale="   92.788">  5  6 -1 -1</clus>
<clus scale="   15.710">  5 10 -1 -1</clus>
<clus scale="   95.458">  1  7  2 -1</clus>
<clus scale="   37.885">  2  5  1 -1</clus>
</clustering>
</event>
<event>
10    2  0.5921424E-006  0.3029400E+03  0.7546771E-02  0.1090813E+00
          1   -1    0    0  502    0 -0.00000000000E+00  0.00000000000E+00  0.37008226907E+03  0.37008226907E+03  0.00000000000E+00 0. -1.
         21   -1    0    0  503  502  0.00000000000E+00 -0.00000000000E+00 -0.49395156447E+03  0.49395156447E+03  0.00000000000E+00 0. -1.
         23    2    1    2    0    0  0.22687083613E+03  0.69654606448E+02  0.24335399798E+03  0.35186378936E+03  0.90911041373E+02 0.  0.
         23    2    1    2    0    0 -0.62748472551E+02  0.25434079301E+02 -0.44294573492E+02  0.12209280232E+03  0.91435113278E+02 0.  0.
        -11    1    3    3    0    0  0.18231061776E+02 -0.19416061809E+02  0.18321273489E+02  0.32326833002E+02  0.00000000000E+00 0.  1.
         11    1    3    3    0    0  0.20863977435E+03  0.89070668257E+02  0.22503272449E+03  0.31953695636E+03  0.00000000000E+00 0. -1.
        -13    1    4    4    0    0 -0.83694361056E+02  0.33823948254E+02 -0.41511950145E+02  0.99358178088E+02  0.00000000000E+00 0.  1.
         13    1    4    4    0    0  0.20945888505E+02 -0.83898689528E+01 -0.27826233478E+01  0.22734624233E+02  0.00000000000E+00 0. -1.
         21    1    1    2  503  501 -0.12153254801E+02 -0.28501898020E+02 -0.13882777097E+03  0.14224348767E+03  0.00000000000E+00 0. -1.
          1    1    1    2  501    0 -0.15196910878E+03 -0.66586787729E+02 -0.18410094892E+03  0.24783375419E+03  0.00000000000E+00 0. -1.
<scales pt_clust_5="13000.00000" pt_clust_6="13000.00000" pt_clust_7="13000.00000" pt_clust_8="13000.00000" pt_clust_9="30.98483" pt_clust_10="13000.00000"></scales>
<clustering>
<clus scale="   30.985">  2  9  1 -1</clus>
<clus scale="   90.911">  5  6 -1 -1</clus>
<clus scale="   91.435">  7  8 -1 -1</clus>
<clus scale="  180.177">  7 10 -1 -1</clus>
<clus scale="  251.304">  1  5  2 -1</clus>
<clus scale="   30.985">  2  5  1 -1</clus>
</clustering>
</event>
<event>
10    2  0.5921424E-006  0.2494742E+03  0.7546771E-02  0.1143636E+00
         -2   -1    0    0    0  501 -0.00000000000E+00  0.00000000000E+00  0.40108170708E+03  0.40108170708E+03  0.00000000000E+00 0.  1.
         21   -1    0    0  501  502  0.00000000000E+00 -0.00000000000E+00 -0.24947122068E+03  0.24947122068E+03  0.00000000000E+00 0. -1.
         23    2    1    2    0    0  0.62659385477E+02 -0.44329289106E+02  0.23169277415E+03  0.26207620539E+03  0.95452141830E+02 0.  0.
         23    2    1    2    0    0 -0.11138459523E+03 -0.46630191387E+02  0.54204207250E+02  0.16055749876E+03  0.90882955059E+02 0.  0.
        -13    1    3    3    0    0  0.42530993100E+02 -0.57883973640E+02  0.22601434993E+03  0.23715380274E+03  0.00000000000E+00 0. -1.
         13    1    3    3    0    0  0.20128392377E+02  0.13554684535E+02  0.56784242167E+01  0.24922402655E+02  0.00000000000E+00 0.  1.
        -13    1    4    4    0    0 -0.42833803924E+02  0.11842991408E+02  0.54670397564E+02  0.70454549703E+02  0.00000000000E+00 0.  1.
         13    1    4    4    0    0 -0.68550791310E+02 -0.58473182795E+02 -0.46619031361E+00  0.90102949057E+02  0.00000000000E+00 0. -1.
         21    1    1    2  503  502 -0.21887401151E+02  0.38986192584E+02 -0.13291240949E+03  0.14023084589E+03  0.00000000000E+00 0. -1.
         -2    1    1    2    0  503  0.70612610908E+02  0.51973287909E+02 -0.13740855031E+01  0.87688377715E+02  0.00000000000E+00 0.  1.
<scales pt_clust_5="13000.00000" pt_clust_6="13000.00000" pt_clust_7="13000.00000" pt_clust_8="13000.00000" pt_clust_9="44.70997" pt_clust_10="13000.00000"></scales>
<clustering>
<clus scale="   44.710">  2  9  1 -1</clus>
<clus scale="   90.883">  7  8 -1 -1</clus>
<clus scale="   91.529">  7 10 -1 -1</clus>
<clus scale="   95.452">  5  6 -1 -1</clus>
<clus scale="  119.182">  1  5  2 -1</clus>
<clus scale="   44.710">  2  5  1 -1</clus>
</clustering>
</event>
<event>
10    2  0.5921424E-006  0.1221072E+03  0.7546771E-02  0.1253585E+00
          2   -1    0    0  502    0 -0.00000000000E+00  0.00000000000E+00  0.69981189921E+03  0.69981189921E+03  0.00000000000E+00 0. -1.
         21   -1    0    0  503  502  0.00000000000E+00 -0.00000000000E+00 -0.28184718650E+02  0.28184718650E+02  0.00000000000E+00 0.  1.
         23    2    1    2    0    0 -0.13249724605E+02  0.24124944444E+01  0.14878283941E+03  0.17504166842E+03  0.91224322695E+02 0.  0.
         23    2    1    2    0    0  0.10153615995E+02 -0.39549544077E+02  0.41220463683E+03  0.42392754680E+03  0.90192238928E+02 0.  0.
        -11    1    3    3    0    0 -0.52312597012E+02 -0.16544126648E+01  0.74992714087E+02  0.91450817675E+02  0.00000000000E+00 0.  1.
         11    1    3    3    0    0  0.39062872407E+02  0.40669071092E+01  0.73790125321E+02  0.83590850749E+02  0.00000000000E+00 0. -1.
        -13    1    4    4    0    0  0.47635811228E+02 -0.34753101430E+02  0.29308928210E+03  0.29896199734E+03  0.00000000000E+00 0. -1.
         13    1    4    4    0    0 -0.37482195233E+02 -0.47964426472E+01  0.11911535472E+03  0.12496554946E+03  0.00000000000E+00 0.  1.
         21    1    1    2  503  501  0.17766440582E+02  0.18049378807E+02  0.13008455108E+02  0.28471852602E+02  0.00000000000E+00 0.  1.
          2    1    1    2  501    0 -0.14670331973E+02  0.19087670826E+02  0.97631249216E+02  0.10055555003E+03  0.00000000000E+00 0. -1.
<scales pt_clust_5="13000.00000" pt_clust_6="13000.00000" pt_clust_7="13000.00000" pt_clust_8="13000.00000" pt_clust_9="25.32640" pt_clust_10="13000.00000"></scales>
<clustering>
<clus scale="   25.326">  2  9  1 -1</clus>
<clus scale="   90.192">  7  8 -1 -1</clus>
<clus scale="   24.389">  7 10 -1 -1</clus>
<clus scale="   91.224">  5  6 -1 -1</clus>
<clus scale="   92.311">  1  5  2 -1</clus>
<clus scale="   25.326">  2  5  1 -1</clus>
</clustering>
</event>
<event>
10    2  0.5921424E-006  0.2540818E+03  0.7546771E-02  0.1146104E+00
         21   -1    0    0  501  502  0.00000000000E+00  0.00000000000E+00  0.44121266389E+03  0.44121266389E+03  0.00000000000E+00 0.  1.
          2   -1    0    0  503    0 -0.00000000000E+00 -0.00000000000E+00 -0.45204133002E+03  0.45204133002E+03  0.00000000000E+00 0. -1.
         23    2    1    2    0    0  0.15896262430E+02 -0.80816975152E+01 -0.20927975840E+03  0.23475261474E+03  0.10484640127E+03 0.  0.
         23    2    1    2    0    0 -0.87775767185E+02  0.30271809081E+02 -0.13882253745E+03  0.18996879832E+03  0.90528888765E+02 0.  0.
        -13    1    3    3    0    0  0.53407537437E+02 -0.54124683866E+01 -0.58685701558E+02  0.79534089776E+02  0.00000000000E+00 0. -1.
         13    1    3    3    0    0 -0.37511275007E+02 -0.26692291286E+01 -0.15059405684E+03  0.15521852497E+03  0.00000000000E+00 0.  1.
        -13    1    4    4    0    0 -0.10518060441E+03  0.16235072141E+02 -0.12256836836E+03  0.16232542017E+03  0.00000000000E+00 0. -1.
         13    1    4    4    0    0  0.17404837223E+02  0.14036736939E+02 -0.16254169085E+02  0.27643378146E+02  0.00000000000E+00 0.  1.
         21    1    1    2  503  502  0.60984046398E+02 -0.12693196861E+03  0.33478450658E+03  0.36319615143E+03  0.00000000000E+00 0.  1.
          2    1    1    2  501    0  0.10895458357E+02  0.10474185704E+03  0.24891231406E+01  0.10533642942E+03  0.00000000000E+00 0. -1.
<scales pt_clust_5="13000.00000" pt_clust_6="13000.00000" pt_clust_7="13000.00000" pt_clust_8="13000.00000" pt_clust_9="141.69839" pt_clust_10="13000.00000"></scales>
<clustering>
<clus scale="   90.529">  7  8 -1 -1</clus>
<clus scale="  104.846">  5  6 -1 -1</clus>
<clus scale="  105.307">  7 10 -1 -1</clus>
<clus scale="  106.352">  2  5  1 -1</clus>
<clus scale="  141.698">  1  9  2 -1</clus>
<clus scale="  141.698">  1  5  2 -1</clus>
</clustering>
</event>
<event>
10    2  0.5921424E-006  0.1811267E+03  0.7546771E-02  0.1181582E+00
          1   -1    0    0  502    0 -0.00000000000E+00  0.00000000000E+00  0.39030740349E+03  0.39030740349E+03  0.00000000000E+00 0. -1.
         21   -1    0    0  503  502  0.00000000000E+00 -0.00000000000E+00 -0.78722888475E+02  0.78722888475E+02  0.00000000000E+00 0. -1.
         23    2    1    2    0    0  0.43130679270E+02  0.92565256004E+02  0.11384672780E+03  0.17688231168E+03  0.88868963318E+02 0.  0.
         23    2    1    2    0    0 -0.32273606011E+02  0.92972703708E+01  0.10880277812E+03  0.14455484412E+03  0.89050735818E+02 0.  0.
        -13    1    4    4    0    0  0.28854314115E+02 -0.10807523267E+02  0.36337857654E+02  0.47642563965E+02  0.00000000000E+00 0.  1.
         13    1    4    4    0    0 -0.61127920126E+02  0.20104793638E+02  0.72464920465E+02  0.96912280152E+02  0.00000000000E+00 0. -1.
        -13    1    3    3    0    0  0.41698036808E+02  0.57966048265E+01  0.13487747731E+02  0.44206857386E+02  0.00000000000E+00 0.  1.
         13    1    3    3    0    0  0.14326424622E+01  0.86768651177E+02  0.10035898007E+03  0.13267545429E+03  0.00000000000E+00 0. -1.
         21    1    1    2  503  501  0.47258881762E+01 -0.21487174210E+02 -0.54311111099E+01  0.22661192433E+02  0.00000000000E+00 0. -1.
          1    1    1    2  501    0 -0.15582961435E+02 -0.80375352164E+02  0.94366120203E+02  0.12493194373E+03  0.00000000000E+00 0. -1.
<scales pt_clust_5="13000.00000" pt_clust_6="13000.00000" pt_clust_7="13000.00000" pt_clust_8="13000.00000" pt_clust_9="22.00074" pt_clust_10="13000.00000"></scales>
<clustering>
<clus scale="   22.001">  2  9  1 -1</clus>
<clus scale="   88.869">  7  8 -1 -1</clus>
<clus scale="   89.051">  5  6 -1 -1</clus>
<clus scale="   86.669">  5 10 -1 -1</clus>
<clus scale="  129.234">  1  7  2 -1</clus>
<clus scale="   22.001">  2  5  1 -1</clus>
</clustering>
</event>
<event>
10    2  0.5921424E-006  0.3617822E+03  0.7546771E-02  0.1102853E+00
         -1   -1    0    0    0  501 -0.00000000000E+00  0.00000000000E+00  0.76302931846E+03  0.76302931846E+03  0.00000000000E+00 0.  1.
         21   -1    0    0  503  502  0.00000000000E+00 -0.00000000000E+00 -0.12103112094E+03  0.12103112094E+03  0.00000000000E+00 0. -1.
         23    2    1    2    0    0  0.19715131740E+01  0.57123144258E+02  0.55633618970E+02  0.12127108616E+03  0.91348980860E+02 0.  0.
         23    2    1    2    0    0 -0.52732050899E+02 -0.90764059759E+02  0.50815997350E+03  0.52629473142E+03  0.87981827169E+02 0.  0.
        -11    1    3    3    0    0  0.21519957614E+02 -0.18146245842E+02  0.53201867488E+01  0.28647848102E+02  0.00000000000E+00 0.  1.
         11    1    3    3    0    0 -0.19548444440E+02  0.75269390100E+02  0.50313432221E+02  0.92623238055E+02  0.00000000000E+00 0. -1.
        -13    1    4    4    0    0 -0.69414352144E+02 -0.44345375236E+02  0.24286473715E+03  0.25645300766E+03  0.00000000000E+00 0. -1.
         13    1    4    4    0    0  0.16682301245E+02 -0.46418684523E+02  0.26529523635E+03  0.26984172375E+03  0.00000000000E+00 0.  1.
         21    1    1    2  503  501  0.11501572240E+03  0.20329778412E+02  0.11274718572E+03  0.16233867123E+03  0.00000000000E+00 0. -1.
         -1    1    1    2    0  502 -0.64255184676E+02  0.13311137090E+02 -0.34542580675E+02  0.74155950591E+02  0.00000000000E+00 0.  1.
<scales pt_clust_5="13000.00000" pt_clust_6="13000.00000" pt_clust_7="13000.00000" pt_clust_8="13000.00000" pt_clust_9="119.76548" pt_clust_10="13000.00000"></scales>
<clustering>
<clus scale="   87.982">  7  8 -1 -1</clus>
<clus scale="   65.620">  7 10 -1 -1</clus>
<clus scale="   91.349">  5  6 -1 -1</clus>
<clus scale="  107.757">  1  5  2 -1</clus>
<clus scale="  119.765">  2  9  1 -1</clus>
<clus scale="  119.765">  2  5  1 -1</clus>
</clustering>
</event>
<event>
10    2  0.5921424E-006  0.2173427E+03  0.7546771E-02  0.1168816E+00
         21   -1    0    0  501  502  0.00000000000E+00  0.00000000000E+00  0.35156083214E+03  0.35156083214E+03  0.00000000000E+00 0. -1.
          1   -1    0    0  503    0 -0.00000000000E+00 -0.00000000000E+00 -0.62050493340E+03  0.62050493340E+03  0.00000000000E+00 0. -1.
         23    2    1    2    0    0  0.41920670116E+02 -0.23401087204E+01 -0.20092676151E+03  0.22377415861E+03  0.89109437646E+02 0.  0.
         23    2    1    2    0    0 -0.16611619613E+02 -0.20444736118E+02 -0.31139829850E+03  0.32570321192E+03  0.91759189213E+02 0.  0.
        -11    1    3    3    0    0 -0.10990824118E+02  0.29653885175E+02 -0.37580449018E+02  0.49116608893E+02  0.00000000000E+00 0.  1.
         11    1    3    3    0    0  0.52911494234E+02 -0.31993993895E+02 -0.16334631249E+03  0.17465754971E+03  0.00000000000E+00 0. -1.
        -13    1    4    4    0    0 -0.54541561060E+01 -0.54057081982E+02 -0.23911644059E+03  0.24521131314E+03  0.00000000000E+00 0. -1.
         13    1    4    4    0    0 -0.11157463507E+02  0.33612345864E+02 -0.72281857914E+02  0.80491898784E+02  0.00000000000E+00 0.  1.
         21    1    1    2  503  502 -0.55355787891E+01 -0.66967381610E+02  0.30475487552E+03  0.31207500218E+03  0.00000000000E+00 0. -1.
          1    1    1    2  501    0 -0.19773471714E+02  0.89752226449E+02 -0.61373916771E+02  0.11051339284E+03  0.00000000000E+00 0. -1.
<scales pt_clust_5="13000.00000" pt_clust_6="13000.00000" pt_clust_7="13000.00000" pt_clust_8="13000.00000" pt_clust_9="67.19578" pt_clust_10="13000.00000"></scales>
<clustering>
<clus scale="   67.196">  1  9  2 -1</clus>
<clus scale="   89.109">  5  6 -1 -1</clus>
<clus scale="   91.759">  7  8 -1 -1</clus>
<clus scale="   56.479">  7 10 -1 -1</clus>
<clus scale="   99.900">  2  5  1 -1</clus>
<clus scale="   67.196">  1  5  2 -1</clus>
</clustering>
</event>
<event>
10    2  0.5921424E-006  0.2800446E+03  0.7546771E-02  0.1128064E+00
          2   -1    0    0  503    0 -0.00000000000E+00  0.00000000000E+00  0.53754961027E+03  0.53754961027E+03  0.00000000000E+00 0. -1.
         21   -1    0    0  501  502  0.00000000000E+00 -0.00000000000E+00 -0.56254688747E+03  0.56254688747E+03  0.00000000000E+00 0. -1.
         23    2    1    2    0    0 -0.70015614690E+02 -0.56808524592E+02  0.16100626476E+03  0.20566390046E+03  0.90803237229E+02 0.  0.
         23    2    1    2    0    0  0.11105763400E+03  0.93177775364E+02  0.16629430090E+03  0.23916956845E+03  0.92370948188E+02 0.  0.
        -11    1    4    4    0    0  0.17792816242E+02  0.65041030393E+02  0.10261114678E+03  0.12278423103E+03  0.00000000000E+00 0.  1.
         11    1    4    4    0    0  0.93264817757E+02  0.28136744971E+02  0.63683154111E+02  0.11638533742E+03  0.00000000000E+00 0. -1.
        -13    1    3    3    0    0 -0.67479504034E+02 -0.76651688462E+02  0.15335432270E+03  0.18424579534E+03  0.00000000000E+00 0.  1.
         13    1    3    3    0    0 -0.25361106562E+01  0.19843163870E+02  0.76519420669E+01  0.21418105122E+02  0.00000000000E+00 0. -1.
         21    1    1    2  503  502 -0.14391837385E+02  0.68280646840E+02 -0.48169538200E+03  0.48672354859E+03  0.00000000000E+00 0. -1.
          2    1    1    2  501    0 -0.26650181924E+02 -0.10464989761E+03  0.12939753914E+03  0.16853948025E+03  0.00000000000E+00 0. -1.
<scales pt_clust_5="13000.00000" pt_clust_6="13000.00000" pt_clust_7="13000.00000" pt_clust_8="13000.00000" pt_clust_9="69.78088" pt_clust_10="13000.00000"></scales>
<clustering>
<clus scale="   69.781">  2  9  1 -1</clus>
<clus scale="   90.803">  7  8 -1 -1</clus>
<clus scale="   92.371">  5  6 -1 -1</clus>
<clus scale="   92.666">  5 10 -1 -1</clus>
<clus scale="  123.018">  1  7  2 -1</clus>
<clus scale="   69.781">  2  5  1 -1</clus>
</clustering>
</event>
<event>
10    2  0.5921424E-006  0.2754580E+03  0.7546771E-02  0.1126210E+00
          1   -1    0    0  503    0 -0.00000000000E+00  0.00000000000E+00  0.32885116215E+03  0.32885116215E+03  0.00000000000E+00 0. -1.
         21   -1    0    0  501  502  0.00000000000E+00 -0.00000000000E+00 -0.23376473184E+03  0.23376473184E+03  0.00000000000E+00 0. -1.
         23    2    1    2    0    0 -0.58691144821E+02  0.82329715409E+02  0.13554124261E+02  0.13693526843E+03  0.91349444092E+02 0.  0.
         23    2    1    2    0    0  0.13210009628E+03 -0.54791034214E+02  0.12794097512E+03  0.21247314879E+03  0.91232959920E+02 0.  0.
        -11    1    3    3    0    0 -0.48625204578E+02 -0.43636325099E+01  0.81122895342E+01  0.49490009602E+02  0.00000000000E+00 0.  1.
         11    1    3    3    0    0 -0.10065940243E+02  0.86693347919E+02  0.54418347268E+01  0.87445258829E+02  0.00000000000E+00 0. -1.
        -11    1    4    4    0    0  0.26387912159E+02  0.78844127445E+00 -0.11569170533E+02  0.28823415040E+02  0.00000000000E+00 0.  1.
         11    1    4    4    0    0  0.10571218412E+03 -0.55579475488E+02  0.13951014565E+03  0.18364973375E+03  0.00000000000E+00 0. -1.
         21    1    1    2  503  502  0.23087304369E+02  0.11198700836E+02 -0.95020407280E+02  0.98424145021E+02  0.00000000000E+00 0. -1.
          1    1    1    2  501    0 -0.96496255824E+02 -0.38737382031E+02  0.48611738217E+02  0.11478333175E+03  0.00000000000E+00 0. -1.
<scales pt_clust_5="13000.00000" pt_clust_6="13000.00000" pt_clust_7="13000.00000" pt_clust_8="13000.00000" pt_clust_9="25.65998" pt_clust_10="13000.00000"></scales>
<clustering>
<clus scale="   25.660">  2  9  1 -1</clus>
<clus scale="   91.233">  7  8 -1 -1</clus>
<clus scale="   91.349">  5  6 -1 -1</clus>
<clus scale="   97.802">  7 10 -1 -1</clus>
<clus scale="  135.319">  1  5  2 -1</clus>
<clus scale="   25.660">  2  5  1 -1</clus>
</clustering>
</event>
<event>
10    2  0.5921424E-006  0.7749546E+03  0.7546771E-02  0.1004110E+00
         21   -1    0    0  503  502  0.00000000000E+00  0.00000000000E+00  0.62805223219E+03  0.62805223219E+03  0.00000000000E+00 0. -1.
          2   -1    0    0  502    0 -0.00000000000E+00 -0.00000000000E+00 -0.57145870708E+03  0.57145870708E+03  0.00000000000E+00 0. -1.
         23    2    1    2    0    0  0.14536725834E+02 -0.15632762868E+03 -0.21089130476E+03  0.27787559946E+03  0.89944774529E+02 0.  0.
         23    2    1    2    0    0 -0.56118135578E+02  0.26036325541E+03 -0.25462339116E+03  0.37936791965E+03  0.90270023962E+02 0.  0.
        -13    1    4    4    0    0 -0.70094523699E+02  0.20565147416E+03 -0.23383647197E+03  0.31919471596E+03  0.00000000000E+00 0. -1.
         13    1    4    4    0    0  0.13976388121E+02  0.54711781247E+02 -0.20786919188E+02  0.60173203683E+02  0.00000000000E+00 0.  1.
        -13    1    3    3    0    0  0.52790933718E+02 -0.93946239823E+02 -0.12622825674E+03  0.16597093559E+03  0.00000000000E+00 0.  1.
         13    1    3    3    0    0 -0.38254207885E+02 -0.62381388853E+02 -0.84663048020E+02  0.11190466387E+03  0.00000000000E+00 0. -1.
         21    1    1    2  503  501 -0.25067705629E+02 -0.56464372336E+01  0.13127989561E+03  0.13377100998E+03  0.00000000000E+00 0. -1.
          2    1    1    2  501    0  0.66649115374E+02 -0.98389189497E+02  0.39082832542E+03  0.40849641019E+03  0.00000000000E+00 0. -1.
<scales pt_clust_5="13000.00000" pt_clust_6="13000.00000" pt_clust_7="13000.00000" pt_clust_8="13000.00000" pt_clust_9="25.69576" pt_clust_10="13000.00000"></scales>
<clustering>
<clus scale="   25.696">  1  9  2 -1</clus>
<clus scale="   89.945">  7  8 -1 -1</clus>
<clus scale="   90.270">  5  6 -1 -1</clus>
<clus scale="  112.930">  5 10 -1 -1</clus>
<clus scale="  181.143">  2  7  1 -1</clus>
<clus scale="   25.696">  1  5  2 -1</clus>
</clustering>
</event>
<event>
10    2  0.5921424E-006  0.2427167E+03  0.7546771E-02  0.1119971E+00
         21   -1    0    0  501  502  0.00000000000E+00  0.00000000000E+00  0.54325135846E+02  0.54325135846E+02  0.00000000000E+00 0. -1.
          2   -1    0    0  503    0 -0.00000000000E+00 -0.00000000000E+00 -0.17905035640E+04  0.17905035640E+04  0.00000000000E+00 0. -1.
         23    2    1    2    0    0  0.70858013482E+02  0.17605759984E+03 -0.44708638318E+03  0.49397632095E+03  0.90051291470E+02 0.  0.
         23    2    1    2    0    0  0.14150334378E+01 -0.14467788377E+03 -0.79957815762E+03  0.81777139708E+03  0.92147356804E+02 0.  0.
        -11    1    4    4    0    0  0.44532699228E+02 -0.92849950968E+02 -0.43605180230E+03  0.44804625764E+03  0.00000000000E+00 0. -1.
         11    1    4    4    0    0 -0.43117665790E+02 -0.51827932801E+02 -0.36352635532E+03  0.36972513944E+03  0.00000000000E+00 0.  1.
        -13    1    3    3    0    0  0.86206371630E+02  0.11927475067E+03 -0.27180805790E+03  0.30909161263E+03  0.00000000000E+00 0.  1.
         13    1    3    3    0    0 -0.15348358148E+02  0.56782849174E+02 -0.17527832528E+03  0.18488470832E+03  0.00000000000E+00 0. -1.
         21    1    1    2  503  502 -0.55720839687E+02  0.52993076479E+02 -0.67258364623E+02  0.10216049012E+03  0.00000000000E+00 0. -1.
          2    1    1    2  501    0 -0.16552207233E+02 -0.84372792552E+02 -0.42225552275E+03  0.43092049171E+03  0.00000000000E+00 0. -1.
<scales pt_clust_5="13000.00000" pt_clust_6="13000.00000" pt_clust_7="13000.00000" pt_clust_8="13000.00000" pt_clust_9="76.89654" pt_clust_10="13000.00000"></scales>
<clustering>
<clus scale="   76.897">  1  9  2 -1</clus>
<clus scale="   90.051">  7  8 -1 -1</clus>
<clus scale="   92.147">  5  6 -1 -1</clus>
<clus scale="   81.489">  5 10 -1 -1</clus>
<clus scale="  230.998">  2  7  1 -1</clus>
<clus scale="   76.897">  1  5  2 -1</clus>
</clustering>
</event>
<event>
10    2  0.5921424E-006  0.3209131E+03  0.7546771E-02  0.1115641E+00
         -3   -1    0    0    0  501 -0.00000000000E+00  0.00000000000E+00  0.57412791522E+03  0.57412791522E+03  0.00000000000E+00 0.  1.
         21   -1    0    0  501  502  0.00000000000E+00 -0.00000000000E+00 -0.10102034887E+03  0.10102034887E+03  0.00000000000E+00 0.  1.
         23    2    1    2    0    0  0.71427378693E+02  0.95520994504E+01  0.95944024543E+02  0.15095942068E+03  0.91599005546E+02 0.  0.
         23    2    1    2    0    0  0.93034856986E+02  0.44325498158E+02  0.29843153323E+03  0.32921530370E+03  0.93279696409E+02 0.  0.
        -11    1    3    3    0    0  0.24332580889E+02  0.49104597580E+02  0.40337810996E+02  0.68047593581E+02  0.00000000000E+00 0.  1.
         11    1    3    3    0    0  0.47094797805E+02 -0.39552498130E+02  0.55606213547E+02  0.82911827104E+02  0.00000000000E+00 0. -1.
        -11    1    4    4    0    0 -0.51075069382E+01 -0.20533355471E+02  0.39372728069E+02  0.44698065166E+02  0.00000000000E+00 0. -1.
         11    1    4    4    0    0  0.98142363924E+02  0.64858853629E+02  0.25905880516E+03  0.28451723853E+03  0.00000000000E+00 0.  1.
         21    1    1    2  503  502 -0.25173620071E+02 -0.21937474826E+02  0.37736475907E+01  0.33603636192E+02  0.00000000000E+00 0.  1.
         -3    1    1    2    0  503 -0.13928861561E+03 -0.31940122783E+02  0.74958360987E+02  0.16136990352E+03  0.00000000000E+00 0.  1.
<scales pt_clust_5="13000.00000" pt_clust_6="13000.00000" pt_clust_7="13000.00000" pt_clust_8="13000.00000" pt_clust_9="33.39108" pt_clust_10="13000.00000"></scales>
<clustering>
<clus scale="   33.391">  2  9  1 -1</clus>
<clus scale="   91.599">  5  6 -1 -1</clus>
<clus scale="   93.280">  7  8 -1 -1</clus>
<clus scale="  111.421">  1  5  2 -1</clus>
<clus scale="  137.207">  7 10 -1 -1</clus>
<clus scale="   33.391">  2  5  1 -1</clus>
</clustering>
</event>
<event>
10    2  0.5921424E-006  0.5156284E+03  0.7546771E-02  0.1065306E+00
         21   -1    0    0  501  502  0.00000000000E+00  0.00000000000E+00  0.10828206567E+04  0.10828206567E+04  0.00000000000E+00 0. -1.
          1   -1    0    0  503    0 -0.00000000000E+00 -0.00000000000E+00 -0.13027260092E+03  0.13027260092E+03  0.00000000000E+00 0. -1.
         23    2    1    2    0    0 -0.43047744462E+02 -0.86189777804E+01  0.14851491780E+03  0.17993095283E+03  0.91602794163E+02 0.  0.
         23    2    1    2    0    0 -0.53112912541E+02 -0.11224707849E+02 -0.41984265259E+02  0.11425671140E+03  0.91350654220E+02 0.  0.
        -11    1    3    3    0    0  0.28789148961E+02 -0.74326268671E+01  0.43402377963E+02  0.52610126904E+02  0.00000000000E+00 0.  1.
         11    1    3    3    0    0 -0.71836893423E+02 -0.11863509133E+01  0.10511253983E+03  0.12732082593E+03  0.00000000000E+00 0. -1.
        -13    1    4    4    0    0 -0.75202576865E+02  0.88663174467E+01 -0.24172583941E+02  0.79488068077E+02  0.00000000000E+00 0. -1.
         13    1    4    4    0    0  0.22089664324E+02 -0.20091025296E+02 -0.17811681318E+02  0.34768643326E+02  0.00000000000E+00 0.  1.
         21    1    1    2  503  502  0.87699088932E+01  0.12601559069E+03  0.10220606676E+03  0.16248975501E+03  0.00000000000E+00 0. -1.
          1    1    1    2  501    0  0.87390748110E+02 -0.10617190506E+03  0.74381133644E+03  0.75641583834E+03  0.00000000000E+00 0. -1.
<scales pt_clust_5="13000.00000" pt_clust_6="13000.00000" pt_clust_7="13000.00000" pt_clust_8="13000.00000" pt_clust_9="123.77440" pt_clust_10="13000.00000"></scales>
<clustering>
<clus scale="   91.351">  7  8 -1 -1</clus>
<clus scale="   91.603">  5  6 -1 -1</clus>
<clus scale="  101.580">  2  5  1 -1</clus>
<clus scale="  123.774">  1  9  2 -1</clus>
<clus scale="   83.098">  7 10 -1 -1</clus>
<clus scale="  123.774">  1  5  2 -1</clus>
</clustering>
</event>
<event>
10    2  0.5921424E-006  0.2636372E+03  0.7546771E-02  0.1140797E+00
         21   -1    0    0  501  502  0.00000000000E+00  0.00000000000E+00  0.41250464618E+03  0.41250464618E+03  0.00000000000E+00 0.  1.
         -4   -1    0    0    0  501 -0.00000000000E+00 -0.00000000000E+00 -0.78169750507E+03  0.78169750507E+03  0.00000000000E+00 0.  1.
         23    2    1    2    0    0  0.60716581092E+02 -0.15925755791E+02 -0.53008227673E+03  0.54099568748E+03  0.88028295725E+02 0.  0.
         23    2    1    2    0    0 -0.20706756178E+03  0.66329959542E+02 -0.74276446739E+02  0.24743706507E+03  0.91823046983E+02 0.  0.
        -11    1    4    4    0    0 -0.17406706389E+03  0.14656866945E+02 -0.56726881532E+02  0.18366302177E+03  0.00000000000E+00 0.  1.
         11    1    4    4    0    0 -0.33000497895E+02  0.51673092598E+02 -0.17549565207E+02  0.63774043300E+02  0.00000000000E+00 0. -1.
        -13    1    3    3    0    0 -0.18506202190E+02 -0.19110128861E+02 -0.90850095267E+02  0.94664757722E+02  0.00000000000E+00 0. -1.
         13    1    3    3    0    0  0.79222783282E+02  0.31843730705E+01 -0.43923218146E+03  0.44633092975E+03  0.00000000000E+00 0.  1.
         21    1    1    2  503  502  0.10690774929E+03 -0.38335885103E+02  0.30455693151E+03  0.32504435309E+03  0.00000000000E+00 0.  1.
         -4    1    1    2    0  503  0.39443231403E+02 -0.12068318649E+02 -0.69391066928E+02  0.80725045605E+02  0.00000000000E+00 0.  1.
<scales pt_clust_5="13000.00000" pt_clust_6="13000.00000" pt_clust_7="13000.00000" pt_clust_8="13000.00000" pt_clust_9="116.17567" pt_clust_10="13000.00000"></scales>
<clustering>
<clus scale="   88.028">  7  8 -1 -1</clus>
<clus scale="   91.823">  5  6 -1 -1</clus>
<clus scale="   41.248">  5 10 -1 -1</clus>
<clus scale="  108.116">  2  7  1 -1</clus>
<clus scale="  116.176">  1  9  2 -1</clus>
<clus scale="  116.176">  1  5  2 -1</clus>
</clustering>
</event>
<event>
10    2  0.5921424E-006  0.3298580E+03  0.7546771E-02  0.1114954E+00
         21   -1    0    0  501  502  0.00000000000E+00  0.00000000000E+00  0.34859305076E+03  0.34859305076E+03  0.00000000000E+00 0. -1.
         -2   -1    0    0    0  501 -0.00000000000E+00 -0.00000000000E+00 -0.23017211688E+03  0.23017211688E+03  0.00000000000E+00 0.  1.
         23    2    1    2    0    0  0.80883509234E+01 -0.83431739798E+02  0.16718513047E+03  0.20359327998E+03  0.80455448397E+02 0.  0.
         23    2    1    2    0    0  0.23008570516E+02 -0.17516016136E+02 -0.17917573227E+03  0.20387048081E+03  0.92860243227E+02 0.  0.
        -11    1    3    3    0    0  0.11029429316E+02 -0.49637834527E+02  0.16135098284E+03  0.16917358716E+03  0.00000000000E+00 0. -1.
         11    1    3    3    0    0 -0.29410783928E+01 -0.33793905270E+02  0.58341476275E+01  0.34419692823E+02  0.00000000000E+00 0.  1.
        -13    1    4    4    0    0  0.39290061253E+02  0.20321365112E+02 -0.14075475876E+03  0.14754175310E+03  0.00000000000E+00 0. -1.
         13    1    4    4    0    0 -0.16281490737E+02 -0.37837381248E+02 -0.38420973515E+02  0.56328727717E+02  0.00000000000E+00 0.  1.
         21    1    1    2  503  502 -0.17232832928E+02  0.29046369274E+02  0.21412317477E+02  0.39989366567E+02  0.00000000000E+00 0. -1.
         -2    1    1    2    0  503 -0.13864088512E+02  0.71901386660E+02  0.10899921821E+03  0.13131204029E+03  0.00000000000E+00 0.  1.
<scales pt_clust_5="13000.00000" pt_clust_6="13000.00000" pt_clust_7="13000.00000" pt_clust_8="13000.00000" pt_clust_9="33.77369" pt_clust_10="13000.00000"></scales>
<clustering>
<clus scale="   33.774">  1  9  2 -1</clus>
<clus scale="   80.455">  5  6 -1 -1</clus>
<clus scale="   92.860">  7  8 -1 -1</clus>
<clus scale="   85.349">  7 10 -1 -1</clus>
<clus scale="  104.394">  2  5  1 -1</clus>
<clus scale="   33.774">  1  5  2 -1</clus>
</clustering>
</event>
<event>
10    2  0.5921424E-006  0.2284128E+03  0.7546771E-02  0.1136000E+00
         21   -1    0    0  501  502  0.00000000000E+00  0.00000000000E+00  0.12849668931E+03  0.12849668931E+03  0.00000000000E+00 0. -1.
          1   -1    0    0  503    0 -0.00000000000E+00 -0.00000000000E+00 -0.87314879698E+03  0.87314879698E+03  0.00000000000E+00 0. -1.
         23    2    1    2    0    0 -0.16127370149E+03  0.45603512309E+00 -0.40394907843E+03  0.44500893971E+03  0.94067442288E+02 0.  0.
         23    2    1    2    0    0 -0.10204149762E+02 -0.22372549328E+02 -0.27176270406E+03  0.28827421640E+03  0.92964514125E+02 0.  0.
        -13    1    3    3    0    0 -0.81030717567E+02  0.43457639733E+02 -0.15876922756E+03  0.18347264445E+03  0.00000000000E+00 0.  1.
         13    1    3    3    0    0 -0.80242983924E+02 -0.43001604610E+02 -0.24517985087E+03  0.26153629526E+03  0.00000000000E+00 0. -1.
        -13    1    4    4    0    0  0.33582269524E+02 -0.56016048994E+00 -0.44201831022E+02  0.55514723018E+02  0.00000000000E+00 0.  1.
         13    1    4    4    0    0 -0.43786419285E+02 -0.21812388838E+02 -0.22756087304E+03  0.23275949338E+03  0.00000000000E+00 0. -1.
         21    1    1    2  503  502  0.21404609480E+03  0.26700843495E+02 -0.49450790698E+02  0.22130080534E+03  0.00000000000E+00 0. -1.
          1    1    1    2  501    0 -0.42568243549E+02 -0.47843292898E+01 -0.19489534481E+02  0.47061524836E+02  0.00000000000E+00 0. -1.
<scales pt_clust_5="13000.00000" pt_clust_6="13000.00000" pt_clust_7="13000.00000" pt_clust_8="13000.00000" pt_clust_9="167.54896" pt_clust_10="13000.00000"></scales>
<clustering>
<clus scale="   92.965">  7  8 -1 -1</clus>
<clus scale="   42.836">  7 10 -1 -1</clus>
<clus scale="   94.067">  5  6 -1 -1</clus>
<clus scale="  186.703">  2  5  1 -1</clus>
<clus scale="  167.549">  1  9  2 -1</clus>
<clus scale="  167.549">  1  5  2 -1</clus>
</clustering>
</event>
<event>
10    2  0.5921424E-006  0.2077726E+03  0.7546771E-02  0.1176273E+00
          1   -1    0    0  503    0 -0.00000000000E+00  0.00000000000E+00  0.51683685457E+03  0.51683685457E+03  0.00000000000E+00 0. -1.
         21   -1    0    0  501  502  0.00000000000E+00 -0.00000000000E+00 -0.15198600059E+03  0.15198600059E+03  0.00000000000E+00 0. -1.
         23    2    1    2    0    0 -0.58831581579E+01 -0.53202709826E+02 -0.61875334662E+02  0.12207365140E+03  0.90599555426E+02 0.  0.
         23    2    1    2    0    0 -0.23241677689E+02 -0.63282900449E+02  0.21240877334E+03  0.24063780728E+03  0.90797391099E+02 0.  0.
        -13    1    3    3    0    0  0.15847785376E+00  0.24512539633E+02 -0.36607074141E+01  0.24784884370E+02  0.00000000000E+00 0.  1.
         13    1    3    3    0    0 -0.60416360117E+01 -0.77715249459E+02 -0.58214627248E+02  0.97288767028E+02  0.00000000000E+00 0. -1.
        -13    1    4    4    0    0  0.29504667577E+02 -0.49683804387E+02  0.12386685449E+03  0.13668212563E+03  0.00000000000E+00 0.  1.
         13    1    4    4    0    0 -0.52746345266E+02 -0.13599096062E+02  0.88541918851E+02  0.10395568165E+03  0.00000000000E+00 0. -1.
         21    1    1    2  503  502  0.16696085030E+02  0.25945089909E+02 -0.31356260966E+02  0.43990022136E+02  0.00000000000E+00 0. -1.
          1    1    1    2  501    0  0.12428750816E+02  0.90540520366E+02  0.24567367627E+03  0.26212137434E+03  0.00000000000E+00 0. -1.
<scales pt_clust_5="13000.00000" pt_clust_6="13000.00000" pt_clust_7="13000.00000" pt_clust_8="13000.00000" pt_clust_9="30.85299" pt_clust_10="13000.00000"></scales>
<clustering>
<clus scale="   30.853">  2  9  1 -1</clus>
<clus scale="   90.600">  5  6 -1 -1</clus>
<clus scale="   90.797">  7  8 -1 -1</clus>
<clus scale="   93.407">  7 10 -1 -1</clus>
<clus scale="   96.490">  1  5  2 -1</clus>
<clus scale="   30.853">  2  5  1 -1</clus>
</clustering>
</event>
<event>
10    2  0.5921424E-006  0.1753066E+03  0.7546771E-02  0.1191187E+00
         21   -1    0    0  501  502  0.00000000000E+00  0.00000000000E+00  0.64187030570E+03  0.64187030570E+03  0.00000000000E+00 0. -1.
          1   -1    0    0  503    0 -0.00000000000E+00 -0.00000000000E+00 -0.70372130650E+02  0.70372130650E+02  0.00000000000E+00 0. -1.
         23    2    1    2    0    0  0.57443676240E+02 -0.26830069814E+02  0.45703618285E+02  0.11972125059E+03  0.90690289070E+02 0.  0.
         23    2    1    2    0    0 -0.50407465309E+02  0.97684487014E+01  0.16810458185E+03  0.19879850027E+03  0.92872806145E+02 0.  0.
        -13    1    3    3    0    0  0.25277803864E+02  0.24553594251E+02  0.47414375306E+02  0.59075962493E+02  0.00000000000E+00 0.  1.
         13    1    3    3    0    0  0.32165872376E+02 -0.51383664065E+02 -0.17107570210E+01  0.60645288094E+02  0.00000000000E+00 0. -1.
        -13    1    4    4    0    0  0.60948065206E+01 -0.34064980489E+02  0.54030311616E+02  0.64162638159E+02  0.00000000000E+00 0.  1.
         13    1    4    4    0    0 -0.56502271830E+02  0.43833429191E+02  0.11407427023E+03  0.13463586211E+03  0.00000000000E+00 0. -1.
         21    1    1    2  503  502  0.34617057557E+02 -0.47731469820E+02  0.52454889794E+02  0.78918624851E+02  0.00000000000E+00 0. -1.
          1    1    1    2  501    0 -0.41653268487E+02  0.64793090932E+02  0.30523508512E+03  0.31480406065E+03  0.00000000000E+00 0. -1.
<scales pt_clust_5="13000.00000" pt_clust_6="13000.00000" pt_clust_7="13000.00000" pt_clust_8="13000.00000" pt_clust_9="58.96302" pt_clust_10="13000.00000"></scales>
<clustering>
<clus scale="   58.963">  1  9  2 -1</clus>
<clus scale="   90.690">  5  6 -1 -1</clus>
<clus scale="   92.873">  7  8 -1 -1</clus>
<clus scale="   45.386">  7 10 -1 -1</clus>
<clus scale="  115.129">  2  5  1 -1</clus>
<clus scale="   58.963">  1  5  2 -1</clus>
</clustering>
</event>
<event>
10    2  0.5921424E-006  0.2390467E+03  0.7546771E-02  0.1124383E+00
         -1   -1    0    0    0  501 -0.00000000000E+00  0.00000000000E+00  0.78639984351E+03  0.78639984351E+03  0.00000000000E+00 0.  1.
         21   -1    0    0  503  502  0.00000000000E+00 -0.00000000000E+00 -0.90797685163E+02  0.90797685163E+02  0.00000000000E+00 0.  1.
         23    2    1    2    0    0  0.90434296446E+02 -0.18555808675E+03  0.17807564938E+03  0.28989564216E+03  0.98581848783E+02 0.  0.
         23    2    1    2    0    0 -0.87694017797E+02  0.11205924330E+03  0.33565366757E+03  0.37563870703E+03  0.90518168892E+02 0.  0.
        -13    1    4    4    0    0 -0.86568228411E+02  0.73991517601E+02  0.16304207409E+03  0.19887564147E+03  0.00000000000E+00 0.  1.
         13    1    4    4    0    0 -0.11257893869E+01  0.38067725694E+02  0.17261159349E+03  0.17676306556E+03  0.00000000000E+00 0. -1.
        -13    1    3    3    0    0  0.15351766256E+02 -0.85876113214E+02  0.12914897755E+03  0.15585198731E+03  0.00000000000E+00 0. -1.
         13    1    3    3    0    0  0.75082530190E+02 -0.99681973538E+02  0.48926671829E+02  0.13404365485E+03  0.00000000000E+00 0.  1.
         21    1    1    2  503  501 -0.19875075931E+02  0.12508650666E+02  0.53066891889E+01  0.24075837159E+02  0.00000000000E+00 0.  1.
         -1    1    1    2    0  502  0.17134797282E+02  0.60990192790E+02  0.17656615221E+03  0.18758734232E+03  0.00000000000E+00 0.  1.
<scales pt_clust_5="13000.00000" pt_clust_6="13000.00000" pt_clust_7="13000.00000" pt_clust_8="13000.00000" pt_clust_9="23.48372" pt_clust_10="13000.00000"></scales>
<clustering>
<clus scale="   23.484">  2  9  1 -1</clus>
<clus scale="   90.518">  5  6 -1 -1</clus>
<clus scale="   63.821">  5 10 -1 -1</clus>
<clus scale="   98.582">  7  8 -1 -1</clus>
<clus scale="  216.638">  1  7  2 -1</clus>
<clus scale="   23.484">  2  5  1 -1</clus>
</clustering>
</event>
<event>
10    2  0.5921424E-006  0.4220529E+03  0.7546771E-02  0.1038126E+00
          2   -1    0    0  503    0 -0.00000000000E+00  0.00000000000E+00  0.14978431838E+04  0.14978431838E+04  0.00000000000E+00 0. -1.
         21   -1    0    0  501  502  0.00000000000E+00 -0.00000000000E+00 -0.22457085617E+03  0.22457085617E+03  0.00000000000E+00 0. -1.
         23    2    1    2    0    0  0.27145228898E+03 -0.27955209558E+03  0.28688032561E+03  0.49200302389E+03  0.89055796897E+02 0.  0.
         23    2    1    2    0    0 -0.11731477602E+03  0.10315111056E+03  0.53311445808E+03  0.56302752253E+03  0.91575419347E+02 0.  0.
        -11    1    4    4    0    0 -0.45385547392E+00  0.20905438365E+02  0.15444052150E+02  0.25995424306E+02  0.00000000000E+00 0.  1.
         11    1    4    4    0    0 -0.11686092054E+03  0.82245672193E+02  0.51767040593E+03  0.53703209822E+03  0.00000000000E+00 0. -1.
        -11    1    3    3    0    0  0.24117041448E+03 -0.23106807479E+03  0.20416688476E+03  0.39145847907E+03  0.00000000000E+00 0. -1.
         11    1    3    3    0    0  0.30281874499E+02 -0.48484020795E+02  0.82713440849E+02  0.10054454482E+03  0.00000000000E+00 0.  1.
         21    1    1    2  503  502 -0.15645327224E+02 -0.17615871778E+02 -0.79923366579E+02  0.83323704477E+02  0.00000000000E+00 0. -1.
          2    1    1    2  501    0 -0.13849218574E+03  0.19401685680E+03  0.53320091054E+03  0.58405978909E+03  0.00000000000E+00 0. -1.
<scales pt_clust_5="13000.00000" pt_clust_6="13000.00000" pt_clust_7="13000.00000" pt_clust_8="13000.00000" pt_clust_9="23.56046" pt_clust_10="13000.00000"></scales>
<clustering>
<clus scale="   23.560">  2  9  1 -1</clus>
<clus scale="   89.056">  7  8 -1 -1</clus>
<clus scale="   91.575">  5  6 -1 -1</clus>
<clus scale="  237.477">  5 10 -1 -1</clus>
<clus scale="  401.279">  1  7  2 -1</clus>
<clus scale="   23.560">  2  5  1 -1</clus>
</clustering>
</event>
<event>
10    2  0.5921424E-006  0.2462994E+03  0.7546771E-02  0.1126514E+00
          1   -1    0    0  503    0 -0.00000000000E+00  0.00000000000E+00  0.70421100002E+03  0.70421100002E+03  0.00000000000E+00 0. -1.
         21   -1    0    0  501  502  0.00000000000E+00 -0.00000000000E+00 -0.11170514835E+03  0.11170514835E+03  0.00000000000E+00 0.  1.
         23    2    1    2    0    0  0.16733570837E+03 -0.67053969987E+02  0.41847577461E+03  0.46500940381E+03  0.92813239957E+02 0.  0.
         23    2    1    2    0    0 -0.68405331096E+02 -0.26143281387E+02  0.48804037965E+02  0.12493698460E+03  0.88682893022E+02 0.  0.
        -11    1    4    4    0    0 -0.17799173317E+01 -0.45459517704E+02  0.16253082775E+02  0.48310439403E+02  0.00000000000E+00 0.  1.
         11    1    4    4    0    0 -0.66625413764E+02  0.19316236317E+02  0.32550955190E+02  0.76626545195E+02  0.00000000000E+00 0. -1.
        -13    1    3    3    0    0  0.40624786874E+01 -0.34283024467E+02  0.51303377621E+02  0.61837416303E+02  0.00000000000E+00 0.  1.
         13    1    3    3    0    0  0.16327322968E+03 -0.32770945520E+02  0.36717239699E+03  0.40317198751E+03  0.00000000000E+00 0. -1.
         21    1    1    2  503  502 -0.52814245076E+02  0.14448410849E+02 -0.16692056517E+02  0.57242692195E+02  0.00000000000E+00 0.  1.
          1    1    1    2  501    0 -0.46116132196E+02  0.78748840526E+02  0.14191809561E+03  0.16872706776E+03  0.00000000000E+00 0. -1.
<scales pt_clust_5="13000.00000" pt_clust_6="13000.00000" pt_clust_7="13000.00000" pt_clust_8="13000.00000" pt_clust_9="54.75492" pt_clust_10="13000.00000"></scales>
<clustering>
<clus scale="   54.755">  2  9  1 -1</clus>
<clus scale="   88.683">  5  6 -1 -1</clus>
<clus scale="   92.813">  7  8 -1 -1</clus>
<clus scale="   98.521">  5 10 -1 -1</clus>
<clus scale="  187.874">  1  7  2 -1</clus>
<clus scale="   54.755">  2  5  1 -1</clus>
</clustering>
</event>
<event>
10    2  0.5921424E-006  0.4293219E+03  0.7546771E-02  0.1034675E+00
         21   -1    0    0  501  502  0.00000000000E+00  0.00000000000E+00  0.27883378490E+03  0.27883378490E+03  0.00000000000E+00 0. -1.
          1   -1    0    0  503    0 -0.00000000000E+00 -0.00000000000E+00 -0.83137131287E+03  0.83137131287E+03  0.00000000000E+00 0. -1.
         23    2    1    2    0    0 -0.34033430332E+03 -0.14914347455E+03 -0.59996743811E+02  0.38681895494E+03  0.89208074855E+02 0.  0.
         23    2    1    2    0    0  0.27659240618E+03  0.92029946977E+02 -0.32067570265E+03  0.44276207049E+03  0.90732984643E+02 0.  0.
        -13    1    4    4    0    0  0.25862066136E+03  0.68578217563E+02 -0.25008637550E+03  0.36623873855E+03  0.00000000000E+00 0.  1.
         13    1    4    4    0    0  0.17971744825E+02  0.23451729413E+02 -0.70589327149E+02  0.76523331944E+02  0.00000000000E+00 0. -1.
        -13    1    3    3    0    0 -0.12086912499E+03 -0.17921896841E+02  0.72999638740E+01  0.12240845247E+03  0.00000000000E+00 0.  1.
         13    1    3    3    0    0 -0.21946517832E+03 -0.13122157771E+03 -0.67296707685E+02  0.26441050247E+03  0.00000000000E+00 0. -1.
         21    1    1    2  503  502 -0.60766485296E+02 -0.17862730975E+02 -0.11814872605E+02  0.64430071456E+02  0.00000000000E+00 0.  1.
          1    1    1    2  501    0  0.12450838243E+03  0.74976258551E+02 -0.16005020890E+03  0.21619400087E+03  0.00000000000E+00 0. -1.
<scales pt_clust_5="13000.00000" pt_clust_6="13000.00000" pt_clust_7="13000.00000" pt_clust_8="13000.00000" pt_clust_9="63.33753" pt_clust_10="13000.00000"></scales>
<clustering>
<clus scale="   63.338">  1  9  2 -1</clus>
<clus scale="   89.208">  7  8 -1 -1</clus>
<clus scale="   90.733">  5  6 -1 -1</clus>
<clus scale="  138.541">  5 10 -1 -1</clus>
<clus scale="  421.809">  2  7  1 -1</clus>
<clus scale="   63.338">  1  5  2 -1</clus>
</clustering>
</event>
<event>
10    2  0.5921424E-006  0.1693843E+03  0.7546771E-02  0.1190537E+00
         21   -1    0    0  501  502  0.00000000000E+00  0.00000000000E+00  0.16771757442E+03  0.16771757442E+03  0.00000000000E+00 0.  1.
         -1   -1    0    0    0  501 -0.00000000000E+00 -0.00000000000E+00 -0.60781343897E+03  0.60781343897E+03  0.00000000000E+00 0.  1.
         23    2    1    2    0    0  0.77473380802E+02 -0.90320066378E+02 -0.20333953977E+03  0.25327274958E+03  0.92953096346E+02 0.  0.
         23    2    1    2    0    0 -0.18761388359E+02  0.87389926013E+01 -0.18141870980E+03  0.20450525235E+03  0.92093921025E+02 0.  0.
        -11    1    4    4    0    0 -0.42803645357E+02  0.37045931943E+02 -0.97632920407E+02  0.11285716759E+03  0.00000000000E+00 0. -1.
         11    1    4    4    0    0  0.24042256998E+02 -0.28306939342E+02 -0.83785789392E+02  0.91648084762E+02  0.00000000000E+00 0.  1.
        -13    1    3    3    0    0  0.43765100278E+02 -0.66887868526E+02 -0.49430387896E+02  0.93982627149E+02  0.00000000000E+00 0.  1.
         13    1    3    3    0    0  0.33708280523E+02 -0.23432197852E+02 -0.15390915187E+03  0.15929012243E+03  0.00000000000E+00 0. -1.
         21    1    1    2  503  502 -0.65618100661E+02  0.15596524393E+02  0.11590884990E+03  0.13410387091E+03  0.00000000000E+00 0.  1.
         -1    1    1    2    0  503  0.69061082187E+01  0.65984549383E+02 -0.17124646489E+03  0.18364914055E+03  0.00000000000E+00 0.  1.
<scales pt_clust_5="13000.00000" pt_clust_6="13000.00000" pt_clust_7="13000.00000" pt_clust_8="13000.00000" pt_clust_9="67.44618" pt_clust_10="13000.00000"></scales>
<clustering>
<clus scale="   67.446">  1  9  2 -1</clus>
<clus scale="   92.094">  5  6 -1 -1</clus>
<clus scale="   68.299">  5 10 -1 -1</clus>
<clus scale="   92.953">  7  8 -1 -1</clus>
<clus scale="  129.477">  2  7  1 -1</clus>
<clus scale="   67.446">  1  5  2 -1</clus>
</clustering>
</event>
<event>
10    2  0.5921424E-006  0.1486742E+03  0.7546771E-02  0.1209413E+00
         21   -1    0    0  503  502  0.00000000000E+00  0.00000000000E+00  0.21299492796E+03  0.21299492796E+03  0.00000000000E+00 0. -1.
         -1   -1    0    0    0  501 -0.00000000000E+00 -0.00000000000E+00 -0.55564940214E+03  0.55564940214E+03  0.00000000000E+00 0.  1.
         23    2    1    2    0    0  0.60695588901E+02 -0.62492429485E+02 -0.45213724914E+03  0.46918445339E+03  0.90092735486E+02 0.  0.
         23    2    1    2    0    0 -0.60165459969E+02  0.62657357528E+02 -0.42080959852E+02  0.13454208912E+03  0.93728008287E+02 0.  0.
        -13    1    3    3    0    0  0.35667941672E+02 -0.84077117078E+02 -0.35584722718E+03  0.36738047413E+03  0.00000000000E+00 0. -1.
         13    1    3    3    0    0  0.25027647229E+02  0.21584687593E+02 -0.96290021961E+02  0.10180397926E+03  0.00000000000E+00 0.  1.
        -13    1    4    4    0    0 -0.26895445809E+02 -0.20375414775E+02  0.38985873891E+01  0.33966476357E+02  0.00000000000E+00 0. -1.
         13    1    4    4    0    0 -0.33270014160E+02  0.83032772302E+02 -0.45979547241E+02  0.10057561276E+03  0.00000000000E+00 0.  1.
         21    1    1    2  503  501  0.15353403072E+02 -0.16920400684E+02  0.13393404582E+03  0.13586889112E+03  0.00000000000E+00 0. -1.
         -1    1    1    2    0  502 -0.15883532004E+02  0.16755472641E+02  0.17629688986E+02  0.29048896470E+02  0.00000000000E+00 0.  1.
<scales pt_clust_5="13000.00000" pt_clust_6="13000.00000" pt_clust_7="13000.00000" pt_clust_8="13000.00000" pt_clust_9="22.84791" pt_clust_10="13000.00000"></scales>
<clustering>
<clus scale="   22.848">  1  9  2 -1</clus>
<clus scale="   90.093">  5  6 -1 -1</clus>
<clus scale="   93.728">  7  8 -1 -1</clus>
<clus scale="   16.261">  7 10 -1 -1</clus>
<clus scale="  127.069">  2  5  1 -1</clus>
<clus scale="   22.848">  1  5  2 -1</clus>
</clustering>
</event>
<event>
10    2  0.5921424E-006  0.1858487E+03  0.7546771E-02  0.1192280E+00
         -3   -1    0    0    0  501 -0.00000000000E+00  0.00000000000E+00  0.46081552195E+03  0.46081552195E+03  0.00000000000E+00 0.  1.
         21   -1    0    0  501  502  0.00000000000E+00 -0.00000000000E+00 -0.22544949545E+03  0.22544949545E+03  0.00000000000E+00 0. -1.
         23    2    1    2    0    0 -0.58094759150E+02 -0.30440501930E+02  0.11919059404E+03  0.16457434061E+03  0.92610424253E+02 0.  0.
         23    2    1    2    0    0  0.14284366806E+02  0.14304715378E+02  0.24480665472E+03  0.26127299287E+03  0.89020281915E+02 0.  0.
        -11    1    3    3    0    0 -0.24333326573E+02  0.32374041774E+02  0.57191265776E+02  0.70078743167E+02  0.00000000000E+00 0.  1.
         11    1    3    3    0    0 -0.33761432577E+02 -0.62814543703E+02  0.61999328261E+02  0.94495597438E+02  0.00000000000E+00 0. -1.
        -11    1    4    4    0    0  0.34436581400E+02  0.35500961108E+02  0.81232850376E+02  0.95105059583E+02  0.00000000000E+00 0. -1.
         11    1    4    4    0    0 -0.20152214594E+02 -0.21196245730E+02  0.16357380435E+03  0.16616793329E+03  0.00000000000E+00 0.  1.
         21    1    1    2  503  502  0.99980367111E+02  0.48573528427E+02 -0.15471580208E+03  0.19050575027E+03  0.00000000000E+00 0. -1.
         -3    1    1    2    0  503 -0.56169974767E+02 -0.32437741875E+02  0.26084579822E+02  0.69911933658E+02  0.00000000000E+00 0.  1.
<scales pt_clust_5="13000.00000" pt_clust_6="13000.00000" pt_clust_7="13000.00000" pt_clust_8="13000.00000" pt_clust_9="111.15512" pt_clust_10="13000.00000"></scales>
<clustering>
<clus scale="   89.020">  7  8 -1 -1</clus>
<clus scale="   64.864">  7 10 -1 -1</clus>
<clus scale="   92.610">  5  6 -1 -1</clus>
<clus scale="  111.155">  2  9  1 -1</clus>
<clus scale="   94.330">  1  5  2 -1</clus>
<clus scale="  111.155">  2  5  1 -1</clus>
</clustering>
</event>
<event>
10    2  0.1084611E-005  0.6429275E+03  0.7546771E-02  0.1038257E+00
         21   -1    0    0  501  502  0.00000000000E+00  0.00000000000E+00  0.49849774452E+03  0.49849774452E+03  0.00000000000E+00 0. -1.
          1   -1    0    0  503    0 -0.00000000000E+00 -0.00000000000E+00 -0.10927491644E+04  0.10927491644E+04  0.00000000000E+00 0. -1.
         23    2    1    2    0    0  0.10385699794E+02  0.75605294774E+02 -0.23887932809E+02  0.11557828779E+03  0.83448690322E+02 0.  0.
         23    2    1    2    0    0  0.13609571171E+01  0.70300516200E+02 -0.22607502532E+03  0.25404668899E+03  0.92118338736E+02 0.  0.
        -11    1    3    3    0    0  0.22762094132E+02  0.50594683273E+02 -0.51948833657E+02  0.76004053991E+02  0.00000000000E+00 0. -1.
         11    1    3    3    0    0 -0.12376394338E+02  0.25010611501E+02  0.28060900847E+02  0.39574233799E+02  0.00000000000E+00 0.  1.
        -11    1    4    4    0    0 -0.45234108840E+02  0.31219763774E+02 -0.10178993627E+03  0.11568054884E+03  0.00000000000E+00 0. -1.
         11    1    4    4    0    0  0.46595065957E+02  0.39080752427E+02 -0.12428508904E+03  0.13836614015E+03  0.00000000000E+00 0.  1.
         21    1    1    2  503  502 -0.28354432373E+03 -0.52083668291E+03  0.73971458766E+02  0.59761192299E+03  0.00000000000E+00 0. -1.
          1    1    1    2  501    0  0.27179766682E+03  0.37493087194E+03 -0.41825992055E+03  0.62401000918E+03  0.00000000000E+00 0. -1.
<scales pt_clust_5="13000.00000" pt_clust_6="13000.00000" pt_clust_7="13000.00000" pt_clust_8="13000.00000" pt_clust_9="574.79246" pt_clust_10="13000.00000"></scales>
<clustering>
<clus scale="   83.449">  5  6 -1 -1</clus>
<clus scale="   92.118">  7  8 -1 -1</clus>
<clus scale="  113.083">  2  5  1 -1</clus>
<clus scale="  497.710">  7 10 -1 -1</clus>
<clus scale="  574.792">  1  9  2 -1</clus>
<clus scale="  574.792">  1  5  2 -1</clus>
</clustering>
</event>
<event>
10    2  0.5921424E-006  0.2739600E+03  0.7546771E-02  0.1111275E+00
         21   -1    0    0  503  502  0.00000000000E+00  0.00000000000E+00  0.10374661426E+03  0.10374661426E+03  0.00000000000E+00 0.  1.
         -1   -1    0    0    0  501 -0.00000000000E+00 -0.00000000000E+00 -0.79595536164E+03  0.79595536164E+03  0.00000000000E+00 0.  1.
         23    2    1    2    0    0 -0.39662690360E+02  0.17545631763E+03 -0.44092886109E+03  0.48469849035E+03  0.90312333622E+02 0.  0.
         23    2    1    2    0    0 -0.28742128440E+02 -0.13784018900E+00 -0.62745008583E+02  0.11357456949E+03  0.90200431187E+02 0.  0.
        -11    1    4    4    0    0  0.26768336526E+02 -0.87788175970E+01  0.15249641273E+01  0.28212355350E+02  0.00000000000E+00 0.  1.
         11    1    4    4    0    0 -0.55510464966E+02  0.86409774080E+01 -0.64269972710E+02  0.85362214143E+02  0.00000000000E+00 0. -1.
        -13    1    3    3    0    0 -0.52034810694E+02  0.10527640074E+03 -0.34997722813E+03  0.36915417143E+03  0.00000000000E+00 0.  1.
         13    1    3    3    0    0  0.12372120334E+02  0.70179916893E+02 -0.90951632962E+02  0.11554431892E+03  0.00000000000E+00 0. -1.
         21    1    1    2  503  501  0.54857876285E+02  0.43270578321E+01 -0.43250286012E+02  0.69990694097E+02  0.00000000000E+00 0. -1.
         -1    1    1    2    0  502  0.13546942515E+02 -0.17964553528E+03 -0.14528459170E+03  0.23143822195E+03  0.00000000000E+00 0.  1.
<scales pt_clust_5="13000.00000" pt_clust_6="13000.00000" pt_clust_7="13000.00000" pt_clust_8="13000.00000" pt_clust_9="55.02827" pt_clust_10="13000.00000"></scales>
<clustering>
<clus scale="   55.028">  1  9  2 -1</clus>
<clus scale="   90.200">  5  6 -1 -1</clus>
<clus scale="   90.312">  7  8 -1 -1</clus>
<clus scale="  181.965">  5 10 -1 -1</clus>
<clus scale="  200.015">  2  7  1 -1</clus>
<clus scale="   55.028">  1  5  2 -1</clus>
</clustering>
</event>
<event>
10    2  0.5921424E-006  0.2102834E+03  0.7546771E-02  0.1182975E+00
          1   -1    0    0  503    0 -0.00000000000E+00  0.00000000000E+00  0.65530630835E+03  0.65530630835E+03  0.00000000000E+00 0. -1.
         21   -1    0    0  501  502  0.00000000000E+00 -0.00000000000E+00 -0.10121407817E+03  0.10121407817E+03  0.00000000000E+00 0. -1.
         23    2    1    2    0    0 -0.21934245687E+01  0.12314755665E+02  0.30348696132E+03  0.31386677115E+03  0.79066744096E+02 0.  0.
         23    2    1    2    0    0  0.55225637152E+02  0.16215832196E+02  0.52720128598E+02  0.11955833008E+03  0.90564662645E+02 0.  0.
        -11    1    4    4    0    0  0.79388611762E+02  0.97647902471E+01  0.28978078459E+02  0.85074272476E+02  0.00000000000E+00 0. -1.
         11    1    4    4    0    0 -0.24162974610E+02  0.64510419492E+01  0.23742050138E+02  0.34484057606E+02  0.00000000000E+00 0.  1.
        -13    1    3    3    0    0  0.37446364692E+02  0.14034000063E+02  0.13699597593E+03  0.14271328182E+03  0.00000000000E+00 0.  1.
         13    1    3    3    0    0 -0.39639789260E+02 -0.17192443983E+01  0.16649098539E+03  0.17115348933E+03  0.00000000000E+00 0. -1.
         21    1    1    2  503  502 -0.80488674397E+02 -0.12482549722E+03  0.15341372806E+03  0.21353127036E+03  0.00000000000E+00 0. -1.
          1    1    1    2  501    0  0.27456461813E+02  0.96294909361E+02  0.44471412195E+02  0.10956401493E+03  0.00000000000E+00 0. -1.
<scales pt_clust_5="13000.00000" pt_clust_6="13000.00000" pt_clust_7="13000.00000" pt_clust_8="13000.00000" pt_clust_9="143.74732" pt_clust_10="13000.00000"></scales>
<clustering>
<clus scale="   79.067">  7  8 -1 -1</clus>
<clus scale="   80.050">  1  7  2 -1</clus>
<clus scale="   90.565">  5  6 -1 -1</clus>
<clus scale="  102.638">  5 10 -1 -1</clus>
<clus scale="  143.747">  2  9  1 -1</clus>
<clus scale="  143.747">  2  5  1 -1</clus>
</clustering>
</event>
<event>
10    2  0.5921424E-006  0.2395975E+03  0.7546771E-02  0.1140791E+00
         21   -1    0    0  503  502  0.00000000000E+00  0.00000000000E+00  0.50997717936E+02  0.50997717936E+02  0.00000000000E+00 0.  1.
         -1   -1    0    0    0  501 -0.00000000000E+00 -0.00000000000E+00 -0.90854849360E+03  0.90854849360E+03  0.00000000000E+00 0.  1.
         23    2    1    2    0    0  0.91710722869E+02 -0.60036899035E+02 -0.35162546924E+03  0.37936293966E+03  0.90887201697E+02 0.  0.
         23    2    1    2    0    0 -0.14870120810E+01  0.14006506370E+02 -0.39572132248E+03  0.40715900279E+03  0.94787631377E+02 0.  0.
        -11    1    4    4    0    0  0.44075108528E+02  0.38427737106E+01 -0.12881040178E+03  0.13619655542E+03  0.00000000000E+00 0. -1.
         11    1    4    4    0    0 -0.45562120609E+02  0.10163732660E+02 -0.26691092070E+03  0.27096244737E+03  0.00000000000E+00 0.  1.
        -13    1    3    3    0    0  0.92305799207E+02 -0.18069370451E+02 -0.18506444582E+03  0.20759506695E+03  0.00000000000E+00 0.  1.
         13    1    3    3    0    0 -0.59507633864E+00 -0.41967528584E+02 -0.16656102342E+03  0.17176787271E+03  0.00000000000E+00 0. -1.
         21    1    1    2  503  501 -0.56700443129E+01 -0.19375727617E+02 -0.10075326432E+01  0.20213444665E+02  0.00000000000E+00 0.  1.
         -1    1    1    2    0  502 -0.84553666475E+02  0.65406120282E+02 -0.10919645131E+03  0.15281082443E+03  0.00000000000E+00 0.  1.
<scales pt_clust_5="13000.00000" pt_clust_6="13000.00000" pt_clust_7="13000.00000" pt_clust_8="13000.00000" pt_clust_9="20.18832" pt_clust_10="13000.00000"></scales>
<clustering>
<clus scale="   20.188">  1  9  2 -1</clus>
<clus scale="   90.887">  7  8 -1 -1</clus>
<clus scale="   94.788">  5  6 -1 -1</clus>
<clus scale="  103.491">  5 10 -1 -1</clus>
<clus scale="  144.057">  2  7  1 -1</clus>
<clus scale="   20.188">  1  5  2 -1</clus>
</clustering>
</event>
<event>
10    2  0.5921424E-006  0.2611429E+03  0.7546771E-02  0.1123619E+00
         21   -1    0    0  503  502  0.00000000000E+00  0.00000000000E+00  0.91182522733E+02  0.91182522733E+02  0.00000000000E+00 0. -1.
          2   -1    0    0  502    0 -0.00000000000E+00 -0.00000000000E+00 -0.84705004307E+03  0.84705004307E+03  0.00000000000E+00 0. -1.
         23    2    1    2    0    0 -0.11610014812E+03 -0.76633517935E+02 -0.51557188591E+03  0.54170256039E+03  0.90968972352E+02 0.  0.
         23    2    1    2    0    0  0.70100462160E+02 -0.13096603512E+02 -0.22012658479E+03  0.24853632005E+03  0.90713798486E+02 0.  0.
        -11    1    3    3    0    0 -0.19742461600E+02  0.19261460427E+02 -0.12923787026E+03  0.13214838538E+03  0.00000000000E+00 0.  1.
         11    1    3    3    0    0 -0.96357686517E+02 -0.95894978362E+02 -0.38633401565E+03  0.40955417502E+03  0.00000000000E+00 0. -1.
        -13    1    4    4    0    0  0.16605106291E+02  0.30285032721E+02 -0.13334157458E+03  0.13774210785E+03  0.00000000000E+00 0.  1.
         13    1    4    4    0    0  0.53495355869E+02 -0.43381636233E+02 -0.86785010207E+02  0.11079421221E+03  0.00000000000E+00 0. -1.
         21    1    1    2  503  501 -0.18355879029E+02 -0.92731213634E+01  0.14224229998E+02  0.25005155344E+02  0.00000000000E+00 0. -1.
          2    1    1    2  501    0  0.64355564987E+02  0.99003242810E+02 -0.34393279638E+02  0.12298853002E+03  0.00000000000E+00 0. -1.
<scales pt_clust_5="13000.00000" pt_clust_6="13000.00000" pt_clust_7="13000.00000" pt_clust_8="13000.00000" pt_clust_9="20.56524" pt_clust_10="13000.00000"></scales>
<clustering>
<clus scale="   20.565">  1  9  2 -1</clus>
<clus scale="   90.714">  7  8 -1 -1</clus>
<clus scale="   90.969">  5  6 -1 -1</clus>
<clus scale="  107.268">  7 10 -1 -1</clus>
<clus scale="  169.349">  2  5  1 -1</clus>
<clus scale="   20.565">  1  5  2 -1</clus>
</clustering>
</event>
<event>
10    2  0.5921424E-006  0.2167801E+03  0.7546771E-02  0.1168125E+00
         21   -1    0    0  501  502  0.00000000000E+00  0.00000000000E+00  0.71317156588E+02  0.71317156588E+02  0.00000000000E+00 0. -1.
          1   -1    0    0  503    0 -0.00000000000E+00 -0.00000000000E+00 -0.82392189921E+03  0.82392189921E+03  0.00000000000E+00 0. -1.
         23    2    1    2    0    0 -0.71985167911E+01  0.33332737739E+02 -0.45160208045E+03  0.46246349725E+03  0.93622418090E+02 0.  0.
         23    2    1    2    0    0 -0.80684811732E+01  0.20134772953E+02 -0.22529449917E+03  0.23709003425E+03  0.70594358920E+02 0.  0.
        -13    1    3    3    0    0 -0.67900228336E+01 -0.30107317566E+02 -0.85382488318E+02  0.90789450337E+02  0.00000000000E+00 0.  1.
         13    1    3    3    0    0 -0.40849395750E+00  0.63440055305E+02 -0.36621959213E+03  0.37167404691E+03  0.00000000000E+00 0. -1.
        -13    1    4    4    0    0  0.24428438301E+02 -0.11551026909E+02 -0.62599117735E+02  0.68182287741E+02  0.00000000000E+00 0.  1.
         13    1    4    4    0    0 -0.32496919474E+02  0.31685799862E+02 -0.16269538144E+03  0.16890774651E+03  0.00000000000E+00 0. -1.
         21    1    1    2  503  502 -0.37325852501E+01  0.62063350289E+02 -0.15730946473E+02  0.64134657703E+02  0.00000000000E+00 0. -1.
          1    1    1    2  501    0  0.18999583214E+02 -0.11553086098E+03 -0.59977216527E+02  0.13155086660E+03  0.00000000000E+00 0. -1.
<scales pt_clust_5="13000.00000" pt_clust_6="13000.00000" pt_clust_7="13000.00000" pt_clust_8="13000.00000" pt_clust_9="62.17549" pt_clust_10="13000.00000"></scales>
<clustering>
<clus scale="   62.175">  1  9  2 -1</clus>
<clus scale="   70.594">  7  8 -1 -1</clus>
<clus scale="   70.274">  7 10 -1 -1</clus>
<clus scale="   93.622">  5  6 -1 -1</clus>
<clus scale="  102.286">  2  5  1 -1</clus>
<clus scale="   62.175">  1  5  2 -1</clus>
</clustering>
</event>
<event>
10    2  0.5921424E-006  0.1580452E+03  0.7546771E-02  0.1206891E+00
         21   -1    0    0  503  502  0.00000000000E+00  0.00000000000E+00  0.23140072201E+03  0.23140072201E+03  0.00000000000E+00 0. -1.
         -2   -1    0    0    0  501 -0.00000000000E+00 -0.00000000000E+00 -0.12024279544E+03  0.12024279544E+03  0.00000000000E+00 0.  1.
         23    2    1    2    0    0 -0.35150490455E+02  0.57917879637E+02 -0.22976375675E+02  0.11389724652E+03  0.88626357058E+02 0.  0.
         23    2    1    2    0    0  0.36962352948E+02  0.93066313934E+01  0.10382738645E+03  0.14348617035E+03  0.91407472241E+02 0.  0.
        -11    1    4    4    0    0  0.62540262714E+02  0.26701000149E+02  0.68300936630E+02  0.96380733624E+02  0.00000000000E+00 0.  1.
         11    1    4    4    0    0 -0.25577909766E+02 -0.17394368756E+02  0.35526449823E+02  0.47105436729E+02  0.00000000000E+00 0. -1.
        -13    1    3    3    0    0 -0.56085996284E+01  0.75689364919E+02 -0.80268416066E+01  0.76320158136E+02  0.00000000000E+00 0.  1.
         13    1    3    3    0    0 -0.29541890826E+02 -0.17771485283E+02 -0.14949534068E+02  0.37577088386E+02  0.00000000000E+00 0. -1.
         21    1    1    2  503  501 -0.28252303032E+02 -0.18475715628E+02  0.12844541559E+02  0.36118235594E+02  0.00000000000E+00 0. -1.
         -2    1    1    2    0  502  0.26440440539E+02 -0.48748795402E+02  0.17462374238E+02  0.58141864978E+02  0.00000000000E+00 0.  1.
<scales pt_clust_5="13000.00000" pt_clust_6="13000.00000" pt_clust_7="13000.00000" pt_clust_8="13000.00000" pt_clust_9="33.75714" pt_clust_10="13000.00000"></scales>
<clustering>
<clus scale="   33.757">  1  9  2 -1</clus>
<clus scale="   88.626">  7  8 -1 -1</clus>
<clus scale="   91.407">  5  6 -1 -1</clus>
<clus scale="   56.300">  5 10 -1 -1</clus>
<clus scale="  111.651">  2  7  1 -1</clus>
<clus scale="   33.757">  1  5  2 -1</clus>
</clustering>
</event>
<event>
10    2  0.5921424E-006  0.2090274E+03  0.7546771E-02  0.1161542E+00
         21   -1    0    0  501  502  0.00000000000E+00  0.00000000000E+00  0.21536064002E+03  0.21536064002E+03  0.00000000000E+00 0.  1.
          1   -1    0    0  503    0 -0.00000000000E+00 -0.00000000000E+00 -0.17992847059E+03  0.17992847059E+03  0.00000000000E+00 0. -1.
         23    2    1    2    0    0  0.68551081720E+01  0.74087570913E+02 -0.23925028854E+02  0.13177533360E+03  0.10609604548E+03 0.  0.
         23    2    1    2    0    0  0.26950729394E+02 -0.17338038312E+02 -0.52486925330E+02  0.10947379687E+03  0.90568678262E+02 0.  0.
        -13    1    4    4    0    0  0.17755254480E+02 -0.41309004055E+02 -0.66461924175E+02  0.80242571262E+02  0.00000000000E+00 0. -1.
         13    1    4    4    0    0  0.91954749135E+01  0.23970965743E+02  0.13974998845E+02  0.29231225603E+02  0.00000000000E+00 0.  1.
        -13    1    3    3    0    0 -0.42592525358E+02  0.13161806532E+02 -0.28938315112E+02  0.53148682477E+02  0.00000000000E+00 0. -1.
         13    1    3    3    0    0  0.49447633529E+02  0.60925764380E+02  0.50132862576E+01  0.78626651119E+02  0.00000000000E+00 0.  1.
         21    1    1    2  503  502 -0.22562692476E+02  0.18635353488E+02  0.37510295330E+02  0.47574927715E+02  0.00000000000E+00 0.  1.
          1    1    1    2  501    0 -0.11243145090E+02 -0.75384886089E+02  0.74333828289E+02  0.10646505244E+03  0.00000000000E+00 0. -1.
<scales pt_clust_5="13000.00000" pt_clust_6="13000.00000" pt_clust_7="13000.00000" pt_clust_8="13000.00000" pt_clust_9="29.26348" pt_clust_10="13000.00000"></scales>
<clustering>
<clus scale="   29.263">  1  9  2 -1</clus>
<clus scale="   90.569">  5  6 -1 -1</clus>
<clus scale="   69.565">  5 10 -1 -1</clus>
<clus scale="  106.096">  7  8 -1 -1</clus>
<clus scale="  132.819">  2  7  1 -1</clus>
<clus scale="   29.263">  1  5  2 -1</clus>
</clustering>
</event>
<event>
10    2  0.5921424E-006  0.2951599E+03  0.7546771E-02  0.1108298E+00
          1   -1    0    0  502    0 -0.00000000000E+00  0.00000000000E+00  0.21324906282E+03  0.21324906282E+03  0.00000000000E+00 0. -1.
         21   -1    0    0  503  502  0.00000000000E+00 -0.00000000000E+00 -0.33716623173E+03  0.33716623173E+03  0.00000000000E+00 0. -1.
         23    2    1    2    0    0 -0.70270604317E+02 -0.11884354344E+03 -0.32327074699E+02  0.16959218229E+03  0.93030763124E+02 0.  0.
         23    2    1    2    0    0  0.74196871645E+01  0.20191216801E+03 -0.30041972694E+02  0.22428714573E+03  0.92620884620E+02 0.  0.
        -11    1    3    3    0    0  0.53742532456E+01 -0.29069048513E+02 -0.42485745595E+02  0.51758388288E+02  0.00000000000E+00 0. -1.
         11    1    3    3    0    0 -0.75644857563E+02 -0.89774494923E+02  0.10158670896E+02  0.11783379400E+03  0.00000000000E+00 0.  1.
        -11    1    4    4    0    0 -0.34873129102E+01  0.13758716297E+03 -0.62800009102E+02  0.15128195500E+03  0.00000000000E+00 0. -1.
         11    1    4    4    0    0  0.10907000075E+02  0.64325005042E+02  0.32758036408E+02  0.73005190730E+02  0.00000000000E+00 0.  1.
         21    1    1    2  503  501  0.10235130124E+02 -0.27044508567E+02 -0.73288298851E+02  0.78786661820E+02  0.00000000000E+00 0. -1.
          1    1    1    2  501    0  0.52615787029E+02 -0.56024116011E+02  0.11740177331E+02  0.77749304712E+02  0.00000000000E+00 0. -1.
<scales pt_clust_5="13000.00000" pt_clust_6="13000.00000" pt_clust_7="13000.00000" pt_clust_8="13000.00000" pt_clust_9="28.91649" pt_clust_10="13000.00000"></scales>
<clustering>
<clus scale="   28.916">  2  9  1 -1</clus>
<clus scale="   92.621">  7  8 -1 -1</clus>
<clus scale="   80.247">  7 10 -1 -1</clus>
<clus scale="   93.031">  5  6 -1 -1</clus>
<clus scale="  172.542">  1  5  2 -1</clus>
<clus scale="   28.916">  2  5  1 -1</clus>
</clustering>
</event>
<event>
10    2  0.5921424E-006  0.3365790E+03  0.7546771E-02  0.1074371E+00
         -3   -1    0    0    0  501 -0.00000000000E+00  0.00000000000E+00  0.14381941941E+04  0.14381941941E+04  0.00000000000E+00 0.  1.
         21   -1    0    0  503  502  0.00000000000E+00 -0.00000000000E+00 -0.94845469255E+02  0.94845469255E+02  0.00000000000E+00 0.  1.
         23    2    1    2    0    0 -0.26263140045E+03 -0.51119966747E+02  0.91636107959E+03  0.95927606228E+03  0.94363297831E+02 0.  0.
         23    2    1    2    0    0  0.16461742034E+03  0.51965551343E+02  0.12488725319E+03  0.23262040153E+03  0.93360117792E+02 0.  0.
        -11    1    3    3    0    0 -0.14359218153E+03  0.49394622268E+01  0.59326401047E+03  0.61041403900E+03  0.00000000000E+00 0.  1.
         11    1    3    3    0    0 -0.11903921892E+03 -0.56059428973E+02  0.32309706912E+03  0.34886202328E+03  0.00000000000E+00 0. -1.
        -13    1    4    4    0    0  0.45156544536E+02  0.36234897573E+01  0.87341523844E+02  0.98390980175E+02  0.00000000000E+00 0. -1.
         13    1    4    4    0    0  0.11946087580E+03  0.48342061586E+02  0.37545729349E+02  0.13422942136E+03  0.00000000000E+00 0.  1.
         21    1    1    2  503  501 -0.11404903726E+02  0.39202237228E+02  0.61563109640E+02  0.73870858268E+02  0.00000000000E+00 0.  1.
         -3    1    1    2    0  502  0.10941888383E+03 -0.40047821825E+02  0.24053728238E+03  0.26727234123E+03  0.00000000000E+00 0.  1.
<scales pt_clust_5="13000.00000" pt_clust_6="13000.00000" pt_clust_7="13000.00000" pt_clust_8="13000.00000" pt_clust_9="40.82753" pt_clust_10="13000.00000"></scales>
<clustering>
<clus scale="   40.828">  2  9  1 -1</clus>
<clus scale="   93.360">  7  8 -1 -1</clus>
<clus scale="   94.363">  5  6 -1 -1</clus>
<clus scale="  112.981">  7 10 -1 -1</clus>
<clus scale="  284.728">  1  5  2 -1</clus>
<clus scale="   40.828">  2  5  1 -1</clus>
</clustering>
</event>
<event>
10    2  0.5921424E-006  0.1892359E+03  0.7546771E-02  0.1167709E+00
         21   -1    0    0  503  502  0.00000000000E+00  0.00000000000E+00  0.37668171541E+03  0.37668171541E+03  0.00000000000E+00 0.  1.
          4   -1    0    0  502    0 -0.00000000000E+00 -0.00000000000E+00 -0.12244636159E+03  0.12244636159E+03  0.00000000000E+00 0. -1.
         23    2    1    2    0    0 -0.48417151997E+02 -0.13407370153E+03  0.57268669628E+02  0.17734874535E+03  0.88616583700E+02 0.  0.
         23    2    1    2    0    0  0.17096024452E+02  0.20298147497E+02  0.34960752026E+02  0.99559136201E+02  0.89361504996E+02 0.  0.
        -11    1    4    4    0    0  0.50118558067E+02  0.24400519562E+02  0.35841383757E+02  0.66271109898E+02  0.00000000000E+00 0.  1.
         11    1    4    4    0    0 -0.33022533615E+02 -0.41023720649E+01 -0.88063173080E+00  0.33288026303E+02  0.00000000000E+00 0. -1.
        -13    1    3    3    0    0  0.15513517884E+02 -0.17525609015E+02 -0.13224572008E+02  0.26883182723E+02  0.00000000000E+00 0. -1.
         13    1    3    3    0    0 -0.63930669881E+02 -0.11654809251E+03  0.70493241636E+02  0.15046556263E+03  0.00000000000E+00 0.  1.
         21    1    1    2  503  501 -0.38730446927E+01  0.36150263127E+02  0.12341643154E+03  0.12866024084E+03  0.00000000000E+00 0. -1.
          4    1    1    2  501    0  0.35194172237E+02  0.77625290904E+02  0.38589500618E+02  0.93559954604E+02  0.00000000000E+00 0. -1.
<scales pt_clust_5="13000.00000" pt_clust_6="13000.00000" pt_clust_7="13000.00000" pt_clust_8="13000.00000" pt_clust_9="36.35715" pt_clust_10="13000.00000"></scales>
<clustering>
<clus scale="   36.357">  1  9  2 -1</clus>
<clus scale="   88.617">  7  8 -1 -1</clus>
<clus scale="   89.362">  5  6 -1 -1</clus>
<clus scale="   93.615">  5 10 -1 -1</clus>
<clus scale="  155.245">  2  7  1 -1</clus>
<clus scale="   36.357">  1  5  2 -1</clus>
</clustering>
</event>
<event>
10    2  0.5921424E-006  0.2183224E+03  0.7546771E-02  0.1170288E+00
          1   -1    0    0  503    0 -0.00000000000E+00  0.00000000000E+00  0.55157058158E+03  0.55157058158E+03  0.00000000000E+00 0. -1.
         21   -1    0    0  501  502  0.00000000000E+00 -0.00000000000E+00 -0.10009277998E+03  0.10009277998E+03  0.00000000000E+00 0. -1.
         23    2    1    2    0    0 -0.91054771399E+01 -0.22692169669E+02  0.35415322543E+03  0.36675799994E+03  0.92136198955E+02 0.  0.
         23    2    1    2    0    0 -0.12978048174E+02 -0.76411432384E+02  0.62462621461E+02  0.13383805934E+03  0.89464575757E+02 0.  0.
        -11    1    3    3    0    0  0.22074222938E+02  0.25790392747E+02  0.85550667309E+02  0.92039841119E+02  0.00000000000E+00 0.  1.
         11    1    3    3    0    0 -0.31179700078E+02 -0.48482562416E+02  0.26860255812E+03  0.27471815882E+03  0.00000000000E+00 0. -1.
        -13    1    4    4    0    0 -0.31765093105E+02 -0.12862925192E+02  0.58065931036E+02  0.67424982993E+02  0.00000000000E+00 0.  1.
         13    1    4    4    0    0  0.18787044931E+02 -0.63548507192E+02  0.43966904252E+01  0.66413076350E+02  0.00000000000E+00 0. -1.
         21    1    1    2  503  502 -0.39554118512E+02  0.20796803576E+02  0.24263056249E+02  0.50850085829E+02  0.00000000000E+00 0.  1.
          1    1    1    2  501    0  0.61637643826E+02  0.78306798476E+02  0.10598898459E+02  0.10021721645E+03  0.00000000000E+00 0. -1.
<scales pt_clust_5="13000.00000" pt_clust_6="13000.00000" pt_clust_7="13000.00000" pt_clust_8="13000.00000" pt_clust_9="44.68820" pt_clust_10="13000.00000"></scales>
<clustering>
<clus scale="   44.688">  2  9  1 -1</clus>
<clus scale="   89.465">  7  8 -1 -1</clus>
<clus scale="   92.136">  5  6 -1 -1</clus>
<clus scale="   95.295">  1  5  2 -1</clus>
<clus scale="   88.688">  7 10 -1 -1</clus>
<clus scale="   44.688">  2  5  1 -1</clus>
</clustering>
</event>
<event>
10    2  0.5921424E-006  0.3674705E+03  0.7546771E-02  0.1093611E+00
         21   -1    0    0  503  502  0.00000000000E+00  0.00000000000E+00  0.16389211633E+03  0.16389211633E+03  0.00000000000E+00 0. -1.
          2   -1    0    0  502    0 -0.00000000000E+00 -0.00000000000E+00 -0.12189725415E+04  0.12189725415E+04  0.00000000000E+00 0. -1.
         23    2    1    2    0    0 -0.41110515089E+02  0.83823700470E+02  0.53016582553E+01  0.13090809442E+03  0.91609685032E+02 0.  0.
         23    2    1    2    0    0  0.86379407286E+02  0.17204136297E+03 -0.90188326754E+03  0.92671458032E+03  0.91361110628E+02 0.  0.
        -11    1    3    3    0    0 -0.17909516354E+02 -0.12206425192E+02 -0.19384355087E+02  0.29077496696E+02  0.00000000000E+00 0.  1.
         11    1    3    3    0    0 -0.23200998736E+02  0.96030125662E+02  0.24686013342E+02  0.10183059772E+03  0.00000000000E+00 0. -1.
        -13    1    4    4    0    0 -0.73690795575E+01  0.23961283700E+02 -0.40105969155E+02  0.47296249448E+02  0.00000000000E+00 0.  1.
         13    1    4    4    0    0  0.93748486844E+02  0.14808007927E+03 -0.86177729838E+03  0.87941833087E+03  0.00000000000E+00 0. -1.
         21    1    1    2  503  501 -0.82611808285E+02 -0.19442361487E+03 -0.10698672173E+03  0.23679402761E+03  0.00000000000E+00 0. -1.
          2    1    1    2  501    0  0.37342916088E+02 -0.61441448573E+02 -0.51512094149E+02  0.88447955478E+02  0.00000000000E+00 0. -1.
<scales pt_clust_5="13000.00000" pt_clust_6="13000.00000" pt_clust_7="13000.00000" pt_clust_8="13000.00000" pt_clust_9="202.43974" pt_clust_10="13000.00000"></scales>
<clustering>
<clus scale="   91.361">  7  8 -1 -1</clus>
<clus scale="   71.900">  7 10 -1 -1</clus>
<clus scale="   91.610">  5  6 -1 -1</clus>
<clus scale="  130.801">  2  5  1 -1</clus>
<clus scale="  202.440">  1  9  2 -1</clus>
<clus scale="  202.440">  1  5  2 -1</clus>
</clustering>
</event>
<event>
10    2  0.5921424E-006  0.1752082E+03  0.7546771E-02  0.1196219E+00
         21   -1    0    0  501  502  0.00000000000E+00  0.00000000000E+00  0.19474072775E+03  0.19474072775E+03  0.00000000000E+00 0. -1.
         -1   -1    0    0    0  501 -0.00000000000E+00 -0.00000000000E+00 -0.20711580254E+03  0.20711580254E+03  0.00000000000E+00 0.  1.
         23    2    1    2    0    0 -0.48171661117E+02  0.25731321936E+02 -0.12006377645E+03  0.15877272306E+03  0.88379054688E+02 0.  0.
         23    2    1    2    0    0  0.94453374494E+02 -0.64204852863E+01  0.59264818576E+02  0.14464177699E+03  0.91903549142E+02 0.  0.
        -13    1    3    3    0    0 -0.47033453590E+02  0.56257822444E+02 -0.83508239536E+02  0.11113376810E+03  0.00000000000E+00 0.  1.
         13    1    3    3    0    0 -0.11382075267E+01 -0.30526500508E+02 -0.36555536919E+02  0.47638954954E+02  0.00000000000E+00 0. -1.
        -13    1    4    4    0    0  0.22227414125E+02 -0.14626813852E+02 -0.22779970441E+02  0.35027541669E+02  0.00000000000E+00 0.  1.
         13    1    4    4    0    0  0.72225960370E+02  0.82063285653E+01  0.82044789017E+02  0.10961423532E+03  0.00000000000E+00 0. -1.
         21    1    1    2  503  502 -0.79455501607E+01 -0.40286536507E+02  0.16183809780E+02  0.44136747615E+02  0.00000000000E+00 0.  1.
         -1    1    1    2    0  503 -0.38336163217E+02  0.20975699857E+02  0.32240073302E+02  0.54305282627E+02  0.00000000000E+00 0.  1.
<scales pt_clust_5="13000.00000" pt_clust_6="13000.00000" pt_clust_7="13000.00000" pt_clust_8="13000.00000" pt_clust_9="41.06260" pt_clust_10="13000.00000"></scales>
<clustering>
<clus scale="   41.063">  1  9  2 -1</clus>
<clus scale="   88.379">  5  6 -1 -1</clus>
<clus scale="   91.904">  7  8 -1 -1</clus>
<clus scale="   41.737">  7 10 -1 -1</clus>
<clus scale="  103.262">  2  5  1 -1</clus>
<clus scale="   41.063">  1  5  2 -1</clus>
</clustering>
</event>
<event>
10    2  0.5921424E-006  0.2031416E+03  0.7546771E-02  0.1161309E+00
          1   -1    0    0  502    0 -0.00000000000E+00  0.00000000000E+00  0.71006355269E+03  0.71006355269E+03  0.00000000000E+00 0. -1.
         21   -1    0    0  503  502  0.00000000000E+00 -0.00000000000E+00 -0.10606765782E+03  0.10606765782E+03  0.00000000000E+00 0. -1.
         23    2    1    2    0    0  0.11978736441E+03  0.24982387478E+02  0.51504716043E+03  0.53719713915E+03  0.91291053655E+02 0.  0.
         23    2    1    2    0    0 -0.34617680182E+01  0.43906020443E+01  0.91873614500E+02  0.12953993003E+03  0.91151364263E+02 0.  0.
        -11    1    4    4    0    0  0.38788225355E+02 -0.11693351757E+02  0.66026885279E+02  0.77464898381E+02  0.00000000000E+00 0. -1.
         11    1    4    4    0    0 -0.42249993373E+02  0.16083953801E+02  0.25846729221E+02  0.52075031650E+02  0.00000000000E+00 0.  1.
        -13    1    3    3    0    0  0.89684832568E+02  0.65650663966E+01  0.47660098892E+03  0.48501028023E+03  0.00000000000E+00 0. -1.
         13    1    3    3    0    0  0.30102531843E+02  0.18417321081E+02  0.38446171510E+02  0.52186858911E+02  0.00000000000E+00 0.  1.
         21    1    1    2  503  501 -0.64540455664E+02  0.29369880001E+02 -0.46978679676E+01  0.71064268321E+02  0.00000000000E+00 0. -1.
          1    1    1    2  501    0 -0.51785140729E+02 -0.58742869523E+02  0.17729879050E+01  0.78329873013E+02  0.00000000000E+00 0. -1.
<scales pt_clust_5="13000.00000" pt_clust_6="13000.00000" pt_clust_7="13000.00000" pt_clust_8="13000.00000" pt_clust_9="70.90882" pt_clust_10="13000.00000"></scales>
<clustering>
<clus scale="   70.909">  2  9  1 -1</clus>
<clus scale="   91.151">  5  6 -1 -1</clus>
<clus scale="   91.291">  7  8 -1 -1</clus>
<clus scale="   97.634">  5 10 -1 -1</clus>
<clus scale="  145.488">  1  7  2 -1</clus>
<clus scale="   70.909">  2  5  1 -1</clus>
</clustering>
</event>
<event>
10    2  0.5921424E-006  0.1329253E+03  0.7546771E-02  0.1234524E+00
         21   -1    0    0  503  502  0.00000000000E+00  0.00000000000E+00  0.12513004613E+03  0.12513004613E+03  0.00000000000E+00 0.  1.
          1   -1    0    0  502    0 -0.00000000000E+00 -0.00000000000E+00 -0.53019559810E+03  0.53019559810E+03  0.00000000000E+00 0. -1.
         23    2    1    2    0    0 -0.32908518703E+02 -0.47667689766E+02 -0.41748816422E+03  0.43086130031E+03  0.89386316579E+02 0.  0.
         23    2    1    2    0    0  0.54240266539E+02  0.30195423130E+02 -0.55172617059E+02  0.12079657895E+03  0.87715595657E+02 0.  0.
        -11    1    4    4    0    0  0.66467073442E+02  0.76761176664E+01 -0.83593505870E+01  0.67429024734E+02  0.00000000000E+00 0.  1.
         11    1    4    4    0    0 -0.12226806903E+02  0.22519305463E+02 -0.46813266472E+02  0.53367554219E+02  0.00000000000E+00 0. -1.
        -13    1    3    3    0    0 -0.10623933062E+02  0.26041888950E+02 -0.83448600091E+02  0.88060869806E+02  0.00000000000E+00 0.  1.
         13    1    3    3    0    0 -0.22284585641E+02 -0.73709578715E+02 -0.33403956413E+03  0.34280043050E+03  0.00000000000E+00 0. -1.
         21    1    1    2  503  501 -0.19794439546E+02  0.39887990244E+02  0.67897994700E+02  0.81197347782E+02  0.00000000000E+00 0.  1.
          1    1    1    2  501    0 -0.15373082902E+01 -0.22415723608E+02 -0.30276540053E+00  0.22470417187E+02  0.00000000000E+00 0. -1.
<scales pt_clust_5="13000.00000" pt_clust_6="13000.00000" pt_clust_7="13000.00000" pt_clust_8="13000.00000" pt_clust_9="44.52945" pt_clust_10="13000.00000"></scales>
<clustering>
<clus scale="   44.529">  1  9  2 -1</clus>
<clus scale="   87.716">  5  6 -1 -1</clus>
<clus scale="   14.884">  5 10 -1 -1</clus>
<clus scale="   89.386">  7  8 -1 -1</clus>
<clus scale="  105.116">  2  7  1 -1</clus>
<clus scale="   44.529">  1  5  2 -1</clus>
</clustering>
</event>
<event>
10    2  0.5921424E-006  0.3330344E+03  0.7546771E-02  0.1076619E+00
         21   -1    0    0  501  502  0.00000000000E+00  0.00000000000E+00  0.29672830768E+03  0.29672830768E+03  0.00000000000E+00 0.  1.
         -1   -1    0    0    0  501 -0.00000000000E+00 -0.00000000000E+00 -0.48373153580E+03  0.48373153580E+03  0.00000000000E+00 0.  1.
         23    2    1    2    0    0  0.12574840742E+03  0.23721241718E+03 -0.22878792011E+03  0.36441651399E+03  0.91504592516E+02 0.  0.
         23    2    1    2    0    0  0.95599349710E+01 -0.79046655103E+02 -0.29471721479E+02  0.12517829293E+03  0.91985089087E+02 0.  0.
        -11    1    3    3    0    0  0.86792010282E+02  0.79698653245E+02 -0.68304401056E+02  0.13619919083E+03  0.00000000000E+00 0.  1.
         11    1    3    3    0    0  0.38956397135E+02  0.15751376394E+03 -0.16048351905E+03  0.22821732317E+03  0.00000000000E+00 0. -1.
        -11    1    4    4    0    0 -0.56322123370E+01  0.20103415242E+02 -0.93367519032E+01  0.22870156455E+02  0.00000000000E+00 0.  1.
         11    1    4    4    0    0  0.15192147308E+02 -0.99150070344E+02 -0.20134969575E+02  0.10230813647E+03  0.00000000000E+00 0. -1.
         21    1    1    2  503  502  0.26801667922E+02 -0.42344982368E+02  0.76626373809E+02  0.91558877768E+02  0.00000000000E+00 0.  1.
         -1    1    1    2    0  503 -0.16211001031E+03 -0.11582077971E+03 -0.53699603357E+01  0.19930615878E+03  0.00000000000E+00 0.  1.
<scales pt_clust_5="13000.00000" pt_clust_6="13000.00000" pt_clust_7="13000.00000" pt_clust_8="13000.00000" pt_clust_9="50.11414" pt_clust_10="13000.00000"></scales>
<clustering>
<clus scale="   50.114">  1  9  2 -1</clus>
<clus scale="   91.505">  5  6 -1 -1</clus>
<clus scale="   91.985">  7  8 -1 -1</clus>
<clus scale="  201.809">  7 10 -1 -1</clus>
<clus scale="  276.503">  2  5  1 -1</clus>
<clus scale="   50.114">  1  5  2 -1</clus>
</clustering>
</event>
<event>
10    2  0.5921424E-006  0.2498846E+03  0.7546771E-02  0.1150033E+00
          1   -1    0    0  502    0 -0.00000000000E+00  0.00000000000E+00  0.72357788546E+02  0.72357788546E+02  0.00000000000E+00 0. -1.
         21   -1    0    0  503  502  0.00000000000E+00 -0.00000000000E+00 -0.57488291745E+03  0.57488291745E+03  0.00000000000E+00 0. -1.
         23    2    1    2    0    0  0.29773984130E+02 -0.24569223173E+02 -0.59393986466E+02  0.11830645754E+03  0.94755661617E+02 0.  0.
         23    2    1    2    0    0 -0.92119899715E+02  0.10641920817E+00 -0.70511542789E+02  0.14826169852E+03  0.92323162492E+02 0.  0.
        -11    1    4    4    0    0  0.14771917835E+02 -0.16008814180E+02 -0.17063273822E+02  0.27670327094E+02  0.00000000000E+00 0.  1.
         11    1    4    4    0    0 -0.10689181755E+03  0.16115233388E+02 -0.53448268967E+02  0.12059137142E+03  0.00000000000E+00 0. -1.
        -13    1    3    3    0    0  0.44280127479E+02  0.24691030704E+02 -0.25242255572E+02  0.56635220077E+02  0.00000000000E+00 0.  1.
         13    1    3    3    0    0 -0.14506143350E+02 -0.49260253877E+02 -0.34151730895E+02  0.61671237461E+02  0.00000000000E+00 0. -1.
         21    1    1    2  503  501  0.74932136787E+01  0.21706241898E+02 -0.11066566225E+03  0.11302299761E+03  0.00000000000E+00 0. -1.
          1    1    1    2  501    0  0.54852701907E+02  0.27565620670E+01 -0.26195393740E+03  0.26764955233E+03  0.00000000000E+00 0. -1.
<scales pt_clust_5="13000.00000" pt_clust_6="13000.00000" pt_clust_7="13000.00000" pt_clust_8="13000.00000" pt_clust_9="22.96321" pt_clust_10="13000.00000"></scales>
<clustering>
<clus scale="   22.963">  2  9  1 -1</clus>
<clus scale="   92.323">  5  6 -1 -1</clus>
<clus scale="   61.053">  5 10 -1 -1</clus>
<clus scale="   94.756">  7  8 -1 -1</clus>
<clus scale="  101.829">  1  7  2 -1</clus>
<clus scale="   22.963">  2  5  1 -1</clus>
</clustering>
</event>
<event>
10    2  0.5921424E-006  0.1855403E+03  0.7546771E-02  0.1171165E+00
         21   -1    0    0  503  502  0.00000000000E+00  0.00000000000E+00  0.46177753897E+03  0.46177753897E+03  0.00000000000E+00 0. -1.
         -2   -1    0    0    0  501 -0.00000000000E+00 -0.00000000000E+00 -0.90132697593E+02  0.90132697593E+02  0.00000000000E+00 0.  1.
         23    2    1    2    0    0  0.93232974733E+02 -0.46387619277E+02  0.14684315150E+03  0.20221703156E+03  0.92111985718E+02 0.  0.
         23    2    1    2    0    0 -0.66018779721E+02  0.77233612994E+01  0.30455435028E+02  0.11782276496E+03  0.92393402550E+02 0.  0.
        -11    1    3    3    0    0 -0.23144517117E+00 -0.45351429195E+02  0.53208877107E+02  0.69914163800E+02  0.00000000000E+00 0. -1.
         11    1    3    3    0    0  0.93464419904E+02 -0.10361900829E+01  0.93634274390E+02  0.13230286776E+03  0.00000000000E+00 0.  1.
        -11    1    4    4    0    0 -0.40380168261E+02  0.48074925172E+02  0.33662291457E+01  0.62873586806E+02  0.00000000000E+00 0.  1.
         11    1    4    4    0    0 -0.25638611460E+02 -0.40351563873E+02  0.27089205883E+02  0.54949178155E+02  0.00000000000E+00 0. -1.
         21    1    1    2  503  501  0.32845086576E+02 -0.66690038239E+01  0.12543802404E+03  0.12983825784E+03  0.00000000000E+00 0. -1.
         -2    1    1    2    0  502 -0.60059281588E+02  0.45333261802E+02  0.68908230812E+02  0.10203218220E+03  0.00000000000E+00 0.  1.
<scales pt_clust_5="13000.00000" pt_clust_6="13000.00000" pt_clust_7="13000.00000" pt_clust_8="13000.00000" pt_clust_9="33.51530" pt_clust_10="13000.00000"></scales>
<clustering>
<clus scale="   33.515">  1  9  2 -1</clus>
<clus scale="   92.112">  5  6 -1 -1</clus>
<clus scale="   92.393">  7  8 -1 -1</clus>
<clus scale="   67.616">  7 10 -1 -1</clus>
<clus scale="  152.176">  2  5  1 -1</clus>
<clus scale="   33.515">  1  5  2 -1</clus>
</clustering>
</event>
<event>
10    2  0.9491169E-006  0.6478023E+03  0.7546771E-02  0.1017473E+00
         21   -1    0    0  501  502  0.00000000000E+00  0.00000000000E+00  0.14109246124E+04  0.14109246124E+04  0.00000000000E+00 0.  1.
         -2   -1    0    0    0  501 -0.00000000000E+00 -0.00000000000E+00 -0.71830729383E+03  0.71830729383E+03  0.00000000000E+00 0.  1.
         23    2    1    2    0    0  0.18095300531E+03  0.25992781567E+02 -0.17165798521E+03  0.26767088716E+03  0.93603552934E+02 0.  0.
         23    2    1    2    0    0  0.48283633155E+02 -0.35171853179E+01 -0.29045561853E+03  0.30892575970E+03  0.93418300375E+02 0.  0.
        -11    1    3    3    0    0  0.11774773713E+03 -0.28912366579E+01 -0.15763416513E+03  0.19677758730E+03  0.00000000000E+00 0.  1.
         11    1    3    3    0    0  0.63205268183E+02  0.28884018225E+02 -0.14023820076E+02  0.70893299855E+02  0.00000000000E+00 0. -1.
        -13    1    4    4    0    0 -0.11527767848E+02  0.32942448923E+02 -0.86453198952E+02  0.93232236815E+02  0.00000000000E+00 0.  1.
         13    1    4    4    0    0  0.59811401003E+02 -0.36459634241E+02 -0.20400241958E+03  0.21569352288E+03  0.00000000000E+00 0. -1.
         21    1    1    2  503  502 -0.52164352298E+03 -0.42159918550E+02  0.11455371419E+04  0.12594223943E+04  0.00000000000E+00 0.  1.
         -2    1    1    2    0  503  0.29240688451E+03  0.19684322301E+02  0.91937804303E+01  0.29321286509E+03  0.00000000000E+00 0.  1.
<scales pt_clust_5="13000.00000" pt_clust_6="13000.00000" pt_clust_7="13000.00000" pt_clust_8="13000.00000" pt_clust_9="502.51020" pt_clust_10="13000.00000"></scales>
<clustering>
<clus scale="   93.418">  7  8 -1 -1</clus>
<clus scale="   93.604">  5  6 -1 -1</clus>
<clus scale="  205.381">  2  5  1 -1</clus>
<clus scale="  345.006">  7 10 -1 -1</clus>
<clus scale="  502.510">  1  9  2 -1</clus>
<clus scale="  502.510">  1  5  2 -1</clus>
</clustering>
</event>
<event>
10    2  0.5921424E-006  0.8610742E+03  0.7546771E-02  0.9733806E-01
          2   -1    0    0  503    0 -0.00000000000E+00  0.00000000000E+00  0.18182509797E+04  0.18182509797E+04  0.00000000000E+00 0. -1.
         21   -1    0    0  501  502  0.00000000000E+00 -0.00000000000E+00 -0.36533031787E+03  0.36533031787E+03  0.00000000000E+00 0. -1.
         23    2    1    2    0    0  0.12553911533E+01 -0.33474490302E+03  0.20073747389E+03  0.40027599972E+03  0.88710858528E+02 0.  0.
         23    2    1    2    0    0  0.26417987191E+03 -0.32849632465E+02  0.97231265126E+03  0.10123366683E+04  0.92539370504E+02 0.  0.
        -11    1    3    3    0    0  0.25971205662E+02 -0.27830849938E+02  0.16774584916E+02  0.41598634965E+02  0.00000000000E+00 0.  1.
         11    1    3    3    0    0 -0.24715814509E+02 -0.30691405308E+03  0.18396288897E+03  0.35867736475E+03  0.00000000000E+00 0. -1.
        -13    1    4    4    0    0  0.65898871000E+02  0.16397004144E+02  0.37369315287E+03  0.37981323758E+03  0.00000000000E+00 0.  1.
         13    1    4    4    0    0  0.19828100091E+03 -0.49246636609E+02  0.59861949839E+03  0.63252343071E+03  0.00000000000E+00 0. -1.
         21    1    1    2  503  502 -0.94558346194E+01 -0.22061339268E+02 -0.14091335148E+03  0.14294295409E+03  0.00000000000E+00 0. -1.
          2    1    1    2  501    0 -0.25597942845E+03  0.38965587475E+03  0.42078388817E+03  0.62802567548E+03  0.00000000000E+00 0. -1.
<scales pt_clust_5="13000.00000" pt_clust_6="13000.00000" pt_clust_7="13000.00000" pt_clust_8="13000.00000" pt_clust_9="24.00241" pt_clust_10="13000.00000"></scales>
<clustering>
<clus scale="   24.002">  2  9  1 -1</clus>
<clus scale="   88.711">  5  6 -1 -1</clus>
<clus scale="   92.539">  7  8 -1 -1</clus>
<clus scale="  355.845">  1  5  2 -1</clus>
<clus scale="  370.047">  7 10 -1 -1</clus>
<clus scale="   24.002">  2  5  1 -1</clus>
</clustering>
</event>
<event>
10    2  0.5921424E-006  0.1302981E+03  0.7546771E-02  0.1234959E+00
          2   -1    0    0  502    0 -0.00000000000E+00  0.00000000000E+00  0.32530061809E+03  0.32530061809E+03  0.00000000000E+00 0. -1.
         21   -1    0    0  503  502  0.00000000000E+00 -0.00000000000E+00 -0.11043910763E+03  0.11043910763E+03  0.00000000000E+00 0.  1.
         23    2    1    2    0    0  0.24873793212E+02  0.80120844076E+01  0.18632098733E+03  0.21647151627E+03  0.10705843242E+03 0.  0.
         23    2    1    2    0    0 -0.14164991884E+02  0.24775423173E+01  0.89910299223E+02  0.13306092155E+03  0.97028664451E+02 0.  0.
        -13    1    4    4    0    0  0.38818334927E+02 -0.14891005137E+02  0.46655137485E+02  0.62492455659E+02  0.00000000000E+00 0.  1.
         13    1    4    4    0    0 -0.52983326811E+02  0.17368547455E+02  0.43255161738E+02  0.70568465887E+02  0.00000000000E+00 0. -1.
        -13    1    3    3    0    0  0.14443569372E+02  0.57623876978E+02  0.95947969937E+02  0.11285008121E+03  0.00000000000E+00 0.  1.
         13    1    3    3    0    0  0.10430223840E+02 -0.49611792570E+02  0.90373017389E+02  0.10362143506E+03  0.00000000000E+00 0. -1.
         21    1    1    2  503  501  0.99250901976E+01 -0.22854541264E+02 -0.56379552219E+02  0.61640014441E+02  0.00000000000E+00 0.  1.
          2    1    1    2  501    0 -0.20633891525E+02  0.12364914539E+02 -0.49902238679E+01  0.24567273460E+02  0.00000000000E+00 0. -1.
<scales pt_clust_5="13000.00000" pt_clust_6="13000.00000" pt_clust_7="13000.00000" pt_clust_8="13000.00000" pt_clust_9="24.91661" pt_clust_10="13000.00000"></scales>
<clustering>
<clus scale="   24.917">  2  9  1 -1</clus>
<clus scale="   97.029">  5  6 -1 -1</clus>
<clus scale="   18.703">  5 10 -1 -1</clus>
<clus scale="  107.058">  7  8 -1 -1</clus>
<clus scale="  110.613">  1  7  2 -1</clus>
<clus scale="   24.917">  2  5  1 -1</clus>
</clustering>
</event>
<event>
10    2  0.5921424E-006  0.1310237E+03  0.7546771E-02  0.1238325E+00
         21   -1    0    0  501  502  0.00000000000E+00  0.00000000000E+00  0.12222723724E+03  0.12222723724E+03  0.00000000000E+00 0. -1.
         -1   -1    0    0    0  501 -0.00000000000E+00 -0.00000000000E+00 -0.25243413690E+03  0.25243413690E+03  0.00000000000E+00 0.  1.
         23    2    1    2    0    0 -0.11133587137E+02 -0.56692138985E+02 -0.10860002471E+03  0.15235367236E+03  0.89887266784E+02 0.  0.
         23    2    1    2    0    0  0.29332293518E+02  0.29871447230E+02 -0.65174620933E+02  0.11866461634E+03  0.89893676944E+02 0.  0.
        -11    1    3    3    0    0 -0.43548969138E+02 -0.41351746080E+01 -0.57205552778E+02  0.72014496115E+02  0.00000000000E+00 0.  1.
         11    1    3    3    0    0  0.32415382002E+02 -0.52556964377E+02 -0.51394471929E+02  0.80339176245E+02  0.00000000000E+00 0. -1.
        -13    1    4    4    0    0 -0.12093990161E+02  0.50946649161E+02 -0.39289616392E+02  0.65463727475E+02  0.00000000000E+00 0.  1.
         13    1    4    4    0    0  0.41426283679E+02 -0.21075201931E+02 -0.25885004541E+02  0.53200888864E+02  0.00000000000E+00 0. -1.
         21    1    1    2  503  502  0.86793171615E+01  0.25383585077E+02  0.64297452993E+02  0.69669357677E+02  0.00000000000E+00 0.  1.
         -1    1    1    2    0  503 -0.26878023543E+02  0.14371066786E+01 -0.20729707013E+02  0.33973727762E+02  0.00000000000E+00 0.  1.
<scales pt_clust_5="13000.00000" pt_clust_6="13000.00000" pt_clust_7="13000.00000" pt_clust_8="13000.00000" pt_clust_9="26.82642" pt_clust_10="13000.00000"></scales>
<clustering>
<clus scale="   26.826">  1  9  2 -1</clus>
<clus scale="   89.887">  5  6 -1 -1</clus>
<clus scale="   89.894">  7  8 -1 -1</clus>
<clus scale="   26.223">  7 10 -1 -1</clus>
<clus scale="  101.559">  2  5  1 -1</clus>
<clus scale="   26.826">  1  5  2 -1</clus>
</clustering>
</event>
<event>
10    2  0.5921424E-006  0.2502843E+03  0.7546771E-02  0.1136657E+00
         -2   -1    0    0    0  501 -0.00000000000E+00  0.00000000000E+00  0.78461827190E+03  0.78461827190E+03  0.00000000000E+00 0.  1.
         21   -1    0    0  503  502  0.00000000000E+00 -0.00000000000E+00 -0.10189651676E+03  0.10189651676E+03  0.00000000000E+00 0.  1.
         23    2    1    2    0    0  0.41892132133E+01 -0.10416686352E+03  0.53128053330E+03  0.54930566891E+03  0.92787002729E+02 0.  0.
         23    2    1    2    0    0  0.77641435768E+02  0.33508680545E+02  0.16119792099E+03  0.21037855115E+03  0.10546725005E+03 0.  0.
        -11    1    4    4    0    0  0.52610837787E+02 -0.31024663784E+02  0.47941927127E+02  0.77645723592E+02  0.00000000000E+00 0.  1.
         11    1    4    4    0    0  0.25030597982E+02  0.64533344329E+02  0.11325599386E+03  0.13273282756E+03  0.00000000000E+00 0. -1.
        -11    1    3    3    0    0  0.45982333645E+02 -0.31597906742E+02  0.20716581069E+03  0.21454714129E+03  0.00000000000E+00 0. -1.
         11    1    3    3    0    0 -0.41793120431E+02 -0.72568956783E+02  0.32411472261E+03  0.33475852762E+03  0.00000000000E+00 0.  1.
         21    1    1    2  503  501 -0.20541285384E+02 -0.16947545221E+01 -0.23229903446E+02  0.31055515005E+02  0.00000000000E+00 0.  1.
         -2    1    1    2    0  502 -0.61289363597E+02  0.72352937502E+02  0.13473204299E+02  0.95775053586E+02  0.00000000000E+00 0.  1.
<scales pt_clust_5="13000.00000" pt_clust_6="13000.00000" pt_clust_7="13000.00000" pt_clust_8="13000.00000" pt_clust_9="20.61108" pt_clust_10="13000.00000"></scales>
<clustering>
<clus scale="   20.611">  2  9  1 -1</clus>
<clus scale="   92.787">  7  8 -1 -1</clus>
<clus scale="  105.467">  5  6 -1 -1</clus>
<clus scale="  101.839">  5 10 -1 -1</clus>
<clus scale="  139.663">  1  7  2 -1</clus>
<clus scale="   20.611">  2  5  1 -1</clus>
</clustering>
</event>
<event>
10    2  0.5921424E-006  0.1869044E+03  0.7546771E-02  0.1172565E+00
          1   -1    0    0  502    0 -0.00000000000E+00  0.00000000000E+00  0.18783416463E+03  0.18783416463E+03  0.00000000000E+00 0. -1.
         21   -1    0    0  503  502  0.00000000000E+00 -0.00000000000E+00 -0.32073052217E+03  0.32073052217E+03  0.00000000000E+00 0. -1.
         23    2    1    2    0    0  0.11479660750E+03  0.13013950897E+02  0.91637003075E+02  0.17367569834E+03  0.91751206255E+02 0.  0.
         23    2    1    2    0    0 -0.44684239039E+02 -0.71731379192E+01 -0.59689748317E+02  0.12014187144E+03  0.93931188075E+02 0.  0.
        -11    1    4    4    0    0 -0.71545151467E+02  0.10205705399E+02 -0.40955135064E+02  0.83067371508E+02  0.00000000000E+00 0.  1.
         11    1    4    4    0    0  0.26860912428E+02 -0.17378843319E+02 -0.18734613252E+02  0.37074499933E+02  0.00000000000E+00 0. -1.
        -13    1    3    3    0    0  0.39218563143E+02 -0.28660443274E+02  0.10922478186E+01  0.48587135221E+02  0.00000000000E+00 0.  1.
         13    1    3    3    0    0  0.75578044360E+02  0.41674394171E+02  0.90544755256E+02  0.12508856312E+03  0.00000000000E+00 0. -1.
         21    1    1    2  503  501 -0.34757171889E+02  0.55083273089E+02 -0.60791567286E+02  0.89094571243E+02  0.00000000000E+00 0. -1.
          1    1    1    2  501    0 -0.35355196575E+02 -0.60924086067E+02 -0.10405204501E+03  0.12565254577E+03  0.00000000000E+00 0. -1.
<scales pt_clust_5="13000.00000" pt_clust_6="13000.00000" pt_clust_7="13000.00000" pt_clust_8="13000.00000" pt_clust_9="65.13239" pt_clust_10="13000.00000"></scales>
<clustering>
<clus scale="   65.132">  2  9  1 -1</clus>
<clus scale="   91.751">  7  8 -1 -1</clus>
<clus scale="   93.931">  5  6 -1 -1</clus>
<clus scale="   62.451">  5 10 -1 -1</clus>
<clus scale="  144.193">  1  7  2 -1</clus>
<clus scale="   65.132">  2  5  1 -1</clus>
</clustering>
</event>
<event>
10    2  0.5921424E-006  0.1483800E+03  0.7546771E-02  0.1222039E+00
          1   -1    0    0  502    0 -0.00000000000E+00  0.00000000000E+00  0.40956546563E+03  0.40956546563E+03  0.00000000000E+00 0. -1.
         21   -1    0    0  503  502  0.00000000000E+00 -0.00000000000E+00 -0.13572401834E+03  0.13572401834E+03  0.00000000000E+00 0.  1.
         23    2    1    2    0    0 -0.11491734132E+01 -0.19220500014E+02  0.17176651840E+03  0.19514089218E+03  0.90584119673E+02 0.  0.
         23    2    1    2    0    0  0.85505137289E+01  0.46088012788E+02  0.17478485049E+03  0.20232314362E+03  0.90485878876E+02 0.  0.
        -11    1    3    3    0    0  0.31147389048E+02 -0.81402726736E+01  0.16521557967E+02  0.36185435763E+02  0.00000000000E+00 0.  1.
         11    1    3    3    0    0 -0.32296562461E+02 -0.11080227340E+02  0.15524496043E+03  0.15895545642E+03  0.00000000000E+00 0. -1.
        -13    1    4    4    0    0  0.48327538164E+02  0.13698860108E+02  0.77767848409E+02  0.92579954415E+02  0.00000000000E+00 0. -1.
         13    1    4    4    0    0 -0.39777024435E+02  0.32389152680E+02  0.97017002082E+02  0.10974318921E+03  0.00000000000E+00 0.  1.
         21    1    1    2  503  501 -0.26005859291E+02 -0.66122941586E+02 -0.76270461038E+02  0.10423881882E+03  0.00000000000E+00 0.  1.
          1    1    1    2  501    0  0.18604518975E+02  0.39255428812E+02  0.35605394309E+01  0.43586629355E+02  0.00000000000E+00 0. -1.
<scales pt_clust_5="13000.00000" pt_clust_6="13000.00000" pt_clust_7="13000.00000" pt_clust_8="13000.00000" pt_clust_9="71.05314" pt_clust_10="13000.00000"></scales>
<clustering>
<clus scale="   71.053">  2  9  1 -1</clus>
<clus scale="   90.486">  7  8 -1 -1</clus>
<clus scale="   12.422">  7 10 -1 -1</clus>
<clus scale="   90.584">  5  6 -1 -1</clus>
<clus scale="   97.870">  1  5  2 -1</clus>
<clus scale="   71.053">  2  5  1 -1</clus>
</clustering>
</event>
<event>
10    2  0.5921424E-006  0.2022444E+03  0.7546771E-02  0.1174020E+00
          1   -1    0    0  503    0 -0.00000000000E+00  0.00000000000E+00  0.12652769892E+04  0.12652769892E+04  0.00000000000E+00 0. -1.
         21   -1    0    0  501  502  0.00000000000E+00 -0.00000000000E+00 -0.57037694566E+02  0.57037694566E+02  0.00000000000E+00 0.  1.
         23    2    1    2    0    0 -0.10877633990E+03 -0.40990832774E+01  0.50156441630E+03  0.52172419547E+03  0.93702603109E+02 0.  0.
         23    2    1    2    0    0  0.38162962749E+02  0.19224878378E+02  0.53370070564E+03  0.54278191584E+03  0.89161411417E+02 0.  0.
        -11    1    3    3    0    0 -0.23334197704E+02  0.36560295336E+02  0.23238672375E+03  0.23639951217E+03  0.00000000000E+00 0.  1.
         11    1    3    3    0    0 -0.85442142198E+02 -0.40659378613E+02  0.26917769255E+03  0.28532468330E+03  0.00000000000E+00 0. -1.
        -11    1    4    4    0    0 -0.28259870059E+01  0.48409858108E+02  0.25227038231E+03  0.25688878207E+03  0.00000000000E+00 0.  1.
         11    1    4    4    0    0  0.40988949755E+02 -0.29184979730E+02  0.28143032333E+03  0.28589313377E+03  0.00000000000E+00 0. -1.
         21    1    1    2  503  502  0.12962844652E+03 -0.67938777251E+01  0.10171882298E+03  0.16491334049E+03  0.00000000000E+00 0.  1.
          1    1    1    2  501    0 -0.59015069366E+02 -0.83319173755E+01  0.71255349665E+02  0.92895231930E+02  0.00000000000E+00 0. -1.
<scales pt_clust_5="13000.00000" pt_clust_6="13000.00000" pt_clust_7="13000.00000" pt_clust_8="13000.00000" pt_clust_9="129.80636" pt_clust_10="13000.00000"></scales>
<clustering>
<clus scale="   89.161">  7  8 -1 -1</clus>
<clus scale="   59.600">  7 10 -1 -1</clus>
<clus scale="   93.703">  5  6 -1 -1</clus>
<clus scale="  129.806">  2  9  1 -1</clus>
<clus scale="  110.104">  1  5  2 -1</clus>
<clus scale="  129.806">  2  5  1 -1</clus>
</clustering>
</event>
<event>
10    2  0.5921424E-006  0.4226623E+03  0.7546771E-02  0.1090336E+00
          1   -1    0    0  502    0 -0.00000000000E+00  0.00000000000E+00  0.10232887812E+04  0.10232887812E+04  0.00000000000E+00 0. -1.
         21   -1    0    0  503  502  0.00000000000E+00 -0.00000000000E+00 -0.62558976415E+03  0.62558976415E+03  0.00000000000E+00 0. -1.
         23    2    1    2    0    0 -0.15243173223E+02  0.17478629112E+01  0.13863143110E+02  0.94723654001E+02  0.92439031452E+02 0.  0.
         23    2    1    2    0    0  0.20546322820E+03 -0.48226959407E+02  0.78091525020E+03  0.81410708567E+03  0.91655557343E+02 0.  0.
        -11    1    3    3    0    0 -0.30059956328E+02  0.32650048994E+02  0.33153717159E+02  0.55396711411E+02  0.00000000000E+00 0.  1.
         11    1    3    3    0    0  0.14816783106E+02 -0.30902186082E+02 -0.19290574049E+02  0.39326942589E+02  0.00000000000E+00 0. -1.
        -13    1    4    4    0    0  0.15825878372E+03 -0.53782871445E+02  0.70497166831E+03  0.72451604054E+03  0.00000000000E+00 0. -1.
         13    1    4    4    0    0  0.47204444476E+02  0.55559120382E+01  0.75943581890E+02  0.89591045128E+02  0.00000000000E+00 0.  1.
         21    1    1    2  503  501 -0.52759915859E+02  0.82788729253E+02 -0.53382920778E+03  0.54278099220E+03  0.00000000000E+00 0. -1.
          1    1    1    2  501    0 -0.13746013911E+03 -0.36309632757E+02  0.13674983154E+03  0.19726681348E+03  0.00000000000E+00 0. -1.
<scales pt_clust_5="13000.00000" pt_clust_6="13000.00000" pt_clust_7="13000.00000" pt_clust_8="13000.00000" pt_clust_9="98.21585" pt_clust_10="13000.00000"></scales>
<clustering>
<clus scale="   91.656">  7  8 -1 -1</clus>
<clus scale="   92.439">  5  6 -1 -1</clus>
<clus scale="   93.704">  1  5  2 -1</clus>
<clus scale="   98.216">  2  9  1 -1</clus>
<clus scale="  164.802">  7 10 -1 -1</clus>
<clus scale="   98.216">  2  5  1 -1</clus>
</clustering>
</event>
<event>
10    2  0.5921424E-006  0.1800229E+03  0.7546771E-02  0.1179710E+00
          1   -1    0    0  503    0 -0.00000000000E+00  0.00000000000E+00  0.93277735199E+03  0.93277735199E+03  0.00000000000E+00 0. -1.
         21   -1    0    0  501  502  0.00000000000E+00 -0.00000000000E+00 -0.44646180221E+02  0.44646180221E+02  0.00000000000E+00 0. -1.
         23    2    1    2    0    0 -0.62063419572E+02  0.77552815769E+02  0.34159530535E+03  0.36711071840E+03  0.90645571562E+02 0.  0.
         23    2    1    2    0    0  0.27333588367E+02 -0.88650616438E+02  0.54051891877E+03  0.55690064202E+03  0.96806852477E+02 0.  0.
        -11    1    3    3    0    0 -0.23567237341E+02  0.82399138387E+02  0.16095107722E+03  0.18234659838E+03  0.00000000000E+00 0.  1.
         11    1    3    3    0    0 -0.38496182230E+02 -0.48463226185E+01  0.18064422813E+03  0.18476412002E+03  0.00000000000E+00 0. -1.
        -13    1    4    4    0    0 -0.31027467456E+02 -0.68671884397E+01  0.94307059552E+02  0.99517252249E+02  0.00000000000E+00 0.  1.
         13    1    4    4    0    0  0.58361055824E+02 -0.81783427999E+02  0.44621185922E+03  0.45738338977E+03  0.00000000000E+00 0. -1.
         21    1    1    2  503  502  0.11448245808E+02  0.18316098539E+02 -0.10451585892E+02  0.23995362998E+02  0.00000000000E+00 0.  1.
          1    1    1    2  501    0  0.23281585396E+02 -0.72182978691E+01  0.16468533542E+02  0.29416808796E+02  0.00000000000E+00 0. -1.
<scales pt_clust_5="13000.00000" pt_clust_6="13000.00000" pt_clust_7="13000.00000" pt_clust_8="13000.00000" pt_clust_9="21.59958" pt_clust_10="13000.00000"></scales>
<clustering>
<clus scale="   21.600">  2  9  1 -1</clus>
<clus scale="   90.646">  5  6 -1 -1</clus>
<clus scale="   96.807">  7  8 -1 -1</clus>
<clus scale="   26.145">  7 10 -1 -1</clus>
<clus scale="  137.275">  1  5  2 -1</clus>
<clus scale="   21.600">  2  5  1 -1</clus>
</clustering>
</event>
<event>
10    2  0.5921424E-006  0.2330308E+03  0.7546771E-02  0.1160725E+00
          1   -1    0    0  502    0 -0.00000000000E+00  0.00000000000E+00  0.53497089067E+03  0.53497089067E+03  0.00000000000E+00 0. -1.
         21   -1    0    0  503  502  0.00000000000E+00 -0.00000000000E+00 -0.86500443744E+02  0.86500443744E+02  0.00000000000E+00 0. -1.
         23    2    1    2    0    0  0.64738974552E+01  0.21685630301E+02  0.17569486636E+03  0.19974589662E+03  0.92290623793E+02 0.  0.
         23    2    1    2    0    0 -0.10355792909E+03 -0.49175303283E+02  0.23599301967E+03  0.27662193060E+03  0.87661462603E+02 0.  0.
        -11    1    4    4    0    0 -0.91292790571E+02 -0.25911595555E+02  0.99040060961E+02  0.13716675278E+03  0.00000000000E+00 0. -1.
         11    1    4    4    0    0 -0.12265138518E+02 -0.23263707728E+02  0.13695295871E+03  0.13945517782E+03  0.00000000000E+00 0.  1.
        -13    1    3    3    0    0 -0.16513173977E+02 -0.29581983433E+02  0.37344639337E+02  0.50422224721E+02  0.00000000000E+00 0. -1.
         13    1    3    3    0    0  0.22987071432E+02  0.51267613734E+02  0.13835022702E+03  0.14932367190E+03  0.00000000000E+00 0.  1.
         21    1    1    2  503  501  0.14530640504E+02  0.40898134075E+02 -0.15940144936E+02  0.46237269652E+02  0.00000000000E+00 0. -1.
          1    1    1    2  501    0  0.82553391129E+02 -0.13408461093E+02  0.52722705828E+02  0.98866237542E+02  0.00000000000E+00 0. -1.
<scales pt_clust_5="13000.00000" pt_clust_6="13000.00000" pt_clust_7="13000.00000" pt_clust_8="13000.00000" pt_clust_9="43.40273" pt_clust_10="13000.00000"></scales>
<clustering>
<clus scale="   43.403">  2  9  1 -1</clus>
<clus scale="   87.661">  5  6 -1 -1</clus>
<clus scale="   88.677">  5 10 -1 -1</clus>
<clus scale="   92.291">  7  8 -1 -1</clus>
<clus scale="   97.695">  1  7  2 -1</clus>
<clus scale="   43.403">  2  5  1 -1</clus>
</clustering>
</event>
<event>
10    2  0.5921424E-006  0.1757012E+03  0.7546771E-02  0.1195473E+00
         21   -1    0    0  503  502  0.00000000000E+00  0.00000000000E+00  0.12626659860E+03  0.12626659860E+03  0.00000000000E+00 0. -1.
          1   -1    0    0  502    0 -0.00000000000E+00 -0.00000000000E+00 -0.85271135335E+03  0.85271135335E+03  0.00000000000E+00 0. -1.
         23    2    1    2    0    0  0.61477102480E+02 -0.15255223086E+01 -0.11335955377E+03  0.15870070461E+03  0.92486560451E+02 0.  0.
         23    2    1    2    0    0  0.16977131956E+02 -0.36403529012E+02 -0.54204924117E+03  0.55119110506E+03  0.91546788658E+02 0.  0.
        -11    1    3    3    0    0  0.83044720645E+02  0.13832589992E+02 -0.80280673993E+02  0.11633036057E+03  0.00000000000E+00 0. -1.
         11    1    3    3    0    0 -0.21567618165E+02 -0.15358112301E+02 -0.33078879777E+02  0.42370344040E+02  0.00000000000E+00 0.  1.
        -13    1    4    4    0    0 -0.94154435319E+01  0.28300533412E+02 -0.14432412521E+03  0.14737375576E+03  0.00000000000E+00 0.  1.
         13    1    4    4    0    0  0.26392575488E+02 -0.64704062424E+02 -0.39772511596E+03  0.40381734931E+03  0.00000000000E+00 0. -1.
         21    1    1    2  503  501 -0.20695797814E+02  0.10840904933E+02  0.91522686458E+02  0.94457627556E+02  0.00000000000E+00 0. -1.
          1    1    1    2  501    0 -0.57758436621E+02  0.27088146388E+02 -0.16255864627E+03  0.17462851472E+03  0.00000000000E+00 0. -1.
<scales pt_clust_5="13000.00000" pt_clust_6="13000.00000" pt_clust_7="13000.00000" pt_clust_8="13000.00000" pt_clust_9="23.36325" pt_clust_10="13000.00000"></scales>
<clustering>
<clus scale="   23.363">  1  9  2 -1</clus>
<clus scale="   91.547">  7  8 -1 -1</clus>
<clus scale="   68.028">  7 10 -1 -1</clus>
<clus scale="   92.487">  5  6 -1 -1</clus>
<clus scale="  104.080">  2  5  1 -1</clus>
<clus scale="   23.363">  1  5  2 -1</clus>
</clustering>
</event>
<event>
10    2  0.5921424E-006  0.1224595E+03  0.7546771E-02  0.1252253E+00
          2   -1    0    0  503    0 -0.00000000000E+00  0.00000000000E+00  0.10624008439E+03  0.10624008439E+03  0.00000000000E+00 0. -1.
         21   -1    0    0  501  502  0.00000000000E+00 -0.00000000000E+00 -0.23566407289E+03  0.23566407289E+03  0.00000000000E+00 0.  1.
         23    2    1    2    0    0 -0.17410319453E+02 -0.18630571046E+02 -0.30427256305E+02  0.10107241414E+03  0.92949435572E+02 0.  0.
         23    2    1    2    0    0  0.65451509359E+01  0.14948404486E+02  0.18306563192E+02  0.94483780866E+02  0.91245606982E+02 0.  0.
        -13    1    3    3    0    0 -0.46385382758E+02 -0.10875039476E+01 -0.44597113874E+02  0.64355955158E+02  0.00000000000E+00 0.  1.
         13    1    3    3    0    0  0.28975063304E+02 -0.17543067099E+02  0.14169857570E+02  0.36716458983E+02  0.00000000000E+00 0. -1.
        -13    1    4    4    0    0  0.48663693000E+02  0.28920968021E+01  0.12172861030E+02  0.50246370874E+02  0.00000000000E+00 0. -1.
         13    1    4    4    0    0 -0.42118542065E+02  0.12056307684E+02  0.61337021623E+01  0.44237409992E+02  0.00000000000E+00 0.  1.
         21    1    1    2  503  502  0.66748415681E+01  0.32128257334E+02 -0.11251061985E+03  0.11719819968E+03  0.00000000000E+00 0.  1.
          2    1    1    2  501    0  0.41903269492E+01 -0.28446090773E+02 -0.47926755402E+01  0.29149762590E+02  0.00000000000E+00 0. -1.
<scales pt_clust_5="13000.00000" pt_clust_6="13000.00000" pt_clust_7="13000.00000" pt_clust_8="13000.00000" pt_clust_9="32.81430" pt_clust_10="13000.00000"></scales>
<clustering>
<clus scale="   32.814">  2  9  1 -1</clus>
<clus scale="   91.246">  7  8 -1 -1</clus>
<clus scale="   24.476">  7 10 -1 -1</clus>
<clus scale="   92.949">  5  6 -1 -1</clus>
<clus scale="   93.972">  1  5  2 -1</clus>
<clus scale="   32.814">  2  5  1 -1</clus>
</clustering>
</event>
<event>
10    2  0.5921424E-006  0.7064433E+03  0.7546771E-02  0.1028800E+00
         21   -1    0    0  503  502  0.00000000000E+00  0.00000000000E+00  0.38423276128E+03  0.38423276128E+03  0.00000000000E+00 0.  1.
         -1   -1    0    0    0  501 -0.00000000000E+00 -0.00000000000E+00 -0.68033069626E+03  0.68033069626E+03  0.00000000000E+00 0.  1.
         23    2    1    2    0    0  0.16860145774E+02  0.61601164620E+02 -0.30893801257E+03  0.32870408727E+03  0.92329374421E+02 0.  0.
         23    2    1    2    0    0 -0.34033292098E+03 -0.14115728997E+03 -0.70460571822E+01  0.37918859254E+03  0.89344637105E+02 0.  0.
        -11    1    4    4    0    0 -0.31371869526E+03 -0.14159589108E+03  0.15156396207E+02  0.34452653378E+03  0.00000000000E+00 0.  1.
         11    1    4    4    0    0 -0.26614225714E+02  0.43860111824E+00 -0.22202453389E+02  0.34662058764E+02  0.00000000000E+00 0. -1.
        -13    1    3    3    0    0  0.49279128931E+02  0.25387876305E+02 -0.22482047936E+03  0.23155393487E+03  0.00000000000E+00 0. -1.
         13    1    3    3    0    0 -0.32418983158E+02  0.36213288315E+02 -0.84117533209E+02  0.97150152407E+02  0.00000000000E+00 0.  1.
         21    1    1    2  503  501 -0.11814404549E+01  0.25721883194E+02 -0.64088086929E+01  0.26534579429E+02  0.00000000000E+00 0.  1.
         -1    1    1    2    0  502  0.32465421566E+03  0.53834242152E+02  0.26294943468E+02  0.33013619829E+03  0.00000000000E+00 0.  1.
<scales pt_clust_5="13000.00000" pt_clust_6="13000.00000" pt_clust_7="13000.00000" pt_clust_8="13000.00000" pt_clust_9="25.74900" pt_clust_10="13000.00000"></scales>
<clustering>
<clus scale="   25.749">  1  9  2 -1</clus>
<clus scale="   89.345">  5  6 -1 -1</clus>
<clus scale="   92.329">  7  8 -1 -1</clus>
<clus scale="  112.636">  2  7  1 -1</clus>
<clus scale="  344.825">  5 10 -1 -1</clus>
<clus scale="   25.749">  1  5  2 -1</clus>
</clustering>
</event>
<event>
10    2  0.5921424E-006  0.3515798E+03  0.7546771E-02  0.1110188E+00
         -1   -1    0    0    0  501 -0.00000000000E+00  0.00000000000E+00  0.56908579958E+03  0.56908579958E+03  0.00000000000E+00 0.  1.
         21   -1    0    0  503  502  0.00000000000E+00 -0.00000000000E+00 -0.28070095438E+03  0.28070095438E+03  0.00000000000E+00 0.  1.
         23    2    1    2    0    0  0.22991850428E+02 -0.27779726621E+02  0.27517943669E+03  0.29182920034E+03  0.90223175502E+02 0.  0.
         23    2    1    2    0    0  0.88872546111E+01 -0.40720932475E+02 -0.78974845291E+02  0.12798560881E+03  0.91684852821E+02 0.  0.
        -13    1    3    3    0    0 -0.22109820085E+02 -0.43503848406E+02  0.15521797833E+03  0.16270848094E+03  0.00000000000E+00 0.  1.
         13    1    3    3    0    0  0.45101670513E+02  0.15724121785E+02  0.11996145836E+03  0.12912071941E+03  0.00000000000E+00 0. -1.
        -13    1    4    4    0    0  0.67440083292E+01 -0.69909743328E+02 -0.46313295829E+02  0.84129514626E+02  0.00000000000E+00 0.  1.
         13    1    4    4    0    0  0.21432462819E+01  0.29188810853E+02 -0.32661549462E+02  0.43856094182E+02  0.00000000000E+00 0. -1.
         21    1    1    2  503  501  0.20258806348E+02  0.11255750285E+02 -0.16231359843E+03  0.16395979807E+03  0.00000000000E+00 0.  1.
         -1    1    1    2    0  502 -0.52137911387E+02  0.57244908812E+02  0.25449385223E+03  0.26601214674E+03  0.00000000000E+00 0.  1.
<scales pt_clust_5="13000.00000" pt_clust_6="13000.00000" pt_clust_7="13000.00000" pt_clust_8="13000.00000" pt_clust_9="23.17566" pt_clust_10="13000.00000"></scales>
<clustering>
<clus scale="   23.176">  2  9  1 -1</clus>
<clus scale="   90.223">  5  6 -1 -1</clus>
<clus scale="   91.685">  7  8 -1 -1</clus>
<clus scale="   77.177">  7 10 -1 -1</clus>
<clus scale="   97.288">  1  5  2 -1</clus>
<clus scale="   23.176">  2  5  1 -1</clus>
</clustering>
</event>
<event>
10    2  0.5921424E-006  0.1584414E+03  0.7546771E-02  0.1213045E+00
         21   -1    0    0  503  502  0.00000000000E+00  0.00000000000E+00  0.48925311404E+03  0.48925311404E+03  0.00000000000E+00 0. -1.
         -1   -1    0    0    0  501 -0.00000000000E+00 -0.00000000000E+00 -0.43493447494E+02  0.43493447494E+02  0.00000000000E+00 0.  1.
         23    2    1    2    0    0 -0.49427604323E+01  0.20110348244E+02  0.16808738251E+03  0.19323198027E+03  0.93039631628E+02 0.  0.
         23    2    1    2    0    0  0.36937557719E+01 -0.50182768024E+02  0.84722964430E+02  0.13585780080E+03  0.93527575061E+02 0.  0.
        -11    1    3    3    0    0 -0.50331899785E+01 -0.20544008276E+02  0.89789716965E+00  0.21170628161E+02  0.00000000000E+00 0. -1.
         11    1    3    3    0    0  0.90429546139E-01  0.40654356520E+02  0.16718948534E+03  0.17206135211E+03  0.00000000000E+00 0.  1.
        -13    1    4    4    0    0  0.47794198396E+02 -0.20797923917E+02  0.32322267831E+02  0.61331623468E+02  0.00000000000E+00 0.  1.
         13    1    4    4    0    0 -0.44100442624E+02 -0.29384844108E+02  0.52400696599E+02  0.74526177327E+02  0.00000000000E+00 0. -1.
         21    1    1    2  503  501  0.27197679263E+02  0.16524833701E+02  0.64622669511E+02  0.72033834418E+02  0.00000000000E+00 0.  1.
         -1    1    1    2    0  502 -0.25948674603E+02  0.13547586079E+02  0.12832665009E+03  0.13162294605E+03  0.00000000000E+00 0.  1.
<scales pt_clust_5="13000.00000" pt_clust_6="13000.00000" pt_clust_7="13000.00000" pt_clust_8="13000.00000" pt_clust_9="31.82427" pt_clust_10="13000.00000"></scales>
<clustering>
<clus scale="   31.824">  1  9  2 -1</clus>
<clus scale="   93.040">  5  6 -1 -1</clus>
<clus scale="   93.528">  7  8 -1 -1</clus>
<clus scale="   25.610">  7 10 -1 -1</clus>
<clus scale="   97.168">  2  5  1 -1</clus>
<clus scale="   31.824">  1  5  2 -1</clus>
</clustering>
</event>
<event>
10    2  0.5921424E-006  0.1798308E+03  0.7546771E-02  0.1180350E+00
          1   -1    0    0  503    0 -0.00000000000E+00  0.00000000000E+00  0.58899060843E+03  0.58899060843E+03  0.00000000000E+00 0. -1.
         21   -1    0    0  501  502  0.00000000000E+00 -0.00000000000E+00 -0.17732160232E+03  0.17732160232E+03  0.00000000000E+00 0. -1.
         23    2    1    2    0    0  0.74434610740E+02 -0.21877487925E+02  0.22528352356E+03  0.25524218627E+03  0.91524706548E+02 0.  0.
         23    2    1    2    0    0 -0.75269315763E+02  0.66270744210E+02  0.26417437055E+03  0.29787350004E+03  0.94250955079E+02 0.  0.
        -13    1    3    3    0    0 -0.92369165332E+00 -0.37108331969E+02  0.39630718059E+02  0.54299864840E+02  0.00000000000E+00 0.  1.
         13    1    3    3    0    0  0.75358302394E+02  0.15230844043E+02  0.18565280550E+03  0.20094232143E+03  0.00000000000E+00 0. -1.
        -13    1    4    4    0    0  0.21692180772E+02  0.95290089949E+01  0.30729858642E+02  0.38803053117E+02  0.00000000000E+00 0.  1.
         13    1    4    4    0    0 -0.96961496535E+02  0.56741735215E+02  0.23344451191E+03  0.25907044692E+03  0.00000000000E+00 0. -1.
         21    1    1    2  503  502  0.62493613225E+02 -0.45551492007E+02 -0.11690440072E+03  0.14016786017E+03  0.00000000000E+00 0. -1.
          1    1    1    2  501    0 -0.61658908202E+02  0.11582357222E+01  0.39115512716E+02  0.73028664274E+02  0.00000000000E+00 0. -1.
<scales pt_clust_5="13000.00000" pt_clust_6="13000.00000" pt_clust_7="13000.00000" pt_clust_8="13000.00000" pt_clust_9="77.33298" pt_clust_10="13000.00000"></scales>
<clustering>
<clus scale="   77.333">  2  9  1 -1</clus>
<clus scale="   91.525">  5  6 -1 -1</clus>
<clus scale="   94.251">  7  8 -1 -1</clus>
<clus scale="   42.548">  7 10 -1 -1</clus>
<clus scale="  135.751">  1  5  2 -1</clus>
<clus scale="   77.333">  2  5  1 -1</clus>
</clustering>
</event>
<event>
10    2  0.5921424E-006  0.7372909E+03  0.7546771E-02  0.1012789E+00
         21   -1    0    0  503  502  0.00000000000E+00  0.00000000000E+00  0.32216596174E+03  0.32216596174E+03  0.00000000000E+00 0. -1.
          1   -1    0    0  502    0 -0.00000000000E+00 -0.00000000000E+00 -0.11105264150E+04  0.11105264150E+04  0.00000000000E+00 0. -1.
         23    2    1    2    0    0  0.80060227520E+02 -0.10641409778E+03 -0.46665270173E+03  0.49382971262E+03  0.91484647887E+02 0.  0.
         23    2    1    2    0    0 -0.36306162551E+03 -0.75568166934E+02 -0.18413896628E+03  0.42387220834E+03  0.90753503114E+02 0.  0.
        -13    1    3    3    0    0  0.43253275903E+02 -0.11355482806E+03 -0.39012240975E+03  0.40860866295E+03  0.00000000000E+00 0.  1.
         13    1    3    3    0    0  0.36806951617E+02  0.71407302738E+01 -0.76530291985E+02  0.85221049673E+02  0.00000000000E+00 0. -1.
        -13    1    4    4    0    0 -0.26231978238E+02 -0.20406237061E+01 -0.44928269073E+02  0.52065633476E+02  0.00000000000E+00 0.  1.
         13    1    4    4    0    0 -0.33682964727E+03 -0.73527543228E+02 -0.13921069721E+03  0.37180657486E+03  0.00000000000E+00 0. -1.
         21    1    1    2  503  501 -0.20272302861E+02  0.55098946467E+01  0.92862805017E+02  0.95209378519E+02  0.00000000000E+00 0. -1.
          1    1    1    2  501    0  0.30327370085E+03  0.17647237007E+03 -0.23043159023E+03  0.41978107723E+03  0.00000000000E+00 0. -1.
<scales pt_clust_5="13000.00000" pt_clust_6="13000.00000" pt_clust_7="13000.00000" pt_clust_8="13000.00000" pt_clust_9="21.00774" pt_clust_10="13000.00000"></scales>
<clustering>
<clus scale="   21.008">  1  9  2 -1</clus>
<clus scale="   90.754">  7  8 -1 -1</clus>
<clus scale="   91.485">  5  6 -1 -1</clus>
<clus scale="  160.753">  2  5  1 -1</clus>
<clus scale="  356.986">  7 10 -1 -1</clus>
<clus scale="   21.008">  1  5  2 -1</clus>
</clustering>
</event>
<event>
10    2  0.5921424E-006  0.2856023E+03  0.7546771E-02  0.1125789E+00
         21   -1    0    0  503  502  0.00000000000E+00  0.00000000000E+00  0.51531762536E+03  0.51531762536E+03  0.00000000000E+00 0.  1.
         -2   -1    0    0    0  501 -0.00000000000E+00 -0.00000000000E+00 -0.58874571369E+03  0.58874571369E+03  0.00000000000E+00 0.  1.
         23    2    1    2    0    0 -0.74207867016E+02  0.31975991225E+02 -0.52818031942E+03  0.54218862996E+03  0.92004288443E+02 0.  0.
         23    2    1    2    0    0  0.49614319759E+02  0.36865972287E+02  0.26715847714E+02  0.11370253716E+03  0.91617955662E+02 0.  0.
        -11    1    3    3    0    0 -0.79992995117E+02  0.55965755899E+02 -0.43185352784E+03  0.44275107522E+03  0.00000000000E+00 0.  1.
         11    1    3    3    0    0  0.57851281002E+01 -0.23989764673E+02 -0.96326791579E+02  0.99437554737E+02  0.00000000000E+00 0. -1.
        -13    1    4    4    0    0 -0.17467053547E+02  0.36931194098E+02  0.22135479538E+02  0.46464938518E+02  0.00000000000E+00 0.  1.
         13    1    4    4    0    0  0.67081373306E+02 -0.65221810724E-01  0.45803681758E+01  0.67237598642E+02  0.00000000000E+00 0. -1.
         21    1    1    2  503  501 -0.10642417916E+02  0.27791857553E+02  0.85905164515E+02  0.90913946651E+02  0.00000000000E+00 0.  1.
         -2    1    1    2    0  502  0.35235965174E+02 -0.96633821065E+02  0.34213121886E+03  0.35725822529E+03  0.00000000000E+00 0.  1.
<scales pt_clust_5="13000.00000" pt_clust_6="13000.00000" pt_clust_7="13000.00000" pt_clust_8="13000.00000" pt_clust_9="29.75985" pt_clust_10="13000.00000"></scales>
<clustering>
<clus scale="   29.760">  1  9  2 -1</clus>
<clus scale="   91.618">  7  8 -1 -1</clus>
<clus scale="   78.484">  7 10 -1 -1</clus>
<clus scale="   92.004">  5  6 -1 -1</clus>
<clus scale="  122.676">  2  5  1 -1</clus>
<clus scale="   29.760">  1  5  2 -1</clus>
</clustering>
</event>
<event>
10    2  0.5921424E-006  0.1900456E+03  0.7546771E-02  0.1185989E+00
         21   -1    0    0  501  502  0.00000000000E+00  0.00000000000E+00  0.17250208052E+03  0.17250208052E+03  0.00000000000E+00 0. -1.
          3   -1    0    0  503    0 -0.00000000000E+00 -0.00000000000E+00 -0.56150292200E+03  0.56150292200E+03  0.00000000000E+00 0. -1.
         23    2    1    2    0    0 -0.25485138871E+02  0.35526362958E+02 -0.11335947571E+03  0.15176587469E+03  0.90944462279E+02 0.  0.
         23    2    1    2    0    0 -0.47511089677E+02  0.12796675945E+02 -0.29111183446E+03  0.30837146346E+03  0.89026966465E+02 0.  0.
        -13    1    3    3    0    0  0.22809417179E+02 -0.13537385015E+02 -0.56723335010E+02  0.62618424124E+02  0.00000000000E+00 0.  1.
         13    1    3    3    0    0 -0.48294556050E+02  0.49063747973E+02 -0.56636140700E+02  0.89147450567E+02  0.00000000000E+00 0. -1.
        -13    1    4    4    0    0 -0.40337038738E+01  0.28127181733E+02 -0.23660788503E+02  0.36976236041E+02  0.00000000000E+00 0. -1.
         13    1    4    4    0    0 -0.43477385804E+02 -0.15330505787E+02 -0.26745104595E+03  0.27139522742E+03  0.00000000000E+00 0.  1.
         21    1    1    2  503  502  0.21604454435E+02  0.13999186339E+02  0.13066293186E+03  0.13317481531E+03  0.00000000000E+00 0. -1.
          3    1    1    2  501    0  0.51391774113E+02 -0.62322225243E+02 -0.11519246317E+03  0.14069284906E+03  0.00000000000E+00 0. -1.
<scales pt_clust_5="13000.00000" pt_clust_6="13000.00000" pt_clust_7="13000.00000" pt_clust_8="13000.00000" pt_clust_9="25.74354" pt_clust_10="13000.00000"></scales>
<clustering>
<clus scale="   25.744">  1  9  2 -1</clus>
<clus scale="   89.027">  7  8 -1 -1</clus>
<clus scale="   82.098">  7 10 -1 -1</clus>
<clus scale="   90.944">  5  6 -1 -1</clus>
<clus scale="  101.393">  2  5  1 -1</clus>
<clus scale="   25.744">  1  5  2 -1</clus>
</clustering>
</event>
<event>
10    2  0.5921424E-006  0.2092201E+03  0.7546771E-02  0.1165526E+00
         21   -1    0    0  503  502  0.00000000000E+00  0.00000000000E+00  0.55702502494E+03  0.55702502494E+03  0.00000000000E+00 0. -1.
          1   -1    0    0  502    0 -0.00000000000E+00 -0.00000000000E+00 -0.57769697945E+02  0.57769697945E+02  0.00000000000E+00 0. -1.
         23    2    1    2    0    0  0.22470677690E+01  0.72057506909E+02  0.15216521750E+03  0.19144911540E+03  0.91110793846E+02 0.  0.
         23    2    1    2    0    0 -0.10804386658E+02  0.23155108902E+02  0.17501688577E+03  0.19904343971E+03  0.91293410210E+02 0.  0.
        -11    1    4    4    0    0  0.33905419599E+02  0.85999468346E+01  0.28353461780E+02  0.45027273498E+02  0.00000000000E+00 0.  1.
         11    1    4    4    0    0 -0.44709806257E+02  0.14555162067E+02  0.14666342399E+03  0.15401616622E+03  0.00000000000E+00 0. -1.
        -13    1    3    3    0    0  0.39958162252E+02  0.65874774603E+02  0.89965260998E+02  0.11844783175E+03  0.00000000000E+00 0. -1.
         13    1    3    3    0    0 -0.37711094483E+02  0.61827323062E+01  0.62199956504E+02  0.73001283653E+02  0.00000000000E+00 0.  1.
         21    1    1    2  503  501 -0.54149766640E+01  0.22569324553E+02  0.15637390584E+02  0.27986145989E+02  0.00000000000E+00 0.  1.
          1    1    1    2  501    0  0.13972295553E+02 -0.11778194036E+03  0.15643583314E+03  0.19631602178E+03  0.00000000000E+00 0. -1.
<scales pt_clust_5="13000.00000" pt_clust_6="13000.00000" pt_clust_7="13000.00000" pt_clust_8="13000.00000" pt_clust_9="23.20985" pt_clust_10="13000.00000"></scales>
<clustering>
<clus scale="   23.210">  1  9  2 -1</clus>
<clus scale="   91.111">  7  8 -1 -1</clus>
<clus scale="   91.293">  5  6 -1 -1</clus>
<clus scale="  111.015">  5 10 -1 -1</clus>
<clus scale="  120.790">  2  7  1 -1</clus>
<clus scale="   23.210">  1  5  2 -1</clus>
</clustering>
</event>
<event>
10    2  0.5921424E-006  0.4132717E+03  0.7546771E-02  0.1090574E+00
         -4   -1    0    0    0  501 -0.00000000000E+00  0.00000000000E+00  0.52987296217E+03  0.52987296217E+03  0.00000000000E+00 0.  1.
         21   -1    0    0  503  502  0.00000000000E+00 -0.00000000000E+00 -0.32068124224E+03  0.32068124224E+03  0.00000000000E+00 0.  1.
         23    2    1    2    0    0 -0.84242170957E+01  0.43793833974E+02 -0.32008423872E+02  0.10638222401E+03  0.91125029815E+02 0.  0.
         23    2    1    2    0    0  0.90243673765E+02  0.10293590572E+03  0.43799876715E+03  0.46766766704E+03  0.90168760874E+02 0.  0.
        -11    1    4    4    0    0  0.42630262417E+02  0.19168307164E+02  0.52422302429E+02  0.70234329678E+02  0.00000000000E+00 0. -1.
         11    1    4    4    0    0  0.47613411348E+02  0.83767598555E+02  0.38557646472E+03  0.39743333737E+03  0.00000000000E+00 0.  1.
        -13    1    3    3    0    0 -0.22318405414E+02 -0.21958794798E+02  0.13809684101E+01  0.31340181285E+02  0.00000000000E+00 0. -1.
         13    1    3    3    0    0  0.13894188319E+02  0.65752628772E+02 -0.33389392282E+02  0.75042042726E+02  0.00000000000E+00 0.  1.
         21    1    1    2  503  501 -0.61041148499E+02 -0.54848760837E+02 -0.15077595442E+03  0.17166186766E+03  0.00000000000E+00 0.  1.
         -4    1    1    2    0  502 -0.20778308171E+02 -0.91880978855E+02 -0.46022668922E+02  0.10484244570E+03  0.00000000000E+00 0.  1.
<scales pt_clust_5="13000.00000" pt_clust_6="13000.00000" pt_clust_7="13000.00000" pt_clust_8="13000.00000" pt_clust_9="82.06344" pt_clust_10="13000.00000"></scales>
<clustering>
<clus scale="   82.063">  2  9  1 -1</clus>
<clus scale="   90.169">  5  6 -1 -1</clus>
<clus scale="   91.125">  7  8 -1 -1</clus>
<clus scale="   99.611">  1  7  2 -1</clus>
<clus scale="  127.328">  5 10 -1 -1</clus>
<clus scale="   82.063">  2  5  1 -1</clus>
</clustering>
</event>
<event>
10    2  0.5921424E-006  0.4371388E+03  0.7546771E-02  0.1086719E+00
         21   -1    0    0  501  502  0.00000000000E+00  0.00000000000E+00  0.14142622794E+03  0.14142622794E+03  0.00000000000E+00 0. -1.
          1   -1    0    0  503    0 -0.00000000000E+00 -0.00000000000E+00 -0.63441790895E+03  0.63441790895E+03  0.00000000000E+00 0. -1.
         23    2    1    2    0    0 -0.22741907241E+02  0.81028724843E+01 -0.82463213210E+01  0.94436230558E+02  0.90924963234E+02 0.  0.
         23    2    1    2    0    0 -0.11712181458E+03 -0.11779473444E+03 -0.41206040509E+03  0.45367406745E+03  0.91832799810E+02 0.  0.
        -11    1    3    3    0    0  0.33850806656E+02  0.89650649238E+01  0.72359169135E+01  0.35757628472E+02  0.00000000000E+00 0.  1.
         11    1    3    3    0    0 -0.56592713897E+02 -0.86219243949E+00 -0.15482238235E+02  0.58678602086E+02  0.00000000000E+00 0. -1.
        -13    1    4    4    0    0 -0.18262409289E+02 -0.76665743829E+02 -0.13062442204E+03  0.15255783003E+03  0.00000000000E+00 0. -1.
         13    1    4    4    0    0 -0.98859405294E+02 -0.41128990614E+02 -0.28143598304E+03  0.30111623742E+03  0.00000000000E+00 0.  1.
         21    1    1    2  503  502  0.63861685360E+01 -0.22403241845E+02  0.61076822212E+01  0.24083026717E+02  0.00000000000E+00 0.  1.
          1    1    1    2  501    0  0.13347755329E+03  0.13209510380E+03 -0.78792636827E+02  0.20365081217E+03  0.00000000000E+00 0. -1.
<scales pt_clust_5="13000.00000" pt_clust_6="13000.00000" pt_clust_7="13000.00000" pt_clust_8="13000.00000" pt_clust_9="23.29567" pt_clust_10="13000.00000"></scales>
<clustering>
<clus scale="   23.296">  1  9  2 -1</clus>
<clus scale="   90.925">  5  6 -1 -1</clus>
<clus scale="   91.833">  7  8 -1 -1</clus>
<clus scale="   93.222">  2  5  1 -1</clus>
<clus scale="  178.965">  7 10 -1 -1</clus>
<clus scale="   23.296">  1  5  2 -1</clus>
</clustering>
</event>
<event>
10    2  0.5921424E-006  0.1598361E+03  0.7546771E-02  0.1210317E+00
         21   -1    0    0  503  502  0.00000000000E+00  0.00000000000E+00  0.55982279949E+02  0.55982279949E+02  0.00000000000E+00 0. -1.
          1   -1    0    0  502    0 -0.00000000000E+00 -0.00000000000E+00 -0.72708352638E+03  0.72708352638E+03  0.00000000000E+00 0. -1.
         23    2    1    2    0    0  0.45091663250E+02 -0.82362776968E+01 -0.72867700964E+02  0.12709759460E+03  0.93504023142E+02 0.  0.
         23    2    1    2    0    0  0.24945895690E+02  0.11128824237E+02 -0.32597496774E+03  0.33964500696E+03  0.91394216008E+02 0.  0.
        -11    1    3    3    0    0  0.48497908553E+02 -0.43865233494E+02 -0.60898436826E+02  0.89357850530E+02  0.00000000000E+00 0. -1.
         11    1    3    3    0    0 -0.34062453031E+01  0.35628955797E+02 -0.11969264138E+02  0.37739744067E+02  0.00000000000E+00 0.  1.
        -11    1    4    4    0    0  0.25233202333E+02  0.46484390433E+02 -0.25407558502E+03  0.25952247679E+03  0.00000000000E+00 0.  1.
         11    1    4    4    0    0 -0.28730664299E+00 -0.35355566196E+02 -0.71899382721E+02  0.80122530176E+02  0.00000000000E+00 0. -1.
         21    1    1    2  503  501 -0.15716581558E+02  0.29981523512E+02  0.28610345494E+01  0.33971873758E+02  0.00000000000E+00 0. -1.
          1    1    1    2  501    0 -0.54320977382E+02 -0.32874070053E+02 -0.27511961227E+03  0.28235133101E+03  0.00000000000E+00 0. -1.
<scales pt_clust_5="13000.00000" pt_clust_6="13000.00000" pt_clust_7="13000.00000" pt_clust_8="13000.00000" pt_clust_9="33.85118" pt_clust_10="13000.00000"></scales>
<clustering>
<clus scale="   33.851">  1  9  2 -1</clus>
<clus scale="   91.394">  7  8 -1 -1</clus>
<clus scale="   63.377">  7 10 -1 -1</clus>
<clus scale="   93.504">  5  6 -1 -1</clus>
<clus scale="  100.307">  2  5  1 -1</clus>
<clus scale="   33.851">  1  5  2 -1</clus>
</clustering>
</event>
<event>
10    2  0.5921424E-006  0.4067377E+03  0.7546771E-02  0.1062411E+00
         21   -1    0    0  501  502  0.00000000000E+00  0.00000000000E+00  0.15778989747E+03  0.15778989747E+03  0.00000000000E+00 0.  1.
         -2   -1    0    0    0  501 -0.00000000000E+00 -0.00000000000E+00 -0.12530766301E+04  0.12530766301E+04  0.00000000000E+00 0.  1.
         23    2    1    2    0    0  0.70816778664E+02 -0.17587109814E+03 -0.74064919431E+02  0.22433637736E+03  0.94316163063E+02 0.  0.
         23    2    1    2    0    0 -0.16347757481E+03  0.24909065280E+03 -0.85295315772E+03  0.90817671563E+03  0.92112902290E+02 0.  0.
        -11    1    4    4    0    0 -0.68937167972E+02  0.78512516730E+02 -0.18648157210E+03  0.21375669614E+03  0.00000000000E+00 0.  1.
         11    1    4    4    0    0 -0.94540406840E+02  0.17057813607E+03 -0.66647158562E+03  0.69442001949E+03  0.00000000000E+00 0. -1.
        -13    1    3    3    0    0  0.31159783596E+02 -0.11045215907E+02 -0.39163719219E+02  0.51251593255E+02  0.00000000000E+00 0. -1.
         13    1    3    3    0    0  0.39656995069E+02 -0.16482588224E+03 -0.34901200212E+02  0.17308478411E+03  0.00000000000E+00 0.  1.
         21    1    1    2  503  502  0.13954274688E+02 -0.16899029512E+02  0.41725046180E+02  0.47130440898E+02  0.00000000000E+00 0.  1.
         -2    1    1    2    0  503  0.78706521459E+02 -0.56320525145E+02 -0.20999370170E+03  0.23122299372E+03  0.00000000000E+00 0.  1.
<scales pt_clust_5="13000.00000" pt_clust_6="13000.00000" pt_clust_7="13000.00000" pt_clust_8="13000.00000" pt_clust_9="21.91572" pt_clust_10="13000.00000"></scales>
<clustering>
<clus scale="   21.916">  1  9  2 -1</clus>
<clus scale="   92.113">  5  6 -1 -1</clus>
<clus scale="   94.316">  7  8 -1 -1</clus>
<clus scale="   98.767">  5 10 -1 -1</clus>
<clus scale="  224.281">  2  7  1 -1</clus>
<clus scale="   21.916">  1  5  2 -1</clus>
</clustering>
</event>
<event>
10    2  0.5921424E-006  0.2547272E+03  0.7546771E-02  0.1132425E+00
         -1   -1    0    0    0  501 -0.00000000000E+00  0.00000000000E+00  0.80298193710E+03  0.80298193710E+03  0.00000000000E+00 0.  1.
         21   -1    0    0  503  502  0.00000000000E+00 -0.00000000000E+00 -0.76255233922E+02  0.76255233922E+02  0.00000000000E+00 0.  1.
         23    2    1    2    0    0  0.10623284352E+03 -0.43132595948E+02  0.92486653408E+02  0.17305992599E+03  0.90830165971E+02 0.  0.
         23    2    1    2    0    0 -0.16128909829E+03  0.44554583978E+02  0.44323737054E+03  0.48298491526E+03  0.93892372155E+02 0.  0.
        -11    1    4    4    0    0 -0.16205026542E+03  0.19477412558E+02  0.34602389678E+03  0.38258619324E+03  0.00000000000E+00 0.  1.
         11    1    4    4    0    0  0.76116712773E+00  0.25077171420E+02  0.97213473760E+02  0.10039872202E+03  0.00000000000E+00 0. -1.
        -13    1    3    3    0    0  0.57729316130E+02 -0.47488134233E+02  0.75226843049E+01  0.75129139572E+02  0.00000000000E+00 0.  1.
         13    1    3    3    0    0  0.48503527386E+02  0.43555382843E+01  0.84963969103E+02  0.97930786418E+02  0.00000000000E+00 0. -1.
         21    1    1    2  503  501  0.13926370301E+02  0.48061493037E+02  0.68640452541E+02  0.84943290658E+02  0.00000000000E+00 0. -1.
         -1    1    1    2    0  502  0.41129884471E+02 -0.49483481068E+02  0.12236222670E+03  0.13824903912E+03  0.00000000000E+00 0.  1.
<scales pt_clust_5="13000.00000" pt_clust_6="13000.00000" pt_clust_7="13000.00000" pt_clust_8="13000.00000" pt_clust_9="50.03849" pt_clust_10="13000.00000"></scales>
<clustering>
<clus scale="   50.038">  2  9  1 -1</clus>
<clus scale="   90.830">  7  8 -1 -1</clus>
<clus scale="   93.892">  5  6 -1 -1</clus>
<clus scale="   61.263">  5 10 -1 -1</clus>
<clus scale="  146.867">  1  7  2 -1</clus>
<clus scale="   50.038">  2  5  1 -1</clus>
</clustering>
</event>
<event>
10    2  0.5921424E-006  0.2049812E+03  0.7546771E-02  0.1150901E+00
         21   -1    0    0  503  502  0.00000000000E+00  0.00000000000E+00  0.14698585873E+03  0.14698585873E+03  0.00000000000E+00 0.  1.
         -1   -1    0    0    0  501 -0.00000000000E+00 -0.00000000000E+00 -0.60997808200E+03  0.60997808200E+03  0.00000000000E+00 0.  1.
         23    2    1    2    0    0 -0.15171126306E+03 -0.51742759089E+02 -0.43552638835E+03  0.47483325941E+03  0.10044784140E+03 0.  0.
         23    2    1    2    0    0  0.81110276612E+02  0.98584640988E+02 -0.47473604029E+02  0.16435736422E+03  0.91987997496E+02 0.  0.
        -11    1    4    4    0    0 -0.32423182947E+01  0.64901157541E+02 -0.85603891089E+01  0.65543520960E+02  0.00000000000E+00 0.  1.
         11    1    4    4    0    0  0.84352594907E+02  0.33683483447E+02 -0.38913214920E+02  0.98813843261E+02  0.00000000000E+00 0. -1.
        -13    1    3    3    0    0 -0.11948531385E+03 -0.70670652954E+02 -0.25361327929E+03  0.28912069599E+03  0.00000000000E+00 0.  1.
         13    1    3    3    0    0 -0.32225949210E+02  0.18927893864E+02 -0.18191310906E+03  0.18571256343E+03  0.00000000000E+00 0. -1.
         21    1    1    2  503  501  0.55720849941E+02 -0.28100080448E+02  0.49600103077E+02  0.79715731601E+02  0.00000000000E+00 0.  1.
         -1    1    1    2    0  502  0.14880136504E+02 -0.18741801451E+02 -0.29592333969E+02  0.38057585495E+02  0.00000000000E+00 0.  1.
<scales pt_clust_5="13000.00000" pt_clust_6="13000.00000" pt_clust_7="13000.00000" pt_clust_8="13000.00000" pt_clust_9="62.40535" pt_clust_10="13000.00000"></scales>
<clustering>
<clus scale="   62.405">  1  9  2 -1</clus>
<clus scale="   91.988">  5  6 -1 -1</clus>
<clus scale="   26.877">  5 10 -1 -1</clus>
<clus scale="  100.448">  7  8 -1 -1</clus>
<clus scale="  180.730">  2  7  1 -1</clus>
<clus scale="   62.405">  1  5  2 -1</clus>
</clustering>
</event>
<event>
10    2  0.5921424E-006  0.1529874E+03  0.7546771E-02  0.1203197E+00
         21   -1    0    0  501  502  0.00000000000E+00  0.00000000000E+00  0.22017066115E+03  0.22017066115E+03  0.00000000000E+00 0.  1.
          1   -1    0    0  503    0 -0.00000000000E+00 -0.00000000000E+00 -0.12856767931E+03  0.12856767931E+03  0.00000000000E+00 0. -1.
         23    2    1    2    0    0 -0.93963255119E+02 -0.34787114186E+02  0.71575471904E+02  0.15285913725E+03  0.90573898207E+02 0.  0.
         23    2    1    2    0    0  0.41633707845E+02  0.39564794583E+02 -0.23342902701E+01  0.11209569756E+03  0.96235429555E+02 0.  0.
        -13    1    4    4    0    0  0.34224219607E+02 -0.68288815220E+00  0.40382758180E+02  0.52938933708E+02  0.00000000000E+00 0.  1.
         13    1    4    4    0    0  0.74094882386E+01  0.40247682735E+02 -0.42717048450E+02  0.59156763855E+02  0.00000000000E+00 0. -1.
        -13    1    3    3    0    0 -0.42823554947E+02 -0.61774563119E+02  0.53551109101E+02  0.92291249817E+02  0.00000000000E+00 0.  1.
         13    1    3    3    0    0 -0.51139700172E+02  0.26987448933E+02  0.18024362803E+02  0.60567887433E+02  0.00000000000E+00 0. -1.
         21    1    1    2  503  502  0.20102544075E+02 -0.31054707639E+02  0.20191227055E+02  0.42144902359E+02  0.00000000000E+00 0. -1.
          1    1    1    2  501    0  0.32227003199E+02  0.26277027242E+02  0.21705731476E+01  0.41638603287E+02  0.00000000000E+00 0. -1.
<scales pt_clust_5="13000.00000" pt_clust_6="13000.00000" pt_clust_7="13000.00000" pt_clust_8="13000.00000" pt_clust_9="36.99334" pt_clust_10="13000.00000"></scales>
<clustering>
<clus scale="   36.993">  1  9  2 -1</clus>
<clus scale="   90.574">  7  8 -1 -1</clus>
<clus scale="   96.235">  5  6 -1 -1</clus>
<clus scale="   41.334">  5 10 -1 -1</clus>
<clus scale="  133.286">  2  7  1 -1</clus>
<clus scale="   36.993">  1  5  2 -1</clus>
</clustering>
</event>
<event>
10    2  0.5921424E-006  0.1799775E+03  0.7546771E-02  0.1195401E+00
         21   -1    0    0  503  502  0.00000000000E+00  0.00000000000E+00  0.24505374879E+03  0.24505374879E+03  0.00000000000E+00 0. -1.
         -1   -1    0    0    0  501 -0.00000000000E+00 -0.00000000000E+00 -0.11308095811E+03  0.11308095811E+03  0.00000000000E+00 0.  1.
         23    2    1    2    0    0  0.47376743696E+02  0.64976081186E+01  0.61685777277E+01  0.98024349701E+02  0.85346042841E+02 0.  0.
         23    2    1    2    0    0 -0.80141402687E+02 -0.16086147128E+02  0.68092966507E+01  0.12232583205E+03  0.90751496471E+02 0.  0.
        -11    1    4    4    0    0  0.10471755827E+02 -0.18478278075E+02  0.21815901145E+02  0.30447298295E+02  0.00000000000E+00 0.  1.
         11    1    4    4    0    0 -0.90613158514E+02  0.23921309472E+01 -0.15006604494E+02  0.91878533754E+02  0.00000000000E+00 0. -1.
        -13    1    3    3    0    0 -0.12633151887E+02 -0.26069144015E+02 -0.30440500145E+01  0.29128388845E+02  0.00000000000E+00 0. -1.
         13    1    3    3    0    0  0.60009895583E+02  0.32566752133E+02  0.92126277422E+01  0.68895960856E+02  0.00000000000E+00 0.  1.
         21    1    1    2  503  501 -0.95111353787E+01  0.17734546805E+02  0.68660838542E+02  0.71549190043E+02  0.00000000000E+00 0. -1.
         -1    1    1    2    0  502  0.42275794369E+02 -0.81460077950E+01  0.50334077757E+02  0.66235335103E+02  0.00000000000E+00 0.  1.
<scales pt_clust_5="13000.00000" pt_clust_6="13000.00000" pt_clust_7="13000.00000" pt_clust_8="13000.00000" pt_clust_9="20.12401" pt_clust_10="13000.00000"></scales>
<clustering>
<clus scale="   20.124">  1  9  2 -1</clus>
<clus scale="   85.346">  7  8 -1 -1</clus>
<clus scale="   90.751">  5  6 -1 -1</clus>
<clus scale="   39.171">  5 10 -1 -1</clus>
<clus scale="   96.989">  2  7  1 -1</clus>
<clus scale="   20.124">  1  5  2 -1</clus>
</clustering>
</event>
<event>
10    2  0.6663712E-006  0.4835787E+03  0.7546771E-02  0.1047746E+00
          2   -1    0    0  503    0 -0.00000000000E+00  0.00000000000E+00  0.83939767117E+03  0.83939767117E+03  0.00000000000E+00 0. -1.
         21   -1    0    0  501  502  0.00000000000E+00 -0.00000000000E+00 -0.13021907451E+04  0.13021907451E+04  0.00000000000E+00 0. -1.
         23    2    1    2    0    0 -0.15450955505E+03  0.86739172584E+02  0.38624638992E+03  0.43586430329E+03  0.96925386235E+02 0.  0.
         23    2    1    2    0    0  0.37046530836E+02 -0.15448473513E+03  0.20699308859E+03  0.27465501962E+03  0.85739502244E+02 0.  0.
        -11    1    4    4    0    0 -0.11575072365E+02 -0.29284517535E+02  0.94009434737E+02  0.99143023390E+02  0.00000000000E+00 0. -1.
         11    1    4    4    0    0  0.48621603201E+02 -0.12520021759E+03  0.11298365385E+03  0.17551199623E+03  0.00000000000E+00 0.  1.
        -11    1    3    3    0    0 -0.53752794372E+02 -0.17709891149E+02  0.98872407242E+02  0.11392434358E+03  0.00000000000E+00 0.  1.
         11    1    3    3    0    0 -0.10075676068E+03  0.10444906373E+03  0.28737398268E+03  0.32193995971E+03  0.00000000000E+00 0. -1.
         21    1    1    2  503  502  0.33181862551E+03  0.17153947055E+03 -0.11231444487E+04  0.11836312107E+04  0.00000000000E+00 0. -1.
          2    1    1    2  501    0 -0.21435560129E+03 -0.10379390801E+03  0.67111896317E+02  0.24743788265E+03  0.00000000000E+00 0. -1.
<scales pt_clust_5="13000.00000" pt_clust_6="13000.00000" pt_clust_7="13000.00000" pt_clust_8="13000.00000" pt_clust_9="366.80681" pt_clust_10="13000.00000"></scales>
<clustering>
<clus scale="   85.740">  5  6 -1 -1</clus>
<clus scale="   96.925">  7  8 -1 -1</clus>
<clus scale="  201.969">  1  7  2 -1</clus>
<clus scale="  280.472">  5 10 -1 -1</clus>
<clus scale="  366.807">  2  9  1 -1</clus>
<clus scale="  366.807">  2  5  1 -1</clus>
</clustering>
</event>
<event>
10    2  0.5921424E-006  0.4282029E+03  0.7546771E-02  0.1055462E+00
         -1   -1    0    0    0  501 -0.00000000000E+00  0.00000000000E+00  0.11903320591E+04  0.11903320591E+04  0.00000000000E+00 0.  1.
         21   -1    0    0  501  502  0.00000000000E+00 -0.00000000000E+00 -0.24921391948E+03  0.24921391948E+03  0.00000000000E+00 0.  1.
         23    2    1    2    0    0  0.13314737038E+03 -0.16855540835E+03  0.86836677593E+03  0.89888093350E+03  0.88243567203E+02 0.  0.
         23    2    1    2    0    0  0.81094347414E+02 -0.14640190263E+02 -0.17514915731E+02  0.12497186028E+03  0.92306907843E+02 0.  0.
        -11    1    4    4    0    0  0.66029646939E+02 -0.46876566405E+02 -0.31294779320E+02  0.86814111557E+02  0.00000000000E+00 0.  1.
         11    1    4    4    0    0  0.15064700475E+02  0.32236376141E+02  0.13779863589E+02  0.38157748724E+02  0.00000000000E+00 0. -1.
        -13    1    3    3    0    0  0.11122192213E+02 -0.81485012496E+02  0.29680839010E+03  0.30799144607E+03  0.00000000000E+00 0. -1.
         13    1    3    3    0    0  0.12202517817E+03 -0.87070395851E+02  0.57155838583E+03  0.59088948743E+03  0.00000000000E+00 0.  1.
         21    1    1    2  503  502 -0.15471513658E+02 -0.33153137629E+02 -0.71492166397E+02  0.80309576799E+02  0.00000000000E+00 0.  1.
         -1    1    1    2    0  503 -0.19877020414E+03  0.21634873624E+03  0.16175844584E+03  0.33538360802E+03  0.00000000000E+00 0.  1.
<scales pt_clust_5="13000.00000" pt_clust_6="13000.00000" pt_clust_7="13000.00000" pt_clust_8="13000.00000" pt_clust_9="36.58549" pt_clust_10="13000.00000"></scales>
<clustering>
<clus scale="   36.585">  2  9  1 -1</clus>
<clus scale="   88.244">  7  8 -1 -1</clus>
<clus scale="   92.307">  5  6 -1 -1</clus>
<clus scale="  233.576">  1  7  2 -1</clus>
<clus scale="  116.983">  5 10 -1 -1</clus>
<clus scale="   36.585">  2  5  1 -1</clus>
</clustering>
</event>
<event>
10    2  0.5921424E-006  0.1674183E+03  0.7546771E-02  0.1199843E+00
         21   -1    0    0  501  502  0.00000000000E+00  0.00000000000E+00  0.46119638950E+02  0.46119638950E+02  0.00000000000E+00 0. -1.
          1   -1    0    0  503    0 -0.00000000000E+00 -0.00000000000E+00 -0.64075076512E+03  0.64075076512E+03  0.00000000000E+00 0. -1.
         23    2    1    2    0    0  0.24199873845E+02 -0.39651862843E+02 -0.22640985465E+03  0.24914630216E+03  0.93029852625E+02 0.  0.
         23    2    1    2    0    0 -0.26832755878E+02  0.48631469153E+02 -0.36141183067E+03  0.37716587485E+03  0.92469287990E+02 0.  0.
        -13    1    4    4    0    0 -0.29502046577E+02 -0.19319225448E+02 -0.76283415790E+02  0.84040244816E+02  0.00000000000E+00 0.  1.
         13    1    4    4    0    0  0.26692906987E+01  0.67950694601E+02 -0.28512841488E+03  0.29312563003E+03  0.00000000000E+00 0. -1.
        -13    1    3    3    0    0  0.36191017731E+02 -0.68230727226E+01 -0.20473416630E+03  0.20802024646E+03  0.00000000000E+00 0. -1.
         13    1    3    3    0    0 -0.11991143886E+02 -0.32828790121E+02 -0.21675688344E+02  0.41126055703E+02  0.00000000000E+00 0.  1.
         21    1    1    2  503  502  0.28061223377E+02 -0.17831074007E+02 -0.40105164891E+01  0.33488262125E+02  0.00000000000E+00 0. -1.
          1    1    1    2  501    0 -0.25428341344E+02  0.88514676968E+01 -0.27989243624E+01  0.27069964933E+02  0.00000000000E+00 0. -1.
<scales pt_clust_5="13000.00000" pt_clust_6="13000.00000" pt_clust_7="13000.00000" pt_clust_8="13000.00000" pt_clust_9="33.24725" pt_clust_10="13000.00000"></scales>
<clustering>
<clus scale="   33.247">  1  9  2 -1</clus>
<clus scale="   92.469">  5  6 -1 -1</clus>
<clus scale="   14.707">  5 10 -1 -1</clus>
<clus scale="   93.030">  7  8 -1 -1</clus>
<clus scale="  109.370">  2  7  1 -1</clus>
<clus scale="   33.247">  1  5  2 -1</clus>
</clustering>
</event>
<event>
10    2  0.5921424E-006  0.1044053E+04  0.7546771E-02  0.9938274E-01
          1   -1    0    0  503    0 -0.00000000000E+00  0.00000000000E+00  0.60297799423E+03  0.60297799423E+03  0.00000000000E+00 0. -1.
         21   -1    0    0  501  502  0.00000000000E+00 -0.00000000000E+00 -0.30860278654E+04  0.30860278654E+04  0.00000000000E+00 0.  1.
         23    2    1    2    0    0 -0.46613061754E+02 -0.82498961102E+01 -0.38656968676E+02  0.10954744217E+03  0.90914479303E+02 0.  0.
         23    2    1    2    0    0  0.17232945656E+03  0.37095091536E+02  0.12517348539E+03  0.23202283935E+03  0.84218223219E+02 0.  0.
        -13    1    3    3    0    0 -0.55828119881E+02  0.22331898713E+02 -0.47249018013E+02  0.76471971158E+02  0.00000000000E+00 0.  1.
         13    1    3    3    0    0  0.92150581270E+01 -0.30581794823E+02  0.85920493366E+01  0.33075471012E+02  0.00000000000E+00 0. -1.
        -13    1    4    4    0    0  0.16188176609E+03  0.54406377203E+01  0.10172442517E+03  0.19126726173E+03  0.00000000000E+00 0.  1.
         13    1    4    4    0    0  0.10447690467E+02  0.31654453815E+02  0.23449060216E+02  0.40755577624E+02  0.00000000000E+00 0. -1.
         21    1    1    2  503  502 -0.42826555764E+03  0.71652045855E+03 -0.23783567695E+04  0.25205939535E+04  0.00000000000E+00 0.  1.
          1    1    1    2  501    0  0.30254916283E+03 -0.74536565398E+03 -0.19120961841E+03  0.82684162464E+03  0.00000000000E+00 0. -1.
<scales pt_clust_5="13000.00000" pt_clust_6="13000.00000" pt_clust_7="13000.00000" pt_clust_8="13000.00000" pt_clust_9="836.88099" pt_clust_10="13000.00000"></scales>
<clustering>
<clus scale="   84.218">  7  8 -1 -1</clus>
<clus scale="   90.914">  5  6 -1 -1</clus>
<clus scale="  102.500">  1  5  2 -1</clus>
<clus scale="  799.313">  7 10 -1 -1</clus>
<clus scale="  836.881">  2  9  1 -1</clus>
<clus scale="  836.881">  2  5  1 -1</clus>
</clustering>
</event>
<event>
10    2  0.5921424E-006  0.4093102E+03  0.7546771E-02  0.1083947E+00
          1   -1    0    0  503    0 -0.00000000000E+00  0.00000000000E+00  0.44528827143E+03  0.44528827143E+03  0.00000000000E+00 0. -1.
         21   -1    0    0  501  502  0.00000000000E+00 -0.00000000000E+00 -0.29218362315E+03  0.29218362315E+03  0.00000000000E+00 0. -1.
         23    2    1    2    0    0 -0.59337070776E+02 -0.54694014277E+02  0.60679708131E+02  0.13650196358E+03  0.91860959690E+02 0.  0.
         23    2    1    2    0    0  0.12702042553E+03  0.50717118548E+02  0.62864971551E+02  0.17845888771E+03  0.95860082099E+02 0.  0.
        -13    1    3    3    0    0 -0.74909972232E+02 -0.27235195205E+02  0.67215598855E+02  0.10426503022E+03  0.00000000000E+00 0.  1.
         13    1    3    3    0    0  0.15572901455E+02 -0.27458819072E+02 -0.65358907236E+01  0.32236933355E+02  0.00000000000E+00 0. -1.
        -13    1    4    4    0    0  0.55336924813E+02  0.58053862498E+02 -0.38006508391E+01  0.80292410260E+02  0.00000000000E+00 0.  1.
         13    1    4    4    0    0  0.71683500718E+02 -0.73367439494E+01  0.66665622390E+02  0.98166477453E+02  0.00000000000E+00 0. -1.
         21    1    1    2  503  502  0.47196826569E+02  0.18644726858E+03  0.66996675818E+02  0.20366315074E+03  0.00000000000E+00 0. -1.
          1    1    1    2  501    0 -0.11488018132E+03 -0.18247037285E+03 -0.37436707219E+02  0.21884789256E+03  0.00000000000E+00 0. -1.
<scales pt_clust_5="13000.00000" pt_clust_6="13000.00000" pt_clust_7="13000.00000" pt_clust_8="13000.00000" pt_clust_9="166.83845" pt_clust_10="13000.00000"></scales>
<clustering>
<clus scale="   91.861">  5  6 -1 -1</clus>
<clus scale="   95.860">  7  8 -1 -1</clus>
<clus scale="  122.273">  1  5  2 -1</clus>
<clus scale="  166.838">  2  9  1 -1</clus>
<clus scale="  137.851">  7 10 -1 -1</clus>
<clus scale="  166.838">  2  5  1 -1</clus>
</clustering>
</event>
<event>
10    2  0.5921424E-006  0.3654879E+03  0.7546771E-02  0.1106729E+00
         21   -1    0    0  501  502  0.00000000000E+00  0.00000000000E+00  0.27592178407E+03  0.27592178407E+03  0.00000000000E+00 0.  1.
          2   -1    0    0  503    0 -0.00000000000E+00 -0.00000000000E+00 -0.45618882315E+03  0.45618882315E+03  0.00000000000E+00 0. -1.
         23    2    1    2    0    0  0.40704088175E+02 -0.38999133123E+01 -0.19935490295E+03  0.22149033378E+03  0.87427447106E+02 0.  0.
         23    2    1    2    0    0 -0.18832057062E+01  0.10452879774E+02 -0.22493307404E+03  0.24473167423E+03  0.95843077025E+02 0.  0.
        -11    1    4    4    0    0 -0.44767756292E+02 -0.11209795593E+02 -0.84122191527E+02  0.95949750536E+02  0.00000000000E+00 0.  1.
         11    1    4    4    0    0  0.42884550586E+02  0.21662675367E+02 -0.14081088251E+03  0.14878192369E+03  0.00000000000E+00 0. -1.
        -11    1    3    3    0    0  0.62149644281E+02 -0.23778876835E+02 -0.12535106309E+03  0.14191864672E+03  0.00000000000E+00 0.  1.
         11    1    3    3    0    0 -0.21445556106E+02  0.19878963523E+02 -0.74003839862E+02  0.79571687061E+02  0.00000000000E+00 0. -1.
         21    1    1    2  503  502 -0.63935318325E+02  0.16225265520E+02  0.11588605958E+03  0.13334377741E+03  0.00000000000E+00 0.  1.
          2    1    1    2  501    0  0.25114435857E+02 -0.22778231982E+02  0.12813487834E+03  0.13254482180E+03  0.00000000000E+00 0. -1.
<scales pt_clust_5="13000.00000" pt_clust_6="13000.00000" pt_clust_7="13000.00000" pt_clust_8="13000.00000" pt_clust_9="65.96199" pt_clust_10="13000.00000"></scales>
<clustering>
<clus scale="   65.962">  1  9  2 -1</clus>
<clus scale="   87.427">  7  8 -1 -1</clus>
<clus scale="   94.599">  2  7  1 -1</clus>
<clus scale="   95.843">  5  6 -1 -1</clus>
<clus scale="   29.182">  5 10 -1 -1</clus>
<clus scale="   65.962">  1  5  2 -1</clus>
</clustering>
</event>
<event>
10    2  0.5921424E-006  0.2771080E+03  0.7546771E-02  0.1141484E+00
         -1   -1    0    0    0  501 -0.00000000000E+00  0.00000000000E+00  0.75233735848E+02  0.75233735848E+02  0.00000000000E+00 0.  1.
         21   -1    0    0  501  502  0.00000000000E+00 -0.00000000000E+00 -0.11260488201E+04  0.11260488201E+04  0.00000000000E+00 0.  1.
         23    2    1    2    0    0 -0.15964358743E+01  0.15699014700E+02 -0.87612259330E+02  0.12673773719E+03  0.90208305451E+02 0.  0.
         23    2    1    2    0    0 -0.21817134756E+02 -0.27957851222E+02 -0.35834245757E+03  0.37143387991E+03  0.91083376261E+02 0.  0.
        -11    1    4    4    0    0 -0.49462887276E+02 -0.42571540342E+02 -0.21336022198E+03  0.22311767655E+03  0.00000000000E+00 0.  1.
         11    1    4    4    0    0  0.27645752520E+02  0.14613689120E+02 -0.14498223559E+03  0.14831620336E+03  0.00000000000E+00 0. -1.
        -13    1    3    3    0    0  0.39575224886E+02  0.34136804197E+01 -0.69624699434E+02  0.80158907241E+02  0.00000000000E+00 0. -1.
         13    1    3    3    0    0 -0.41171660760E+02  0.12285334281E+02 -0.17987559895E+02  0.46578829946E+02  0.00000000000E+00 0.  1.
         21    1    1    2  503  502  0.14031337390E+03 -0.11068451255E+03 -0.22695343469E+03  0.28887153846E+03  0.00000000000E+00 0.  1.
         -1    1    1    2    0  503 -0.11689980327E+03  0.12294334908E+03 -0.37790693270E+03  0.41423940044E+03  0.00000000000E+00 0.  1.
<scales pt_clust_5="13000.00000" pt_clust_6="13000.00000" pt_clust_7="13000.00000" pt_clust_8="13000.00000" pt_clust_9="172.72573" pt_clust_10="13000.00000"></scales>
<clustering>
<clus scale="   90.208">  7  8 -1 -1</clus>
<clus scale="   91.083">  5  6 -1 -1</clus>
<clus scale="   91.578">  1  7  2 -1</clus>
<clus scale="  172.726">  2  9  1 -1</clus>
<clus scale="   86.446">  5 10 -1 -1</clus>
<clus scale="  172.726">  2  5  1 -1</clus>
</clustering>
</event>
<event>
10    2  0.5921424E-006  0.4438617E+03  0.7546771E-02  0.1084451E+00
         21   -1    0    0  503  502  0.00000000000E+00  0.00000000000E+00  0.72670595773E+03  0.72670595773E+03  0.00000000000E+00 0.  1.
         -1   -1    0    0    0  501 -0.00000000000E+00 -0.00000000000E+00 -0.39434370415E+03  0.39434370415E+03  0.00000000000E+00 0.  1.
         23    2    1    2    0    0  0.67107095101E+01  0.31549610360E+02 -0.31107060270E+03  0.32512215336E+03  0.88876786654E+02 0.  0.
         23    2    1    2    0    0  0.72029022473E+02  0.13026128434E+03  0.50961907670E+03  0.53927312155E+03  0.94592357060E+02 0.  0.
        -11    1    3    3    0    0  0.44030376893E+02  0.23975493874E+02 -0.11601732451E+03  0.12638638369E+03  0.00000000000E+00 0.  1.
         11    1    3    3    0    0 -0.37319667383E+02  0.75741164858E+01 -0.19505327819E+03  0.19873576967E+03  0.00000000000E+00 0. -1.
        -11    1    4    4    0    0  0.85949418686E+02  0.11301051027E+03  0.48828201361E+03  0.50850565662E+03  0.00000000000E+00 0.  1.
         11    1    4    4    0    0 -0.13920396213E+02  0.17250774071E+02  0.21337063094E+02  0.30767464931E+02  0.00000000000E+00 0. -1.
         21    1    1    2  503  501  0.17196381354E+02  0.11603817546E+02  0.14778288896E+02  0.25470805563E+02  0.00000000000E+00 0.  1.
         -1    1    1    2    0  502 -0.95936113337E+02 -0.17341471225E+03  0.11903549068E+03  0.23118358140E+03  0.00000000000E+00 0.  1.
<scales pt_clust_5="13000.00000" pt_clust_6="13000.00000" pt_clust_7="13000.00000" pt_clust_8="13000.00000" pt_clust_9="20.74522" pt_clust_10="13000.00000"></scales>
<clustering>
<clus scale="   20.745">  1  9  2 -1</clus>
<clus scale="   88.877">  5  6 -1 -1</clus>
<clus scale="   94.592">  7  8 -1 -1</clus>
<clus scale="   94.600">  2  5  1 -1</clus>
<clus scale="  171.311">  7 10 -1 -1</clus>
<clus scale="   20.745">  1  5  2 -1</clus>
</clustering>
</event>
<event>
10    2  0.5921424E-006  0.2631917E+03  0.7546771E-02  0.1137983E+00
         21   -1    0    0  501  502  0.00000000000E+00  0.00000000000E+00  0.16754837729E+03  0.16754837729E+03  0.00000000000E+00 0. -1.
          2   -1    0    0  503    0 -0.00000000000E+00 -0.00000000000E+00 -0.73831554007E+03  0.73831554007E+03  0.00000000000E+00 0. -1.
         23    2    1    2    0    0 -0.70338876568E+02  0.30028908872E+02 -0.35249127318E+03  0.37118443571E+03  0.87627020484E+02 0.  0.
         23    2    1    2    0    0  0.47415192894E+02 -0.82867599833E+02 -0.24569781535E+03  0.28380688021E+03  0.10518407279E+03 0.  0.
        -11    1    4    4    0    0  0.21908526071E+02 -0.10562158694E+03 -0.18718803006E+03  0.21604458276E+03  0.00000000000E+00 0. -1.
         11    1    4    4    0    0  0.25506666823E+02  0.22753987105E+02 -0.58509785292E+02  0.67762297456E+02  0.00000000000E+00 0.  1.
        -13    1    3    3    0    0 -0.76844486401E+02 -0.64588763021E+01 -0.20262989897E+03  0.21680790606E+03  0.00000000000E+00 0. -1.
         13    1    3    3    0    0  0.65056098329E+01  0.36487785174E+02 -0.14986137421E+03  0.15437652965E+03  0.00000000000E+00 0.  1.
         21    1    1    2  503  502 -0.92996215158E+02  0.75608341458E+02  0.51262004682E+02  0.13035609098E+03  0.00000000000E+00 0. -1.
          2    1    1    2  501    0  0.11591989883E+03 -0.22769650496E+02 -0.23840078935E+02  0.12051651046E+03  0.00000000000E+00 0. -1.
<scales pt_clust_5="13000.00000" pt_clust_6="13000.00000" pt_clust_7="13000.00000" pt_clust_8="13000.00000" pt_clust_9="127.59587" pt_clust_10="13000.00000"></scales>
<clustering>
<clus scale="   87.627">  7  8 -1 -1</clus>
<clus scale="  105.184">  5  6 -1 -1</clus>
<clus scale="  116.309">  2  7  1 -1</clus>
<clus scale="  103.838">  5 10 -1 -1</clus>
<clus scale="  127.596">  1  9  2 -1</clus>
<clus scale="  127.596">  1  5  2 -1</clus>
</clustering>
</event>
<event>
10    2  0.5921424E-006  0.3055474E+03  0.7546771E-02  0.1125620E+00
         21   -1    0    0  501  502  0.00000000000E+00  0.00000000000E+00  0.20348485139E+03  0.20348485139E+03  0.00000000000E+00 0. -1.
          2   -1    0    0  503    0 -0.00000000000E+00 -0.00000000000E+00 -0.50493139681E+03  0.50493139681E+03  0.00000000000E+00 0. -1.
         23    2    1    2    0    0 -0.38499421308E+02 -0.22114260316E+02 -0.30145203746E+03  0.31798477949E+03  0.90938128110E+02 0.  0.
         23    2    1    2    0    0  0.93227175851E+02 -0.85868973328E+02 -0.93088460714E+02  0.18147870589E+03  0.90577438013E+02 0.  0.
        -11    1    3    3    0    0  0.98990190750E+01 -0.32202712762E+02 -0.41891235833E+02  0.53757612740E+02  0.00000000000E+00 0.  1.
         11    1    3    3    0    0 -0.48398440383E+02  0.10088452445E+02 -0.25956080163E+03  0.26422716675E+03  0.00000000000E+00 0. -1.
        -13    1    4    4    0    0  0.90926852237E+02 -0.60636119923E+02 -0.29760577732E+02  0.11327013500E+03  0.00000000000E+00 0. -1.
         13    1    4    4    0    0  0.23003236139E+01 -0.25232853405E+02 -0.63327882982E+02  0.68208570888E+02  0.00000000000E+00 0.  1.
         21    1    1    2  503  502  0.22257904202E+02  0.35583514325E+01  0.74568838151E+02  0.77901141119E+02  0.00000000000E+00 0. -1.
          2    1    1    2  501    0 -0.76985658746E+02  0.10442488221E+03  0.18525114608E+02  0.13105162169E+03  0.00000000000E+00 0. -1.
<scales pt_clust_5="13000.00000" pt_clust_6="13000.00000" pt_clust_7="13000.00000" pt_clust_8="13000.00000" pt_clust_9="22.54054" pt_clust_10="13000.00000"></scales>
<clustering>
<clus scale="   22.541">  1  9  2 -1</clus>
<clus scale="   90.577">  7  8 -1 -1</clus>
<clus scale="   90.938">  5  6 -1 -1</clus>
<clus scale="  100.606">  2  5  1 -1</clus>
<clus scale="  124.828">  7 10 -1 -1</clus>
<clus scale="   22.541">  1  5  2 -1</clus>
</clustering>
</event>
<event>
10    2  0.5921424E-006  0.2262980E+03  0.7546771E-02  0.1151056E+00
         21   -1    0    0  501  502  0.00000000000E+00  0.00000000000E+00  0.46408991431E+03  0.46408991431E+03  0.00000000000E+00 0. -1.
          4   -1    0    0  503    0 -0.00000000000E+00 -0.00000000000E+00 -0.14850737727E+03  0.14850737727E+03  0.00000000000E+00 0. -1.
         23    2    1    2    0    0 -0.80028839658E+02 -0.10079449604E+02 -0.57670877303E+02  0.14697328002E+03  0.10848504261E+03 0.  0.
         23    2    1    2    0    0 -0.23842578984E+02 -0.15284445346E+02  0.33171359322E+02  0.10127574165E+03  0.91402154925E+02 0.  0.
        -13    1    4    4    0    0 -0.14737198652E+02  0.30201332113E+02  0.42273204283E+02  0.54003048857E+02  0.00000000000E+00 0.  1.
         13    1    4    4    0    0 -0.91053803321E+01 -0.45485777459E+02 -0.91018449606E+01  0.47272692791E+02  0.00000000000E+00 0. -1.
        -13    1    3    3    0    0 -0.29859418303E+01  0.40495587644E+02 -0.52381407761E+01  0.40941990500E+02  0.00000000000E+00 0.  1.
         13    1    3    3    0    0 -0.77042897827E+02 -0.50575037248E+02 -0.52432736526E+02  0.10603128952E+03  0.00000000000E+00 0. -1.
         21    1    1    2  503  502  0.19422450073E+02 -0.18677746896E+02  0.14229341407E+03  0.14482232385E+03  0.00000000000E+00 0. -1.
          4    1    1    2  501    0  0.84448968569E+02  0.44041641846E+02  0.19778864095E+03  0.21952594607E+03  0.00000000000E+00 0. -1.
<scales pt_clust_5="13000.00000" pt_clust_6="13000.00000" pt_clust_7="13000.00000" pt_clust_8="13000.00000" pt_clust_9="26.94605" pt_clust_10="13000.00000"></scales>
<clustering>
<clus scale="   26.946">  1  9  2 -1</clus>
<clus scale="   91.402">  5  6 -1 -1</clus>
<clus scale="  102.193">  5 10 -1 -1</clus>
<clus scale="  108.485">  7  8 -1 -1</clus>
<clus scale="  133.823">  2  7  1 -1</clus>
<clus scale="   26.946">  1  5  2 -1</clus>
</clustering>
</event>
<event>
10    2  0.5921424E-006  0.2017011E+03  0.7546771E-02  0.1171679E+00
         21   -1    0    0  501  502  0.00000000000E+00  0.00000000000E+00  0.29903095840E+03  0.29903095840E+03  0.00000000000E+00 0.  1.
          2   -1    0    0  503    0 -0.00000000000E+00 -0.00000000000E+00 -0.35195462868E+03  0.35195462868E+03  0.00000000000E+00 0. -1.
         23    2    1    2    0    0  0.46427646175E+02 -0.94720157198E+02 -0.37168929103E+02  0.14124519471E+03  0.86262629383E+02 0.  0.
         23    2    1    2    0    0 -0.53520075815E+02  0.60160447757E+02 -0.21857359795E+03  0.25051278788E+03  0.92187641163E+02 0.  0.
        -13    1    4    4    0    0 -0.53239575366E+02  0.82974630983E+02 -0.16383797983E+03  0.19121225224E+03  0.00000000000E+00 0. -1.
         13    1    4    4    0    0 -0.28050044949E+00 -0.22814183226E+02 -0.54735618116E+02  0.59300535641E+02  0.00000000000E+00 0.  1.
        -13    1    3    3    0    0 -0.20156564366E+02 -0.53658770342E+02 -0.22912582126E+02  0.61729548365E+02  0.00000000000E+00 0.  1.
         13    1    3    3    0    0  0.66584210541E+02 -0.41061386856E+02 -0.14256346977E+02  0.79515646341E+02  0.00000000000E+00 0. -1.
         21    1    1    2  503  502 -0.38726307693E+02  0.32848580987E+02  0.20704592926E+03  0.21318248756E+03  0.00000000000E+00 0.  1.
          2    1    1    2  501    0  0.45818737333E+02  0.17111284536E+01 -0.42270724799E+01  0.46045116930E+02  0.00000000000E+00 0. -1.
<scales pt_clust_5="13000.00000" pt_clust_6="13000.00000" pt_clust_7="13000.00000" pt_clust_8="13000.00000" pt_clust_9="50.78146" pt_clust_10="13000.00000"></scales>
<clustering>
<clus scale="   50.781">  1  9  2 -1</clus>
<clus scale="   86.263">  7  8 -1 -1</clus>
<clus scale="   92.188">  5  6 -1 -1</clus>
<clus scale="   37.905">  5 10 -1 -1</clus>
<clus scale="  117.071">  2  7  1 -1</clus>
<clus scale="   50.781">  1  5  2 -1</clus>
</clustering>
</event>
<event>
10    2  0.5921424E-006  0.1763801E+03  0.7546771E-02  0.1173682E+00
         21   -1    0    0  503  502  0.00000000000E+00  0.00000000000E+00  0.25378627497E+03  0.25378627497E+03  0.00000000000E+00 0. -1.
         -3   -1    0    0    0  501 -0.00000000000E+00 -0.00000000000E+00 -0.44720716817E+03  0.44720716817E+03  0.00000000000E+00 0.  1.
         23    2    1    2    0    0 -0.21466649836E+02  0.14588475816E+03 -0.33615904815E+03  0.37873425171E+03  0.93239197987E+02 0.  0.
         23    2    1    2    0    0  0.48479017744E+01 -0.10185819462E+03 -0.14870234830E+02  0.13731581282E+03  0.90751939943E+02 0.  0.
        -11    1    4    4    0    0  0.23158796980E+02 -0.11269418730E+03 -0.15112669314E+02  0.11603750473E+03  0.00000000000E+00 0. -1.
         11    1    4    4    0    0 -0.18310895206E+02  0.10835992685E+02  0.24243448337E+00  0.21278308090E+02  0.00000000000E+00 0.  1.
        -13    1    3    3    0    0 -0.34803798460E+02  0.39473209824E+02 -0.19186229808E+03  0.19894868712E+03  0.00000000000E+00 0.  1.
         13    1    3    3    0    0  0.13337148624E+02  0.10641154834E+03 -0.14429675007E+03  0.17978556459E+03  0.00000000000E+00 0. -1.
         21    1    1    2  503  501  0.33943539001E+02 -0.33464912991E+02  0.15760256077E+03  0.16465306375E+03  0.00000000000E+00 0. -1.
         -3    1    1    2    0  502 -0.17324790940E+02 -0.10561650551E+02  0.58290213178E-02  0.20290314868E+02  0.00000000000E+00 0.  1.
<scales pt_clust_5="13000.00000" pt_clust_6="13000.00000" pt_clust_7="13000.00000" pt_clust_8="13000.00000" pt_clust_9="47.66618" pt_clust_10="13000.00000"></scales>
<clustering>
<clus scale="   47.666">  1  9  2 -1</clus>
<clus scale="   90.752">  5  6 -1 -1</clus>
<clus scale="   19.687">  5 10 -1 -1</clus>
<clus scale="   93.239">  7  8 -1 -1</clus>
<clus scale="  167.268">  2  7  1 -1</clus>
<clus scale="   47.666">  1  5  2 -1</clus>
</clustering>
</event>
<event>
10    2  0.5921424E-006  0.2239236E+03  0.7546771E-02  0.1165786E+00
         -1   -1    0    0    0  501 -0.00000000000E+00  0.00000000000E+00  0.20153616003E+03  0.20153616003E+03  0.00000000000E+00 0.  1.
         21   -1    0    0  503  502  0.00000000000E+00 -0.00000000000E+00 -0.17375778399E+03  0.17375778399E+03  0.00000000000E+00 0.  1.
         23    2    1    2    0    0 -0.28695093236E+02 -0.51908960397E+02 -0.25845599250E+02  0.10500425329E+03  0.82703988191E+02 0.  0.
         23    2    1    2    0    0 -0.49918654462E+02 -0.40542534797E+02  0.26984798302E+02  0.11406462717E+03  0.90260681587E+02 0.  0.
        -13    1    3    3    0    0  0.29280677765E+02 -0.14032237324E+02 -0.98251873082E+01  0.33923385450E+02  0.00000000000E+00 0.  1.
         13    1    3    3    0    0 -0.57975771001E+02 -0.37876723073E+02 -0.16020411942E+02  0.71080867839E+02  0.00000000000E+00 0. -1.
        -13    1    4    4    0    0 -0.75749346117E+02 -0.37549701182E+02  0.17175585529E+02  0.86272499873E+02  0.00000000000E+00 0.  1.
         13    1    4    4    0    0  0.25830691655E+02 -0.29928336144E+01  0.98092127730E+01  0.27792127296E+02  0.00000000000E+00 0. -1.
         21    1    1    2  503  501 -0.69670147922E+01  0.22559835659E+02 -0.24889107133E+02  0.34306750559E+02  0.00000000000E+00 0.  1.
         -1    1    1    2    0  502  0.85580762490E+02  0.69891659534E+02  0.51528284119E+02  0.12191831300E+03  0.00000000000E+00 0.  1.
<scales pt_clust_5="13000.00000" pt_clust_6="13000.00000" pt_clust_7="13000.00000" pt_clust_8="13000.00000" pt_clust_9="23.61113" pt_clust_10="13000.00000"></scales>
<clustering>
<clus scale="   23.611">  2  9  1 -1</clus>
<clus scale="   82.704">  5  6 -1 -1</clus>
<clus scale="   90.261">  7  8 -1 -1</clus>
<clus scale="   97.935">  1  5  2 -1</clus>
<clus scale="   83.990">  7 10 -1 -1</clus>
<clus scale="   23.611">  2  5  1 -1</clus>
</clustering>
</event>
<event>
10    2  0.1685167E-005  0.1931177E+03  0.7546771E-02  0.1188486E+00
          1   -1    0    0  503    0 -0.00000000000E+00  0.00000000000E+00  0.59852050153E+03  0.59852050153E+03  0.00000000000E+00 0. -1.
         21   -1    0    0  501  502  0.00000000000E+00 -0.00000000000E+00 -0.36853511424E+03  0.36853511424E+03  0.00000000000E+00 0. -1.
         23    2    1    2    0    0 -0.24621915736E+02 -0.17309550431E+02  0.25992420888E+03  0.27647114920E+03  0.89273975544E+02 0.  0.
         23    2    1    2    0    0  0.22565588416E+02  0.16004347054E+02  0.29225567453E+03  0.30739569859E+03  0.91177800532E+02 0.  0.
        -13    1    4    4    0    0  0.35551521933E+02  0.48540102967E+02  0.19086506163E+03  0.20012377185E+03  0.00000000000E+00 0.  1.
         13    1    4    4    0    0 -0.12985933517E+02 -0.32535755912E+02  0.10139061290E+03  0.10727192674E+03  0.00000000000E+00 0. -1.
        -13    1    3    3    0    0 -0.52005046525E+02  0.80344992691E+01  0.19075585362E+03  0.19788095849E+03  0.00000000000E+00 0.  1.
         13    1    3    3    0    0  0.27383130789E+02 -0.25344049700E+02  0.69168355254E+02  0.78590190708E+02  0.00000000000E+00 0. -1.
         21    1    1    2  503  502  0.29319003786E+02  0.41971227590E+02 -0.32970563300E+03  0.33365699806E+03  0.00000000000E+00 0. -1.
          1    1    1    2  501    0 -0.27262676467E+02 -0.40666024214E+02  0.75111368766E+01  0.49531769912E+02  0.00000000000E+00 0. -1.
<scales pt_clust_5="13000.00000" pt_clust_6="13000.00000" pt_clust_7="13000.00000" pt_clust_8="13000.00000" pt_clust_9="51.19754" pt_clust_10="13000.00000"></scales>
<clustering>
<clus scale="   51.198">  2  9  1 -1</clus>
<clus scale="   89.274">  7  8 -1 -1</clus>
<clus scale="   91.178">  5  6 -1 -1</clus>
<clus scale="   19.785">  5 10 -1 -1</clus>
<clus scale="   91.419">  1  7  2 -1</clus>
<clus scale="   51.198">  2  5  1 -1</clus>
</clustering>
</event>
<event>
10    2  0.5921424E-006  0.1716902E+03  0.7546771E-02  0.1196187E+00
          1   -1    0    0  502    0 -0.00000000000E+00  0.00000000000E+00  0.74223162289E+03  0.74223162289E+03  0.00000000000E+00 0. -1.
         21   -1    0    0  503  502  0.00000000000E+00 -0.00000000000E+00 -0.36799835827E+02  0.36799835827E+02  0.00000000000E+00 0.  1.
         23    2    1    2    0    0 -0.28569987160E+02  0.42151803650E+02  0.28406466477E+03  0.30283058035E+03  0.91763870381E+02 0.  0.
         23    2    1    2    0    0  0.43882981088E+02 -0.38785541520E+01  0.34050131683E+03  0.35502275080E+03  0.90328553672E+02 0.  0.
        -11    1    3    3    0    0  0.29164080723E+02  0.21444835963E+02  0.56153704376E+02  0.66810651165E+02  0.00000000000E+00 0. -1.
         11    1    3    3    0    0 -0.57734067884E+02  0.20706967687E+02  0.22791096040E+03  0.23601992919E+03  0.00000000000E+00 0.  1.
        -11    1    4    4    0    0 -0.21765798263E+02  0.11699863080E+02  0.39821492129E+02  0.46865637791E+02  0.00000000000E+00 0.  1.
         11    1    4    4    0    0  0.65648779352E+02 -0.15578417232E+02  0.30067982470E+03  0.30815711301E+03  0.00000000000E+00 0. -1.
         21    1    1    2  503  501 -0.35347582299E+02  0.10369357169E+02  0.41380175488E+02  0.55401209968E+02  0.00000000000E+00 0.  1.
          1    1    1    2  501    0  0.20034588371E+02 -0.48642606667E+02  0.39485629968E+02  0.65776917597E+02  0.00000000000E+00 0. -1.
<scales pt_clust_5="13000.00000" pt_clust_6="13000.00000" pt_clust_7="13000.00000" pt_clust_8="13000.00000" pt_clust_9="36.83714" pt_clust_10="13000.00000"></scales>
<clustering>
<clus scale="   36.837">  2  9  1 -1</clus>
<clus scale="   90.329">  7  8 -1 -1</clus>
<clus scale="   44.289">  7 10 -1 -1</clus>
<clus scale="   91.764">  5  6 -1 -1</clus>
<clus scale="  109.817">  1  5  2 -1</clus>
<clus scale="   36.837">  2  5  1 -1</clus>
</clustering>
</event>
<event>
10    2  0.5921424E-006  0.3539996E+03  0.7546771E-02  0.1102266E+00
          1   -1    0    0  502    0 -0.00000000000E+00  0.00000000000E+00  0.35746307992E+03  0.35746307992E+03  0.00000000000E+00 0. -1.
         21   -1    0    0  503  502  0.00000000000E+00 -0.00000000000E+00 -0.22990783214E+03  0.22990783214E+03  0.00000000000E+00 0.  1.
         23    2    1    2    0    0  0.66342123616E+02 -0.33057447750E+02  0.92183575048E+02  0.14883315195E+03  0.90329526690E+02 0.  0.
         23    2    1    2    0    0  0.16063614426E+02  0.10048711849E+03 -0.94156645119E+02  0.16607652224E+03  0.91434330144E+02 0.  0.
        -11    1    3    3    0    0  0.78143520081E+01 -0.45238485407E+02  0.72652470969E+02  0.85941644138E+02  0.00000000000E+00 0.  1.
         11    1    3    3    0    0  0.58527771608E+02  0.12181037658E+02  0.19531104079E+02  0.62891507808E+02  0.00000000000E+00 0. -1.
        -11    1    4    4    0    0  0.37968595518E+02  0.44128238848E+02 -0.87705639906E+02  0.10526725503E+03  0.00000000000E+00 0.  1.
         11    1    4    4    0    0 -0.21904981092E+02  0.56358879640E+02 -0.64510052132E+01  0.60809267214E+02  0.00000000000E+00 0. -1.
         21    1    1    2  503  501 -0.19227585220E+02 -0.33316862393E+02 -0.59164295898E+02  0.70570016737E+02  0.00000000000E+00 0.  1.
          1    1    1    2  501    0 -0.63178152822E+02 -0.34112808345E+02  0.18869261375E+03  0.20189122113E+03  0.00000000000E+00 0. -1.
<scales pt_clust_5="13000.00000" pt_clust_6="13000.00000" pt_clust_7="13000.00000" pt_clust_8="13000.00000" pt_clust_9="38.46704" pt_clust_10="13000.00000"></scales>
<clustering>
<clus scale="   38.467">  2  9  1 -1</clus>
<clus scale="   90.330">  5  6 -1 -1</clus>
<clus scale="   91.434">  7  8 -1 -1</clus>
<clus scale="   73.113">  7 10 -1 -1</clus>
<clus scale="  116.779">  1  5  2 -1</clus>
<clus scale="   38.467">  2  5  1 -1</clus>
</clustering>
</event>
<event>
10    2  0.5921424E-006  0.4459674E+03  0.7546771E-02  0.1081707E+00
         21   -1    0    0  501  502  0.00000000000E+00  0.00000000000E+00  0.18409237948E+03  0.18409237948E+03  0.00000000000E+00 0. -1.
          2   -1    0    0  503    0 -0.00000000000E+00 -0.00000000000E+00 -0.62926474693E+03  0.62926474693E+03  0.00000000000E+00 0. -1.
         23    2    1    2    0    0 -0.31610436877E+02 -0.12511172083E+02 -0.58710221295E+02  0.11571151845E+03  0.93736419134E+02 0.  0.
         23    2    1    2    0    0  0.27878278130E+02  0.16449554679E+03 -0.41407602639E+03  0.45600354735E+03  0.92974707627E+02 0.  0.
        -13    1    3    3    0    0  0.21522297068E+02 -0.32528410432E+02 -0.40151138530E+02  0.55976965634E+02  0.00000000000E+00 0. -1.
         13    1    3    3    0    0 -0.53132733945E+02  0.20017238349E+02 -0.18559082766E+02  0.59734552821E+02  0.00000000000E+00 0.  1.
        -13    1    4    4    0    0 -0.86211671152E+01  0.54506017610E+02 -0.51961657946E+02  0.75797390288E+02  0.00000000000E+00 0.  1.
         13    1    4    4    0    0  0.36499445246E+02  0.10998952918E+03 -0.36211436844E+03  0.38020615706E+03  0.00000000000E+00 0. -1.
         21    1    1    2  503  502 -0.14645137737E+02  0.20090266715E+02  0.60574411593E+02  0.65477921591E+02  0.00000000000E+00 0.  1.
          2    1    1    2  501    0  0.18377296483E+02 -0.17207464142E+03 -0.32960531359E+02  0.17616413901E+03  0.00000000000E+00 0. -1.
<scales pt_clust_5="13000.00000" pt_clust_6="13000.00000" pt_clust_7="13000.00000" pt_clust_8="13000.00000" pt_clust_9="24.86159" pt_clust_10="13000.00000"></scales>
<clustering>
<clus scale="   24.862">  1  9  2 -1</clus>
<clus scale="   92.975">  7  8 -1 -1</clus>
<clus scale="   93.736">  5  6 -1 -1</clus>
<clus scale="  100.380">  2  5  1 -1</clus>
<clus scale="  161.564">  7 10 -1 -1</clus>
<clus scale="   24.862">  1  5  2 -1</clus>
</clustering>
</event>
<event>
10    2  0.5921424E-006  0.5716871E+03  0.7546771E-02  0.1036143E+00
          2   -1    0    0  503    0 -0.00000000000E+00  0.00000000000E+00  0.10774821587E+04  0.10774821587E+04  0.00000000000E+00 0. -1.
         21   -1    0    0  501  502  0.00000000000E+00 -0.00000000000E+00 -0.22941499230E+03  0.22941499230E+03  0.00000000000E+00 0. -1.
         23    2    1    2    0    0  0.12897651955E+03  0.71625753376E+02  0.18358149797E+03  0.25468172774E+03  0.96930000008E+02 0.  0.
         23    2    1    2    0    0 -0.17583684906E+03 -0.26653676435E+03  0.28933635796E+03  0.44059265509E+03  0.91901661823E+02 0.  0.
        -13    1    4    4    0    0 -0.14993536390E+03 -0.18357146278E+03  0.16462886657E+03  0.28858579141E+03  0.00000000000E+00 0. -1.
         13    1    4    4    0    0 -0.25901485164E+02 -0.82965301572E+02  0.12470749139E+03  0.15200686369E+03  0.00000000000E+00 0.  1.
        -13    1    3    3    0    0  0.59380384444E+02  0.33579148959E+02  0.15674784467E+03  0.17094875287E+03  0.00000000000E+00 0.  1.
         13    1    3    3    0    0  0.69596135107E+02  0.38046604416E+02  0.26833653309E+02  0.83732974863E+02  0.00000000000E+00 0. -1.
         21    1    1    2  503  502 -0.41863019607E+02  0.22839668045E+02 -0.93280139307E+02  0.10476329145E+03  0.00000000000E+00 0. -1.
          2    1    1    2  501    0  0.88723349119E+02  0.17207134293E+03  0.46842944975E+03  0.50685947671E+03  0.00000000000E+00 0. -1.
<scales pt_clust_5="13000.00000" pt_clust_6="13000.00000" pt_clust_7="13000.00000" pt_clust_8="13000.00000" pt_clust_9="47.68818" pt_clust_10="13000.00000"></scales>
<clustering>
<clus scale="   47.688">  2  9  1 -1</clus>
<clus scale="   91.902">  5  6 -1 -1</clus>
<clus scale="   96.930">  7  8 -1 -1</clus>
<clus scale="  171.107">  1  7  2 -1</clus>
<clus scale="  265.407">  5 10 -1 -1</clus>
<clus scale="   47.688">  2  5  1 -1</clus>
</clustering>
</event>
<event>
10    2  0.5921424E-006  0.2401132E+03  0.7546771E-02  0.1123721E+00
         21   -1    0    0  501  502  0.00000000000E+00  0.00000000000E+00  0.26397770138E+03  0.26397770138E+03  0.00000000000E+00 0.  1.
          2   -1    0    0  503    0 -0.00000000000E+00 -0.00000000000E+00 -0.52420328896E+03  0.52420328896E+03  0.00000000000E+00 0. -1.
         23    2    1    2    0    0  0.20492625110E+03  0.18666490321E+02 -0.39727896835E+03  0.45670849058E+03  0.91699838727E+02 0.  0.
         23    2    1    2    0    0 -0.10667418713E+03 -0.25392928687E+02  0.93722198460E+02  0.17032482995E+03  0.90567732597E+02 0.  0.
        -13    1    3    3    0    0  0.95971831059E+01 -0.22231852902E+02 -0.28528154665E+02  0.37419471076E+02  0.00000000000E+00 0.  1.
         13    1    3    3    0    0  0.19532906800E+03  0.40898343224E+02 -0.36875081369E+03  0.41928901951E+03  0.00000000000E+00 0. -1.
        -13    1    4    4    0    0 -0.75460191422E+02  0.16485525830E+02  0.89055921554E+02  0.11788541138E+03  0.00000000000E+00 0. -1.
         13    1    4    4    0    0 -0.31213995706E+02 -0.41878454517E+02  0.46662769061E+01  0.52439418578E+02  0.00000000000E+00 0.  1.
         21    1    1    2  503  502 -0.68097862878E+02 -0.27797901300E+02 -0.26017204922E+02  0.78018825916E+02  0.00000000000E+00 0.  1.
          2    1    1    2  501    0 -0.30154201097E+02  0.34524339666E+02  0.69348387238E+02  0.83128843885E+02  0.00000000000E+00 0. -1.
<scales pt_clust_5="13000.00000" pt_clust_6="13000.00000" pt_clust_7="13000.00000" pt_clust_8="13000.00000" pt_clust_9="73.55303" pt_clust_10="13000.00000"></scales>
<clustering>
<clus scale="   73.553">  1  9  2 -1</clus>
<clus scale="   90.568">  7  8 -1 -1</clus>
<clus scale="   57.942">  7 10 -1 -1</clus>
<clus scale="   91.700">  5  6 -1 -1</clus>
<clus scale="  217.306">  2  5  1 -1</clus>
<clus scale="   73.553">  1  5  2 -1</clus>
</clustering>
</event>
<event>
10    2  0.5921424E-006  0.2294660E+03  0.7546771E-02  0.1159112E+00
         21   -1    0    0  503  502  0.00000000000E+00  0.00000000000E+00  0.41583362637E+03  0.41583362637E+03  0.00000000000E+00 0.  1.
         -1   -1    0    0    0  501 -0.00000000000E+00 -0.00000000000E+00 -0.12124600111E+03  0.12124600111E+03  0.00000000000E+00 0.  1.
         23    2    1    2    0    0 -0.53443083022E+02 -0.21541751675E+02 -0.11021262291E+01  0.10820454797E+03  0.91579470027E+02 0.  0.
         23    2    1    2    0    0  0.15150788315E+02  0.40848652245E+02 -0.18560868149E+02  0.10596286194E+03  0.94791684805E+02 0.  0.
        -11    1    3    3    0    0 -0.67162991551E+01  0.33122411685E+02 -0.11159146493E+02  0.35591141884E+02  0.00000000000E+00 0.  1.
         11    1    3    3    0    0 -0.46726783867E+02 -0.54664163360E+02  0.10057020264E+02  0.72613406083E+02  0.00000000000E+00 0. -1.
        -13    1    4    4    0    0  0.89431756229E+01 -0.29126452484E+02 -0.18630135075E+02  0.35712918635E+02  0.00000000000E+00 0. -1.
         13    1    4    4    0    0  0.62076126919E+01  0.69975104728E+02  0.69266925769E-01  0.70249943309E+02  0.00000000000E+00 0.  1.
         21    1    1    2  503  501  0.11657053813E+02  0.19011035570E+02  0.16597772299E+03  0.16746913419E+03  0.00000000000E+00 0.  1.
         -1    1    1    2    0  502  0.26635240894E+02 -0.38317936139E+02  0.14827289666E+03  0.15544308338E+03  0.00000000000E+00 0.  1.
<scales pt_clust_5="13000.00000" pt_clust_6="13000.00000" pt_clust_7="13000.00000" pt_clust_8="13000.00000" pt_clust_9="22.30037" pt_clust_10="13000.00000"></scales>
<clustering>
<clus scale="   22.300">  1  9  2 -1</clus>
<clus scale="   91.579">  5  6 -1 -1</clus>
<clus scale="   94.792">  7  8 -1 -1</clus>
<clus scale="   43.045">  7 10 -1 -1</clus>
<clus scale="  106.236">  2  5  1 -1</clus>
<clus scale="   22.300">  1  5  2 -1</clus>
</clustering>
</event>
<event>
10    2  0.5921424E-006  0.3754900E+03  0.7546771E-02  0.1093695E+00
         21   -1    0    0  501  502  0.00000000000E+00  0.00000000000E+00  0.45782297287E+03  0.45782297287E+03  0.00000000000E+00 0. -1.
          1   -1    0    0  503    0 -0.00000000000E+00 -0.00000000000E+00 -0.61593939266E+03  0.61593939266E+03  0.00000000000E+00 0. -1.
         23    2    1    2    0    0 -0.64795280729E+02 -0.53297336828E+02 -0.16838817087E+03  0.20813228249E+03  0.89024920145E+02 0.  0.
         23    2    1    2    0    0  0.14824820631E+03  0.16491113604E+03 -0.35962799493E+03  0.43252978217E+03  0.92609417766E+02 0.  0.
        -11    1    3    3    0    0 -0.69917322667E+01 -0.37945521253E+02 -0.13334369287E+03  0.13881385857E+03  0.00000000000E+00 0. -1.
         11    1    3    3    0    0 -0.57803548462E+02 -0.15351815575E+02 -0.35044478007E+02  0.69318423922E+02  0.00000000000E+00 0.  1.
        -13    1    4    4    0    0  0.10914334009E+03  0.16081947268E+03 -0.33117998001E+03  0.38399915448E+03  0.00000000000E+00 0. -1.
         13    1    4    4    0    0  0.39104866220E+02  0.40916633637E+01 -0.28448014917E+02  0.48530627689E+02  0.00000000000E+00 0.  1.
         21    1    1    2  503  502 -0.22846700359E+02 -0.13777124841E+03  0.32366740428E+03  0.35251025119E+03  0.00000000000E+00 0. -1.
          1    1    1    2  501    0 -0.60606225224E+02  0.26157449197E+02  0.46232341739E+02  0.80590049678E+02  0.00000000000E+00 0. -1.
<scales pt_clust_5="13000.00000" pt_clust_6="13000.00000" pt_clust_7="13000.00000" pt_clust_8="13000.00000" pt_clust_9="141.79539" pt_clust_10="13000.00000"></scales>
<clustering>
<clus scale="   89.025">  5  6 -1 -1</clus>
<clus scale="   92.609">  7  8 -1 -1</clus>
<clus scale="   66.010">  7 10 -1 -1</clus>
<clus scale="  122.329">  2  5  1 -1</clus>
<clus scale="  141.795">  1  9  2 -1</clus>
<clus scale="  141.795">  1  5  2 -1</clus>
</clustering>
</event>
<event>
10    2  0.5921424E-006  0.4802772E+03  0.7546771E-02  0.1072094E+00
          2   -1    0    0  503    0 -0.00000000000E+00  0.00000000000E+00  0.78983823693E+03  0.78983823693E+03  0.00000000000E+00 0.  1.
         21   -1    0    0  501  502  0.00000000000E+00 -0.00000000000E+00 -0.20937030466E+03  0.20937030466E+03  0.00000000000E+00 0. -1.
         23    2    1    2    0    0  0.18843358210E+02  0.47220151342E+02  0.14915106737E+03  0.18199086907E+03  0.91048452416E+02 0.  0.
         23    2    1    2    0    0 -0.21515320752E+02 -0.30924812678E+02  0.34490804541E+03  0.35871704813E+03  0.91088461217E+02 0.  0.
        -13    1    3    3    0    0 -0.15532010143E+02  0.59300174994E+02  0.12205492359E+03  0.13658388802E+03  0.00000000000E+00 0. -1.
         13    1    3    3    0    0  0.34375368353E+02 -0.12080023652E+02  0.27096143777E+02  0.45406981054E+02  0.00000000000E+00 0.  1.
        -13    1    4    4    0    0  0.30790937761E+02 -0.27784732448E+02  0.20861968357E+03  0.21270224629E+03  0.00000000000E+00 0.  1.
         13    1    4    4    0    0 -0.52306258512E+02 -0.31400802300E+01  0.13628836184E+03  0.14601480184E+03  0.00000000000E+00 0. -1.
         21    1    1    2  503  502 -0.15405100617E+03  0.13660878111E+03  0.11794349846E+03  0.23728535650E+03  0.00000000000E+00 0. -1.
          2    1    1    2  501    0  0.15672296871E+03 -0.15290411978E+03 -0.31534678967E+02  0.22121526788E+03  0.00000000000E+00 0.  1.
<scales pt_clust_5="13000.00000" pt_clust_6="13000.00000" pt_clust_7="13000.00000" pt_clust_8="13000.00000" pt_clust_9="211.23862" pt_clust_10="13000.00000"></scales>
<clustering>
<clus scale="   91.048">  5  6 -1 -1</clus>
<clus scale="   91.088">  7  8 -1 -1</clus>
<clus scale="  104.282">  1  5  2 -1</clus>
<clus scale="  211.239">  2  9  1 -1</clus>
<clus scale="   31.072">  7 10 -1 -1</clus>
<clus scale="  211.239">  2  5  1 -1</clus>
</clustering>
</event>
<event>
10    2  0.5921424E-006  0.1308222E+03  0.7546771E-02  0.1232538E+00
         21   -1    0    0  501  502  0.00000000000E+00  0.00000000000E+00  0.86748094652E+02  0.86748094652E+02  0.00000000000E+00 0.  1.
         -2   -1    0    0    0  501 -0.00000000000E+00 -0.00000000000E+00 -0.30201791610E+03  0.30201791610E+03  0.00000000000E+00 0.  1.
         23    2    1    2    0    0  0.94319460259E+02 -0.38134494435E+02 -0.86251150353E+02  0.16261455479E+03  0.93025976165E+02 0.  0.
         23    2    1    2    0    0 -0.89815263985E+01  0.28935055053E+02 -0.84463739388E+02  0.12723429623E+03  0.90202758490E+02 0.  0.
        -11    1    3    3    0    0 -0.16766656507E+01 -0.41754476163E+02 -0.26668337595E+02  0.49572650902E+02  0.00000000000E+00 0. -1.
         11    1    3    3    0    0  0.95996125910E+02  0.36199817284E+01 -0.59582812758E+02  0.11304190388E+03  0.00000000000E+00 0.  1.
        -13    1    4    4    0    0  0.58179817049E+00  0.49156980611E+02 -0.91427436845E+02  0.10380618209E+03  0.00000000000E+00 0.  1.
         13    1    4    4    0    0 -0.95633245690E+01 -0.20221925558E+02  0.69636974571E+01  0.23428114144E+02  0.00000000000E+00 0. -1.
         21    1    1    2  503  502 -0.59936723969E+02  0.10184263502E+02 -0.21168775852E+02  0.64375827562E+02  0.00000000000E+00 0.  1.
         -2    1    1    2    0  503 -0.25401209891E+02 -0.98482412079E+00 -0.23386155859E+02  0.34541332174E+02  0.00000000000E+00 0.  1.
<scales pt_clust_5="13000.00000" pt_clust_6="13000.00000" pt_clust_7="13000.00000" pt_clust_8="13000.00000" pt_clust_9="60.79581" pt_clust_10="13000.00000"></scales>
<clustering>
<clus scale="   60.796">  1  9  2 -1</clus>
<clus scale="   90.203">  7  8 -1 -1</clus>
<clus scale="   30.533">  7 10 -1 -1</clus>
<clus scale="   93.026">  5  6 -1 -1</clus>
<clus scale="  114.856">  2  5  1 -1</clus>
<clus scale="   60.796">  1  5  2 -1</clus>
</clustering>
</event>
<event>
10    2  0.5921424E-006  0.2172549E+03  0.7546771E-02  0.1172659E+00
          1   -1    0    0  503    0 -0.00000000000E+00  0.00000000000E+00  0.74172452997E+03  0.74172452997E+03  0.00000000000E+00 0. -1.
         21   -1    0    0  501  502  0.00000000000E+00 -0.00000000000E+00 -0.13708195613E+03  0.13708195613E+03  0.00000000000E+00 0.  1.
         23    2    1    2    0    0  0.96607247729E+01  0.46504046643E+01  0.24363727164E+03  0.26029246431E+03  0.90984014937E+02 0.  0.
         23    2    1    2    0    0 -0.16385730128E+03  0.19905801358E+00  0.30507466822E+03  0.35824524084E+03  0.91759711121E+02 0.  0.
        -13    1    4    4    0    0 -0.14235041414E+03 -0.33852470982E+02  0.22139322286E+03  0.26537631644E+03  0.00000000000E+00 0.  1.
         13    1    4    4    0    0 -0.21506887140E+02  0.34051528995E+02  0.83681445356E+02  0.92868924395E+02  0.00000000000E+00 0. -1.
        -13    1    3    3    0    0  0.19444409057E+02 -0.34639965819E+02  0.18379646648E+03  0.18804029719E+03  0.00000000000E+00 0. -1.
         13    1    3    3    0    0 -0.97836842836E+01  0.39290370483E+02  0.59840805164E+02  0.72252167120E+02  0.00000000000E+00 0.  1.
         21    1    1    2  503  502  0.18990616066E+03 -0.11064115069E+02 -0.39537110437E+01  0.19026927322E+03  0.00000000000E+00 0.  1.
          1    1    1    2  501    0 -0.35709584154E+02  0.62146523913E+01  0.59884345026E+02  0.69999507741E+02  0.00000000000E+00 0. -1.
<scales pt_clust_5="13000.00000" pt_clust_6="13000.00000" pt_clust_7="13000.00000" pt_clust_8="13000.00000" pt_clust_9="192.01376" pt_clust_10="13000.00000"></scales>
<clustering>
<clus scale="   90.984">  7  8 -1 -1</clus>
<clus scale="   91.614">  1  7  2 -1</clus>
<clus scale="   91.760">  5  6 -1 -1</clus>
<clus scale="   35.100">  5 10 -1 -1</clus>
<clus scale="  192.014">  2  9  1 -1</clus>
<clus scale="  192.014">  2  5  1 -1</clus>
</clustering>
</event>
<event>
10    2  0.5921424E-006  0.3390945E+03  0.7546771E-02  0.1108412E+00
         21   -1    0    0  503  502  0.00000000000E+00  0.00000000000E+00  0.12020185389E+03  0.12020185389E+03  0.00000000000E+00 0.  1.
         -3   -1    0    0    0  501 -0.00000000000E+00 -0.00000000000E+00 -0.51025713921E+03  0.51025713921E+03  0.00000000000E+00 0.  1.
         23    2    1    2    0    0  0.61598199062E+02  0.33278356753E+00 -0.39498337669E+02  0.11866647253E+03  0.93419292183E+02 0.  0.
         23    2    1    2    0    0  0.78549168850E+02 -0.79197200996E+02 -0.20813274395E+03  0.25284791074E+03  0.90391693697E+02 0.  0.
        -11    1    4    4    0    0  0.81262588808E+02 -0.26842240345E+02 -0.16108363072E+03  0.18240627810E+03  0.00000000000E+00 0. -1.
         11    1    4    4    0    0 -0.27134199575E+01 -0.52354960651E+02 -0.47049113229E+02  0.70441632635E+02  0.00000000000E+00 0.  1.
        -13    1    3    3    0    0  0.85486367098E+02  0.99693665741E+01 -0.32222925962E+02  0.91900077188E+02  0.00000000000E+00 0.  1.
         13    1    3    3    0    0 -0.23888168037E+02 -0.96365830065E+01 -0.72754117066E+01  0.26766395344E+02  0.00000000000E+00 0. -1.
         21    1    1    2  503  501  0.55663972538E+01 -0.31160329649E+02 -0.34612004153E+02  0.46903536687E+02  0.00000000000E+00 0.  1.
         -3    1    1    2    0  502 -0.14571376517E+03  0.11002474708E+03 -0.10781219955E+03  0.21204107314E+03  0.00000000000E+00 0.  1.
<scales pt_clust_5="13000.00000" pt_clust_6="13000.00000" pt_clust_7="13000.00000" pt_clust_8="13000.00000" pt_clust_9="31.65362" pt_clust_10="13000.00000"></scales>
<clustering>
<clus scale="   31.654">  1  9  2 -1</clus>
<clus scale="   90.392">  5  6 -1 -1</clus>
<clus scale="   93.419">  7  8 -1 -1</clus>
<clus scale="  113.460">  2  7  1 -1</clus>
<clus scale="  150.216">  5 10 -1 -1</clus>
<clus scale="   31.654">  1  5  2 -1</clus>
</clustering>
</event>
<event>
10    2  0.5921424E-006  0.1743010E+03  0.7546771E-02  0.1203166E+00
         21   -1    0    0  501  502  0.00000000000E+00  0.00000000000E+00  0.75028225607E+02  0.75028225607E+02  0.00000000000E+00 0. -1.
          1   -1    0    0  503    0 -0.00000000000E+00 -0.00000000000E+00 -0.39268145707E+03  0.39268145707E+03  0.00000000000E+00 0. -1.
         23    2    1    2    0    0 -0.11694712274E+02  0.88683353349E+01 -0.24313130252E+03  0.25944699327E+03  0.89356020391E+02 0.  0.
         23    2    1    2    0    0  0.30565045386E+02  0.52119906034E+02 -0.66710940527E+02  0.12694596461E+03  0.89522185748E+02 0.  0.
        -11    1    3    3    0    0 -0.44939201187E+02 -0.39389481512E+01 -0.19133717628E+03  0.19658321938E+03  0.00000000000E+00 0.  1.
         11    1    3    3    0    0  0.33244488912E+02  0.12807283486E+02 -0.51794126243E+02  0.62863773882E+02  0.00000000000E+00 0. -1.
        -13    1    4    4    0    0  0.74626865045E+00 -0.24719459496E+02 -0.22402221116E+02  0.33368669521E+02  0.00000000000E+00 0.  1.
         13    1    4    4    0    0  0.29818776735E+02  0.76839365529E+02 -0.44308719411E+02  0.93577295092E+02  0.00000000000E+00 0. -1.
         21    1    1    2  503  502  0.16391096373E+02 -0.11950499226E+02 -0.47848600096E+01  0.20841721555E+02  0.00000000000E+00 0.  1.
          1    1    1    2  501    0 -0.35261429485E+02 -0.49037742142E+02 -0.30261283973E+01  0.60475003239E+02  0.00000000000E+00 0. -1.
<scales pt_clust_5="13000.00000" pt_clust_6="13000.00000" pt_clust_7="13000.00000" pt_clust_8="13000.00000" pt_clust_9="20.28503" pt_clust_10="13000.00000"></scales>
<clustering>
<clus scale="   20.285">  1  9  2 -1</clus>
<clus scale="   89.356">  5  6 -1 -1</clus>
<clus scale="   89.522">  7  8 -1 -1</clus>
<clus scale="   61.079">  7 10 -1 -1</clus>
<clus scale="   90.186">  2  5  1 -1</clus>
<clus scale="   20.285">  1  5  2 -1</clus>
</clustering>
</event>
<event>
10    2  0.5921424E-006  0.1937630E+03  0.7546771E-02  0.1186883E+00
         -2   -1    0    0    0  501 -0.00000000000E+00  0.00000000000E+00  0.57643948290E+02  0.57643948290E+02  0.00000000000E+00 0.  1.
         21   -1    0    0  503  502  0.00000000000E+00 -0.00000000000E+00 -0.44764157768E+03  0.44764157768E+03  0.00000000000E+00 0.  1.
         23    2    1    2    0    0  0.12395891305E+02 -0.46293894822E+02 -0.12945967262E+03  0.15704625588E+03  0.74879482045E+02 0.  0.
         23    2    1    2    0    0  0.37045390755E+02 -0.16490754765E+02 -0.54495997168E+02  0.10671586143E+03  0.82305257450E+02 0.  0.
        -13    1    4    4    0    0  0.49052653802E+02 -0.36509094887E+02 -0.56541997469E+02  0.83283097519E+02  0.00000000000E+00 0.  1.
         13    1    4    4    0    0 -0.12007263048E+02  0.20018340122E+02  0.20460003007E+01  0.23432763908E+02  0.00000000000E+00 0. -1.
        -13    1    3    3    0    0 -0.22661144518E+02 -0.43512907704E+02 -0.49492554926E+02  0.69687973144E+02  0.00000000000E+00 0.  1.
         13    1    3    3    0    0  0.35057035823E+02 -0.27809871176E+01 -0.79967117692E+02  0.87358282733E+02  0.00000000000E+00 0. -1.
         21    1    1    2  503  501 -0.13533153639E+02 -0.26479349276E+02 -0.51971729999E+02  0.59877899968E+02  0.00000000000E+00 0.  1.
         -2    1    1    2    0  502 -0.35908128421E+02  0.89263998863E+02 -0.15407022960E+03  0.18164550869E+03  0.00000000000E+00 0.  1.
<scales pt_clust_5="13000.00000" pt_clust_6="13000.00000" pt_clust_7="13000.00000" pt_clust_8="13000.00000" pt_clust_9="29.73722" pt_clust_10="13000.00000"></scales>
<clustering>
<clus scale="   29.737">  2  9  1 -1</clus>
<clus scale="   74.879">  7  8 -1 -1</clus>
<clus scale="   82.305">  5  6 -1 -1</clus>
<clus scale="   88.378">  5 10 -1 -1</clus>
<clus scale="   93.786">  1  7  2 -1</clus>
<clus scale="   29.737">  2  5  1 -1</clus>
</clustering>
</event>
<event>
10    2  0.5921424E-006  0.3904130E+03  0.7546771E-02  0.1096572E+00
         21   -1    0    0  501  502  0.00000000000E+00  0.00000000000E+00  0.11732964972E+03  0.11732964972E+03  0.00000000000E+00 0. -1.
          1   -1    0    0  503    0 -0.00000000000E+00 -0.00000000000E+00 -0.78739628655E+03  0.78739628655E+03  0.00000000000E+00 0. -1.
         23    2    1    2    0    0  0.45728609831E+02  0.58807359121E+02 -0.28461343907E+02  0.11023572638E+03  0.76108186358E+02 0.  0.
         23    2    1    2    0    0 -0.19282132983E+02 -0.11670931441E+03 -0.66233912790E+03  0.67885616700E+03  0.90331115371E+02 0.  0.
        -13    1    4    4    0    0 -0.48673011794E+02 -0.36071176582E+02 -0.21573999127E+03  0.22408466188E+03  0.00000000000E+00 0. -1.
         13    1    4    4    0    0  0.29390878811E+02 -0.80638137827E+02 -0.44659913663E+03  0.45477150512E+03  0.00000000000E+00 0.  1.
        -13    1    3    3    0    0 -0.56967653084E+01  0.45593121651E+02  0.68706526505E+01  0.46458494861E+02  0.00000000000E+00 0. -1.
         13    1    3    3    0    0  0.51425375139E+02  0.13214237469E+02 -0.35331996557E+02  0.63777231524E+02  0.00000000000E+00 0.  1.
         21    1    1    2  503  502 -0.50259165606E+02  0.66949823686E+01 -0.94874082404E+01  0.51583111882E+02  0.00000000000E+00 0. -1.
          1    1    1    2  501    0  0.23812688758E+02  0.51206972920E+02  0.30221243207E+02  0.64050931004E+02  0.00000000000E+00 0. -1.
<scales pt_clust_5="13000.00000" pt_clust_6="13000.00000" pt_clust_7="13000.00000" pt_clust_8="13000.00000" pt_clust_9="50.70312" pt_clust_10="13000.00000"></scales>
<clustering>
<clus scale="   50.703">  1  9  2 -1</clus>
<clus scale="   76.108">  7  8 -1 -1</clus>
<clus scale="   90.331">  5  6 -1 -1</clus>
<clus scale="   54.490">  5 10 -1 -1</clus>
<clus scale="  100.935">  2  7  1 -1</clus>
<clus scale="   50.703">  1  5  2 -1</clus>
</clustering>
</event>
<event>
10    2  0.5921424E-006  0.3545392E+03  0.7546771E-02  0.1100010E+00
          1   -1    0    0  502    0 -0.00000000000E+00  0.00000000000E+00  0.29962859345E+03  0.29962859345E+03  0.00000000000E+00 0. -1.
         21   -1    0    0  503  502  0.00000000000E+00 -0.00000000000E+00 -0.32165375666E+03  0.32165375666E+03  0.00000000000E+00 0. -1.
         23    2    1    2    0    0 -0.22440316909E+02 -0.80798243563E+02  0.77652134136E+02  0.14250851173E+03  0.85128714266E+02 0.  0.
         23    2    1    2    0    0  0.49085765187E+02 -0.39965060136E+02  0.11943990363E+03  0.16309554249E+03  0.91255942413E+02 0.  0.
        -11    1    4    4    0    0  0.75290280660E+02 -0.34144997702E+02  0.77602369489E+02  0.11338710235E+03  0.00000000000E+00 0. -1.
         11    1    4    4    0    0 -0.26204515473E+02 -0.58200624347E+01  0.41837534137E+02  0.49708440135E+02  0.00000000000E+00 0.  1.
        -13    1    3    3    0    0 -0.18228014195E+01 -0.67218032480E+02  0.91999688112E+02  0.11395406578E+03  0.00000000000E+00 0. -1.
         13    1    3    3    0    0 -0.20617515490E+02 -0.13580211083E+02 -0.14347553977E+02  0.28554445944E+02  0.00000000000E+00 0.  1.
         21    1    1    2  503  501  0.17077937256E+02 -0.39557088462E+02 -0.10664117449E+03  0.11501634356E+03  0.00000000000E+00 0. -1.
          1    1    1    2  501    0 -0.43723385535E+02  0.16032039216E+03 -0.11247602648E+03  0.20066195234E+03  0.00000000000E+00 0. -1.
<scales pt_clust_5="13000.00000" pt_clust_6="13000.00000" pt_clust_7="13000.00000" pt_clust_8="13000.00000" pt_clust_9="43.08618" pt_clust_10="13000.00000"></scales>
<clustering>
<clus scale="   43.086">  2  9  1 -1</clus>
<clus scale="   85.129">  7  8 -1 -1</clus>
<clus scale="   91.256">  5  6 -1 -1</clus>
<clus scale="  123.240">  1  7  2 -1</clus>
<clus scale="  120.300">  5 10 -1 -1</clus>
<clus scale="   43.086">  2  5  1 -1</clus>
</clustering>
</event>
<event>
10    2  0.5921424E-006  0.1916981E+03  0.7546771E-02  0.1172501E+00
          1   -1    0    0  502    0 -0.00000000000E+00  0.00000000000E+00  0.48620032925E+03  0.48620032925E+03  0.00000000000E+00 0. -1.
         21   -1    0    0  503  502  0.00000000000E+00 -0.00000000000E+00 -0.86728137889E+02  0.86728137889E+02  0.00000000000E+00 0. -1.
         23    2    1    2    0    0 -0.37610746632E+02  0.86825046136E+02  0.28384341385E+03  0.31249534861E+03  0.90183714807E+02 0.  0.
         23    2    1    2    0    0  0.31954323785E+02  0.62624594694E+01  0.43406789321E+02  0.10042104872E+03  0.84498168378E+02 0.  0.
        -11    1    3    3    0    0 -0.34218960148E+02  0.49622410311E+02  0.58228456453E+02  0.83808555527E+02  0.00000000000E+00 0.  1.
         11    1    3    3    0    0 -0.33917864843E+01  0.37202635825E+02  0.22561495740E+03  0.22868679308E+03  0.00000000000E+00 0. -1.
        -13    1    4    4    0    0  0.24014096303E+02 -0.15065107850E+02  0.63830611121E+02  0.69842545857E+02  0.00000000000E+00 0.  1.
         13    1    4    4    0    0  0.79402274818E+01  0.21327567320E+02 -0.20423821800E+02  0.30578502860E+02  0.00000000000E+00 0. -1.
         21    1    1    2  503  501 -0.22180466100E+02  0.13444466933E+02 -0.37929930021E+01  0.26212851112E+02  0.00000000000E+00 0. -1.
          1    1    1    2  501    0  0.27836888948E+02 -0.10653197254E+03  0.76014981189E+02  0.13379921870E+03  0.00000000000E+00 0. -1.
<scales pt_clust_5="13000.00000" pt_clust_6="13000.00000" pt_clust_7="13000.00000" pt_clust_8="13000.00000" pt_clust_9="25.93698" pt_clust_10="13000.00000"></scales>
<clustering>
<clus scale="   25.937">  2  9  1 -1</clus>
<clus scale="   84.498">  7  8 -1 -1</clus>
<clus scale="   90.184">  5  6 -1 -1</clus>
<clus scale="  102.868">  7 10 -1 -1</clus>
<clus scale="  133.838">  1  5  2 -1</clus>
<clus scale="   25.937">  2  5  1 -1</clus>
</clustering>
</event>
<event>
10    2  0.5921424E-006  0.2463785E+03  0.7546771E-02  0.1147657E+00
         -4   -1    0    0    0  501 -0.00000000000E+00  0.00000000000E+00  0.25524081464E+03  0.25524081464E+03  0.00000000000E+00 0.  1.
         21   -1    0    0  503  502  0.00000000000E+00 -0.00000000000E+00 -0.67146439450E+03  0.67146439450E+03  0.00000000000E+00 0. -1.
         23    2    1    2    0    0  0.17376077552E+01  0.66267391623E+02  0.13722014719E+03  0.17738149759E+03  0.90776871596E+02 0.  0.
         23    2    1    2    0    0 -0.72509517881E+01  0.29828494567E+02  0.41432118265E+02  0.10468445517E+03  0.91103783353E+02 0.  0.
        -11    1    4    4    0    0  0.38882155365E+02  0.30327986233E+02  0.15142201678E+02  0.51583864013E+02  0.00000000000E+00 0.  1.
         11    1    4    4    0    0 -0.46133107153E+02 -0.49949166642E+00  0.26289916588E+02  0.53100591162E+02  0.00000000000E+00 0. -1.
        -11    1    3    3    0    0  0.23066281996E+02  0.97042815908E+01 -0.24957708496E+01  0.25148664347E+02  0.00000000000E+00 0. -1.
         11    1    3    3    0    0 -0.21328674240E+02  0.56563110032E+02  0.13971591804E+03  0.15223283324E+03  0.00000000000E+00 0.  1.
         21    1    1    2  503  501  0.85731776851E+02 -0.11493986078E+03 -0.49397585412E+03  0.51436684731E+03  0.00000000000E+00 0. -1.
         -4    1    1    2    0  502 -0.80218432819E+02  0.18843974586E+02 -0.10089999120E+03  0.13027240908E+03  0.00000000000E+00 0.  1.
<scales pt_clust_5="13000.00000" pt_clust_6="13000.00000" pt_clust_7="13000.00000" pt_clust_8="13000.00000" pt_clust_9="138.03602" pt_clust_10="13000.00000"></scales>
<clustering>
<clus scale="   90.777">  7  8 -1 -1</clus>
<clus scale="   91.104">  5  6 -1 -1</clus>
<clus scale="   82.402">  5 10 -1 -1</clus>
<clus scale="  112.405">  1  7  2 -1</clus>
<clus scale="  138.036">  2  9  1 -1</clus>
<clus scale="  138.036">  2  5  1 -1</clus>
</clustering>
</event>
<event>
10    2  0.5921424E-006  0.3796855E+03  0.7546771E-02  0.1099190E+00
          2   -1    0    0  502    0 -0.00000000000E+00  0.00000000000E+00  0.21114330354E+03  0.21114330354E+03  0.00000000000E+00 0. -1.
         21   -1    0    0  503  502  0.00000000000E+00 -0.00000000000E+00 -0.44247414818E+03  0.44247414818E+03  0.00000000000E+00 0. -1.
         23    2    1    2    0    0  0.51294014662E+02 -0.27476967748E+02  0.75165835940E+02  0.12765265062E+03  0.85201153872E+02 0.  0.
         23    2    1    2    0    0  0.14969917275E+03 -0.19201375114E+02 -0.10262396804E+03  0.20909235316E+03  0.10202645836E+03 0.  0.
        -11    1    3    3    0    0  0.60019786030E+02  0.13298626067E+02  0.45160676544E+02  0.76280501285E+02  0.00000000000E+00 0.  1.
         11    1    3    3    0    0 -0.87257713679E+01 -0.40775593815E+02  0.30005159396E+02  0.51372149335E+02  0.00000000000E+00 0. -1.
        -11    1    4    4    0    0 -0.99282854641E+01 -0.20214937595E+02 -0.11593822575E+02  0.25330441689E+02  0.00000000000E+00 0.  1.
         11    1    4    4    0    0  0.15962745822E+03  0.10135624817E+01 -0.91030145460E+02  0.18376191147E+03  0.00000000000E+00 0. -1.
         21    1    1    2  503  501 -0.66536323464E+01  0.22809311315E+02 -0.83992242668E+02  0.87288214179E+02  0.00000000000E+00 0. -1.
          2    1    1    2  501    0 -0.19433955507E+03  0.23869031546E+02 -0.11988046988E+03  0.22958423376E+03  0.00000000000E+00 0. -1.
<scales pt_clust_5="13000.00000" pt_clust_6="13000.00000" pt_clust_7="13000.00000" pt_clust_8="13000.00000" pt_clust_9="23.75996" pt_clust_10="13000.00000"></scales>
<clustering>
<clus scale="   23.760">  2  9  1 -1</clus>
<clus scale="   85.201">  5  6 -1 -1</clus>
<clus scale="  102.026">  7  8 -1 -1</clus>
<clus scale="  102.499">  1  5  2 -1</clus>
<clus scale="  172.197">  7 10 -1 -1</clus>
<clus scale="   23.760">  2  5  1 -1</clus>
</clustering>
</event>
<event>
10    2  0.5921424E-006  0.2482923E+03  0.7546771E-02  0.1142115E+00
         -3   -1    0    0    0  501 -0.00000000000E+00  0.00000000000E+00  0.44392626466E+03  0.44392626466E+03  0.00000000000E+00 0.  1.
         21   -1    0    0  503  502  0.00000000000E+00 -0.00000000000E+00 -0.20786988895E+03  0.20786988895E+03  0.00000000000E+00 0.  1.
         23    2    1    2    0    0 -0.58073494103E+02 -0.51371539973E+02  0.30293898676E+03  0.32704529198E+03  0.95786363687E+02 0.  0.
         23    2    1    2    0    0 -0.46294239555E+02  0.34951128758E+02 -0.40149577999E+02  0.11594167738E+03  0.92009488226E+02 0.  0.
        -11    1    4    4    0    0  0.11640027278E+02  0.35919888210E+02 -0.43867771711E+02  0.57880134752E+02  0.00000000000E+00 0.  1.
         11    1    4    4    0    0 -0.57934266832E+02 -0.96875945189E+00  0.37181937120E+01  0.58061542632E+02  0.00000000000E+00 0. -1.
        -11    1    3    3    0    0 -0.69019407918E+02 -0.25548508249E+02  0.28355836499E+03  0.29295349682E+03  0.00000000000E+00 0.  1.
         11    1    3    3    0    0  0.10945913815E+02 -0.25823031725E+02  0.19380621765E+02  0.34091795152E+02  0.00000000000E+00 0. -1.
         21    1    1    2  503  501 -0.46168199276E+02 -0.20518829795E+02 -0.17740442079E+02  0.53546692575E+02  0.00000000000E+00 0.  1.
         -3    1    1    2    0  502  0.15053593293E+03  0.36939241010E+02 -0.89925909717E+01  0.15526249168E+03  0.00000000000E+00 0.  1.
<scales pt_clust_5="13000.00000" pt_clust_6="13000.00000" pt_clust_7="13000.00000" pt_clust_8="13000.00000" pt_clust_9="50.52252" pt_clust_10="13000.00000"></scales>
<clustering>
<clus scale="   50.523">  2  9  1 -1</clus>
<clus scale="   92.009">  5  6 -1 -1</clus>
<clus scale="   95.786">  7  8 -1 -1</clus>
<clus scale="  125.387">  1  7  2 -1</clus>
<clus scale="   97.128">  5 10 -1 -1</clus>
<clus scale="   50.523">  2  5  1 -1</clus>
</clustering>
</event>
<event>
10    2  0.5921424E-006  0.1902811E+03  0.7546771E-02  0.1178399E+00
         21   -1    0    0  501  502  0.00000000000E+00  0.00000000000E+00  0.77029558579E+02  0.77029558579E+02  0.00000000000E+00 0. -1.
          4   -1    0    0  503    0 -0.00000000000E+00 -0.00000000000E+00 -0.62448246128E+03  0.62448246128E+03  0.00000000000E+00 0. -1.
         23    2    1    2    0    0 -0.68999129302E+02  0.49148963517E+02 -0.41767998131E+03  0.43569470361E+03  0.90536222056E+02 0.  0.
         23    2    1    2    0    0  0.94543252794E+02 -0.10215623483E+02 -0.94293077361E+02  0.16324968227E+03  0.93362137453E+02 0.  0.
        -13    1    4    4    0    0  0.96235833102E+01  0.23404941058E+02  0.75918659061E+01  0.26420466491E+02  0.00000000000E+00 0.  1.
         13    1    4    4    0    0  0.84919669484E+02 -0.33620564541E+02 -0.10188494327E+03  0.13682921578E+03  0.00000000000E+00 0. -1.
        -13    1    3    3    0    0 -0.18642207812E+02 -0.23771198515E+02 -0.59687319513E+02  0.66896770487E+02  0.00000000000E+00 0.  1.
         13    1    3    3    0    0 -0.50356921490E+02  0.72920162031E+02 -0.35799266180E+03  0.36879793312E+03  0.00000000000E+00 0. -1.
         21    1    1    2  503  502  0.21327799187E+02 -0.37621944798E+02  0.84220988905E+00  0.43255000475E+02  0.00000000000E+00 0. -1.
          4    1    1    2  501    0 -0.46871922679E+02 -0.13113952355E+01 -0.36322053919E+02  0.59312633511E+02  0.00000000000E+00 0. -1.
<scales pt_clust_5="13000.00000" pt_clust_6="13000.00000" pt_clust_7="13000.00000" pt_clust_8="13000.00000" pt_clust_9="43.24680" pt_clust_10="13000.00000"></scales>
<clustering>
<clus scale="   43.247">  1  9  2 -1</clus>
<clus scale="   90.536">  7  8 -1 -1</clus>
<clus scale="   93.362">  5  6 -1 -1</clus>
<clus scale="   43.394">  5 10 -1 -1</clus>
<clus scale="  119.731">  2  7  1 -1</clus>
<clus scale="   43.247">  1  5  2 -1</clus>
</clustering>
</event>
<event>
10    2  0.5921424E-006  0.1600889E+03  0.7546771E-02  0.1199527E+00
          2   -1    0    0  503    0 -0.00000000000E+00  0.00000000000E+00  0.37522664834E+03  0.37522664834E+03  0.00000000000E+00 0. -1.
         21   -1    0    0  501  502  0.00000000000E+00 -0.00000000000E+00 -0.22384259730E+03  0.22384259730E+03  0.00000000000E+00 0. -1.
         23    2    1    2    0    0  0.17344785391E+02 -0.55711762785E+02 -0.14020839464E+03  0.18878116086E+03  0.11213960352E+03 0.  0.
         23    2    1    2    0    0  0.43839844076E+02  0.41238165396E+02  0.26790496439E+03  0.29017082285E+03  0.93827065787E+02 0.  0.
        -13    1    3    3    0    0  0.63215662821E+02 -0.35066729033E+02 -0.10460397106E+03  0.12715300339E+03  0.00000000000E+00 0. -1.
         13    1    3    3    0    0 -0.45870877430E+02 -0.20645033752E+02 -0.35604423584E+02  0.61628157474E+02  0.00000000000E+00 0.  1.
        -13    1    4    4    0    0  0.42239494879E+02  0.12830754938E+00  0.38651019909E+02  0.57254630646E+02  0.00000000000E+00 0.  1.
         13    1    4    4    0    0  0.16003491972E+01  0.41109857847E+02  0.22925394449E+03  0.23291619221E+03  0.00000000000E+00 0. -1.
         21    1    1    2  503  502 -0.79543259668E+02  0.37672084856E+02  0.14983243463E+02  0.89279413756E+02  0.00000000000E+00 0. -1.
          2    1    1    2  501    0  0.18358630201E+02 -0.23198487467E+02  0.87042378234E+01  0.30837848169E+02  0.00000000000E+00 0. -1.
<scales pt_clust_5="13000.00000" pt_clust_6="13000.00000" pt_clust_7="13000.00000" pt_clust_8="13000.00000" pt_clust_9="88.01316" pt_clust_10="13000.00000"></scales>
<clustering>
<clus scale="   88.013">  2  9  1 -1</clus>
<clus scale="   93.827">  7  8 -1 -1</clus>
<clus scale="   25.014">  7 10 -1 -1</clus>
<clus scale="  112.140">  5  6 -1 -1</clus>
<clus scale="  125.952">  1  5  2 -1</clus>
<clus scale="   88.013">  2  5  1 -1</clus>
</clustering>
</event>
<event>
10    2  0.5921424E-006  0.1695918E+03  0.7546771E-02  0.1203766E+00
         -1   -1    0    0    0  501 -0.00000000000E+00  0.00000000000E+00  0.86492676548E+02  0.86492676548E+02  0.00000000000E+00 0.  1.
         21   -1    0    0  503  502  0.00000000000E+00 -0.00000000000E+00 -0.42544206098E+03  0.42544206098E+03  0.00000000000E+00 0.  1.
         23    2    1    2    0    0  0.30563620726E+02 -0.17484003353E+02  0.16121123738E+02  0.99458014629E+02  0.91608846507E+02 0.  0.
         23    2    1    2    0    0 -0.58537982653E+02 -0.13970777853E+02 -0.15512513366E+03  0.18945998622E+03  0.90605746177E+02 0.  0.
        -11    1    3    3    0    0 -0.22027004156E+02 -0.32590864585E+02  0.20879131083E+02  0.44534160835E+02  0.00000000000E+00 0.  1.
         11    1    3    3    0    0  0.52590624882E+02  0.15106861231E+02 -0.47580073452E+01  0.54923853795E+02  0.00000000000E+00 0. -1.
        -13    1    4    4    0    0 -0.77580936067E+02  0.93763350534E+00 -0.14231988689E+03  0.16209451256E+03  0.00000000000E+00 0.  1.
         13    1    4    4    0    0  0.19042953413E+02 -0.14908411359E+02 -0.12805246764E+02  0.27365473660E+02  0.00000000000E+00 0. -1.
         21    1    1    2  503  501 -0.27884409520E+02  0.15797594577E+02 -0.12022435411E+03  0.12442266518E+03  0.00000000000E+00 0. -1.
         -1    1    1    2    0  502  0.55858771447E+02  0.15657186630E+02 -0.79721020405E+02  0.98594071501E+02  0.00000000000E+00 0.  1.
<scales pt_clust_5="13000.00000" pt_clust_6="13000.00000" pt_clust_7="13000.00000" pt_clust_8="13000.00000" pt_clust_9="32.04847" pt_clust_10="13000.00000"></scales>
<clustering>
<clus scale="   32.048">  2  9  1 -1</clus>
<clus scale="   90.606">  7  8 -1 -1</clus>
<clus scale="   51.802">  7 10 -1 -1</clus>
<clus scale="   91.609">  5  6 -1 -1</clus>
<clus scale="   96.650">  1  5  2 -1</clus>
<clus scale="   32.048">  2  5  1 -1</clus>
</clustering>
</event>
<event>
10    2  0.5921424E-006  0.1985918E+03  0.7546771E-02  0.1169630E+00
          1   -1    0    0  502    0 -0.00000000000E+00  0.00000000000E+00  0.84832595349E+02  0.84832595349E+02  0.00000000000E+00 0. -1.
         21   -1    0    0  503  502  0.00000000000E+00 -0.00000000000E+00 -0.38927884082E+03  0.38927884082E+03  0.00000000000E+00 0.  1.
         23    2    1    2    0    0  0.93713161505E+00 -0.86670467625E+02 -0.16163644654E+03  0.20536157412E+03  0.92381746587E+02 0.  0.
         23    2    1    2    0    0 -0.14015089097E+02 -0.61672226812E+01 -0.14164682409E+02  0.93034473817E+02  0.90665967886E+02 0.  0.
        -11    1    3    3    0    0 -0.36675717819E+01 -0.55265126723E+02 -0.16442043038E+03  0.17349859723E+03  0.00000000000E+00 0.  1.
         11    1    3    3    0    0  0.46047033970E+01 -0.31405340903E+02  0.27839838394E+01  0.31862976895E+02  0.00000000000E+00 0. -1.
        -13    1    4    4    0    0  0.30976375721E+02 -0.27986111798E+02 -0.95058927897E+01  0.42814954211E+02  0.00000000000E+00 0. -1.
         13    1    4    4    0    0 -0.44991464818E+02  0.21818889117E+02 -0.46587896194E+01  0.50219519606E+02  0.00000000000E+00 0.  1.
         21    1    1    2  503  501  0.20576955901E+02 -0.36713518671E+01 -0.36552461249E+02  0.42106678354E+02  0.00000000000E+00 0. -1.
          1    1    1    2  501    0 -0.74989984193E+01  0.96509042174E+02 -0.92092655272E+02  0.13360870987E+03  0.00000000000E+00 0. -1.
<scales pt_clust_5="13000.00000" pt_clust_6="13000.00000" pt_clust_7="13000.00000" pt_clust_8="13000.00000" pt_clust_9="20.90191" pt_clust_10="13000.00000"></scales>
<clustering>
<clus scale="   20.902">  2  9  1 -1</clus>
<clus scale="   90.666">  7  8 -1 -1</clus>
<clus scale="   92.382">  5  6 -1 -1</clus>
<clus scale="   95.329">  7 10 -1 -1</clus>
<clus scale="  128.534">  1  5  2 -1</clus>
<clus scale="   20.902">  2  5  1 -1</clus>
</clustering>
</event>
<event>
10    2  0.5921424E-006  0.1550653E+03  0.7546771E-02  0.1212670E+00
         21   -1    0    0  501  502  0.00000000000E+00  0.00000000000E+00  0.17377981000E+03  0.17377981000E+03  0.00000000000E+00 0.  1.
          2   -1    0    0  503    0 -0.00000000000E+00 -0.00000000000E+00 -0.29194027434E+03  0.29194027434E+03  0.00000000000E+00 0. -1.
         23    2    1    2    0    0 -0.40650429678E+02 -0.19636729567E+02 -0.15072185635E+03  0.18485700082E+03  0.97041095357E+02 0.  0.
         23    2    1    2    0    0  0.21648948116E+01  0.35310603265E+02 -0.15906849945E+02  0.99130493329E+02  0.91226648300E+02 0.  0.
        -11    1    4    4    0    0 -0.13103277810E+02  0.54989989665E+02  0.15908008051E+02  0.58725289040E+02  0.00000000000E+00 0.  1.
         11    1    4    4    0    0  0.15268172621E+02 -0.19679386400E+02 -0.31814857997E+02  0.40405204289E+02  0.00000000000E+00 0. -1.
        -11    1    3    3    0    0 -0.30289875844E+02 -0.49548091126E+02 -0.13978133310E+03  0.15136482748E+03  0.00000000000E+00 0. -1.
         11    1    3    3    0    0 -0.10360553834E+02  0.29911361559E+02 -0.10940523245E+02  0.33492173338E+02  0.00000000000E+00 0.  1.
         21    1    1    2  503  502  0.19117281945E+02  0.15992073373E+02  0.10840447426E+03  0.11123285000E+03  0.00000000000E+00 0.  1.
          2    1    1    2  501    0  0.19368252921E+02 -0.31665947071E+02 -0.59936232302E+02  0.70499740196E+02  0.00000000000E+00 0. -1.
<scales pt_clust_5="13000.00000" pt_clust_6="13000.00000" pt_clust_7="13000.00000" pt_clust_8="13000.00000" pt_clust_9="24.92422" pt_clust_10="13000.00000"></scales>
<clustering>
<clus scale="   24.924">  1  9  2 -1</clus>
<clus scale="   91.227">  5  6 -1 -1</clus>
<clus scale="   36.873">  5 10 -1 -1</clus>
<clus scale="   97.041">  7  8 -1 -1</clus>
<clus scale="  104.484">  2  7  1 -1</clus>
<clus scale="   24.924">  1  5  2 -1</clus>
</clustering>
</event>
<event>
10    2  0.5921424E-006  0.3802305E+03  0.7546771E-02  0.1100542E+00
         21   -1    0    0  501  502  0.00000000000E+00  0.00000000000E+00  0.57221067554E+03  0.57221067554E+03  0.00000000000E+00 0.  1.
         -1   -1    0    0    0  501 -0.00000000000E+00 -0.00000000000E+00 -0.45291126973E+03  0.45291126973E+03  0.00000000000E+00 0.  1.
         23    2    1    2    0    0 -0.17515896396E+02  0.26364572277E+02 -0.17080830039E+03  0.19719440382E+03  0.93318058894E+02 0.  0.
         23    2    1    2    0    0 -0.28249211303E+02  0.64421691719E+02  0.50701225836E+02  0.12624288385E+03  0.91752270365E+02 0.  0.
        -11    1    3    3    0    0 -0.32083734847E+02 -0.26617873910E+02 -0.93243909277E+02  0.10213865023E+03  0.00000000000E+00 0.  1.
         11    1    3    3    0    0  0.14567838451E+02  0.52982446187E+02 -0.77564391115E+02  0.95055753588E+02  0.00000000000E+00 0. -1.
        -13    1    4    4    0    0 -0.47576461498E+02  0.57472249965E+02  0.34136629225E+01  0.74687564556E+02  0.00000000000E+00 0.  1.
         13    1    4    4    0    0  0.19327250194E+02  0.69494417544E+01  0.47287562913E+02  0.51555319290E+02  0.00000000000E+00 0. -1.
         21    1    1    2  503  502  0.15914376184E+03  0.98849454059E+02  0.39111555339E+03  0.43366960651E+03  0.00000000000E+00 0.  1.
         -1    1    1    2    0  503 -0.11337865414E+03 -0.18963571806E+03 -0.15170907303E+03  0.26801505110E+03  0.00000000000E+00 0.  1.
<scales pt_clust_5="13000.00000" pt_clust_6="13000.00000" pt_clust_7="13000.00000" pt_clust_8="13000.00000" pt_clust_9="187.28458" pt_clust_10="13000.00000"></scales>
<clustering>
<clus scale="   91.752">  7  8 -1 -1</clus>
<clus scale="   93.318">  5  6 -1 -1</clus>
<clus scale="   98.540">  2  5  1 -1</clus>
<clus scale="  187.285">  1  9  2 -1</clus>
<clus scale="  147.039">  7 10 -1 -1</clus>
<clus scale="  187.285">  1  5  2 -1</clus>
</clustering>
</event>
<event>
10    2  0.5921424E-006  0.3807112E+03  0.7546771E-02  0.1081736E+00
         -1   -1    0    0    0  501 -0.00000000000E+00  0.00000000000E+00  0.20596678940E+03  0.20596678940E+03  0.00000000000E+00 0.  1.
         21   -1    0    0  503  502  0.00000000000E+00 -0.00000000000E+00 -0.12623413389E+04  0.12623413389E+04  0.00000000000E+00 0.  1.
         23    2    1    2    0    0 -0.13100368838E+03  0.39685252973E+02  0.11290570433E+03  0.19684192142E+03  0.85218297842E+02 0.  0.
         23    2    1    2    0    0  0.25867987512E+02  0.10453213974E+03 -0.30786150459E+03  0.33870885693E+03  0.91372111394E+02 0.  0.
        -13    1    3    3    0    0 -0.53072573315E+02  0.53495768043E+02  0.83334193054E+02  0.11235249427E+03  0.00000000000E+00 0.  1.
         13    1    3    3    0    0 -0.77931115062E+02 -0.13810515070E+02  0.29571511274E+02  0.84489427151E+02  0.00000000000E+00 0. -1.
        -13    1    4    4    0    0 -0.27696376524E+02  0.70843341010E+02 -0.19513951674E+03  0.20944044316E+03  0.00000000000E+00 0.  1.
         13    1    4    4    0    0  0.53564364036E+02  0.33688798728E+02 -0.11272198785E+03  0.12926841377E+03  0.00000000000E+00 0. -1.
         21    1    1    2  503  501  0.31641310238E+02  0.97017389532E+02 -0.31110126156E+03  0.32741035617E+03  0.00000000000E+00 0.  1.
         -1    1    1    2    0  502  0.73494390628E+02 -0.24123478224E+03 -0.55031748768E+03  0.60534699376E+03  0.00000000000E+00 0.  1.
<scales pt_clust_5="13000.00000" pt_clust_6="13000.00000" pt_clust_7="13000.00000" pt_clust_8="13000.00000" pt_clust_9="102.04679" pt_clust_10="13000.00000"></scales>
<clustering>
<clus scale="   85.218">  5  6 -1 -1</clus>
<clus scale="   91.372">  7  8 -1 -1</clus>
<clus scale="  102.047">  2  9  1 -1</clus>
<clus scale="  161.225">  1  5  2 -1</clus>
<clus scale="  164.812">  7 10 -1 -1</clus>
<clus scale="  102.047">  2  5  1 -1</clus>
</clustering>
</event>
<event>
10    2  0.5921424E-006  0.2570478E+03  0.7546771E-02  0.1139605E+00
          1   -1    0    0  503    0 -0.00000000000E+00  0.00000000000E+00  0.69962853183E+03  0.69962853183E+03  0.00000000000E+00 0. -1.
         21   -1    0    0  501  502  0.00000000000E+00 -0.00000000000E+00 -0.11591360148E+03  0.11591360148E+03  0.00000000000E+00 0. -1.
         23    2    1    2    0    0  0.63713657718E+02 -0.42237701434E+02  0.32920306303E+03  0.35151310253E+03  0.96661010442E+02 0.  0.
         23    2    1    2    0    0 -0.31805238493E+02 -0.49394163720E+02  0.24594143460E+03  0.26973019757E+03  0.93892670749E+02 0.  0.
        -13    1    4    4    0    0  0.32004766717E+02 -0.24928189025E+02  0.11641550009E+03  0.12328133826E+03  0.00000000000E+00 0.  1.
         13    1    4    4    0    0 -0.63810005210E+02 -0.24465974696E+02  0.12952593451E+03  0.14644885931E+03  0.00000000000E+00 0. -1.
        -13    1    3    3    0    0  0.44882106149E+02  0.91792362052E+01  0.25616164302E+03  0.26022576580E+03  0.00000000000E+00 0.  1.
         13    1    3    3    0    0  0.18831551569E+02 -0.51416937639E+02  0.73041420005E+02  0.91287336729E+02  0.00000000000E+00 0. -1.
         21    1    1    2  503  502 -0.48281312372E+02 -0.19058910563E+02 -0.46406988079E+02  0.69627119277E+02  0.00000000000E+00 0. -1.
          1    1    1    2  501    0  0.16372893147E+02  0.11069077572E+03  0.54977420791E+02  0.12467171394E+03  0.00000000000E+00 0. -1.
<scales pt_clust_5="13000.00000" pt_clust_6="13000.00000" pt_clust_7="13000.00000" pt_clust_8="13000.00000" pt_clust_9="51.90691" pt_clust_10="13000.00000"></scales>
<clustering>
<clus scale="   51.907">  2  9  1 -1</clus>
<clus scale="   93.893">  5  6 -1 -1</clus>
<clus scale="   96.661">  7  8 -1 -1</clus>
<clus scale="  100.027">  5 10 -1 -1</clus>
<clus scale="  120.049">  1  7  2 -1</clus>
<clus scale="   51.907">  2  5  1 -1</clus>
</clustering>
</event>
<event>
10    2  0.5921424E-006  0.1479451E+03  0.7546771E-02  0.1224747E+00
         -3   -1    0    0    0  501 -0.00000000000E+00  0.00000000000E+00  0.71803068542E+02  0.71803068542E+02  0.00000000000E+00 0.  1.
         21   -1    0    0  501  502  0.00000000000E+00 -0.00000000000E+00 -0.38126091153E+03  0.38126091153E+03  0.00000000000E+00 0. -1.
         23    2    1    2    0    0 -0.55868003967E+01  0.10035489214E+02 -0.10456946330E+02  0.92846853640E+02  0.91538336897E+02 0.  0.
         23    2    1    2    0    0 -0.80962461591E+01 -0.77463337097E+01 -0.18976392999E+03  0.21117059844E+03  0.91962588217E+02 0.  0.
        -13    1    3    3    0    0  0.17645915894E+02 -0.36273377650E+02 -0.68113213822E+01  0.40908805566E+02  0.00000000000E+00 0.  1.
         13    1    3    3    0    0 -0.23232716291E+02  0.46308866864E+02 -0.36456249480E+01  0.51938048074E+02  0.00000000000E+00 0. -1.
        -13    1    4    4    0    0 -0.45577357753E+02  0.41984828336E+01 -0.59327131142E+02  0.74930843365E+02  0.00000000000E+00 0.  1.
         13    1    4    4    0    0  0.37481111594E+02 -0.11944816543E+02 -0.13043679885E+03  0.13623975507E+03  0.00000000000E+00 0. -1.
         21    1    1    2  503  502  0.71659329670E+01  0.41468186550E+02 -0.92721073899E+02  0.10182415546E+03  0.00000000000E+00 0. -1.
         -3    1    1    2    0  503  0.65171135888E+01 -0.43757342054E+02 -0.16515892766E+02  0.47222372526E+02  0.00000000000E+00 0.  1.
<scales pt_clust_5="13000.00000" pt_clust_6="13000.00000" pt_clust_7="13000.00000" pt_clust_8="13000.00000" pt_clust_9="42.08279" pt_clust_10="13000.00000"></scales>
<clustering>
<clus scale="   42.083">  2  9  1 -1</clus>
<clus scale="   91.538">  5  6 -1 -1</clus>
<clus scale="   91.963">  7  8 -1 -1</clus>
<clus scale="   39.783">  7 10 -1 -1</clus>
<clus scale="   93.309">  1  5  2 -1</clus>
<clus scale="   42.083">  2  5  1 -1</clus>
</clustering>
</event>
<event>
10    2  0.5921424E-006  0.1410453E+03  0.7546771E-02  0.1227231E+00
          1   -1    0    0  503    0 -0.00000000000E+00  0.00000000000E+00  0.52040504793E+03  0.52040504793E+03  0.00000000000E+00 0. -1.
         21   -1    0    0  501  502  0.00000000000E+00 -0.00000000000E+00 -0.12053549149E+03  0.12053549149E+03  0.00000000000E+00 0.  1.
         23    2    1    2    0    0  0.41036657719E+02 -0.26064220073E+02  0.39912186008E+03  0.41255600536E+03  0.92416705833E+02 0.  0.
         23    2    1    2    0    0  0.28695084360E+02 -0.15209592870E+01 -0.24788647413E+02  0.97950739440E+02  0.90300327423E+02 0.  0.
        -11    1    4    4    0    0 -0.19734248673E+01 -0.41744040751E+02 -0.22157210517E+02  0.47301176749E+02  0.00000000000E+00 0.  1.
         11    1    4    4    0    0  0.30668509227E+02  0.40223081464E+02 -0.26314368958E+01  0.50649562691E+02  0.00000000000E+00 0. -1.
        -11    1    3    3    0    0 -0.23686028697E+02 -0.27728322658E+02  0.19605177338E+03  0.19941460749E+03  0.00000000000E+00 0.  1.
         11    1    3    3    0    0  0.64722686416E+02  0.16641025851E+01  0.20307008670E+03  0.21314139788E+03  0.00000000000E+00 0. -1.
         21    1    1    2  503  502 -0.43075557210E+02  0.62995424457E+02  0.36768998564E+02  0.84710603745E+02  0.00000000000E+00 0. -1.
          1    1    1    2  501    0 -0.26656184869E+02 -0.35410245097E+02 -0.11232654801E+02  0.45723190872E+02  0.00000000000E+00 0. -1.
<scales pt_clust_5="13000.00000" pt_clust_6="13000.00000" pt_clust_7="13000.00000" pt_clust_8="13000.00000" pt_clust_9="76.31466" pt_clust_10="13000.00000"></scales>
<clustering>
<clus scale="   76.315">  2  9  1 -1</clus>
<clus scale="   90.300">  5  6 -1 -1</clus>
<clus scale="   42.808">  5 10 -1 -1</clus>
<clus scale="   92.417">  7  8 -1 -1</clus>
<clus scale="  102.265">  1  7  2 -1</clus>
<clus scale="   76.315">  2  5  1 -1</clus>
</clustering>
</event>
<event>
10    2  0.5921424E-006  0.6795571E+03  0.7546771E-02  0.1001817E+00
          1   -1    0    0  502    0 -0.00000000000E+00  0.00000000000E+00  0.12804016195E+04  0.12804016195E+04  0.00000000000E+00 0. -1.
         21   -1    0    0  503  502  0.00000000000E+00 -0.00000000000E+00 -0.53184395290E+03  0.53184395290E+03  0.00000000000E+00 0. -1.
         23    2    1    2    0    0  0.45831322038E+02 -0.42677344796E+03 -0.16382596680E+01  0.43881917894E+03  0.91233228310E+02 0.  0.
         23    2    1    2    0    0  0.11624980145E+03  0.29422608262E+03  0.89900958839E+03  0.95739960878E+03  0.91174376003E+02 0.  0.
        -11    1    3    3    0    0  0.56932725751E+02 -0.28807710206E+03  0.32815745210E+02  0.29547694517E+03  0.00000000000E+00 0. -1.
         11    1    3    3    0    0 -0.11101403713E+02 -0.13869634590E+03 -0.34454004878E+02  0.14334223377E+03  0.00000000000E+00 0.  1.
        -13    1    4    4    0    0  0.26191417393E+01  0.39591493954E+02  0.21687455353E+03  0.22047430296E+03  0.00000000000E+00 0.  1.
         13    1    4    4    0    0  0.11363065971E+03  0.25463458866E+03  0.68213503486E+03  0.73692530582E+03  0.00000000000E+00 0. -1.
         21    1    1    2  503  501 -0.53511897447E+02  0.22760220433E+03 -0.13759469723E+03  0.27129059565E+03  0.00000000000E+00 0. -1.
          1    1    1    2  501    0 -0.10856922604E+03 -0.95054838991E+02 -0.11218964847E+02  0.14473618908E+03  0.00000000000E+00 0. -1.
<scales pt_clust_5="13000.00000" pt_clust_6="13000.00000" pt_clust_7="13000.00000" pt_clust_8="13000.00000" pt_clust_9="233.80823" pt_clust_10="13000.00000"></scales>
<clustering>
<clus scale="   91.174">  7  8 -1 -1</clus>
<clus scale="   91.233">  5  6 -1 -1</clus>
<clus scale="  144.301">  7 10 -1 -1</clus>
<clus scale="  233.808">  2  9  1 -1</clus>
<clus scale="  288.649">  1  5  2 -1</clus>
<clus scale="  233.808">  2  5  1 -1</clus>
</clustering>
</event>
<event>
10    2  0.5921424E-006  0.2438192E+03  0.7546771E-02  0.1119980E+00
          2   -1    0    0  502    0 -0.00000000000E+00  0.00000000000E+00  0.15199761850E+04  0.15199761850E+04  0.00000000000E+00 0. -1.
         21   -1    0    0  503  502  0.00000000000E+00 -0.00000000000E+00 -0.78788471300E+02  0.78788471300E+02  0.00000000000E+00 0.  1.
         23    2    1    2    0    0 -0.52227392957E+02  0.19888404292E+03  0.10514955408E+04  0.10752864659E+04  0.91189628498E+02 0.  0.
         23    2    1    2    0    0  0.98417948729E+01 -0.19358226513E+03  0.35613453638E+03  0.41659238096E+03  0.95637072145E+02 0.  0.
        -11    1    3    3    0    0 -0.77159834074E+02  0.14975343738E+03  0.84049749867E+03  0.85721396236E+03  0.00000000000E+00 0. -1.
         11    1    3    3    0    0  0.24932441117E+02  0.49130605531E+02  0.21099804216E+03  0.21807250358E+03  0.00000000000E+00 0.  1.
        -13    1    4    4    0    0  0.50412585867E+02 -0.10922378841E+03  0.17015803694E+03  0.20838671336E+03  0.00000000000E+00 0.  1.
         13    1    4    4    0    0 -0.40570790994E+02 -0.84358476721E+02  0.18597649944E+03  0.20820566760E+03  0.00000000000E+00 0. -1.
         21    1    1    2  503  501  0.13400401942E+02  0.16220859991E+02 -0.28299561144E+02  0.35264035957E+02  0.00000000000E+00 0.  1.
          2    1    1    2  501    0  0.28985196142E+02 -0.21522637778E+02  0.61857197604E+02  0.71621773419E+02  0.00000000000E+00 0. -1.
<scales pt_clust_5="13000.00000" pt_clust_6="13000.00000" pt_clust_7="13000.00000" pt_clust_8="13000.00000" pt_clust_9="21.04013" pt_clust_10="13000.00000"></scales>
<clustering>
<clus scale="   21.040">  2  9  1 -1</clus>
<clus scale="   91.190">  5  6 -1 -1</clus>
<clus scale="   95.637">  7  8 -1 -1</clus>
<clus scale="   36.281">  7 10 -1 -1</clus>
<clus scale="  227.827">  1  5  2 -1</clus>
<clus scale="   21.040">  2  5  1 -1</clus>
</clustering>
</event>
<event>
10    2  0.5921424E-006  0.3938169E+03  0.7546771E-02  0.1090708E+00
         21   -1    0    0  501  502  0.00000000000E+00  0.00000000000E+00  0.18462391132E+03  0.18462391132E+03  0.00000000000E+00 0. -1.
          2   -1    0    0  503    0 -0.00000000000E+00 -0.00000000000E+00 -0.83603156246E+03  0.83603156246E+03  0.00000000000E+00 0. -1.
         23    2    1    2    0    0 -0.25927293870E+02 -0.65204753797E+02 -0.37708595947E+03  0.39416032615E+03  0.90800095768E+02 0.  0.
         23    2    1    2    0    0 -0.13973044587E+03 -0.13252449613E+02 -0.34883662941E+03  0.38694288984E+03  0.91310355676E+02 0.  0.
        -13    1    3    3    0    0  0.25203685494E+02  0.70524402463E+01 -0.80628956205E+02  0.84770226227E+02  0.00000000000E+00 0.  1.
         13    1    3    3    0    0 -0.51130979364E+02 -0.72257194043E+02 -0.29645700327E+03  0.30939009992E+03  0.00000000000E+00 0. -1.
        -13    1    4    4    0    0 -0.13379910708E+03  0.18119062898E+02 -0.29322638785E+03  0.32281916924E+03  0.00000000000E+00 0. -1.
         13    1    4    4    0    0 -0.59313387891E+01 -0.31371512512E+02 -0.55610241555E+02  0.64123720595E+02  0.00000000000E+00 0.  1.
         21    1    1    2  503  502  0.77023212937E+02 -0.25401912234E+02  0.62679808973E+02  0.10250166306E+03  0.00000000000E+00 0.  1.
          2    1    1    2  501    0  0.88634526805E+02  0.10385911564E+03  0.11835128767E+02  0.13705059474E+03  0.00000000000E+00 0. -1.
<scales pt_clust_5="13000.00000" pt_clust_6="13000.00000" pt_clust_7="13000.00000" pt_clust_8="13000.00000" pt_clust_9="81.10384" pt_clust_10="13000.00000"></scales>
<clustering>
<clus scale="   81.104">  1  9  2 -1</clus>
<clus scale="   90.800">  5  6 -1 -1</clus>
<clus scale="   91.310">  7  8 -1 -1</clus>
<clus scale="  114.707">  2  5  1 -1</clus>
<clus scale="  155.152">  7 10 -1 -1</clus>
<clus scale="   81.104">  1  5  2 -1</clus>
</clustering>
</event>
<event>
10    2  0.5921424E-006  0.2256692E+03  0.7546771E-02  0.1151504E+00
          1   -1    0    0  503    0 -0.00000000000E+00  0.00000000000E+00  0.10120361923E+04  0.10120361923E+04  0.00000000000E+00 0. -1.
         21   -1    0    0  501  502  0.00000000000E+00 -0.00000000000E+00 -0.53824299068E+02  0.53824299068E+02  0.00000000000E+00 0. -1.
         23    2    1    2    0    0  0.31937620135E+02  0.93044677519E+02  0.30828695037E+03  0.33556669654E+03  0.88807885143E+02 0.  0.
         23    2    1    2    0    0  0.57886317716E+02 -0.11417640626E+02  0.39271592457E+03  0.40729776524E+03  0.90468137258E+02 0.  0.
        -11    1    3    3    0    0  0.34944511034E+02 -0.35859415430E+01  0.98463016817E+02  0.10454158746E+03  0.00000000000E+00 0.  1.
         11    1    3    3    0    0 -0.30068908990E+01  0.96630619062E+02  0.20982393356E+03  0.23102510908E+03  0.00000000000E+00 0. -1.
        -11    1    4    4    0    0 -0.11714417097E+02 -0.29828303929E+02  0.75591085788E+02  0.82103395385E+02  0.00000000000E+00 0.  1.
         11    1    4    4    0    0  0.69600734813E+02  0.18410663303E+02  0.31712483879E+03  0.32519436985E+03  0.00000000000E+00 0. -1.
         21    1    1    2  503  502 -0.19798168909E+02  0.91071127265E+01 -0.15791416484E+02  0.26912373157E+02  0.00000000000E+00 0. -1.
          1    1    1    2  501    0 -0.70025768942E+02 -0.90734149620E+02  0.27300043481E+03  0.29608365647E+03  0.00000000000E+00 0. -1.
<scales pt_clust_5="13000.00000" pt_clust_6="13000.00000" pt_clust_7="13000.00000" pt_clust_8="13000.00000" pt_clust_9="21.79236" pt_clust_10="13000.00000"></scales>
<clustering>
<clus scale="   21.792">  2  9  1 -1</clus>
<clus scale="   88.808">  5  6 -1 -1</clus>
<clus scale="   90.468">  7  8 -1 -1</clus>
<clus scale="  116.595">  7 10 -1 -1</clus>
<clus scale="  133.524">  1  5  2 -1</clus>
<clus scale="   21.792">  2  5  1 -1</clus>
</clustering>
</event>
<event>
10    2  0.5921424E-006  0.1548500E+03  0.7546771E-02  0.1214770E+00
         -1   -1    0    0    0  501 -0.00000000000E+00  0.00000000000E+00  0.29053233019E+03  0.29053233019E+03  0.00000000000E+00 0.  1.
         21   -1    0    0  503  502  0.00000000000E+00 -0.00000000000E+00 -0.15832285325E+03  0.15832285325E+03  0.00000000000E+00 0. -1.
         23    2    1    2    0    0 -0.40040608710E+02 -0.79106838533E+01  0.89905250012E+02  0.13429010235E+03  0.91022240933E+02 0.  0.
         23    2    1    2    0    0  0.10513889135E+02  0.66974483598E+01  0.14337549657E+03  0.17178661643E+03  0.93801443958E+02 0.  0.
        -13    1    4    4    0    0  0.48123042730E+02 -0.79951920998E+01  0.10634457551E+03  0.11699965418E+03  0.00000000000E+00 0.  1.
         13    1    4    4    0    0 -0.37609153595E+02  0.14692640460E+02  0.37030921059E+02  0.54786962247E+02  0.00000000000E+00 0. -1.
        -13    1    3    3    0    0 -0.15177118984E+02  0.31286389189E+02  0.79425546710E+02  0.86704097707E+02  0.00000000000E+00 0. -1.
         13    1    3    3    0    0 -0.24863489727E+02 -0.39197073043E+02  0.10479703303E+02  0.47586004642E+02  0.00000000000E+00 0.  1.
         21    1    1    2  503  501  0.72301499021E+01 -0.31105400632E+02 -0.98368030831E+02  0.10342190535E+03  0.00000000000E+00 0. -1.
         -1    1    1    2    0  502  0.22296569673E+02  0.32318636126E+02 -0.27032388149E+01  0.39356559305E+02  0.00000000000E+00 0.  1.
<scales pt_clust_5="13000.00000" pt_clust_6="13000.00000" pt_clust_7="13000.00000" pt_clust_8="13000.00000" pt_clust_9="31.93464" pt_clust_10="13000.00000"></scales>
<clustering>
<clus scale="   31.935">  2  9  1 -1</clus>
<clus scale="   91.022">  7  8 -1 -1</clus>
<clus scale="   93.801">  5  6 -1 -1</clus>
<clus scale="   32.561">  5 10 -1 -1</clus>
<clus scale="  100.347">  1  7  2 -1</clus>
<clus scale="   31.935">  2  5  1 -1</clus>
</clustering>
</event>
<event>
10    2  0.5921424E-006  0.3768820E+03  0.7546771E-02  0.1078782E+00
          2   -1    0    0  502    0 -0.00000000000E+00  0.00000000000E+00  0.20110128984E+03  0.20110128984E+03  0.00000000000E+00 0. -1.
         21   -1    0    0  503  502  0.00000000000E+00 -0.00000000000E+00 -0.78285817405E+03  0.78285817405E+03  0.00000000000E+00 0.  1.
         23    2    1    2    0    0 -0.12476979045E+03  0.14377590246E+03 -0.38337496712E+03  0.43757383216E+03  0.90859685464E+02 0.  0.
         23    2    1    2    0    0  0.61009752877E+02  0.12934883163E+03 -0.22667640676E+02  0.17208255968E+03  0.92979972158E+02 0.  0.
        -11    1    4    4    0    0  0.29365188301E+02  0.83044304849E+01 -0.34915446785E+02  0.46372041942E+02  0.00000000000E+00 0.  1.
         11    1    4    4    0    0  0.31644564576E+02  0.12104440115E+03  0.12247806110E+02  0.12571051774E+03  0.00000000000E+00 0. -1.
        -13    1    3    3    0    0 -0.42949783449E+02  0.11588807983E+02 -0.15537097555E+03  0.16161412195E+03  0.00000000000E+00 0.  1.
         13    1    3    3    0    0 -0.81820006997E+02  0.13218709447E+03 -0.22800399157E+03  0.27595971021E+03  0.00000000000E+00 0. -1.
         21    1    1    2  503  501 -0.43975511269E+01 -0.83871315284E+02 -0.14946467028E+03  0.17144510389E+03  0.00000000000E+00 0. -1.
          2    1    1    2  501    0  0.68157588696E+02 -0.18925341880E+03 -0.26249606127E+02  0.20285796816E+03  0.00000000000E+00 0. -1.
<scales pt_clust_5="13000.00000" pt_clust_6="13000.00000" pt_clust_7="13000.00000" pt_clust_8="13000.00000" pt_clust_9="83.98652" pt_clust_10="13000.00000"></scales>
<clustering>
<clus scale="   83.987">  2  9  1 -1</clus>
<clus scale="   90.860">  7  8 -1 -1</clus>
<clus scale="   92.980">  5  6 -1 -1</clus>
<clus scale="  179.947">  1  7  2 -1</clus>
<clus scale="  152.022">  5 10 -1 -1</clus>
<clus scale="   83.987">  2  5  1 -1</clus>
</clustering>
</event>
<event>
10    2  0.5921424E-006  0.1181459E+03  0.7546771E-02  0.1258541E+00
         -4   -1    0    0    0  501 -0.00000000000E+00  0.00000000000E+00  0.25394510914E+03  0.25394510914E+03  0.00000000000E+00 0.  1.
         21   -1    0    0  503  502  0.00000000000E+00 -0.00000000000E+00 -0.18975594496E+03  0.18975594496E+03  0.00000000000E+00 0.  1.
         23    2    1    2    0    0 -0.15863471414E+02 -0.12011265951E+02  0.69552830830E+02  0.11615235242E+03  0.90872726719E+02 0.  0.
         23    2    1    2    0    0 -0.25177583698E+02  0.86478800785E+00  0.13161780063E+03  0.15711275909E+03  0.82015334223E+02 0.  0.
        -11    1    4    4    0    0 -0.29215878758E+02  0.28233809755E+02  0.12072822357E+03  0.12738139405E+03  0.00000000000E+00 0.  1.
         11    1    4    4    0    0  0.40382950601E+01 -0.27369021747E+02  0.10889577057E+02  0.29731365035E+02  0.00000000000E+00 0. -1.
        -13    1    3    3    0    0  0.25800097469E+02 -0.22434646003E+02 -0.25523305614E+00  0.34190985868E+02  0.00000000000E+00 0. -1.
         13    1    3    3    0    0 -0.41663568883E+02  0.10423380052E+02  0.69808063886E+02  0.81961366553E+02  0.00000000000E+00 0.  1.
         21    1    1    2  503  501  0.62906828965E+02  0.59647149094E+01 -0.13349617589E+03  0.14769589003E+03  0.00000000000E+00 0.  1.
         -4    1    1    2    0  502 -0.21865773853E+02  0.51817630342E+01 -0.34852913909E+01  0.22740052559E+02  0.00000000000E+00 0.  1.
<scales pt_clust_5="13000.00000" pt_clust_6="13000.00000" pt_clust_7="13000.00000" pt_clust_8="13000.00000" pt_clust_9="63.18898" pt_clust_10="13000.00000"></scales>
<clustering>
<clus scale="   63.189">  2  9  1 -1</clus>
<clus scale="   82.015">  5  6 -1 -1</clus>
<clus scale="    8.470">  5 10 -1 -1</clus>
<clus scale="   90.873">  7  8 -1 -1</clus>
<clus scale="   92.395">  1  7  2 -1</clus>
<clus scale="   63.189">  2  5  1 -1</clus>
</clustering>
</event>
<event>
10    2  0.5921424E-006  0.3169015E+03  0.7546771E-02  0.1119773E+00
         21   -1    0    0  503  502  0.00000000000E+00  0.00000000000E+00  0.37178510921E+03  0.37178510921E+03  0.00000000000E+00 0. -1.
          2   -1    0    0  502    0 -0.00000000000E+00 -0.00000000000E+00 -0.29164201253E+03  0.29164201253E+03  0.00000000000E+00 0. -1.
         23    2    1    2    0    0 -0.26284201013E+02 -0.43335029058E+02 -0.16697708462E+03  0.19680688563E+03  0.91009996582E+02 0.  0.
         23    2    1    2    0    0  0.98638791813E+02  0.13172628803E+03  0.30290868659E+02  0.19066434192E+03  0.91399826843E+02 0.  0.
        -11    1    4    4    0    0  0.30503072125E+02  0.85781725394E+02 -0.21472656510E+02  0.93541524460E+02  0.00000000000E+00 0.  1.
         11    1    4    4    0    0  0.68135719687E+02  0.45944562632E+02  0.51763525169E+02  0.97122817456E+02  0.00000000000E+00 0. -1.
        -13    1    3    3    0    0  0.25807754248E+02 -0.35562431888E+02 -0.40321423743E+02  0.59636766795E+02  0.00000000000E+00 0.  1.
         13    1    3    3    0    0 -0.52091955261E+02 -0.77725971698E+01 -0.12665566088E+03  0.13717011884E+03  0.00000000000E+00 0. -1.
         21    1    1    2  503  501  0.22399810477E+02 -0.18285150927E+02  0.11993749732E+03  0.12337382833E+03  0.00000000000E+00 0. -1.
          2    1    1    2  501    0 -0.94754401277E+02 -0.70106108041E+02  0.96891815318E+02  0.15258206586E+03  0.00000000000E+00 0. -1.
<scales pt_clust_5="13000.00000" pt_clust_6="13000.00000" pt_clust_7="13000.00000" pt_clust_8="13000.00000" pt_clust_9="28.91536" pt_clust_10="13000.00000"></scales>
<clustering>
<clus scale="   28.915">  1  9  2 -1</clus>
<clus scale="   91.010">  7  8 -1 -1</clus>
<clus scale="   91.400">  5  6 -1 -1</clus>
<clus scale="  104.302">  2  7  1 -1</clus>
<clus scale="  127.776">  5 10 -1 -1</clus>
<clus scale="   28.915">  1  5  2 -1</clus>
</clustering>
</event>
<event>
10    2  0.5921424E-006  0.1779874E+03  0.7546771E-02  0.1196616E+00
         21   -1    0    0  503  502  0.00000000000E+00  0.00000000000E+00  0.78981809684E+02  0.78981809684E+02  0.00000000000E+00 0. -1.
          2   -1    0    0  502    0 -0.00000000000E+00 -0.00000000000E+00 -0.33846409378E+03  0.33846409378E+03  0.00000000000E+00 0. -1.
         23    2    1    2    0    0 -0.32808739656E+02  0.83476303483E+01 -0.15858808932E+03  0.18537506920E+03  0.89820030482E+02 0.  0.
         23    2    1    2    0    0  0.66234458653E+02  0.27637258198E+02 -0.18701629816E+02  0.11542604898E+03  0.88445464959E+02 0.  0.
        -11    1    4    4    0    0  0.34002565996E+02  0.59494919324E+02 -0.13025815446E+02  0.69753077263E+02  0.00000000000E+00 0. -1.
         11    1    4    4    0    0  0.32231892658E+02 -0.31857661127E+02 -0.56758143697E+01  0.45672971718E+02  0.00000000000E+00 0.  1.
        -11    1    3    3    0    0 -0.63828769718E+02  0.16544253774E+00 -0.10196865116E+03  0.12029856622E+03  0.00000000000E+00 0.  1.
         11    1    3    3    0    0  0.31020030062E+02  0.81821878106E+01 -0.56619438161E+02  0.65076502980E+02  0.00000000000E+00 0. -1.
         21    1    1    2  503  501 -0.21784875057E+02  0.44266954440E+01  0.22156421954E+01  0.22340221220E+02  0.00000000000E+00 0. -1.
          2    1    1    2  501    0 -0.11640843940E+02 -0.40411583990E+02 -0.84408207155E+02  0.94304564065E+02  0.00000000000E+00 0. -1.
<scales pt_clust_5="13000.00000" pt_clust_6="13000.00000" pt_clust_7="13000.00000" pt_clust_8="13000.00000" pt_clust_9="22.23008" pt_clust_10="13000.00000"></scales>
<clustering>
<clus scale="   22.230">  1  9  2 -1</clus>
<clus scale="   88.445">  5  6 -1 -1</clus>
<clus scale="   42.219">  5 10 -1 -1</clus>
<clus scale="   89.820">  7  8 -1 -1</clus>
<clus scale="   97.650">  2  7  1 -1</clus>
<clus scale="   22.230">  1  5  2 -1</clus>
</clustering>
</event>
<event>
10    2  0.5921424E-006  0.2684496E+03  0.7546771E-02  0.1125756E+00
         21   -1    0    0  501  502  0.00000000000E+00  0.00000000000E+00  0.30765375173E+03  0.30765375173E+03  0.00000000000E+00 0.  1.
          1   -1    0    0  503    0 -0.00000000000E+00 -0.00000000000E+00 -0.97381945526E+03  0.97381945526E+03  0.00000000000E+00 0. -1.
         23    2    1    2    0    0  0.76275188941E+02  0.10437209087E+03 -0.48863885333E+03  0.51232683456E+03  0.83662528193E+02 0.  0.
         23    2    1    2    0    0 -0.43368228840E+02  0.16594587349E+02 -0.28784003719E+03  0.30592010682E+03  0.92623113440E+02 0.  0.
        -11    1    4    4    0    0 -0.51673228194E+01  0.39629254053E+02 -0.22692969280E+03  0.23042192707E+03  0.00000000000E+00 0. -1.
         11    1    4    4    0    0 -0.38200906021E+02 -0.23034666703E+02 -0.60910344393E+02  0.75498179746E+02  0.00000000000E+00 0.  1.
        -13    1    3    3    0    0 -0.15460009103E+02  0.28685846601E+02 -0.71690803412E+02  0.78749355366E+02  0.00000000000E+00 0.  1.
         13    1    3    3    0    0  0.91735198044E+02  0.75686244272E+02 -0.41694804992E+03  0.43357747920E+03  0.00000000000E+00 0. -1.
         21    1    1    2  503  502 -0.77015857660E+02  0.12121076761E+02  0.25206598515E+03  0.26384772825E+03  0.00000000000E+00 0.  1.
          1    1    1    2  501    0  0.44108897560E+02 -0.13308775498E+03 -0.14175279816E+03  0.19937853735E+03  0.00000000000E+00 0. -1.
<scales pt_clust_5="13000.00000" pt_clust_6="13000.00000" pt_clust_7="13000.00000" pt_clust_8="13000.00000" pt_clust_9="77.96386" pt_clust_10="13000.00000"></scales>
<clustering>
<clus scale="   77.964">  1  9  2 -1</clus>
<clus scale="   83.663">  7  8 -1 -1</clus>
<clus scale="   92.623">  5  6 -1 -1</clus>
<clus scale="  126.062">  5 10 -1 -1</clus>
<clus scale="  147.848">  2  7  1 -1</clus>
<clus scale="   77.964">  1  5  2 -1</clus>
</clustering>
</event>
<event>
10    2  0.7381716E-006  0.1536180E+03  0.7546771E-02  0.1204238E+00
          4   -1    0    0  503    0 -0.00000000000E+00  0.00000000000E+00  0.76959152553E+03  0.76959152553E+03  0.00000000000E+00 0. -1.
         21   -1    0    0  501  502  0.00000000000E+00 -0.00000000000E+00 -0.36224272787E+03  0.36224272787E+03  0.00000000000E+00 0. -1.
         23    2    1    2    0    0 -0.13110531690E+02  0.63915812806E+02  0.28203720778E+03  0.30369054622E+03  0.91792396885E+02 0.  0.
         23    2    1    2    0    0 -0.26821948702E+02 -0.71195185691E+02  0.33397299671E+03  0.35463929099E+03  0.91885215267E+02 0.  0.
        -11    1    4    4    0    0 -0.42581061521E+02 -0.87337538456E+01  0.65969921280E+02  0.79002884568E+02  0.00000000000E+00 0.  1.
         11    1    4    4    0    0  0.15759112818E+02 -0.62461431845E+02  0.26800307543E+03  0.27563640642E+03  0.00000000000E+00 0. -1.
        -13    1    3    3    0    0 -0.49176424186E+02  0.47148842813E+02  0.13294448783E+03  0.14938397143E+03  0.00000000000E+00 0.  1.
         13    1    3    3    0    0  0.36065892496E+02  0.16766969993E+02  0.14909271995E+03  0.15430657480E+03  0.00000000000E+00 0. -1.
         21    1    1    2  503  502  0.51747666737E+02  0.71304351498E+02 -0.32687925982E+03  0.33854420990E+03  0.00000000000E+00 0. -1.
          4    1    1    2  501    0 -0.11815186344E+02 -0.64024978614E+02  0.11821785299E+03  0.13496020628E+03  0.00000000000E+00 0. -1.
<scales pt_clust_5="13000.00000" pt_clust_6="13000.00000" pt_clust_7="13000.00000" pt_clust_8="13000.00000" pt_clust_9="88.10296" pt_clust_10="13000.00000"></scales>
<clustering>
<clus scale="   88.103">  2  9  1 -1</clus>
<clus scale="   91.792">  7  8 -1 -1</clus>
<clus scale="   91.885">  5  6 -1 -1</clus>
<clus scale="   43.905">  5 10 -1 -1</clus>
<clus scale="  128.727">  1  7  2 -1</clus>
<clus scale="   88.103">  2  5  1 -1</clus>
</clustering>
</event>
<event>
10    2  0.5921424E-006  0.4759176E+03  0.7546771E-02  0.1077412E+00
          1   -1    0    0  503    0 -0.00000000000E+00  0.00000000000E+00  0.42369753760E+03  0.42369753760E+03  0.00000000000E+00 0. -1.
         21   -1    0    0  501  502  0.00000000000E+00 -0.00000000000E+00 -0.25151944822E+03  0.25151944822E+03  0.00000000000E+00 0. -1.
         23    2    1    2    0    0 -0.86430904283E+01 -0.13499239224E+02  0.79700517061E+02  0.12203687037E+03  0.91015893322E+02 0.  0.
         23    2    1    2    0    0  0.17474670562E+03  0.47611276598E+02 -0.76235242711E+02  0.21643947834E+03  0.90724807894E+02 0.  0.
        -11    1    4    4    0    0  0.12984474812E+02  0.26883314374E+02  0.10595845411E+02  0.31679348444E+02  0.00000000000E+00 0.  1.
         11    1    4    4    0    0  0.16176223081E+03  0.20727962224E+02 -0.86831088122E+02  0.18476012989E+03  0.00000000000E+00 0. -1.
        -13    1    3    3    0    0 -0.35325035216E+02 -0.25997840056E+02  0.81462874940E+02  0.92519975108E+02  0.00000000000E+00 0.  1.
         13    1    3    3    0    0  0.26681944788E+02  0.12498600831E+02 -0.17623578788E+01  0.29516895258E+02  0.00000000000E+00 0. -1.
         21    1    1    2  503  502  0.50378011968E+02 -0.40342882193E+02  0.40270036106E+01  0.64666134812E+02  0.00000000000E+00 0. -1.
          1    1    1    2  501    0 -0.21648162716E+03  0.62308448190E+01  0.16468581141E+03  0.27207450230E+03  0.00000000000E+00 0. -1.
<scales pt_clust_5="13000.00000" pt_clust_6="13000.00000" pt_clust_7="13000.00000" pt_clust_8="13000.00000" pt_clust_9="64.54062" pt_clust_10="13000.00000"></scales>
<clustering>
<clus scale="   64.541">  2  9  1 -1</clus>
<clus scale="   90.725">  5  6 -1 -1</clus>
<clus scale="   91.016">  7  8 -1 -1</clus>
<clus scale="   92.735">  1  7  2 -1</clus>
<clus scale="  207.224">  5 10 -1 -1</clus>
<clus scale="   64.541">  2  5  1 -1</clus>
</clustering>
</event>
<event>
10    2  0.5921424E-006  0.3073432E+03  0.7546771E-02  0.1123675E+00
         21   -1    0    0  503  502  0.00000000000E+00  0.00000000000E+00  0.19738503545E+03  0.19738503545E+03  0.00000000000E+00 0.  1.
         -1   -1    0    0    0  501 -0.00000000000E+00 -0.00000000000E+00 -0.46953849715E+03  0.46953849715E+03  0.00000000000E+00 0.  1.
         23    2    1    2    0    0  0.29210547511E+02  0.49581722842E+02 -0.18714608587E+03  0.21283760633E+03  0.83454094471E+02 0.  0.
         23    2    1    2    0    0 -0.52594959729E+02 -0.17876824599E+03 -0.76597357669E+02  0.22066692011E+03  0.90013437141E+02 0.  0.
        -11    1    4    4    0    0 -0.20200558426E+01 -0.11380842026E+03 -0.78581849615E+02  0.13831682558E+03  0.00000000000E+00 0. -1.
         11    1    4    4    0    0 -0.50574903887E+02 -0.64959825725E+02  0.19844919458E+01  0.82350094534E+02  0.00000000000E+00 0.  1.
        -13    1    3    3    0    0 -0.22251458961E+02  0.13985205619E+02 -0.11203868298E+03  0.11507988480E+03  0.00000000000E+00 0. -1.
         13    1    3    3    0    0  0.51462006472E+02  0.35596517224E+02 -0.75107402890E+02  0.97757721523E+02  0.00000000000E+00 0.  1.
         21    1    1    2  503  501  0.14201952681E+02  0.30550529697E+02  0.88586552245E+02  0.94776619286E+02  0.00000000000E+00 0.  1.
         -1    1    1    2    0  502  0.91824595369E+01  0.98635993450E+02 -0.96996570407E+02  0.13864238687E+03  0.00000000000E+00 0.  1.
<scales pt_clust_5="13000.00000" pt_clust_6="13000.00000" pt_clust_7="13000.00000" pt_clust_8="13000.00000" pt_clust_9="33.69021" pt_clust_10="13000.00000"></scales>
<clustering>
<clus scale="   33.690">  1  9  2 -1</clus>
<clus scale="   83.454">  7  8 -1 -1</clus>
<clus scale="   90.013">  5  6 -1 -1</clus>
<clus scale="  103.740">  2  7  1 -1</clus>
<clus scale="  135.380">  5 10 -1 -1</clus>
<clus scale="   33.690">  1  5  2 -1</clus>
</clustering>
</event>
<event>
10    2  0.5921424E-006  0.2566413E+03  0.7546771E-02  0.1138492E+00
         -3   -1    0    0    0  501 -0.00000000000E+00  0.00000000000E+00  0.13994278595E+03  0.13994278595E+03  0.00000000000E+00 0.  1.
         21   -1    0    0  503  502  0.00000000000E+00 -0.00000000000E+00 -0.62531072682E+03  0.62531072682E+03  0.00000000000E+00 0. -1.
         23    2    1    2    0    0 -0.53224945686E+02 -0.73572000351E+02  0.28750217102E+02  0.13160929358E+03  0.90822338074E+02 0.  0.
         23    2    1    2    0    0  0.37280280093E+02 -0.38148656065E+02 -0.28763050564E+01  0.10661057149E+03  0.92262677067E+02 0.  0.
        -11    1    4    4    0    0  0.60307431274E+02 -0.46971552585E+02  0.12634245278E+02  0.77478623974E+02  0.00000000000E+00 0. -1.
         11    1    4    4    0    0 -0.23027151181E+02  0.88228965201E+01 -0.15510550335E+02  0.29131947518E+02  0.00000000000E+00 0.  1.
        -13    1    3    3    0    0  0.22043780228E+02 -0.16410738262E+02 -0.10297150582E+02  0.29347434081E+02  0.00000000000E+00 0.  1.
         13    1    3    3    0    0 -0.75268725914E+02 -0.57161262089E+02  0.39047367684E+02  0.10226185950E+03  0.00000000000E+00 0. -1.
         21    1    1    2  503  501  0.15742768380E+02  0.37911195768E+02 -0.30956100615E+03  0.31227089209E+03  0.00000000000E+00 0. -1.
         -3    1    1    2    0  502  0.20189721284E+00  0.73809460648E+02 -0.20168084677E+03  0.21476275561E+03  0.00000000000E+00 0.  1.
<scales pt_clust_5="13000.00000" pt_clust_6="13000.00000" pt_clust_7="13000.00000" pt_clust_8="13000.00000" pt_clust_9="41.04989" pt_clust_10="13000.00000"></scales>
<clustering>
<clus scale="   41.050">  2  9  1 -1</clus>
<clus scale="   90.822">  7  8 -1 -1</clus>
<clus scale="   92.263">  5  6 -1 -1</clus>
<clus scale="   99.487">  5 10 -1 -1</clus>
<clus scale="  123.907">  1  7  2 -1</clus>
<clus scale="   41.050">  2  5  1 -1</clus>
</clustering>
</event>
<event>
10    2  0.5921424E-006  0.3543944E+03  0.7546771E-02  0.1065018E+00
         21   -1    0    0  503  502  0.00000000000E+00  0.00000000000E+00  0.39029769822E+03  0.39029769822E+03  0.00000000000E+00 0. -1.
          2   -1    0    0  502    0 -0.00000000000E+00 -0.00000000000E+00 -0.10239700689E+04  0.10239700689E+04  0.00000000000E+00 0. -1.
         23    2    1    2    0    0  0.16852788770E+03 -0.25894998365E+03 -0.40276210801E+03  0.51575314994E+03  0.91253783816E+02 0.  0.
         23    2    1    2    0    0 -0.14072610783E+03  0.23338605575E+03 -0.48692334007E+03  0.56562363590E+03  0.92535776535E+02 0.  0.
        -13    1    3    3    0    0  0.91093625261E+02 -0.11962814693E+03 -0.12512866696E+03  0.19561729319E+03  0.00000000000E+00 0.  1.
         13    1    3    3    0    0  0.77434262434E+02 -0.13932183673E+03 -0.27763344105E+03  0.32013585675E+03  0.00000000000E+00 0. -1.
        -13    1    4    4    0    0 -0.12521670366E+03  0.19233680586E+03 -0.46017834947E+03  0.51423417145E+03  0.00000000000E+00 0. -1.
         13    1    4    4    0    0 -0.15509404174E+02  0.41049249891E+02 -0.26744990600E+02  0.51389464452E+02  0.00000000000E+00 0.  1.
         21    1    1    2  503  501  0.18987157333E+02  0.29953864685E+02  0.27853132420E+03  0.28078006467E+03  0.00000000000E+00 0. -1.
          2    1    1    2  501    0 -0.46788937198E+02 -0.43899367773E+01 -0.22518246763E+02  0.52110916576E+02  0.00000000000E+00 0. -1.
<scales pt_clust_5="13000.00000" pt_clust_6="13000.00000" pt_clust_7="13000.00000" pt_clust_8="13000.00000" pt_clust_9="35.46472" pt_clust_10="13000.00000"></scales>
<clustering>
<clus scale="   35.465">  1  9  2 -1</clus>
<clus scale="   91.254">  5  6 -1 -1</clus>
<clus scale="   92.536">  7  8 -1 -1</clus>
<clus scale="   44.251">  7 10 -1 -1</clus>
<clus scale="  315.371">  2  5  1 -1</clus>
<clus scale="   35.465">  1  5  2 -1</clus>
</clustering>
</event>
<event>
10    2  0.5921424E-006  0.5968878E+03  0.7546771E-02  0.1000512E+00
          1   -1    0    0  503    0 -0.00000000000E+00  0.00000000000E+00  0.29120962247E+04  0.29120962247E+04  0.00000000000E+00 0. -1.
         21   -1    0    0  501  502  0.00000000000E+00 -0.00000000000E+00 -0.13576354105E+03  0.13576354105E+03  0.00000000000E+00 0. -1.
         23    2    1    2    0    0 -0.41371711422E+03 -0.91168986970E+02  0.16744161870E+04  0.17295388373E+04  0.90340398792E+02 0.  0.
         23    2    1    2    0    0  0.34206175964E+03  0.21226648600E+03  0.75642852403E+03  0.86115862415E+03  0.85713216620E+02 0.  0.
        -11    1    4    4    0    0  0.18704841010E+03  0.16190175521E+03  0.48795384203E+03  0.54708156432E+03  0.00000000000E+00 0. -1.
         11    1    4    4    0    0  0.15501334953E+03  0.50364730789E+02  0.26847468200E+03  0.31407705983E+03  0.00000000000E+00 0.  1.
        -13    1    3    3    0    0 -0.32811446069E+03 -0.34068455455E+02  0.13067861804E+04  0.13477796111E+04  0.00000000000E+00 0. -1.
         13    1    3    3    0    0 -0.85602653527E+02 -0.57100531515E+02  0.36763000668E+03  0.38175922621E+03  0.00000000000E+00 0.  1.
         21    1    1    2  503  502 -0.54304571109E+02  0.46629716903E+02  0.28468066329E+02  0.77030823326E+02  0.00000000000E+00 0. -1.
          1    1    1    2  501    0  0.12595992569E+03 -0.16772721593E+03  0.31701990628E+03  0.38013148097E+03  0.00000000000E+00 0. -1.
<scales pt_clust_5="13000.00000" pt_clust_6="13000.00000" pt_clust_7="13000.00000" pt_clust_8="13000.00000" pt_clust_9="71.57735" pt_clust_10="13000.00000"></scales>
<clustering>
<clus scale="   71.577">  2  9  1 -1</clus>
<clus scale="   85.713">  5  6 -1 -1</clus>
<clus scale="   90.340">  7  8 -1 -1</clus>
<clus scale="  190.023">  5 10 -1 -1</clus>
<clus scale="  443.796">  1  7  2 -1</clus>
<clus scale="   71.577">  2  5  1 -1</clus>
</clustering>
</event>
<event>
10    2  0.5921424E-006  0.4618086E+03  0.7546771E-02  0.1049522E+00
          3   -1    0    0  502    0 -0.00000000000E+00  0.00000000000E+00  0.13895574245E+04  0.13895574245E+04  0.00000000000E+00 0. -1.
         21   -1    0    0  503  502  0.00000000000E+00 -0.00000000000E+00 -0.18516093500E+03  0.18516093500E+03  0.00000000000E+00 0. -1.
         23    2    1    2    0    0  0.18763921060E+03 -0.38889546727E+02  0.32198599380E+03  0.38561502026E+03  0.91121311699E+02 0.  0.
         23    2    1    2    0    0 -0.31479001061E+02 -0.16739480560E+03  0.57946384472E+03  0.61082624352E+03  0.91205284863E+02 0.  0.
        -13    1    4    4    0    0  0.28150381783E+02 -0.63519307059E+02  0.15646523217E+03  0.17119729916E+03  0.00000000000E+00 0.  1.
         13    1    4    4    0    0 -0.59629382844E+02 -0.10387549854E+03  0.42299861255E+03  0.43962894436E+03  0.00000000000E+00 0. -1.
        -13    1    3    3    0    0  0.15367418993E+03 -0.34846934723E+02  0.17846887863E+03  0.23807815135E+03  0.00000000000E+00 0. -1.
         13    1    3    3    0    0  0.33965020671E+02 -0.40426120039E+01  0.14351711517E+03  0.14753686891E+03  0.00000000000E+00 0.  1.
         21    1    1    2  503  501  0.29745910057E+02  0.29452915280E+02 -0.95554731548E+02  0.10432161859E+03  0.00000000000E+00 0. -1.
          3    1    1    2  501    0 -0.18590611960E+03  0.17683143705E+03  0.39850138255E+03  0.47395547716E+03  0.00000000000E+00 0. -1.
<scales pt_clust_5="13000.00000" pt_clust_6="13000.00000" pt_clust_7="13000.00000" pt_clust_8="13000.00000" pt_clust_9="41.86040" pt_clust_10="13000.00000"></scales>
<clustering>
<clus scale="   41.860">  2  9  1 -1</clus>
<clus scale="   91.121">  7  8 -1 -1</clus>
<clus scale="   91.205">  5  6 -1 -1</clus>
<clus scale="  220.409">  1  7  2 -1</clus>
<clus scale="  197.266">  5 10 -1 -1</clus>
<clus scale="   41.860">  2  5  1 -1</clus>
</clustering>
</event>
<event>
10    2  0.5921424E-006  0.3726535E+03  0.7546771E-02  0.1083279E+00
         21   -1    0    0  503  502  0.00000000000E+00  0.00000000000E+00  0.22597964923E+03  0.22597964923E+03  0.00000000000E+00 0.  1.
          2   -1    0    0  502    0 -0.00000000000E+00 -0.00000000000E+00 -0.52235436489E+03  0.52235436489E+03  0.00000000000E+00 0. -1.
         23    2    1    2    0    0 -0.14435295463E+03 -0.23849680825E+02 -0.10451949584E+03  0.20187348789E+03  0.91771440643E+02 0.  0.
         23    2    1    2    0    0  0.18774206308E+03  0.19308804434E+02 -0.31568913361E+03  0.37838066915E+03  0.88839121604E+02 0.  0.
        -11    1    3    3    0    0 -0.13496526250E+03  0.27106789952E+01 -0.56791937321E+02  0.14645236088E+03  0.00000000000E+00 0. -1.
         11    1    3    3    0    0 -0.93876921264E+01 -0.26560359820E+02 -0.47727558516E+02  0.55421127011E+02  0.00000000000E+00 0.  1.
        -11    1    4    4    0    0  0.10719627657E+02  0.26842806931E+02 -0.67569543557E+02  0.73492107859E+02  0.00000000000E+00 0. -1.
         11    1    4    4    0    0  0.17702243543E+03 -0.75340024975E+01 -0.24811959005E+03  0.30488856129E+03  0.00000000000E+00 0.  1.
         21    1    1    2  503  501  0.26068013834E+02  0.57980924057E+01  0.83687687161E+02  0.87845251455E+02  0.00000000000E+00 0. -1.
          2    1    1    2  501    0 -0.69457122291E+02 -0.12572160141E+01  0.40146226626E+02  0.80234605635E+02  0.00000000000E+00 0. -1.
<scales pt_clust_5="13000.00000" pt_clust_6="13000.00000" pt_clust_7="13000.00000" pt_clust_8="13000.00000" pt_clust_9="26.70504" pt_clust_10="13000.00000"></scales>
<clustering>
<clus scale="   26.705">  1  9  2 -1</clus>
<clus scale="   88.839">  7  8 -1 -1</clus>
<clus scale="   58.280">  7 10 -1 -1</clus>
<clus scale="   91.771">  5  6 -1 -1</clus>
<clus scale="  164.942">  2  5  1 -1</clus>
<clus scale="   26.705">  1  5  2 -1</clus>
</clustering>
</event>
<event>
10    2  0.5921424E-006  0.1570399E+03  0.7546771E-02  0.1213332E+00
         21   -1    0    0  501  502  0.00000000000E+00  0.00000000000E+00  0.18586420734E+03  0.18586420734E+03  0.00000000000E+00 0.  1.
         -2   -1    0    0    0  501 -0.00000000000E+00 -0.00000000000E+00 -0.20530284008E+03  0.20530284008E+03  0.00000000000E+00 0.  1.
         23    2    1    2    0    0  0.27101209253E+02  0.96009367699E+01  0.18144386508E+01  0.94954716401E+02  0.90479016625E+02 0.  0.
         23    2    1    2    0    0 -0.70656958737E+02 -0.44081622298E+02 -0.79765540946E+02  0.14896348893E+03  0.94297318461E+02 0.  0.
        -11    1    4    4    0    0  0.18395805233E+02  0.98248415366E+01 -0.71729323845E+01  0.22054117991E+02  0.00000000000E+00 0. -1.
         11    1    4    4    0    0 -0.89052763970E+02 -0.53906463834E+02 -0.72592608562E+02  0.12690937094E+03  0.00000000000E+00 0.  1.
        -11    1    3    3    0    0 -0.94910727128E+01  0.39928235583E+02  0.17907886353E+02  0.44777637852E+02  0.00000000000E+00 0.  1.
         11    1    3    3    0    0  0.36592281966E+02 -0.30327298813E+02 -0.16093447702E+02  0.50177078549E+02  0.00000000000E+00 0. -1.
         21    1    1    2  503  502  0.16692846415E+02  0.16445002259E+02  0.95368624588E+02  0.98205212574E+02  0.00000000000E+00 0.  1.
         -2    1    1    2    0  503  0.26862903069E+02  0.18035683269E+02 -0.36856155031E+02  0.49043629514E+02  0.00000000000E+00 0.  1.
<scales pt_clust_5="13000.00000" pt_clust_6="13000.00000" pt_clust_7="13000.00000" pt_clust_8="13000.00000" pt_clust_9="23.43265" pt_clust_10="13000.00000"></scales>
<clustering>
<clus scale="   23.433">  1  9  2 -1</clus>
<clus scale="   90.479">  7  8 -1 -1</clus>
<clus scale="   94.297">  5  6 -1 -1</clus>
<clus scale="   33.932">  5 10 -1 -1</clus>
<clus scale="   99.187">  2  7  1 -1</clus>
<clus scale="   23.433">  1  5  2 -1</clus>
</clustering>
</event>
<event>
10    2  0.5921424E-006  0.6226720E+03  0.7546771E-02  0.9958909E-01
         21   -1    0    0  503  502  0.00000000000E+00  0.00000000000E+00  0.28770412040E+03  0.28770412040E+03  0.00000000000E+00 0. -1.
          2   -1    0    0  502    0 -0.00000000000E+00 -0.00000000000E+00 -0.15194145151E+04  0.15194145151E+04  0.00000000000E+00 0. -1.
         23    2    1    2    0    0 -0.30553213281E+03 -0.32391158461E+03 -0.24483599773E+03  0.51723834004E+03  0.96551726012E+02 0.  0.
         23    2    1    2    0    0 -0.72173978882E+02 -0.15256609607E+02 -0.25680979626E+03  0.28202329270E+03  0.90244217585E+02 0.  0.
        -11    1    4    4    0    0 -0.76036227525E+02 -0.35593064604E+02 -0.13882753778E+03  0.16223889604E+03  0.00000000000E+00 0. -1.
         11    1    4    4    0    0  0.38622486430E+01  0.20336454997E+02 -0.11798225848E+03  0.11978439666E+03  0.00000000000E+00 0.  1.
        -13    1    3    3    0    0 -0.12025955325E+03 -0.65790676869E+02 -0.59798646700E+02  0.14955484432E+03  0.00000000000E+00 0.  1.
         13    1    3    3    0    0 -0.18527257956E+03 -0.25812090774E+03 -0.18503735103E+03  0.36768349572E+03  0.00000000000E+00 0. -1.
         21    1    1    2  503  501  0.18209926731E+02 -0.95564487892E+01  0.65007934161E+02  0.68183272501E+02  0.00000000000E+00 0. -1.
          2    1    1    2  501    0  0.35949618496E+03  0.34872464301E+03 -0.79507253487E+03  0.93967373026E+03  0.00000000000E+00 0. -1.
<scales pt_clust_5="13000.00000" pt_clust_6="13000.00000" pt_clust_7="13000.00000" pt_clust_8="13000.00000" pt_clust_9="20.56519" pt_clust_10="13000.00000"></scales>
<clustering>
<clus scale="   20.565">  1  9  2 -1</clus>
<clus scale="   90.244">  5  6 -1 -1</clus>
<clus scale="   96.552">  7  8 -1 -1</clus>
<clus scale="  452.450">  2  7  1 -1</clus>
<clus scale="  168.025">  5 10 -1 -1</clus>
<clus scale="   20.565">  1  5  2 -1</clus>
</clustering>
</event>
<event>
10    2  0.5921424E-006  0.2903280E+03  0.7546771E-02  0.1096187E+00
          1   -1    0    0  502    0 -0.00000000000E+00  0.00000000000E+00  0.67931333914E+03  0.67931333914E+03  0.00000000000E+00 0. -1.
         21   -1    0    0  503  502  0.00000000000E+00 -0.00000000000E+00 -0.16789290392E+03  0.16789290392E+03  0.00000000000E+00 0. -1.
         23    2    1    2    0    0 -0.32537493552E+02 -0.21523101607E+03  0.54492820769E+02  0.24298456901E+03  0.93214561611E+02 0.  0.
         23    2    1    2    0    0  0.33458813067E+02  0.94381395822E+02  0.35092141631E+03  0.37612266544E+03  0.91077324222E+02 0.  0.
        -11    1    4    4    0    0  0.13736944056E+02 -0.16775556250E+02  0.42970861939E+02  0.48131256947E+02  0.00000000000E+00 0.  1.
         11    1    4    4    0    0  0.19721869011E+02  0.11115695207E+03  0.30795055437E+03  0.32799140849E+03  0.00000000000E+00 0. -1.
        -11    1    3    3    0    0 -0.46099141984E+02 -0.11515163557E+03 -0.78733561125E+01  0.12428604025E+03  0.00000000000E+00 0. -1.
         11    1    3    3    0    0  0.13561648432E+02 -0.10007938050E+03  0.62366176882E+02  0.11869852875E+03  0.00000000000E+00 0.  1.
         21    1    1    2  503  501 -0.12897503167E+02 -0.15393011502E+02 -0.29423737849E+02  0.35623682292E+02  0.00000000000E+00 0.  1.
          1    1    1    2  501    0  0.11976183652E+02  0.13624263175E+03  0.13542993599E+03  0.19247532632E+03  0.00000000000E+00 0. -1.
<scales pt_clust_5="13000.00000" pt_clust_6="13000.00000" pt_clust_7="13000.00000" pt_clust_8="13000.00000" pt_clust_9="20.08209" pt_clust_10="13000.00000"></scales>
<clustering>
<clus scale="   20.082">  2  9  1 -1</clus>
<clus scale="   91.077">  5  6 -1 -1</clus>
<clus scale="   93.215">  7  8 -1 -1</clus>
<clus scale="  133.321">  5 10 -1 -1</clus>
<clus scale="  247.922">  1  7  2 -1</clus>
<clus scale="   20.082">  2  5  1 -1</clus>
</clustering>
</event>
<event>
10    2  0.5921424E-006  0.6254842E+03  0.7546771E-02  0.1029963E+00
          1   -1    0    0  503    0 -0.00000000000E+00  0.00000000000E+00  0.10580765403E+04  0.10580765403E+04  0.00000000000E+00 0. -1.
         21   -1    0    0  501  502  0.00000000000E+00 -0.00000000000E+00 -0.30507571145E+03  0.30507571145E+03  0.00000000000E+00 0. -1.
         23    2    1    2    0    0 -0.13271189868E+02  0.12429983558E+03  0.52440409537E+03  0.54707080213E+03  0.93060376620E+02 0.  0.
         23    2    1    2    0    0 -0.26211225580E+03 -0.16233351380E+03  0.22121810047E+03  0.39018130589E+03  0.90824000951E+02 0.  0.
        -13    1    4    4    0    0 -0.53758988345E+02 -0.19609372069E+02  0.45127780724E+01  0.57401406488E+02  0.00000000000E+00 0.  1.
         13    1    4    4    0    0 -0.20835326746E+03 -0.14272414173E+03  0.21670532240E+03  0.33277989940E+03  0.00000000000E+00 0. -1.
        -13    1    3    3    0    0 -0.20535411019E+02  0.10500513157E+02  0.21950279115E+02  0.31839890633E+02  0.00000000000E+00 0.  1.
         13    1    3    3    0    0  0.72642211513E+01  0.11379932242E+03  0.50245381626E+03  0.51523091150E+03  0.00000000000E+00 0. -1.
         21    1    1    2  503  502 -0.25926247460E+02  0.17758546903E+02 -0.10043834284E+03  0.10523971213E+03  0.00000000000E+00 0. -1.
          1    1    1    2  501    0  0.30130969313E+03  0.20275131316E+02  0.10781697587E+03  0.32066043162E+03  0.00000000000E+00 0. -1.
<scales pt_clust_5="13000.00000" pt_clust_6="13000.00000" pt_clust_7="13000.00000" pt_clust_8="13000.00000" pt_clust_9="31.42509" pt_clust_10="13000.00000"></scales>
<clustering>
<clus scale="   31.425">  2  9  1 -1</clus>
<clus scale="   90.824">  5  6 -1 -1</clus>
<clus scale="   93.060">  7  8 -1 -1</clus>
<clus scale="  156.767">  1  7  2 -1</clus>
<clus scale="  292.545">  5 10 -1 -1</clus>
<clus scale="   31.425">  2  5  1 -1</clus>
</clustering>
</event>
<event>
10    2  0.5921424E-006  0.1526858E+03  0.7546771E-02  0.1218475E+00
          1   -1    0    0  503    0 -0.00000000000E+00  0.00000000000E+00  0.57196075661E+02  0.57196075661E+02  0.00000000000E+00 0. -1.
         21   -1    0    0  501  502  0.00000000000E+00 -0.00000000000E+00 -0.46476101004E+03  0.46476101004E+03  0.00000000000E+00 0. -1.
         23    2    1    2    0    0 -0.14931474350E+00  0.26993397389E+02 -0.13590197524E+03  0.16555228687E+03  0.90606550625E+02 0.  0.
         23    2    1    2    0    0  0.46334694026E+02 -0.13421349302E+02 -0.28575829238E+02  0.10441726566E+03  0.88087177637E+02 0.  0.
        -11    1    3    3    0    0  0.42193505906E+01 -0.33547846775E+02 -0.50675525916E+02  0.60920192625E+02  0.00000000000E+00 0.  1.
         11    1    3    3    0    0 -0.43686653341E+01  0.60541244163E+02 -0.85226449325E+02  0.10463209425E+03  0.00000000000E+00 0. -1.
        -13    1    4    4    0    0  0.42539931523E+02 -0.47543654655E+02 -0.29007346781E+02  0.70081888097E+02  0.00000000000E+00 0. -1.
         13    1    4    4    0    0  0.37947625031E+01  0.34122305354E+02  0.43151754309E+00  0.34335377564E+02  0.00000000000E+00 0.  1.
         21    1    1    2  503  502 -0.22395427094E+02  0.98813443072E+01 -0.16839625089E+03  0.17016607604E+03  0.00000000000E+00 0.  1.
          1    1    1    2  501    0 -0.23789952188E+02 -0.23453392394E+02 -0.74690879011E+02  0.81821457133E+02  0.00000000000E+00 0. -1.
<scales pt_clust_5="13000.00000" pt_clust_6="13000.00000" pt_clust_7="13000.00000" pt_clust_8="13000.00000" pt_clust_9="24.47848" pt_clust_10="13000.00000"></scales>
<clustering>
<clus scale="   24.478">  2  9  1 -1</clus>
<clus scale="   88.087">  7  8 -1 -1</clus>
<clus scale="   36.298">  7 10 -1 -1</clus>
<clus scale="   90.607">  5  6 -1 -1</clus>
<clus scale="   96.797">  1  5  2 -1</clus>
<clus scale="   24.478">  2  5  1 -1</clus>
</clustering>
</event>
<event>
10    2  0.5921424E-006  0.2538210E+03  0.7546771E-02  0.1150711E+00
         21   -1    0    0  501  502  0.00000000000E+00  0.00000000000E+00  0.18240917098E+03  0.18240917098E+03  0.00000000000E+00 0. -1.
          1   -1    0    0  503    0 -0.00000000000E+00 -0.00000000000E+00 -0.39508461715E+03  0.39508461715E+03  0.00000000000E+00 0. -1.
         23    2    1    2    0    0 -0.30513077325E+02  0.30102361099E+00 -0.12064769762E+03  0.15394373945E+03  0.90618262358E+02 0.  0.
         23    2    1    2    0    0 -0.24254627941E+02  0.98549508749E+02 -0.15144026210E+03  0.20422250600E+03  0.92045566554E+02 0.  0.
        -11    1    4    4    0    0  0.98968885606E+01  0.17996369180E+02  0.82508513637E+01  0.22133554958E+02  0.00000000000E+00 0.  1.
         11    1    4    4    0    0 -0.34151516501E+02  0.80553139569E+02 -0.15969111346E+03  0.18208895104E+03  0.00000000000E+00 0. -1.
        -13    1    3    3    0    0 -0.49341710630E+02 -0.16777406539E+02 -0.11723291168E+03  0.12829513381E+03  0.00000000000E+00 0. -1.
         13    1    3    3    0    0  0.18828633306E+02  0.17078430150E+02 -0.34147859419E+01  0.25648605646E+02  0.00000000000E+00 0.  1.
         21    1    1    2  503  502  0.98008657369E+02 -0.11845931928E+03  0.15279963433E+02  0.15450496602E+03  0.00000000000E+00 0. -1.
          1    1    1    2  501    0 -0.43240952103E+02  0.19608786922E+02  0.44132550117E+02  0.64822576647E+02  0.00000000000E+00 0. -1.
<scales pt_clust_5="13000.00000" pt_clust_6="13000.00000" pt_clust_7="13000.00000" pt_clust_8="13000.00000" pt_clust_9="148.56592" pt_clust_10="13000.00000"></scales>
<clustering>
<clus scale="   90.618">  7  8 -1 -1</clus>
<clus scale="   92.046">  5  6 -1 -1</clus>
<clus scale="   47.479">  5 10 -1 -1</clus>
<clus scale="   95.618">  2  7  1 -1</clus>
<clus scale="  148.566">  1  9  2 -1</clus>
<clus scale="  148.566">  1  5  2 -1</clus>
</clustering>
</event>
<event>
10    2  0.5921424E-006  0.1709617E+03  0.7546771E-02  0.1189544E+00
         -3   -1    0    0    0  501 -0.00000000000E+00  0.00000000000E+00  0.34291916315E+03  0.34291916315E+03  0.00000000000E+00 0.  1.
         21   -1    0    0  503  502  0.00000000000E+00 -0.00000000000E+00 -0.43826701765E+03  0.43826701765E+03  0.00000000000E+00 0. -1.
         23    2    1    2    0    0  0.35634757791E+02  0.11281008650E+03  0.22020955944E+02  0.15719738541E+03  0.10114417384E+03 0.  0.
         23    2    1    2    0    0  0.28512647025E+02 -0.60458563916E+02  0.19503432919E+03  0.22491674676E+03  0.89894073325E+02 0.  0.
        -13    1    4    4    0    0 -0.18562438024E+02 -0.59456930207E+02  0.86345559034E+02  0.10646711333E+03  0.00000000000E+00 0.  1.
         13    1    4    4    0    0  0.47075085049E+02 -0.10016337092E+01  0.10868877016E+03  0.11844963343E+03  0.00000000000E+00 0. -1.
        -13    1    3    3    0    0  0.56161333085E+02  0.20995589163E+02  0.19618687930E+02  0.63085679946E+02  0.00000000000E+00 0. -1.
         13    1    3    3    0    0 -0.20526575294E+02  0.91814497332E+02  0.24022680135E+01  0.94111705463E+02  0.00000000000E+00 0.  1.
         21    1    1    2  503  501 -0.10895185437E+03 -0.63380291790E+02 -0.32718151537E+03  0.35062132273E+03  0.00000000000E+00 0. -1.
         -3    1    1    2    0  502  0.44804449553E+02  0.11028769212E+02  0.14778375733E+02  0.48450725891E+02  0.00000000000E+00 0.  1.
<scales pt_clust_5="13000.00000" pt_clust_6="13000.00000" pt_clust_7="13000.00000" pt_clust_8="13000.00000" pt_clust_9="126.04590" pt_clust_10="13000.00000"></scales>
<clustering>
<clus scale="   89.894">  5  6 -1 -1</clus>
<clus scale="   46.142">  5 10 -1 -1</clus>
<clus scale="  101.144">  7  8 -1 -1</clus>
<clus scale="  126.046">  2  9  1 -1</clus>
<clus scale="  128.718">  1  7  2 -1</clus>
<clus scale="  126.046">  2  5  1 -1</clus>
</clustering>
</event>
<event>
10    2  0.5921424E-006  0.2243363E+03  0.7546771E-02  0.1161311E+00
         -3   -1    0    0    0  501 -0.00000000000E+00  0.00000000000E+00  0.34850588635E+03  0.34850588635E+03  0.00000000000E+00 0.  1.
         21   -1    0    0  503  502  0.00000000000E+00 -0.00000000000E+00 -0.78218266020E+03  0.78218266020E+03  0.00000000000E+00 0.  1.
         23    2    1    2    0    0 -0.20942935124E+02  0.71041105544E+02  0.10767895598E+03  0.15252155557E+03  0.78629651813E+02 0.  0.
         23    2    1    2    0    0  0.53679306644E+02 -0.11280948663E+03  0.16482047933E+03  0.22615443441E+03  0.91501855510E+02 0.  0.
        -11    1    3    3    0    0  0.20036861672E+02  0.63193956537E+02  0.66152475805E+02  0.93654161806E+02  0.00000000000E+00 0.  1.
         11    1    3    3    0    0 -0.40979796795E+02  0.78471490069E+01  0.41526480177E+02  0.58867393766E+02  0.00000000000E+00 0. -1.
        -11    1    4    4    0    0 -0.22184318961E+02 -0.40587379636E+02  0.75278914127E+02  0.88353801874E+02  0.00000000000E+00 0.  1.
         11    1    4    4    0    0  0.75863625605E+02 -0.72222106992E+02  0.89541565200E+02  0.13780063253E+03  0.00000000000E+00 0. -1.
         21    1    1    2  503  501 -0.60692274298E+02  0.97221742636E+02 -0.67084300830E+03  0.68056297371E+03  0.00000000000E+00 0.  1.
         -3    1    1    2    0  502  0.27955902778E+02 -0.55453361552E+02 -0.35333200866E+02  0.71449582861E+02  0.00000000000E+00 0.  1.
<scales pt_clust_5="13000.00000" pt_clust_6="13000.00000" pt_clust_7="13000.00000" pt_clust_8="13000.00000" pt_clust_9="116.19932" pt_clust_10="13000.00000"></scales>
<clustering>
<clus scale="   78.630">  5  6 -1 -1</clus>
<clus scale="   91.502">  7  8 -1 -1</clus>
<clus scale="   62.102">  7 10 -1 -1</clus>
<clus scale="  108.019">  1  5  2 -1</clus>
<clus scale="  116.199">  2  9  1 -1</clus>
<clus scale="  116.199">  2  5  1 -1</clus>
</clustering>
</event>
<event>
10    2  0.5921424E-006  0.2479805E+03  0.7546771E-02  0.1118587E+00
         -2   -1    0    0    0  501 -0.00000000000E+00  0.00000000000E+00  0.62386353413E+02  0.62386353413E+02  0.00000000000E+00 0.  1.
         21   -1    0    0  503  502  0.00000000000E+00 -0.00000000000E+00 -0.19308744530E+04  0.19308744530E+04  0.00000000000E+00 0.  1.
         23    2    1    2    0    0  0.16906113342E+03 -0.94989588765E+02 -0.79288675172E+03  0.82130926493E+03  0.90966031039E+02 0.  0.
         23    2    1    2    0    0 -0.11087519776E+03  0.15329801987E+03 -0.21798416941E+03  0.30484471917E+03  0.98079622353E+02 0.  0.
        -13    1    3    3    0    0  0.20911747569E+02  0.17035995637E+02 -0.72219090679E+02  0.77091655788E+02  0.00000000000E+00 0. -1.
         13    1    3    3    0    0  0.14814938585E+03 -0.11202558440E+03 -0.72066766104E+03  0.74421760914E+03  0.00000000000E+00 0.  1.
        -13    1    4    4    0    0 -0.11920542104E+03  0.10090765752E+03 -0.13545929444E+03  0.20674019494E+03  0.00000000000E+00 0.  1.
         13    1    4    4    0    0  0.83302232851E+01  0.52390362356E+02 -0.82524874965E+02  0.98104524237E+02  0.00000000000E+00 0. -1.
         21    1    1    2  503  501 -0.45763579637E+02 -0.82772973779E+02 -0.75436853110E+03  0.76027465506E+03  0.00000000000E+00 0.  1.
         -2    1    1    2    0  502 -0.12422356027E+02  0.24464542672E+02 -0.10324864735E+03  0.10683216724E+03  0.00000000000E+00 0.  1.
<scales pt_clust_5="13000.00000" pt_clust_6="13000.00000" pt_clust_7="13000.00000" pt_clust_8="13000.00000" pt_clust_9="94.58155" pt_clust_10="13000.00000"></scales>
<clustering>
<clus scale="   90.966">  5  6 -1 -1</clus>
<clus scale="   94.582">  2  9  1 -1</clus>
<clus scale="   98.080">  7  8 -1 -1</clus>
<clus scale="   23.744">  7 10 -1 -1</clus>
<clus scale="  224.240">  1  5  2 -1</clus>
<clus scale="   94.582">  2  5  1 -1</clus>
</clustering>
</event>
<event>
10    2  0.5921424E-006  0.1625660E+03  0.7546771E-02  0.1208304E+00
         21   -1    0    0  501  502  0.00000000000E+00  0.00000000000E+00  0.28701133378E+03  0.28701133378E+03  0.00000000000E+00 0. -1.
          1   -1    0    0  503    0 -0.00000000000E+00 -0.00000000000E+00 -0.29186024597E+03  0.29186024597E+03  0.00000000000E+00 0. -1.
         23    2    1    2    0    0  0.40739429686E+02 -0.39259669881E+02 -0.76920804139E+02  0.13410325481E+03  0.94158642889E+02 0.  0.
         23    2    1    2    0    0  0.48108927244E+02 -0.11696316156E+02 -0.91074043007E+02  0.13893410362E+03  0.92503681798E+02 0.  0.
        -11    1    3    3    0    0 -0.25624727254E+02 -0.34240656431E+02 -0.36584468133E+02  0.56280303022E+02  0.00000000000E+00 0.  1.
         11    1    3    3    0    0  0.66364156941E+02 -0.50190134497E+01 -0.40336336006E+02  0.77822951787E+02  0.00000000000E+00 0. -1.
        -11    1    4    4    0    0  0.75959327600E+01  0.34862207421E+02 -0.10024692177E+02  0.37061653417E+02  0.00000000000E+00 0.  1.
         11    1    4    4    0    0  0.40512994484E+02 -0.46558523577E+02 -0.81049350830E+02  0.10187245020E+03  0.00000000000E+00 0. -1.
         21    1    1    2  503  502 -0.35627790094E+02  0.40853638325E+02  0.22042746097E+03  0.22699476810E+03  0.00000000000E+00 0. -1.
          1    1    1    2  501    0 -0.53220566837E+02  0.10102347712E+02 -0.57281526015E+02  0.78839453235E+02  0.00000000000E+00 0. -1.
<scales pt_clust_5="13000.00000" pt_clust_6="13000.00000" pt_clust_7="13000.00000" pt_clust_8="13000.00000" pt_clust_9="54.20663" pt_clust_10="13000.00000"></scales>
<clustering>
<clus scale="   54.207">  1  9  2 -1</clus>
<clus scale="   92.504">  7  8 -1 -1</clus>
<clus scale="   61.693">  7 10 -1 -1</clus>
<clus scale="   94.159">  5  6 -1 -1</clus>
<clus scale="   99.530">  2  5  1 -1</clus>
<clus scale="   54.207">  1  5  2 -1</clus>
</clustering>
</event>
<event>
10    2  0.5921424E-006  0.8787445E+03  0.7546771E-02  0.9910254E-01
         21   -1    0    0  501  502  0.00000000000E+00  0.00000000000E+00  0.50174708764E+03  0.50174708764E+03  0.00000000000E+00 0. -1.
          1   -1    0    0  503    0 -0.00000000000E+00 -0.00000000000E+00 -0.77989060376E+03  0.77989060376E+03  0.00000000000E+00 0. -1.
         23    2    1    2    0    0  0.91538675635E+02  0.12122861922E+03  0.14861889383E+03  0.23033894714E+03  0.88841137483E+02 0.  0.
         23    2    1    2    0    0 -0.23525273947E+03 -0.28008565706E+03 -0.62768447335E+03  0.73230741715E+03  0.92165765944E+02 0.  0.
        -11    1    4    4    0    0 -0.34696774546E+02 -0.36999572461E+01 -0.73463182040E+02  0.81328930665E+02  0.00000000000E+00 0.  1.
         11    1    4    4    0    0 -0.20055596493E+03 -0.27638569982E+03 -0.55422129131E+03  0.65097848649E+03  0.00000000000E+00 0. -1.
        -11    1    3    3    0    0  0.42633323798E+02  0.53439358081E+02  0.12663253913E+03  0.14390679365E+03  0.00000000000E+00 0.  1.
         11    1    3    3    0    0  0.48905351837E+02  0.67789261138E+02  0.21986354698E+02  0.86432153490E+02  0.00000000000E+00 0. -1.
         21    1    1    2  503  502  0.57011743107E+02 -0.45483639730E+01  0.20961899656E+02  0.60913280195E+02  0.00000000000E+00 0. -1.
          1    1    1    2  501    0  0.86702320732E+02  0.16340540182E+03  0.17996016374E+03  0.25807804691E+03  0.00000000000E+00 0. -1.
<scales pt_clust_5="13000.00000" pt_clust_6="13000.00000" pt_clust_7="13000.00000" pt_clust_8="13000.00000" pt_clust_9="57.19289" pt_clust_10="13000.00000"></scales>
<clustering>
<clus scale="   57.193">  1  9  2 -1</clus>
<clus scale="   88.841">  7  8 -1 -1</clus>
<clus scale="   92.166">  5  6 -1 -1</clus>
<clus scale="  188.042">  2  7  1 -1</clus>
<clus scale="  210.014">  5 10 -1 -1</clus>
<clus scale="   57.193">  1  5  2 -1</clus>
</clustering>
</event>
<event>
10    2  0.5921424E-006  0.2108195E+03  0.7546771E-02  0.1148090E+00
          2   -1    0    0  502    0 -0.00000000000E+00  0.00000000000E+00  0.84451470362E+03  0.84451470362E+03  0.00000000000E+00 0. -1.
         21   -1    0    0  503  502  0.00000000000E+00 -0.00000000000E+00 -0.75652114451E+03  0.75652114451E+03  0.00000000000E+00 0. -1.
         23    2    1    2    0    0  0.54290112350E+02 -0.12891092446E+03  0.60882648689E+03  0.63185444142E+03  0.94894158209E+02 0.  0.
         23    2    1    2    0    0  0.14370682355E+02  0.11715407850E+03  0.58507127640E+02  0.16395333760E+03  0.97601323280E+02 0.  0.
        -11    1    4    4    0    0 -0.32105282364E+02  0.93266284037E+02  0.51370367665E+02  0.11121269517E+03  0.00000000000E+00 0.  1.
         11    1    4    4    0    0  0.46475964720E+02  0.23887794463E+02  0.71367599746E+01  0.52740642429E+02  0.00000000000E+00 0. -1.
        -13    1    3    3    0    0  0.36611147627E+02 -0.14043520714E+03  0.56295946382E+03  0.58136544569E+03  0.00000000000E+00 0. -1.
         13    1    3    3    0    0  0.17678964724E+02  0.11524282680E+02  0.45867023064E+02  0.50488995729E+02  0.00000000000E+00 0.  1.
         21    1    1    2  503  501 -0.27761829298E+02 -0.10653013678E+03 -0.65151504235E+03  0.66075051239E+03  0.00000000000E+00 0. -1.
          2    1    1    2  501    0 -0.40898965407E+02  0.11828698274E+03  0.72174986933E+02  0.14447755672E+03  0.00000000000E+00 0. -1.
<scales pt_clust_5="13000.00000" pt_clust_6="13000.00000" pt_clust_7="13000.00000" pt_clust_8="13000.00000" pt_clust_9="110.08810" pt_clust_10="13000.00000"></scales>
<clustering>
<clus scale="   94.894">  7  8 -1 -1</clus>
<clus scale="   97.601">  5  6 -1 -1</clus>
<clus scale="  110.088">  2  9  1 -1</clus>
<clus scale="   94.754">  5 10 -1 -1</clus>
<clus scale="  177.579">  1  7  2 -1</clus>
<clus scale="  110.088">  2  5  1 -1</clus>
</clustering>
</event>
<event>
10    2  0.5921424E-006  0.2516942E+03  0.7546771E-02  0.1113684E+00
         21   -1    0    0  501  502  0.00000000000E+00  0.00000000000E+00  0.66378662049E+02  0.66378662049E+02  0.00000000000E+00 0. -1.
          2   -1    0    0  503    0 -0.00000000000E+00 -0.00000000000E+00 -0.10859213366E+04  0.10859213366E+04  0.00000000000E+00 0. -1.
         23    2    1    2    0    0 -0.23487047304E+03  0.14153948234E+02 -0.59097746040E+03  0.64249517075E+03  0.90450054605E+02 0.  0.
         23    2    1    2    0    0  0.14468809056E+03 -0.68642831765E+01 -0.25845517132E+03  0.30977159444E+03  0.90430101217E+02 0.  0.
        -11    1    4    4    0    0  0.48328063903E+02 -0.46023543926E+02 -0.10278020434E+03  0.12254606791E+03  0.00000000000E+00 0.  1.
         11    1    4    4    0    0  0.96360026659E+02  0.39159260750E+02 -0.15567496698E+03  0.18722552653E+03  0.00000000000E+00 0. -1.
        -13    1    3    3    0    0 -0.17269425505E+03  0.50583437124E+02 -0.41506028446E+03  0.45239035089E+03  0.00000000000E+00 0. -1.
         13    1    3    3    0    0 -0.62176217987E+02 -0.36429488891E+02 -0.17591717594E+03  0.19010481986E+03  0.00000000000E+00 0.  1.
         21    1    1    2  503  502  0.25106707725E+02 -0.75469903616E+01 -0.10405531948E+03  0.10730709831E+03  0.00000000000E+00 0. -1.
          2    1    1    2  501    0  0.65075674753E+02  0.25732530441E+00 -0.66054723325E+02  0.92726135121E+02  0.00000000000E+00 0. -1.
<scales pt_clust_5="13000.00000" pt_clust_6="13000.00000" pt_clust_7="13000.00000" pt_clust_8="13000.00000" pt_clust_9="26.21649" pt_clust_10="13000.00000"></scales>
<clustering>
<clus scale="   26.216">  1  9  2 -1</clus>
<clus scale="   90.430">  5  6 -1 -1</clus>
<clus scale="   70.258">  5 10 -1 -1</clus>
<clus scale="   90.450">  7  8 -1 -1</clus>
<clus scale="  242.648">  2  7  1 -1</clus>
<clus scale="   26.216">  1  5  2 -1</clus>
</clustering>
</event>
<event>
10    2  0.5921424E-006  0.3692512E+03  0.7546771E-02  0.1076206E+00
         21   -1    0    0  503  502  0.00000000000E+00  0.00000000000E+00  0.53379453930E+03  0.53379453930E+03  0.00000000000E+00 0. -1.
          1   -1    0    0  502    0 -0.00000000000E+00 -0.00000000000E+00 -0.20642215193E+03  0.20642215193E+03  0.00000000000E+00 0. -1.
         23    2    1    2    0    0  0.16089123028E+03 -0.79660760220E+02  0.13527277077E+03  0.24637014519E+03  0.10083501984E+03 0.  0.
         23    2    1    2    0    0  0.53618714480E+02  0.61700968981E+02 -0.21371777268E+02  0.12482618704E+03  0.91884971528E+02 0.  0.
        -11    1    4    4    0    0  0.57881870883E+02 -0.25327453444E+01 -0.36289421660E+01  0.58050796697E+02  0.00000000000E+00 0. -1.
         11    1    4    4    0    0 -0.42631564031E+01  0.64233714326E+02 -0.17742835102E+02  0.66775390348E+02  0.00000000000E+00 0.  1.
        -11    1    3    3    0    0  0.28537907348E+02  0.15905669764E+02  0.56135199282E+02  0.64950466395E+02  0.00000000000E+00 0.  1.
         11    1    3    3    0    0  0.13235332293E+03 -0.95566429984E+02  0.79137571490E+02  0.18141967879E+03  0.00000000000E+00 0. -1.
         21    1    1    2  503  501  0.15516504679E+02  0.41175376329E+02  0.10459057628E+03  0.11346965312E+03  0.00000000000E+00 0.  1.
          1    1    1    2  501    0 -0.23002644944E+03 -0.23215585091E+02  0.10888081759E+03  0.25555070587E+03  0.00000000000E+00 0. -1.
<scales pt_clust_5="13000.00000" pt_clust_6="13000.00000" pt_clust_7="13000.00000" pt_clust_8="13000.00000" pt_clust_9="44.00197" pt_clust_10="13000.00000"></scales>
<clustering>
<clus scale="   44.002">  1  9  2 -1</clus>
<clus scale="   91.885">  5  6 -1 -1</clus>
<clus scale="  100.835">  7  8 -1 -1</clus>
<clus scale="  205.149">  2  7  1 -1</clus>
<clus scale="  148.508">  5 10 -1 -1</clus>
<clus scale="   44.002">  1  5  2 -1</clus>
</clustering>
</event>
<event>
10    2  0.5921424E-006  0.1768115E+03  0.7546771E-02  0.1200578E+00
          2   -1    0    0  503    0 -0.00000000000E+00  0.00000000000E+00  0.59915033713E+02  0.59915033713E+02  0.00000000000E+00 0. -1.
         21   -1    0    0  501  502  0.00000000000E+00 -0.00000000000E+00 -0.48424491956E+03  0.48424491956E+03  0.00000000000E+00 0. -1.
         23    2    1    2    0    0 -0.78925330209E+00  0.34336643248E+01 -0.17074162045E+03  0.19302617456E+03  0.89966605691E+02 0.  0.
         23    2    1    2    0    0  0.69639241186E+02 -0.24709674180E+02 -0.40461541430E+02  0.12349571115E+03  0.90298739892E+02 0.  0.
        -11    1    4    4    0    0  0.86216778904E+02 -0.78357163059E+01 -0.13483385616E+02  0.87615826780E+02  0.00000000000E+00 0. -1.
         11    1    4    4    0    0 -0.16577537719E+02 -0.16873957874E+02 -0.26978155814E+02  0.35879884368E+02  0.00000000000E+00 0.  1.
        -11    1    3    3    0    0  0.32031736207E+02 -0.29495370278E+02 -0.82652865527E+02  0.93421117378E+02  0.00000000000E+00 0.  1.
         11    1    3    3    0    0 -0.32820989509E+02  0.32929034602E+02 -0.88088754924E+02  0.99605057183E+02  0.00000000000E+00 0. -1.
         21    1    1    2  503  502 -0.26562260223E+02  0.60121635839E+01 -0.13300521844E+03  0.13576482575E+03  0.00000000000E+00 0. -1.
          2    1    1    2  501    0 -0.42287727661E+02  0.15263846271E+02 -0.80121505529E+02  0.91873241817E+02  0.00000000000E+00 0. -1.
<scales pt_clust_5="13000.00000" pt_clust_6="13000.00000" pt_clust_7="13000.00000" pt_clust_8="13000.00000" pt_clust_9="27.23417" pt_clust_10="13000.00000"></scales>
<clustering>
<clus scale="   27.234">  2  9  1 -1</clus>
<clus scale="   89.967">  7  8 -1 -1</clus>
<clus scale="   90.299">  5  6 -1 -1</clus>
<clus scale="   51.608">  5 10 -1 -1</clus>
<clus scale="   91.379">  1  7  2 -1</clus>
<clus scale="   27.234">  2  5  1 -1</clus>
</clustering>
</event>
<event>
10    2  0.5921424E-006  0.1346357E+03  0.7546771E-02  0.1239738E+00
          1   -1    0    0  502    0 -0.00000000000E+00  0.00000000000E+00  0.18473693895E+03  0.18473693895E+03  0.00000000000E+00 0. -1.
         21   -1    0    0  503  502  0.00000000000E+00 -0.00000000000E+00 -0.83956107662E+03  0.83956107662E+03  0.00000000000E+00 0.  1.
         23    2    1    2    0    0 -0.10254994861E+03 -0.61186931148E+01 -0.15369603244E+03  0.20359462916E+03  0.85289930640E+02 0.  0.
         23    2    1    2    0    0  0.17981882446E+02  0.91389031173E+01  0.12219708135E+03  0.15141235528E+03  0.87101704877E+02 0.  0.
        -13    1    3    3    0    0 -0.61612799400E+01  0.29821548499E+02 -0.39910549150E+02  0.50200976672E+02  0.00000000000E+00 0. -1.
         13    1    3    3    0    0 -0.96388668671E+02 -0.35940241613E+02 -0.11378548329E+03  0.15339365248E+03  0.00000000000E+00 0.  1.
        -13    1    4    4    0    0  0.43162847094E+02 -0.16586456330E+02  0.38029594502E+02  0.59869791722E+02  0.00000000000E+00 0.  1.
         13    1    4    4    0    0 -0.25180964648E+02  0.25725359447E+02  0.84167486852E+02  0.91542563555E+02  0.00000000000E+00 0. -1.
         21    1    1    2  503  501  0.10665812085E+03 -0.27364850911E+02 -0.62664963718E+03  0.63625038907E+03  0.00000000000E+00 0.  1.
          1    1    1    2  501    0 -0.22090054686E+02  0.24344640908E+02  0.33244505962E+01  0.33040642075E+02  0.00000000000E+00 0. -1.
<scales pt_clust_5="13000.00000" pt_clust_6="13000.00000" pt_clust_7="13000.00000" pt_clust_8="13000.00000" pt_clust_9="110.11262" pt_clust_10="13000.00000"></scales>
<clustering>
<clus scale="   85.290">  5  6 -1 -1</clus>
<clus scale="   87.102">  7  8 -1 -1</clus>
<clus scale="   32.873">  7 10 -1 -1</clus>
<clus scale="  110.113">  2  9  1 -1</clus>
<clus scale="   90.950">  1  5  2 -1</clus>
<clus scale="  110.113">  2  5  1 -1</clus>
</clustering>
</event>
<event>
10    2  0.5921424E-006  0.2096148E+03  0.7546771E-02  0.1158961E+00
          1   -1    0    0  502    0 -0.00000000000E+00  0.00000000000E+00  0.82126778190E+03  0.82126778190E+03  0.00000000000E+00 0. -1.
         21   -1    0    0  503  502  0.00000000000E+00 -0.00000000000E+00 -0.94537402439E+02  0.94537402439E+02  0.00000000000E+00 0.  1.
         23    2    1    2    0    0 -0.51987151677E+02  0.75117691209E+02  0.53320818718E+03  0.55044959264E+03  0.10167817707E+03 0.  0.
         23    2    1    2    0    0  0.36407944291E+02 -0.87805134261E+02  0.24662812512E+03  0.28451090501E+03  0.10528885487E+03 0.  0.
        -11    1    4    4    0    0  0.20667392795E+02 -0.10777994288E+03  0.15848473928E+03  0.19277206695E+03  0.00000000000E+00 0.  1.
         11    1    4    4    0    0  0.15740551496E+02  0.19974808620E+02  0.88143385839E+02  0.91738838057E+02  0.00000000000E+00 0. -1.
        -13    1    3    3    0    0 -0.12272741063E+02  0.88889344968E+02  0.28769878621E+03  0.30136776106E+03  0.00000000000E+00 0. -1.
         13    1    3    3    0    0 -0.39714410614E+02 -0.13771653759E+02  0.24550940097E+03  0.24908183158E+03  0.00000000000E+00 0.  1.
         21    1    1    2  503  501 -0.67778994027E+01  0.30618214920E+02 -0.34765264739E+02  0.46819212270E+02  0.00000000000E+00 0.  1.
          1    1    1    2  501    0  0.22357106788E+02 -0.17930771868E+02 -0.18340668092E+02  0.34025474424E+02  0.00000000000E+00 0. -1.
<scales pt_clust_5="13000.00000" pt_clust_6="13000.00000" pt_clust_7="13000.00000" pt_clust_8="13000.00000" pt_clust_9="31.35945" pt_clust_10="13000.00000"></scales>
<clustering>
<clus scale="   31.359">  2  9  1 -1</clus>
<clus scale="  101.678">  7  8 -1 -1</clus>
<clus scale="  105.289">  5  6 -1 -1</clus>
<clus scale="   19.292">  5 10 -1 -1</clus>
<clus scale="  139.857">  1  7  2 -1</clus>
<clus scale="   31.359">  2  5  1 -1</clus>
</clustering>
</event>
<event>
10    2  0.5921424E-006  0.1273560E+03  0.7546771E-02  0.1248598E+00
         21   -1    0    0  501  502  0.00000000000E+00  0.00000000000E+00  0.16690297416E+03  0.16690297416E+03  0.00000000000E+00 0.  1.
          2   -1    0    0  503    0 -0.00000000000E+00 -0.00000000000E+00 -0.58147162817E+03  0.58147162817E+03  0.00000000000E+00 0. -1.
         23    2    1    2    0    0 -0.41261421712E+02  0.53069182088E+01 -0.38944034864E+03  0.39947758297E+03  0.78663116153E+02 0.  0.
         23    2    1    2    0    0  0.18918943468E+02  0.32674659026E+02 -0.11437594795E+03  0.15238934354E+03  0.93354672029E+02 0.  0.
        -13    1    3    3    0    0  0.18615849921E+02  0.18003766942E+02 -0.81597346229E+02  0.85608483248E+02  0.00000000000E+00 0.  1.
         13    1    3    3    0    0 -0.59877271633E+02 -0.12696848734E+02 -0.30784300242E+03  0.31386909972E+03  0.00000000000E+00 0. -1.
        -13    1    4    4    0    0 -0.15473086619E+02 -0.22694306643E+02 -0.65166617916E+02  0.70718710778E+02  0.00000000000E+00 0. -1.
         13    1    4    4    0    0  0.34392030088E+02  0.55368965669E+02 -0.49209330036E+02  0.81670632760E+02  0.00000000000E+00 0.  1.
         21    1    1    2  503  502 -0.13410229917E+02 -0.56776132160E+02  0.12791558975E+03  0.14059075912E+03  0.00000000000E+00 0.  1.
          2    1    1    2  501    0  0.35752708160E+02  0.18794554925E+02 -0.38667947162E+02  0.55916916701E+02  0.00000000000E+00 0. -1.
<scales pt_clust_5="13000.00000" pt_clust_6="13000.00000" pt_clust_7="13000.00000" pt_clust_8="13000.00000" pt_clust_9="58.33835" pt_clust_10="13000.00000"></scales>
<clustering>
<clus scale="   58.338">  1  9  2 -1</clus>
<clus scale="   78.663">  5  6 -1 -1</clus>
<clus scale="   89.869">  2  5  1 -1</clus>
<clus scale="   93.355">  7  8 -1 -1</clus>
<clus scale="   23.433">  7 10 -1 -1</clus>
<clus scale="   58.338">  1  5  2 -1</clus>
</clustering>
</event>
<event>
10    2  0.5921424E-006  0.8912223E+03  0.7546771E-02  0.9651767E-01
         21   -1    0    0  503  502  0.00000000000E+00  0.00000000000E+00  0.75458588601E+03  0.75458588601E+03  0.00000000000E+00 0.  1.
          1   -1    0    0  502    0 -0.00000000000E+00 -0.00000000000E+00 -0.78222282602E+03  0.78222282602E+03  0.00000000000E+00 0. -1.
         23    2    1    2    0    0 -0.10194914570E+03 -0.39805948341E+03 -0.34370792989E+03  0.54385787300E+03  0.93815053747E+02 0.  0.
         23    2    1    2    0    0  0.16900928045E+03  0.56098246292E+03  0.40522716562E+03  0.71807401620E+03  0.90309337315E+02 0.  0.
        -11    1    3    3    0    0 -0.78811708849E+02 -0.12885301448E+03 -0.11453740358E+03  0.18956054867E+03  0.00000000000E+00 0.  1.
         11    1    3    3    0    0 -0.23137436851E+02 -0.26920646892E+03 -0.22917052631E+03  0.35429732433E+03  0.00000000000E+00 0. -1.
        -13    1    4    4    0    0  0.50977115885E+02  0.63757707088E+02  0.50612737783E+02  0.96048741705E+02  0.00000000000E+00 0. -1.
         13    1    4    4    0    0  0.11803216457E+03  0.49722475583E+03  0.35461442784E+03  0.62202527450E+03  0.00000000000E+00 0.  1.
         21    1    1    2  503  501  0.34271357045E+02 -0.18065989820E+02  0.40194845241E+02  0.55825903359E+02  0.00000000000E+00 0.  1.
          1    1    1    2  501    0 -0.10133149180E+03 -0.14485698969E+03 -0.12935102098E+03  0.21905091947E+03  0.00000000000E+00 0. -1.
<scales pt_clust_5="13000.00000" pt_clust_6="13000.00000" pt_clust_7="13000.00000" pt_clust_8="13000.00000" pt_clust_9="38.74153" pt_clust_10="13000.00000"></scales>
<clustering>
<clus scale="   38.742">  1  9  2 -1</clus>
<clus scale="   90.309">  7  8 -1 -1</clus>
<clus scale="   93.815">  5  6 -1 -1</clus>
<clus scale="  176.491">  7 10 -1 -1</clus>
<clus scale="  422.757">  2  5  1 -1</clus>
<clus scale="   38.742">  1  5  2 -1</clus>
</clustering>
</event>
<event>
10    2  0.5921424E-006  0.2352700E+03  0.7546771E-02  0.1137070E+00
         21   -1    0    0  501  502  0.00000000000E+00  0.00000000000E+00  0.50746228542E+03  0.50746228542E+03  0.00000000000E+00 0.  1.
          1   -1    0    0  503    0 -0.00000000000E+00 -0.00000000000E+00 -0.55836155689E+03  0.55836155689E+03  0.00000000000E+00 0. -1.
         23    2    1    2    0    0 -0.54069861134E+02  0.12601435261E+03 -0.46271685023E+03  0.49171970518E+03  0.94224296358E+02 0.  0.
         23    2    1    2    0    0  0.26050621969E+02 -0.14040867802E+03  0.14152242573E+03  0.22035955739E+03  0.90202581881E+02 0.  0.
        -11    1    4    4    0    0  0.27686879956E+01 -0.66604481704E+02  0.12434489552E+03  0.14108676642E+03  0.00000000000E+00 0.  1.
         11    1    4    4    0    0  0.23281933974E+02 -0.73804196316E+02  0.17177530209E+02  0.79272790966E+02  0.00000000000E+00 0. -1.
        -13    1    3    3    0    0  0.76273761929E+01  0.98325788523E+02 -0.28399430297E+03  0.30063083953E+03  0.00000000000E+00 0. -1.
         13    1    3    3    0    0 -0.61697237327E+02  0.27688564086E+02 -0.17872254726E+03  0.19108886565E+03  0.00000000000E+00 0.  1.
         21    1    1    2  503  502  0.11929734035E+03  0.50942290277E+02  0.16026972363E+03  0.20618767341E+03  0.00000000000E+00 0.  1.
          1    1    1    2  501    0 -0.91278101190E+02 -0.36547964866E+02  0.11002542940E+03  0.14755690633E+03  0.00000000000E+00 0. -1.
<scales pt_clust_5="13000.00000" pt_clust_6="13000.00000" pt_clust_7="13000.00000" pt_clust_8="13000.00000" pt_clust_9="129.71882" pt_clust_10="13000.00000"></scales>
<clustering>
<clus scale="   90.203">  5  6 -1 -1</clus>
<clus scale="   94.224">  7  8 -1 -1</clus>
<clus scale="   98.323">  5 10 -1 -1</clus>
<clus scale="  129.719">  1  9  2 -1</clus>
<clus scale="  166.470">  2  7  1 -1</clus>
<clus scale="  129.719">  1  5  2 -1</clus>
</clustering>
</event>
<event>
10    2  0.5921424E-006  0.2454694E+03  0.7546771E-02  0.1149606E+00
         21   -1    0    0  501  502  0.00000000000E+00  0.00000000000E+00  0.28479554965E+03  0.28479554965E+03  0.00000000000E+00 0. -1.
          1   -1    0    0  503    0 -0.00000000000E+00 -0.00000000000E+00 -0.41568414022E+03  0.41568414022E+03  0.00000000000E+00 0. -1.
         23    2    1    2    0    0 -0.15683497507E+02 -0.56705502980E+02 -0.29131120583E+03  0.31109317324E+03  0.91952474856E+02 0.  0.
         23    2    1    2    0    0  0.25779172931E+02  0.23233081049E+02  0.10663730515E+03  0.14479200461E+03  0.91590763384E+02 0.  0.
        -11    1    4    4    0    0  0.21011618142E+02 -0.28085195405E+02  0.12073112400E+02  0.37094829032E+02  0.00000000000E+00 0.  1.
         11    1    4    4    0    0  0.47675547885E+01  0.51318276454E+02  0.94564192753E+02  0.10769717558E+03  0.00000000000E+00 0. -1.
        -11    1    3    3    0    0  0.31394391555E+02  0.21922134575E+01 -0.59243628315E+02  0.67083687413E+02  0.00000000000E+00 0.  1.
         11    1    3    3    0    0 -0.47077889061E+02 -0.58897716438E+02 -0.23206757751E+03  0.24400948583E+03  0.00000000000E+00 0. -1.
         21    1    1    2  503  502  0.38549882349E+02  0.82880812738E+01  0.13833828227E+03  0.14384806589E+03  0.00000000000E+00 0. -1.
          1    1    1    2  501    0 -0.48645557773E+02  0.25184340657E+02 -0.84552972166E+02  0.10074644613E+03  0.00000000000E+00 0. -1.
<scales pt_clust_5="13000.00000" pt_clust_6="13000.00000" pt_clust_7="13000.00000" pt_clust_8="13000.00000" pt_clust_9="39.43077" pt_clust_10="13000.00000"></scales>
<clustering>
<clus scale="   39.431">  1  9  2 -1</clus>
<clus scale="   91.591">  5  6 -1 -1</clus>
<clus scale="   53.083">  5 10 -1 -1</clus>
<clus scale="   91.952">  7  8 -1 -1</clus>
<clus scale="  108.518">  2  7  1 -1</clus>
<clus scale="   39.431">  1  5  2 -1</clus>
</clustering>
</event>
<event>
10    2  0.5921424E-006  0.2015546E+03  0.7546771E-02  0.1152860E+00
         21   -1    0    0  501  502  0.00000000000E+00  0.00000000000E+00  0.56027507989E+03  0.56027507989E+03  0.00000000000E+00 0.  1.
          2   -1    0    0  503    0 -0.00000000000E+00 -0.00000000000E+00 -0.13912359167E+03  0.13912359167E+03  0.00000000000E+00 0. -1.
         23    2    1    2    0    0 -0.28911443491E+02  0.15668585246E+03  0.22084224516E+03  0.28531098797E+03  0.85116007209E+02 0.  0.
         23    2    1    2    0    0  0.85008552982E+01 -0.11106538121E+03 -0.20777575339E+02  0.14614341988E+03  0.92295222476E+02 0.  0.
        -11    1    4    4    0    0  0.43738648497E+02 -0.49006536485E+02  0.13363466080E+02  0.67032023811E+02  0.00000000000E+00 0. -1.
         11    1    4    4    0    0 -0.35237793198E+02 -0.62058844726E+02 -0.34141041419E+02  0.79111396065E+02  0.00000000000E+00 0.  1.
        -13    1    3    3    0    0 -0.96392031041E+01  0.13901270265E+03  0.21837441139E+03  0.25904599840E+03  0.00000000000E+00 0.  1.
         13    1    3    3    0    0 -0.19272240387E+02  0.17673149807E+02  0.24678337660E+01  0.26264989570E+02  0.00000000000E+00 0. -1.
         21    1    1    2  503  502  0.42298585689E+02  0.50302227011E+01  0.20653233427E+03  0.21087929863E+03  0.00000000000E+00 0.  1.
          2    1    1    2  501    0 -0.21887997497E+02 -0.50650693948E+02  0.14554484132E+02  0.57064965086E+02  0.00000000000E+00 0. -1.
<scales pt_clust_5="13000.00000" pt_clust_6="13000.00000" pt_clust_7="13000.00000" pt_clust_8="13000.00000" pt_clust_9="42.59664" pt_clust_10="13000.00000"></scales>
<clustering>
<clus scale="   42.597">  1  9  2 -1</clus>
<clus scale="   85.116">  7  8 -1 -1</clus>
<clus scale="   92.295">  5  6 -1 -1</clus>
<clus scale="   53.131">  5 10 -1 -1</clus>
<clus scale="  181.509">  2  7  1 -1</clus>
<clus scale="   42.597">  1  5  2 -1</clus>
</clustering>
</event>
<event>
10    2  0.5921424E-006  0.1944107E+03  0.7546771E-02  0.1189603E+00
         21   -1    0    0  503  502  0.00000000000E+00  0.00000000000E+00  0.12163767899E+03  0.12163767899E+03  0.00000000000E+00 0.  1.
          1   -1    0    0  502    0 -0.00000000000E+00 -0.00000000000E+00 -0.22313367585E+03  0.22313367585E+03  0.00000000000E+00 0. -1.
         23    2    1    2    0    0 -0.24551875998E+02 -0.13212488628E+02  0.10263359478E+02  0.86484501723E+02  0.81221105753E+02 0.  0.
         23    2    1    2    0    0 -0.38975272925E+02 -0.19603436559E+02 -0.21619045648E+02  0.10295449516E+03  0.90713165059E+02 0.  0.
        -11    1    3    3    0    0  0.19296073760E+02 -0.60692975777E+01  0.31348945838E+02  0.37308594731E+02  0.00000000000E+00 0. -1.
         11    1    3    3    0    0 -0.43847949758E+02 -0.71431910498E+01 -0.21085586361E+02  0.49175906992E+02  0.00000000000E+00 0.  1.
        -13    1    4    4    0    0 -0.11012720969E+02  0.35257713156E+02 -0.18469041567E+02  0.41297601099E+02  0.00000000000E+00 0.  1.
         13    1    4    4    0    0 -0.27962551957E+02 -0.54861149714E+02 -0.31500040812E+01  0.61656894064E+02  0.00000000000E+00 0. -1.
         21    1    1    2  503  501 -0.16370902238E+02  0.22100193390E+02  0.76992241471E+01  0.28560515409E+02  0.00000000000E+00 0. -1.
          1    1    1    2  501    0  0.79898051161E+02  0.10715731796E+02 -0.97839534836E+02  0.12677184255E+03  0.00000000000E+00 0. -1.
<scales pt_clust_5="13000.00000" pt_clust_6="13000.00000" pt_clust_7="13000.00000" pt_clust_8="13000.00000" pt_clust_9="27.50318" pt_clust_10="13000.00000"></scales>
<clustering>
<clus scale="   27.503">  1  9  2 -1</clus>
<clus scale="   81.221">  5  6 -1 -1</clus>
<clus scale="   87.420">  2  5  1 -1</clus>
<clus scale="   90.713">  7  8 -1 -1</clus>
<clus scale="   59.215">  7 10 -1 -1</clus>
<clus scale="   27.503">  1  5  2 -1</clus>
</clustering>
</event>
<event>
10    2  0.5921424E-006  0.7725657E+03  0.7546771E-02  0.9914629E-01
         21   -1    0    0  503  502  0.00000000000E+00  0.00000000000E+00  0.53937056000E+03  0.53937056000E+03  0.00000000000E+00 0.  1.
          1   -1    0    0  502    0 -0.00000000000E+00 -0.00000000000E+00 -0.54765583668E+03  0.54765583668E+03  0.00000000000E+00 0. -1.
         23    2    1    2    0    0 -0.74428197216E+01  0.25763351323E+03 -0.45202747137E+02  0.27750605207E+03  0.92389923078E+02 0.  0.
         23    2    1    2    0    0 -0.17963484677E+03 -0.42757285228E+03 -0.63599221163E+02  0.47700455485E+03  0.91658399679E+02 0.  0.
        -11    1    3    3    0    0  0.23703267697E+02  0.91412257416E+02 -0.52851817524E+02  0.10821903863E+03  0.00000000000E+00 0.  1.
         11    1    3    3    0    0 -0.31146087419E+02  0.16622125581E+03  0.76490703875E+01  0.16928701345E+03  0.00000000000E+00 0. -1.
        -13    1    4    4    0    0 -0.11694127412E+03 -0.36493654269E+03 -0.63138195329E+02  0.38838173682E+03  0.00000000000E+00 0.  1.
         13    1    4    4    0    0 -0.62693572653E+02 -0.62636309591E+02 -0.46102583430E+00  0.88622818033E+02  0.00000000000E+00 0. -1.
         21    1    1    2  503  501 -0.33901264750E+02 -0.59080020627E+01  0.14024481532E+02  0.37160278824E+02  0.00000000000E+00 0.  1.
          1    1    1    2  501    0  0.22097893124E+03  0.17584734112E+03  0.86492210089E+02  0.29535551093E+03  0.00000000000E+00 0. -1.
<scales pt_clust_5="13000.00000" pt_clust_6="13000.00000" pt_clust_7="13000.00000" pt_clust_8="13000.00000" pt_clust_9="34.41221" pt_clust_10="13000.00000"></scales>
<clustering>
<clus scale="   34.412">  1  9  2 -1</clus>
<clus scale="   91.658">  7  8 -1 -1</clus>
<clus scale="   92.390">  5  6 -1 -1</clus>
<clus scale="  271.252">  7 10 -1 -1</clus>
<clus scale="  272.860">  2  5  1 -1</clus>
<clus scale="   34.412">  1  5  2 -1</clus>
</clustering>
</event>
<event>
10    2  0.5921424E-006  0.1739467E+03  0.7546771E-02  0.1199059E+00
         21   -1    0    0  501  502  0.00000000000E+00  0.00000000000E+00  0.13030170152E+03  0.13030170152E+03  0.00000000000E+00 0. -1.
         -1   -1    0    0    0  501 -0.00000000000E+00 -0.00000000000E+00 -0.32890607935E+03  0.32890607935E+03  0.00000000000E+00 0.  1.
         23    2    1    2    0    0 -0.25180191960E+02  0.47021454703E+02 -0.12829413111E+03  0.16595077666E+03  0.90748095994E+02 0.  0.
         23    2    1    2    0    0  0.50365738917E+02 -0.37935690868E+02 -0.11575492716E+03  0.16226892741E+03  0.94637082280E+02 0.  0.
        -11    1    4    4    0    0  0.69899201015E+02 -0.30464538484E+02 -0.11876991908E+03  0.14113922235E+03  0.00000000000E+00 0.  1.
         11    1    4    4    0    0 -0.19533462097E+02 -0.74711523840E+01  0.30149919237E+01  0.21129705056E+02  0.00000000000E+00 0. -1.
        -11    1    3    3    0    0  0.17182659080E+02  0.27486560446E+02 -0.11190546262E+03  0.11650573953E+03  0.00000000000E+00 0.  1.
         11    1    3    3    0    0 -0.42362851040E+02  0.19534894257E+02 -0.16388668485E+02  0.49445037128E+02  0.00000000000E+00 0. -1.
         21    1    1    2  503  502 -0.20054078603E+01 -0.53838604960E+02  0.57882868886E+02  0.79076188295E+02  0.00000000000E+00 0. -1.
         -1    1    1    2    0  503 -0.23180139097E+02  0.44752841125E+02 -0.12438188447E+02  0.51911888515E+02  0.00000000000E+00 0.  1.
<scales pt_clust_5="13000.00000" pt_clust_6="13000.00000" pt_clust_7="13000.00000" pt_clust_8="13000.00000" pt_clust_9="53.87594" pt_clust_10="13000.00000"></scales>
<clustering>
<clus scale="   53.876">  1  9  2 -1</clus>
<clus scale="   90.748">  7  8 -1 -1</clus>
<clus scale="   94.637">  5  6 -1 -1</clus>
<clus scale="   36.431">  5 10 -1 -1</clus>
<clus scale="   99.188">  2  7  1 -1</clus>
<clus scale="   53.876">  1  5  2 -1</clus>
</clustering>
</event>
<event>
10    2  0.5921424E-006  0.2956249E+03  0.7546771E-02  0.1119667E+00
          2   -1    0    0  503    0 -0.00000000000E+00  0.00000000000E+00  0.11760974686E+04  0.11760974686E+04  0.00000000000E+00 0. -1.
         21   -1    0    0  501  502  0.00000000000E+00 -0.00000000000E+00 -0.15214623443E+03  0.15214623443E+03  0.00000000000E+00 0.  1.
         23    2    1    2    0    0  0.89137911398E+02  0.86987318397E+01  0.37002577584E+03  0.39180873299E+03  0.92594671958E+02 0.  0.
         23    2    1    2    0    0 -0.49373510307E+02  0.52217175180E+02  0.25043246391E+03  0.27645389633E+03  0.92444366568E+02 0.  0.
        -11    1    3    3    0    0  0.23514674270E+02 -0.39673798044E+02  0.10921484908E+03  0.11855308270E+03  0.00000000000E+00 0.  1.
         11    1    3    3    0    0  0.65623237128E+02  0.48372529883E+02  0.26081092676E+03  0.27325565029E+03  0.00000000000E+00 0. -1.
        -11    1    4    4    0    0 -0.56273796055E+02  0.25227236585E+02  0.23815556218E+03  0.24601062047E+03  0.00000000000E+00 0. -1.
         11    1    4    4    0    0  0.69002857479E+01  0.26989938595E+02  0.12276901736E+02  0.30443275859E+02  0.00000000000E+00 0.  1.
         21    1    1    2  503  502  0.13355653486E+03 -0.19008545148E+03  0.38071013252E+02  0.23541289030E+03  0.00000000000E+00 0.  1.
          2    1    1    2  501    0 -0.17332093595E+03  0.12916954446E+03  0.36542198116E+03  0.42456818342E+03  0.00000000000E+00 0. -1.
<scales pt_clust_5="13000.00000" pt_clust_6="13000.00000" pt_clust_7="13000.00000" pt_clust_8="13000.00000" pt_clust_9="240.27646" pt_clust_10="13000.00000"></scales>
<clustering>
<clus scale="   92.444">  7  8 -1 -1</clus>
<clus scale="   92.595">  5  6 -1 -1</clus>
<clus scale="  128.822">  1  5  2 -1</clus>
<clus scale="  185.666">  7 10 -1 -1</clus>
<clus scale="  240.276">  2  9  1 -1</clus>
<clus scale="  240.276">  2  5  1 -1</clus>
</clustering>
</event>
<event>
10    2  0.5921424E-006  0.7523043E+03  0.7546771E-02  0.9964273E-01
          1   -1    0    0  503    0 -0.00000000000E+00  0.00000000000E+00  0.12586759325E+04  0.12586759325E+04  0.00000000000E+00 0. -1.
         21   -1    0    0  501  502  0.00000000000E+00 -0.00000000000E+00 -0.35547382372E+03  0.35547382372E+03  0.00000000000E+00 0. -1.
         23    2    1    2    0    0 -0.23786976067E+03 -0.20159853675E+02  0.22260493959E+03  0.33915222143E+03  0.92102266156E+02 0.  0.
         23    2    1    2    0    0  0.14072630327E+03 -0.30633911152E+03  0.70640895092E+03  0.78785151845E+03  0.89715469701E+02 0.  0.
        -11    1    3    3    0    0 -0.20446730174E+02  0.25012467602E+02  0.41547905029E+02  0.52630036316E+02  0.00000000000E+00 0.  1.
         11    1    3    3    0    0 -0.21742303050E+03 -0.45172321277E+02  0.18105703456E+03  0.28652218511E+03  0.00000000000E+00 0. -1.
        -13    1    4    4    0    0  0.11704665377E+03 -0.14975797399E+03  0.36610684889E+03  0.41250647841E+03  0.00000000000E+00 0. -1.
         13    1    4    4    0    0  0.23679649501E+02 -0.15658113753E+03  0.34030210203E+03  0.37534504003E+03  0.00000000000E+00 0.  1.
         21    1    1    2  503  502  0.11599354215E+02  0.31161230924E+02 -0.15140109908E+03  0.15500922596E+03  0.00000000000E+00 0. -1.
          1    1    1    2  501    0  0.85544103188E+02  0.29533773427E+03  0.12558931731E+03  0.33213679034E+03  0.00000000000E+00 0. -1.
<scales pt_clust_5="13000.00000" pt_clust_6="13000.00000" pt_clust_7="13000.00000" pt_clust_8="13000.00000" pt_clust_9="33.25007" pt_clust_10="13000.00000"></scales>
<clustering>
<clus scale="   33.250">  2  9  1 -1</clus>
<clus scale="   89.715">  7  8 -1 -1</clus>
<clus scale="   92.102">  5  6 -1 -1</clus>
<clus scale="  252.213">  1  5  2 -1</clus>
<clus scale="  309.836">  7 10 -1 -1</clus>
<clus scale="   33.250">  2  5  1 -1</clus>
</clustering>
</event>
<event>
10    2  0.5921424E-006  0.2467702E+03  0.7546771E-02  0.1125434E+00
         21   -1    0    0  501  502  0.00000000000E+00  0.00000000000E+00  0.10046829740E+03  0.10046829740E+03  0.00000000000E+00 0.  1.
         -2   -1    0    0    0  501 -0.00000000000E+00 -0.00000000000E+00 -0.93510499436E+03  0.93510499436E+03  0.00000000000E+00 0.  1.
         23    2    1    2    0    0 -0.78910923351E+02 -0.11569221095E+03 -0.45287061074E+02  0.17222757342E+03  0.89441587908E+02 0.  0.
         23    2    1    2    0    0 -0.53566263155E+01  0.91554208289E+02 -0.29303363122E+03  0.32091493137E+03  0.93310329804E+02 0.  0.
        -11    1    4    4    0    0 -0.29579159392E+02  0.69610680400E+02 -0.10132978060E+03  0.12644484146E+03  0.00000000000E+00 0.  1.
         11    1    4    4    0    0  0.24222533076E+02  0.21943527888E+02 -0.19170385063E+03  0.19447008991E+03  0.00000000000E+00 0. -1.
        -13    1    3    3    0    0 -0.32325575348E+02 -0.10759931746E+03 -0.53162306948E+02  0.12429314872E+03  0.00000000000E+00 0.  1.
         13    1    3    3    0    0 -0.46585348003E+02 -0.80928934902E+01  0.78752458747E+01  0.47934424699E+02  0.00000000000E+00 0. -1.
         21    1    1    2  503  502 -0.24544530436E+01 -0.44267877153E+02 -0.12354682436E+02  0.46025074313E+02  0.00000000000E+00 0.  1.
         -2    1    1    2    0  503  0.86722002710E+02  0.68405879816E+02 -0.48396132222E+03  0.49640571265E+03  0.00000000000E+00 0.  1.
<scales pt_clust_5="13000.00000" pt_clust_6="13000.00000" pt_clust_7="13000.00000" pt_clust_8="13000.00000" pt_clust_9="44.33587" pt_clust_10="13000.00000"></scales>
<clustering>
<clus scale="   44.336">  1  9  2 -1</clus>
<clus scale="   89.442">  7  8 -1 -1</clus>
<clus scale="   93.310">  5  6 -1 -1</clus>
<clus scale="  108.299">  5 10 -1 -1</clus>
<clus scale="  191.862">  2  7  1 -1</clus>
<clus scale="   44.336">  1  5  2 -1</clus>
</clustering>
</event>
<event>
10    2  0.5921424E-006  0.1776618E+03  0.7546771E-02  0.1180956E+00
         21   -1    0    0  501  502  0.00000000000E+00  0.00000000000E+00  0.20376225606E+03  0.20376225606E+03  0.00000000000E+00 0.  1.
          1   -1    0    0  503    0 -0.00000000000E+00 -0.00000000000E+00 -0.41382167168E+03  0.41382167168E+03  0.00000000000E+00 0. -1.
         23    2    1    2    0    0  0.68303806441E+02  0.78473053388E+02 -0.33823423727E+03  0.36532820324E+03  0.90768203357E+02 0.  0.
         23    2    1    2    0    0 -0.10240767388E+03 -0.92343497747E+02  0.73962951660E+02  0.18071055351E+03  0.90394317773E+02 0.  0.
        -13    1    3    3    0    0 -0.13482292340E+02  0.47837819899E+02 -0.14478408775E+03  0.15307730493E+03  0.00000000000E+00 0.  1.
         13    1    3    3    0    0  0.81786098781E+02  0.30635233489E+02 -0.19345014952E+03  0.21225089831E+03  0.00000000000E+00 0. -1.
        -13    1    4    4    0    0 -0.42426245833E+02 -0.36866152938E+02  0.81125196617E+02  0.98693450108E+02  0.00000000000E+00 0.  1.
         13    1    4    4    0    0 -0.59981428049E+02 -0.55477344809E+02 -0.71622449568E+01  0.82017103403E+02  0.00000000000E+00 0. -1.
         21    1    1    2  503  502  0.23187453417E+02 -0.35378200186E+01  0.40629135406E+02  0.46913759286E+02  0.00000000000E+00 0. -1.
          1    1    1    2  501    0  0.10916414025E+02  0.17408264378E+02  0.13582734581E+02  0.24631411703E+02  0.00000000000E+00 0. -1.
<scales pt_clust_5="13000.00000" pt_clust_6="13000.00000" pt_clust_7="13000.00000" pt_clust_8="13000.00000" pt_clust_9="23.45579" pt_clust_10="13000.00000"></scales>
<clustering>
<clus scale="   23.456">  1  9  2 -1</clus>
<clus scale="   90.394">  7  8 -1 -1</clus>
<clus scale="   21.813">  7 10 -1 -1</clus>
<clus scale="   90.768">  5  6 -1 -1</clus>
<clus scale="  138.879">  2  5  1 -1</clus>
<clus scale="   23.456">  1  5  2 -1</clus>
</clustering>
</event>
<event>
10    2  0.5921424E-006  0.2811321E+03  0.7546771E-02  0.1111146E+00
         21   -1    0    0  501  502  0.00000000000E+00  0.00000000000E+00  0.93575637772E+03  0.93575637772E+03  0.00000000000E+00 0.  1.
         -3   -1    0    0    0  501 -0.00000000000E+00 -0.00000000000E+00 -0.11378347435E+03  0.11378347435E+03  0.00000000000E+00 0.  1.
         23    2    1    2    0    0 -0.15178915274E+03  0.42105139771E+02  0.26207221460E+02  0.18456717765E+03  0.92549634923E+02 0.  0.
         23    2    1    2    0    0  0.97270121463E+02  0.11940467938E+02  0.13345470854E+03  0.19015492247E+03  0.93513015165E+02 0.  0.
        -11    1    3    3    0    0 -0.12406361992E+03  0.30319800024E+02  0.58437445482E+02  0.14044930436E+03  0.00000000000E+00 0.  1.
         11    1    3    3    0    0 -0.27725532822E+02  0.11785339747E+02 -0.32230224021E+02  0.44117873291E+02  0.00000000000E+00 0. -1.
        -13    1    4    4    0    0  0.10697076438E+03  0.32272236282E+02  0.10079058886E+03  0.15047586009E+03  0.00000000000E+00 0.  1.
         13    1    4    4    0    0 -0.97006429204E+01 -0.20331768344E+02  0.32664119678E+02  0.39679062381E+02  0.00000000000E+00 0. -1.
         21    1    1    2  503  502 -0.21806968424E+02  0.13043730563E+02  0.19049886533E+03  0.19218610895E+03  0.00000000000E+00 0.  1.
         -3    1    1    2    0  503  0.76325999700E+02 -0.67089338273E+02  0.47181210804E+03  0.48263164301E+03  0.00000000000E+00 0.  1.
<scales pt_clust_5="13000.00000" pt_clust_6="13000.00000" pt_clust_7="13000.00000" pt_clust_8="13000.00000" pt_clust_9="25.41029" pt_clust_10="13000.00000"></scales>
<clustering>
<clus scale="   25.410">  1  9  2 -1</clus>
<clus scale="   92.550">  5  6 -1 -1</clus>
<clus scale="   93.513">  7  8 -1 -1</clus>
<clus scale="   85.650">  7 10 -1 -1</clus>
<clus scale="  185.698">  2  5  1 -1</clus>
<clus scale="   25.410">  1  5  2 -1</clus>
</clustering>
</event>
<event>
10    2  0.5921424E-006  0.4048622E+03  0.7546771E-02  0.1096726E+00
         21   -1    0    0  501  502  0.00000000000E+00  0.00000000000E+00  0.39508511269E+03  0.39508511269E+03  0.00000000000E+00 0. -1.
          1   -1    0    0  503    0 -0.00000000000E+00 -0.00000000000E+00 -0.61361591083E+03  0.61361591083E+03  0.00000000000E+00 0. -1.
         23    2    1    2    0    0  0.71570486518E+01 -0.14620544312E+02 -0.22137830302E+03  0.23902785113E+03  0.88662150362E+02 0.  0.
         23    2    1    2    0    0  0.19515312956E+03  0.17566603326E+03 -0.16405299146E+03  0.32252234112E+03  0.90354730372E+02 0.  0.
        -11    1    4    4    0    0  0.19909561062E+03  0.14396357342E+03 -0.14697390149E+03  0.28629687452E+03  0.00000000000E+00 0. -1.
         11    1    4    4    0    0 -0.39424810599E+01  0.31702459839E+02 -0.17079089966E+02  0.36225466606E+02  0.00000000000E+00 0.  1.
        -11    1    3    3    0    0  0.41596794926E+02  0.15293783633E+02 -0.10099852126E+03  0.11029458038E+03  0.00000000000E+00 0.  1.
         11    1    3    3    0    0 -0.34439746275E+02 -0.29914327945E+02 -0.12037978176E+03  0.12873327074E+03  0.00000000000E+00 0. -1.
         21    1    1    2  503  502 -0.11691146207E+03 -0.66545443089E+02  0.25772057523E+03  0.29071718363E+03  0.00000000000E+00 0. -1.
          1    1    1    2  501    0 -0.85398716139E+02 -0.94500045856E+02 -0.90820078895E+02  0.15643364764E+03  0.00000000000E+00 0. -1.
<scales pt_clust_5="13000.00000" pt_clust_6="13000.00000" pt_clust_7="13000.00000" pt_clust_8="13000.00000" pt_clust_9="134.56893" pt_clust_10="13000.00000"></scales>
<clustering>
<clus scale="   88.662">  7  8 -1 -1</clus>
<clus scale="   90.144">  2  7  1 -1</clus>
<clus scale="   90.355">  5  6 -1 -1</clus>
<clus scale="  129.413">  5 10 -1 -1</clus>
<clus scale="  134.569">  1  9  2 -1</clus>
<clus scale="  134.569">  1  5  2 -1</clus>
</clustering>
</event>
<event>
10    2  0.5921424E-006  0.2551534E+03  0.7546771E-02  0.1118846E+00
         21   -1    0    0  501  502  0.00000000000E+00  0.00000000000E+00  0.89015654172E+02  0.89015654172E+02  0.00000000000E+00 0. -1.
          2   -1    0    0  503    0 -0.00000000000E+00 -0.00000000000E+00 -0.14628512186E+04  0.14628512186E+04  0.00000000000E+00 0. -1.
         23    2    1    2    0    0  0.82348083271E+02  0.14970316919E+03 -0.63767251783E+03  0.66735029854E+03  0.97662353477E+02 0.  0.
         23    2    1    2    0    0 -0.19689259631E+02 -0.11899806942E+03 -0.63384055247E+03  0.65177401541E+03  0.92235100322E+02 0.  0.
        -11    1    4    4    0    0 -0.24815123778E+02  0.65471617587E+01 -0.88551378989E+02  0.92195457676E+02  0.00000000000E+00 0.  1.
         11    1    4    4    0    0  0.51258641464E+01 -0.12554523118E+03 -0.54528917348E+03  0.55957855773E+03  0.00000000000E+00 0. -1.
        -11    1    3    3    0    0  0.72743596591E+02  0.69169687851E+02 -0.21919797173E+03  0.24108883710E+03  0.00000000000E+00 0. -1.
         11    1    3    3    0    0  0.96044866800E+01  0.80533481341E+02 -0.41847454609E+03  0.42626146144E+03  0.00000000000E+00 0.  1.
         21    1    1    2  503  502  0.16042685512E+02  0.15920027286E+02  0.50108694962E+02  0.54969958505E+02  0.00000000000E+00 0. -1.
          2    1    1    2  501    0 -0.78701509152E+02 -0.46625127061E+02 -0.15243118908E+03  0.17777260031E+03  0.00000000000E+00 0. -1.
<scales pt_clust_5="13000.00000" pt_clust_6="13000.00000" pt_clust_7="13000.00000" pt_clust_8="13000.00000" pt_clust_9="22.60122" pt_clust_10="13000.00000"></scales>
<clustering>
<clus scale="   22.601">  1  9  2 -1</clus>
<clus scale="   92.235">  5  6 -1 -1</clus>
<clus scale="   83.885">  5 10 -1 -1</clus>
<clus scale="   97.662">  7  8 -1 -1</clus>
<clus scale="  204.521">  2  7  1 -1</clus>
<clus scale="   22.601">  1  5  2 -1</clus>
</clustering>
</event>
<event>
10    2  0.5921424E-006  0.4150929E+03  0.7546771E-02  0.1089167E+00
         21   -1    0    0  501  502  0.00000000000E+00  0.00000000000E+00  0.36187228573E+03  0.36187228573E+03  0.00000000000E+00 0. -1.
          3   -1    0    0  503    0 -0.00000000000E+00 -0.00000000000E+00 -0.47299365414E+03  0.47299365414E+03  0.00000000000E+00 0. -1.
         23    2    1    2    0    0 -0.59651915002E+02 -0.38254648012E+00 -0.22228522401E+02  0.11101602274E+03  0.90950276483E+02 0.  0.
         23    2    1    2    0    0  0.52954236142E+02  0.49258564841E+01 -0.39282468985E+03  0.40729283227E+03  0.93529669463E+02 0.  0.
        -11    1    3    3    0    0 -0.30560664374E+02  0.29598852195E+02 -0.46237609506E+02  0.62832816196E+02  0.00000000000E+00 0. -1.
         11    1    3    3    0    0 -0.29091250628E+02 -0.29981398675E+02  0.24009087105E+02  0.48183206548E+02  0.00000000000E+00 0.  1.
        -11    1    4    4    0    0  0.48932492616E+01 -0.40893826670E+02 -0.14852982080E+03  0.15413421623E+03  0.00000000000E+00 0.  1.
         11    1    4    4    0    0  0.48060986881E+02  0.45819683154E+02 -0.24429486906E+03  0.25315861603E+03  0.00000000000E+00 0. -1.
         21    1    1    2  503  502  0.45258952060E+02  0.19610023832E+01  0.20961722449E+03  0.21445652024E+03  0.00000000000E+00 0. -1.
          3    1    1    2  501    0 -0.38561273200E+02 -0.65043123872E+01  0.94314619363E+02  0.10210056462E+03  0.00000000000E+00 0. -1.
<scales pt_clust_5="13000.00000" pt_clust_6="13000.00000" pt_clust_7="13000.00000" pt_clust_8="13000.00000" pt_clust_9="45.30142" pt_clust_10="13000.00000"></scales>
<clustering>
<clus scale="   45.301">  1  9  2 -1</clus>
<clus scale="   90.950">  5  6 -1 -1</clus>
<clus scale="   93.530">  7  8 -1 -1</clus>
<clus scale="   10.315">  7 10 -1 -1</clus>
<clus scale="  102.031">  2  5  1 -1</clus>
<clus scale="   45.301">  1  5  2 -1</clus>
</clustering>
</event>
<event>
10    2  0.5921424E-006  0.4584642E+03  0.7546771E-02  0.1053698E+00
         21   -1    0    0  503  502  0.00000000000E+00  0.00000000000E+00  0.37565839483E+03  0.37565839483E+03  0.00000000000E+00 0. -1.
          1   -1    0    0  502    0 -0.00000000000E+00 -0.00000000000E+00 -0.37118531809E+03  0.37118531809E+03  0.00000000000E+00 0. -1.
         23    2    1    2    0    0  0.13378123166E+03 -0.13309587479E+03  0.11681104852E+03  0.23954590264E+03  0.90141492028E+02 0.  0.
         23    2    1    2    0    0  0.10313838553E+03 -0.65571694179E+01 -0.17011507348E+03  0.21964974645E+03  0.92878145156E+02 0.  0.
        -13    1    4    4    0    0  0.24787856057E+02 -0.27546444118E+02 -0.73300823807E+01  0.37775316003E+02  0.00000000000E+00 0.  1.
         13    1    4    4    0    0  0.78350529477E+02  0.20989274700E+02 -0.16278499110E+03  0.18187443044E+03  0.00000000000E+00 0. -1.
        -13    1    3    3    0    0  0.42775141347E+01 -0.46297047316E+02  0.31315105726E+01  0.46599571627E+02  0.00000000000E+00 0.  1.
         13    1    3    3    0    0  0.12950371753E+03 -0.86798827475E+02  0.11367953794E+03  0.19294633101E+03  0.00000000000E+00 0. -1.
         21    1    1    2  503  501 -0.27914442138E+02  0.83497358305E+00  0.18966451001E+02  0.33758547426E+02  0.00000000000E+00 0.  1.
          1    1    1    2  501    0 -0.20900517506E+03  0.13881807063E+03  0.38810650707E+02  0.25388951641E+03  0.00000000000E+00 0. -1.
<scales pt_clust_5="13000.00000" pt_clust_6="13000.00000" pt_clust_7="13000.00000" pt_clust_8="13000.00000" pt_clust_9="27.92693" pt_clust_10="13000.00000"></scales>
<clustering>
<clus scale="   27.927">  1  9  2 -1</clus>
<clus scale="   90.141">  7  8 -1 -1</clus>
<clus scale="   92.878">  5  6 -1 -1</clus>
<clus scale="  200.043">  2  7  1 -1</clus>
<clus scale="  196.330">  5 10 -1 -1</clus>
<clus scale="   27.927">  1  5  2 -1</clus>
</clustering>
</event>
<event>
10    2  0.5921424E-006  0.1998787E+03  0.7546771E-02  0.1172967E+00
          2   -1    0    0  502    0 -0.00000000000E+00  0.00000000000E+00  0.17604233959E+03  0.17604233959E+03  0.00000000000E+00 0. -1.
         21   -1    0    0  503  502  0.00000000000E+00 -0.00000000000E+00 -0.21979421703E+03  0.21979421703E+03  0.00000000000E+00 0.  1.
         23    2    1    2    0    0  0.45769693277E+02  0.77727336545E+02 -0.60608579680E+02  0.14168558984E+03  0.90912060629E+02 0.  0.
         23    2    1    2    0    0  0.55808911197E+01  0.10187370597E+02  0.75286283191E+02  0.11841448084E+03  0.90658899011E+02 0.  0.
        -11    1    4    4    0    0  0.42574441930E+02  0.15682635822E+02  0.65634196601E+02  0.79789572850E+02  0.00000000000E+00 0.  1.
         11    1    4    4    0    0 -0.36993550811E+02 -0.54952652258E+01  0.96520865895E+01  0.38624907987E+02  0.00000000000E+00 0. -1.
        -13    1    3    3    0    0  0.15522372491E+02  0.80999701830E+02 -0.10603362895E+02  0.83152432610E+02  0.00000000000E+00 0.  1.
         13    1    3    3    0    0  0.30247320787E+02 -0.32723652854E+01 -0.50005216785E+02  0.58533157228E+02  0.00000000000E+00 0. -1.
         21    1    1    2  503  501 -0.45512370843E+02 -0.12981660355E+02 -0.24020831728E+02  0.53074473735E+02  0.00000000000E+00 0. -1.
          2    1    1    2  501    0 -0.58382135540E+01 -0.74933046786E+02 -0.34408749225E+02  0.82662012203E+02  0.00000000000E+00 0. -1.
<scales pt_clust_5="13000.00000" pt_clust_6="13000.00000" pt_clust_7="13000.00000" pt_clust_8="13000.00000" pt_clust_9="47.32758" pt_clust_10="13000.00000"></scales>
<clustering>
<clus scale="   47.328">  2  9  1 -1</clus>
<clus scale="   90.659">  5  6 -1 -1</clus>
<clus scale="   81.747">  5 10 -1 -1</clus>
<clus scale="   90.912">  7  8 -1 -1</clus>
<clus scale="  116.824">  1  7  2 -1</clus>
<clus scale="   47.328">  2  5  1 -1</clus>
</clustering>
</event>
<event>
10    2  0.5921424E-006  0.2680556E+03  0.7546771E-02  0.1106892E+00
          2   -1    0    0  503    0 -0.00000000000E+00  0.00000000000E+00  0.28892869306E+03  0.28892869306E+03  0.00000000000E+00 0.  1.
         21   -1    0    0  501  502  0.00000000000E+00 -0.00000000000E+00 -0.54637702936E+03  0.54637702936E+03  0.00000000000E+00 0.  1.
         23    2    1    2    0    0  0.19440310436E+02  0.18600410697E+03  0.29643206583E+01  0.20844715473E+03  0.92010736543E+02 0.  0.
         23    2    1    2    0    0  0.59610455224E+02 -0.18136067455E+03  0.54674070725E+02  0.21898946785E+03  0.92314854568E+02 0.  0.
        -13    1    3    3    0    0 -0.26942633192E+01  0.15259634377E+03  0.35655023675E+02  0.15672965227E+03  0.00000000000E+00 0.  1.
         13    1    3    3    0    0  0.22134573756E+02  0.33407763199E+02 -0.32690703016E+02  0.51717502463E+02  0.00000000000E+00 0. -1.
        -13    1    4    4    0    0  0.47764285978E+02 -0.68988939356E+02 -0.16404052398E+02  0.85498501177E+02  0.00000000000E+00 0.  1.
         13    1    4    4    0    0  0.11846169246E+02 -0.11237173520E+03  0.71078123123E+02  0.13349096667E+03  0.00000000000E+00 0. -1.
         21    1    1    2  503  502 -0.45192914894E+02  0.78907305449E+02 -0.30367752775E+03  0.31699968970E+03  0.00000000000E+00 0.  1.
          2    1    1    2  501    0 -0.33857850767E+02 -0.83550737865E+02 -0.11409199933E+02  0.90869410141E+02  0.00000000000E+00 0.  1.
<scales pt_clust_5="13000.00000" pt_clust_6="13000.00000" pt_clust_7="13000.00000" pt_clust_8="13000.00000" pt_clust_9="90.93274" pt_clust_10="13000.00000"></scales>
<clustering>
<clus scale="   90.933">  2  9  1 -1</clus>
<clus scale="   92.011">  5  6 -1 -1</clus>
<clus scale="   92.315">  7  8 -1 -1</clus>
<clus scale="   79.508">  7 10 -1 -1</clus>
<clus scale="  238.789">  1  5  2 -1</clus>
<clus scale="   90.933">  2  5  1 -1</clus>
</clustering>
</event>
<event>
10    2  0.5921424E-006  0.2450275E+03  0.7546771E-02  0.1137405E+00
         21   -1    0    0  503  502  0.00000000000E+00  0.00000000000E+00  0.74894818574E+02  0.74894818574E+02  0.00000000000E+00 0. -1.
          1   -1    0    0  502    0 -0.00000000000E+00 -0.00000000000E+00 -0.69573473788E+03  0.69573473788E+03  0.00000000000E+00 0. -1.
         23    2    1    2    0    0 -0.12417757941E+03  0.34732236980E+02 -0.22147582206E+03  0.27114893491E+03  0.88565261981E+02 0.  0.
         23    2    1    2    0    0  0.23756072439E+01  0.13116725676E+02 -0.32445916470E+03  0.33742847779E+03  0.91687164114E+02 0.  0.
        -11    1    4    4    0    0 -0.40865120855E+02 -0.12781984569E+01 -0.94002886751E+02  0.10250919281E+03  0.00000000000E+00 0. -1.
         11    1    4    4    0    0  0.43240728099E+02  0.14394924133E+02 -0.23045627795E+03  0.23491928498E+03  0.00000000000E+00 0.  1.
        -11    1    3    3    0    0 -0.10355390348E+03 -0.45990485117E+01 -0.10995866358E+03  0.15111409554E+03  0.00000000000E+00 0.  1.
         11    1    3    3    0    0 -0.20623675931E+02  0.39331285492E+02 -0.11151715848E+03  0.12003483937E+03  0.00000000000E+00 0. -1.
         21    1    1    2  503  501  0.31881121700E+02  0.43034357079E+01  0.27664556516E+01  0.32288988163E+02  0.00000000000E+00 0.  1.
          1    1    1    2  501    0  0.89920850471E+02 -0.52152398365E+02 -0.77671388197E+02  0.12976315559E+03  0.00000000000E+00 0. -1.
<scales pt_clust_5="13000.00000" pt_clust_6="13000.00000" pt_clust_7="13000.00000" pt_clust_8="13000.00000" pt_clust_9="32.17026" pt_clust_10="13000.00000"></scales>
<clustering>
<clus scale="   32.170">  1  9  2 -1</clus>
<clus scale="   88.565">  7  8 -1 -1</clus>
<clus scale="   91.687">  5  6 -1 -1</clus>
<clus scale="  115.838">  5 10 -1 -1</clus>
<clus scale="  146.170">  2  7  1 -1</clus>
<clus scale="   32.170">  1  5  2 -1</clus>
</clustering>
</event>
<event>
10    2  0.5921424E-006  0.1933066E+03  0.7546771E-02  0.1174217E+00
          1   -1    0    0  503    0 -0.00000000000E+00  0.00000000000E+00  0.39284805751E+03  0.39284805751E+03  0.00000000000E+00 0. -1.
         21   -1    0    0  501  502  0.00000000000E+00 -0.00000000000E+00 -0.16563620763E+03  0.16563620763E+03  0.00000000000E+00 0. -1.
         23    2    1    2    0    0 -0.70751965000E+02 -0.45021691746E+02  0.13274327436E+03  0.18176055769E+03  0.91560527341E+02 0.  0.
         23    2    1    2    0    0  0.72799706847E+02  0.14520820035E+02  0.18611133643E+03  0.22191511423E+03  0.95384678257E+02 0.  0.
        -11    1    3    3    0    0 -0.83134641905E+02 -0.69573159301E+01  0.80353713668E+02  0.11582958271E+03  0.00000000000E+00 0. -1.
         11    1    3    3    0    0  0.12382676905E+02 -0.38064375816E+02  0.52389560689E+02  0.65930974987E+02  0.00000000000E+00 0.  1.
        -11    1    4    4    0    0  0.65111470835E+02 -0.31898436279E+02  0.96511364232E+02  0.12071229141E+03  0.00000000000E+00 0. -1.
         11    1    4    4    0    0  0.76882360118E+01  0.46419256315E+02  0.89599972193E+02  0.10120282282E+03  0.00000000000E+00 0.  1.
         21    1    1    2  503  502  0.84018478257E+01 -0.21152273101E+02 -0.99013877194E+02  0.10159605101E+03  0.00000000000E+00 0. -1.
          1    1    1    2  501    0 -0.10449589672E+02  0.51653144811E+02  0.73711162891E+01  0.53212542211E+02  0.00000000000E+00 0. -1.
<scales pt_clust_5="13000.00000" pt_clust_6="13000.00000" pt_clust_7="13000.00000" pt_clust_8="13000.00000" pt_clust_9="22.75983" pt_clust_10="13000.00000"></scales>
<clustering>
<clus scale="   22.760">  2  9  1 -1</clus>
<clus scale="   91.561">  5  6 -1 -1</clus>
<clus scale="   95.385">  7  8 -1 -1</clus>
<clus scale="   44.864">  7 10 -1 -1</clus>
<clus scale="  125.529">  1  5  2 -1</clus>
<clus scale="   22.760">  2  5  1 -1</clus>
</clustering>
</event>
<event>
10    2  0.5921424E-006  0.6695399E+03  0.7546771E-02  0.1038825E+00
         21   -1    0    0  501  502  0.00000000000E+00  0.00000000000E+00  0.10024226053E+04  0.10024226053E+04  0.00000000000E+00 0. -1.
          2   -1    0    0  503    0 -0.00000000000E+00 -0.00000000000E+00 -0.58845938894E+03  0.58845938894E+03  0.00000000000E+00 0. -1.
         23    2    1    2    0    0 -0.22321393157E+02  0.29578843522E+02 -0.15120740242E+03  0.18044966171E+03  0.91242804024E+02 0.  0.
         23    2    1    2    0    0 -0.30169421090E+02 -0.17854080897E+03 -0.14427993808E+03  0.24908924780E+03  0.91878933379E+02 0.  0.
        -11    1    4    4    0    0  0.18703961519E+01 -0.16688967763E+03 -0.13221937558E+03  0.21292633975E+03  0.00000000000E+00 0. -1.
         11    1    4    4    0    0 -0.32039817242E+02 -0.11651131338E+02 -0.12060562501E+02  0.36162908044E+02  0.00000000000E+00 0.  1.
        -13    1    3    3    0    0  0.23140722979E+02  0.38765219749E+02 -0.41426195453E+02  0.61272873214E+02  0.00000000000E+00 0. -1.
         13    1    3    3    0    0 -0.45462116135E+02 -0.91863762275E+01 -0.10978120697E+03  0.11917678849E+03  0.00000000000E+00 0.  1.
         21    1    1    2  503  502 -0.14968619283E+03  0.48703104577E+03  0.50564304727E+03  0.71783012414E+03  0.00000000000E+00 0. -1.
          2    1    1    2  501    0  0.20217700708E+03 -0.33806908032E+03  0.20380750962E+03  0.44351296062E+03  0.00000000000E+00 0. -1.
<scales pt_clust_5="13000.00000" pt_clust_6="13000.00000" pt_clust_7="13000.00000" pt_clust_8="13000.00000" pt_clust_9="518.26812" pt_clust_10="13000.00000"></scales>
<clustering>
<clus scale="   91.243">  7  8 -1 -1</clus>
<clus scale="   91.879">  5  6 -1 -1</clus>
<clus scale="   98.480">  2  7  1 -1</clus>
<clus scale="  383.465">  5 10 -1 -1</clus>
<clus scale="  518.268">  1  9  2 -1</clus>
<clus scale="  518.268">  1  5  2 -1</clus>
</clustering>
</event>
<event>
10    2  0.5921424E-006  0.2282011E+03  0.7546771E-02  0.1153023E+00
         21   -1    0    0  503  502  0.00000000000E+00  0.00000000000E+00  0.48800622295E+03  0.48800622295E+03  0.00000000000E+00 0. -1.
         -2   -1    0    0    0  501 -0.00000000000E+00 -0.00000000000E+00 -0.20633828583E+03  0.20633828583E+03  0.00000000000E+00 0.  1.
         23    2    1    2    0    0  0.75153272048E+02  0.49756590442E+02 -0.10406806058E+02  0.11699780601E+03  0.73867803593E+02 0.  0.
         23    2    1    2    0    0 -0.44305539370E+02  0.55449825689E+02 -0.24412047868E+02  0.12289270595E+03  0.97308813101E+02 0.  0.
        -11    1    4    4    0    0  0.15629599593E+02 -0.12548934099E+02 -0.25259922092E+02  0.32246298929E+02  0.00000000000E+00 0.  1.
         11    1    4    4    0    0 -0.59935138964E+02  0.67998759788E+02  0.84787422469E+00  0.90646407022E+02  0.00000000000E+00 0. -1.
        -11    1    3    3    0    0  0.53659870414E+02  0.62796160222E+02 -0.26971117102E+02  0.86891775152E+02  0.00000000000E+00 0. -1.
         11    1    3    3    0    0  0.21493401634E+02 -0.13039569780E+02  0.16564311044E+02  0.30106030861E+02  0.00000000000E+00 0.  1.
         21    1    1    2  503  501  0.40741841545E+02 -0.11406852485E+02  0.33267200934E+03  0.33535157631E+03  0.00000000000E+00 0. -1.
         -2    1    1    2    0  502 -0.71589574223E+02 -0.93799563645E+02 -0.16185218304E+02  0.11910242050E+03  0.00000000000E+00 0.  1.
<scales pt_clust_5="13000.00000" pt_clust_6="13000.00000" pt_clust_7="13000.00000" pt_clust_8="13000.00000" pt_clust_9="42.30856" pt_clust_10="13000.00000"></scales>
<clustering>
<clus scale="   42.309">  1  9  2 -1</clus>
<clus scale="   73.868">  7  8 -1 -1</clus>
<clus scale="   97.309">  5  6 -1 -1</clus>
<clus scale="  113.530">  5 10 -1 -1</clus>
<clus scale="  124.584">  2  7  1 -1</clus>
<clus scale="   42.309">  1  5  2 -1</clus>
</clustering>
</event>
<event>
10    2  0.5921424E-006  0.1286267E+03  0.7546771E-02  0.1244427E+00
         21   -1    0    0  503  502  0.00000000000E+00  0.00000000000E+00  0.63786875348E+02  0.63786875348E+02  0.00000000000E+00 0.  1.
          2   -1    0    0  502    0 -0.00000000000E+00 -0.00000000000E+00 -0.58392916598E+03  0.58392916598E+03  0.00000000000E+00 0. -1.
         23    2    1    2    0    0  0.18742947795E+02 -0.90614766833E+01 -0.85210659948E+02  0.12587144340E+03  0.90273779374E+02 0.  0.
         23    2    1    2    0    0 -0.44751422723E+02 -0.15331514322E+02 -0.29830044397E+03  0.31373181022E+03  0.84892571548E+02 0.  0.
        -11    1    3    3    0    0 -0.31449984113E+02  0.74591384599E+01 -0.97728600321E+01  0.33767573802E+02  0.00000000000E+00 0.  1.
         11    1    3    3    0    0  0.50192931908E+02 -0.16520615143E+02 -0.75437799916E+02  0.92103869596E+02  0.00000000000E+00 0. -1.
        -13    1    4    4    0    0 -0.47077957031E+02  0.13881795925E+02 -0.26441423416E+03  0.26893107950E+03  0.00000000000E+00 0.  1.
         13    1    4    4    0    0  0.23265343076E+01 -0.29213310247E+02 -0.33886209811E+02  0.44800730717E+02  0.00000000000E+00 0. -1.
         21    1    1    2  503  501  0.10745095181E+01  0.44880064936E+02  0.19308340534E+02  0.48869078296E+02  0.00000000000E+00 0.  1.
          2    1    1    2  501    0  0.24933965410E+02 -0.20487073930E+02 -0.15593952725E+03  0.15924370941E+03  0.00000000000E+00 0. -1.
<scales pt_clust_5="13000.00000" pt_clust_6="13000.00000" pt_clust_7="13000.00000" pt_clust_8="13000.00000" pt_clust_9="44.89293" pt_clust_10="13000.00000"></scales>
<clustering>
<clus scale="   44.893">  1  9  2 -1</clus>
<clus scale="   84.893">  7  8 -1 -1</clus>
<clus scale="   30.795">  7 10 -1 -1</clus>
<clus scale="   90.274">  5  6 -1 -1</clus>
<clus scale="   94.858">  2  5  1 -1</clus>
<clus scale="   44.893">  1  5  2 -1</clus>
</clustering>
</event>
<event>
10    2  0.5921424E-006  0.2217614E+03  0.7546771E-02  0.1170606E+00
         21   -1    0    0  501  502  0.00000000000E+00  0.00000000000E+00  0.35359013459E+03  0.35359013459E+03  0.00000000000E+00 0.  1.
          1   -1    0    0  503    0 -0.00000000000E+00 -0.00000000000E+00 -0.25446742750E+03  0.25446742750E+03  0.00000000000E+00 0. -1.
         23    2    1    2    0    0  0.12536753985E+02 -0.42347991390E+01 -0.15577937611E+03  0.18005257327E+03  0.89311877118E+02 0.  0.
         23    2    1    2    0    0 -0.51936720726E+02  0.54813209871E+02  0.10481949887E+03  0.15938892135E+03  0.93358395270E+02 0.  0.
        -11    1    3    3    0    0  0.31332541890E+02 -0.26795176325E+02 -0.14153222978E+03  0.14741465911E+03  0.00000000000E+00 0. -1.
         11    1    3    3    0    0 -0.18795787905E+02  0.22560377186E+02 -0.14247146335E+02  0.32637914155E+02  0.00000000000E+00 0.  1.
        -13    1    4    4    0    0 -0.45253682476E+02  0.78792900573E+02  0.97862907314E+02  0.13354162492E+03  0.00000000000E+00 0.  1.
         13    1    4    4    0    0 -0.66830382500E+01 -0.23979690702E+02  0.69565915610E+01  0.25847296427E+02  0.00000000000E+00 0. -1.
         21    1    1    2  503  502 -0.13785803266E+02 -0.27621906652E+02  0.19367354679E+03  0.19611848670E+03  0.00000000000E+00 0.  1.
          1    1    1    2  501    0  0.53185770007E+02 -0.22956504079E+02 -0.43590962458E+02  0.72497580779E+02  0.00000000000E+00 0. -1.
<scales pt_clust_5="13000.00000" pt_clust_6="13000.00000" pt_clust_7="13000.00000" pt_clust_8="13000.00000" pt_clust_9="30.87099" pt_clust_10="13000.00000"></scales>
<clustering>
<clus scale="   30.871">  1  9  2 -1</clus>
<clus scale="   89.312">  5  6 -1 -1</clus>
<clus scale="   90.270">  2  5  1 -1</clus>
<clus scale="   93.358">  7  8 -1 -1</clus>
<clus scale="   66.670">  7 10 -1 -1</clus>
<clus scale="   30.871">  1  5  2 -1</clus>
</clustering>
</event>
<event>
10    2  0.5921424E-006  0.1782837E+03  0.7546771E-02  0.1183387E+00
          2   -1    0    0  503    0 -0.00000000000E+00  0.00000000000E+00  0.20789125509E+03  0.20789125509E+03  0.00000000000E+00 0. -1.
         21   -1    0    0  501  502  0.00000000000E+00 -0.00000000000E+00 -0.31753331902E+03  0.31753331902E+03  0.00000000000E+00 0. -1.
         23    2    1    2    0    0  0.10525473897E+03  0.10251805116E+02  0.11263962732E+03  0.18100767328E+03  0.94299695444E+02 0.  0.
         23    2    1    2    0    0  0.20351536610E+02  0.95133752118E+01 -0.60661494415E+02  0.11200859275E+03  0.91440792840E+02 0.  0.
        -11    1    4    4    0    0  0.45248177695E+02  0.24716212440E+02 -0.85146810569E+01  0.52256947247E+02  0.00000000000E+00 0. -1.
         11    1    4    4    0    0 -0.24896641085E+02 -0.15202837229E+02 -0.52146813358E+02  0.59751645504E+02  0.00000000000E+00 0.  1.
        -11    1    3    3    0    0  0.10740470305E+03  0.37619453734E+02  0.84914318816E+02  0.14199096829E+03  0.00000000000E+00 0.  1.
         11    1    3    3    0    0 -0.21499640854E+01 -0.27367648618E+02  0.27725308507E+02  0.39016704990E+02  0.00000000000E+00 0. -1.
         21    1    1    2  503  502 -0.75918647143E+02  0.15772273636E+02 -0.15190731362E+03  0.17055274120E+03  0.00000000000E+00 0. -1.
          2    1    1    2  501    0 -0.49687628434E+02 -0.35537453964E+02 -0.97128832225E+01  0.61855566881E+02  0.00000000000E+00 0. -1.
<scales pt_clust_5="13000.00000" pt_clust_6="13000.00000" pt_clust_7="13000.00000" pt_clust_8="13000.00000" pt_clust_9="77.53970" pt_clust_10="13000.00000"></scales>
<clustering>
<clus scale="   77.540">  2  9  1 -1</clus>
<clus scale="   91.441">  5  6 -1 -1</clus>
<clus scale="   74.280">  5 10 -1 -1</clus>
<clus scale="   94.300">  7  8 -1 -1</clus>
<clus scale="  130.151">  1  7  2 -1</clus>
<clus scale="   77.540">  2  5  1 -1</clus>
</clustering>
</event>
<event>
10    2  0.5921424E-006  0.1764355E+03  0.7546771E-02  0.1186700E+00
          1   -1    0    0  503    0 -0.00000000000E+00  0.00000000000E+00  0.18480661877E+03  0.18480661877E+03  0.00000000000E+00 0. -1.
         21   -1    0    0  501  502  0.00000000000E+00 -0.00000000000E+00 -0.42780606616E+03  0.42780606616E+03  0.00000000000E+00 0.  1.
         23    2    1    2    0    0 -0.89203861763E+02  0.41208557799E+02  0.10681357852E+03  0.16709052840E+03  0.82792692532E+02 0.  0.
         23    2    1    2    0    0  0.93657616526E+02 -0.45100238253E+01 -0.55576784704E+02  0.14173795328E+03  0.90602312075E+02 0.  0.
        -11    1    3    3    0    0 -0.25428420007E+02  0.45653208486E+02  0.84547864983E+02  0.99393970956E+02  0.00000000000E+00 0.  1.
         11    1    3    3    0    0 -0.63775441756E+02 -0.44446506880E+01  0.22265713536E+02  0.67696557447E+02  0.00000000000E+00 0. -1.
        -13    1    4    4    0    0  0.91427659078E+00  0.31019154254E+02 -0.14713670760E+02  0.34344081580E+02  0.00000000000E+00 0. -1.
         13    1    4    4    0    0  0.92743339935E+02 -0.35529178079E+02 -0.40863113943E+02  0.10739387170E+03  0.00000000000E+00 0.  1.
         21    1    1    2  503  502  0.12508092953E+02 -0.50155695235E+02 -0.23742204691E+03  0.24298410341E+03  0.00000000000E+00 0.  1.
          1    1    1    2  501    0 -0.16961847716E+02  0.13457161262E+02 -0.56814194292E+02  0.60800099837E+02  0.00000000000E+00 0. -1.
<scales pt_clust_5="13000.00000" pt_clust_6="13000.00000" pt_clust_7="13000.00000" pt_clust_8="13000.00000" pt_clust_9="51.69184" pt_clust_10="13000.00000"></scales>
<clustering>
<clus scale="   51.692">  2  9  1 -1</clus>
<clus scale="   82.793">  5  6 -1 -1</clus>
<clus scale="   90.602">  7  8 -1 -1</clus>
<clus scale="   13.236">  7 10 -1 -1</clus>
<clus scale="  124.726">  1  5  2 -1</clus>
<clus scale="   51.692">  2  5  1 -1</clus>
</clustering>
</event>
<event>
10    2  0.5921424E-006  0.1271159E+03  0.7546771E-02  0.1244841E+00
         21   -1    0    0  501  502  0.00000000000E+00  0.00000000000E+00  0.33565951933E+03  0.33565951933E+03  0.00000000000E+00 0.  1.
         -1   -1    0    0    0  501 -0.00000000000E+00 -0.00000000000E+00 -0.11570095213E+03  0.11570095213E+03  0.00000000000E+00 0.  1.
         23    2    1    2    0    0 -0.28244604254E+02  0.31787377308E+02 -0.55835780393E+02  0.11397808997E+03  0.89806322693E+02 0.  0.
         23    2    1    2    0    0 -0.20769942687E+02 -0.11241835036E+02  0.66244425571E+02  0.11437384452E+03  0.90195803767E+02 0.  0.
        -11    1    4    4    0    0 -0.24359824596E+01  0.35753251424E+02  0.69136824669E+01  0.36496958821E+02  0.00000000000E+00 0. -1.
         11    1    4    4    0    0 -0.18333960228E+02 -0.46995086461E+02  0.59330743104E+02  0.77876885700E+02  0.00000000000E+00 0.  1.
        -13    1    3    3    0    0  0.24919950525E+02 -0.13999192160E+02 -0.22075152112E+02  0.36115005968E+02  0.00000000000E+00 0. -1.
         13    1    3    3    0    0 -0.53164554779E+02  0.45786569468E+02 -0.33760628280E+02  0.77863084003E+02  0.00000000000E+00 0.  1.
         21    1    1    2  503  502  0.20727080603E+02 -0.14904530974E+02  0.17968104549E+03  0.18148563310E+03  0.00000000000E+00 0. -1.
         -1    1    1    2    0  503  0.28287466339E+02 -0.56410112971E+01  0.29868876535E+02  0.41522903870E+02  0.00000000000E+00 0.  1.
<scales pt_clust_5="13000.00000" pt_clust_6="13000.00000" pt_clust_7="13000.00000" pt_clust_8="13000.00000" pt_clust_9="25.52953" pt_clust_10="13000.00000"></scales>
<clustering>
<clus scale="   25.530">  1  9  2 -1</clus>
<clus scale="   89.806">  7  8 -1 -1</clus>
<clus scale="   90.196">  5  6 -1 -1</clus>
<clus scale="   34.281">  5 10 -1 -1</clus>
<clus scale="   97.464">  2  7  1 -1</clus>
<clus scale="   25.530">  1  5  2 -1</clus>
</clustering>
</event>
<event>
10    2  0.5921424E-006  0.2970472E+03  0.7546771E-02  0.1129890E+00
         21   -1    0    0  503  502  0.00000000000E+00  0.00000000000E+00  0.16306246801E+03  0.16306246801E+03  0.00000000000E+00 0.  1.
         -1   -1    0    0    0  501 -0.00000000000E+00 -0.00000000000E+00 -0.47378638137E+03  0.47378638137E+03  0.00000000000E+00 0.  1.
         23    2    1    2    0    0 -0.18099078998E+02  0.25093926942E+02 -0.14749022685E+03  0.17570639291E+03  0.90344272982E+02 0.  0.
         23    2    1    2    0    0 -0.31591349888E+02 -0.12487440516E+03 -0.17617052401E+03  0.23669114714E+03  0.91624315272E+02 0.  0.
        -11    1    4    4    0    0  0.23895038147E+02 -0.82028577873E+02 -0.11748344463E+03  0.14526534410E+03  0.00000000000E+00 0.  1.
         11    1    4    4    0    0 -0.55486388035E+02 -0.42845827289E+02 -0.58687079385E+02  0.91425803032E+02  0.00000000000E+00 0. -1.
        -13    1    3    3    0    0  0.25593848376E+02  0.24888990377E+02 -0.19965133126E+02  0.40903709580E+02  0.00000000000E+00 0.  1.
         13    1    3    3    0    0 -0.43692927374E+02  0.20493656524E+00 -0.12752509373E+03  0.13480268333E+03  0.00000000000E+00 0. -1.
         21    1    1    2  503  501 -0.60458118931E+02  0.22810761795E+02  0.53709718825E+02  0.84025287233E+02  0.00000000000E+00 0. -1.
         -1    1    1    2    0  502  0.11014854782E+03  0.76969716426E+02 -0.40772881325E+02  0.14042602211E+03  0.00000000000E+00 0.  1.
<scales pt_clust_5="13000.00000" pt_clust_6="13000.00000" pt_clust_7="13000.00000" pt_clust_8="13000.00000" pt_clust_9="64.61822" pt_clust_10="13000.00000"></scales>
<clustering>
<clus scale="   64.618">  1  9  2 -1</clus>
<clus scale="   90.344">  7  8 -1 -1</clus>
<clus scale="   91.624">  5  6 -1 -1</clus>
<clus scale="   98.551">  2  7  1 -1</clus>
<clus scale="  119.999">  5 10 -1 -1</clus>
<clus scale="   64.618">  1  5  2 -1</clus>
</clustering>
</event>
<event>
10    2  0.5921424E-006  0.1630526E+03  0.7546771E-02  0.1201284E+00
         21   -1    0    0  503  502  0.00000000000E+00  0.00000000000E+00  0.17034440077E+04  0.17034440077E+04  0.00000000000E+00 0.  1.
         -1   -1    0    0    0  501 -0.00000000000E+00 -0.00000000000E+00 -0.30983698696E+02  0.30983698696E+02  0.00000000000E+00 0.  1.
         23    2    1    2    0    0 -0.70409602455E+02 -0.20944101498E+02  0.21360873971E+03  0.24451805404E+03  0.93617399921E+02 0.  0.
         23    2    1    2    0    0  0.16900326060E+02  0.22900596711E+02  0.25783566147E+03  0.27495578009E+03  0.91166848850E+02 0.  0.
        -11    1    3    3    0    0 -0.76904026365E+02 -0.48082769466E+02  0.15453092829E+03  0.17918144376E+03  0.00000000000E+00 0.  1.
         11    1    3    3    0    0  0.64944239095E+01  0.27138667968E+02  0.59077811419E+02  0.65336610282E+02  0.00000000000E+00 0. -1.
        -13    1    4    4    0    0 -0.30689924528E+02 -0.69478012845E+01  0.15107802883E+03  0.15432016785E+03  0.00000000000E+00 0. -1.
         13    1    4    4    0    0  0.47590250588E+02  0.29848397995E+02  0.10675763264E+03  0.12063561224E+03  0.00000000000E+00 0.  1.
         21    1    1    2  503  501  0.68855350650E+02 -0.75729244485E+02  0.83594253808E+03  0.84218519623E+03  0.00000000000E+00 0.  1.
         -1    1    1    2    0  502 -0.15346074255E+02  0.73772749272E+02  0.36507336976E+03  0.37276867604E+03  0.00000000000E+00 0.  1.
<scales pt_clust_5="13000.00000" pt_clust_6="13000.00000" pt_clust_7="13000.00000" pt_clust_8="13000.00000" pt_clust_9="102.35222" pt_clust_10="13000.00000"></scales>
<clustering>
<clus scale="   91.167">  7  8 -1 -1</clus>
<clus scale="   75.352">  7 10 -1 -1</clus>
<clus scale="   93.617">  5  6 -1 -1</clus>
<clus scale="  102.352">  1  9  2 -1</clus>
<clus scale="  114.748">  2  5  1 -1</clus>
<clus scale="  102.352">  1  5  2 -1</clus>
</clustering>
</event>
<event>
10    2  0.5921424E-006  0.1856800E+03  0.7546771E-02  0.1187316E+00
          1   -1    0    0  502    0 -0.00000000000E+00  0.00000000000E+00  0.19712631342E+03  0.19712631342E+03  0.00000000000E+00 0. -1.
         21   -1    0    0  503  502  0.00000000000E+00 -0.00000000000E+00 -0.27249217414E+03  0.27249217414E+03  0.00000000000E+00 0. -1.
         23    2    1    2    0    0  0.47165335999E+02 -0.20854695612E+02 -0.88913977544E+02  0.13809264387E+03  0.92219280189E+02 0.  0.
         23    2    1    2    0    0  0.18827498004E+01 -0.11369788909E+02  0.13529900586E+03  0.16424855952E+03  0.92406447122E+02 0.  0.
        -13    1    3    3    0    0  0.16330094434E+01  0.26986013111E+02  0.36779354374E+00  0.27037878903E+02  0.00000000000E+00 0.  1.
         13    1    3    3    0    0  0.45532326556E+02 -0.47840708723E+02 -0.89281771088E+02  0.11105476496E+03  0.00000000000E+00 0. -1.
        -13    1    4    4    0    0 -0.17683468087E+02  0.36616141434E+02  0.69126447285E+02  0.80199205553E+02  0.00000000000E+00 0.  1.
         13    1    4    4    0    0  0.19566217888E+02 -0.47985930343E+02  0.66172558576E+02  0.84049353964E+02  0.00000000000E+00 0. -1.
         21    1    1    2  503  501  0.59541426287E+01  0.26077549758E+02 -0.10658802609E+03  0.10989311954E+03  0.00000000000E+00 0. -1.
          1    1    1    2  501    0 -0.55002228428E+02  0.61469347634E+01 -0.15162862942E+02  0.57384164642E+02  0.00000000000E+00 0. -1.
<scales pt_clust_5="13000.00000" pt_clust_6="13000.00000" pt_clust_7="13000.00000" pt_clust_8="13000.00000" pt_clust_9="26.74865" pt_clust_10="13000.00000"></scales>
<clustering>
<clus scale="   26.749">  2  9  1 -1</clus>
<clus scale="   92.219">  5  6 -1 -1</clus>
<clus scale="   92.406">  7  8 -1 -1</clus>
<clus scale="   54.992">  7 10 -1 -1</clus>
<clus scale="  105.556">  1  5  2 -1</clus>
<clus scale="   26.749">  2  5  1 -1</clus>
</clustering>
</event>
<event>
10    2  0.5921424E-006  0.2973042E+03  0.7546771E-02  0.1113210E+00
         21   -1    0    0  503  502  0.00000000000E+00  0.00000000000E+00  0.12307356965E+03  0.12307356965E+03  0.00000000000E+00 0. -1.
         -4   -1    0    0    0  501 -0.00000000000E+00 -0.00000000000E+00 -0.47637985678E+03  0.47637985678E+03  0.00000000000E+00 0.  1.
         23    2    1    2    0    0  0.29506265621E+02  0.11643288962E+03 -0.51895579010E+02  0.16439041387E+03  0.99517935860E+02 0.  0.
         23    2    1    2    0    0 -0.88096387941E+00 -0.16172930674E+03 -0.28014727577E+03  0.33678306591E+03  0.93718688663E+02 0.  0.
        -11    1    3    3    0    0 -0.21713360229E+02  0.26135800545E+02  0.18761280545E+02  0.38814117667E+02  0.00000000000E+00 0. -1.
         11    1    3    3    0    0  0.51219625851E+02  0.90297089071E+02 -0.70656859555E+02  0.12557629621E+03  0.00000000000E+00 0.  1.
        -13    1    4    4    0    0 -0.45463348430E+02 -0.10129595241E+03 -0.15166725344E+03  0.18796473550E+03  0.00000000000E+00 0. -1.
         13    1    4    4    0    0  0.44582384550E+02 -0.60433354331E+02 -0.12848002233E+03  0.14881833041E+03  0.00000000000E+00 0.  1.
         21    1    1    2  503  501 -0.20333490956E+00 -0.20046800738E+02 -0.18008909980E+02  0.26948773694E+02  0.00000000000E+00 0. -1.
         -4    1    1    2    0  502 -0.28421966832E+02  0.65343217865E+02 -0.32545223671E+01  0.71331172957E+02  0.00000000000E+00 0.  1.
<scales pt_clust_5="13000.00000" pt_clust_6="13000.00000" pt_clust_7="13000.00000" pt_clust_8="13000.00000" pt_clust_9="20.04784" pt_clust_10="13000.00000"></scales>
<clustering>
<clus scale="   20.048">  1  9  2 -1</clus>
<clus scale="   93.719">  7  8 -1 -1</clus>
<clus scale="   66.046">  7 10 -1 -1</clus>
<clus scale="   99.518">  5  6 -1 -1</clus>
<clus scale="  149.003">  2  5  1 -1</clus>
<clus scale="   20.048">  1  5  2 -1</clus>
</clustering>
</event>
<event>
10    2  0.5921424E-006  0.2237200E+03  0.7546771E-02  0.1166273E+00
          2   -1    0    0  503    0 -0.00000000000E+00  0.00000000000E+00  0.36592652030E+03  0.36592652030E+03  0.00000000000E+00 0. -1.
         21   -1    0    0  501  502  0.00000000000E+00 -0.00000000000E+00 -0.10041632508E+03  0.10041632508E+03  0.00000000000E+00 0.  1.
         23    2    1    2    0    0 -0.37694389725E+02 -0.20451973570E+02  0.11712013556E+03  0.15353409051E+03  0.89534577433E+02 0.  0.
         23    2    1    2    0    0  0.71214917298E+01  0.10076532811E+03  0.72132945941E+02  0.13620602107E+03  0.56076298857E+02 0.  0.
        -11    1    4    4    0    0  0.57301088631E+01  0.37991998154E+02  0.61511698109E+02  0.72525271979E+02  0.00000000000E+00 0. -1.
         11    1    4    4    0    0  0.13913828667E+01  0.62773329955E+02  0.10621247832E+02  0.63680749096E+02  0.00000000000E+00 0.  1.
        -13    1    3    3    0    0  0.63409234207E+01 -0.46195457788E+02  0.69895570221E+02  0.84021535136E+02  0.00000000000E+00 0.  1.
         13    1    3    3    0    0 -0.44035313145E+02  0.25743484218E+02  0.47224565343E+02  0.69512555379E+02  0.00000000000E+00 0. -1.
         21    1    1    2  503  502  0.12469516845E+02  0.22984264193E+02 -0.21028302933E+02  0.33555249591E+02  0.00000000000E+00 0. -1.
          2    1    1    2  501    0  0.18103381150E+02 -0.10329761873E+03  0.97285416652E+02  0.14304748421E+03  0.00000000000E+00 0. -1.
<scales pt_clust_5="13000.00000" pt_clust_6="13000.00000" pt_clust_7="13000.00000" pt_clust_8="13000.00000" pt_clust_9="26.14891" pt_clust_10="13000.00000"></scales>
<clustering>
<clus scale="   26.149">  2  9  1 -1</clus>
<clus scale="   56.076">  5  6 -1 -1</clus>
<clus scale="   89.535">  7  8 -1 -1</clus>
<clus scale="   97.107">  1  7  2 -1</clus>
<clus scale="  103.140">  5 10 -1 -1</clus>
<clus scale="   26.149">  2  5  1 -1</clus>
</clustering>
</event>
<event>
10    2  0.5921424E-006  0.2509433E+03  0.7546771E-02  0.1149590E+00
          1   -1    0    0  502    0 -0.00000000000E+00  0.00000000000E+00  0.24648960499E+03  0.24648960499E+03  0.00000000000E+00 0. -1.
         21   -1    0    0  503  502  0.00000000000E+00 -0.00000000000E+00 -0.28416572131E+03  0.28416572131E+03  0.00000000000E+00 0.  1.
         23    2    1    2    0    0  0.40001679188E+02 -0.17855420947E+02  0.13377828001E+03  0.16760735788E+03  0.90976083781E+02 0.  0.
         23    2    1    2    0    0 -0.45604783738E+01  0.58712814007E+02 -0.14693649036E+03  0.18055560946E+03  0.86844708618E+02 0.  0.
        -11    1    4    4    0    0  0.32592137269E+02  0.32246157302E+01 -0.77912056874E+02  0.84515881139E+02  0.00000000000E+00 0. -1.
         11    1    4    4    0    0 -0.37152615643E+02  0.55488198277E+02 -0.69024433491E+02  0.96039728320E+02  0.00000000000E+00 0.  1.
        -13    1    3    3    0    0 -0.13794943808E+02 -0.39314083506E+02  0.42589870954E+02  0.59580153948E+02  0.00000000000E+00 0.  1.
         13    1    3    3    0    0  0.53796622996E+02  0.21458662560E+02  0.91188409052E+02  0.10802720394E+03  0.00000000000E+00 0. -1.
         21    1    1    2  503  501  0.81466595489E+01 -0.20584550394E+02 -0.94795637045E+02  0.97346312614E+02  0.00000000000E+00 0.  1.
          1    1    1    2  501    0 -0.43587860363E+02 -0.20272842666E+02  0.70277731092E+02  0.85146046345E+02  0.00000000000E+00 0. -1.
<scales pt_clust_5="13000.00000" pt_clust_6="13000.00000" pt_clust_7="13000.00000" pt_clust_8="13000.00000" pt_clust_9="22.13802" pt_clust_10="13000.00000"></scales>
<clustering>
<clus scale="   22.138">  2  9  1 -1</clus>
<clus scale="   86.845">  5  6 -1 -1</clus>
<clus scale="   48.131">  5 10 -1 -1</clus>
<clus scale="   90.976">  7  8 -1 -1</clus>
<clus scale="  101.608">  1  7  2 -1</clus>
<clus scale="   22.138">  2  5  1 -1</clus>
</clustering>
</event>
<event>
10    2  0.5921424E-006  0.1720943E+03  0.7546771E-02  0.1202063E+00
          1   -1    0    0  503    0 -0.00000000000E+00  0.00000000000E+00  0.87412595837E+03  0.87412595837E+03  0.00000000000E+00 0. -1.
         21   -1    0    0  501  502  0.00000000000E+00 -0.00000000000E+00 -0.10961771005E+03  0.10961771005E+03  0.00000000000E+00 0. -1.
         23    2    1    2    0    0  0.89730468623E+01 -0.24964529922E+02  0.25641284790E+03  0.27376952998E+03  0.92187112191E+02 0.  0.
         23    2    1    2    0    0 -0.23471494243E+02 -0.24272717895E+02  0.31684324010E+03  0.33066997200E+03  0.88390699206E+02 0.  0.
        -13    1    3    3    0    0 -0.54804173838E+01  0.34065437812E+02  0.78023403961E+02  0.85312019046E+02  0.00000000000E+00 0.  1.
         13    1    3    3    0    0  0.14453464246E+02 -0.59029967734E+02  0.17838944394E+03  0.18845751094E+03  0.00000000000E+00 0. -1.
        -13    1    4    4    0    0 -0.14537631989E+02  0.26057369496E+02  0.44543799855E+02  0.53614171209E+02  0.00000000000E+00 0.  1.
         13    1    4    4    0    0 -0.89338622540E+01 -0.50330087391E+02  0.27229944025E+03  0.27705580079E+03  0.00000000000E+00 0. -1.
         21    1    1    2  503  502 -0.54750147258E+02  0.40675602050E+01 -0.79272477017E+02  0.96427430139E+02  0.00000000000E+00 0. -1.
          1    1    1    2  501    0  0.69248594639E+02  0.45169687612E+02  0.27052463734E+03  0.28287673631E+03  0.00000000000E+00 0. -1.
<scales pt_clust_5="13000.00000" pt_clust_6="13000.00000" pt_clust_7="13000.00000" pt_clust_8="13000.00000" pt_clust_9="54.90104" pt_clust_10="13000.00000"></scales>
<clustering>
<clus scale="   54.901">  2  9  1 -1</clus>
<clus scale="   88.391">  7  8 -1 -1</clus>
<clus scale="   70.931">  7 10 -1 -1</clus>
<clus scale="   92.187">  5  6 -1 -1</clus>
<clus scale="   95.961">  1  5  2 -1</clus>
<clus scale="   54.901">  2  5  1 -1</clus>
</clustering>
</event>
<event>
10    2  0.5921424E-006  0.4630042E+03  0.7546771E-02  0.1033739E+00
          2   -1    0    0  502    0 -0.00000000000E+00  0.00000000000E+00  0.14680396668E+04  0.14680396668E+04  0.00000000000E+00 0. -1.
         21   -1    0    0  503  502  0.00000000000E+00 -0.00000000000E+00 -0.19766846287E+03  0.19766846287E+03  0.00000000000E+00 0. -1.
         23    2    1    2    0    0 -0.12180316925E+03  0.30750969488E+03  0.10612358101E+04  0.11153545341E+04  0.91630058301E+02 0.  0.
         23    2    1    2    0    0  0.33819405559E+02  0.34575778832E+01  0.14475768589E+03  0.17507604230E+03  0.92418212090E+02 0.  0.
        -11    1    3    3    0    0 -0.80252953584E+02  0.11567257840E+03  0.54998615111E+03  0.56771951558E+03  0.00000000000E+00 0.  1.
         11    1    3    3    0    0 -0.41550215668E+02  0.19183711648E+03  0.51124965897E+03  0.54763501849E+03  0.00000000000E+00 0. -1.
        -13    1    4    4    0    0 -0.27214383842E+02  0.21335461675E+02  0.44660170012E+02  0.56483231124E+02  0.00000000000E+00 0. -1.
         13    1    4    4    0    0  0.61033789401E+02 -0.17877883791E+02  0.10009751587E+03  0.11859281117E+03  0.00000000000E+00 0.  1.
         21    1    1    2  503  501 -0.27269434043E+02  0.72853425948E+01 -0.75978952122E+01  0.29230570665E+02  0.00000000000E+00 0. -1.
          2    1    1    2  501    0  0.11525319774E+03 -0.31825261535E+03  0.71975603221E+02  0.34604698269E+03  0.00000000000E+00 0. -1.
<scales pt_clust_5="13000.00000" pt_clust_6="13000.00000" pt_clust_7="13000.00000" pt_clust_8="13000.00000" pt_clust_9="28.22584" pt_clust_10="13000.00000"></scales>
<clustering>
<clus scale="   28.226">  2  9  1 -1</clus>
<clus scale="   91.630">  5  6 -1 -1</clus>
<clus scale="   92.418">  7  8 -1 -1</clus>
<clus scale="  326.624">  7 10 -1 -1</clus>
<clus scale="  345.676">  1  5  2 -1</clus>
<clus scale="   28.226">  2  5  1 -1</clus>
</clustering>
</event>
<event>
10    2  0.5921424E-006  0.1604641E+03  0.7546771E-02  0.1216798E+00
          4   -1    0    0  503    0 -0.00000000000E+00  0.00000000000E+00  0.50104923150E+02  0.50104923150E+02  0.00000000000E+00 0. -1.
         21   -1    0    0  501  502  0.00000000000E+00 -0.00000000000E+00 -0.41904988364E+03  0.41904988364E+03  0.00000000000E+00 0.  1.
         23    2    1    2    0    0  0.58582648408E+01  0.96715101233E+01 -0.11292244735E+03  0.14052098382E+03  0.82866219912E+02 0.  0.
         23    2    1    2    0    0 -0.11448503359E+02 -0.12255373543E+02 -0.21307687516E+03  0.23346230693E+03  0.93923541357E+02 0.  0.
        -11    1    3    3    0    0 -0.38018810753E+02 -0.22065194809E+01 -0.48155292578E+02  0.61394062437E+02  0.00000000000E+00 0.  1.
         11    1    3    3    0    0  0.43877075593E+02  0.11878029604E+02 -0.64767154770E+02  0.79126921379E+02  0.00000000000E+00 0. -1.
        -13    1    4    4    0    0 -0.47634026529E+02 -0.24441183198E+02 -0.91299463941E+02  0.10583933123E+03  0.00000000000E+00 0.  1.
         13    1    4    4    0    0  0.36185523170E+02  0.12185809655E+02 -0.12177741122E+03  0.12762297570E+03  0.00000000000E+00 0. -1.
         21    1    1    2  503  502  0.59290099565E+01  0.39053148739E+02 -0.43417816150E+02  0.58697600844E+02  0.00000000000E+00 0.  1.
          4    1    1    2  501    0 -0.33877143852E+00 -0.36469285320E+02  0.47217816559E+00  0.36473915200E+02  0.00000000000E+00 0. -1.
<scales pt_clust_5="13000.00000" pt_clust_6="13000.00000" pt_clust_7="13000.00000" pt_clust_8="13000.00000" pt_clust_9="39.50067" pt_clust_10="13000.00000"></scales>
<clustering>
<clus scale="   39.501">  2  9  1 -1</clus>
<clus scale="   82.866">  5  6 -1 -1</clus>
<clus scale="   86.393">  1  5  2 -1</clus>
<clus scale="   93.924">  7  8 -1 -1</clus>
<clus scale="   22.904">  7 10 -1 -1</clus>
<clus scale="   39.501">  2  5  1 -1</clus>
</clustering>
</event>
<event>
10    2  0.5921424E-006  0.7440356E+03  0.7546771E-02  0.1032165E+00
         21   -1    0    0  503  502  0.00000000000E+00  0.00000000000E+00  0.42221214689E+03  0.42221214689E+03  0.00000000000E+00 0.  1.
         -3   -1    0    0    0  501 -0.00000000000E+00 -0.00000000000E+00 -0.58211014954E+03  0.58211014954E+03  0.00000000000E+00 0.  1.
         23    2    1    2    0    0 -0.15122930664E+02 -0.47707944662E+02 -0.59625622656E+02  0.10568410325E+03  0.71478414827E+02 0.  0.
         23    2    1    2    0    0  0.33219760555E+03  0.16285544592E+03 -0.22050897295E+03  0.44037435987E+03  0.91805360828E+02 0.  0.
        -11    1    3    3    0    0  0.24245377187E+02 -0.38478068476E+02 -0.22292162109E+02  0.50649191110E+02  0.00000000000E+00 0.  1.
         11    1    3    3    0    0 -0.39368307851E+02 -0.92298761862E+01 -0.37333460547E+02  0.55034912137E+02  0.00000000000E+00 0. -1.
        -13    1    4    4    0    0  0.18739383482E+03  0.13045325338E+03 -0.16599743742E+03  0.28229355267E+03  0.00000000000E+00 0.  1.
         13    1    4    4    0    0  0.14480377073E+03  0.32402192541E+02 -0.54511535525E+02  0.15808080720E+03  0.00000000000E+00 0. -1.
         21    1    1    2  503  501 -0.12790361876E+03  0.75907222396E+02 -0.27847708599E+02  0.15131667779E+03  0.00000000000E+00 0.  1.
         -3    1    1    2    0  502 -0.18917105613E+03 -0.19105472366E+03  0.14808430156E+03  0.30694715551E+03  0.00000000000E+00 0.  1.
<scales pt_clust_5="13000.00000" pt_clust_6="13000.00000" pt_clust_7="13000.00000" pt_clust_8="13000.00000" pt_clust_9="146.95797" pt_clust_10="13000.00000"></scales>
<clustering>
<clus scale="   71.478">  5  6 -1 -1</clus>
<clus scale="   87.258">  2  5  1 -1</clus>
<clus scale="   91.805">  7  8 -1 -1</clus>
<clus scale="  146.958">  1  9  2 -1</clus>
<clus scale="  319.858">  7 10 -1 -1</clus>
<clus scale="  146.958">  1  5  2 -1</clus>
</clustering>
</event>
<event>
10    2  0.5921424E-006  0.1776072E+03  0.7546771E-02  0.1186443E+00
         21   -1    0    0  501  502  0.00000000000E+00  0.00000000000E+00  0.88246826257E+02  0.88246826257E+02  0.00000000000E+00 0. -1.
          1   -1    0    0  503    0 -0.00000000000E+00 -0.00000000000E+00 -0.34941804091E+03  0.34941804091E+03  0.00000000000E+00 0. -1.
         23    2    1    2    0    0  0.69503654515E+02  0.27825784489E+02 -0.14542676918E+02  0.11892903235E+03  0.91255646455E+02 0.  0.
         23    2    1    2    0    0 -0.34352838150E+02 -0.86494473788E+01 -0.21902404326E+03  0.23981179978E+03  0.91012292358E+02 0.  0.
        -11    1    3    3    0    0  0.46959028882E+02  0.61253508692E+02 -0.14901149333E+02  0.78607804778E+02  0.00000000000E+00 0. -1.
         11    1    3    3    0    0  0.22544625633E+02 -0.33427724202E+02  0.35847241551E+00  0.40321227570E+02  0.00000000000E+00 0.  1.
        -13    1    4    4    0    0 -0.37348453085E+02  0.15461814722E+02 -0.21006054204E+03  0.21391448287E+03  0.00000000000E+00 0.  1.
         13    1    4    4    0    0  0.29956149355E+01 -0.24111262101E+02 -0.89635012248E+01  0.25897316911E+02  0.00000000000E+00 0. -1.
         21    1    1    2  503  502  0.16528943028E+02 -0.11986426662E+02 -0.14745029177E+02  0.25185239073E+02  0.00000000000E+00 0. -1.
          1    1    1    2  501    0 -0.51679759393E+02 -0.71899104488E+01 -0.12859465292E+02  0.53738795956E+02  0.00000000000E+00 0. -1.
<scales pt_clust_5="13000.00000" pt_clust_6="13000.00000" pt_clust_7="13000.00000" pt_clust_8="13000.00000" pt_clust_9="20.41765" pt_clust_10="13000.00000"></scales>
<clustering>
<clus scale="   20.418">  1  9  2 -1</clus>
<clus scale="   91.012">  7  8 -1 -1</clus>
<clus scale="   48.679">  7 10 -1 -1</clus>
<clus scale="   91.256">  5  6 -1 -1</clus>
<clus scale="  122.973">  2  5  1 -1</clus>
<clus scale="   20.418">  1  5  2 -1</clus>
</clustering>
</event>
<event>
10    2  0.1191270E-005  0.2805883E+03  0.7546771E-02  0.1134750E+00
          3   -1    0    0  503    0 -0.00000000000E+00  0.00000000000E+00  0.54963634041E+03  0.54963634041E+03  0.00000000000E+00 0. -1.
         21   -1    0    0  501  502  0.00000000000E+00 -0.00000000000E+00 -0.26472621828E+03  0.26472621828E+03  0.00000000000E+00 0. -1.
         23    2    1    2    0    0 -0.40696997419E+02  0.33009504369E+02  0.11703613900E+03  0.15645189308E+03  0.89631824916E+02 0.  0.
         23    2    1    2    0    0 -0.38665715666E+01  0.11672492970E-01  0.31582799983E+03  0.32848741966E+03  0.90231418495E+02 0.  0.
        -11    1    3    3    0    0 -0.43684845029E+02  0.58215884974E+02  0.10644154854E+03  0.12894672623E+03  0.00000000000E+00 0. -1.
         11    1    3    3    0    0  0.29878476095E+01 -0.25206380606E+02  0.10594590462E+02  0.27505166853E+02  0.00000000000E+00 0.  1.
        -13    1    4    4    0    0  0.25725529391E+02  0.35387000478E+02  0.13753059771E+03  0.14432154368E+03  0.00000000000E+00 0.  1.
         13    1    4    4    0    0 -0.29592100958E+02 -0.35375327985E+02  0.17829740213E+03  0.18416587598E+03  0.00000000000E+00 0. -1.
         21    1    1    2  503  502  0.13560577969E+03  0.16568103476E+02 -0.17526096015E+03  0.22221573682E+03  0.00000000000E+00 0. -1.
          3    1    1    2  501    0 -0.91042210700E+02 -0.49589280338E+02  0.27306943450E+02  0.10720750913E+03  0.00000000000E+00 0. -1.
<scales pt_clust_5="13000.00000" pt_clust_6="13000.00000" pt_clust_7="13000.00000" pt_clust_8="13000.00000" pt_clust_9="134.56189" pt_clust_10="13000.00000"></scales>
<clustering>
<clus scale="   89.632">  5  6 -1 -1</clus>
<clus scale="   90.231">  7  8 -1 -1</clus>
<clus scale="  103.672">  7 10 -1 -1</clus>
<clus scale="  103.826">  1  5  2 -1</clus>
<clus scale="  134.562">  2  9  1 -1</clus>
<clus scale="  134.562">  2  5  1 -1</clus>
</clustering>
</event>
<event>
10    2  0.5921424E-006  0.3164337E+03  0.7546771E-02  0.1120281E+00
         21   -1    0    0  503  502  0.00000000000E+00  0.00000000000E+00  0.12858574555E+03  0.12858574555E+03  0.00000000000E+00 0. -1.
          1   -1    0    0  502    0 -0.00000000000E+00 -0.00000000000E+00 -0.56973736653E+03  0.56973736653E+03  0.00000000000E+00 0. -1.
         23    2    1    2    0    0 -0.35135566317E+01 -0.53206170070E+02 -0.15222399206E+03  0.18511675977E+03  0.90845084489E+02 0.  0.
         23    2    1    2    0    0  0.94676451068E+02 -0.98228805889E+02 -0.20352886754E+03  0.26161452249E+03  0.91682221614E+02 0.  0.
        -11    1    3    3    0    0  0.73219874840E+00 -0.78943642283E+02 -0.10810322241E+03  0.13386165047E+03  0.00000000000E+00 0. -1.
         11    1    3    3    0    0 -0.42457553801E+01  0.25737472213E+02 -0.44120769650E+02  0.51255109298E+02  0.00000000000E+00 0.  1.
        -11    1    4    4    0    0  0.70274954332E+02 -0.11466416695E+03 -0.15905871886E+03  0.20829334227E+03  0.00000000000E+00 0. -1.
         11    1    4    4    0    0  0.24401496737E+02  0.16435361059E+02 -0.44470148683E+02  0.53321180219E+02  0.00000000000E+00 0.  1.
         21    1    1    2  503  501 -0.20551106984E+02  0.20922662764E+02  0.45223791930E+02  0.53900808638E+02  0.00000000000E+00 0. -1.
          1    1    1    2  501    0 -0.70611787453E+02  0.13051231319E+03 -0.13062255331E+03  0.19769102118E+03  0.00000000000E+00 0. -1.
<scales pt_clust_5="13000.00000" pt_clust_6="13000.00000" pt_clust_7="13000.00000" pt_clust_8="13000.00000" pt_clust_9="29.32756" pt_clust_10="13000.00000"></scales>
<clustering>
<clus scale="   29.328">  1  9  2 -1</clus>
<clus scale="   90.845">  5  6 -1 -1</clus>
<clus scale="   91.682">  7  8 -1 -1</clus>
<clus scale="  103.441">  2  5  1 -1</clus>
<clus scale="  142.673">  7 10 -1 -1</clus>
<clus scale="   29.328">  1  5  2 -1</clus>
</clustering>
</event>
<event>
10    2  0.5921424E-006  0.2663416E+03  0.7546771E-02  0.1141385E+00
         21   -1    0    0  503  502  0.00000000000E+00  0.00000000000E+00  0.16698260882E+03  0.16698260882E+03  0.00000000000E+00 0.  1.
         -1   -1    0    0    0  501 -0.00000000000E+00 -0.00000000000E+00 -0.75354101686E+03  0.75354101686E+03  0.00000000000E+00 0.  1.
         23    2    1    2    0    0  0.31775474886E+02  0.37637863183E+02 -0.56007916276E+02  0.11757984027E+03  0.90894678628E+02 0.  0.
         23    2    1    2    0    0 -0.14396292266E+02 -0.11824691568E+02 -0.23981457224E+03  0.25701238555E+03  0.90538724914E+02 0.  0.
        -13    1    3    3    0    0  0.33800090176E+02 -0.11531532718E+02 -0.58240443054E+02  0.68318164128E+02  0.00000000000E+00 0. -1.
         13    1    3    3    0    0 -0.20246152900E+01  0.49169395901E+02  0.22325267775E+01  0.49261676141E+02  0.00000000000E+00 0.  1.
        -13    1    4    4    0    0 -0.41665394696E+02  0.10086336003E+02 -0.19755569189E+03  0.20215338406E+03  0.00000000000E+00 0. -1.
         13    1    4    4    0    0  0.27269102430E+02 -0.21911027571E+02 -0.42258880347E+02  0.54859001492E+02  0.00000000000E+00 0.  1.
         21    1    1    2  503  501  0.10754100727E+03  0.12851098783E+03  0.28511339798E+02  0.16997952446E+03  0.00000000000E+00 0.  1.
         -1    1    1    2    0  502 -0.12492018989E+03 -0.15432415945E+03 -0.31924725933E+03  0.37595187540E+03  0.00000000000E+00 0.  1.
<scales pt_clust_5="13000.00000" pt_clust_6="13000.00000" pt_clust_7="13000.00000" pt_clust_8="13000.00000" pt_clust_9="172.79689" pt_clust_10="13000.00000"></scales>
<clustering>
<clus scale="   90.539">  7  8 -1 -1</clus>
<clus scale="   90.895">  5  6 -1 -1</clus>
<clus scale="  103.383">  2  5  1 -1</clus>
<clus scale="  172.797">  1  9  2 -1</clus>
<clus scale="   78.569">  7 10 -1 -1</clus>
<clus scale="  172.797">  1  5  2 -1</clus>
</clustering>
</event>
<event>
10    2  0.5921424E-006  0.9143837E+03  0.7546771E-02  0.1006262E+00
          1   -1    0    0  503    0 -0.00000000000E+00  0.00000000000E+00  0.19536751383E+04  0.19536751383E+04  0.00000000000E+00 0. -1.
         21   -1    0    0  501  502  0.00000000000E+00 -0.00000000000E+00 -0.21731396962E+03  0.21731396962E+03  0.00000000000E+00 0. -1.
         23    2    1    2    0    0  0.41604366747E+02 -0.13073246856E+02 -0.36344100665E+02  0.10740581695E+03  0.91177205190E+02 0.  0.
         23    2    1    2    0    0 -0.14174299522E+03  0.43416814116E+03  0.94334932508E+03  0.10518669302E+04  0.89011450304E+02 0.  0.
        -11    1    4    4    0    0 -0.11788751607E+03  0.34788586382E+03  0.82830638921E+03  0.90609796109E+03  0.00000000000E+00 0. -1.
         11    1    4    4    0    0 -0.23855479150E+02  0.86282277345E+02  0.11504293586E+03  0.14576896913E+03  0.00000000000E+00 0.  1.
        -13    1    3    3    0    0 -0.21301661481E+02 -0.27004722844E+02 -0.23638381841E+02  0.41734744923E+02  0.00000000000E+00 0.  1.
         13    1    3    3    0    0  0.62906028228E+02  0.13931475988E+02 -0.12705718825E+02  0.65671072030E+02  0.00000000000E+00 0. -1.
         21    1    1    2  503  502  0.15849643361E+02  0.20273517501E+02 -0.31480516701E+02  0.40660172629E+02  0.00000000000E+00 0. -1.
          1    1    1    2  501    0  0.84288985110E+02 -0.44136841181E+03  0.86083646099E+03  0.97105618814E+03  0.00000000000E+00 0. -1.
<scales pt_clust_5="13000.00000" pt_clust_6="13000.00000" pt_clust_7="13000.00000" pt_clust_8="13000.00000" pt_clust_9="25.73377" pt_clust_10="13000.00000"></scales>
<clustering>
<clus scale="   25.734">  2  9  1 -1</clus>
<clus scale="   89.011">  5  6 -1 -1</clus>
<clus scale="   91.177">  7  8 -1 -1</clus>
<clus scale="  103.112">  1  7  2 -1</clus>
<clus scale="  451.556">  5 10 -1 -1</clus>
<clus scale="   25.734">  2  5  1 -1</clus>
</clustering>
</event>
<event>
10    2  0.5921424E-006  0.2945552E+03  0.7546771E-02  0.1102278E+00
          1   -1    0    0  502    0 -0.00000000000E+00  0.00000000000E+00  0.69015779541E+03  0.69015779541E+03  0.00000000000E+00 0. -1.
         21   -1    0    0  503  502  0.00000000000E+00 -0.00000000000E+00 -0.48068378493E+03  0.48068378493E+03  0.00000000000E+00 0. -1.
         23    2    1    2    0    0  0.18074381511E+03 -0.11395754552E+02  0.60283548410E+03  0.63600112285E+03  0.91041844515E+02 0.  0.
         23    2    1    2    0    0 -0.12360109119E+02  0.46734102802E+02 -0.15107094721E+02  0.10015623983E+03  0.86407172178E+02 0.  0.
        -11    1    3    3    0    0  0.94116069203E+02  0.39157731323E+02  0.28238732417E+03  0.30022285599E+03  0.00000000000E+00 0.  1.
         11    1    3    3    0    0  0.86627745911E+02 -0.50553485874E+02  0.32044815993E+03  0.33577826686E+03  0.00000000000E+00 0. -1.
        -11    1    4    4    0    0  0.28466801954E+02  0.29038238237E+02 -0.32826988677E+02  0.52260781462E+02  0.00000000000E+00 0. -1.
         11    1    4    4    0    0 -0.40826911073E+02  0.17695864565E+02  0.17719893956E+02  0.47895458368E+02  0.00000000000E+00 0.  1.
         21    1    1    2  503  501 -0.37699928541E+01 -0.37959864586E+02 -0.13984218042E+03  0.14495171469E+03  0.00000000000E+00 0.  1.
          1    1    1    2  501    0 -0.16461371314E+03  0.26215163360E+01 -0.23841219848E+03  0.28973250298E+03  0.00000000000E+00 0. -1.
<scales pt_clust_5="13000.00000" pt_clust_6="13000.00000" pt_clust_7="13000.00000" pt_clust_8="13000.00000" pt_clust_9="38.14661" pt_clust_10="13000.00000"></scales>
<clustering>
<clus scale="   38.147">  2  9  1 -1</clus>
<clus scale="   86.407">  7  8 -1 -1</clus>
<clus scale="   91.042">  5  6 -1 -1</clus>
<clus scale="  169.720">  7 10 -1 -1</clus>
<clus scale="  202.647">  1  5  2 -1</clus>
<clus scale="   38.147">  2  5  1 -1</clus>
</clustering>
</event>
<event>
10    2  0.5921424E-006  0.2686397E+03  0.7546771E-02  0.1138980E+00
          4   -1    0    0  502    0 -0.00000000000E+00  0.00000000000E+00  0.76568069698E+03  0.76568069698E+03  0.00000000000E+00 0. -1.
         21   -1    0    0  503  502  0.00000000000E+00 -0.00000000000E+00 -0.23704291687E+03  0.23704291687E+03  0.00000000000E+00 0. -1.
         23    2    1    2    0    0 -0.34800647410E+02  0.43325778096E+02  0.18761485051E+03  0.21662250470E+03  0.92939600275E+02 0.  0.
         23    2    1    2    0    0 -0.45580463510E+02  0.82162186321E+02  0.24292061914E+03  0.27567987388E+03  0.90336936785E+02 0.  0.
        -11    1    3    3    0    0  0.11730800417E+02 -0.20261317134E+02  0.17775357603E+02  0.29395509663E+02  0.00000000000E+00 0.  1.
         11    1    3    3    0    0 -0.46531447827E+02  0.63587095230E+02  0.16983949291E+03  0.18722699503E+03  0.00000000000E+00 0. -1.
        -11    1    4    4    0    0 -0.15298708579E+02  0.67002712982E+02  0.22895696128E+03  0.23904958513E+03  0.00000000000E+00 0. -1.
         11    1    4    4    0    0 -0.30281754931E+02  0.15159473339E+02  0.13963657858E+02  0.36630288757E+02  0.00000000000E+00 0.  1.
         21    1    1    2  503  501 -0.94304491003E+01 -0.21633874414E+02 -0.18990200289E+03  0.19136281925E+03  0.00000000000E+00 0. -1.
          4    1    1    2  501    0  0.89811560021E+02 -0.10385409000E+03  0.28800431334E+03  0.31905841601E+03  0.00000000000E+00 0. -1.
<scales pt_clust_5="13000.00000" pt_clust_6="13000.00000" pt_clust_7="13000.00000" pt_clust_8="13000.00000" pt_clust_9="23.59996" pt_clust_10="13000.00000"></scales>
<clustering>
<clus scale="   23.600">  2  9  1 -1</clus>
<clus scale="   90.337">  7  8 -1 -1</clus>
<clus scale="   92.940">  5  6 -1 -1</clus>
<clus scale="  106.769">  1  5  2 -1</clus>
<clus scale="  111.605">  7 10 -1 -1</clus>
<clus scale="   23.600">  2  5  1 -1</clus>
</clustering>
</event>
<event>
10    2  0.5921424E-006  0.2035378E+03  0.7546771E-02  0.1177890E+00
          2   -1    0    0  502    0 -0.00000000000E+00  0.00000000000E+00  0.92613244035E+03  0.92613244035E+03  0.00000000000E+00 0. -1.
         21   -1    0    0  503  502  0.00000000000E+00 -0.00000000000E+00 -0.55810655023E+02  0.55810655023E+02  0.00000000000E+00 0. -1.
         23    2    1    2    0    0  0.49145984013E+01 -0.39505054972E+02  0.17093392499E+03  0.19751184307E+03  0.90596461268E+02 0.  0.
         23    2    1    2    0    0  0.63598299615E+02  0.72885213966E+02  0.20852097898E+03  0.24659295147E+03  0.89275343256E+02 0.  0.
        -13    1    4    4    0    0 -0.10781962917E+02  0.42387109400E+02  0.37468947680E+02  0.57592011667E+02  0.00000000000E+00 0.  1.
         13    1    4    4    0    0  0.74380262531E+02  0.30498104566E+02  0.17105203130E+03  0.18900093981E+03  0.00000000000E+00 0. -1.
        -13    1    3    3    0    0 -0.18175306296E+02  0.18083341262E+02  0.15039414831E+02  0.29724282811E+02  0.00000000000E+00 0.  1.
         13    1    3    3    0    0  0.23089904698E+02 -0.57588396234E+02  0.15589451015E+03  0.16778756025E+03  0.00000000000E+00 0. -1.
         21    1    1    2  503  501 -0.64651099426E+02 -0.11819301077E+03  0.31210163967E+03  0.33993644397E+03  0.00000000000E+00 0. -1.
          2    1    1    2  501    0 -0.38617985903E+01  0.84812851774E+02  0.17876524169E+03  0.19790185686E+03  0.00000000000E+00 0. -1.
<scales pt_clust_5="13000.00000" pt_clust_6="13000.00000" pt_clust_7="13000.00000" pt_clust_8="13000.00000" pt_clust_9="149.26409" pt_clust_10="13000.00000"></scales>
<clustering>
<clus scale="   89.275">  5  6 -1 -1</clus>
<clus scale="   84.901">  5 10 -1 -1</clus>
<clus scale="   90.596">  7  8 -1 -1</clus>
<clus scale="   98.957">  1  7  2 -1</clus>
<clus scale="  149.264">  2  9  1 -1</clus>
<clus scale="  149.264">  2  5  1 -1</clus>
</clustering>
</event>
<event>
10    2  0.5921424E-006  0.3284765E+03  0.7546771E-02  0.1107126E+00
          2   -1    0    0  502    0 -0.00000000000E+00  0.00000000000E+00  0.77644950386E+03  0.77644950386E+03  0.00000000000E+00 0. -1.
         21   -1    0    0  503  502  0.00000000000E+00 -0.00000000000E+00 -0.83071399808E+02  0.83071399808E+02  0.00000000000E+00 0.  1.
         23    2    1    2    0    0  0.40401010866E+02  0.71212762258E+02  0.12200049696E+03  0.17086160488E+03  0.87212771871E+02 0.  0.
         23    2    1    2    0    0 -0.10334816866E+03 -0.18464443545E+03  0.46509144266E+03  0.51859406115E+03  0.88630348739E+02 0.  0.
        -11    1    4    4    0    0 -0.48272325271E+02 -0.20816873781E+02  0.71685610412E+02  0.88895367490E+02  0.00000000000E+00 0. -1.
         11    1    4    4    0    0 -0.55075843394E+02 -0.16382756166E+03  0.39340583225E+03  0.42969869366E+03  0.00000000000E+00 0.  1.
        -13    1    3    3    0    0 -0.20865265707E+02  0.10108614734E+02  0.24948585241E+01  0.23318827670E+02  0.00000000000E+00 0.  1.
         13    1    3    3    0    0  0.61266276573E+02  0.61104147524E+02  0.11950563844E+03  0.14754277721E+03  0.00000000000E+00 0. -1.
         21    1    1    2  503  501  0.77916874979E+01  0.40202177966E+02  0.29335192920E+02  0.50373396261E+02  0.00000000000E+00 0. -1.
          2    1    1    2  501    0  0.55155470301E+02  0.73229495222E+02  0.76950971508E+02  0.11969184137E+03  0.00000000000E+00 0. -1.
<scales pt_clust_5="13000.00000" pt_clust_6="13000.00000" pt_clust_7="13000.00000" pt_clust_8="13000.00000" pt_clust_9="40.95028" pt_clust_10="13000.00000"></scales>
<clustering>
<clus scale="   40.950">  2  9  1 -1</clus>
<clus scale="   87.213">  7  8 -1 -1</clus>
<clus scale="   88.630">  5  6 -1 -1</clus>
<clus scale="  102.653">  5 10 -1 -1</clus>
<clus scale="  128.995">  1  7  2 -1</clus>
<clus scale="   40.950">  2  5  1 -1</clus>
</clustering>
</event>
<event>
10    2  0.5921424E-006  0.1724468E+03  0.7546771E-02  0.1196125E+00
         21   -1    0    0  501  502  0.00000000000E+00  0.00000000000E+00  0.23067152664E+02  0.23067152664E+02  0.00000000000E+00 0.  1.
          1   -1    0    0  503    0 -0.00000000000E+00 -0.00000000000E+00 -0.12089762894E+04  0.12089762894E+04  0.00000000000E+00 0. -1.
         23    2    1    2    0    0  0.45204877594E+02 -0.19314320656E+02 -0.45897715691E+03  0.47039602307E+03  0.90531011374E+02 0.  0.
         23    2    1    2    0    0 -0.28490374767E+02  0.48960366605E+02 -0.27402200342E+03  0.29343279690E+03  0.88351168572E+02 0.  0.
        -11    1    3    3    0    0  0.58187812656E+02  0.18918932285E+02 -0.31373979665E+03  0.31965044587E+03  0.00000000000E+00 0. -1.
         11    1    3    3    0    0 -0.12982935061E+02 -0.38233252941E+02 -0.14523736026E+03  0.15074557721E+03  0.00000000000E+00 0.  1.
        -13    1    4    4    0    0  0.26114498645E+02  0.13081118989E+02 -0.34719892616E+02  0.45371286699E+02  0.00000000000E+00 0. -1.
         13    1    4    4    0    0 -0.54604873412E+02  0.35879247616E+02 -0.23930211080E+03  0.24806151021E+03  0.00000000000E+00 0.  1.
         21    1    1    2  503  502  0.40380902176E+02  0.92249666088E+01 -0.94041497302E+02  0.10275952746E+03  0.00000000000E+00 0.  1.
          1    1    1    2  501    0 -0.57095405003E+02 -0.38871012558E+02 -0.35886847910E+03  0.36545509462E+03  0.00000000000E+00 0. -1.
<scales pt_clust_5="13000.00000" pt_clust_6="13000.00000" pt_clust_7="13000.00000" pt_clust_8="13000.00000" pt_clust_9="41.42122" pt_clust_10="13000.00000"></scales>
<clustering>
<clus scale="   41.421">  1  9  2 -1</clus>
<clus scale="   88.351">  7  8 -1 -1</clus>
<clus scale="   62.338">  7 10 -1 -1</clus>
<clus scale="   90.531">  5  6 -1 -1</clus>
<clus scale="  108.525">  2  5  1 -1</clus>
<clus scale="   41.421">  1  5  2 -1</clus>
</clustering>
</event>
<event>
10    2  0.5921424E-006  0.2331368E+03  0.7546771E-02  0.1142000E+00
          3   -1    0    0  502    0 -0.00000000000E+00  0.00000000000E+00  0.26172936356E+03  0.26172936356E+03  0.00000000000E+00 0. -1.
         21   -1    0    0  503  502  0.00000000000E+00 -0.00000000000E+00 -0.25868865152E+03  0.25868865152E+03  0.00000000000E+00 0. -1.
         23    2    1    2    0    0  0.86683693895E+02 -0.65228128407E+01 -0.46695650665E+02  0.13356343383E+03  0.90011650313E+02 0.  0.
         23    2    1    2    0    0 -0.25440958832E+02  0.24631696937E+02  0.12032759302E+03  0.15461039265E+03  0.90397350585E+02 0.  0.
        -11    1    3    3    0    0  0.73737909026E+02  0.26489447765E+02 -0.56704605423E+02  0.96718055949E+02  0.00000000000E+00 0. -1.
         11    1    3    3    0    0  0.12945784869E+02 -0.33012260606E+02  0.10008954758E+02  0.36845377885E+02  0.00000000000E+00 0.  1.
        -13    1    4    4    0    0 -0.23846063119E+02 -0.29819208935E+02  0.73286032314E+02  0.82635721575E+02  0.00000000000E+00 0.  1.
         13    1    4    4    0    0 -0.15948957127E+01  0.54450905872E+02  0.47041560704E+02  0.71974671073E+02  0.00000000000E+00 0. -1.
         21    1    1    2  503  501  0.65082940880E+02 -0.21937649287E+01 -0.81652807807E+02  0.10444033139E+03  0.00000000000E+00 0.  1.
          3    1    1    2  501    0 -0.12632567594E+03 -0.15915119167E+02  0.11061577497E+02  0.12780385721E+03  0.00000000000E+00 0. -1.
<scales pt_clust_5="13000.00000" pt_clust_6="13000.00000" pt_clust_7="13000.00000" pt_clust_8="13000.00000" pt_clust_9="65.11990" pt_clust_10="13000.00000"></scales>
<clustering>
<clus scale="   65.120">  2  9  1 -1</clus>
<clus scale="   90.012">  5  6 -1 -1</clus>
<clus scale="   90.397">  7  8 -1 -1</clus>
<clus scale="  104.729">  7 10 -1 -1</clus>
<clus scale="  151.886">  1  5  2 -1</clus>
<clus scale="   65.120">  2  5  1 -1</clus>
</clustering>
</event>
<event>
10    2  0.5921424E-006  0.2606068E+03  0.7546771E-02  0.1146734E+00
         -3   -1    0    0    0  501 -0.00000000000E+00  0.00000000000E+00  0.45493549431E+03  0.45493549431E+03  0.00000000000E+00 0.  1.
         21   -1    0    0  501  502  0.00000000000E+00 -0.00000000000E+00 -0.37018015486E+03  0.37018015486E+03  0.00000000000E+00 0. -1.
         23    2    1    2    0    0 -0.50582865094E+02 -0.35802830515E+01  0.98899323050E+02  0.13859296461E+03  0.82797880842E+02 0.  0.
         23    2    1    2    0    0  0.58958177701E+02 -0.54417213318E+02  0.22061957490E+03  0.25808968488E+03  0.10723800068E+03 0.  0.
        -11    1    4    4    0    0  0.73263337385E+02 -0.14971771289E+01  0.87544897811E+02  0.11416596374E+03  0.00000000000E+00 0. -1.
         11    1    4    4    0    0 -0.14305159684E+02 -0.52920036189E+02  0.13307467709E+03  0.14392372114E+03  0.00000000000E+00 0.  1.
        -13    1    3    3    0    0 -0.71059317449E+02  0.93699514494E+01  0.82755035817E+02  0.10947884974E+03  0.00000000000E+00 0.  1.
         13    1    3    3    0    0  0.20476452354E+02 -0.12950234501E+02  0.16144287233E+02  0.29114114874E+02  0.00000000000E+00 0. -1.
         21    1    1    2  503  502 -0.47054921646E+01  0.16271590275E+03 -0.27220164327E+03  0.31716295695E+03  0.00000000000E+00 0. -1.
         -3    1    1    2    0  503 -0.36698204418E+01 -0.10471840638E+03  0.37438084767E+02  0.11127004272E+03  0.00000000000E+00 0.  1.
<scales pt_clust_5="13000.00000" pt_clust_6="13000.00000" pt_clust_7="13000.00000" pt_clust_8="13000.00000" pt_clust_9="162.67767" pt_clust_10="13000.00000"></scales>
<clustering>
<clus scale="   82.798">  7  8 -1 -1</clus>
<clus scale="   97.092">  1  7  2 -1</clus>
<clus scale="  107.238">  5  6 -1 -1</clus>
<clus scale="  106.551">  5 10 -1 -1</clus>
<clus scale="  162.678">  2  9  1 -1</clus>
<clus scale="  162.678">  2  5  1 -1</clus>
</clustering>
</event>
<event>
10    2  0.5921424E-006  0.2070876E+03  0.7546771E-02  0.1167810E+00
         21   -1    0    0  503  502  0.00000000000E+00  0.00000000000E+00  0.58648264031E+03  0.58648264031E+03  0.00000000000E+00 0.  1.
          2   -1    0    0  502    0 -0.00000000000E+00 -0.00000000000E+00 -0.10039396881E+03  0.10039396881E+03  0.00000000000E+00 0. -1.
         23    2    1    2    0    0 -0.71855968048E+02  0.66296875789E+02  0.13386030785E+03  0.18922925989E+03  0.91271983105E+02 0.  0.
         23    2    1    2    0    0  0.65419783514E+00 -0.66262670400E+02 -0.18739242394E+02  0.11092869018E+03  0.86964622902E+02 0.  0.
        -11    1    4    4    0    0 -0.39842590025E+02 -0.47750947646E+02  0.10576851269E+01  0.62198904161E+02  0.00000000000E+00 0.  1.
         11    1    4    4    0    0  0.40496787860E+02 -0.18511722755E+02 -0.19796927521E+02  0.48729786021E+02  0.00000000000E+00 0. -1.
        -13    1    3    3    0    0 -0.52286921027E+02 -0.11432126113E+02  0.50533921931E+02  0.73609054359E+02  0.00000000000E+00 0.  1.
         13    1    3    3    0    0 -0.19569047020E+02  0.77729001903E+02  0.83326385915E+02  0.11562020553E+03  0.00000000000E+00 0. -1.
         21    1    1    2  503  501  0.31476226356E+02 -0.28681467803E+02  0.28167618229E+03  0.28487690515E+03  0.00000000000E+00 0. -1.
          2    1    1    2  501    0  0.39725543856E+02  0.28647262414E+02  0.89291423759E+02  0.10184175389E+03  0.00000000000E+00 0. -1.
<scales pt_clust_5="13000.00000" pt_clust_6="13000.00000" pt_clust_7="13000.00000" pt_clust_8="13000.00000" pt_clust_9="42.58379" pt_clust_10="13000.00000"></scales>
<clustering>
<clus scale="   42.584">  1  9  2 -1</clus>
<clus scale="   86.965">  5  6 -1 -1</clus>
<clus scale="   53.378">  5 10 -1 -1</clus>
<clus scale="   91.272">  7  8 -1 -1</clus>
<clus scale="  118.185">  2  7  1 -1</clus>
<clus scale="   42.584">  1  5  2 -1</clus>
</clustering>
</event>
<event>
10    2  0.5921424E-006  0.3524244E+03  0.7546771E-02  0.1092666E+00
          2   -1    0    0  503    0 -0.00000000000E+00  0.00000000000E+00  0.59976537939E+03  0.59976537939E+03  0.00000000000E+00 0. -1.
         21   -1    0    0  501  502  0.00000000000E+00 -0.00000000000E+00 -0.17975310128E+03  0.17975310128E+03  0.00000000000E+00 0. -1.
         23    2    1    2    0    0  0.10607338529E+03 -0.60535926200E+02  0.26878438472E+03  0.31371468814E+03  0.10609287749E+03 0.  0.
         23    2    1    2    0    0 -0.87571535126E+02 -0.56491162319E+02  0.15801245225E+03  0.20801367196E+03  0.86265447720E+02 0.  0.
        -11    1    3    3    0    0 -0.11108734177E+02  0.17588991341E+02  0.39081646334E+02  0.44273600165E+02  0.00000000000E+00 0.  1.
         11    1    3    3    0    0  0.11718211947E+03 -0.78124917541E+02  0.22970273839E+03  0.26944108797E+03  0.00000000000E+00 0. -1.
        -13    1    4    4    0    0 -0.17199144274E+02 -0.41058563151E+02  0.11684295993E+03  0.12503556877E+03  0.00000000000E+00 0.  1.
         13    1    4    4    0    0 -0.70372390852E+02 -0.15432599168E+02  0.41169492325E+02  0.82978103193E+02  0.00000000000E+00 0. -1.
         21    1    1    2  503  502 -0.88857636716E+02  0.31666147934E+02  0.74760025450E+02  0.12036397274E+03  0.00000000000E+00 0. -1.
          2    1    1    2  501    0  0.70355786551E+02  0.85360940585E+02 -0.81544584312E+02  0.13742614784E+03  0.00000000000E+00 0. -1.
<scales pt_clust_5="13000.00000" pt_clust_6="13000.00000" pt_clust_7="13000.00000" pt_clust_8="13000.00000" pt_clust_9="94.33151" pt_clust_10="13000.00000"></scales>
<clustering>
<clus scale="   86.265">  7  8 -1 -1</clus>
<clus scale="   94.332">  2  9  1 -1</clus>
<clus scale="  106.093">  5  6 -1 -1</clus>
<clus scale="  107.776">  7 10 -1 -1</clus>
<clus scale="  152.011">  1  5  2 -1</clus>
<clus scale="   94.332">  2  5  1 -1</clus>
</clustering>
</event>
<event>
10    2  0.5921424E-006  0.1820300E+03  0.7546771E-02  0.1181760E+00
         21   -1    0    0  501  502  0.00000000000E+00  0.00000000000E+00  0.54132349463E+03  0.54132349463E+03  0.00000000000E+00 0. -1.
         -2   -1    0    0    0  501 -0.00000000000E+00 -0.00000000000E+00 -0.60660234868E+02  0.60660234868E+02  0.00000000000E+00 0.  1.
         23    2    1    2    0    0  0.72567345606E+02  0.21631157208E+02  0.28126066120E+03  0.30497332868E+03  0.90372811487E+02 0.  0.
         23    2    1    2    0    0 -0.11892243523E+02 -0.17457309798E+02  0.54893706738E+02  0.11283671199E+03  0.96294451617E+02 0.  0.
        -13    1    3    3    0    0 -0.16887489720E+02 -0.13470571814E+02  0.44948449337E+02  0.49869897852E+02  0.00000000000E+00 0.  1.
         13    1    3    3    0    0  0.89454835326E+02  0.35101729022E+02  0.23631221186E+03  0.25510343083E+03  0.00000000000E+00 0. -1.
        -13    1    4    4    0    0 -0.30654832082E+02 -0.51055398923E+02  0.27463448043E+02  0.65579062723E+02  0.00000000000E+00 0.  1.
         13    1    4    4    0    0  0.18762588559E+02  0.33598089125E+02  0.27430258695E+02  0.47257649269E+02  0.00000000000E+00 0. -1.
         21    1    1    2  503  502  0.24075120697E+02 -0.68148275685E+01  0.57372051605E+02  0.62590779007E+02  0.00000000000E+00 0.  1.
         -2    1    1    2    0  503 -0.84750222780E+02  0.26409801587E+01  0.87136840220E+02  0.12158290982E+03  0.00000000000E+00 0.  1.
<scales pt_clust_5="13000.00000" pt_clust_6="13000.00000" pt_clust_7="13000.00000" pt_clust_8="13000.00000" pt_clust_9="25.02106" pt_clust_10="13000.00000"></scales>
<clustering>
<clus scale="   25.021">  1  9  2 -1</clus>
<clus scale="   90.373">  5  6 -1 -1</clus>
<clus scale="   96.294">  7  8 -1 -1</clus>
<clus scale="   79.539">  7 10 -1 -1</clus>
<clus scale="  126.813">  2  5  1 -1</clus>
<clus scale="   25.021">  1  5  2 -1</clus>
</clustering>
</event>
<event>
10    2  0.5921424E-006  0.3898378E+03  0.7546771E-02  0.1092475E+00
         -4   -1    0    0    0  501 -0.00000000000E+00  0.00000000000E+00  0.23525183073E+03  0.23525183073E+03  0.00000000000E+00 0.  1.
         21   -1    0    0  503  502  0.00000000000E+00 -0.00000000000E+00 -0.50766146601E+03  0.50766146601E+03  0.00000000000E+00 0.  1.
         23    2    1    2    0    0 -0.48002430600E+02 -0.35322036056E+02 -0.91693322705E+01  0.11553138339E+03  0.98547167986E+02 0.  0.
         23    2    1    2    0    0  0.74862578818E+02 -0.25714172738E+02  0.15820422273E+03  0.19927660064E+03  0.91744008450E+02 0.  0.
        -13    1    3    3    0    0 -0.55068984643E+02  0.26632601249E+01 -0.38310386643E+02  0.67136962613E+02  0.00000000000E+00 0. -1.
         13    1    3    3    0    0  0.70665540435E+01 -0.37985296181E+02  0.29141054373E+02  0.48394420773E+02  0.00000000000E+00 0.  1.
        -13    1    4    4    0    0  0.65128051017E+02 -0.57870725694E+02  0.10622288332E+03  0.13738262213E+03  0.00000000000E+00 0.  1.
         13    1    4    4    0    0  0.97345278011E+01  0.32156552955E+02  0.51981339407E+02  0.61893978512E+02  0.00000000000E+00 0. -1.
         21    1    1    2  503  501  0.22674889029E+01  0.32544759822E+02 -0.23550086876E+03  0.23774978882E+03  0.00000000000E+00 0.  1.
         -4    1    1    2    0  502 -0.29127637121E+02  0.28491448972E+02 -0.18594365698E+03  0.19035552390E+03  0.00000000000E+00 0.  1.
<scales pt_clust_5="13000.00000" pt_clust_6="13000.00000" pt_clust_7="13000.00000" pt_clust_8="13000.00000" pt_clust_9="32.62366" pt_clust_10="13000.00000"></scales>
<clustering>
<clus scale="   32.624">  2  9  1 -1</clus>
<clus scale="   91.744">  7  8 -1 -1</clus>
<clus scale="   58.041">  7 10 -1 -1</clus>
<clus scale="   98.547">  5  6 -1 -1</clus>
<clus scale="  112.875">  1  5  2 -1</clus>
<clus scale="   32.624">  2  5  1 -1</clus>
</clustering>
</event>
<event>
10    2  0.5921424E-006  0.2491286E+03  0.7546771E-02  0.1115833E+00
         21   -1    0    0  501  502  0.00000000000E+00  0.00000000000E+00  0.39726950344E+03  0.39726950344E+03  0.00000000000E+00 0.  1.
          1   -1    0    0  503    0 -0.00000000000E+00 -0.00000000000E+00 -0.28896919854E+03  0.28896919854E+03  0.00000000000E+00 0. -1.
         23    2    1    2    0    0  0.20253650185E+03  0.89102462238E+02 -0.17852594157E+03  0.29861753061E+03  0.91327073845E+02 0.  0.
         23    2    1    2    0    0 -0.14579353147E+03 -0.67919856134E+02  0.16686626701E+03  0.24937172745E+03  0.92049153766E+02 0.  0.
        -13    1    3    3    0    0  0.48492593659E+01  0.29140455938E+02 -0.40656042330E+02  0.50255300881E+02  0.00000000000E+00 0.  1.
         13    1    3    3    0    0  0.19768724249E+03  0.59962006300E+02 -0.13786989924E+03  0.24836222973E+03  0.00000000000E+00 0. -1.
        -13    1    4    4    0    0 -0.88982856175E+02 -0.77403680473E+02  0.14696048956E+03  0.18843212024E+03  0.00000000000E+00 0.  1.
         13    1    4    4    0    0 -0.56810675294E+02  0.94838243384E+01  0.19905777446E+02  0.60939607212E+02  0.00000000000E+00 0. -1.
         21    1    1    2  503  502 -0.86026112529E+01 -0.18601429870E+02  0.37189552343E+02  0.42462700303E+02  0.00000000000E+00 0.  1.
          1    1    1    2  501    0 -0.48140359133E+02 -0.25811762335E+01  0.82770427115E+02  0.95786743618E+02  0.00000000000E+00 0. -1.
<scales pt_clust_5="13000.00000" pt_clust_6="13000.00000" pt_clust_7="13000.00000" pt_clust_8="13000.00000" pt_clust_9="20.49434" pt_clust_10="13000.00000"></scales>
<clustering>
<clus scale="   20.494">  1  9  2 -1</clus>
<clus scale="   91.327">  5  6 -1 -1</clus>
<clus scale="   92.049">  7  8 -1 -1</clus>
<clus scale="   50.806">  7 10 -1 -1</clus>
<clus scale="  237.003">  2  5  1 -1</clus>
<clus scale="   20.494">  1  5  2 -1</clus>
</clustering>
</event>
<event>
10    2  0.5921424E-006  0.1987428E+03  0.7546771E-02  0.1180174E+00
         21   -1    0    0  501  502  0.00000000000E+00  0.00000000000E+00  0.19546336195E+03  0.19546336195E+03  0.00000000000E+00 0. -1.
          1   -1    0    0  503    0 -0.00000000000E+00 -0.00000000000E+00 -0.43015138358E+03  0.43015138358E+03  0.00000000000E+00 0. -1.
         23    2    1    2    0    0  0.37585057138E+02 -0.69679111623E+01 -0.29018500421E+03  0.30688148807E+03  0.92237317549E+02 0.  0.
         23    2    1    2    0    0  0.27879704888E+02 -0.37161153764E+02 -0.10500426435E+02  0.10248424549E+03  0.90744323926E+02 0.  0.
        -11    1    4    4    0    0  0.29802315541E+02  0.25439657416E+02 -0.15172406705E+01  0.39212959597E+02  0.00000000000E+00 0.  1.
         11    1    4    4    0    0 -0.19226106535E+01 -0.62600811181E+02 -0.89831857641E+01  0.63271285894E+02  0.00000000000E+00 0. -1.
        -11    1    3    3    0    0  0.68073793781E+02 -0.69025054510E+01 -0.18034671694E+03  0.19289018713E+03  0.00000000000E+00 0. -1.
         11    1    3    3    0    0 -0.30488736643E+02 -0.65405711335E-01 -0.10983828726E+03  0.11399130094E+03  0.00000000000E+00 0.  1.
         21    1    1    2  503  502  0.33869069905E+02  0.13150727376E+02  0.10030845762E+03  0.10668571693E+03  0.00000000000E+00 0. -1.
          1    1    1    2  501    0 -0.99333831931E+02  0.30978337551E+02 -0.34311048608E+02  0.10956329504E+03  0.00000000000E+00 0. -1.
<scales pt_clust_5="13000.00000" pt_clust_6="13000.00000" pt_clust_7="13000.00000" pt_clust_8="13000.00000" pt_clust_9="36.33257" pt_clust_10="13000.00000"></scales>
<clustering>
<clus scale="   36.333">  1  9  2 -1</clus>
<clus scale="   90.744">  5  6 -1 -1</clus>
<clus scale="   92.237">  7  8 -1 -1</clus>
<clus scale="   92.889">  5 10 -1 -1</clus>
<clus scale="  100.967">  2  7  1 -1</clus>
<clus scale="   36.333">  1  5  2 -1</clus>
</clustering>
</event>
<event>
10    2  0.5921424E-006  0.1789612E+03  0.7546771E-02  0.1185860E+00
         21   -1    0    0  501  502  0.00000000000E+00  0.00000000000E+00  0.29580333386E+03  0.29580333386E+03  0.00000000000E+00 0.  1.
         -2   -1    0    0    0  501 -0.00000000000E+00 -0.00000000000E+00 -0.29997223484E+03  0.29997223484E+03  0.00000000000E+00 0.  1.
         23    2    1    2    0    0 -0.77027251753E+02 -0.35163306448E+02 -0.88395619619E+02  0.14600211514E+03  0.79581256739E+02 0.  0.
         23    2    1    2    0    0  0.70210475995E+02  0.45214979990E+02 -0.14954201451E+03  0.19439148548E+03  0.91931116424E+02 0.  0.
        -11    1    4    4    0    0  0.64704123105E+02  0.70371000144E+02 -0.98735509485E+02  0.13743144488E+03  0.00000000000E+00 0.  1.
         11    1    4    4    0    0  0.55063528902E+01 -0.25156020153E+02 -0.50806505024E+02  0.56960040597E+02  0.00000000000E+00 0. -1.
        -13    1    3    3    0    0 -0.70771047127E+02 -0.88455632019E+01 -0.22526395463E+02  0.74794542530E+02  0.00000000000E+00 0. -1.
         13    1    3    3    0    0 -0.62562046267E+01 -0.26317743246E+02 -0.65869224156E+02  0.71207572608E+02  0.00000000000E+00 0.  1.
         21    1    1    2  503  502 -0.12068106488E+01 -0.39744705542E+02  0.21647293965E+03  0.22009459696E+03  0.00000000000E+00 0.  1.
         -2    1    1    2    0  503  0.80235864071E+01  0.29693032000E+02  0.17295793504E+02  0.35287371128E+02  0.00000000000E+00 0.  1.
<scales pt_clust_5="13000.00000" pt_clust_6="13000.00000" pt_clust_7="13000.00000" pt_clust_8="13000.00000" pt_clust_9="39.76302" pt_clust_10="13000.00000"></scales>
<clustering>
<clus scale="   39.763">  1  9  2 -1</clus>
<clus scale="   79.581">  7  8 -1 -1</clus>
<clus scale="   91.931">  5  6 -1 -1</clus>
<clus scale="   17.912">  5 10 -1 -1</clus>
<clus scale="  121.773">  2  7  1 -1</clus>
<clus scale="   39.763">  1  5  2 -1</clus>
</clustering>
</event>
<event>
10    2  0.5921424E-006  0.1707908E+03  0.7546771E-02  0.1203237E+00
         21   -1    0    0  501  502  0.00000000000E+00  0.00000000000E+00  0.30469003271E+03  0.30469003271E+03  0.00000000000E+00 0.  1.
          1   -1    0    0  503    0 -0.00000000000E+00 -0.00000000000E+00 -0.90604674072E+02  0.90604674072E+02  0.00000000000E+00 0. -1.
         23    2    1    2    0    0  0.20179232914E+02 -0.10961841117E+02  0.37617039348E+02  0.10412359669E+03  0.94336198438E+02 0.  0.
         23    2    1    2    0    0 -0.28192473727E+02 -0.90136948868E+01  0.43257779851E+02  0.10456504382E+03  0.90479559025E+02 0.  0.
        -13    1    4    4    0    0 -0.16165414983E+02 -0.45573090038E+02  0.23703620652E+01  0.48413281168E+02  0.00000000000E+00 0.  1.
         13    1    4    4    0    0 -0.12027058744E+02  0.36559395151E+02  0.40887417786E+02  0.56151762653E+02  0.00000000000E+00 0. -1.
        -13    1    3    3    0    0  0.54013536085E+02 -0.24447922070E+02  0.14676816530E+02  0.61078407948E+02  0.00000000000E+00 0.  1.
         13    1    3    3    0    0 -0.33834303171E+02  0.13486080953E+02  0.22940222819E+02  0.43045188738E+02  0.00000000000E+00 0. -1.
         21    1    1    2  503  502 -0.53860090466E+02 -0.15742959307E+02  0.38847972382E+02  0.68248919925E+02  0.00000000000E+00 0.  1.
          1    1    1    2  501    0  0.61873331279E+02  0.35718495311E+02  0.94362567057E+02  0.11835714635E+03  0.00000000000E+00 0. -1.
<scales pt_clust_5="13000.00000" pt_clust_6="13000.00000" pt_clust_7="13000.00000" pt_clust_8="13000.00000" pt_clust_9="56.11372" pt_clust_10="13000.00000"></scales>
<clustering>
<clus scale="   56.114">  1  9  2 -1</clus>
<clus scale="   90.480">  5  6 -1 -1</clus>
<clus scale="   48.682">  5 10 -1 -1</clus>
<clus scale="   94.336">  7  8 -1 -1</clus>
<clus scale="   95.715">  2  7  1 -1</clus>
<clus scale="   56.114">  1  5  2 -1</clus>
</clustering>
</event>
<event>
10    2  0.5921424E-006  0.5370394E+03  0.7546771E-02  0.1062073E+00
         21   -1    0    0  501  502  0.00000000000E+00  0.00000000000E+00  0.58289406558E+03  0.58289406558E+03  0.00000000000E+00 0. -1.
          2   -1    0    0  503    0 -0.00000000000E+00 -0.00000000000E+00 -0.22495979962E+03  0.22495979962E+03  0.00000000000E+00 0. -1.
         23    2    1    2    0    0  0.35432071897E+02  0.35109211701E+01 -0.20917377910E+01  0.98132437511E+02  0.91421231880E+02 0.  0.
         23    2    1    2    0    0 -0.19653268058E+03  0.14912194362E+03 -0.15275903459E+02  0.26210632995E+03  0.87200495228E+02 0.  0.
        -13    1    4    4    0    0 -0.29394996365E+02  0.57778733441E+02 -0.29260987818E+02  0.71124210065E+02  0.00000000000E+00 0. -1.
         13    1    4    4    0    0 -0.16713768422E+03  0.91343210176E+02  0.13985084359E+02  0.19098211989E+03  0.00000000000E+00 0.  1.
        -13    1    3    3    0    0  0.35872771745E+02 -0.16823657239E+02 -0.39250210770E+02  0.55771589909E+02  0.00000000000E+00 0.  1.
         13    1    3    3    0    0 -0.44069984761E+00  0.20334578409E+02  0.37158472979E+02  0.42360847602E+02  0.00000000000E+00 0. -1.
         21    1    1    2  503  502  0.79408626197E+01 -0.19448236180E+02  0.11820005275E+03  0.12005225388E+03  0.00000000000E+00 0.  1.
          2    1    1    2  501    0  0.15315974607E+03 -0.13318462861E+03  0.25710185445E+03  0.32756284386E+03  0.00000000000E+00 0. -1.
<scales pt_clust_5="13000.00000" pt_clust_6="13000.00000" pt_clust_7="13000.00000" pt_clust_8="13000.00000" pt_clust_9="21.00693" pt_clust_10="13000.00000"></scales>
<clustering>
<clus scale="   21.007">  1  9  2 -1</clus>
<clus scale="   87.200">  5  6 -1 -1</clus>
<clus scale="   91.421">  7  8 -1 -1</clus>
<clus scale="   98.359">  2  7  1 -1</clus>
<clus scale="  220.876">  5 10 -1 -1</clus>
<clus scale="   21.007">  1  5  2 -1</clus>
</clustering>
</event>
<event>
10    2  0.5921424E-006  0.1302936E+03  0.7546771E-02  0.1243744E+00
         21   -1    0    0  503  502  0.00000000000E+00  0.00000000000E+00  0.18702558850E+03  0.18702558850E+03  0.00000000000E+00 0.  1.
         -2   -1    0    0    0  501 -0.00000000000E+00 -0.00000000000E+00 -0.84293545344E+02  0.84293545344E+02  0.00000000000E+00 0.  1.
         23    2    1    2    0    0  0.15844644142E+02  0.89030017261E+01  0.35132945954E+02  0.99679180139E+02  0.91494802443E+02 0.  0.
         23    2    1    2    0    0 -0.41569256323E+02  0.67998395773E+01  0.35846034610E+02  0.10542094122E+03  0.89746285499E+02 0.  0.
        -11    1    4    4    0    0 -0.54403136264E+02  0.34327881715E+02  0.38439052526E+02  0.74937743878E+02  0.00000000000E+00 0. -1.
         11    1    4    4    0    0  0.12833879941E+02 -0.27528042138E+02 -0.25930179161E+01  0.30483197342E+02  0.00000000000E+00 0.  1.
        -11    1    3    3    0    0  0.36529350729E+02 -0.26167867361E+02  0.38018777459E+02  0.58860667567E+02  0.00000000000E+00 0. -1.
         11    1    3    3    0    0 -0.20684706587E+02  0.35070869087E+02 -0.28858315048E+01  0.40818512572E+02  0.00000000000E+00 0.  1.
         21    1    1    2  503  501 -0.47294660714E+01 -0.21299907250E+02  0.27282103064E+02  0.34933752243E+02  0.00000000000E+00 0.  1.
         -2    1    1    2    0  502  0.30454078252E+02  0.55970659467E+01  0.44709595297E+01  0.31285260244E+02  0.00000000000E+00 0.  1.
<scales pt_clust_5="13000.00000" pt_clust_6="13000.00000" pt_clust_7="13000.00000" pt_clust_8="13000.00000" pt_clust_9="21.81866" pt_clust_10="13000.00000"></scales>
<clustering>
<clus scale="   21.819">  1  9  2 -1</clus>
<clus scale="   89.746">  5  6 -1 -1</clus>
<clus scale="   30.078">  5 10 -1 -1</clus>
<clus scale="   91.495">  7  8 -1 -1</clus>
<clus scale="   92.530">  2  7  1 -1</clus>
<clus scale="   21.819">  1  5  2 -1</clus>
</clustering>
</event>
<event>
10    2  0.5921424E-006  0.7792854E+03  0.7546771E-02  0.1018556E+00
         -2   -1    0    0    0  501 -0.00000000000E+00  0.00000000000E+00  0.38727402668E+03  0.38727402668E+03  0.00000000000E+00 0. -1.
         21   -1    0    0  503  502  0.00000000000E+00 -0.00000000000E+00 -0.15248224665E+04  0.15248224665E+04  0.00000000000E+00 0.  1.
         23    2    1    2    0    0 -0.78828152329E+02  0.36914718558E+02 -0.82028132892E+01  0.11445143021E+03  0.73859797498E+02 0.  0.
         23    2    1    2    0    0 -0.37387664527E+03  0.13854705559E+03 -0.40090614165E+02  0.41095132299E+03  0.91075243791E+02 0.  0.
        -11    1    4    4    0    0 -0.20740328711E+02  0.18930700341E+01  0.18418558647E+02  0.27802666272E+02  0.00000000000E+00 0.  1.
         11    1    4    4    0    0 -0.35313631656E+03  0.13665398556E+03 -0.58509172813E+02  0.38314865671E+03  0.00000000000E+00 0. -1.
        -11    1    3    3    0    0 -0.19931159902E+02  0.34887031315E+02  0.24494226826E+02  0.47056596103E+02  0.00000000000E+00 0.  1.
         11    1    3    3    0    0 -0.58896992427E+02  0.20276872422E+01 -0.32697040115E+02  0.67394834111E+02  0.00000000000E+00 0. -1.
         21    1    1    2  503  501  0.61580766202E+03 -0.19762285289E+03 -0.64705411864E+03  0.91485129996E+03  0.00000000000E+00 0.  1.
         -2    1    1    2    0  502 -0.16310286442E+03  0.22161078740E+02 -0.44220089372E+03  0.47184244002E+03  0.00000000000E+00 0. -1.
<scales pt_clust_5="13000.00000" pt_clust_6="13000.00000" pt_clust_7="13000.00000" pt_clust_8="13000.00000" pt_clust_9="612.16022" pt_clust_10="13000.00000"></scales>
<clustering>
<clus scale="   73.860">  7  8 -1 -1</clus>
<clus scale="   91.075">  5  6 -1 -1</clus>
<clus scale="  114.157">  1  7  2 -1</clus>
<clus scale="  168.290">  5 10 -1 -1</clus>
<clus scale="  612.160">  2  9  1 -1</clus>
<clus scale="  612.160">  2  5  1 -1</clus>
</clustering>
</event>
<event>
10    2  0.5921424E-006  0.1899211E+03  0.7546771E-02  0.1180701E+00
         21   -1    0    0  501  502  0.00000000000E+00  0.00000000000E+00  0.22321186714E+03  0.22321186714E+03  0.00000000000E+00 0. -1.
          2   -1    0    0  503    0 -0.00000000000E+00 -0.00000000000E+00 -0.17057646706E+03  0.17057646706E+03  0.00000000000E+00 0.  1.
         23    2    1    2    0    0  0.47217106916E+02  0.40072388455E+02 -0.16803810217E+02  0.11155849602E+03  0.91256114832E+02 0.  0.
         23    2    1    2    0    0 -0.12567417856E+02  0.12914209233E+02 -0.50521665772E+02  0.10676246817E+03  0.92309637121E+02 0.  0.
        -11    1    3    3    0    0  0.55618512027E+01 -0.27651301100E+02 -0.15185361249E+02  0.32033167773E+02  0.00000000000E+00 0.  1.
         11    1    3    3    0    0  0.41655255713E+02  0.67723689555E+02 -0.16184489677E+01  0.79525328246E+02  0.00000000000E+00 0. -1.
        -13    1    4    4    0    0 -0.91201957677E+01  0.39449050979E+02  0.90222591580E+01  0.41482607854E+02  0.00000000000E+00 0. -1.
         13    1    4    4    0    0 -0.34472220888E+01 -0.26534841747E+02 -0.59543924930E+02  0.65279860315E+02  0.00000000000E+00 0.  1.
         21    1    1    2  503  502  0.21347839590E+02  0.58826213788E+01  0.83547746454E+02  0.86432409587E+02  0.00000000000E+00 0. -1.
          2    1    1    2  501    0 -0.55997528650E+02 -0.58869219066E+02  0.36413129617E+02  0.89034960419E+02  0.00000000000E+00 0.  1.
<scales pt_clust_5="13000.00000" pt_clust_6="13000.00000" pt_clust_7="13000.00000" pt_clust_8="13000.00000" pt_clust_9="22.14352" pt_clust_10="13000.00000"></scales>
<clustering>
<clus scale="   22.144">  1  9  2 -1</clus>
<clus scale="   91.256">  5  6 -1 -1</clus>
<clus scale="   92.310">  7  8 -1 -1</clus>
<clus scale="   72.822">  7 10 -1 -1</clus>
<clus scale="  114.338">  2  5  1 -1</clus>
<clus scale="   22.144">  1  5  2 -1</clus>
</clustering>
</event>
<event>
10    2  0.5921424E-006  0.2218997E+03  0.7546771E-02  0.1164256E+00
         21   -1    0    0  503  502  0.00000000000E+00  0.00000000000E+00  0.94713387396E+02  0.94713387396E+02  0.00000000000E+00 0. -1.
          2   -1    0    0  502    0 -0.00000000000E+00 -0.00000000000E+00 -0.91696661012E+03  0.91696661012E+03  0.00000000000E+00 0. -1.
         23    2    1    2    0    0 -0.31019182639E+02 -0.24418277023E+02 -0.33970137263E+03  0.35354457723E+03  0.89656586925E+02 0.  0.
         23    2    1    2    0    0  0.69944752141E+02 -0.26892507570E+02 -0.23245047453E+03  0.26087860065E+03  0.91700304540E+02 0.  0.
        -11    1    4    4    0    0 -0.46622894331E+01  0.20568959405E+02 -0.95948393406E+02  0.98239061636E+02  0.00000000000E+00 0. -1.
         11    1    4    4    0    0  0.74607041574E+02 -0.47461466976E+02 -0.13650208112E+03  0.16263953901E+03  0.00000000000E+00 0.  1.
        -13    1    3    3    0    0 -0.27849009394E+02  0.27024000426E+02 -0.21725199356E+03  0.22069049057E+03  0.00000000000E+00 0. -1.
         13    1    3    3    0    0 -0.31701732444E+01 -0.51442277449E+02 -0.12244937907E+03  0.13285408666E+03  0.00000000000E+00 0.  1.
         21    1    1    2  503  501 -0.25321644728E+02 -0.71010644514E+02  0.37665303031E+02  0.84275574032E+02  0.00000000000E+00 0. -1.
          2    1    1    2  501    0 -0.13603924775E+02  0.12232142911E+03 -0.28776667860E+03  0.31298124561E+03  0.00000000000E+00 0. -1.
<scales pt_clust_5="13000.00000" pt_clust_6="13000.00000" pt_clust_7="13000.00000" pt_clust_8="13000.00000" pt_clust_9="75.39030" pt_clust_10="13000.00000"></scales>
<clustering>
<clus scale="   75.390">  1  9  2 -1</clus>
<clus scale="   89.657">  7  8 -1 -1</clus>
<clus scale="   91.700">  5  6 -1 -1</clus>
<clus scale="   98.528">  5 10 -1 -1</clus>
<clus scale="  104.257">  2  7  1 -1</clus>
<clus scale="   75.390">  1  5  2 -1</clus>
</clustering>
</event>
<event>
10    2  0.5921424E-006  0.2424602E+03  0.7546771E-02  0.1155116E+00
         21   -1    0    0  503  502  0.00000000000E+00  0.00000000000E+00  0.13914878576E+03  0.13914878576E+03  0.00000000000E+00 0.  1.
         -3   -1    0    0    0  501 -0.00000000000E+00 -0.00000000000E+00 -0.38730194414E+03  0.38730194414E+03  0.00000000000E+00 0.  1.
         23    2    1    2    0    0  0.16007434726E+01 -0.31601714980E+02 -0.19521970901E+03  0.21818729500E+03  0.92161435224E+02 0.  0.
         23    2    1    2    0    0 -0.79566794465E+02  0.87559733693E+02 -0.58062739764E+02  0.14943279164E+03  0.70436465861E+02 0.  0.
        -13    1    3    3    0    0  0.45034699700E+02 -0.88463571643E+01 -0.69944038956E+02  0.83657341564E+02  0.00000000000E+00 0. -1.
         13    1    3    3    0    0 -0.43433956227E+02 -0.22755357816E+02 -0.12527567005E+03  0.13452995343E+03  0.00000000000E+00 0.  1.
        -13    1    4    4    0    0 -0.19769990461E+02  0.73679762356E+02 -0.33394121464E+02  0.83275009769E+02  0.00000000000E+00 0. -1.
         13    1    4    4    0    0 -0.59796804005E+02  0.13879971337E+02 -0.24668618300E+02  0.66157781873E+02  0.00000000000E+00 0.  1.
         21    1    1    2  503  501 -0.28727479166E+02 -0.42019059881E+02 -0.24863119296E+01  0.50961271565E+02  0.00000000000E+00 0. -1.
         -3    1    1    2    0  502  0.10669353016E+03 -0.13938958832E+02  0.76156023221E+01  0.10786937170E+03  0.00000000000E+00 0.  1.
<scales pt_clust_5="13000.00000" pt_clust_6="13000.00000" pt_clust_7="13000.00000" pt_clust_8="13000.00000" pt_clust_9="50.90058" pt_clust_10="13000.00000"></scales>
<clustering>
<clus scale="   50.901">  1  9  2 -1</clus>
<clus scale="   70.436">  7  8 -1 -1</clus>
<clus scale="   92.161">  5  6 -1 -1</clus>
<clus scale="   98.693">  7 10 -1 -1</clus>
<clus scale="   98.879">  2  5  1 -1</clus>
<clus scale="   50.901">  1  5  2 -1</clus>
</clustering>
</event>
<event>
10    2  0.5921424E-006  0.1976514E+03  0.7546771E-02  0.1185439E+00
          2   -1    0    0  503    0 -0.00000000000E+00  0.00000000000E+00  0.34549193298E+03  0.34549193298E+03  0.00000000000E+00 0. -1.
         21   -1    0    0  501  502  0.00000000000E+00 -0.00000000000E+00 -0.93814851136E+02  0.93814851136E+02  0.00000000000E+00 0.  1.
         23    2    1    2    0    0  0.10273579582E+02  0.14850196329E+01  0.16491316583E+03  0.18861306913E+03  0.90943861038E+02 0.  0.
         23    2    1    2    0    0  0.27645558881E+02 -0.16841513645E+02 -0.31179308689E+02  0.98875519159E+02  0.88069889808E+02 0.  0.
        -11    1    4    4    0    0 -0.20755189568E+02  0.23113885641E+02 -0.98996960983E+01  0.32604195838E+02  0.00000000000E+00 0. -1.
         11    1    4    4    0    0  0.48400748449E+02 -0.39955399286E+02 -0.21279612591E+02  0.66271323320E+02  0.00000000000E+00 0.  1.
        -13    1    3    3    0    0 -0.28868206948E+02  0.75924410253E+01  0.14717860813E+02  0.33281135198E+02  0.00000000000E+00 0. -1.
         13    1    3    3    0    0  0.39141786531E+02 -0.61074213923E+01  0.15019530502E+03  0.15533193393E+03  0.00000000000E+00 0.  1.
         21    1    1    2  503  502 -0.22942720562E+02 -0.27234029525E+02  0.13585390338E+02  0.38113299799E+02  0.00000000000E+00 0. -1.
          2    1    1    2  501    0 -0.14976417901E+02  0.42590523537E+02  0.10435783436E+03  0.11370489603E+03  0.00000000000E+00 0. -1.
<scales pt_clust_5="13000.00000" pt_clust_6="13000.00000" pt_clust_7="13000.00000" pt_clust_8="13000.00000" pt_clust_9="35.60984" pt_clust_10="13000.00000"></scales>
<clustering>
<clus scale="   35.610">  2  9  1 -1</clus>
<clus scale="   88.070">  5  6 -1 -1</clus>
<clus scale="   44.146">  5 10 -1 -1</clus>
<clus scale="   90.944">  7  8 -1 -1</clus>
<clus scale="   91.242">  1  7  2 -1</clus>
<clus scale="   35.610">  2  5  1 -1</clus>
</clustering>
</event>
<event>
10    2  0.5921424E-006  0.1437147E+03  0.7546771E-02  0.1222651E+00
          1   -1    0    0  503    0 -0.00000000000E+00  0.00000000000E+00  0.63374120262E+03  0.63374120262E+03  0.00000000000E+00 0. -1.
         21   -1    0    0  501  502  0.00000000000E+00 -0.00000000000E+00 -0.55571795844E+02  0.55571795844E+02  0.00000000000E+00 0. -1.
         23    2    1    2    0    0 -0.56121213887E+02  0.17478625482E+02  0.49318095203E+03  0.50487522375E+03  0.90644619900E+02 0.  0.
         23    2    1    2    0    0  0.24234730765E+02 -0.36989287379E+02  0.82384860561E+02  0.13132115011E+03  0.92208728772E+02 0.  0.
        -13    1    3    3    0    0 -0.12689033458E+02 -0.36167662047E+02  0.14981576104E+03  0.15464111227E+03  0.00000000000E+00 0.  1.
         13    1    3    3    0    0 -0.43432180429E+02  0.53646287528E+02  0.34336519099E+03  0.35023411148E+03  0.00000000000E+00 0. -1.
        -13    1    4    4    0    0  0.58342219238E+02 -0.14529472370E+02  0.59117983666E+02  0.84319962676E+02  0.00000000000E+00 0.  1.
         13    1    4    4    0    0 -0.34107488473E+02 -0.22459815010E+02  0.23266876895E+02  0.47001187438E+02  0.00000000000E+00 0. -1.
         21    1    1    2  503  502  0.22719686531E+02 -0.79653554536E+01  0.17538942479E+01  0.24139328669E+02  0.00000000000E+00 0.  1.
          1    1    1    2  501    0  0.91667965910E+01  0.27476017351E+02  0.84969993526E+00  0.28977295926E+02  0.00000000000E+00 0. -1.
<scales pt_clust_5="13000.00000" pt_clust_6="13000.00000" pt_clust_7="13000.00000" pt_clust_8="13000.00000" pt_clust_9="24.07553" pt_clust_10="13000.00000"></scales>
<clustering>
<clus scale="   24.076">  2  9  1 -1</clus>
<clus scale="   90.645">  5  6 -1 -1</clus>
<clus scale="   92.209">  7  8 -1 -1</clus>
<clus scale="   29.841">  7 10 -1 -1</clus>
<clus scale="  106.343">  1  5  2 -1</clus>
<clus scale="   24.076">  2  5  1 -1</clus>
</clustering>
</event>
<event>
10    2  0.5921424E-006  0.2667997E+03  0.7546771E-02  0.1143539E+00
         21   -1    0    0  503  502  0.00000000000E+00  0.00000000000E+00  0.23367352348E+03  0.23367352348E+03  0.00000000000E+00 0. -1.
          1   -1    0    0  502    0 -0.00000000000E+00 -0.00000000000E+00 -0.33958844345E+03  0.33958844345E+03  0.00000000000E+00 0. -1.
         23    2    1    2    0    0 -0.34682147680E+02  0.11119939322E+02 -0.50194413417E+02  0.11433302622E+03  0.96052367633E+02 0.  0.
         23    2    1    2    0    0  0.63113550011E+02 -0.63097056204E+02 -0.17006284811E+03  0.21217927983E+03  0.90189332998E+02 0.  0.
        -11    1    4    4    0    0 -0.83218715657E+01 -0.51456147168E+02 -0.51531196181E+02  0.73297017726E+02  0.00000000000E+00 0.  1.
         11    1    4    4    0    0  0.71435421577E+02 -0.11640909037E+02 -0.11853165192E+03  0.13888226210E+03  0.00000000000E+00 0. -1.
        -13    1    3    3    0    0 -0.33241013393E+02 -0.33706727971E+02 -0.50854031345E+02  0.69478349044E+02  0.00000000000E+00 0. -1.
         13    1    3    3    0    0 -0.14411342872E+01  0.44826667293E+02  0.65961792791E+00  0.44854677175E+02  0.00000000000E+00 0.  1.
         21    1    1    2  503  501  0.60641813856E+02 -0.10947094353E+02  0.12277003822E+03  0.13736721132E+03  0.00000000000E+00 0. -1.
          1    1    1    2  501    0 -0.89073216187E+02  0.62924211236E+02 -0.84276966576E+01  0.10938244956E+03  0.00000000000E+00 0. -1.
<scales pt_clust_5="13000.00000" pt_clust_6="13000.00000" pt_clust_7="13000.00000" pt_clust_8="13000.00000" pt_clust_9="61.62198" pt_clust_10="13000.00000"></scales>
<clustering>
<clus scale="   61.622">  1  9  2 -1</clus>
<clus scale="   90.189">  5  6 -1 -1</clus>
<clus scale="   82.827">  5 10 -1 -1</clus>
<clus scale="   96.052">  7  8 -1 -1</clus>
<clus scale="   97.668">  2  7  1 -1</clus>
<clus scale="   61.622">  1  5  2 -1</clus>
</clustering>
</event>
<event>
10    2  0.5921424E-006  0.1999486E+03  0.7546771E-02  0.1173514E+00
         -2   -1    0    0    0  501 -0.00000000000E+00  0.00000000000E+00  0.71254457848E+02  0.71254457848E+02  0.00000000000E+00 0.  1.
         21   -1    0    0  503  502  0.00000000000E+00 -0.00000000000E+00 -0.55350792962E+03  0.55350792962E+03  0.00000000000E+00 0. -1.
         23    2    1    2    0    0 -0.16438257503E+01  0.79543992307E+02 -0.28201637175E+03  0.30650805597E+03  0.89911098122E+02 0.  0.
         23    2    1    2    0    0  0.37631329344E+02 -0.94447897753E+02 -0.58989871813E+02  0.14655339301E+03  0.87530392945E+02 0.  0.
        -11    1    3    3    0    0 -0.20414387670E+02 -0.13801946073E+02 -0.65438260452E+02  0.69924293849E+02  0.00000000000E+00 0.  1.
         11    1    3    3    0    0  0.18770561919E+02  0.93345938380E+02 -0.21657811130E+03  0.23658376212E+03  0.00000000000E+00 0. -1.
        -13    1    4    4    0    0  0.21653398815E+02 -0.45877568193E+02  0.18258056181E+02  0.53916394159E+02  0.00000000000E+00 0.  1.
         13    1    4    4    0    0  0.15977930528E+02 -0.48570329560E+02 -0.77247927994E+02  0.92636998855E+02  0.00000000000E+00 0. -1.
         21    1    1    2  503  501  0.18906052222E+02 -0.12940175334E+02 -0.85973622058E+02  0.88973876156E+02  0.00000000000E+00 0. -1.
         -2    1    1    2    0  502 -0.54893555815E+02  0.27844080781E+02 -0.55273606155E+02  0.82727062331E+02  0.00000000000E+00 0.  1.
<scales pt_clust_5="13000.00000" pt_clust_6="13000.00000" pt_clust_7="13000.00000" pt_clust_8="13000.00000" pt_clust_9="22.91041" pt_clust_10="13000.00000"></scales>
<clustering>
<clus scale="   22.910">  2  9  1 -1</clus>
<clus scale="   87.530">  7  8 -1 -1</clus>
<clus scale="   58.190">  7 10 -1 -1</clus>
<clus scale="   89.911">  5  6 -1 -1</clus>
<clus scale="  115.257">  1  5  2 -1</clus>
<clus scale="   22.910">  2  5  1 -1</clus>
</clustering>
</event>
<event>
10    2  0.5921424E-006  0.2082874E+03  0.7546771E-02  0.1175517E+00
          1   -1    0    0  503    0 -0.00000000000E+00  0.00000000000E+00  0.31085228124E+03  0.31085228124E+03  0.00000000000E+00 0. -1.
         21   -1    0    0  501  502  0.00000000000E+00 -0.00000000000E+00 -0.42989242973E+03  0.42989242973E+03  0.00000000000E+00 0.  1.
         23    2    1    2    0    0  0.37823209029E+02  0.14414520052E+01  0.70298140473E+02  0.12014413975E+03  0.89778131177E+02 0.  0.
         23    2    1    2    0    0 -0.12383078616E+03  0.37770117722E+02  0.77458133327E+02  0.17774990480E+03  0.93992663775E+02 0.  0.
        -13    1    3    3    0    0 -0.19631561235E+02 -0.26492549296E+02  0.30226121444E+02  0.44731105310E+02  0.00000000000E+00 0.  1.
         13    1    3    3    0    0  0.57454770263E+02  0.27934001301E+02  0.40072019029E+02  0.75413034442E+02  0.00000000000E+00 0. -1.
        -13    1    4    4    0    0 -0.10616790888E+03 -0.11731880868E+02  0.44505130760E+02  0.11571503173E+03  0.00000000000E+00 0.  1.
         13    1    4    4    0    0 -0.17662877281E+02  0.49501998590E+02  0.32953002567E+02  0.62034873067E+02  0.00000000000E+00 0. -1.
         21    1    1    2  503  502  0.13388265784E+03  0.13644618003E+02 -0.32438121658E+03  0.35118928705E+03  0.00000000000E+00 0.  1.
          1    1    1    2  501    0 -0.47875080702E+02 -0.52856187730E+02  0.57584794295E+02  0.91661379368E+02  0.00000000000E+00 0. -1.
<scales pt_clust_5="13000.00000" pt_clust_6="13000.00000" pt_clust_7="13000.00000" pt_clust_8="13000.00000" pt_clust_9="136.92437" pt_clust_10="13000.00000"></scales>
<clustering>
<clus scale="   89.778">  5  6 -1 -1</clus>
<clus scale="   93.993">  7  8 -1 -1</clus>
<clus scale="   71.315">  7 10 -1 -1</clus>
<clus scale="   97.431">  1  5  2 -1</clus>
<clus scale="  136.924">  2  9  1 -1</clus>
<clus scale="  136.924">  2  5  1 -1</clus>
</clustering>
</event>
<event>
10    2  0.5921424E-006  0.1608378E+03  0.7546771E-02  0.1210049E+00
          2   -1    0    0  503    0 -0.00000000000E+00  0.00000000000E+00  0.31630332511E+03  0.31630332511E+03  0.00000000000E+00 0. -1.
         21   -1    0    0  501  502  0.00000000000E+00 -0.00000000000E+00 -0.25645158984E+03  0.25645158984E+03  0.00000000000E+00 0. -1.
         23    2    1    2    0    0 -0.27576503761E+01  0.86335213333E+01  0.25474393754E+03  0.27322292199E+03  0.98357252186E+02 0.  0.
         23    2    1    2    0    0  0.54951375918E+02  0.18007657502E+02 -0.60533736151E+02  0.12414770151E+03  0.91675455456E+02 0.  0.
        -11    1    3    3    0    0 -0.21215779336E+02 -0.39931930490E+02  0.14326588356E+03  0.15023242579E+03  0.00000000000E+00 0. -1.
         11    1    3    3    0    0  0.18458128960E+02  0.48565451824E+02  0.11147805398E+03  0.12299049620E+03  0.00000000000E+00 0.  1.
        -13    1    4    4    0    0  0.26413955097E+02  0.24026958525E+02  0.18277462333E+02  0.40113057590E+02  0.00000000000E+00 0. -1.
         13    1    4    4    0    0  0.28537420820E+02 -0.60193010232E+01 -0.78811198484E+02  0.84034643917E+02  0.00000000000E+00 0.  1.
         21    1    1    2  503  502 -0.31985598524E+02  0.29774210489E+02 -0.92453137744E+02  0.10226027969E+03  0.00000000000E+00 0.  1.
          2    1    1    2  501    0 -0.20208127017E+02 -0.56415389323E+02 -0.41905328385E+02  0.73124011768E+02  0.00000000000E+00 0. -1.
<scales pt_clust_5="13000.00000" pt_clust_6="13000.00000" pt_clust_7="13000.00000" pt_clust_8="13000.00000" pt_clust_9="43.69877" pt_clust_10="13000.00000"></scales>
<clustering>
<clus scale="   43.699">  2  9  1 -1</clus>
<clus scale="   91.675">  7  8 -1 -1</clus>
<clus scale="   55.619">  7 10 -1 -1</clus>
<clus scale="   98.357">  5  6 -1 -1</clus>
<clus scale="   99.009">  1  5  2 -1</clus>
<clus scale="   43.699">  2  5  1 -1</clus>
</clustering>
</event>
<event>
10    2  0.5921424E-006  0.1942535E+03  0.7546771E-02  0.1188991E+00
         -3   -1    0    0    0  501 -0.00000000000E+00  0.00000000000E+00  0.36832555989E+03  0.36832555989E+03  0.00000000000E+00 0.  1.
         21   -1    0    0  503  502  0.00000000000E+00 -0.00000000000E+00 -0.25120758284E+03  0.25120758284E+03  0.00000000000E+00 0.  1.
         23    2    1    2    0    0  0.14590846547E+02 -0.13436138493E+02  0.24672816553E+03  0.26238526356E+03  0.87050653342E+02 0.  0.
         23    2    1    2    0    0 -0.62165935465E+02  0.20980657965E+02 -0.20292390397E+02  0.11388775955E+03  0.90850696894E+02 0.  0.
        -11    1    3    3    0    0  0.40284533942E+02 -0.30217881174E+02  0.20171579815E+03  0.20790677536E+03  0.00000000000E+00 0.  1.
         11    1    3    3    0    0 -0.25693687395E+02  0.16781742681E+02  0.45012367379E+02  0.54478488199E+02  0.00000000000E+00 0. -1.
        -13    1    4    4    0    0 -0.31749358495E+02 -0.22003655863E+02  0.23658859128E+02  0.45298170509E+02  0.00000000000E+00 0. -1.
         13    1    4    4    0    0 -0.30416576969E+02  0.42984313828E+02 -0.43951249525E+02  0.68589589040E+02  0.00000000000E+00 0.  1.
         21    1    1    2  503  501 -0.72225656757E+01  0.30728738345E+02 -0.15764798452E+03  0.16077719937E+03  0.00000000000E+00 0.  1.
         -3    1    1    2    0  502  0.54797654593E+02 -0.38273257817E+02  0.48330186428E+02  0.82482920250E+02  0.00000000000E+00 0.  1.
<scales pt_clust_5="13000.00000" pt_clust_6="13000.00000" pt_clust_7="13000.00000" pt_clust_8="13000.00000" pt_clust_9="31.56613" pt_clust_10="13000.00000"></scales>
<clustering>
<clus scale="   31.566">  2  9  1 -1</clus>
<clus scale="   87.051">  5  6 -1 -1</clus>
<clus scale="   88.827">  1  5  2 -1</clus>
<clus scale="   90.851">  7  8 -1 -1</clus>
<clus scale="   71.450">  7 10 -1 -1</clus>
<clus scale="   31.566">  2  5  1 -1</clus>
</clustering>
</event>
<event>
10    2  0.5921424E-006  0.4968648E+03  0.7546771E-02  0.1027503E+00
         21   -1    0    0  503  502  0.00000000000E+00  0.00000000000E+00  0.52085230792E+03  0.52085230792E+03  0.00000000000E+00 0. -1.
          3   -1    0    0  502    0 -0.00000000000E+00 -0.00000000000E+00 -0.25047063730E+04  0.25047063730E+04  0.00000000000E+00 0. -1.
         23    2    1    2    0    0 -0.13857100602E+03  0.51508798988E+03 -0.79245087926E+03  0.95963667631E+03  0.91687476999E+02 0.  0.
         23    2    1    2    0    0 -0.43538653135E+02 -0.15185117547E+03 -0.88326617515E+03  0.90622279624E+03  0.12698908003E+03 0.  0.
        -11    1    3    3    0    0 -0.36564323365E+02  0.87392207085E+02 -0.88433949335E+02  0.12959518123E+03  0.00000000000E+00 0.  1.
         11    1    3    3    0    0 -0.10200668266E+03  0.42769578280E+03 -0.70401692993E+03  0.83004149508E+03  0.00000000000E+00 0. -1.
        -11    1    4    4    0    0  0.36322616048E+02 -0.72415444669E+02 -0.24369838654E+03  0.25681166770E+03  0.00000000000E+00 0.  1.
         11    1    4    4    0    0 -0.79861269183E+02 -0.79435730799E+02 -0.63956778861E+03  0.64941112854E+03  0.00000000000E+00 0. -1.
         21    1    1    2  503  501 -0.59512548506E+02 -0.34629823029E+03  0.32696967827E+03  0.47997226820E+03  0.00000000000E+00 0. -1.
          3    1    1    2  501    0  0.24162220766E+03 -0.16938584121E+02 -0.63510668894E+03  0.67972694017E+03  0.00000000000E+00 0. -1.
<scales pt_clust_5="13000.00000" pt_clust_6="13000.00000" pt_clust_7="13000.00000" pt_clust_8="13000.00000" pt_clust_9="351.37474" pt_clust_10="13000.00000"></scales>
<clustering>
<clus scale="   91.687">  5  6 -1 -1</clus>
<clus scale="  126.989">  7  8 -1 -1</clus>
<clus scale="  242.215">  7 10 -1 -1</clus>
<clus scale="  351.375">  1  9  2 -1</clus>
<clus scale="  336.494">  2  5  1 -1</clus>
<clus scale="  351.375">  1  5  2 -1</clus>
</clustering>
</event>
<event>
10    2  0.5921424E-006  0.2723553E+03  0.7546771E-02  0.1135267E+00
         21   -1    0    0  503  502  0.00000000000E+00  0.00000000000E+00  0.65477786307E+02  0.65477786307E+02  0.00000000000E+00 0. -1.
          1   -1    0    0  502    0 -0.00000000000E+00 -0.00000000000E+00 -0.91129924449E+03  0.91129924449E+03  0.00000000000E+00 0. -1.
         23    2    1    2    0    0 -0.54039331732E+02  0.65098422680E+01 -0.10002659422E+03  0.14450995252E+03  0.88967294022E+02 0.  0.
         23    2    1    2    0    0  0.83809967869E+02 -0.11767168213E+03 -0.60026290892E+03  0.62415278542E+03  0.91544547794E+02 0.  0.
        -13    1    3    3    0    0 -0.51044974280E+02 -0.16569926278E+02 -0.14101450035E+02  0.55488762369E+02  0.00000000000E+00 0. -1.
         13    1    3    3    0    0 -0.29943574512E+01  0.23079768546E+02 -0.85925144183E+02  0.89021190149E+02  0.00000000000E+00 0.  1.
        -13    1    4    4    0    0  0.15517836927E+02 -0.84463919216E+02 -0.21575471868E+03  0.23221769000E+03  0.00000000000E+00 0.  1.
         13    1    4    4    0    0  0.68292130942E+02 -0.33207762918E+02 -0.38450819023E+03  0.39193509542E+03  0.00000000000E+00 0. -1.
         21    1    1    2  503  501 -0.25899464488E+02  0.20130870993E+02  0.39633634014E+01  0.33041526556E+02  0.00000000000E+00 0. -1.
          1    1    1    2  501    0 -0.38711716490E+01  0.91030968873E+02 -0.14949531845E+03  0.17507276631E+03  0.00000000000E+00 0. -1.
<scales pt_clust_5="13000.00000" pt_clust_6="13000.00000" pt_clust_7="13000.00000" pt_clust_8="13000.00000" pt_clust_9="32.80296" pt_clust_10="13000.00000"></scales>
<clustering>
<clus scale="   32.803">  1  9  2 -1</clus>
<clus scale="   88.967">  5  6 -1 -1</clus>
<clus scale="   91.545">  7  8 -1 -1</clus>
<clus scale="   97.128">  7 10 -1 -1</clus>
<clus scale="  112.109">  2  5  1 -1</clus>
<clus scale="   32.803">  1  5  2 -1</clus>
</clustering>
</event>
<event>
10    2  0.5921424E-006  0.2701791E+03  0.7546771E-02  0.1107719E+00
          1   -1    0    0  503    0 -0.00000000000E+00  0.00000000000E+00  0.14203155452E+04  0.14203155452E+04  0.00000000000E+00 0. -1.
         21   -1    0    0  501  502  0.00000000000E+00 -0.00000000000E+00 -0.13053624865E+03  0.13053624865E+03  0.00000000000E+00 0.  1.
         23    2    1    2    0    0 -0.22525691939E+03  0.13099055923E+02  0.26613588850E+03  0.36053446108E+03  0.90799347352E+02 0.  0.
         23    2    1    2    0    0  0.19886321065E+03 -0.19331783774E+01  0.10018766103E+04  0.10255207237E+04  0.91573460715E+02 0.  0.
        -11    1    3    3    0    0 -0.83421349431E+02 -0.14550123969E+02  0.43728955767E+02  0.95305032506E+02  0.00000000000E+00 0.  1.
         11    1    3    3    0    0 -0.14183556996E+03  0.27649179892E+02  0.22240693274E+03  0.26522942858E+03  0.00000000000E+00 0. -1.
        -13    1    4    4    0    0  0.18033306149E+03  0.19572270430E+02  0.94135632097E+03  0.95867346363E+03  0.00000000000E+00 0. -1.
         13    1    4    4    0    0  0.18530149162E+02 -0.21505448808E+02  0.60520289358E+02  0.66847260081E+02  0.00000000000E+00 0.  1.
         21    1    1    2  503  502  0.22997395988E+02 -0.49277427346E+02 -0.56042074697E+02  0.78088790517E+02  0.00000000000E+00 0.  1.
          1    1    1    2  501    0  0.33963127531E+01  0.38111549801E+02  0.77808872404E+02  0.86707818525E+02  0.00000000000E+00 0. -1.
<scales pt_clust_5="13000.00000" pt_clust_6="13000.00000" pt_clust_7="13000.00000" pt_clust_8="13000.00000" pt_clust_9="54.37964" pt_clust_10="13000.00000"></scales>
<clustering>
<clus scale="   54.380">  2  9  1 -1</clus>
<clus scale="   90.799">  5  6 -1 -1</clus>
<clus scale="   91.573">  7  8 -1 -1</clus>
<clus scale="   35.017">  7 10 -1 -1</clus>
<clus scale="  228.315">  1  5  2 -1</clus>
<clus scale="   54.380">  2  5  1 -1</clus>
</clustering>
</event>
<event>
10    2  0.5921424E-006  0.3881862E+03  0.7546771E-02  0.1095332E+00
         21   -1    0    0  501  502  0.00000000000E+00  0.00000000000E+00  0.11143193866E+03  0.11143193866E+03  0.00000000000E+00 0. -1.
          4   -1    0    0  503    0 -0.00000000000E+00 -0.00000000000E+00 -0.68514510759E+03  0.68514510759E+03  0.00000000000E+00 0. -1.
         23    2    1    2    0    0  0.33025953139E+02 -0.40896708471E+02 -0.25051698596E+03  0.27205038303E+03  0.92137920034E+02 0.  0.
         23    2    1    2    0    0 -0.96135171592E+02  0.16399649094E+03 -0.29519595124E+03  0.36275389897E+03  0.91175223254E+02 0.  0.
        -11    1    3    3    0    0  0.12898281812E+02  0.29637666327E+02 -0.87960355672E+02  0.93711157867E+02  0.00000000000E+00 0. -1.
         11    1    3    3    0    0  0.20127671326E+02 -0.70534374798E+02 -0.16255663029E+03  0.17833922517E+03  0.00000000000E+00 0.  1.
        -13    1    4    4    0    0 -0.81140590765E+02  0.49732695621E+02 -0.14494468594E+03  0.17339578560E+03  0.00000000000E+00 0. -1.
         13    1    4    4    0    0 -0.14994580827E+02  0.11426379532E+03 -0.15025126530E+03  0.18935811337E+03  0.00000000000E+00 0.  1.
         21    1    1    2  503  502 -0.18099083239E+02 -0.13622000413E+02 -0.78950645061E+01  0.23988908956E+02  0.00000000000E+00 0.  1.
          4    1    1    2  501    0  0.81208301693E+02 -0.10947778205E+03 -0.20105167224E+02  0.13778385528E+03  0.00000000000E+00 0. -1.
<scales pt_clust_5="13000.00000" pt_clust_6="13000.00000" pt_clust_7="13000.00000" pt_clust_8="13000.00000" pt_clust_9="22.65250" pt_clust_10="13000.00000"></scales>
<clustering>
<clus scale="   22.652">  1  9  2 -1</clus>
<clus scale="   91.175">  7  8 -1 -1</clus>
<clus scale="   92.138">  5  6 -1 -1</clus>
<clus scale="  106.065">  2  5  1 -1</clus>
<clus scale="  148.298">  7 10 -1 -1</clus>
<clus scale="   22.652">  1  5  2 -1</clus>
</clustering>
</event>
<event>
10    2  0.5921424E-006  0.2457956E+03  0.7546771E-02  0.1150802E+00
         21   -1    0    0  503  502  0.00000000000E+00  0.00000000000E+00  0.15692353058E+03  0.15692353058E+03  0.00000000000E+00 0.  1.
          1   -1    0    0  502    0 -0.00000000000E+00 -0.00000000000E+00 -0.28707324185E+03  0.28707324185E+03  0.00000000000E+00 0. -1.
         23    2    1    2    0    0 -0.11222495932E+02 -0.55843190152E+02 -0.27414136175E+02  0.11061159989E+03  0.90768854062E+02 0.  0.
         23    2    1    2    0    0  0.77376682107E+00  0.31039173356E+02 -0.19813919389E+03  0.21976844345E+03  0.89861001454E+02 0.  0.
        -11    1    3    3    0    0 -0.11209498495E+02 -0.80013133820E+02 -0.30258757335E+02  0.86274833154E+02  0.00000000000E+00 0. -1.
         11    1    3    3    0    0 -0.12997436859E-01  0.24169943668E+02  0.28446211602E+01  0.24336766741E+02  0.00000000000E+00 0.  1.
        -13    1    4    4    0    0 -0.22390461262E+02 -0.17359064555E+02 -0.12993755116E+03  0.13299036461E+03  0.00000000000E+00 0. -1.
         13    1    4    4    0    0  0.23164228083E+02  0.48398237911E+02 -0.68201642728E+02  0.86778078836E+02  0.00000000000E+00 0.  1.
         21    1    1    2  503  501 -0.22045976818E+02  0.17815155650E+02  0.40425384828E+02  0.49372225018E+02  0.00000000000E+00 0.  1.
          1    1    1    2  501    0  0.32494705929E+02  0.69888611453E+01  0.54978233964E+02  0.64244504071E+02  0.00000000000E+00 0. -1.
<scales pt_clust_5="13000.00000" pt_clust_6="13000.00000" pt_clust_7="13000.00000" pt_clust_8="13000.00000" pt_clust_9="28.34440" pt_clust_10="13000.00000"></scales>
<clustering>
<clus scale="   28.344">  1  9  2 -1</clus>
<clus scale="   89.861">  7  8 -1 -1</clus>
<clus scale="   26.502">  7 10 -1 -1</clus>
<clus scale="   90.769">  5  6 -1 -1</clus>
<clus scale="  105.067">  2  5  1 -1</clus>
<clus scale="   28.344">  1  5  2 -1</clus>
</clustering>
</event>
<event>
10    2  0.5921424E-006  0.1866465E+03  0.7546771E-02  0.1191371E+00
         -2   -1    0    0    0  501 -0.00000000000E+00  0.00000000000E+00  0.22725491277E+03  0.22725491277E+03  0.00000000000E+00 0.  1.
         21   -1    0    0  503  502  0.00000000000E+00 -0.00000000000E+00 -0.23273296117E+03  0.23273296117E+03  0.00000000000E+00 0.  1.
         23    2    1    2    0    0  0.14399257409E+02 -0.22547825842E+02  0.11629632217E+03  0.15017166462E+03  0.91164418710E+02 0.  0.
         23    2    1    2    0    0  0.20511831743E+02  0.74303881886E+02 -0.38182933470E+02  0.12897971747E+03  0.96104261116E+02 0.  0.
        -13    1    4    4    0    0  0.33940979212E+02  0.17516298435E+02  0.22875544360E+02  0.44520796382E+02  0.00000000000E+00 0. -1.
         13    1    4    4    0    0 -0.13429147469E+02  0.56787583450E+02 -0.61058477830E+02  0.84458921084E+02  0.00000000000E+00 0.  1.
        -13    1    3    3    0    0  0.17146102712E+01 -0.38310720457E+02  0.69556560616E+01  0.38974765446E+02  0.00000000000E+00 0.  1.
         13    1    3    3    0    0  0.12684647138E+02  0.15762894615E+02  0.10934066611E+03  0.11119689917E+03  0.00000000000E+00 0. -1.
         21    1    1    2  503  501 -0.93335301785E+02 -0.30817324130E+02 -0.51725900082E+02  0.11107094474E+03  0.00000000000E+00 0.  1.
         -2    1    1    2    0  502  0.58424212633E+02 -0.20938731913E+02 -0.31865537012E+02  0.69765547120E+02  0.00000000000E+00 0.  1.
<scales pt_clust_5="13000.00000" pt_clust_6="13000.00000" pt_clust_7="13000.00000" pt_clust_8="13000.00000" pt_clust_9="96.55450" pt_clust_10="13000.00000"></scales>
<clustering>
<clus scale="   91.164">  7  8 -1 -1</clus>
<clus scale="   95.009">  1  7  2 -1</clus>
<clus scale="   96.104">  5  6 -1 -1</clus>
<clus scale="   66.410">  5 10 -1 -1</clus>
<clus scale="   96.555">  2  9  1 -1</clus>
<clus scale="   96.555">  2  5  1 -1</clus>
</clustering>
</event>
<event>
10    2  0.5921424E-006  0.2532918E+03  0.7546771E-02  0.1142216E+00
         21   -1    0    0  503  502  0.00000000000E+00  0.00000000000E+00  0.16404717517E+03  0.16404717517E+03  0.00000000000E+00 0. -1.
          2   -1    0    0  502    0 -0.00000000000E+00 -0.00000000000E+00 -0.27061647050E+03  0.27061647050E+03  0.00000000000E+00 0. -1.
         23    2    1    2    0    0  0.52230361226E+02  0.49860991603E+02 -0.49674472831E+02  0.12642236554E+03  0.91109451428E+02 0.  0.
         23    2    1    2    0    0  0.24078311277E+02 -0.76456745437E+02 -0.13223414387E+03  0.17981833033E+03  0.91778887108E+02 0.  0.
        -11    1    4    4    0    0  0.52617621583E+02 -0.49700966488E+02 -0.47735394077E+02  0.86703333377E+02  0.00000000000E+00 0.  1.
         11    1    4    4    0    0 -0.28539310307E+02 -0.26755778949E+02 -0.84498749794E+02  0.93114996949E+02  0.00000000000E+00 0. -1.
        -11    1    3    3    0    0 -0.25846769857E+01  0.47460550620E+02  0.64118229579E+01  0.47961400042E+02  0.00000000000E+00 0.  1.
         11    1    3    3    0    0  0.54815038211E+02  0.24004409822E+01 -0.56086295789E+02  0.78460965495E+02  0.00000000000E+00 0. -1.
         21    1    1    2  503  501 -0.24505967936E+02  0.34126275058E+02  0.74071261017E+01  0.42661582611E+02  0.00000000000E+00 0. -1.
          2    1    1    2  501    0 -0.51802704566E+02 -0.75305212231E+01  0.67932195265E+02  0.85761367199E+02  0.00000000000E+00 0. -1.
<scales pt_clust_5="13000.00000" pt_clust_6="13000.00000" pt_clust_7="13000.00000" pt_clust_8="13000.00000" pt_clust_9="42.01363" pt_clust_10="13000.00000"></scales>
<clustering>
<clus scale="   42.014">  1  9  2 -1</clus>
<clus scale="   91.109">  7  8 -1 -1</clus>
<clus scale="   91.779">  5  6 -1 -1</clus>
<clus scale="   66.325">  5 10 -1 -1</clus>
<clus scale="  117.823">  2  7  1 -1</clus>
<clus scale="   42.014">  1  5  2 -1</clus>
</clustering>
</event>
<event>
10    2  0.5921424E-006  0.2166236E+03  0.7546771E-02  0.1148023E+00
         21   -1    0    0  501  502  0.00000000000E+00  0.00000000000E+00  0.20726881274E+03  0.20726881274E+03  0.00000000000E+00 0.  1.
          2   -1    0    0  503    0 -0.00000000000E+00 -0.00000000000E+00 -0.37909746674E+03  0.37909746674E+03  0.00000000000E+00 0. -1.
         23    2    1    2    0    0  0.11747334959E+03 -0.22857251547E+02 -0.24472581532E+01  0.15039135542E+03  0.91044653328E+02 0.  0.
         23    2    1    2    0    0 -0.17577867928E+02  0.11321153200E+02 -0.13180934476E+03  0.16192504950E+03  0.91699881901E+02 0.  0.
        -11    1    4    4    0    0 -0.41592784599E+02  0.39148943195E+02 -0.75301987495E+02  0.94514489919E+02  0.00000000000E+00 0. -1.
         11    1    4    4    0    0  0.24014916671E+02 -0.27827789995E+02 -0.56507357261E+02  0.67410559584E+02  0.00000000000E+00 0.  1.
        -13    1    3    3    0    0  0.31458615126E+02 -0.13098553823E+01  0.40960995561E+02  0.51663946270E+02  0.00000000000E+00 0.  1.
         13    1    3    3    0    0  0.86014734468E+02 -0.21547396164E+02 -0.43408253715E+02  0.98727409151E+02  0.00000000000E+00 0. -1.
         21    1    1    2  503  502  0.26455375334E+02  0.53439596077E+00  0.90210442518E+02  0.94011150415E+02  0.00000000000E+00 0.  1.
          2    1    1    2  501    0 -0.12635085700E+03  0.11001702386E+02 -0.12778249360E+03  0.18003872414E+03  0.00000000000E+00 0. -1.
<scales pt_clust_5="13000.00000" pt_clust_6="13000.00000" pt_clust_7="13000.00000" pt_clust_8="13000.00000" pt_clust_9="26.46077" pt_clust_10="13000.00000"></scales>
<clustering>
<clus scale="   26.461">  1  9  2 -1</clus>
<clus scale="   91.045">  7  8 -1 -1</clus>
<clus scale="   91.700">  5  6 -1 -1</clus>
<clus scale="  120.861">  5 10 -1 -1</clus>
<clus scale="  163.943">  2  7  1 -1</clus>
<clus scale="   26.461">  1  5  2 -1</clus>
</clustering>
</event>
<event>
10    2  0.5921424E-006  0.3842693E+03  0.7546771E-02  0.1051695E+00
          2   -1    0    0  503    0 -0.00000000000E+00  0.00000000000E+00  0.31012285748E+03  0.31012285748E+03  0.00000000000E+00 0.  1.
         21   -1    0    0  501  502  0.00000000000E+00 -0.00000000000E+00 -0.71952027407E+03  0.71952027407E+03  0.00000000000E+00 0.  1.
         23    2    1    2    0    0 -0.34418731154E+03  0.61627135774E+02 -0.88274559450E+02  0.37241917346E+03  0.92956084400E+02 0.  0.
         23    2    1    2    0    0  0.10504459030E+03 -0.97933058565E+01 -0.29449175393E+02  0.14493242330E+03  0.94909844600E+02 0.  0.
        -11    1    4    4    0    0  0.47373081559E+02  0.10727454553E+02 -0.59443962292E+02  0.76765042764E+02  0.00000000000E+00 0.  1.
         11    1    4    4    0    0  0.57671508743E+02 -0.20520760410E+02  0.29994786899E+02  0.68167380539E+02  0.00000000000E+00 0. -1.
        -11    1    3    3    0    0 -0.48356070127E+02  0.15651016782E+02 -0.48772819736E+02  0.70441832666E+02  0.00000000000E+00 0. -1.
         11    1    3    3    0    0 -0.29583124141E+03  0.45976118991E+02 -0.39501739715E+02  0.30197734079E+03  0.00000000000E+00 0.  1.
         21    1    1    2  503  502 -0.17017411020E+01 -0.42124163166E+02 -0.26664303049E+03  0.26995526806E+03  0.00000000000E+00 0.  1.
          2    1    1    2  501    0  0.24084446234E+03 -0.97096667515E+01 -0.25030651260E+02  0.24233626672E+03  0.00000000000E+00 0.  1.
<scales pt_clust_5="13000.00000" pt_clust_6="13000.00000" pt_clust_7="13000.00000" pt_clust_8="13000.00000" pt_clust_9="42.15852" pt_clust_10="13000.00000"></scales>
<clustering>
<clus scale="   42.159">  2  9  1 -1</clus>
<clus scale="   92.956">  7  8 -1 -1</clus>
<clus scale="   94.910">  5  6 -1 -1</clus>
<clus scale="  241.363">  5 10 -1 -1</clus>
<clus scale="  359.603">  1  7  2 -1</clus>
<clus scale="   42.159">  2  5  1 -1</clus>
</clustering>
</event>
<event>
10    2  0.5921424E-006  0.2477547E+03  0.7546771E-02  0.1155078E+00
         21   -1    0    0  503  502  0.00000000000E+00  0.00000000000E+00  0.19215140814E+03  0.19215140814E+03  0.00000000000E+00 0. -1.
          1   -1    0    0  502    0 -0.00000000000E+00 -0.00000000000E+00 -0.22325634551E+03  0.22325634551E+03  0.00000000000E+00 0. -1.
         23    2    1    2    0    0  0.32229099617E+02 -0.19541701160E+02  0.65936261431E+02  0.11563055770E+03  0.87190838714E+02 0.  0.
         23    2    1    2    0    0 -0.39528328243E+02  0.10604632757E+03  0.49221744217E+01  0.14448244481E+03  0.89680748943E+02 0.  0.
        -13    1    3    3    0    0 -0.23275153478E+02 -0.21463329836E+01  0.50197344335E+02  0.55372492205E+02  0.00000000000E+00 0.  1.
         13    1    3    3    0    0  0.55504253095E+02 -0.17395368176E+02  0.15738917096E+02  0.60258065493E+02  0.00000000000E+00 0. -1.
        -13    1    4    4    0    0  0.28288824417E+02  0.39407963903E+02 -0.55620599853E+01  0.48828083283E+02  0.00000000000E+00 0. -1.
         13    1    4    4    0    0 -0.67817152659E+02  0.66638363671E+02  0.10484234407E+02  0.95654361524E+02  0.00000000000E+00 0.  1.
         21    1    1    2  503  501 -0.31179657360E+02 -0.14747253609E+02 -0.20536116324E+02  0.40142055201E+02  0.00000000000E+00 0. -1.
          1    1    1    2  501    0  0.38478885985E+02 -0.71757372804E+02 -0.81427256893E+02  0.11515269595E+03  0.00000000000E+00 0. -1.
<scales pt_clust_5="13000.00000" pt_clust_6="13000.00000" pt_clust_7="13000.00000" pt_clust_8="13000.00000" pt_clust_9="34.49136" pt_clust_10="13000.00000"></scales>
<clustering>
<clus scale="   34.491">  1  9  2 -1</clus>
<clus scale="   87.191">  5  6 -1 -1</clus>
<clus scale="   89.681">  7  8 -1 -1</clus>
<clus scale="   81.325">  7 10 -1 -1</clus>
<clus scale="   92.758">  2  5  1 -1</clus>
<clus scale="   34.491">  1  5  2 -1</clus>
</clustering>
</event>
<event>
10    2  0.5921424E-006  0.2751034E+03  0.7546771E-02  0.1103817E+00
          2   -1    0    0  502    0 -0.00000000000E+00  0.00000000000E+00  0.10776498587E+04  0.10776498587E+04  0.00000000000E+00 0. -1.
         21   -1    0    0  503  502  0.00000000000E+00 -0.00000000000E+00 -0.25060128560E+03  0.25060128560E+03  0.00000000000E+00 0. -1.
         23    2    1    2    0    0  0.16400323831E+03 -0.16131282166E+03  0.57792104214E+03  0.62851524049E+03  0.90109866176E+02 0.  0.
         23    2    1    2    0    0 -0.73704812340E+02  0.60098860612E+02  0.32469423435E+03  0.35083455115E+03  0.92813059693E+02 0.  0.
        -11    1    4    4    0    0 -0.52237830597E+02 -0.35787382935E+01  0.69949903270E+02  0.87376125348E+02  0.00000000000E+00 0.  1.
         11    1    4    4    0    0 -0.21466981743E+02  0.63677598906E+02  0.25474433108E+03  0.26345842580E+03  0.00000000000E+00 0. -1.
        -13    1    3    3    0    0  0.31385907211E+01 -0.52133119978E+02  0.10802294356E+03  0.11998612122E+03  0.00000000000E+00 0.  1.
         13    1    3    3    0    0  0.16086464759E+03 -0.10917970168E+03  0.46989809858E+03  0.50852911928E+03  0.00000000000E+00 0. -1.
         21    1    1    2  503  501  0.99059270944E+00  0.32113648463E+02 -0.18663922621E+03  0.18938444617E+03  0.00000000000E+00 0. -1.
          2    1    1    2  501    0 -0.91289018681E+02  0.69100312581E+02  0.11107252282E+03  0.15951690649E+03  0.00000000000E+00 0. -1.
<scales pt_clust_5="13000.00000" pt_clust_6="13000.00000" pt_clust_7="13000.00000" pt_clust_8="13000.00000" pt_clust_9="32.12892" pt_clust_10="13000.00000"></scales>
<clustering>
<clus scale="   32.129">  2  9  1 -1</clus>
<clus scale="   90.110">  7  8 -1 -1</clus>
<clus scale="   92.813">  5  6 -1 -1</clus>
<clus scale="  122.109">  5 10 -1 -1</clus>
<clus scale="  239.063">  1  7  2 -1</clus>
<clus scale="   32.129">  2  5  1 -1</clus>
</clustering>
</event>
<event>
10    2  0.5921424E-006  0.1758354E+03  0.7546771E-02  0.1199116E+00
         21   -1    0    0  503  502  0.00000000000E+00  0.00000000000E+00  0.88449075298E+02  0.88449075298E+02  0.00000000000E+00 0.  1.
         -1   -1    0    0    0  501 -0.00000000000E+00 -0.00000000000E+00 -0.31836407202E+03  0.31836407202E+03  0.00000000000E+00 0.  1.
         23    2    1    2    0    0 -0.34326638757E+02  0.20786961585E+02 -0.11952038409E+03  0.15444985264E+03  0.89214454358E+02 0.  0.
         23    2    1    2    0    0 -0.59468104036E+01  0.21261505145E+02 -0.14797143308E+03  0.17743519559E+03  0.95395426879E+02 0.  0.
        -11    1    4    4    0    0 -0.49405704537E+02  0.17876024280E+02 -0.97421618456E+02  0.11068625763E+03  0.00000000000E+00 0.  1.
         11    1    4    4    0    0  0.43458894133E+02  0.33854808658E+01 -0.50549814627E+02  0.66748937960E+02  0.00000000000E+00 0. -1.
        -11    1    3    3    0    0  0.99550683109E+01  0.30818227104E+02 -0.99845387229E+02  0.10496650827E+03  0.00000000000E+00 0. -1.
         11    1    3    3    0    0 -0.44281707068E+02 -0.10031265519E+02 -0.19674996866E+02  0.49483344374E+02  0.00000000000E+00 0.  1.
         21    1    1    2  503  501  0.63214696500E+01 -0.25537679451E+02  0.21148489889E+02  0.33754891125E+02  0.00000000000E+00 0.  1.
         -1    1    1    2    0  502  0.33951979510E+02 -0.16510787280E+02  0.16428330564E+02  0.41173207968E+02  0.00000000000E+00 0.  1.
<scales pt_clust_5="13000.00000" pt_clust_6="13000.00000" pt_clust_7="13000.00000" pt_clust_8="13000.00000" pt_clust_9="26.30844" pt_clust_10="13000.00000"></scales>
<clustering>
<clus scale="   26.308">  1  9  2 -1</clus>
<clus scale="   89.214">  7  8 -1 -1</clus>
<clus scale="   95.395">  5  6 -1 -1</clus>
<clus scale="   46.696">  5 10 -1 -1</clus>
<clus scale="   95.907">  2  7  1 -1</clus>
<clus scale="   26.308">  1  5  2 -1</clus>
</clustering>
</event>
<event>
10    2  0.5921424E-006  0.1827946E+03  0.7546771E-02  0.1187402E+00
          1   -1    0    0  502    0 -0.00000000000E+00  0.00000000000E+00  0.11957438219E+03  0.11957438219E+03  0.00000000000E+00 0. -1.
         21   -1    0    0  503  502  0.00000000000E+00 -0.00000000000E+00 -0.25077517902E+03  0.25077517902E+03  0.00000000000E+00 0. -1.
         23    2    1    2    0    0 -0.61235003693E+02  0.20193899739E+02 -0.62689028721E+02  0.13105477433E+03  0.95330584228E+02 0.  0.
         23    2    1    2    0    0 -0.15840967926E+02 -0.26675407872E+02  0.23526011691E+02  0.10307438368E+03  0.95437632484E+02 0.  0.
        -11    1    3    3    0    0 -0.53945126496E+01  0.36378329995E+02  0.98692424410E+01  0.38077363437E+02  0.00000000000E+00 0. -1.
         11    1    3    3    0    0 -0.55840491044E+02 -0.16184430256E+02 -0.72558271162E+02  0.92977410895E+02  0.00000000000E+00 0.  1.
        -11    1    4    4    0    0 -0.43956872116E+02 -0.67229464423E+01  0.44344623753E+02  0.62800081774E+02  0.00000000000E+00 0. -1.
         11    1    4    4    0    0  0.28115904190E+02 -0.19952461430E+02 -0.20818612062E+02  0.40274301902E+02  0.00000000000E+00 0.  1.
         21    1    1    2  503  501  0.13462376044E+02 -0.17652520025E+02 -0.53738765225E+02  0.58143803797E+02  0.00000000000E+00 0.  1.
          1    1    1    2  501    0  0.63613595575E+02  0.24134028158E+02 -0.38299014573E+02  0.78076599403E+02  0.00000000000E+00 0. -1.
<scales pt_clust_5="13000.00000" pt_clust_6="13000.00000" pt_clust_7="13000.00000" pt_clust_8="13000.00000" pt_clust_9="22.20016" pt_clust_10="13000.00000"></scales>
<clustering>
<clus scale="   22.200">  2  9  1 -1</clus>
<clus scale="   95.331">  5  6 -1 -1</clus>
<clus scale="   95.438">  7  8 -1 -1</clus>
<clus scale="   70.215">  7 10 -1 -1</clus>
<clus scale="  110.422">  1  5  2 -1</clus>
<clus scale="   22.200">  2  5  1 -1</clus>
</clustering>
</event>
<event>
10    2  0.5921424E-006  0.6779267E+03  0.7546771E-02  0.1031315E+00
         21   -1    0    0  503  502  0.00000000000E+00  0.00000000000E+00  0.54804672165E+03  0.54804672165E+03  0.00000000000E+00 0. -1.
          1   -1    0    0  502    0 -0.00000000000E+00 -0.00000000000E+00 -0.39864110581E+03  0.39864110581E+03  0.00000000000E+00 0. -1.
         23    2    1    2    0    0  0.53009979577E+02  0.46654853179E+02  0.77615968639E+02  0.13997008168E+03  0.92631808354E+02 0.  0.
         23    2    1    2    0    0 -0.30141666519E+03  0.48581002453E+02 -0.23126739532E+03  0.39351680970E+03  0.90325807625E+02 0.  0.
        -11    1    3    3    0    0  0.39102077358E+02 -0.22521571700E+02  0.22428953232E+02  0.50390987177E+02  0.00000000000E+00 0. -1.
         11    1    3    3    0    0  0.13907902219E+02  0.69176424880E+02  0.55187015407E+02  0.89579094508E+02  0.00000000000E+00 0.  1.
        -11    1    4    4    0    0 -0.61537254041E+02 -0.13247946602E+02 -0.15080117355E+02  0.64728291059E+02  0.00000000000E+00 0.  1.
         11    1    4    4    0    0 -0.23987941115E+03  0.61828949055E+02 -0.21618727797E+03  0.32878851864E+03  0.00000000000E+00 0. -1.
         21    1    1    2  503  501  0.40273497542E+02 -0.35615831721E+02  0.11289134806E+03  0.12503958789E+03  0.00000000000E+00 0. -1.
          1    1    1    2  501    0  0.20813318808E+03 -0.59620023912E+02  0.19016569447E+03  0.28816134817E+03  0.00000000000E+00 0. -1.
<scales pt_clust_5="13000.00000" pt_clust_6="13000.00000" pt_clust_7="13000.00000" pt_clust_8="13000.00000" pt_clust_9="53.76283" pt_clust_10="13000.00000"></scales>
<clustering>
<clus scale="   53.763">  1  9  2 -1</clus>
<clus scale="   90.326">  7  8 -1 -1</clus>
<clus scale="   92.632">  5  6 -1 -1</clus>
<clus scale="  118.293">  2  5  1 -1</clus>
<clus scale="  252.811">  7 10 -1 -1</clus>
<clus scale="   53.763">  1  5  2 -1</clus>
</clustering>
</event>
<event>
10    2  0.5921424E-006  0.5187933E+03  0.7546771E-02  0.1066520E+00
          1   -1    0    0  502    0 -0.00000000000E+00  0.00000000000E+00  0.50402057728E+03  0.50402057728E+03  0.00000000000E+00 0. -1.
         21   -1    0    0  503  502  0.00000000000E+00 -0.00000000000E+00 -0.51084514826E+03  0.51084514826E+03  0.00000000000E+00 0. -1.
         23    2    1    2    0    0  0.93390166613E+01  0.39299835730E+02 -0.92874574798E+00  0.98385341260E+02  0.89705732735E+02 0.  0.
         23    2    1    2    0    0  0.26682754110E+03  0.23890778026E+02  0.23747058596E+03  0.37278289588E+03  0.10395721381E+03 0.  0.
        -11    1    4    4    0    0  0.91720446289E+02  0.78631724374E+01  0.21962210032E+02  0.94640416407E+02  0.00000000000E+00 0.  1.
         11    1    4    4    0    0  0.17510709481E+03  0.16027605588E+02  0.21550837593E+03  0.27814247948E+03  0.00000000000E+00 0. -1.
        -11    1    3    3    0    0 -0.19121258552E+02 -0.22622552214E+02 -0.53178066194E+01  0.30094542105E+02  0.00000000000E+00 0. -1.
         11    1    3    3    0    0  0.28460275214E+02  0.61922387943E+02  0.43890608714E+01  0.68290799155E+02  0.00000000000E+00 0.  1.
         21    1    1    2  503  501 -0.61095612397E+02 -0.17634091516E+02 -0.30804321192E+03  0.31453816215E+03  0.00000000000E+00 0. -1.
          1    1    1    2  501    0 -0.21507094536E+03 -0.45556522239E+02  0.64676800726E+02  0.22915932625E+03  0.00000000000E+00 0. -1.
<scales pt_clust_5="13000.00000" pt_clust_6="13000.00000" pt_clust_7="13000.00000" pt_clust_8="13000.00000" pt_clust_9="63.58958" pt_clust_10="13000.00000"></scales>
<clustering>
<clus scale="   63.590">  2  9  1 -1</clus>
<clus scale="   89.706">  7  8 -1 -1</clus>
<clus scale="   96.438">  1  7  2 -1</clus>
<clus scale="  103.957">  5  6 -1 -1</clus>
<clus scale="  245.692">  5 10 -1 -1</clus>
<clus scale="   63.590">  2  5  1 -1</clus>
</clustering>
</event>
<event>
10    2  0.5921424E-006  0.3064976E+03  0.7546771E-02  0.1125484E+00
          2   -1    0    0  503    0 -0.00000000000E+00  0.00000000000E+00  0.75632511749E+03  0.75632511749E+03  0.00000000000E+00 0. -1.
         21   -1    0    0  501  502  0.00000000000E+00 -0.00000000000E+00 -0.78654505021E+02  0.78654505021E+02  0.00000000000E+00 0.  1.
         23    2    1    2    0    0  0.49170124948E+02  0.22128150675E+02  0.66145439413E+02  0.12564896847E+03  0.92223033365E+02 0.  0.
         23    2    1    2    0    0  0.10125612086E+03  0.56246876196E+02  0.39774610103E+03  0.42376305468E+03  0.89200070278E+02 0.  0.
        -11    1    3    3    0    0  0.76485629605E+02  0.11824933773E+02  0.51722460087E+02  0.93086483832E+02  0.00000000000E+00 0.  1.
         11    1    3    3    0    0 -0.27315504657E+02  0.10303216902E+02  0.14422979326E+02  0.32562484639E+02  0.00000000000E+00 0. -1.
        -13    1    4    4    0    0  0.86122495023E+02 -0.17643326383E+01  0.22667246506E+03  0.24248835732E+03  0.00000000000E+00 0.  1.
         13    1    4    4    0    0  0.15133625841E+02  0.58011208834E+02  0.17107363597E+03  0.18127469736E+03  0.00000000000E+00 0. -1.
         21    1    1    2  503  502 -0.51712732058E+02  0.12305612220E+02  0.81072769410E+02  0.96945493391E+02  0.00000000000E+00 0. -1.
          2    1    1    2  501    0 -0.98713513754E+02 -0.90680639092E+02  0.13270630262E+03  0.18862210596E+03  0.00000000000E+00 0. -1.
<scales pt_clust_5="13000.00000" pt_clust_6="13000.00000" pt_clust_7="13000.00000" pt_clust_8="13000.00000" pt_clust_9="53.15673" pt_clust_10="13000.00000"></scales>
<clustering>
<clus scale="   53.157">  2  9  1 -1</clus>
<clus scale="   89.200">  7  8 -1 -1</clus>
<clus scale="   92.223">  5  6 -1 -1</clus>
<clus scale="  100.011">  1  5  2 -1</clus>
<clus scale="  133.151">  7 10 -1 -1</clus>
<clus scale="   53.157">  2  5  1 -1</clus>
</clustering>
</event>
<event>
10    2  0.5921424E-006  0.1385299E+03  0.7546771E-02  0.1222163E+00
         21   -1    0    0  501  502  0.00000000000E+00  0.00000000000E+00  0.30047320009E+03  0.30047320009E+03  0.00000000000E+00 0.  1.
         -3   -1    0    0    0  501 -0.00000000000E+00 -0.00000000000E+00 -0.16253259178E+03  0.16253259178E+03  0.00000000000E+00 0.  1.
         23    2    1    2    0    0  0.50377115775E+02 -0.25652692797E+02 -0.93354284778E+02  0.15459016432E+03  0.10948598987E+03 0.  0.
         23    2    1    2    0    0  0.20719808929E+02  0.64869068057E+00  0.49421691724E+02  0.10504602943E+03  0.90346186438E+02 0.  0.
        -13    1    3    3    0    0  0.61743851791E+02  0.71944998505E+01 -0.10137749113E+03  0.11891786985E+03  0.00000000000E+00 0.  1.
         13    1    3    3    0    0 -0.11366736016E+02 -0.32847192647E+02  0.80232063561E+01  0.35672294469E+02  0.00000000000E+00 0. -1.
        -13    1    4    4    0    0  0.55515028385E+02 -0.97264436462E+01  0.28883512856E+02  0.63330714488E+02  0.00000000000E+00 0.  1.
         13    1    4    4    0    0 -0.34795219456E+02  0.10375134327E+02  0.20538178868E+02  0.41715314940E+02  0.00000000000E+00 0. -1.
         21    1    1    2  503  502 -0.38275122909E+02  0.69184527565E+01  0.14741731033E+03  0.15246217041E+03  0.00000000000E+00 0.  1.
         -3    1    1    2    0  503 -0.32821801795E+02  0.18085549360E+02  0.34455891030E+02  0.50907427703E+02  0.00000000000E+00 0.  1.
<scales pt_clust_5="13000.00000" pt_clust_6="13000.00000" pt_clust_7="13000.00000" pt_clust_8="13000.00000" pt_clust_9="38.89537" pt_clust_10="13000.00000"></scales>
<clustering>
<clus scale="   38.895">  1  9  2 -1</clus>
<clus scale="   90.346">  7  8 -1 -1</clus>
<clus scale="   48.055">  7 10 -1 -1</clus>
<clus scale="  109.486">  5  6 -1 -1</clus>
<clus scale="  119.955">  2  5  1 -1</clus>
<clus scale="   38.895">  1  5  2 -1</clus>
</clustering>
</event>
<event>
10    2  0.5921424E-006  0.2209998E+03  0.7546771E-02  0.1164841E+00
         -2   -1    0    0    0  501 -0.00000000000E+00  0.00000000000E+00  0.56076761253E+03  0.56076761253E+03  0.00000000000E+00 0.  1.
         21   -1    0    0  501  502  0.00000000000E+00 -0.00000000000E+00 -0.33415545279E+03  0.33415545279E+03  0.00000000000E+00 0. -1.
         23    2    1    2    0    0  0.32145884512E+02  0.41026161343E+02  0.18057317099E+03  0.20867968389E+03  0.90686474084E+02 0.  0.
         23    2    1    2    0    0  0.83958124182E+01  0.29457988962E+02  0.26604188601E+03  0.28325821522E+03  0.92296633730E+02 0.  0.
        -11    1    4    4    0    0  0.37216511429E+02  0.22381170061E+00  0.21278710927E+03  0.21601729719E+03  0.00000000000E+00 0.  1.
         11    1    4    4    0    0 -0.28820699011E+02  0.29234177261E+02  0.53254776741E+02  0.67240918029E+02  0.00000000000E+00 0. -1.
        -11    1    3    3    0    0  0.50430637221E+02  0.54363916170E+02  0.16586947292E+03  0.18169030408E+03  0.00000000000E+00 0. -1.
         11    1    3    3    0    0 -0.18284752710E+02 -0.13337754827E+02  0.14703698076E+02  0.26989379811E+02  0.00000000000E+00 0.  1.
         21    1    1    2  503  502  0.59149709918E+02 -0.85453099977E+02 -0.27083131748E+03  0.29008709556E+03  0.00000000000E+00 0. -1.
         -2    1    1    2    0  503 -0.99691406848E+02  0.14968949672E+02  0.50828420217E+02  0.11289807064E+03  0.00000000000E+00 0.  1.
<scales pt_clust_5="13000.00000" pt_clust_6="13000.00000" pt_clust_7="13000.00000" pt_clust_8="13000.00000" pt_clust_9="103.92748" pt_clust_10="13000.00000"></scales>
<clustering>
<clus scale="   90.686">  7  8 -1 -1</clus>
<clus scale="   92.297">  5  6 -1 -1</clus>
<clus scale="  100.809">  5 10 -1 -1</clus>
<clus scale="  103.927">  2  9  1 -1</clus>
<clus scale="  104.118">  1  7  2 -1</clus>
<clus scale="  103.927">  2  5  1 -1</clus>
</clustering>
</event>
<event>
10    2  0.5921424E-006  0.2007105E+03  0.7546771E-02  0.1161213E+00
         21   -1    0    0  501  502  0.00000000000E+00  0.00000000000E+00  0.86795188567E+02  0.86795188567E+02  0.00000000000E+00 0.  1.
          3   -1    0    0  503    0 -0.00000000000E+00 -0.00000000000E+00 -0.74477910575E+03  0.74477910575E+03  0.00000000000E+00 0. -1.
         23    2    1    2    0    0  0.69626907461E+02  0.84191609302E+02 -0.39822730411E+03  0.42284839137E+03  0.90992543803E+02 0.  0.
         23    2    1    2    0    0 -0.87491260949E+02 -0.94449063079E+02 -0.24681570914E+03  0.29299573757E+03  0.91395632818E+02 0.  0.
        -13    1    4    4    0    0 -0.87236366351E+02 -0.56437158109E+02 -0.11134375343E+03  0.15229171959E+03  0.00000000000E+00 0.  1.
         13    1    4    4    0    0 -0.25489459816E+00 -0.38011904970E+02 -0.13547195571E+03  0.14070401798E+03  0.00000000000E+00 0. -1.
        -13    1    3    3    0    0  0.76735780760E+02  0.25344276425E+02 -0.19309455092E+03  0.20932323806E+03  0.00000000000E+00 0.  1.
         13    1    3    3    0    0 -0.71088732981E+01  0.58847332877E+02 -0.20513275319E+03  0.21352515331E+03  0.00000000000E+00 0. -1.
         21    1    1    2  503  502  0.53156467776E+01  0.61149353382E+02  0.13708322682E+01  0.61395266110E+02  0.00000000000E+00 0.  1.
          3    1    1    2  501    0  0.12548706710E+02 -0.50891899605E+02 -0.14311736210E+02  0.54334899271E+02  0.00000000000E+00 0. -1.
<scales pt_clust_5="13000.00000" pt_clust_6="13000.00000" pt_clust_7="13000.00000" pt_clust_8="13000.00000" pt_clust_9="61.37996" pt_clust_10="13000.00000"></scales>
<clustering>
<clus scale="   61.380">  1  9  2 -1</clus>
<clus scale="   90.993">  7  8 -1 -1</clus>
<clus scale="   91.396">  5  6 -1 -1</clus>
<clus scale="   32.238">  5 10 -1 -1</clus>
<clus scale="  151.174">  2  7  1 -1</clus>
<clus scale="   61.380">  1  5  2 -1</clus>
</clustering>
</event>
<event>
10    2  0.5921424E-006  0.1157241E+03  0.7546771E-02  0.1257474E+00
         -1   -1    0    0    0  501 -0.00000000000E+00  0.00000000000E+00  0.20431833734E+03  0.20431833734E+03  0.00000000000E+00 0.  1.
         21   -1    0    0  503  502  0.00000000000E+00 -0.00000000000E+00 -0.10475896905E+03  0.10475896905E+03  0.00000000000E+00 0.  1.
         23    2    1    2    0    0 -0.14728641462E+02 -0.62644275279E+01  0.77668961216E+01  0.94388897939E+02  0.92697159866E+02 0.  0.
         23    2    1    2    0    0  0.20783590550E+02  0.22385696370E+02  0.10484182703E+03  0.14216886288E+03  0.91033509422E+02 0.  0.
        -11    1    4    4    0    0 -0.15521314752E+02  0.48713453283E+02  0.53582941272E+02  0.74061078427E+02  0.00000000000E+00 0.  1.
         11    1    4    4    0    0  0.36304905302E+02 -0.26327756913E+02  0.51258885761E+02  0.68107784449E+02  0.00000000000E+00 0. -1.
        -11    1    3    3    0    0  0.27329124845E+02 -0.31123832772E+02  0.16815341425E+02  0.44702681558E+02  0.00000000000E+00 0. -1.
         11    1    3    3    0    0 -0.42057766308E+02  0.24859405244E+02 -0.90484453036E+01  0.49686216381E+02  0.00000000000E+00 0.  1.
         21    1    1    2  503  501 -0.28697243847E+02 -0.22174704495E+02 -0.27027894782E+02  0.45230038915E+02  0.00000000000E+00 0.  1.
         -1    1    1    2    0  502  0.22642294760E+02  0.60534356530E+01  0.13978539918E+02  0.27289506654E+02  0.00000000000E+00 0.  1.
<scales pt_clust_5="13000.00000" pt_clust_6="13000.00000" pt_clust_7="13000.00000" pt_clust_8="13000.00000" pt_clust_9="36.26637" pt_clust_10="13000.00000"></scales>
<clustering>
<clus scale="   36.266">  2  9  1 -1</clus>
<clus scale="   91.034">  5  6 -1 -1</clus>
<clus scale="   20.239">  5 10 -1 -1</clus>
<clus scale="   92.697">  7  8 -1 -1</clus>
<clus scale="  100.407">  1  7  2 -1</clus>
<clus scale="   36.266">  2  5  1 -1</clus>
</clustering>
</event>
<event>
10    2  0.5921424E-006  0.2303912E+03  0.7546771E-02  0.1136070E+00
         21   -1    0    0  501  502  0.00000000000E+00  0.00000000000E+00  0.45136649217E+03  0.45136649217E+03  0.00000000000E+00 0. -1.
          1   -1    0    0  503    0 -0.00000000000E+00 -0.00000000000E+00 -0.52887660418E+03  0.52887660418E+03  0.00000000000E+00 0. -1.
         23    2    1    2    0    0 -0.29271498205E+02  0.10400139743E+03 -0.10244577879E+03  0.17504483306E+03  0.92045883741E+02 0.  0.
         23    2    1    2    0    0  0.19732554789E+02 -0.23448460992E+03 -0.31968222509E+03  0.40496806685E+03  0.80187306487E+02 0.  0.
        -11    1    4    4    0    0  0.13018176363E+02 -0.61203019602E+02 -0.14919919399E+03  0.16178900461E+03  0.00000000000E+00 0.  1.
         11    1    4    4    0    0  0.67143784263E+01 -0.17328159031E+03 -0.17048303110E+03  0.24317906224E+03  0.00000000000E+00 0. -1.
        -13    1    3    3    0    0  0.32043361745E+02  0.51816974167E+02 -0.51412976858E+02  0.79718693123E+02  0.00000000000E+00 0. -1.
         13    1    3    3    0    0 -0.61314859949E+02  0.52184423263E+02 -0.51032801933E+02  0.95326139936E+02  0.00000000000E+00 0.  1.
         21    1    1    2  503  502  0.37398178783E+02  0.13168824264E+03  0.34621698712E+03  0.37229909911E+03  0.00000000000E+00 0. -1.
          1    1    1    2  501    0 -0.27859235368E+02 -0.12050301550E+01 -0.15990952465E+01  0.27931097339E+02  0.00000000000E+00 0. -1.
<scales pt_clust_5="13000.00000" pt_clust_6="13000.00000" pt_clust_7="13000.00000" pt_clust_8="13000.00000" pt_clust_9="136.89564" pt_clust_10="13000.00000"></scales>
<clustering>
<clus scale="   80.187">  5  6 -1 -1</clus>
<clus scale="   27.885">  5 10 -1 -1</clus>
<clus scale="   92.046">  7  8 -1 -1</clus>
<clus scale="  136.896">  1  9  2 -1</clus>
<clus scale="  181.627">  2  7  1 -1</clus>
<clus scale="  136.896">  1  5  2 -1</clus>
</clustering>
</event>
<event>
10    2  0.5921424E-006  0.4760029E+03  0.7546771E-02  0.1052803E+00
          1   -1    0    0  502    0 -0.00000000000E+00  0.00000000000E+00  0.36988152167E+03  0.36988152167E+03  0.00000000000E+00 0. -1.
         21   -1    0    0  503  502  0.00000000000E+00 -0.00000000000E+00 -0.40911463735E+03  0.40911463735E+03  0.00000000000E+00 0. -1.
         23    2    1    2    0    0 -0.84713148554E+02  0.13826710275E+03  0.14981325743E+03  0.23853469934E+03  0.90336490119E+02 0.  0.
         23    2    1    2    0    0  0.75748494365E+02  0.14822477427E+03 -0.89099527341E+02  0.20862157856E+03  0.88745812098E+02 0.  0.
        -13    1    3    3    0    0 -0.25571915614E+02  0.93929181148E+02  0.12925536888E+03  0.16181336263E+03  0.00000000000E+00 0. -1.
         13    1    3    3    0    0 -0.59141232940E+02  0.44337921597E+02  0.20557888545E+02  0.76721336710E+02  0.00000000000E+00 0.  1.
        -13    1    4    4    0    0  0.31470496792E+02  0.38099334571E+02  0.14045279186E+02  0.51373352339E+02  0.00000000000E+00 0.  1.
         13    1    4    4    0    0  0.44277997573E+02  0.11012543969E+03 -0.10314480653E+03  0.15724822622E+03  0.00000000000E+00 0. -1.
         21    1    1    2  503  501  0.28595149230E+02 -0.83343675957E+01 -0.34186112375E+02  0.45341311428E+02  0.00000000000E+00 0. -1.
          1    1    1    2  501    0 -0.19630495042E+02 -0.27815750942E+03 -0.65760733399E+02  0.28649856969E+03  0.00000000000E+00 0. -1.
<scales pt_clust_5="13000.00000" pt_clust_6="13000.00000" pt_clust_7="13000.00000" pt_clust_8="13000.00000" pt_clust_9="29.78497" pt_clust_10="13000.00000"></scales>
<clustering>
<clus scale="   29.785">  2  9  1 -1</clus>
<clus scale="   88.746">  7  8 -1 -1</clus>
<clus scale="   90.336">  5  6 -1 -1</clus>
<clus scale="  183.327">  1  5  2 -1</clus>
<clus scale="  202.803">  7 10 -1 -1</clus>
<clus scale="   29.785">  2  5  1 -1</clus>
</clustering>
</event>
<event>
10    2  0.5921424E-006  0.3435840E+03  0.7546771E-02  0.1093187E+00
          2   -1    0    0  502    0 -0.00000000000E+00  0.00000000000E+00  0.13007305565E+04  0.13007305565E+04  0.00000000000E+00 0. -1.
         21   -1    0    0  503  502  0.00000000000E+00 -0.00000000000E+00 -0.69622055071E+02  0.69622055071E+02  0.00000000000E+00 0. -1.
         23    2    1    2    0    0 -0.78060174682E+01 -0.11614269454E+03  0.34361023433E+03  0.37388444764E+03  0.90396502390E+02 0.  0.
         23    2    1    2    0    0  0.54764610915E+02 -0.74893534172E+01  0.48550881300E+03  0.49681903557E+03  0.89750173122E+02 0.  0.
        -11    1    4    4    0    0  0.16952812329E+02  0.39799157310E+02  0.16101929085E+03  0.16672907003E+03  0.00000000000E+00 0. -1.
         11    1    4    4    0    0  0.37811798586E+02 -0.47288510727E+02  0.32448952216E+03  0.33008996554E+03  0.00000000000E+00 0.  1.
        -13    1    3    3    0    0 -0.42969799710E+02 -0.63100369467E+02  0.24414762691E+03  0.25580485539E+03  0.00000000000E+00 0. -1.
         13    1    3    3    0    0  0.35163782242E+02 -0.53042325076E+02  0.99462607417E+02  0.11807959225E+03  0.00000000000E+00 0.  1.
         21    1    1    2  503  501  0.46796315511E+02 -0.68152585853E+02  0.12673071959E+03  0.15131207946E+03  0.00000000000E+00 0. -1.
          2    1    1    2  501    0 -0.93754908958E+02  0.19178463381E+03  0.27525873454E+03  0.34833704894E+03  0.00000000000E+00 0. -1.
<scales pt_clust_5="13000.00000" pt_clust_6="13000.00000" pt_clust_7="13000.00000" pt_clust_8="13000.00000" pt_clust_9="82.67206" pt_clust_10="13000.00000"></scales>
<clustering>
<clus scale="   82.672">  2  9  1 -1</clus>
<clus scale="   89.750">  5  6 -1 -1</clus>
<clus scale="   90.397">  7  8 -1 -1</clus>
<clus scale="  161.538">  5 10 -1 -1</clus>
<clus scale="  161.818">  1  7  2 -1</clus>
<clus scale="   82.672">  2  5  1 -1</clus>
</clustering>
</event>
<event>
10    2  0.5921424E-006  0.2412428E+03  0.7546771E-02  0.1148373E+00
          3   -1    0    0  502    0 -0.00000000000E+00  0.00000000000E+00  0.83954800227E+03  0.83954800227E+03  0.00000000000E+00 0. -1.
         21   -1    0    0  503  502  0.00000000000E+00 -0.00000000000E+00 -0.34230238655E+03  0.34230238655E+03  0.00000000000E+00 0.  1.
         23    2    1    2    0    0  0.62843227054E+02  0.10276315093E+02  0.38889972929E+03  0.40541888016E+03  0.95218669941E+02 0.  0.
         23    2    1    2    0    0 -0.12569542343E+03 -0.57880545829E+02  0.18523629446E+03  0.24410166374E+03  0.78253692553E+02 0.  0.
        -11    1    4    4    0    0 -0.57241717399E+02 -0.16788139464E+02  0.24228820593E+02  0.64385492037E+02  0.00000000000E+00 0.  1.
         11    1    4    4    0    0 -0.68453706029E+02 -0.41092406365E+02  0.16100747387E+03  0.17971617170E+03  0.00000000000E+00 0. -1.
        -13    1    3    3    0    0  0.28472034079E+02  0.51138192650E+02  0.24605808765E+03  0.25292361292E+03  0.00000000000E+00 0. -1.
         13    1    3    3    0    0  0.34371192975E+02 -0.40861877557E+02  0.14284164164E+03  0.15249526724E+03  0.00000000000E+00 0.  1.
         21    1    1    2  503  501  0.31976458380E+02 -0.19134242541E+02 -0.29748083998E+03  0.29980570923E+03  0.00000000000E+00 0.  1.
          3    1    1    2  501    0  0.30875737994E+02  0.66738473277E+02  0.22059043195E+03  0.23252413569E+03  0.00000000000E+00 0. -1.
<scales pt_clust_5="13000.00000" pt_clust_6="13000.00000" pt_clust_7="13000.00000" pt_clust_8="13000.00000" pt_clust_9="37.26410" pt_clust_10="13000.00000"></scales>
<clustering>
<clus scale="   37.264">  2  9  1 -1</clus>
<clus scale="   78.254">  5  6 -1 -1</clus>
<clus scale="   73.172">  5 10 -1 -1</clus>
<clus scale="   95.219">  7  8 -1 -1</clus>
<clus scale="  117.716">  1  7  2 -1</clus>
<clus scale="   37.264">  2  5  1 -1</clus>
</clustering>
</event>
<event>
10    2  0.5921424E-006  0.2913952E+03  0.7546771E-02  0.1131738E+00
          3   -1    0    0  503    0 -0.00000000000E+00  0.00000000000E+00  0.15180183203E+03  0.15180183203E+03  0.00000000000E+00 0. -1.
         21   -1    0    0  501  502  0.00000000000E+00 -0.00000000000E+00 -0.52911563286E+03  0.52911563286E+03  0.00000000000E+00 0. -1.
         23    2    1    2    0    0  0.40543746722E-02 -0.37844114489E+02 -0.78291806293E+02  0.12682269589E+03  0.92315828776E+02 0.  0.
         23    2    1    2    0    0 -0.13593703002E+02  0.25168499824E+02  0.24125772261E+02  0.98819834457E+02  0.91460727365E+02 0.  0.
        -11    1    3    3    0    0 -0.96174911297E+01  0.28963804312E+02 -0.13892533782E+02  0.33532083007E+02  0.00000000000E+00 0.  1.
         11    1    3    3    0    0  0.96215455044E+01 -0.66807918801E+02 -0.64399272511E+02  0.93290612884E+02  0.00000000000E+00 0. -1.
        -11    1    4    4    0    0 -0.35511494487E+02  0.46812950419E+02  0.32162872450E+02  0.66984841060E+02  0.00000000000E+00 0. -1.
         11    1    4    4    0    0  0.21917791485E+02 -0.21644450595E+02 -0.80371001888E+01  0.31834993397E+02  0.00000000000E+00 0.  1.
         21    1    1    2  503  502  0.16594473025E+03  0.23389412176E+02 -0.15787617725E+03  0.23023814941E+03  0.00000000000E+00 0. -1.
          3    1    1    2  501    0 -0.15235508162E+03 -0.10713797512E+02 -0.16527158955E+03  0.22503678514E+03  0.00000000000E+00 0. -1.
<scales pt_clust_5="13000.00000" pt_clust_6="13000.00000" pt_clust_7="13000.00000" pt_clust_8="13000.00000" pt_clust_9="166.42759" pt_clust_10="13000.00000"></scales>
<clustering>
<clus scale="   91.461">  7  8 -1 -1</clus>
<clus scale="   92.316">  5  6 -1 -1</clus>
<clus scale="   99.772">  1  5  2 -1</clus>
<clus scale="  153.607">  7 10 -1 -1</clus>
<clus scale="  166.428">  2  9  1 -1</clus>
<clus scale="  166.428">  2  5  1 -1</clus>
</clustering>
</event>
<event>
10    2  0.5921424E-006  0.2245386E+03  0.7546771E-02  0.1164050E+00
         21   -1    0    0  501  502  0.00000000000E+00  0.00000000000E+00  0.15554400122E+03  0.15554400122E+03  0.00000000000E+00 0.  1.
          3   -1    0    0  503    0 -0.00000000000E+00 -0.00000000000E+00 -0.38206784205E+03  0.38206784205E+03  0.00000000000E+00 0. -1.
         23    2    1    2    0    0  0.25119009226E+02  0.31447568616E+02 -0.61183563850E+02  0.11971950301E+03  0.94707004596E+02 0.  0.
         23    2    1    2    0    0 -0.38764774465E+02 -0.94531468939E+02 -0.21123887121E+03  0.25255440874E+03  0.93396800288E+02 0.  0.
        -11    1    3    3    0    0 -0.35664704501E+02  0.20519045961E+02 -0.24423079973E+02  0.47848607395E+02  0.00000000000E+00 0.  1.
         11    1    3    3    0    0  0.60783713727E+02  0.10928522655E+02 -0.36760483877E+02  0.71870895616E+02  0.00000000000E+00 0. -1.
        -13    1    4    4    0    0  0.86398943861E+01 -0.68983828554E+02 -0.17317557226E+03  0.18660974038E+03  0.00000000000E+00 0. -1.
         13    1    4    4    0    0 -0.47404668851E+02 -0.25547640386E+02 -0.38063298954E+02  0.65944668362E+02  0.00000000000E+00 0.  1.
         21    1    1    2  503  502 -0.22776248948E+02  0.39390091444E+00  0.81459127226E+02  0.84584289809E+02  0.00000000000E+00 0.  1.
          3    1    1    2  501    0  0.36422014187E+02  0.62689999409E+02 -0.35560532988E+02  0.80753641711E+02  0.00000000000E+00 0. -1.
<scales pt_clust_5="13000.00000" pt_clust_6="13000.00000" pt_clust_7="13000.00000" pt_clust_8="13000.00000" pt_clust_9="22.77965" pt_clust_10="13000.00000"></scales>
<clustering>
<clus scale="   22.780">  1  9  2 -1</clus>
<clus scale="   93.397">  7  8 -1 -1</clus>
<clus scale="   69.321">  7 10 -1 -1</clus>
<clus scale="   94.707">  5  6 -1 -1</clus>
<clus scale="  101.104">  2  5  1 -1</clus>
<clus scale="   22.780">  1  5  2 -1</clus>
</clustering>
</event>
<event>
10    2  0.5921424E-006  0.2765630E+03  0.7546771E-02  0.1126161E+00
         21   -1    0    0  503  502  0.00000000000E+00  0.00000000000E+00  0.62841794840E+03  0.62841794840E+03  0.00000000000E+00 0. -1.
         -1   -1    0    0    0  501 -0.00000000000E+00 -0.00000000000E+00 -0.11828726025E+03  0.11828726025E+03  0.00000000000E+00 0.  1.
         23    2    1    2    0    0  0.55087802604E+01 -0.56577982192E+02  0.27799789561E+03  0.30255767461E+03  0.10500905567E+03 0.  0.
         23    2    1    2    0    0 -0.10879265460E+02  0.49098667772E+02 -0.26516980805E+02  0.10847513547E+03  0.92383262285E+02 0.  0.
        -13    1    4    4    0    0 -0.32902235437E+02  0.67945303089E+02 -0.24705542158E+02  0.79432267511E+02  0.00000000000E+00 0.  1.
         13    1    4    4    0    0  0.22022969976E+02 -0.18846635317E+02 -0.18114386477E+01  0.29042867960E+02  0.00000000000E+00 0. -1.
        -13    1    3    3    0    0  0.14033380931E+01  0.24371864807E+02  0.18313871907E+02  0.30518110298E+02  0.00000000000E+00 0.  1.
         13    1    3    3    0    0  0.41054421673E+01 -0.80949846999E+02  0.25968402370E+03  0.27203956431E+03  0.00000000000E+00 0. -1.
         21    1    1    2  503  501 -0.81378795557E+02 -0.34480550899E+02  0.40566096689E+02  0.97247236245E+02  0.00000000000E+00 0. -1.
         -1    1    1    2    0  502  0.86749280757E+02  0.41959865320E+02  0.21808367665E+03  0.23842516233E+03  0.00000000000E+00 0.  1.
<scales pt_clust_5="13000.00000" pt_clust_6="13000.00000" pt_clust_7="13000.00000" pt_clust_8="13000.00000" pt_clust_9="88.38226" pt_clust_10="13000.00000"></scales>
<clustering>
<clus scale="   88.382">  1  9  2 -1</clus>
<clus scale="   92.383">  5  6 -1 -1</clus>
<clus scale="   60.380">  5 10 -1 -1</clus>
<clus scale="  105.009">  7  8 -1 -1</clus>
<clus scale="  133.865">  2  7  1 -1</clus>
<clus scale="   88.382">  1  5  2 -1</clus>
</clustering>
</event>
<event>
10    2  0.5921424E-006  0.5308381E+03  0.7546771E-02  0.1025771E+00
         21   -1    0    0  501  502  0.00000000000E+00  0.00000000000E+00  0.33361567593E+03  0.33361567593E+03  0.00000000000E+00 0. -1.
          2   -1    0    0  503    0 -0.00000000000E+00 -0.00000000000E+00 -0.72775691030E+03  0.72775691030E+03  0.00000000000E+00 0. -1.
         23    2    1    2    0    0  0.18607866911E+03  0.15373265831E+03 -0.15966531297E+03  0.30385687268E+03  0.92612016378E+02 0.  0.
         23    2    1    2    0    0 -0.13308984640E+02  0.69796668521E+02 -0.17621777043E+03  0.21212964203E+03  0.94326976015E+02 0.  0.
        -13    1    4    4    0    0 -0.52588195320E+02  0.33172549816E+02 -0.73926311609E+02  0.96597287211E+02  0.00000000000E+00 0.  1.
         13    1    4    4    0    0  0.39279210680E+02  0.36624118705E+02 -0.10229145882E+03  0.11553235482E+03  0.00000000000E+00 0. -1.
        -13    1    3    3    0    0  0.15474535241E+03  0.86686716728E+02 -0.78348131113E+02  0.19390497827E+03  0.00000000000E+00 0.  1.
         13    1    3    3    0    0  0.31333316704E+02  0.67045941586E+02 -0.81317181858E+02  0.10995189441E+03  0.00000000000E+00 0. -1.
         21    1    1    2  503  502  0.10177828615E+03  0.82466921912E+02 -0.19798131227E+02  0.13248237143E+03  0.00000000000E+00 0. -1.
          2    1    1    2  501    0 -0.27454797062E+03 -0.30599624875E+03 -0.38460019735E+02  0.41290370008E+03  0.00000000000E+00 0. -1.
<scales pt_clust_5="13000.00000" pt_clust_6="13000.00000" pt_clust_7="13000.00000" pt_clust_8="13000.00000" pt_clust_9="130.99471" pt_clust_10="13000.00000"></scales>
<clustering>
<clus scale="   92.612">  7  8 -1 -1</clus>
<clus scale="   94.327">  5  6 -1 -1</clus>
<clus scale="  130.995">  1  9  2 -1</clus>
<clus scale="  290.582">  2  7  1 -1</clus>
<clus scale="  207.469">  5 10 -1 -1</clus>
<clus scale="  130.995">  1  5  2 -1</clus>
</clustering>
</event>
<event>
10    2  0.5921424E-006  0.2173828E+03  0.7546771E-02  0.1158458E+00
         21   -1    0    0  503  502  0.00000000000E+00  0.00000000000E+00  0.56406061434E+03  0.56406061434E+03  0.00000000000E+00 0. -1.
          2   -1    0    0  502    0 -0.00000000000E+00 -0.00000000000E+00 -0.10546575597E+04  0.10546575597E+04  0.00000000000E+00 0. -1.
         23    2    1    2    0    0 -0.57661295108E+02  0.65860035069E+02 -0.40601490183E+03  0.42537623307E+03  0.91839370546E+02 0.  0.
         23    2    1    2    0    0  0.10079119418E+03 -0.87595308597E+02 -0.31555308509E+03  0.35416964952E+03  0.89613549290E+02 0.  0.
        -11    1    4    4    0    0  0.10572164805E+03 -0.65200317111E+02 -0.19317888731E+03  0.22966547568E+03  0.00000000000E+00 0. -1.
         11    1    4    4    0    0 -0.49304538785E+01 -0.22394991486E+02 -0.12237419778E+03  0.12450417383E+03  0.00000000000E+00 0.  1.
        -11    1    3    3    0    0  0.25127567444E+02  0.19330310418E+02 -0.11234349014E+03  0.11673095272E+03  0.00000000000E+00 0.  1.
         11    1    3    3    0    0 -0.82788862552E+02  0.46529724651E+02 -0.29367141168E+03  0.30864528034E+03  0.00000000000E+00 0. -1.
         21    1    1    2  503  501 -0.56813997874E+02  0.14159876808E+03  0.51151711533E+03  0.53378628753E+03  0.00000000000E+00 0. -1.
          2    1    1    2  501    0  0.13684098805E+02 -0.11986349455E+03 -0.28054607381E+03  0.30538600396E+03  0.00000000000E+00 0. -1.
<scales pt_clust_5="13000.00000" pt_clust_6="13000.00000" pt_clust_7="13000.00000" pt_clust_8="13000.00000" pt_clust_9="154.01157" pt_clust_10="13000.00000"></scales>
<clustering>
<clus scale="   89.614">  5  6 -1 -1</clus>
<clus scale="   91.839">  7  8 -1 -1</clus>
<clus scale="  120.642">  5 10 -1 -1</clus>
<clus scale="  126.873">  2  7  1 -1</clus>
<clus scale="  154.012">  1  9  2 -1</clus>
<clus scale="  154.012">  1  5  2 -1</clus>
</clustering>
</event>
<event>
10    2  0.5921424E-006  0.2688968E+03  0.7546771E-02  0.1103952E+00
         21   -1    0    0  503  502  0.00000000000E+00  0.00000000000E+00  0.31912374369E+03  0.31912374369E+03  0.00000000000E+00 0. -1.
          1   -1    0    0  502    0 -0.00000000000E+00 -0.00000000000E+00 -0.53693601374E+03  0.53693601374E+03  0.00000000000E+00 0. -1.
         23    2    1    2    0    0 -0.26373247896E+03  0.54167504008E+02 -0.34131103469E+03  0.44411666093E+03  0.90870496684E+02 0.  0.
         23    2    1    2    0    0  0.98007824744E+02 -0.83557978586E+02 -0.20526068975E+02  0.15952510394E+03  0.91866586862E+02 0.  0.
        -11    1    4    4    0    0  0.34977689317E+02  0.17199828052E+02 -0.36957323941E+00  0.38979602606E+02  0.00000000000E+00 0.  1.
         11    1    4    4    0    0  0.63030135428E+02 -0.10075780664E+03 -0.20156495736E+02  0.12054550133E+03  0.00000000000E+00 0. -1.
        -11    1    3    3    0    0 -0.22422973562E+02 -0.21216960211E+02 -0.45637529130E+02  0.55097488228E+02  0.00000000000E+00 0.  1.
         11    1    3    3    0    0 -0.24130950540E+03  0.75384464220E+02 -0.29567350556E+03  0.38901917270E+03  0.00000000000E+00 0. -1.
         21    1    1    2  503  501  0.10070353768E+03  0.34474712604E+02  0.15320909251E+03  0.18655490972E+03  0.00000000000E+00 0. -1.
          1    1    1    2  501    0  0.65021116536E+02 -0.50842380265E+01 -0.91842588999E+01  0.65863082858E+02  0.00000000000E+00 0. -1.
<scales pt_clust_5="13000.00000" pt_clust_6="13000.00000" pt_clust_7="13000.00000" pt_clust_8="13000.00000" pt_clust_9="106.44110" pt_clust_10="13000.00000"></scales>
<clustering>
<clus scale="   90.870">  7  8 -1 -1</clus>
<clus scale="   91.867">  5  6 -1 -1</clus>
<clus scale="   65.220">  5 10 -1 -1</clus>
<clus scale="  106.441">  1  9  2 -1</clus>
<clus scale="  255.111">  2  7  1 -1</clus>
<clus scale="  106.441">  1  5  2 -1</clus>
</clustering>
</event>
<event>
10    2  0.5921424E-006  0.1765430E+03  0.7546771E-02  0.1183117E+00
         21   -1    0    0  503  502  0.00000000000E+00  0.00000000000E+00  0.96614313311E+02  0.96614313311E+02  0.00000000000E+00 0.  1.
         -3   -1    0    0    0  501 -0.00000000000E+00 -0.00000000000E+00 -0.63286479893E+03  0.63286479893E+03  0.00000000000E+00 0.  1.
         23    2    1    2    0    0 -0.32849897323E+02 -0.90905975649E+02 -0.47241323964E+02  0.13980966087E+03  0.89285981099E+02 0.  0.
         23    2    1    2    0    0 -0.14012663157E+02  0.47140104133E+02 -0.42440710472E+03  0.43732462888E+03  0.93342896587E+02 0.  0.
        -11    1    3    3    0    0  0.35375840990E+01 -0.80566885737E+02 -0.17741889310E+01  0.80664027454E+02  0.00000000000E+00 0.  1.
         11    1    3    3    0    0 -0.36387481422E+02 -0.10339089911E+02 -0.45467135033E+02  0.59145633419E+02  0.00000000000E+00 0. -1.
        -11    1    4    4    0    0  0.24241639130E+02  0.60347336888E+02 -0.26053881328E+03  0.26853292417E+03  0.00000000000E+00 0.  1.
         11    1    4    4    0    0 -0.38254302287E+02 -0.13207232755E+02 -0.16386829144E+03  0.16879170471E+03  0.00000000000E+00 0. -1.
         21    1    1    2  503  501  0.36501473532E+02 -0.13261882793E+02  0.24595627489E+02  0.45969337572E+02  0.00000000000E+00 0.  1.
         -3    1    1    2    0  502  0.10361086948E+02  0.57027754308E+02 -0.89197684430E+02  0.10637548492E+03  0.00000000000E+00 0.  1.
<scales pt_clust_5="13000.00000" pt_clust_6="13000.00000" pt_clust_7="13000.00000" pt_clust_8="13000.00000" pt_clust_9="38.83600" pt_clust_10="13000.00000"></scales>
<clustering>
<clus scale="   38.836">  1  9  2 -1</clus>
<clus scale="   89.286">  5  6 -1 -1</clus>
<clus scale="   93.343">  7  8 -1 -1</clus>
<clus scale="   57.299">  7 10 -1 -1</clus>
<clus scale="  134.847">  2  5  1 -1</clus>
<clus scale="   38.836">  1  5  2 -1</clus>
</clustering>
</event>
<event>
10    2  0.5921424E-006  0.7156212E+03  0.7546771E-02  0.9696191E-01
          2   -1    0    0  503    0 -0.00000000000E+00  0.00000000000E+00  0.16171397229E+04  0.16171397229E+04  0.00000000000E+00 0. -1.
         21   -1    0    0  501  502  0.00000000000E+00 -0.00000000000E+00 -0.42918584831E+03  0.42918584831E+03  0.00000000000E+00 0. -1.
         23    2    1    2    0    0 -0.81060446382E+02  0.68175741648E+03  0.10213369844E+04  0.12340772783E+04  0.91943037509E+02 0.  0.
         23    2    1    2    0    0  0.18974384437E+02 -0.43828800851E+03  0.81672416250E+02  0.45574461501E+03  0.92608665185E+02 0.  0.
        -11    1    3    3    0    0 -0.76909872596E-01  0.69038728516E+02  0.61441372976E+02  0.92419663835E+02  0.00000000000E+00 0.  1.
         11    1    3    3    0    0 -0.80983536510E+02  0.61271868796E+03  0.95989561145E+03  0.11416576145E+04  0.00000000000E+00 0. -1.
        -11    1    4    4    0    0  0.59809204359E+01 -0.11534945546E+03  0.64027250517E+02  0.13206345858E+03  0.00000000000E+00 0.  1.
         11    1    4    4    0    0  0.12993464001E+02 -0.32293855305E+03  0.17645165733E+02  0.32368115643E+03  0.00000000000E+00 0. -1.
         21    1    1    2  503  502 -0.34779967222E+02  0.35543194278E+02  0.21768449585E+01  0.49776534968E+02  0.00000000000E+00 0.  1.
          2    1    1    2  501    0  0.96866029168E+02 -0.27901260225E+03  0.82767628982E+02  0.30672714296E+03  0.00000000000E+00 0. -1.
<scales pt_clust_5="13000.00000" pt_clust_6="13000.00000" pt_clust_7="13000.00000" pt_clust_8="13000.00000" pt_clust_9="49.72891" pt_clust_10="13000.00000"></scales>
<clustering>
<clus scale="   49.729">  2  9  1 -1</clus>
<clus scale="   91.943">  5  6 -1 -1</clus>
<clus scale="   92.609">  7  8 -1 -1</clus>
<clus scale="  282.984">  7 10 -1 -1</clus>
<clus scale="  702.982">  1  5  2 -1</clus>
<clus scale="   49.729">  2  5  1 -1</clus>
</clustering>
</event>
<event>
10    2  0.5921424E-006  0.2933397E+03  0.7546771E-02  0.1134535E+00
         21   -1    0    0  503  502  0.00000000000E+00  0.00000000000E+00  0.61883615143E+02  0.61883615143E+02  0.00000000000E+00 0.  1.
         -2   -1    0    0    0  501 -0.00000000000E+00 -0.00000000000E+00 -0.74349292199E+03  0.74349292199E+03  0.00000000000E+00 0.  1.
         23    2    1    2    0    0  0.12956998123E+02  0.39295651764E+01 -0.22176546634E+03  0.23992116767E+03  0.90547884315E+02 0.  0.
         23    2    1    2    0    0 -0.40155214421E+02  0.11257522486E+03 -0.27016223225E+03  0.30897177148E+03  0.90500283659E+02 0.  0.
        -11    1    3    3    0    0 -0.34917700666E+02 -0.16702763106E+02 -0.79937097416E+02  0.88815357110E+02  0.00000000000E+00 0.  1.
         11    1    3    3    0    0  0.47874698789E+02  0.20632328283E+02 -0.14182836892E+03  0.15110581056E+03  0.00000000000E+00 0. -1.
        -13    1    4    4    0    0 -0.56701012206E+02  0.80377977150E+02 -0.12338109403E+03  0.15779264355E+03  0.00000000000E+00 0.  1.
         13    1    4    4    0    0  0.16545797786E+02  0.32197247710E+02 -0.14678113822E+03  0.15117912793E+03  0.00000000000E+00 0. -1.
         21    1    1    2  503  501 -0.18032290357E+02  0.17201838805E+02 -0.75102710323E+01  0.26028271643E+02  0.00000000000E+00 0. -1.
         -2    1    1    2    0  502  0.45230506654E+02 -0.13370662884E+03 -0.18217133723E+03  0.23045532633E+03  0.00000000000E+00 0.  1.
<scales pt_clust_5="13000.00000" pt_clust_6="13000.00000" pt_clust_7="13000.00000" pt_clust_8="13000.00000" pt_clust_9="24.92121" pt_clust_10="13000.00000"></scales>
<clustering>
<clus scale="   24.921">  1  9  2 -1</clus>
<clus scale="   90.500">  7  8 -1 -1</clus>
<clus scale="   90.548">  5  6 -1 -1</clus>
<clus scale="   91.342">  2  5  1 -1</clus>
<clus scale="  129.791">  7 10 -1 -1</clus>
<clus scale="   24.921">  1  5  2 -1</clus>
</clustering>
</event>
<event>
10    2  0.5921424E-006  0.5704671E+03  0.7546771E-02  0.1055466E+00
         21   -1    0    0  503  502  0.00000000000E+00  0.00000000000E+00  0.12352435277E+03  0.12352435277E+03  0.00000000000E+00 0. -1.
          2   -1    0    0  502    0 -0.00000000000E+00 -0.00000000000E+00 -0.14841757618E+04  0.14841757618E+04  0.00000000000E+00 0. -1.
         23    2    1    2    0    0  0.27365605040E+02 -0.22370348443E+02 -0.54493969415E+02  0.11206066145E+03  0.91316429589E+02 0.  0.
         23    2    1    2    0    0  0.22523813584E+03  0.12318205006E+03 -0.97143135494E+03  0.10088472781E+04  0.90487113997E+02 0.  0.
        -11    1    4    4    0    0  0.11605156504E+03  0.39866386037E+02 -0.60957618849E+03  0.62180416858E+03  0.00000000000E+00 0. -1.
         11    1    4    4    0    0  0.10918657080E+03  0.83315664026E+02 -0.36185516645E+03  0.38704310948E+03  0.00000000000E+00 0.  1.
        -13    1    3    3    0    0 -0.29568725595E+01  0.26883677853E+02  0.66943310299E+01  0.27861968670E+02  0.00000000000E+00 0.  1.
         13    1    3    3    0    0  0.30322477599E+02 -0.49254026296E+02 -0.61188300445E+02  0.84198692778E+02  0.00000000000E+00 0. -1.
         21    1    1    2  503  501 -0.11396724881E+02 -0.21070524967E+02  0.32427204881E+02  0.40315951890E+02  0.00000000000E+00 0. -1.
          2    1    1    2  501    0 -0.24120701600E+03 -0.79741176653E+02 -0.36715328960E+03  0.44647622320E+03  0.00000000000E+00 0. -1.
<scales pt_clust_5="13000.00000" pt_clust_6="13000.00000" pt_clust_7="13000.00000" pt_clust_8="13000.00000" pt_clust_9="23.95522" pt_clust_10="13000.00000"></scales>
<clustering>
<clus scale="   23.955">  1  9  2 -1</clus>
<clus scale="   90.487">  5  6 -1 -1</clus>
<clus scale="   91.316">  7  8 -1 -1</clus>
<clus scale="   98.772">  2  7  1 -1</clus>
<clus scale="  258.527">  5 10 -1 -1</clus>
<clus scale="   23.955">  1  5  2 -1</clus>
</clustering>
</event>
<event>
10    2  0.5921424E-006  0.2356945E+03  0.7546771E-02  0.1157065E+00
         -3   -1    0    0    0  501 -0.00000000000E+00  0.00000000000E+00  0.14273408514E+03  0.14273408514E+03  0.00000000000E+00 0.  1.
         21   -1    0    0  501  502  0.00000000000E+00 -0.00000000000E+00 -0.36518251785E+03  0.36518251785E+03  0.00000000000E+00 0.  1.
         23    2    1    2    0    0  0.31533361496E+01  0.18117513106E+02 -0.78164850825E+02  0.12295965573E+03  0.93118984220E+02 0.  0.
         23    2    1    2    0    0 -0.17167837699E+02 -0.10108342830E+03 -0.42592539500E+02  0.14571180981E+03  0.94367435952E+02 0.  0.
        -11    1    4    4    0    0 -0.14602091490E+02  0.16110433635E+02 -0.28146279552E+01  0.21924627210E+02  0.00000000000E+00 0. -1.
         11    1    4    4    0    0 -0.25657462091E+01 -0.11719386193E+03 -0.39777911545E+02  0.12378718260E+03  0.00000000000E+00 0.  1.
        -11    1    3    3    0    0 -0.24960645302E+02  0.44614818768E+02 -0.63770005480E+02  0.81732058989E+02  0.00000000000E+00 0.  1.
         11    1    3    3    0    0  0.28113981452E+02 -0.26497305662E+02 -0.14394845345E+02  0.41227596739E+02  0.00000000000E+00 0. -1.
         21    1    1    2  503  502 -0.85627156755E+02  0.34028489656E+02 -0.87966630227E+02  0.12738946627E+03  0.00000000000E+00 0.  1.
         -3    1    1    2    0  503  0.99641658305E+02  0.48937425534E+02 -0.13724412164E+02  0.11185567119E+03  0.00000000000E+00 0.  1.
<scales pt_clust_5="13000.00000" pt_clust_6="13000.00000" pt_clust_7="13000.00000" pt_clust_8="13000.00000" pt_clust_9="92.14091" pt_clust_10="13000.00000"></scales>
<clustering>
<clus scale="   92.141">  2  9  1 -1</clus>
<clus scale="   93.119">  7  8 -1 -1</clus>
<clus scale="   94.367">  5  6 -1 -1</clus>
<clus scale="   97.362">  5 10 -1 -1</clus>
<clus scale="  102.834">  1  7  2 -1</clus>
<clus scale="   92.141">  2  5  1 -1</clus>
</clustering>
</event>
<event>
10    2  0.5921424E-006  0.7756644E+03  0.7546771E-02  0.1022769E+00
         21   -1    0    0  501  502  0.00000000000E+00  0.00000000000E+00  0.19170611115E+03  0.19170611115E+03  0.00000000000E+00 0. -1.
          2   -1    0    0  503    0 -0.00000000000E+00 -0.00000000000E+00 -0.20996494582E+04  0.20996494582E+04  0.00000000000E+00 0. -1.
         23    2    1    2    0    0  0.41580828564E+02 -0.46118278755E-02 -0.14632020787E+03  0.17831889996E+03  0.93054078508E+02 0.  0.
         23    2    1    2    0    0 -0.15877316926E+03 -0.96556026437E+02 -0.77496595284E+03  0.80211967400E+03  0.91059089873E+02 0.  0.
        -11    1    4    4    0    0 -0.56985842398E+02 -0.77171803071E+02 -0.26745351799E+03  0.28413774425E+03  0.00000000000E+00 0.  1.
         11    1    4    4    0    0 -0.10178732686E+03 -0.19384223366E+02 -0.50751243485E+03  0.51798192975E+03  0.00000000000E+00 0. -1.
        -11    1    3    3    0    0 -0.23570162712E+02  0.21780784270E+02 -0.34810411698E+02  0.47346804499E+02  0.00000000000E+00 0. -1.
         11    1    3    3    0    0  0.65150991275E+02 -0.21785396098E+02 -0.11150979618E+03  0.13097209546E+03  0.00000000000E+00 0.  1.
         21    1    1    2  503  502  0.15605765301E+03 -0.34999983515E+03 -0.63296332635E+03  0.73993002925E+03  0.00000000000E+00 0. -1.
          2    1    1    2  501    0 -0.38865312319E+02  0.44656047342E+03 -0.35369386002E+03  0.57098696617E+03  0.00000000000E+00 0. -1.
<scales pt_clust_5="13000.00000" pt_clust_6="13000.00000" pt_clust_7="13000.00000" pt_clust_8="13000.00000" pt_clust_9="389.44921" pt_clust_10="13000.00000"></scales>
<clustering>
<clus scale="   91.059">  5  6 -1 -1</clus>
<clus scale="   93.054">  7  8 -1 -1</clus>
<clus scale="  101.922">  2  7  1 -1</clus>
<clus scale="  389.449">  1  9  2 -1</clus>
<clus scale="  189.037">  5 10 -1 -1</clus>
<clus scale="  389.449">  1  5  2 -1</clus>
</clustering>
</event>
<event>
10    2  0.5921424E-006  0.2111667E+03  0.7546771E-02  0.1150333E+00
         21   -1    0    0  501  502  0.00000000000E+00  0.00000000000E+00  0.56120060222E+03  0.56120060222E+03  0.00000000000E+00 0.  1.
          1   -1    0    0  503    0 -0.00000000000E+00 -0.00000000000E+00 -0.16896168337E+03  0.16896168337E+03  0.00000000000E+00 0. -1.
         23    2    1    2    0    0 -0.56773736074E+02 -0.17689295324E+03  0.35274437762E+03  0.40903682690E+03  0.91477624599E+02 0.  0.
         23    2    1    2    0    0  0.17052033576E+02  0.38730285428E+02 -0.11604164574E+02  0.10163705358E+03  0.91676753688E+02 0.  0.
        -13    1    4    4    0    0  0.41738532332E+02 -0.61607243176E+00 -0.30284813408E+02  0.51571838726E+02  0.00000000000E+00 0.  1.
         13    1    4    4    0    0 -0.24686498755E+02  0.39346357860E+02  0.18680648834E+02  0.50065214855E+02  0.00000000000E+00 0. -1.
        -13    1    3    3    0    0 -0.78044974539E+02 -0.11131488744E+03  0.20476465996E+03  0.24578565497E+03  0.00000000000E+00 0.  1.
         13    1    3    3    0    0  0.21271238464E+02 -0.65578065803E+02  0.14797971765E+03  0.16325117193E+03  0.00000000000E+00 0. -1.
         21    1    1    2  503  502 -0.52300516890E+02  0.98416805901E+02  0.12803616263E+02  0.11218352972E+03  0.00000000000E+00 0.  1.
          1    1    1    2  501    0  0.92022219388E+02  0.39745861913E+02  0.38295089547E+02  0.10730487540E+03  0.00000000000E+00 0. -1.
<scales pt_clust_5="13000.00000" pt_clust_6="13000.00000" pt_clust_7="13000.00000" pt_clust_8="13000.00000" pt_clust_9="111.45055" pt_clust_10="13000.00000"></scales>
<clustering>
<clus scale="   91.478">  7  8 -1 -1</clus>
<clus scale="   91.677">  5  6 -1 -1</clus>
<clus scale="  100.239">  5 10 -1 -1</clus>
<clus scale="  111.451">  1  9  2 -1</clus>
<clus scale="  167.544">  2  7  1 -1</clus>
<clus scale="  111.451">  1  5  2 -1</clus>
</clustering>
</event>
<event>
10    2  0.5921424E-006  0.9935051E+03  0.7546771E-02  0.9495637E-01
         21   -1    0    0  503  502  0.00000000000E+00  0.00000000000E+00  0.55300325665E+03  0.55300325665E+03  0.00000000000E+00 0.  1.
         -2   -1    0    0    0  501 -0.00000000000E+00 -0.00000000000E+00 -0.21928312431E+04  0.21928312431E+04  0.00000000000E+00 0.  1.
         23    2    1    2    0    0 -0.50708490695E+03  0.85272295685E+02 -0.16142170284E+04  0.16967644565E+04  0.94374460632E+02 0.  0.
         23    2    1    2    0    0  0.78052303410E+02 -0.32819985914E+03 -0.27267876072E+03  0.44297952216E+03  0.89832293166E+02 0.  0.
        -11    1    4    4    0    0  0.92732301913E+02 -0.31047644907E+03 -0.26538873394E+03  0.41883897305E+03  0.00000000000E+00 0.  1.
         11    1    4    4    0    0 -0.14679998503E+02 -0.17723410069E+02 -0.72900267770E+01  0.24140549102E+02  0.00000000000E+00 0. -1.
        -13    1    3    3    0    0 -0.48661505781E+02 -0.13530583797E+02 -0.10786148441E+03  0.11910129580E+03  0.00000000000E+00 0. -1.
         13    1    3    3    0    0 -0.45842340117E+03  0.98802879482E+02 -0.15063555439E+04  0.15776631607E+04  0.00000000000E+00 0.  1.
         21    1    1    2  503  501 -0.21198896609E+01 -0.33922870131E+02  0.42398386250E+02  0.54340392037E+02  0.00000000000E+00 0. -1.
         -2    1    1    2    0  502  0.43115249320E+03  0.27685043358E+03  0.20466941638E+03  0.55175012910E+03  0.00000000000E+00 0.  1.
<scales pt_clust_5="13000.00000" pt_clust_6="13000.00000" pt_clust_7="13000.00000" pt_clust_8="13000.00000" pt_clust_9="33.98904" pt_clust_10="13000.00000"></scales>
<clustering>
<clus scale="   33.989">  1  9  2 -1</clus>
<clus scale="   89.832">  5  6 -1 -1</clus>
<clus scale="   94.374">  7  8 -1 -1</clus>
<clus scale="  497.735">  5 10 -1 -1</clus>
<clus scale="  522.516">  2  7  1 -1</clus>
<clus scale="   33.989">  1  5  2 -1</clus>
</clustering>
</event>
<event>
10    2  0.5921424E-006  0.9445637E+03  0.7546771E-02  0.9815987E-01
          2   -1    0    0  502    0 -0.00000000000E+00  0.00000000000E+00  0.10897171403E+04  0.10897171403E+04  0.00000000000E+00 0. -1.
         21   -1    0    0  503  502  0.00000000000E+00 -0.00000000000E+00 -0.36082897193E+03  0.36082897193E+03  0.00000000000E+00 0. -1.
         23    2    1    2    0    0 -0.86315205719E+02 -0.16002039479E+03  0.89980050680E+02  0.22254066632E+03  0.91493700100E+02 0.  0.
         23    2    1    2    0    0 -0.23455145659E+03 -0.16253582908E+03  0.61439679268E+03  0.68359137151E+03  0.91550329429E+02 0.  0.
        -13    1    4    4    0    0 -0.59483077615E+02  0.11748316364E+01  0.10692061589E+03  0.12235863212E+03  0.00000000000E+00 0. -1.
         13    1    4    4    0    0 -0.17506837897E+03 -0.16371066072E+03  0.50747617679E+03  0.56123273939E+03  0.00000000000E+00 0.  1.
        -13    1    3    3    0    0 -0.63667404372E+02 -0.29203999008E+02  0.22217312938E+02  0.73484834706E+02  0.00000000000E+00 0.  1.
         13    1    3    3    0    0 -0.22647801346E+02 -0.13081639579E+03  0.67762737742E+02  0.14905583162E+03  0.00000000000E+00 0. -1.
         21    1    1    2  503  501 -0.43512195815E+02  0.13034138862E+02 -0.41815318310E+02  0.61739135124E+02  0.00000000000E+00 0. -1.
          2    1    1    2  501    0  0.36437885812E+03  0.30952208502E+03  0.66326643277E+02  0.48267493923E+03  0.00000000000E+00 0. -1.
<scales pt_clust_5="13000.00000" pt_clust_6="13000.00000" pt_clust_7="13000.00000" pt_clust_8="13000.00000" pt_clust_9="45.42246" pt_clust_10="13000.00000"></scales>
<clustering>
<clus scale="   45.422">  2  9  1 -1</clus>
<clus scale="   91.494">  7  8 -1 -1</clus>
<clus scale="   91.550">  5  6 -1 -1</clus>
<clus scale="  205.522">  1  7  2 -1</clus>
<clus scale="  412.060">  5 10 -1 -1</clus>
<clus scale="   45.422">  2  5  1 -1</clus>
</clustering>
</event>
<event>
10    2  0.5921424E-006  0.4299812E+03  0.7546771E-02  0.1064516E+00
         21   -1    0    0  503  502  0.00000000000E+00  0.00000000000E+00  0.40812989483E+03  0.40812989483E+03  0.00000000000E+00 0. -1.
          3   -1    0    0  502    0 -0.00000000000E+00 -0.00000000000E+00 -0.33769871032E+03  0.33769871032E+03  0.00000000000E+00 0. -1.
         23    2    1    2    0    0 -0.82487801959E+02  0.12778070686E+03 -0.14223150443E+03  0.22810742764E+03  0.93118479236E+02 0.  0.
         23    2    1    2    0    0  0.35577440322E+02  0.11042850961E+03  0.13958566206E+03  0.20228236699E+03  0.89296074657E+02 0.  0.
        -11    1    3    3    0    0 -0.99057267796E+02  0.10351359049E+03 -0.93119669481E+02  0.17087620830E+03  0.00000000000E+00 0. -1.
         11    1    3    3    0    0  0.16569465837E+02  0.24267116368E+02 -0.49111834947E+02  0.57231219337E+02  0.00000000000E+00 0.  1.
        -13    1    4    4    0    0 -0.13798534795E+02  0.82239414785E+02  0.53363934137E+02  0.99002173579E+02  0.00000000000E+00 0. -1.
         13    1    4    4    0    0  0.49375975117E+02  0.28189094824E+02  0.86221727922E+02  0.10328019341E+03  0.00000000000E+00 0.  1.
         21    1    1    2  503  501  0.21901813930E+02  0.22132579712E+02  0.41671543760E+02  0.52019785635E+02  0.00000000000E+00 0. -1.
          3    1    1    2  501    0  0.25008547706E+02 -0.26034179618E+03  0.31405483125E+02  0.26341902488E+03  0.00000000000E+00 0. -1.
<scales pt_clust_5="13000.00000" pt_clust_6="13000.00000" pt_clust_7="13000.00000" pt_clust_8="13000.00000" pt_clust_9="31.13745" pt_clust_10="13000.00000"></scales>
<clustering>
<clus scale="   31.137">  1  9  2 -1</clus>
<clus scale="   89.296">  7  8 -1 -1</clus>
<clus scale="   93.118">  5  6 -1 -1</clus>
<clus scale="  179.052">  2  5  1 -1</clus>
<clus scale="  157.451">  7 10 -1 -1</clus>
<clus scale="   31.137">  1  5  2 -1</clus>
</clustering>
</event>
<event>
10    2  0.5921424E-006  0.2588405E+03  0.7546771E-02  0.1150621E+00
          1   -1    0    0  503    0 -0.00000000000E+00  0.00000000000E+00  0.70789935791E+03  0.70789935791E+03  0.00000000000E+00 0. -1.
         21   -1    0    0  501  502  0.00000000000E+00 -0.00000000000E+00 -0.67788992333E+02  0.67788992333E+02  0.00000000000E+00 0. -1.
         23    2    1    2    0    0 -0.51026718540E+01 -0.16950588017E+02  0.16785020202E+03  0.19101316266E+03  0.89437007436E+02 0.  0.
         23    2    1    2    0    0 -0.30576508471E+02 -0.11216163258E+03  0.14087740713E+03  0.20243865181E+03  0.87291518561E+02 0.  0.
        -11    1    3    3    0    0  0.28628980914E+02 -0.53186337245E+01  0.14664206537E+03  0.14950518970E+03  0.00000000000E+00 0. -1.
         11    1    3    3    0    0 -0.33731652768E+02 -0.11631954292E+02  0.21208136650E+02  0.41507972960E+02  0.00000000000E+00 0.  1.
        -13    1    4    4    0    0 -0.30334092254E+02  0.27108815266E+01  0.27369777214E+02  0.40946437407E+02  0.00000000000E+00 0.  1.
         13    1    4    4    0    0 -0.24241621612E+00 -0.11487251411E+03  0.11350762992E+03  0.16149221440E+03  0.00000000000E+00 0. -1.
         21    1    1    2  503  502  0.63706492595E+02  0.35978569208E+02  0.62228307407E+02  0.96048617293E+02  0.00000000000E+00 0. -1.
          1    1    1    2  501    0 -0.28027312271E+02  0.93133651391E+02  0.26915444902E+03  0.28618791848E+03  0.00000000000E+00 0. -1.
<scales pt_clust_5="13000.00000" pt_clust_6="13000.00000" pt_clust_7="13000.00000" pt_clust_8="13000.00000" pt_clust_9="73.16403" pt_clust_10="13000.00000"></scales>
<clustering>
<clus scale="   73.164">  2  9  1 -1</clus>
<clus scale="   87.292">  7  8 -1 -1</clus>
<clus scale="   89.437">  5  6 -1 -1</clus>
<clus scale="   90.355">  1  5  2 -1</clus>
<clus scale="   94.462">  7 10 -1 -1</clus>
<clus scale="   73.164">  2  5  1 -1</clus>
</clustering>
</event>
<event>
10    2  0.5921424E-006  0.2119016E+03  0.7546771E-02  0.1162413E+00
         21   -1    0    0  501  502  0.00000000000E+00  0.00000000000E+00  0.73272849199E+02  0.73272849199E+02  0.00000000000E+00 0.  1.
          1   -1    0    0  503    0 -0.00000000000E+00 -0.00000000000E+00 -0.55718894237E+03  0.55718894237E+03  0.00000000000E+00 0. -1.
         23    2    1    2    0    0  0.67415718585E+02 -0.70826865063E+02 -0.75311792373E+02  0.15563562158E+03  0.94811690779E+02 0.  0.
         23    2    1    2    0    0 -0.10798465208E+03  0.32355487221E+02 -0.28983677063E+03  0.32715668951E+03  0.10158042747E+03 0.  0.
        -11    1    4    4    0    0 -0.11704125912E+02  0.31512943905E+02 -0.16679671642E+02  0.37526838969E+02  0.00000000000E+00 0.  1.
         11    1    4    4    0    0 -0.96280526170E+02  0.84254331612E+00 -0.27315709899E+03  0.28962985055E+03  0.00000000000E+00 0. -1.
        -13    1    3    3    0    0  0.71219561959E+02 -0.44917274162E+02 -0.91896414476E+02  0.12463843114E+03  0.00000000000E+00 0.  1.
         13    1    3    3    0    0 -0.38038433741E+01 -0.25909590901E+02  0.16584622102E+02  0.30997190443E+02  0.00000000000E+00 0. -1.
         21    1    1    2  503  502 -0.13843849916E+02  0.24526610555E+02 -0.21831075447E+02  0.35634290522E+02  0.00000000000E+00 0.  1.
          1    1    1    2  501    0  0.54412783413E+02  0.13944767286E+02 -0.96936454719E+02  0.11203518995E+03  0.00000000000E+00 0. -1.
<scales pt_clust_5="13000.00000" pt_clust_6="13000.00000" pt_clust_7="13000.00000" pt_clust_8="13000.00000" pt_clust_9="28.16393" pt_clust_10="13000.00000"></scales>
<clustering>
<clus scale="   28.164">  1  9  2 -1</clus>
<clus scale="   94.812">  7  8 -1 -1</clus>
<clus scale="  101.580">  5  6 -1 -1</clus>
<clus scale="   55.425">  5 10 -1 -1</clus>
<clus scale="  124.937">  2  7  1 -1</clus>
<clus scale="   28.164">  1  5  2 -1</clus>
</clustering>
</event>
<event>
10    2  0.5921424E-006  0.2488556E+03  0.7546771E-02  0.1135411E+00
         21   -1    0    0  503  502  0.00000000000E+00  0.00000000000E+00  0.33176354930E+03  0.33176354930E+03  0.00000000000E+00 0.  1.
         -2   -1    0    0    0  501 -0.00000000000E+00 -0.00000000000E+00 -0.22176822494E+03  0.22176822494E+03  0.00000000000E+00 0.  1.
         23    2    1    2    0    0 -0.47883035469E+02  0.67978033276E+02  0.79855905802E+01  0.12462266949E+03  0.92483739113E+02 0.  0.
         23    2    1    2    0    0 -0.41640957078E+01 -0.83533455068E+02  0.50046893209E+02  0.13453619934E+03  0.92736829823E+02 0.  0.
        -13    1    3    3    0    0 -0.72189719030E+02  0.63907110115E+02 -0.54240290211E+01  0.96565492531E+02  0.00000000000E+00 0.  1.
         13    1    3    3    0    0  0.24306683561E+02  0.40709231610E+01  0.13409619601E+02  0.28057176960E+02  0.00000000000E+00 0. -1.
        -13    1    4    4    0    0  0.33360269841E+02 -0.39494394188E+02 -0.83069744002E+01  0.52361441919E+02  0.00000000000E+00 0. -1.
         13    1    4    4    0    0 -0.37524365549E+02 -0.44039060880E+02  0.58353867609E+02  0.82174757426E+02  0.00000000000E+00 0.  1.
         21    1    1    2  503  501 -0.93314543599E+02  0.52510669269E+02  0.89734546888E+02  0.13970419943E+03  0.00000000000E+00 0.  1.
         -2    1    1    2    0  502  0.14536167478E+03 -0.36955247476E+02 -0.37771706311E+02  0.15466870597E+03  0.00000000000E+00 0.  1.
<scales pt_clust_5="13000.00000" pt_clust_6="13000.00000" pt_clust_7="13000.00000" pt_clust_8="13000.00000" pt_clust_9="107.07462" pt_clust_10="13000.00000"></scales>
<clustering>
<clus scale="   92.484">  5  6 -1 -1</clus>
<clus scale="   92.737">  7  8 -1 -1</clus>
<clus scale="  107.075">  1  9  2 -1</clus>
<clus scale="  122.378">  7 10 -1 -1</clus>
<clus scale="  146.451">  2  5  1 -1</clus>
<clus scale="  107.075">  1  5  2 -1</clus>
</clustering>
</event>
<event>
10    2  0.5921424E-006  0.5088094E+03  0.7546771E-02  0.1031068E+00
         21   -1    0    0  503  502  0.00000000000E+00  0.00000000000E+00  0.46767367392E+03  0.46767367392E+03  0.00000000000E+00 0. -1.
          1   -1    0    0  502    0 -0.00000000000E+00 -0.00000000000E+00 -0.84234045841E+03  0.84234045841E+03  0.00000000000E+00 0. -1.
         23    2    1    2    0    0  0.23060385021E+03 -0.76468435603E+02  0.19338471076E+03  0.32399741054E+03  0.92472256945E+02 0.  0.
         23    2    1    2    0    0 -0.28268530328E+03  0.11434003024E+03 -0.73567480762E+03  0.80163671508E+03  0.91757164207E+02 0.  0.
        -13    1    3    3    0    0  0.12489902674E+03  0.50449268270E+01  0.11075185267E+03  0.16700655987E+03  0.00000000000E+00 0. -1.
         13    1    3    3    0    0  0.10570482346E+03 -0.81513362430E+02  0.82632858088E+02  0.15699085067E+03  0.00000000000E+00 0.  1.
        -13    1    4    4    0    0 -0.25920906911E+03  0.13015688297E+03 -0.66497215269E+03  0.72547785600E+03  0.00000000000E+00 0. -1.
         13    1    4    4    0    0 -0.23476234173E+02 -0.15816852736E+02 -0.70702654930E+02  0.76158859075E+02  0.00000000000E+00 0.  1.
         21    1    1    2  503  501  0.29600813291E+02 -0.90205151176E+01  0.12222287011E+03  0.12607937111E+03  0.00000000000E+00 0.  1.
          1    1    1    2  501    0  0.22480639784E+02 -0.28851079516E+02  0.45400442258E+02  0.58300635602E+02  0.00000000000E+00 0. -1.
<scales pt_clust_5="13000.00000" pt_clust_6="13000.00000" pt_clust_7="13000.00000" pt_clust_8="13000.00000" pt_clust_9="30.94475" pt_clust_10="13000.00000"></scales>
<clustering>
<clus scale="   30.945">  1  9  2 -1</clus>
<clus scale="   91.757">  7  8 -1 -1</clus>
<clus scale="   40.485">  7 10 -1 -1</clus>
<clus scale="   92.472">  5  6 -1 -1</clus>
<clus scale="  281.850">  2  5  1 -1</clus>
<clus scale="   30.945">  1  5  2 -1</clus>
</clustering>
</event>
<event>
10    2  0.5921424E-006  0.2963290E+03  0.7546771E-02  0.1113373E+00
         21   -1    0    0  503  502  0.00000000000E+00  0.00000000000E+00  0.10274861478E+03  0.10274861478E+03  0.00000000000E+00 0. -1.
          1   -1    0    0  502    0 -0.00000000000E+00 -0.00000000000E+00 -0.90699883672E+03  0.90699883672E+03  0.00000000000E+00 0. -1.
         23    2    1    2    0    0 -0.10222049484E+03 -0.59960512147E+02 -0.39053729338E+03  0.41810226738E+03  0.90806585051E+02 0.  0.
         23    2    1    2    0    0  0.11738590132E+03 -0.32289524536E+02 -0.37077869320E+03  0.40150582868E+03  0.94382349604E+02 0.  0.
        -11    1    3    3    0    0 -0.70312089617E+02  0.58317998229E+01 -0.24886328557E+03  0.25867109375E+03  0.00000000000E+00 0.  1.
         11    1    3    3    0    0 -0.31908405226E+02 -0.65792311970E+02 -0.14167400780E+03  0.15943117363E+03  0.00000000000E+00 0. -1.
        -13    1    4    4    0    0  0.57052637073E+02 -0.41653885651E+02 -0.91308032135E+02  0.11544352004E+03  0.00000000000E+00 0. -1.
         13    1    4    4    0    0  0.60333264245E+02  0.93643611145E+01 -0.27947066106E+03  0.28606230864E+03  0.00000000000E+00 0.  1.
         21    1    1    2  503  501  0.88786992549E+01 -0.20115655220E+02  0.41892095081E+02  0.47311927837E+02  0.00000000000E+00 0. -1.
          1    1    1    2  501    0 -0.24044105730E+02  0.11236569190E+03 -0.84826330453E+02  0.14282742760E+03  0.00000000000E+00 0. -1.
<scales pt_clust_5="13000.00000" pt_clust_6="13000.00000" pt_clust_7="13000.00000" pt_clust_8="13000.00000" pt_clust_9="21.98797" pt_clust_10="13000.00000"></scales>
<clustering>
<clus scale="   21.988">  1  9  2 -1</clus>
<clus scale="   90.807">  5  6 -1 -1</clus>
<clus scale="   94.382">  7  8 -1 -1</clus>
<clus scale="  104.196">  7 10 -1 -1</clus>
<clus scale="  149.863">  2  5  1 -1</clus>
<clus scale="   21.988">  1  5  2 -1</clus>
</clustering>
</event>
<event>
10    2  0.5921424E-006  0.1478639E+03  0.7546771E-02  0.1220443E+00
         21   -1    0    0  503  502  0.00000000000E+00  0.00000000000E+00  0.15677564979E+03  0.15677564979E+03  0.00000000000E+00 0.  1.
          4   -1    0    0  502    0 -0.00000000000E+00 -0.00000000000E+00 -0.23771521431E+03  0.23771521431E+03  0.00000000000E+00 0. -1.
         23    2    1    2    0    0  0.18715880283E+02 -0.51693891317E+02 -0.55258248337E+02  0.11698585436E+03  0.87233442765E+02 0.  0.
         23    2    1    2    0    0  0.41867364612E+02  0.37565863179E+02 -0.72184115119E+02  0.12854287011E+03  0.90269888022E+02 0.  0.
        -11    1    4    4    0    0 -0.78317061599E+01  0.38181079143E+02 -0.68363075106E+02  0.78693331762E+02  0.00000000000E+00 0. -1.
         11    1    4    4    0    0  0.49699070772E+02 -0.61521596393E+00 -0.38210400129E+01  0.49849538343E+02  0.00000000000E+00 0.  1.
        -13    1    3    3    0    0 -0.27093663095E+02 -0.16093013489E+02 -0.49505974650E+02  0.58684692971E+02  0.00000000000E+00 0. -1.
         13    1    3    3    0    0  0.45809543378E+02 -0.35600877829E+02 -0.57522736871E+01  0.58301161388E+02  0.00000000000E+00 0.  1.
         21    1    1    2  503  501 -0.23193205687E+02 -0.23013126310E+01  0.87824040769E+02  0.90864090635E+02  0.00000000000E+00 0.  1.
          4    1    1    2  501    0 -0.37390039208E+02  0.16429340770E+02 -0.41321241839E+02  0.58098048996E+02  0.00000000000E+00 0. -1.
<scales pt_clust_5="13000.00000" pt_clust_6="13000.00000" pt_clust_7="13000.00000" pt_clust_8="13000.00000" pt_clust_9="23.30710" pt_clust_10="13000.00000"></scales>
<clustering>
<clus scale="   23.307">  1  9  2 -1</clus>
<clus scale="   87.233">  7  8 -1 -1</clus>
<clus scale="   90.270">  5  6 -1 -1</clus>
<clus scale="   43.390">  5 10 -1 -1</clus>
<clus scale="  102.262">  2  7  1 -1</clus>
<clus scale="   23.307">  1  5  2 -1</clus>
</clustering>
</event>
<event>
10    2  0.5921424E-006  0.1456608E+03  0.7546771E-02  0.1227099E+00
          1   -1    0    0  503    0 -0.00000000000E+00  0.00000000000E+00  0.31342150347E+03  0.31342150347E+03  0.00000000000E+00 0. -1.
         21   -1    0    0  501  502  0.00000000000E+00 -0.00000000000E+00 -0.62434735720E+02  0.62434735720E+02  0.00000000000E+00 0.  1.
         23    2    1    2    0    0 -0.14441691321E+02  0.21649554121E+02  0.10041485227E+03  0.13706261244E+03  0.89586558870E+02 0.  0.
         23    2    1    2    0    0 -0.14357058391E+02 -0.28325351338E+01  0.67287226315E+02  0.11495938434E+03  0.92054010461E+02 0.  0.
        -11    1    4    4    0    0 -0.39443717436E+02  0.15620692454E+01  0.77929187512E+02  0.87356769468E+02  0.00000000000E+00 0.  1.
         11    1    4    4    0    0  0.25086659045E+02 -0.43946043792E+01 -0.10641961198E+02  0.27602614873E+02  0.00000000000E+00 0. -1.
        -13    1    3    3    0    0 -0.34276641879E+02  0.12509499797E+02  0.10795770371E+03  0.11395719176E+03  0.00000000000E+00 0.  1.
         13    1    3    3    0    0  0.19834950557E+02  0.91400543238E+01 -0.75428514435E+01  0.23105420675E+02  0.00000000000E+00 0. -1.
         21    1    1    2  503  502 -0.20688693415E+02 -0.24944196564E+02  0.77446273374E+01  0.33319877401E+02  0.00000000000E+00 0.  1.
          1    1    1    2  501    0  0.49487443127E+02  0.61271775766E+01  0.75540061830E+02  0.90514365013E+02  0.00000000000E+00 0. -1.
<scales pt_clust_5="13000.00000" pt_clust_6="13000.00000" pt_clust_7="13000.00000" pt_clust_8="13000.00000" pt_clust_9="32.40733" pt_clust_10="13000.00000"></scales>
<clustering>
<clus scale="   32.407">  2  9  1 -1</clus>
<clus scale="   89.587">  7  8 -1 -1</clus>
<clus scale="   92.054">  5  6 -1 -1</clus>
<clus scale="   46.428">  5 10 -1 -1</clus>
<clus scale="   93.102">  1  7  2 -1</clus>
<clus scale="   32.407">  2  5  1 -1</clus>
</clustering>
</event>
<event>
10    2  0.5921424E-006  0.2422680E+03  0.7546771E-02  0.1142910E+00
          1   -1    0    0  503    0 -0.00000000000E+00  0.00000000000E+00  0.33949844836E+03  0.33949844836E+03  0.00000000000E+00 0. -1.
         21   -1    0    0  501  502  0.00000000000E+00 -0.00000000000E+00 -0.28273286417E+03  0.28273286417E+03  0.00000000000E+00 0. -1.
         23    2    1    2    0    0  0.36707016746E+02 -0.67668511511E+02 -0.66724317589E+02  0.13685205500E+03  0.91377885029E+02 0.  0.
         23    2    1    2    0    0  0.81413485702E+02  0.17675781519E+02  0.20816821628E+03  0.24157453963E+03  0.89909193211E+02 0.  0.
        -11    1    4    4    0    0  0.32327628888E+02  0.47521314461E+02  0.14611348239E+03  0.15701114818E+03  0.00000000000E+00 0. -1.
         11    1    4    4    0    0  0.49085856814E+02 -0.29845532942E+02  0.62054733893E+02  0.84563391455E+02  0.00000000000E+00 0.  1.
        -13    1    3    3    0    0 -0.20923232210E+02  0.42687730877E+01 -0.31753802107E+02  0.38266277818E+02  0.00000000000E+00 0.  1.
         13    1    3    3    0    0  0.57630248956E+02 -0.71937284598E+02 -0.34970515482E+02  0.98585777185E+02  0.00000000000E+00 0. -1.
         21    1    1    2  503  502 -0.81667482901E+02 -0.41272211438E+02 -0.10924579930E+03  0.14250479945E+03  0.00000000000E+00 0. -1.
          1    1    1    2  501    0 -0.36453019547E+02  0.91264941429E+02  0.24567484806E+02  0.10129991845E+03  0.00000000000E+00 0. -1.
<scales pt_clust_5="13000.00000" pt_clust_6="13000.00000" pt_clust_7="13000.00000" pt_clust_8="13000.00000" pt_clust_9="91.50395" pt_clust_10="13000.00000"></scales>
<clustering>
<clus scale="   89.909">  5  6 -1 -1</clus>
<clus scale="   91.378">  7  8 -1 -1</clus>
<clus scale="   91.504">  2  9  1 -1</clus>
<clus scale="   98.857">  5 10 -1 -1</clus>
<clus scale="  132.424">  1  7  2 -1</clus>
<clus scale="   91.504">  2  5  1 -1</clus>
</clustering>
</event>
<event>
10    2  0.5921424E-006  0.2943028E+03  0.7546771E-02  0.1131496E+00
         21   -1    0    0  503  502  0.00000000000E+00  0.00000000000E+00  0.85640081615E+03  0.85640081615E+03  0.00000000000E+00 0. -1.
         -3   -1    0    0    0  501 -0.00000000000E+00 -0.00000000000E+00 -0.13717685093E+03  0.13717685093E+03  0.00000000000E+00 0.  1.
         23    2    1    2    0    0 -0.35816179689E+02 -0.23246234887E+01 -0.32424962298E+02  0.10267313341E+03  0.90565951339E+02 0.  0.
         23    2    1    2    0    0  0.70552000535E+02 -0.24472369302E+02  0.19390924080E+03  0.22652176494E+03  0.90193318398E+02 0.  0.
        -13    1    4    4    0    0  0.41599818638E+02 -0.22663789218E+02  0.19165804186E+03  0.19742592855E+03  0.00000000000E+00 0. -1.
         13    1    4    4    0    0  0.28952181898E+02 -0.18085800848E+01  0.22511989381E+01  0.29095836390E+02  0.00000000000E+00 0.  1.
        -13    1    3    3    0    0 -0.58728345011E+02  0.10115209126E+02 -0.44071103056E+02  0.74118810622E+02  0.00000000000E+00 0. -1.
         13    1    3    3    0    0  0.22912165322E+02 -0.12439832615E+02  0.11646140757E+02  0.28554322786E+02  0.00000000000E+00 0.  1.
         21    1    1    2  503  501 -0.70190862830E+02 -0.15296223612E+03  0.19202969144E+03  0.25534213381E+03  0.00000000000E+00 0. -1.
         -3    1    1    2    0  502  0.35455041983E+02  0.17975922891E+03  0.36570999528E+03  0.40904063494E+03  0.00000000000E+00 0.  1.
<scales pt_clust_5="13000.00000" pt_clust_6="13000.00000" pt_clust_7="13000.00000" pt_clust_8="13000.00000" pt_clust_9="176.63462" pt_clust_10="13000.00000"></scales>
<clustering>
<clus scale="   90.193">  5  6 -1 -1</clus>
<clus scale="   90.566">  7  8 -1 -1</clus>
<clus scale="   97.419">  2  7  1 -1</clus>
<clus scale="  176.635">  1  9  2 -1</clus>
<clus scale="   85.180">  5 10 -1 -1</clus>
<clus scale="  176.635">  1  5  2 -1</clus>
</clustering>
</event>
<event>
10    2  0.5921424E-006  0.1949808E+03  0.7546771E-02  0.1177067E+00
         -3   -1    0    0    0  501 -0.00000000000E+00  0.00000000000E+00  0.47107734856E+03  0.47107734856E+03  0.00000000000E+00 0.  1.
         21   -1    0    0  501  502  0.00000000000E+00 -0.00000000000E+00 -0.30258332261E+03  0.30258332261E+03  0.00000000000E+00 0.  1.
         23    2    1    2    0    0  0.31857674339E+02  0.46631216675E+02  0.18177196185E+03  0.21275628663E+03  0.95051615469E+02 0.  0.
         23    2    1    2    0    0 -0.71468320300E+02 -0.99594031444E+02  0.20422680408E+03  0.25290262452E+03  0.84996812183E+02 0.  0.
        -11    1    3    3    0    0 -0.23289097107E+02  0.17036422210E+02  0.12490093642E+03  0.12819073931E+03  0.00000000000E+00 0.  1.
         11    1    3    3    0    0  0.55146771446E+02  0.29594794465E+02  0.56871025425E+02  0.84565547318E+02  0.00000000000E+00 0. -1.
        -13    1    4    4    0    0  0.15821364482E+02 -0.30471875628E+02  0.73920430108E+02  0.81505096562E+02  0.00000000000E+00 0.  1.
         13    1    4    4    0    0 -0.87289684782E+02 -0.69122155817E+02  0.13030637397E+03  0.17139752796E+03  0.00000000000E+00 0. -1.
         21    1    1    2  503  502 -0.49804092813E+01  0.33850115382E+02 -0.24822953731E+03  0.25057641146E+03  0.00000000000E+00 0.  1.
         -3    1    1    2    0  503  0.44591055242E+02  0.19112699388E+02  0.30724797339E+02  0.57425348558E+02  0.00000000000E+00 0.  1.
<scales pt_clust_5="13000.00000" pt_clust_6="13000.00000" pt_clust_7="13000.00000" pt_clust_8="13000.00000" pt_clust_9="34.21454" pt_clust_10="13000.00000"></scales>
<clustering>
<clus scale="   34.215">  2  9  1 -1</clus>
<clus scale="   84.997">  7  8 -1 -1</clus>
<clus scale="   51.388">  7 10 -1 -1</clus>
<clus scale="   95.052">  5  6 -1 -1</clus>
<clus scale="  114.677">  1  5  2 -1</clus>
<clus scale="   34.215">  2  5  1 -1</clus>
</clustering>
</event>
<event>
10    2  0.5921424E-006  0.5172896E+03  0.7546771E-02  0.1052919E+00
          2   -1    0    0  503    0 -0.00000000000E+00  0.00000000000E+00  0.61137462172E+03  0.61137462172E+03  0.00000000000E+00 0. -1.
         21   -1    0    0  501  502  0.00000000000E+00 -0.00000000000E+00 -0.40014192992E+03  0.40014192992E+03  0.00000000000E+00 0.  1.
         23    2    1    2    0    0 -0.82496481940E+02 -0.71686805178E+02 -0.86308106669E+02  0.16649038356E+03  0.91243032456E+02 0.  0.
         23    2    1    2    0    0  0.16572256531E+03  0.80460138501E+02  0.15504634707E+03  0.25745417860E+03  0.91134416116E+02 0.  0.
        -11    1    3    3    0    0 -0.58514409409E+02  0.57665807411E+01 -0.21197720887E+02  0.62502263421E+02  0.00000000000E+00 0. -1.
         11    1    3    3    0    0 -0.23982072531E+02 -0.77453385919E+02 -0.65110385782E+02  0.10398812014E+03  0.00000000000E+00 0.  1.
        -13    1    4    4    0    0  0.28672696980E+02  0.47550611230E+02  0.12346280946E+02  0.56882465081E+02  0.00000000000E+00 0. -1.
         13    1    4    4    0    0  0.13704986833E+03  0.32909527271E+02  0.14270006612E+03  0.20057171352E+03  0.00000000000E+00 0.  1.
         21    1    1    2  503  502  0.14568651268E+03 -0.21431868096E+03  0.96349689970E+02  0.27647842546E+03  0.00000000000E+00 0.  1.
          2    1    1    2  501    0 -0.22891259605E+03  0.20554534763E+03  0.46144761432E+02  0.31109356402E+03  0.00000000000E+00 0. -1.
<scales pt_clust_5="13000.00000" pt_clust_6="13000.00000" pt_clust_7="13000.00000" pt_clust_8="13000.00000" pt_clust_9="265.72920" pt_clust_10="13000.00000"></scales>
<clustering>
<clus scale="   91.134">  7  8 -1 -1</clus>
<clus scale="   91.243">  5  6 -1 -1</clus>
<clus scale="  142.373">  1  5  2 -1</clus>
<clus scale="  265.729">  2  9  1 -1</clus>
<clus scale="  183.091">  7 10 -1 -1</clus>
<clus scale="  265.729">  2  5  1 -1</clus>
</clustering>
</event>
<event>
10    2  0.5921424E-006  0.1290426E+03  0.7546771E-02  0.1238890E+00
         21   -1    0    0  501  502  0.00000000000E+00  0.00000000000E+00  0.10480168958E+03  0.10480168958E+03  0.00000000000E+00 0. -1.
         -1   -1    0    0    0  501 -0.00000000000E+00 -0.00000000000E+00 -0.39126920061E+03  0.39126920061E+03  0.00000000000E+00 0.  1.
         23    2    1    2    0    0 -0.36737408022E+02 -0.57280091950E+01 -0.14036629867E+03  0.17371515583E+03  0.95350984924E+02 0.  0.
         23    2    1    2    0    0  0.18285499848E+02 -0.17692964429E+02 -0.18151168299E+03  0.20477199448E+03  0.91310887448E+02 0.  0.
        -13    1    4    4    0    0  0.31331438607E+02  0.17171212211E+02 -0.15501664013E+03  0.15908069742E+03  0.00000000000E+00 0.  1.
         13    1    4    4    0    0 -0.13045938759E+02 -0.34864176640E+02 -0.26495042856E+02  0.45691297058E+02  0.00000000000E+00 0. -1.
        -13    1    3    3    0    0 -0.55344848047E+02  0.14956980716E+02 -0.40882740544E+02  0.70414216973E+02  0.00000000000E+00 0. -1.
         13    1    3    3    0    0  0.18607440025E+02 -0.20684989911E+02 -0.99483558124E+02  0.10330093886E+03  0.00000000000E+00 0.  1.
         21    1    1    2  503  502 -0.15439448650E+02  0.22516461900E+02  0.66310946147E+02  0.71711290673E+02  0.00000000000E+00 0. -1.
         -1    1    1    2    0  503  0.33891356823E+02  0.90451172424E+00 -0.30900475518E+02  0.45872449205E+02  0.00000000000E+00 0.  1.
<scales pt_clust_5="13000.00000" pt_clust_6="13000.00000" pt_clust_7="13000.00000" pt_clust_8="13000.00000" pt_clust_9="27.30142" pt_clust_10="13000.00000"></scales>
<clustering>
<clus scale="   27.301">  1  9  2 -1</clus>
<clus scale="   91.311">  5  6 -1 -1</clus>
<clus scale="   31.172">  5 10 -1 -1</clus>
<clus scale="   95.351">  7  8 -1 -1</clus>
<clus scale="  105.092">  2  7  1 -1</clus>
<clus scale="   27.301">  1  5  2 -1</clus>
</clustering>
</event>
<event>
10    2  0.5921424E-006  0.2612054E+03  0.7546771E-02  0.1133307E+00
         21   -1    0    0  503  502  0.00000000000E+00  0.00000000000E+00  0.28796452444E+03  0.28796452444E+03  0.00000000000E+00 0. -1.
          3   -1    0    0  502    0 -0.00000000000E+00 -0.00000000000E+00 -0.34129098372E+03  0.34129098372E+03  0.00000000000E+00 0. -1.
         23    2    1    2    0    0 -0.44344036718E+02  0.24934418987E+02  0.53409832277E+02  0.11850280845E+03  0.92747973473E+02 0.  0.
         23    2    1    2    0    0  0.11162191079E+03  0.50653413825E+02 -0.13948879825E+03  0.20560827325E+03  0.88274672976E+02 0.  0.
        -11    1    3    3    0    0 -0.72734423763E+02  0.98972661447E+01  0.40869407715E+02  0.84015241261E+02  0.00000000000E+00 0.  1.
         11    1    3    3    0    0  0.28390387045E+02  0.15037152842E+02  0.12540424562E+02  0.34487567186E+02  0.00000000000E+00 0. -1.
        -13    1    4    4    0    0  0.54699291211E+02  0.69712559882E+02 -0.10071159428E+03  0.13414424582E+03  0.00000000000E+00 0. -1.
         13    1    4    4    0    0  0.56922619580E+02 -0.19059146057E+02 -0.38777203976E+02  0.71464027430E+02  0.00000000000E+00 0.  1.
         21    1    1    2  503  501 -0.62201995194E+02  0.47924175192E+02  0.12726315534E+03  0.14953837461E+03  0.00000000000E+00 0. -1.
          3    1    1    2  501    0 -0.50758788797E+01 -0.12351200800E+03 -0.94510648648E+02  0.15560605186E+03  0.00000000000E+00 0. -1.
<scales pt_clust_5="13000.00000" pt_clust_6="13000.00000" pt_clust_7="13000.00000" pt_clust_8="13000.00000" pt_clust_9="78.52270" pt_clust_10="13000.00000"></scales>
<clustering>
<clus scale="   78.523">  1  9  2 -1</clus>
<clus scale="   88.275">  7  8 -1 -1</clus>
<clus scale="   92.748">  5  6 -1 -1</clus>
<clus scale="  115.105">  7 10 -1 -1</clus>
<clus scale="  133.307">  2  5  1 -1</clus>
<clus scale="   78.523">  1  5  2 -1</clus>
</clustering>
</event>
<event>
10    2  0.5921424E-006  0.1710249E+03  0.7546771E-02  0.1200612E+00
          1   -1    0    0  503    0 -0.00000000000E+00  0.00000000000E+00  0.53674115668E+03  0.53674115668E+03  0.00000000000E+00 0. -1.
         21   -1    0    0  501  502  0.00000000000E+00 -0.00000000000E+00 -0.91710291802E+02  0.91710291802E+02  0.00000000000E+00 0.  1.
         23    2    1    2    0    0  0.23096063062E+02  0.21526518833E+01  0.10233320870E+03  0.13937683517E+03  0.91737421703E+02 0.  0.
         23    2    1    2    0    0 -0.25008960246E+02 -0.71507652174E+01  0.98756945265E+02  0.13467235805E+03  0.87790251449E+02 0.  0.
        -11    1    3    3    0    0 -0.20916572908E+02  0.30715605464E+02  0.65374242480E+02  0.75198025380E+02  0.00000000000E+00 0. -1.
         11    1    3    3    0    0  0.44012635970E+02 -0.28562953581E+02  0.36958966222E+02  0.64178809793E+02  0.00000000000E+00 0.  1.
        -13    1    4    4    0    0 -0.22097221635E+02  0.19260345791E+02 -0.30349464875E+01  0.29469628843E+02  0.00000000000E+00 0.  1.
         13    1    4    4    0    0 -0.29117386107E+01 -0.26411111008E+02  0.10179189175E+03  0.10520272921E+03  0.00000000000E+00 0. -1.
         21    1    1    2  503  502  0.24592538852E+02  0.43408621222E+02 -0.41869673872E+02  0.65131950330E+02  0.00000000000E+00 0.  1.
          1    1    1    2  501    0 -0.22679641668E+02 -0.38410507887E+02  0.28581038478E+03  0.28927030493E+03  0.00000000000E+00 0. -1.
<scales pt_clust_5="13000.00000" pt_clust_6="13000.00000" pt_clust_7="13000.00000" pt_clust_8="13000.00000" pt_clust_9="49.89089" pt_clust_10="13000.00000"></scales>
<clustering>
<clus scale="   49.891">  2  9  1 -1</clus>
<clus scale="   87.790">  7  8 -1 -1</clus>
<clus scale="   42.348">  7 10 -1 -1</clus>
<clus scale="   91.737">  5  6 -1 -1</clus>
<clus scale="  100.896">  1  5  2 -1</clus>
<clus scale="   49.891">  2  5  1 -1</clus>
</clustering>
</event>
<event>
10    2  0.5921424E-006  0.2130696E+03  0.7546771E-02  0.1145302E+00
         21   -1    0    0  503  502  0.00000000000E+00  0.00000000000E+00  0.90778049370E+03  0.90778049370E+03  0.00000000000E+00 0. -1.
          1   -1    0    0  502    0 -0.00000000000E+00 -0.00000000000E+00 -0.10138207684E+03  0.10138207684E+03  0.00000000000E+00 0. -1.
         23    2    1    2    0    0  0.16563241377E+03  0.58392227457E+01  0.15491107316E+03  0.24433973942E+03  0.90753923658E+02 0.  0.
         23    2    1    2    0    0 -0.75650075931E+02 -0.52826487654E+02  0.53752643756E+02  0.14009766543E+03  0.90688683759E+02 0.  0.
        -11    1    3    3    0    0  0.11005534704E+03  0.16371278413E+02  0.15109766236E+03  0.18764514846E+03  0.00000000000E+00 0.  1.
         11    1    3    3    0    0  0.55577066732E+02 -0.10532055667E+02  0.38134108035E+01  0.56694590968E+02  0.00000000000E+00 0. -1.
        -13    1    4    4    0    0  0.50588630931E+01 -0.25461399938E+02  0.48137542404E+02  0.54690931344E+02  0.00000000000E+00 0.  1.
         13    1    4    4    0    0 -0.80708939024E+02 -0.27365087716E+02  0.56151013526E+01  0.85406734086E+02  0.00000000000E+00 0. -1.
         21    1    1    2  503  501 -0.19482613054E+02  0.58668938019E+02  0.49915615101E+03  0.50296966070E+03  0.00000000000E+00 0. -1.
          1    1    1    2  501    0 -0.70499724790E+02 -0.11681673110E+02  0.98578548938E+02  0.12175550498E+03  0.00000000000E+00 0. -1.
<scales pt_clust_5="13000.00000" pt_clust_6="13000.00000" pt_clust_7="13000.00000" pt_clust_8="13000.00000" pt_clust_9="61.81922" pt_clust_10="13000.00000"></scales>
<clustering>
<clus scale="   61.819">  1  9  2 -1</clus>
<clus scale="   90.689">  7  8 -1 -1</clus>
<clus scale="   75.894">  7 10 -1 -1</clus>
<clus scale="   90.754">  5  6 -1 -1</clus>
<clus scale="  183.831">  2  5  1 -1</clus>
<clus scale="   61.819">  1  5  2 -1</clus>
</clustering>
</event>
<event>
10    2  0.5921424E-006  0.4427436E+03  0.7546771E-02  0.1078220E+00
          2   -1    0    0  503    0 -0.00000000000E+00  0.00000000000E+00  0.30998649659E+03  0.30998649659E+03  0.00000000000E+00 0. -1.
         21   -1    0    0  501  502  0.00000000000E+00 -0.00000000000E+00 -0.33660646037E+03  0.33660646037E+03  0.00000000000E+00 0. -1.
         23    2    1    2    0    0 -0.60423856075E+02 -0.38183416595E+01  0.20115719011E+02  0.11295823797E+03  0.93216410881E+02 0.  0.
         23    2    1    2    0    0  0.15876629190E+03 -0.14054617678E+03  0.93368845653E+02  0.24871818552E+03  0.90460108418E+02 0.  0.
        -11    1    3    3    0    0  0.39911689533E+01 -0.36304198327E+02 -0.43464734506E+01  0.36780648135E+02  0.00000000000E+00 0. -1.
         11    1    3    3    0    0 -0.64415025028E+02  0.32485856667E+02  0.24462192462E+02  0.76177589833E+02  0.00000000000E+00 0.  1.
        -13    1    4    4    0    0 -0.74619372134E+01 -0.27797099732E+02  0.19226785695E+02  0.34612549005E+02  0.00000000000E+00 0.  1.
         13    1    4    4    0    0  0.16622822912E+03 -0.11274907705E+03  0.74142059957E+02  0.21410563651E+03  0.00000000000E+00 0. -1.
         21    1    1    2  503  502 -0.12761204805E+02 -0.24509346370E+02 -0.82531940657E+02  0.87034921934E+02  0.00000000000E+00 0. -1.
          2    1    1    2  501    0 -0.85581231022E+02  0.16887386481E+03 -0.57572587784E+02  0.19788161154E+03  0.00000000000E+00 0. -1.
<scales pt_clust_5="13000.00000" pt_clust_6="13000.00000" pt_clust_7="13000.00000" pt_clust_8="13000.00000" pt_clust_9="27.63252" pt_clust_10="13000.00000"></scales>
<clustering>
<clus scale="   27.633">  2  9  1 -1</clus>
<clus scale="   90.460">  7  8 -1 -1</clus>
<clus scale="   93.216">  5  6 -1 -1</clus>
<clus scale="  112.693">  1  5  2 -1</clus>
<clus scale="  188.961">  7 10 -1 -1</clus>
<clus scale="   27.633">  2  5  1 -1</clus>
</clustering>
</event>
<event>
10    2  0.5921424E-006  0.1971093E+03  0.7546771E-02  0.1166261E+00
         -4   -1    0    0    0  501 -0.00000000000E+00  0.00000000000E+00  0.12239355820E+03  0.12239355820E+03  0.00000000000E+00 0.  1.
         21   -1    0    0  501  502  0.00000000000E+00 -0.00000000000E+00 -0.41764133541E+03  0.41764133541E+03  0.00000000000E+00 0.  1.
         23    2    1    2    0    0  0.72280384856E+02  0.92358766750E+02 -0.83775769848E+01  0.14870390455E+03  0.91038846671E+02 0.  0.
         23    2    1    2    0    0 -0.15023085732E+02 -0.35419090998E+02 -0.10129117067E+02  0.99217184017E+02  0.90891393870E+02 0.  0.
        -13    1    3    3    0    0  0.30940493504E+02  0.24022566214E+02 -0.46000186485E+02  0.60418664190E+02  0.00000000000E+00 0. -1.
         13    1    3    3    0    0  0.41339891352E+02  0.68336200536E+02  0.37622609500E+02  0.88285240365E+02  0.00000000000E+00 0.  1.
        -13    1    4    4    0    0 -0.36310579891E+02  0.18396295101E+02 -0.66053647507E+01  0.41237273539E+02  0.00000000000E+00 0. -1.
         13    1    4    4    0    0  0.21287494159E+02 -0.53815386100E+02 -0.35237523166E+01  0.57979910478E+02  0.00000000000E+00 0.  1.
         21    1    1    2  503  502 -0.12402571803E+02 -0.23867304518E+02 -0.16574095451E+03  0.16790930889E+03  0.00000000000E+00 0.  1.
         -4    1    1    2    0  503 -0.44854727321E+02 -0.33072371234E+02 -0.11100012865E+03  0.12420449614E+03  0.00000000000E+00 0.  1.
<scales pt_clust_5="13000.00000" pt_clust_6="13000.00000" pt_clust_7="13000.00000" pt_clust_8="13000.00000" pt_clust_9="26.89744" pt_clust_10="13000.00000"></scales>
<clustering>
<clus scale="   26.897">  2  9  1 -1</clus>
<clus scale="   90.891">  7  8 -1 -1</clus>
<clus scale="   67.281">  7 10 -1 -1</clus>
<clus scale="   91.039">  5  6 -1 -1</clus>
<clus scale="  142.027">  1  5  2 -1</clus>
<clus scale="   26.897">  2  5  1 -1</clus>
</clustering>
</event>
<event>
10    2  0.5921424E-006  0.4539784E+03  0.7546771E-02  0.1063545E+00
          1   -1    0    0  503    0 -0.00000000000E+00  0.00000000000E+00  0.14816012369E+04  0.14816012369E+04  0.00000000000E+00 0. -1.
         21   -1    0    0  501  502  0.00000000000E+00 -0.00000000000E+00 -0.18701556340E+03  0.18701556340E+03  0.00000000000E+00 0.  1.
         23    2    1    2    0    0  0.95479286578E+02 -0.95686208906E+02  0.55027373983E+03  0.57605198795E+03  0.10374275559E+03 0.  0.
         23    2    1    2    0    0 -0.17624875616E+03  0.11910568467E+03  0.58357422899E+03  0.62849856826E+03  0.95925916164E+02 0.  0.
        -11    1    3    3    0    0  0.16022004753E+02 -0.87478636391E+02  0.25051968938E+03  0.26583703885E+03  0.00000000000E+00 0. -1.
         11    1    3    3    0    0  0.79457281825E+02 -0.82075725154E+01  0.29975405045E+03  0.31021494910E+03  0.00000000000E+00 0.  1.
        -13    1    4    4    0    0 -0.12621354531E+03  0.10685980072E+03  0.32292231795E+03  0.36280531896E+03  0.00000000000E+00 0.  1.
         13    1    4    4    0    0 -0.50035210849E+02  0.12245883956E+02  0.26065191103E+03  0.26569324930E+03  0.00000000000E+00 0. -1.
         21    1    1    2  503  502 -0.31693546792E+01  0.15274822446E+03 -0.64686186402E+02  0.16591072177E+03  0.00000000000E+00 0.  1.
          1    1    1    2  501    0  0.83938824260E+02 -0.17616770023E+03  0.22542389108E+03  0.29815552233E+03  0.00000000000E+00 0. -1.
<scales pt_clust_5="13000.00000" pt_clust_6="13000.00000" pt_clust_7="13000.00000" pt_clust_8="13000.00000" pt_clust_9="152.78110" pt_clust_10="13000.00000"></scales>
<clustering>
<clus scale="   95.926">  7  8 -1 -1</clus>
<clus scale="  103.743">  5  6 -1 -1</clus>
<clus scale="  152.781">  2  9  1 -1</clus>
<clus scale="  128.541">  7 10 -1 -1</clus>
<clus scale="  156.289">  1  5  2 -1</clus>
<clus scale="  152.781">  2  5  1 -1</clus>
</clustering>
</event>
<event>
10    2  0.5921424E-006  0.2889470E+03  0.7546771E-02  0.1104088E+00
         21   -1    0    0  501  502  0.00000000000E+00  0.00000000000E+00  0.33922932979E+03  0.33922932979E+03  0.00000000000E+00 0. -1.
          1   -1    0    0  503    0 -0.00000000000E+00 -0.00000000000E+00 -0.35299550824E+03  0.35299550824E+03  0.00000000000E+00 0. -1.
         23    2    1    2    0    0 -0.15650993030E+03 -0.93853804062E+02 -0.22876258796E+03  0.30650752866E+03  0.91162759178E+02 0.  0.
         23    2    1    2    0    0  0.12107240867E+03  0.10792627736E+03  0.36722763980E+02  0.19035387465E+03  0.92625194820E+02 0.  0.
        -11    1    4    4    0    0  0.89343340252E+02  0.26015163953E+02 -0.48314454812E+01  0.93179204055E+02  0.00000000000E+00 0.  1.
         11    1    4    4    0    0  0.31729068420E+02  0.81911113405E+02  0.41554209462E+02  0.97174670599E+02  0.00000000000E+00 0. -1.
        -11    1    3    3    0    0 -0.37194634417E+02 -0.65093040134E+02 -0.12515013086E+03  0.14588728512E+03  0.00000000000E+00 0.  1.
         11    1    3    3    0    0 -0.11931529588E+03 -0.28760763928E+02 -0.10361245709E+03  0.16062024355E+03  0.00000000000E+00 0. -1.
         21    1    1    2  503  502  0.59487096936E+01 -0.25165559904E+02  0.16782616753E+02  0.30827727412E+02  0.00000000000E+00 0. -1.
          1    1    1    2  501    0  0.29488811931E+02  0.11093086607E+02  0.16149102878E+03  0.16453570730E+03  0.00000000000E+00 0. -1.
<scales pt_clust_5="13000.00000" pt_clust_6="13000.00000" pt_clust_7="13000.00000" pt_clust_8="13000.00000" pt_clust_9="25.85909" pt_clust_10="13000.00000"></scales>
<clustering>
<clus scale="   25.859">  1  9  2 -1</clus>
<clus scale="   91.163">  7  8 -1 -1</clus>
<clus scale="   92.625">  5  6 -1 -1</clus>
<clus scale="   32.619">  5 10 -1 -1</clus>
<clus scale="  204.884">  2  7  1 -1</clus>
<clus scale="   25.859">  1  5  2 -1</clus>
</clustering>
</event>
<event>
10    2  0.5921424E-006  0.1619960E+03  0.7546771E-02  0.1195049E+00
          2   -1    0    0  503    0 -0.00000000000E+00  0.00000000000E+00  0.58586500168E+03  0.58586500168E+03  0.00000000000E+00 0. -1.
         21   -1    0    0  501  502  0.00000000000E+00 -0.00000000000E+00 -0.21827291694E+03  0.21827291694E+03  0.00000000000E+00 0. -1.
         23    2    1    2    0    0  0.94920936679E+02  0.26965746475E+02  0.50007611381E+03  0.51796627344E+03  0.92064135906E+02 0.  0.
         23    2    1    2    0    0 -0.15339221720E+02 -0.40380969489E+02 -0.13901941256E+02  0.10132351943E+03  0.90594024082E+02 0.  0.
        -11    1    3    3    0    0  0.55857846515E+02  0.60053802627E+02  0.26597208159E+03  0.27833021111E+03  0.00000000000E+00 0.  1.
         11    1    3    3    0    0  0.39063090163E+02 -0.33088056152E+02  0.23410403221E+03  0.23963606234E+03  0.00000000000E+00 0. -1.
        -13    1    4    4    0    0 -0.24199438247E+02 -0.14418261432E+02 -0.49154950640E+02  0.56654287098E+02  0.00000000000E+00 0.  1.
         13    1    4    4    0    0  0.88602165269E+01 -0.25962708057E+02  0.35253009384E+02  0.44669232333E+02  0.00000000000E+00 0. -1.
         21    1    1    2  503  502 -0.24627975152E+02  0.34287755330E+02 -0.11878489302E+03  0.12606362733E+03  0.00000000000E+00 0. -1.
          2    1    1    2  501    0 -0.54953739807E+02 -0.20872532316E+02  0.20280520934E+00  0.58784498416E+02  0.00000000000E+00 0. -1.
<scales pt_clust_5="13000.00000" pt_clust_6="13000.00000" pt_clust_7="13000.00000" pt_clust_8="13000.00000" pt_clust_9="42.21596" pt_clust_10="13000.00000"></scales>
<clustering>
<clus scale="   42.216">  2  9  1 -1</clus>
<clus scale="   90.594">  7  8 -1 -1</clus>
<clus scale="   63.339">  7 10 -1 -1</clus>
<clus scale="   92.064">  5  6 -1 -1</clus>
<clus scale="  134.032">  1  5  2 -1</clus>
<clus scale="   42.216">  2  5  1 -1</clus>
</clustering>
</event>
<event>
10    2  0.5921424E-006  0.2511735E+03  0.7546771E-02  0.1149509E+00
          2   -1    0    0  502    0 -0.00000000000E+00  0.00000000000E+00  0.71728480204E+03  0.71728480204E+03  0.00000000000E+00 0. -1.
         21   -1    0    0  503  502  0.00000000000E+00 -0.00000000000E+00 -0.68040518416E+02  0.68040518416E+02  0.00000000000E+00 0. -1.
         23    2    1    2    0    0  0.28781783540E+02  0.23259702691E+02  0.20025032099E+03  0.22330771265E+03  0.91633719995E+02 0.  0.
         23    2    1    2    0    0 -0.11488942067E+03 -0.89094918558E+02  0.29662266343E+03  0.34266690385E+03  0.91094012098E+02 0.  0.
        -11    1    4    4    0    0 -0.54803466743E+02 -0.45525521255E+02  0.55301310237E+02  0.90189954909E+02  0.00000000000E+00 0.  1.
         11    1    4    4    0    0 -0.60085953928E+02 -0.43569397303E+02  0.24132135319E+03  0.25247694894E+03  0.00000000000E+00 0. -1.
        -13    1    3    3    0    0  0.35647380690E+02  0.48428494010E+02  0.18143947444E+03  0.19114480811E+03  0.00000000000E+00 0.  1.
         13    1    3    3    0    0 -0.68655971497E+01 -0.25168791319E+02  0.18810846551E+02  0.32162904543E+02  0.00000000000E+00 0. -1.
         21    1    1    2  503  501  0.25813602206E+02  0.85419611648E+01 -0.16005480885E+02  0.31551269036E+02  0.00000000000E+00 0. -1.
          2    1    1    2  501    0  0.60294034924E+02  0.57293254703E+02  0.16837678010E+03  0.18779943492E+03  0.00000000000E+00 0. -1.
<scales pt_clust_5="13000.00000" pt_clust_6="13000.00000" pt_clust_7="13000.00000" pt_clust_8="13000.00000" pt_clust_9="27.19020" pt_clust_10="13000.00000"></scales>
<clustering>
<clus scale="   27.190">  2  9  1 -1</clus>
<clus scale="   91.094">  5  6 -1 -1</clus>
<clus scale="   88.607">  5 10 -1 -1</clus>
<clus scale="   91.634">  7  8 -1 -1</clus>
<clus scale="  101.523">  1  7  2 -1</clus>
<clus scale="   27.190">  2  5  1 -1</clus>
</clustering>
</event>
<event>
10    2  0.5921424E-006  0.4103689E+03  0.7546771E-02  0.1057513E+00
         21   -1    0    0  503  502  0.00000000000E+00  0.00000000000E+00  0.11612722772E+04  0.11612722772E+04  0.00000000000E+00 0.  1.
         -1   -1    0    0    0  501 -0.00000000000E+00 -0.00000000000E+00 -0.22427668163E+03  0.22427668163E+03  0.00000000000E+00 0.  1.
         23    2    1    2    0    0 -0.14621269588E+03  0.17075603545E+03 -0.19111431427E+02  0.24357781166E+03  0.91810279619E+02 0.  0.
         23    2    1    2    0    0  0.28943085292E+02 -0.11910012878E+03  0.15249293228E+01  0.15387162388E+03  0.93014022395E+02 0.  0.
        -13    1    4    4    0    0 -0.71328415431E+01 -0.10819209460E+03  0.22503274308E+02  0.11073754611E+03  0.00000000000E+00 0.  1.
         13    1    4    4    0    0  0.36075926836E+02 -0.10908034182E+02 -0.20978344985E+02  0.43134077770E+02  0.00000000000E+00 0. -1.
        -13    1    3    3    0    0 -0.78597801018E+02  0.73402512293E+02 -0.53560522360E+02  0.12014271801E+03  0.00000000000E+00 0.  1.
         13    1    3    3    0    0 -0.67614894864E+02  0.97353523158E+02  0.34449090933E+02  0.12343509365E+03  0.00000000000E+00 0. -1.
         21    1    1    2  503  501  0.75742034316E+01  0.66552877146E+02  0.52481278906E+03  0.52907004978E+03  0.00000000000E+00 0.  1.
         -1    1    1    2    0  502  0.10969540716E+03 -0.11820878381E+03  0.42976930865E+03  0.45902947354E+03  0.00000000000E+00 0.  1.
<scales pt_clust_5="13000.00000" pt_clust_6="13000.00000" pt_clust_7="13000.00000" pt_clust_8="13000.00000" pt_clust_9="66.98249" pt_clust_10="13000.00000"></scales>
<clustering>
<clus scale="   66.982">  1  9  2 -1</clus>
<clus scale="   91.810">  7  8 -1 -1</clus>
<clus scale="   93.014">  5  6 -1 -1</clus>
<clus scale="  135.461">  5 10 -1 -1</clus>
<clus scale="  250.469">  2  7  1 -1</clus>
<clus scale="   66.982">  1  5  2 -1</clus>
</clustering>
</event>
<event>
10    2  0.5921424E-006  0.2167443E+03  0.7546771E-02  0.1182885E+00
         21   -1    0    0  503  502  0.00000000000E+00  0.00000000000E+00  0.41533750378E+03  0.41533750378E+03  0.00000000000E+00 0. -1.
         -1   -1    0    0    0  501 -0.00000000000E+00 -0.00000000000E+00 -0.11381227096E+03  0.11381227096E+03  0.00000000000E+00 0.  1.
         23    2    1    2    0    0  0.91850875862E+01  0.40947384728E+02  0.32473888118E+01  0.73321713686E+02  0.60037271871E+02 0.  0.
         23    2    1    2    0    0  0.45451658497E+02  0.11754720728E+03  0.10657108369E+03  0.18901114815E+03  0.92111991870E+02 0.  0.
        -11    1    4    4    0    0  0.29339264352E+01  0.68446492601E+02  0.10333126405E+03  0.12397935475E+03  0.00000000000E+00 0. -1.
         11    1    4    4    0    0  0.42517732061E+02  0.49100714675E+02  0.32398196398E+01  0.65031793398E+02  0.00000000000E+00 0.  1.
        -13    1    3    3    0    0  0.17748468545E+02 -0.10730555689E+02  0.28696320492E+01  0.20937711173E+02  0.00000000000E+00 0.  1.
         13    1    3    3    0    0 -0.85633809584E+01  0.51677940416E+02  0.37775676257E+00  0.52384002513E+02  0.00000000000E+00 0. -1.
         21    1    1    2  503  501 -0.25143612586E+02 -0.12734366844E+03  0.18077278351E+03  0.22254754639E+03  0.00000000000E+00 0.  1.
         -1    1    1    2    0  502 -0.29493133497E+02 -0.31150923560E+02  0.10933976808E+02  0.44269366507E+02  0.00000000000E+00 0.  1.
<scales pt_clust_5="13000.00000" pt_clust_6="13000.00000" pt_clust_7="13000.00000" pt_clust_8="13000.00000" pt_clust_9="118.67914" pt_clust_10="13000.00000"></scales>
<clustering>
<clus scale="   60.037">  7  8 -1 -1</clus>
<clus scale="   73.250">  2  7  1 -1</clus>
<clus scale="   92.112">  5  6 -1 -1</clus>
<clus scale="   35.562">  5 10 -1 -1</clus>
<clus scale="  118.679">  1  9  2 -1</clus>
<clus scale="  118.679">  1  5  2 -1</clus>
</clustering>
</event>
<event>
10    2  0.5921424E-006  0.1987036E+03  0.7546771E-02  0.1169152E+00
          2   -1    0    0  503    0 -0.00000000000E+00  0.00000000000E+00  0.29237558989E+03  0.29237558989E+03  0.00000000000E+00 0. -1.
         21   -1    0    0  501  502  0.00000000000E+00 -0.00000000000E+00 -0.52314201700E+03  0.52314201700E+03  0.00000000000E+00 0. -1.
         23    2    1    2    0    0  0.69057824332E+01  0.48180176851E+02  0.23178677749E+03  0.26515549582E+03  0.11921957670E+03 0.  0.
         23    2    1    2    0    0  0.68724585049E+00 -0.33521592022E+02 -0.23187294029E+02  0.98628688268E+02  0.89809788479E+02 0.  0.
        -11    1    3    3    0    0  0.56215898523E+02  0.50462751284E+02  0.10717625793E+03  0.13112386044E+03  0.00000000000E+00 0. -1.
         11    1    3    3    0    0 -0.49310116090E+02 -0.22825744330E+01  0.12461051956E+03  0.13403163537E+03  0.00000000000E+00 0.  1.
        -11    1    4    4    0    0 -0.36644775863E+02  0.60107717426E+01 -0.24060829089E+02  0.44248078732E+02  0.00000000000E+00 0.  1.
         11    1    4    4    0    0  0.37332021713E+02 -0.39532363765E+02  0.87353506070E+00  0.54380609536E+02  0.00000000000E+00 0. -1.
         21    1    1    2  503  502  0.12936116442E+02  0.41073765431E+02 -0.23495852329E+03  0.23887215196E+03  0.00000000000E+00 0. -1.
          2    1    1    2  501    0 -0.20529144726E+02 -0.55732350259E+02 -0.20440738728E+03  0.21286127084E+03  0.00000000000E+00 0. -1.
<scales pt_clust_5="13000.00000" pt_clust_6="13000.00000" pt_clust_7="13000.00000" pt_clust_8="13000.00000" pt_clust_9="43.06271" pt_clust_10="13000.00000"></scales>
<clustering>
<clus scale="   43.063">  2  9  1 -1</clus>
<clus scale="   89.810">  7  8 -1 -1</clus>
<clus scale="   28.080">  7 10 -1 -1</clus>
<clus scale="  119.220">  5  6 -1 -1</clus>
<clus scale="  129.730">  1  5  2 -1</clus>
<clus scale="   43.063">  2  5  1 -1</clus>
</clustering>
</event>
<event>
10    2  0.5921424E-006  0.3177309E+03  0.7546771E-02  0.1115919E+00
         -1   -1    0    0    0  501 -0.00000000000E+00  0.00000000000E+00  0.25221413358E+03  0.25221413358E+03  0.00000000000E+00 0.  1.
         21   -1    0    0  503  502  0.00000000000E+00 -0.00000000000E+00 -0.44393638882E+03  0.44393638882E+03  0.00000000000E+00 0. -1.
         23    2    1    2    0    0 -0.60931518307E+02 -0.94912407611E+01  0.75764726487E+02  0.13688149180E+03  0.95882821427E+02 0.  0.
         23    2    1    2    0    0  0.62513373539E+02 -0.41568842954E+02  0.60035579494E+02  0.13455592563E+03  0.94154849805E+02 0.  0.
        -11    1    4    4    0    0  0.93109359912E+01 -0.24472753327E+02  0.72687465918E+02  0.77259801229E+02  0.00000000000E+00 0.  1.
         11    1    4    4    0    0  0.53202437548E+02 -0.17096089627E+02 -0.12651886424E+02  0.57296124403E+02  0.00000000000E+00 0. -1.
        -13    1    3    3    0    0 -0.49212262101E+02  0.39684360350E+02  0.37774773069E+02  0.73645289584E+02  0.00000000000E+00 0. -1.
         13    1    3    3    0    0 -0.11719256206E+02 -0.49175601111E+02  0.37989953418E+02  0.63236202221E+02  0.00000000000E+00 0.  1.
         21    1    1    2  503  501  0.43179512509E+02  0.15203064251E+03 -0.16766116477E+03  0.23040844762E+03  0.00000000000E+00 0. -1.
         -1    1    1    2    0  502 -0.44761367741E+02 -0.10097055880E+03 -0.15986139646E+03  0.19430465734E+03  0.00000000000E+00 0.  1.
<scales pt_clust_5="13000.00000" pt_clust_6="13000.00000" pt_clust_7="13000.00000" pt_clust_8="13000.00000" pt_clust_9="152.97533" pt_clust_10="13000.00000"></scales>
<clustering>
<clus scale="   94.155">  5  6 -1 -1</clus>
<clus scale="   95.883">  7  8 -1 -1</clus>
<clus scale="  110.447">  5 10 -1 -1</clus>
<clus scale="  114.001">  1  7  2 -1</clus>
<clus scale="  152.975">  2  9  1 -1</clus>
<clus scale="  152.975">  2  5  1 -1</clus>
</clustering>
</event>
<event>
10    2  0.5921424E-006  0.2624664E+03  0.7546771E-02  0.1126951E+00
         21   -1    0    0  503  502  0.00000000000E+00  0.00000000000E+00  0.21334548025E+03  0.21334548025E+03  0.00000000000E+00 0.  1.
         -1   -1    0    0    0  501 -0.00000000000E+00 -0.00000000000E+00 -0.42448812926E+03  0.42448812926E+03  0.00000000000E+00 0.  1.
         23    2    1    2    0    0 -0.10561555798E+03 -0.54235701155E+02 -0.22853805481E+03  0.27356262652E+03  0.92253513581E+02 0.  0.
         23    2    1    2    0    0  0.38811638886E+02  0.13798044835E+01 -0.12110269611E+03  0.15593770621E+03  0.90235569705E+02 0.  0.
        -11    1    3    3    0    0 -0.37535595151E+02 -0.67232080281E+02 -0.15143313436E+03  0.16988545465E+03  0.00000000000E+00 0.  1.
         11    1    3    3    0    0 -0.68079962825E+02  0.12996379126E+02 -0.77104920452E+02  0.10367717187E+03  0.00000000000E+00 0. -1.
        -13    1    4    4    0    0  0.25470670598E+02 -0.41258582502E+02 -0.87493608401E+02  0.10003078127E+03  0.00000000000E+00 0.  1.
         13    1    4    4    0    0  0.13340968288E+02  0.42638386986E+02 -0.33609087709E+02  0.55906924940E+02  0.00000000000E+00 0. -1.
         21    1    1    2  503  501 -0.18026833578E+02 -0.16385157281E+02  0.81141674242E+02  0.84719604619E+02  0.00000000000E+00 0.  1.
         -1    1    1    2    0  502  0.84830752669E+02  0.69241053952E+02  0.57356427663E+02  0.12361367216E+03  0.00000000000E+00 0.  1.
<scales pt_clust_5="13000.00000" pt_clust_6="13000.00000" pt_clust_7="13000.00000" pt_clust_8="13000.00000" pt_clust_9="24.36063" pt_clust_10="13000.00000"></scales>
<clustering>
<clus scale="   24.361">  1  9  2 -1</clus>
<clus scale="   90.236">  7  8 -1 -1</clus>
<clus scale="   92.254">  5  6 -1 -1</clus>
<clus scale="   92.628">  7 10 -1 -1</clus>
<clus scale="  153.586">  2  5  1 -1</clus>
<clus scale="   24.361">  1  5  2 -1</clus>
</clustering>
</event>
<event>
10    2  0.5921424E-006  0.1813862E+03  0.7546771E-02  0.1196516E+00
         21   -1    0    0  503  502  0.00000000000E+00  0.00000000000E+00  0.27344183419E+03  0.27344183419E+03  0.00000000000E+00 0. -1.
          1   -1    0    0  502    0 -0.00000000000E+00 -0.00000000000E+00 -0.73639028011E+03  0.73639028011E+03  0.00000000000E+00 0. -1.
         23    2    1    2    0    0  0.17999511415E+02 -0.10994410809E+02 -0.28485418895E+03  0.29948533849E+03  0.90026104709E+02 0.  0.
         23    2    1    2    0    0  0.32397614825E+02 -0.18659207302E+02 -0.27309342832E+03  0.28899456652E+03  0.86833561613E+02 0.  0.
        -13    1    3    3    0    0  0.49234046662E+02  0.13962843699E+02 -0.13452016690E+03  0.14392577134E+03  0.00000000000E+00 0. -1.
         13    1    3    3    0    0 -0.31234535248E+02 -0.24957254508E+02 -0.15033402205E+03  0.15555956715E+03  0.00000000000E+00 0.  1.
        -13    1    4    4    0    0  0.45610718021E+02 -0.44277673530E+02 -0.15710739539E+03  0.16948033413E+03  0.00000000000E+00 0.  1.
         13    1    4    4    0    0 -0.13213103196E+02  0.25618466228E+02 -0.11598603293E+03  0.11951423239E+03  0.00000000000E+00 0. -1.
         21    1    1    2  503  501 -0.11143378457E+03 -0.13460883823E+02  0.23624643138E+03  0.26155508039E+03  0.00000000000E+00 0. -1.
          1    1    1    2  501    0  0.61036658332E+02  0.43114501933E+02 -0.14124726003E+03  0.15979712890E+03  0.00000000000E+00 0. -1.
<scales pt_clust_5="13000.00000" pt_clust_6="13000.00000" pt_clust_7="13000.00000" pt_clust_8="13000.00000" pt_clust_9="111.77299" pt_clust_10="13000.00000"></scales>
<clustering>
<clus scale="   86.834">  7  8 -1 -1</clus>
<clus scale="   74.728">  7 10 -1 -1</clus>
<clus scale="   90.026">  5  6 -1 -1</clus>
<clus scale="   92.464">  2  5  1 -1</clus>
<clus scale="  111.773">  1  9  2 -1</clus>
<clus scale="  111.773">  1  5  2 -1</clus>
</clustering>
</event>
<event>
10    2  0.5921424E-006  0.2352593E+03  0.7546771E-02  0.1160743E+00
         21   -1    0    0  501  502  0.00000000000E+00  0.00000000000E+00  0.20424002522E+03  0.20424002522E+03  0.00000000000E+00 0.  1.
         -2   -1    0    0    0  501 -0.00000000000E+00 -0.00000000000E+00 -0.73646597587E+03  0.73646597587E+03  0.00000000000E+00 0.  1.
         23    2    1    2    0    0 -0.30863751754E+02 -0.50819482934E+01 -0.50277439727E+03  0.51166361947E+03  0.89661405140E+02 0.  0.
         23    2    1    2    0    0  0.55447709617E+01  0.75342851321E+02 -0.31918314731E+02  0.12306054254E+03  0.91748725246E+02 0.  0.
        -11    1    4    4    0    0 -0.35163297179E+02  0.27270453490E+01 -0.53271016166E+01  0.35668925642E+02  0.00000000000E+00 0. -1.
         11    1    4    4    0    0  0.40708068141E+02  0.72615805972E+02 -0.26591213114E+02  0.87391616895E+02  0.00000000000E+00 0.  1.
        -11    1    3    3    0    0  0.31654089384E+02 -0.61563588261E+01 -0.18657844346E+03  0.18934465320E+03  0.00000000000E+00 0. -1.
         11    1    3    3    0    0 -0.62517841137E+02  0.10744105327E+01 -0.31619595380E+03  0.32231896627E+03  0.00000000000E+00 0.  1.
         21    1    1    2  503  502 -0.65879342397E+00  0.22533916769E+02  0.13791938490E+03  0.13974966242E+03  0.00000000000E+00 0.  1.
         -2    1    1    2    0  503  0.25977774216E+02 -0.92794819797E+02 -0.13545262356E+03  0.16623217668E+03  0.00000000000E+00 0.  1.
<scales pt_clust_5="13000.00000" pt_clust_6="13000.00000" pt_clust_7="13000.00000" pt_clust_8="13000.00000" pt_clust_9="22.54354" pt_clust_10="13000.00000"></scales>
<clustering>
<clus scale="   22.544">  1  9  2 -1</clus>
<clus scale="   89.661">  7  8 -1 -1</clus>
<clus scale="   91.749">  5  6 -1 -1</clus>
<clus scale="   91.224">  5 10 -1 -1</clus>
<clus scale="   94.906">  2  7  1 -1</clus>
<clus scale="   22.544">  1  5  2 -1</clus>
</clustering>
</event>
<event>
10    2  0.5921424E-006  0.2930255E+03  0.7546771E-02  0.1131627E+00
         21   -1    0    0  503  502  0.00000000000E+00  0.00000000000E+00  0.50772322034E+03  0.50772322034E+03  0.00000000000E+00 0. -1.
          4   -1    0    0  502    0 -0.00000000000E+00 -0.00000000000E+00 -0.27143006267E+03  0.27143006267E+03  0.00000000000E+00 0. -1.
         23    2    1    2    0    0  0.28429939566E+02  0.23156657218E+02 -0.57407313505E+02  0.11390671209E+03  0.91294288863E+02 0.  0.
         23    2    1    2    0    0 -0.18483575996E+02  0.10959027287E+02 -0.88166317722E+02  0.12882740667E+03  0.91441009775E+02 0.  0.
        -13    1    4    4    0    0  0.63492500999E+01  0.46958477596E+02 -0.61378350255E+02  0.77541688627E+02  0.00000000000E+00 0. -1.
         13    1    4    4    0    0 -0.24832826096E+02 -0.35999450309E+02 -0.26787967467E+02  0.51285718046E+02  0.00000000000E+00 0.  1.
        -13    1    3    3    0    0  0.46830211440E+02  0.37657398475E+02 -0.65716477210E+02  0.89049445480E+02  0.00000000000E+00 0.  1.
         13    1    3    3    0    0 -0.18400271874E+02 -0.14500741256E+02  0.83091637055E+01  0.24857266614E+02  0.00000000000E+00 0. -1.
         21    1    1    2  503  501 -0.15474525048E+03 -0.65426686823E+02  0.34503245769E+03  0.38376313105E+03  0.00000000000E+00 0. -1.
          4    1    1    2  501    0  0.14479888691E+03  0.31311002318E+02  0.36834331200E+02  0.15265603319E+03  0.00000000000E+00 0. -1.
<scales pt_clust_5="13000.00000" pt_clust_6="13000.00000" pt_clust_7="13000.00000" pt_clust_8="13000.00000" pt_clust_9="164.34197" pt_clust_10="13000.00000"></scales>
<clustering>
<clus scale="   91.294">  7  8 -1 -1</clus>
<clus scale="   91.441">  5  6 -1 -1</clus>
<clus scale="   98.383">  2  7  1 -1</clus>
<clus scale="  158.418">  5 10 -1 -1</clus>
<clus scale="  164.342">  1  9  2 -1</clus>
<clus scale="  164.342">  1  5  2 -1</clus>
</clustering>
</event>
<event>
10    2  0.5921424E-006  0.2784267E+03  0.7546771E-02  0.1130110E+00
         -1   -1    0    0    0  501 -0.00000000000E+00  0.00000000000E+00  0.15170837806E+03  0.15170837806E+03  0.00000000000E+00 0.  1.
         21   -1    0    0  503  502  0.00000000000E+00 -0.00000000000E+00 -0.29994634899E+03  0.29994634899E+03  0.00000000000E+00 0.  1.
         23    2    1    2    0    0 -0.68506878509E+02 -0.52203976896E+02 -0.24579125477E+02  0.12588066967E+03  0.88449770947E+02 0.  0.
         23    2    1    2    0    0  0.83220098450E+02  0.86737469668E+02  0.15113699004E+02  0.15198197569E+03  0.91766680263E+02 0.  0.
        -11    1    4    4    0    0  0.60096953617E+02  0.10432702382E+03  0.28100089191E+01  0.12043117488E+03  0.00000000000E+00 0.  1.
         11    1    4    4    0    0  0.23123144834E+02 -0.17589554149E+02  0.12303690085E+02  0.31550800812E+02  0.00000000000E+00 0. -1.
        -11    1    3    3    0    0 -0.35659518994E+02  0.20968365268E+02 -0.18877991390E+02  0.45471443740E+02  0.00000000000E+00 0. -1.
         11    1    3    3    0    0 -0.32847359515E+02 -0.73172342164E+02 -0.57011340876E+01  0.80409225930E+02  0.00000000000E+00 0.  1.
         21    1    1    2  503  501  0.25364493389E+02  0.74188088452E+01 -0.35709727994E+01  0.26667360130E+02  0.00000000000E+00 0.  1.
         -1    1    1    2    0  502 -0.40077713331E+02 -0.41952301617E+02 -0.13520157166E+03  0.14712472157E+03  0.00000000000E+00 0.  1.
<scales pt_clust_5="13000.00000" pt_clust_6="13000.00000" pt_clust_7="13000.00000" pt_clust_8="13000.00000" pt_clust_9="26.42720" pt_clust_10="13000.00000"></scales>
<clustering>
<clus scale="   26.427">  2  9  1 -1</clus>
<clus scale="   88.450">  7  8 -1 -1</clus>
<clus scale="   91.767">  5  6 -1 -1</clus>
<clus scale="   47.134">  5 10 -1 -1</clus>
<clus scale="  119.030">  1  7  2 -1</clus>
<clus scale="   26.427">  2  5  1 -1</clus>
</clustering>
</event>
<event>
10    2  0.5921424E-006  0.3872354E+03  0.7546771E-02  0.1063924E+00
          4   -1    0    0  503    0 -0.00000000000E+00  0.00000000000E+00  0.65485079790E+03  0.65485079790E+03  0.00000000000E+00 0. -1.
         21   -1    0    0  501  502  0.00000000000E+00 -0.00000000000E+00 -0.54894675305E+03  0.54894675305E+03  0.00000000000E+00 0.  1.
         23    2    1    2    0    0  0.62083229951E+02 -0.23733324378E+03  0.46321006846E+03  0.53193595820E+03  0.90614016926E+02 0.  0.
         23    2    1    2    0    0 -0.37388029960E+00  0.24215051284E+03 -0.38926083871E+02  0.26129577040E+03  0.90128957434E+02 0.  0.
        -13    1    4    4    0    0 -0.31209180439E+02  0.28256068734E+02 -0.28177933572E+01  0.42194292545E+02  0.00000000000E+00 0. -1.
         13    1    4    4    0    0  0.30835300139E+02  0.21389444411E+03 -0.36108290514E+02  0.21910147786E+03  0.00000000000E+00 0.  1.
        -13    1    3    3    0    0  0.46506453123E+02 -0.17761806749E+03  0.41440061525E+03  0.45325367953E+03  0.00000000000E+00 0. -1.
         13    1    3    3    0    0  0.15576776828E+02 -0.59715176290E+02  0.48809453205E+02  0.78682278677E+02  0.00000000000E+00 0.  1.
         21    1    1    2  503  502 -0.42907003327E+02  0.81988814740E+02 -0.30745302341E+03  0.32107715316E+03  0.00000000000E+00 0.  1.
          4    1    1    2  501    0 -0.18802346324E+02 -0.86806083800E+02 -0.10926916332E+02  0.89488669185E+02  0.00000000000E+00 0. -1.
<scales pt_clust_5="13000.00000" pt_clust_6="13000.00000" pt_clust_7="13000.00000" pt_clust_8="13000.00000" pt_clust_9="92.53743" pt_clust_10="13000.00000"></scales>
<clustering>
<clus scale="   90.129">  5  6 -1 -1</clus>
<clus scale="   88.819">  5 10 -1 -1</clus>
<clus scale="   90.614">  7  8 -1 -1</clus>
<clus scale="   92.537">  2  9  1 -1</clus>
<clus scale="  249.193">  1  7  2 -1</clus>
<clus scale="   92.537">  2  5  1 -1</clus>
</clustering>
</event>
<event>
10    2  0.5921424E-006  0.1920666E+03  0.7546771E-02  0.1170872E+00
          1   -1    0    0  503    0 -0.00000000000E+00  0.00000000000E+00  0.35839942792E+03  0.35839942792E+03  0.00000000000E+00 0. -1.
         21   -1    0    0  501  502  0.00000000000E+00 -0.00000000000E+00 -0.21439351414E+03  0.21439351414E+03  0.00000000000E+00 0.  1.
         23    2    1    2    0    0 -0.37786076398E+02  0.97983238755E+02  0.25955424933E+03  0.29590677115E+03  0.95728293732E+02 0.  0.
         23    2    1    2    0    0  0.28654367055E+02 -0.13731119607E+02 -0.58015204434E+02  0.11153282551E+03  0.89800839771E+02 0.  0.
        -11    1    4    4    0    0 -0.24069677645E+02  0.18609619128E+02 -0.66736704067E+01  0.31148116841E+02  0.00000000000E+00 0. -1.
         11    1    4    4    0    0  0.52724044700E+02 -0.32340738735E+02 -0.51341534028E+02  0.80384708669E+02  0.00000000000E+00 0.  1.
        -13    1    3    3    0    0 -0.17292453792E+02 -0.17452389475E+02  0.38143331756E+02  0.45371010722E+02  0.00000000000E+00 0. -1.
         13    1    3    3    0    0 -0.20493622606E+02  0.11543562823E+03  0.22141091757E+03  0.25053576042E+03  0.00000000000E+00 0.  1.
         21    1    1    2  503  502  0.48565293810E+02 -0.24629839332E+02 -0.74118416686E+02  0.91971497979E+02  0.00000000000E+00 0. -1.
          1    1    1    2  501    0 -0.39433584468E+02 -0.59622279815E+02  0.16585285571E+02  0.73381847427E+02  0.00000000000E+00 0. -1.
<scales pt_clust_5="13000.00000" pt_clust_6="13000.00000" pt_clust_7="13000.00000" pt_clust_8="13000.00000" pt_clust_9="54.45380" pt_clust_10="13000.00000"></scales>
<clustering>
<clus scale="   54.454">  2  9  1 -1</clus>
<clus scale="   89.801">  5  6 -1 -1</clus>
<clus scale="   71.101">  5 10 -1 -1</clus>
<clus scale="   95.728">  7  8 -1 -1</clus>
<clus scale="  138.106">  1  7  2 -1</clus>
<clus scale="   54.454">  2  5  1 -1</clus>
</clustering>
</event>
<event>
10    2  0.5921424E-006  0.3506467E+03  0.7546771E-02  0.1064513E+00
         21   -1    0    0  503  502  0.00000000000E+00  0.00000000000E+00  0.81030915780E+02  0.81030915780E+02  0.00000000000E+00 0.  1.
          2   -1    0    0  502    0 -0.00000000000E+00 -0.00000000000E+00 -0.17635402698E+04  0.17635402698E+04  0.00000000000E+00 0. -1.
         23    2    1    2    0    0  0.15077788774E+03 -0.25926101861E+03 -0.63435815988E+03  0.70743367506E+03  0.90010457206E+02 0.  0.
         23    2    1    2    0    0 -0.17979855344E+03  0.22344103502E+03 -0.91075329152E+03  0.95920816020E+03  0.91407442926E+02 0.  0.
        -11    1    3    3    0    0  0.43602006242E+02 -0.10689525948E+03 -0.34016827590E+03  0.35922442481E+03  0.00000000000E+00 0. -1.
         11    1    3    3    0    0  0.10717588150E+03 -0.15236575913E+03 -0.29418988398E+03  0.34820925026E+03  0.00000000000E+00 0.  1.
        -13    1    4    4    0    0  0.90663209423E+01  0.27064523958E+02 -0.88854446840E+02  0.93326305808E+02  0.00000000000E+00 0.  1.
         13    1    4    4    0    0 -0.18886487439E+03  0.19637651106E+03 -0.82189884468E+03  0.86588185439E+03  0.00000000000E+00 0. -1.
         21    1    1    2  503  501  0.22877251694E+02 -0.24606820494E+02 -0.73447074506E+01  0.34391990164E+02  0.00000000000E+00 0.  1.
          2    1    1    2  501    0  0.61434140100E+01  0.60426804083E+02 -0.13005319520E+03  0.14353736019E+03  0.00000000000E+00 0. -1.
<scales pt_clust_5="13000.00000" pt_clust_6="13000.00000" pt_clust_7="13000.00000" pt_clust_8="13000.00000" pt_clust_9="33.59858" pt_clust_10="13000.00000"></scales>
<clustering>
<clus scale="   33.599">  1  9  2 -1</clus>
<clus scale="   90.010">  5  6 -1 -1</clus>
<clus scale="   91.407">  7  8 -1 -1</clus>
<clus scale="   58.579">  7 10 -1 -1</clus>
<clus scale="  330.186">  2  5  1 -1</clus>
<clus scale="   33.599">  1  5  2 -1</clus>
</clustering>
</event>
<event>
10    2  0.5921424E-006  0.3377855E+03  0.7546771E-02  0.1109543E+00
          2   -1    0    0  502    0 -0.00000000000E+00  0.00000000000E+00  0.82156780895E+03  0.82156780895E+03  0.00000000000E+00 0. -1.
         21   -1    0    0  503  502  0.00000000000E+00 -0.00000000000E+00 -0.23881125690E+03  0.23881125690E+03  0.00000000000E+00 0.  1.
         23    2    1    2    0    0 -0.65868793141E+02  0.11230529606E+02  0.76135341277E+02  0.13502841432E+03  0.89281911818E+02 0.  0.
         23    2    1    2    0    0  0.13683205700E+03  0.10009703681E+03  0.56424675460E+03  0.59624135124E+03  0.91580130231E+02 0.  0.
        -13    1    3    3    0    0  0.48668027461E+00 -0.22893353568E+02 -0.63889227655E+01  0.23773111479E+02  0.00000000000E+00 0.  1.
         13    1    3    3    0    0 -0.66355473415E+02  0.34123883174E+02  0.82524264042E+02  0.11125530284E+03  0.00000000000E+00 0. -1.
        -13    1    4    4    0    0  0.13330763418E+03  0.77742083377E+02  0.54533225925E+03  0.56674688340E+03  0.00000000000E+00 0. -1.
         13    1    4    4    0    0  0.35244228131E+01  0.22354953429E+02  0.18914495343E+02  0.29494467838E+02  0.00000000000E+00 0.  1.
         21    1    1    2  503  501 -0.16005137642E+03 -0.14404959811E+03 -0.83155594923E+02  0.23082803724E+03  0.00000000000E+00 0.  1.
          2    1    1    2  501    0  0.89088112560E+02  0.32722031694E+02  0.25530051099E+02  0.98281263050E+02  0.00000000000E+00 0. -1.
<scales pt_clust_5="13000.00000" pt_clust_6="13000.00000" pt_clust_7="13000.00000" pt_clust_8="13000.00000" pt_clust_9="219.67003" pt_clust_10="13000.00000"></scales>
<clustering>
<clus scale="   89.282">  5  6 -1 -1</clus>
<clus scale="   91.580">  7  8 -1 -1</clus>
<clus scale="   94.907">  7 10 -1 -1</clus>
<clus scale="  111.517">  1  5  2 -1</clus>
<clus scale="  219.670">  2  9  1 -1</clus>
<clus scale="  219.670">  2  5  1 -1</clus>
</clustering>
</event>
<event>
10    2  0.5921424E-006  0.1789024E+03  0.7546771E-02  0.1186009E+00
         21   -1    0    0  503  502  0.00000000000E+00  0.00000000000E+00  0.34953391728E+03  0.34953391728E+03  0.00000000000E+00 0. -1.
          3   -1    0    0  502    0 -0.00000000000E+00 -0.00000000000E+00 -0.17293162775E+03  0.17293162775E+03  0.00000000000E+00 0. -1.
         23    2    1    2    0    0  0.17874415984E+02  0.80935759498E+02 -0.11033791500E+03  0.16532075758E+03  0.91029695632E+02 0.  0.
         23    2    1    2    0    0  0.22798617981E+02 -0.60087991398E+01  0.54490748916E+02  0.10802108455E+03  0.90240957119E+02 0.  0.
        -11    1    4    4    0    0 -0.28962494171E+02  0.13238312221E+02  0.39617738502E+02  0.50829560131E+02  0.00000000000E+00 0.  1.
         11    1    4    4    0    0  0.51761112152E+02 -0.19247111361E+02  0.14873010414E+02  0.57191524422E+02  0.00000000000E+00 0. -1.
        -13    1    3    3    0    0  0.31856524332E+02  0.42609679108E+02 -0.11252208052E+03  0.12446542291E+03  0.00000000000E+00 0. -1.
         13    1    3    3    0    0 -0.13982108348E+02  0.38326080390E+02  0.21841655139E+01  0.40855334669E+02  0.00000000000E+00 0.  1.
         21    1    1    2  503  501 -0.14979991025E+02 -0.18965076407E+02  0.10267338201E+03  0.10547937063E+03  0.00000000000E+00 0. -1.
          3    1    1    2  501    0 -0.25693042940E+02 -0.55961883952E+02  0.12977607361E+03  0.14364433227E+03  0.00000000000E+00 0. -1.
<scales pt_clust_5="13000.00000" pt_clust_6="13000.00000" pt_clust_7="13000.00000" pt_clust_8="13000.00000" pt_clust_9="24.16763" pt_clust_10="13000.00000"></scales>
<clustering>
<clus scale="   24.168">  1  9  2 -1</clus>
<clus scale="   90.241">  5  6 -1 -1</clus>
<clus scale="   74.726">  5 10 -1 -1</clus>
<clus scale="   91.030">  7  8 -1 -1</clus>
<clus scale="  121.491">  2  7  1 -1</clus>
<clus scale="   24.168">  1  5  2 -1</clus>
</clustering>
</event>
<event>
10    2  0.5921424E-006  0.1970805E+03  0.7546771E-02  0.1176058E+00
         21   -1    0    0  503  502  0.00000000000E+00  0.00000000000E+00  0.20064820299E+03  0.20064820299E+03  0.00000000000E+00 0.  1.
         -3   -1    0    0    0  501 -0.00000000000E+00 -0.00000000000E+00 -0.21287486824E+03  0.21287486824E+03  0.00000000000E+00 0.  1.
         23    2    1    2    0    0  0.39880880229E+02  0.57324492834E+02 -0.63419056341E+02  0.13154950444E+03  0.91688130774E+02 0.  0.
         23    2    1    2    0    0  0.50718833853E+02 -0.44166122952E+02 -0.49750839142E+02  0.12321444916E+03  0.90463296216E+02 0.  0.
        -13    1    3    3    0    0  0.29031069184E+02  0.42347024004E+00  0.16076573169E+02  0.33187927170E+02  0.00000000000E+00 0. -1.
         13    1    3    3    0    0  0.10849811045E+02  0.56901022594E+02 -0.79495629510E+02  0.98361577270E+02  0.00000000000E+00 0.  1.
        -13    1    4    4    0    0  0.60005073959E+02 -0.10798942874E+01 -0.47153501493E+01  0.60199747504E+02  0.00000000000E+00 0.  1.
         13    1    4    4    0    0 -0.92862401061E+01 -0.43086228665E+02 -0.45035488993E+02  0.63014701655E+02  0.00000000000E+00 0. -1.
         21    1    1    2  503  501 -0.20033241002E+02  0.16094497449E+01  0.81706025073E+02  0.84141521300E+02  0.00000000000E+00 0.  1.
         -3    1    1    2    0  502 -0.70566473080E+02 -0.14767819627E+02  0.19237205158E+02  0.74617596328E+02  0.00000000000E+00 0.  1.
<scales pt_clust_5="13000.00000" pt_clust_6="13000.00000" pt_clust_7="13000.00000" pt_clust_8="13000.00000" pt_clust_9="20.09779" pt_clust_10="13000.00000"></scales>
<clustering>
<clus scale="   20.098">  1  9  2 -1</clus>
<clus scale="   90.463">  7  8 -1 -1</clus>
<clus scale="   79.812">  7 10 -1 -1</clus>
<clus scale="   91.688">  5  6 -1 -1</clus>
<clus scale="  113.614">  2  5  1 -1</clus>
<clus scale="   20.098">  1  5  2 -1</clus>
</clustering>
</event>
<event>
10    2  0.5921424E-006  0.1941936E+03  0.7546771E-02  0.1175082E+00
         21   -1    0    0  503  502  0.00000000000E+00  0.00000000000E+00  0.14150894145E+03  0.14150894145E+03  0.00000000000E+00 0.  1.
         -1   -1    0    0    0  501 -0.00000000000E+00 -0.00000000000E+00 -0.36004932010E+03  0.36004932010E+03  0.00000000000E+00 0.  1.
         23    2    1    2    0    0  0.77387197598E+02  0.22462098038E+02 -0.98160589944E+02  0.15689022271E+03  0.92117948108E+02 0.  0.
         23    2    1    2    0    0 -0.81138804431E+02 -0.61104683474E+01 -0.19587490049E+03  0.23194882870E+03  0.93874592337E+02 0.  0.
        -11    1    4    4    0    0 -0.77393166075E+02 -0.40327913119E+02 -0.15985998053E+03  0.18212977819E+03  0.00000000000E+00 0. -1.
         11    1    4    4    0    0 -0.37456383559E+01  0.34217444771E+02 -0.36014919960E+02  0.49819050504E+02  0.00000000000E+00 0.  1.
        -13    1    3    3    0    0  0.73673832333E+02 -0.74780371476E+01 -0.10245654128E+03  0.12641636548E+03  0.00000000000E+00 0.  1.
         13    1    3    3    0    0  0.37133652655E+01  0.29940135186E+02  0.42959513372E+01  0.30473857229E+02  0.00000000000E+00 0. -1.
         21    1    1    2  503  501 -0.10867478519E+02  0.19954905140E+02  0.69504192372E+02  0.73124093743E+02  0.00000000000E+00 0.  1.
         -1    1    1    2    0  502  0.14619085351E+02 -0.36306534830E+02  0.59909194069E+01  0.39595116406E+02  0.00000000000E+00 0.  1.
<scales pt_clust_5="13000.00000" pt_clust_6="13000.00000" pt_clust_7="13000.00000" pt_clust_8="13000.00000" pt_clust_9="22.72224" pt_clust_10="13000.00000"></scales>
<clustering>
<clus scale="   22.722">  1  9  2 -1</clus>
<clus scale="   92.118">  7  8 -1 -1</clus>
<clus scale="   93.875">  5  6 -1 -1</clus>
<clus scale="   31.822">  5 10 -1 -1</clus>
<clus scale="  121.412">  2  7  1 -1</clus>
<clus scale="   22.722">  1  5  2 -1</clus>
</clustering>
</event>
<event>
10    2  0.5921424E-006  0.3004536E+03  0.7546771E-02  0.1126185E+00
          1   -1    0    0  502    0 -0.00000000000E+00  0.00000000000E+00  0.58420982937E+03  0.58420982937E+03  0.00000000000E+00 0. -1.
         21   -1    0    0  503  502  0.00000000000E+00 -0.00000000000E+00 -0.25326178535E+03  0.25326178535E+03  0.00000000000E+00 0.  1.
         23    2    1    2    0    0 -0.30490574771E+02 -0.38940422780E+02  0.26911718997E+03  0.28863760409E+03  0.91878032656E+02 0.  0.
         23    2    1    2    0    0 -0.17440264989E+02 -0.14971124704E+02  0.34455149571E+02  0.96638373948E+02  0.87312774377E+02 0.  0.
        -11    1    4    4    0    0 -0.25835256208E+02  0.97935590957E+01  0.56203320459E+02  0.62627370165E+02  0.00000000000E+00 0.  1.
         11    1    4    4    0    0  0.83949912199E+01 -0.24764683800E+02 -0.21748170889E+02  0.34011003783E+02  0.00000000000E+00 0. -1.
        -11    1    3    3    0    0 -0.18926513316E+02  0.29233420967E+02  0.10193196158E+03  0.10771690025E+03  0.00000000000E+00 0.  1.
         11    1    3    3    0    0 -0.11564061454E+02 -0.68173843747E+02  0.16718522838E+03  0.18092070384E+03  0.00000000000E+00 0. -1.
         21    1    1    2  503  501 -0.43095792911E+02 -0.16158475761E+03 -0.90600085849E+02  0.19019794114E+03  0.00000000000E+00 0.  1.
          1    1    1    2  501    0  0.91026632670E+02  0.21549630509E+03  0.11797579034E+03  0.26199769554E+03  0.00000000000E+00 0. -1.
<scales pt_clust_5="13000.00000" pt_clust_6="13000.00000" pt_clust_7="13000.00000" pt_clust_8="13000.00000" pt_clust_9="174.67985" pt_clust_10="13000.00000"></scales>
<clustering>
<clus scale="   87.313">  5  6 -1 -1</clus>
<clus scale="   91.878">  7  8 -1 -1</clus>
<clus scale="  104.344">  1  7  2 -1</clus>
<clus scale="  174.680">  2  9  1 -1</clus>
<clus scale="  100.494">  5 10 -1 -1</clus>
<clus scale="  174.680">  2  5  1 -1</clus>
</clustering>
</event>
<event>
10    2  0.5921424E-006  0.2371328E+03  0.7546771E-02  0.1131925E+00
         21   -1    0    0  501  502  0.00000000000E+00  0.00000000000E+00  0.37208194860E+03  0.37208194860E+03  0.00000000000E+00 0.  1.
         -1   -1    0    0    0  501 -0.00000000000E+00 -0.00000000000E+00 -0.15059722310E+03  0.15059722310E+03  0.00000000000E+00 0.  1.
         23    2    1    2    0    0  0.99474527910E+02  0.13774749022E+03  0.17694472690E+02  0.19339851682E+03  0.90666086156E+02 0.  0.
         23    2    1    2    0    0 -0.17395249481E+02 -0.91054214275E+01  0.10495999301E+03  0.14073448254E+03  0.91673829633E+02 0.  0.
        -13    1    3    3    0    0  0.28366839485E+02  0.21359020497E+02 -0.32428980166E+02  0.48088710666E+02  0.00000000000E+00 0. -1.
         13    1    3    3    0    0  0.71107688425E+02  0.11638846973E+03  0.50123452856E+02  0.14530980615E+03  0.00000000000E+00 0.  1.
        -13    1    4    4    0    0  0.16660883359E+02 -0.37706241765E+02  0.22295232551E+02  0.46866012171E+02  0.00000000000E+00 0.  1.
         13    1    4    4    0    0 -0.34056132840E+02  0.28600820337E+02  0.82664760457E+02  0.93868470369E+02  0.00000000000E+00 0. -1.
         21    1    1    2  503  502 -0.88066875380E+01 -0.29552815462E+02  0.43832858569E+02  0.53593340420E+02  0.00000000000E+00 0. -1.
         -1    1    1    2    0  503 -0.73272590891E+02 -0.99089253334E+02  0.54997401227E+02  0.13495283192E+03  0.00000000000E+00 0.  1.
<scales pt_clust_5="13000.00000" pt_clust_6="13000.00000" pt_clust_7="13000.00000" pt_clust_8="13000.00000" pt_clust_9="30.83710" pt_clust_10="13000.00000"></scales>
<clustering>
<clus scale="   30.837">  1  9  2 -1</clus>
<clus scale="   90.666">  5  6 -1 -1</clus>
<clus scale="   91.674">  7  8 -1 -1</clus>
<clus scale="  131.791">  7 10 -1 -1</clus>
<clus scale="  184.288">  2  5  1 -1</clus>
<clus scale="   30.837">  1  5  2 -1</clus>
</clustering>
</event>
<event>
10    2  0.5921424E-006  0.1595295E+03  0.7546771E-02  0.1199333E+00
         21   -1    0    0  503  502  0.00000000000E+00  0.00000000000E+00  0.29138423998E+03  0.29138423998E+03  0.00000000000E+00 0. -1.
         -2   -1    0    0    0  501 -0.00000000000E+00 -0.00000000000E+00 -0.97425625815E+02  0.97425625815E+02  0.00000000000E+00 0.  1.
         23    2    1    2    0    0 -0.13479266177E+02  0.84338880446E+02  0.40978234058E+02  0.13212164001E+03  0.92098722689E+02 0.  0.
         23    2    1    2    0    0 -0.74812511548E+01 -0.35379278427E+02  0.23159543925E+02  0.98980841642E+02  0.89180603701E+02 0.  0.
        -11    1    4    4    0    0 -0.36024807656E+02 -0.51098658366E+02  0.79636320578E+01  0.63026019143E+02  0.00000000000E+00 0.  1.
         11    1    4    4    0    0  0.28543556502E+02  0.15719379939E+02  0.15195911867E+02  0.35954822499E+02  0.00000000000E+00 0. -1.
        -13    1    3    3    0    0  0.21440204009E+02 -0.63235167619E+01 -0.74550992935E+01  0.23563694907E+02  0.00000000000E+00 0.  1.
         13    1    3    3    0    0 -0.34919470186E+02  0.90662397208E+02  0.48433333352E+02  0.10855794510E+03  0.00000000000E+00 0. -1.
         21    1    1    2  503  501  0.18681454518E+02  0.10315383243E+02  0.71124331790E+02  0.74256814145E+02  0.00000000000E+00 0. -1.
         -2    1    1    2    0  502  0.22790628138E+01 -0.59274985262E+02  0.58696504394E+02  0.83450569999E+02  0.00000000000E+00 0.  1.
<scales pt_clust_5="13000.00000" pt_clust_6="13000.00000" pt_clust_7="13000.00000" pt_clust_8="13000.00000" pt_clust_9="21.34019" pt_clust_10="13000.00000"></scales>
<clustering>
<clus scale="   21.340">  1  9  2 -1</clus>
<clus scale="   89.181">  5  6 -1 -1</clus>
<clus scale="   56.543">  5 10 -1 -1</clus>
<clus scale="   92.099">  7  8 -1 -1</clus>
<clus scale="  127.818">  2  7  1 -1</clus>
<clus scale="   21.340">  1  5  2 -1</clus>
</clustering>
</event>
<event>
10    2  0.6321827E-006  0.6841898E+03  0.7546771E-02  0.9925174E-01
         21   -1    0    0  503  502  0.00000000000E+00  0.00000000000E+00  0.16061467980E+04  0.16061467980E+04  0.00000000000E+00 0.  1.
         -1   -1    0    0    0  501 -0.00000000000E+00 -0.00000000000E+00 -0.21691573910E+03  0.21691573910E+03  0.00000000000E+00 0.  1.
         23    2    1    2    0    0  0.16299535396E+03 -0.30618732072E+03  0.76989979373E+03  0.84942895568E+03  0.92009225583E+02 0.  0.
         23    2    1    2    0    0 -0.15724491963E+02  0.29148466285E+01 -0.10069666361E+03  0.13797798124E+03  0.92964236486E+02 0.  0.
        -11    1    3    3    0    0  0.16121438017E+03 -0.24297265235E+03  0.57816539405E+03  0.64753456204E+03  0.00000000000E+00 0.  1.
         11    1    3    3    0    0  0.17809737945E+01 -0.63214668371E+02  0.19173439968E+03  0.20189439364E+03  0.00000000000E+00 0. -1.
        -13    1    4    4    0    0 -0.27738984921E+02 -0.39636585538E+02 -0.39368510713E+02  0.62372989613E+02  0.00000000000E+00 0.  1.
         13    1    4    4    0    0  0.12014492958E+02  0.42551432167E+02 -0.61328152902E+02  0.75604991626E+02  0.00000000000E+00 0. -1.
         21    1    1    2  503  501  0.40498952243E+02 -0.23736528438E+02  0.85426402841E+02  0.97474397754E+02  0.00000000000E+00 0. -1.
         -1    1    1    2    0  502 -0.18776981424E+03  0.32700900253E+03  0.63460152590E+03  0.73818120238E+03  0.00000000000E+00 0.  1.
<scales pt_clust_5="13000.00000" pt_clust_6="13000.00000" pt_clust_7="13000.00000" pt_clust_8="13000.00000" pt_clust_9="46.94239" pt_clust_10="13000.00000"></scales>
<clustering>
<clus scale="   46.942">  1  9  2 -1</clus>
<clus scale="   92.009">  5  6 -1 -1</clus>
<clus scale="   92.964">  7  8 -1 -1</clus>
<clus scale="  358.773">  7 10 -1 -1</clus>
<clus scale="  379.790">  2  5  1 -1</clus>
<clus scale="   46.942">  1  5  2 -1</clus>
</clustering>
</event>
<event>
10    2  0.5921424E-006  0.2382049E+03  0.7546771E-02  0.1140717E+00
         21   -1    0    0  503  502  0.00000000000E+00  0.00000000000E+00  0.10553136042E+03  0.10553136042E+03  0.00000000000E+00 0. -1.
          2   -1    0    0  502    0 -0.00000000000E+00 -0.00000000000E+00 -0.99859258797E+03  0.99859258797E+03  0.00000000000E+00 0. -1.
         23    2    1    2    0    0 -0.45113048667E+00 -0.14639009512E+03 -0.66599640486E+02  0.18329731292E+03  0.87932527222E+02 0.  0.
         23    2    1    2    0    0  0.79532240599E+02  0.36822942170E+02 -0.64962166383E+03  0.66206579513E+03  0.92959693402E+02 0.  0.
        -11    1    3    3    0    0 -0.43521869475E+02 -0.83621427390E+02 -0.30787237540E+02  0.99169300878E+02  0.00000000000E+00 0.  1.
         11    1    3    3    0    0  0.43070738989E+02 -0.62768667726E+02 -0.35812402946E+02  0.84128012040E+02  0.00000000000E+00 0. -1.
        -13    1    4    4    0    0  0.10081365934E+03  0.28131069236E+02 -0.52183000230E+03  0.53222298172E+03  0.00000000000E+00 0. -1.
         13    1    4    4    0    0 -0.21281418737E+02  0.86918729344E+01 -0.12779166153E+03  0.12984281341E+03  0.00000000000E+00 0.  1.
         21    1    1    2  503  501 -0.25030868482E+02  0.38898458052E+02  0.13893538547E+02  0.48297668983E+02  0.00000000000E+00 0. -1.
          2    1    1    2  501    0 -0.54050241631E+02  0.70668694893E+02 -0.19073346178E+03  0.21046317136E+03  0.00000000000E+00 0. -1.
<scales pt_clust_5="13000.00000" pt_clust_6="13000.00000" pt_clust_7="13000.00000" pt_clust_8="13000.00000" pt_clust_9="46.25618" pt_clust_10="13000.00000"></scales>
<clustering>
<clus scale="   46.256">  1  9  2 -1</clus>
<clus scale="   87.933">  5  6 -1 -1</clus>
<clus scale="   92.960">  7  8 -1 -1</clus>
<clus scale="   95.080">  7 10 -1 -1</clus>
<clus scale="  146.859">  2  5  1 -1</clus>
<clus scale="   46.256">  1  5  2 -1</clus>
</clustering>
</event>
<event>
10    2  0.5921424E-006  0.1736338E+03  0.7546771E-02  0.1187827E+00
          1   -1    0    0  503    0 -0.00000000000E+00  0.00000000000E+00  0.29400269461E+03  0.29400269461E+03  0.00000000000E+00 0. -1.
         21   -1    0    0  501  502  0.00000000000E+00 -0.00000000000E+00 -0.14220283753E+03  0.14220283753E+03  0.00000000000E+00 0. -1.
         23    2    1    2    0    0  0.86976018209E+02 -0.15140940202E+02  0.17806834228E+03  0.21857556279E+03  0.90955298434E+02 0.  0.
         23    2    1    2    0    0 -0.71472101478E+02  0.10896383325E+02  0.42630327785E+02  0.12759082630E+03  0.96099332204E+02 0.  0.
        -13    1    3    3    0    0  0.49702892193E+01  0.31627810388E+02  0.52236609142E+02  0.61267328157E+02  0.00000000000E+00 0.  1.
         13    1    3    3    0    0  0.82005728990E+02 -0.46768750591E+02  0.12583173314E+03  0.15730823463E+03  0.00000000000E+00 0. -1.
        -13    1    4    4    0    0 -0.38912043043E+02  0.36237707568E+02  0.62280321238E+02  0.81891128684E+02  0.00000000000E+00 0.  1.
         13    1    4    4    0    0 -0.32560058435E+02 -0.25341324243E+02 -0.19649993453E+02  0.45699697618E+02  0.00000000000E+00 0. -1.
         21    1    1    2  503  502  0.18237267301E+01 -0.24365804799E+02 -0.31479936591E+02  0.39849778299E+02  0.00000000000E+00 0.  1.
          1    1    1    2  501    0 -0.17327643461E+02  0.28610361677E+02 -0.37418876390E+02  0.50189364745E+02  0.00000000000E+00 0. -1.
<scales pt_clust_5="13000.00000" pt_clust_6="13000.00000" pt_clust_7="13000.00000" pt_clust_8="13000.00000" pt_clust_9="24.43396" pt_clust_10="13000.00000"></scales>
<clustering>
<clus scale="   24.434">  2  9  1 -1</clus>
<clus scale="   90.955">  5  6 -1 -1</clus>
<clus scale="   96.099">  7  8 -1 -1</clus>
<clus scale="   24.910">  7 10 -1 -1</clus>
<clus scale="  127.629">  1  5  2 -1</clus>
<clus scale="   24.434">  2  5  1 -1</clus>
</clustering>
</event>
<event>
10    2  0.5921424E-006  0.1803869E+03  0.7546771E-02  0.1184245E+00
          1   -1    0    0  503    0 -0.00000000000E+00  0.00000000000E+00  0.18250866849E+03  0.18250866849E+03  0.00000000000E+00 0. -1.
         21   -1    0    0  501  502  0.00000000000E+00 -0.00000000000E+00 -0.46250440076E+03  0.46250440076E+03  0.00000000000E+00 0. -1.
         23    2    1    2    0    0 -0.80059933446E+02 -0.14415258959E+02  0.11510441632E+03  0.16671636899E+03  0.89038915083E+02 0.  0.
         23    2    1    2    0    0  0.42797736969E+02  0.21688835833E+02 -0.19900149166E+03  0.22493511092E+03  0.93231746476E+02 0.  0.
        -11    1    3    3    0    0 -0.74552401309E+02 -0.35046831826E+02  0.11927571160E+03  0.14495874013E+03  0.00000000000E+00 0. -1.
         11    1    3    3    0    0 -0.55075321363E+01  0.20631572867E+02 -0.41712952849E+01  0.21757628859E+02  0.00000000000E+00 0.  1.
        -13    1    4    4    0    0  0.57554048878E+02 -0.10620278413E+02 -0.70561989076E+02  0.91674713843E+02  0.00000000000E+00 0.  1.
         13    1    4    4    0    0 -0.14756311909E+02  0.32309114246E+02 -0.12843950258E+03  0.13326039707E+03  0.00000000000E+00 0. -1.
         21    1    1    2  503  502 -0.56444024324E+02  0.17098301180E+02 -0.10494178308E+03  0.12037880886E+03  0.00000000000E+00 0. -1.
          1    1    1    2  501    0  0.93706220801E+02 -0.24371878054E+02 -0.91156873852E+02  0.13298278049E+03  0.00000000000E+00 0. -1.
<scales pt_clust_5="13000.00000" pt_clust_6="13000.00000" pt_clust_7="13000.00000" pt_clust_8="13000.00000" pt_clust_9="58.97694" pt_clust_10="13000.00000"></scales>
<clustering>
<clus scale="   58.977">  2  9  1 -1</clus>
<clus scale="   89.039">  5  6 -1 -1</clus>
<clus scale="   93.232">  7  8 -1 -1</clus>
<clus scale="   77.949">  7 10 -1 -1</clus>
<clus scale="  123.266">  1  5  2 -1</clus>
<clus scale="   58.977">  2  5  1 -1</clus>
</clustering>
</event>
<event>
10    2  0.5921424E-006  0.2216128E+03  0.7546771E-02  0.1163114E+00
          1   -1    0    0  503    0 -0.00000000000E+00  0.00000000000E+00  0.24712332771E+03  0.24712332771E+03  0.00000000000E+00 0. -1.
         21   -1    0    0  501  502  0.00000000000E+00 -0.00000000000E+00 -0.24837885177E+03  0.24837885177E+03  0.00000000000E+00 0.  1.
         23    2    1    2    0    0  0.50658140367E+02 -0.51110861540E+02  0.21098524847E+02  0.10951310270E+03  0.79808549418E+02 0.  0.
         23    2    1    2    0    0 -0.16725476460E+03 -0.23100650854E+02  0.56342276754E+02  0.19948030748E+03  0.90056341084E+02 0.  0.
        -13    1    3    3    0    0  0.65331576700E+02 -0.14369827057E+02  0.20434315024E+02  0.69944750155E+02  0.00000000000E+00 0.  1.
         13    1    3    3    0    0 -0.14673436333E+02 -0.36741034483E+02  0.66420982271E+00  0.39568352548E+02  0.00000000000E+00 0. -1.
        -13    1    4    4    0    0 -0.72601401118E+02 -0.30105382890E+02 -0.15917693476E+02  0.80191461446E+02  0.00000000000E+00 0.  1.
         13    1    4    4    0    0 -0.94653363483E+02  0.70047320358E+01  0.72259970231E+02  0.11928884603E+03  0.00000000000E+00 0. -1.
         21    1    1    2  503  502  0.94019832063E+02  0.98317156234E+02 -0.64684260612E+02  0.15063215328E+03  0.00000000000E+00 0.  1.
          1    1    1    2  501    0  0.22576792171E+02 -0.24105643841E+02 -0.14012065047E+02  0.35876616013E+02  0.00000000000E+00 0. -1.
<scales pt_clust_5="13000.00000" pt_clust_6="13000.00000" pt_clust_7="13000.00000" pt_clust_8="13000.00000" pt_clust_9="136.64313" pt_clust_10="13000.00000"></scales>
<clustering>
<clus scale="   79.809">  5  6 -1 -1</clus>
<clus scale="   90.056">  7  8 -1 -1</clus>
<clus scale="   33.027">  7 10 -1 -1</clus>
<clus scale="  107.461">  1  5  2 -1</clus>
<clus scale="  136.643">  2  9  1 -1</clus>
<clus scale="  136.643">  2  5  1 -1</clus>
</clustering>
</event>
<event>
10    2  0.5921424E-006  0.2678897E+03  0.7546771E-02  0.1111433E+00
          1   -1    0    0  502    0 -0.00000000000E+00  0.00000000000E+00  0.52257956139E+03  0.52257956139E+03  0.00000000000E+00 0. -1.
         21   -1    0    0  503  502  0.00000000000E+00 -0.00000000000E+00 -0.20170011784E+03  0.20170011784E+03  0.00000000000E+00 0.  1.
         23    2    1    2    0    0  0.16526092622E+03  0.85144430986E+02 -0.14499506896E+02  0.20832972181E+03  0.92899351055E+02 0.  0.
         23    2    1    2    0    0 -0.15424679847E+03 -0.19418601107E+02  0.36854541400E+03  0.41008357047E+03  0.90408272206E+02 0.  0.
        -13    1    4    4    0    0 -0.10740799723E+03 -0.57678619156E+01  0.33238639402E+03  0.34935721122E+03  0.00000000000E+00 0. -1.
         13    1    4    4    0    0 -0.46838801244E+02 -0.13650739191E+02  0.36159019977E+02  0.60726359253E+02  0.00000000000E+00 0.  1.
        -13    1    3    3    0    0  0.77164247104E+02  0.90102229882E+02  0.15874531700E+01  0.11863917089E+03  0.00000000000E+00 0.  1.
         13    1    3    3    0    0  0.88096679112E+02 -0.49577988963E+01 -0.16086960066E+02  0.89690550922E+02  0.00000000000E+00 0. -1.
         21    1    1    2  503  501  0.18146545430E+02 -0.20421910453E+02 -0.43150395261E+02  0.51071598259E+02  0.00000000000E+00 0.  1.
          1    1    1    2  501    0 -0.29160673173E+02 -0.45303919426E+02  0.99839317102E+01  0.54794788691E+02  0.00000000000E+00 0. -1.
<scales pt_clust_5="13000.00000" pt_clust_6="13000.00000" pt_clust_7="13000.00000" pt_clust_8="13000.00000" pt_clust_9="27.31944" pt_clust_10="13000.00000"></scales>
<clustering>
<clus scale="   27.319">  2  9  1 -1</clus>
<clus scale="   90.408">  5  6 -1 -1</clus>
<clus scale="   55.075">  5 10 -1 -1</clus>
<clus scale="   92.899">  7  8 -1 -1</clus>
<clus scale="  213.061">  1  7  2 -1</clus>
<clus scale="   27.319">  2  5  1 -1</clus>
</clustering>
</event>
<event>
10    2  0.5921424E-006  0.9779140E+03  0.7546771E-02  0.9940355E-01
          2   -1    0    0  502    0 -0.00000000000E+00  0.00000000000E+00  0.23246909067E+04  0.23246909067E+04  0.00000000000E+00 0. -1.
         21   -1    0    0  503  502  0.00000000000E+00 -0.00000000000E+00 -0.15397588789E+03  0.15397588789E+03  0.00000000000E+00 0. -1.
         23    2    1    2    0    0 -0.72583663308E+02  0.15848284705E+02  0.25893497512E+03  0.28687737613E+03  0.98649639055E+02 0.  0.
         23    2    1    2    0    0  0.75514922672E+02 -0.33903910817E+03  0.17996934240E+04  0.18351696027E+04  0.91109988089E+02 0.  0.
        -11    1    3    3    0    0 -0.12655567393E+02 -0.31019572272E+02  0.15195339299E+03  0.15560273420E+03  0.00000000000E+00 0.  1.
         11    1    3    3    0    0 -0.59928095915E+02  0.46867856976E+02  0.10698158213E+03  0.13127464193E+03  0.00000000000E+00 0. -1.
        -13    1    4    4    0    0  0.26258296815E+02 -0.21145285629E+03  0.12884114121E+04  0.13059118559E+04  0.00000000000E+00 0.  1.
         13    1    4    4    0    0  0.49256625858E+02 -0.12758625187E+03  0.51128201194E+03  0.52925774684E+03  0.00000000000E+00 0. -1.
         21    1    1    2  503  501 -0.15640639221E+01  0.21509400799E+02 -0.17992875186E+02  0.28086369936E+02  0.00000000000E+00 0.  1.
          2    1    1    2  501    0 -0.13671954425E+01  0.30168142267E+03  0.13007949482E+03  0.32853344575E+03  0.00000000000E+00 0. -1.
<scales pt_clust_5="13000.00000" pt_clust_6="13000.00000" pt_clust_7="13000.00000" pt_clust_8="13000.00000" pt_clust_9="21.56619" pt_clust_10="13000.00000"></scales>
<clustering>
<clus scale="   21.566">  2  9  1 -1</clus>
<clus scale="   91.110">  7  8 -1 -1</clus>
<clus scale="   98.650">  5  6 -1 -1</clus>
<clus scale="  123.910">  1  5  2 -1</clus>
<clus scale="  320.494">  7 10 -1 -1</clus>
<clus scale="   21.566">  2  5  1 -1</clus>
</clustering>
</event>
<event>
10    2  0.5921424E-006  0.3209717E+03  0.7546771E-02  0.1102018E+00
         21   -1    0    0  503  502  0.00000000000E+00  0.00000000000E+00  0.19943562082E+03  0.19943562082E+03  0.00000000000E+00 0. -1.
          1   -1    0    0  502    0 -0.00000000000E+00 -0.00000000000E+00 -0.10587691248E+04  0.10587691248E+04  0.00000000000E+00 0. -1.
         23    2    1    2    0    0 -0.88855154502E+02 -0.88095875352E+02 -0.58838587197E+03  0.60854375486E+03  0.92040455802E+02 0.  0.
         23    2    1    2    0    0  0.35949912143E+01  0.67066643746E+02 -0.38539067331E+03  0.40169765950E+03  0.91236943777E+02 0.  0.
        -11    1    4    4    0    0 -0.35475723919E+02  0.32826011908E+00 -0.13897893281E+03  0.14343562496E+03  0.00000000000E+00 0.  1.
         11    1    4    4    0    0  0.39070715133E+02  0.66738383627E+02 -0.24641174050E+03  0.25826203454E+03  0.00000000000E+00 0. -1.
        -11    1    3    3    0    0  0.14159473733E+02 -0.28658452289E+02 -0.74380439600E+02  0.80958306424E+02  0.00000000000E+00 0.  1.
         11    1    3    3    0    0 -0.10301462823E+03 -0.59437423063E+02 -0.51400543237E+03  0.52758544843E+03  0.00000000000E+00 0. -1.
         21    1    1    2  503  501 -0.27880509821E+02  0.28266071089E+00  0.12903625220E+03  0.13201423069E+03  0.00000000000E+00 0. -1.
          1    1    1    2  501    0  0.11314067311E+03  0.20746570895E+02 -0.14593210892E+02  0.11594910055E+03  0.00000000000E+00 0. -1.
<scales pt_clust_5="13000.00000" pt_clust_6="13000.00000" pt_clust_7="13000.00000" pt_clust_8="13000.00000" pt_clust_9="27.88194" pt_clust_10="13000.00000"></scales>
<clustering>
<clus scale="   27.882">  1  9  2 -1</clus>
<clus scale="   91.237">  5  6 -1 -1</clus>
<clus scale="   92.040">  7  8 -1 -1</clus>
<clus scale="   94.977">  5 10 -1 -1</clus>
<clus scale="  157.676">  2  7  1 -1</clus>
<clus scale="   27.882">  1  5  2 -1</clus>
</clustering>
</event>
<event>
10    2  0.5921424E-006  0.2767943E+03  0.7546771E-02  0.1132137E+00
         21   -1    0    0  501  502  0.00000000000E+00  0.00000000000E+00  0.13465800445E+03  0.13465800445E+03  0.00000000000E+00 0. -1.
          1   -1    0    0  503    0 -0.00000000000E+00 -0.00000000000E+00 -0.41553608724E+03  0.41553608724E+03  0.00000000000E+00 0. -1.
         23    2    1    2    0    0  0.76710935477E+01 -0.74049645784E+02 -0.20647605629E+03  0.23755211377E+03  0.90865005455E+02 0.  0.
         23    2    1    2    0    0  0.10480063772E+03  0.55708964650E+02 -0.68766329132E+02  0.16337189051E+03  0.88740656842E+02 0.  0.
        -11    1    3    3    0    0  0.19547502613E+02 -0.92062069252E+02 -0.18221734892E+03  0.20508703445E+03  0.00000000000E+00 0.  1.
         11    1    3    3    0    0 -0.11876409065E+02  0.18012423468E+02 -0.24258707371E+02  0.32465079313E+02  0.00000000000E+00 0. -1.
        -13    1    4    4    0    0  0.18633574428E+02  0.57414790191E+02 -0.16497896724E+02  0.62576743483E+02  0.00000000000E+00 0.  1.
         13    1    4    4    0    0  0.86167063293E+02 -0.17058255413E+01 -0.52268432408E+02  0.10079514702E+03  0.00000000000E+00 0. -1.
         21    1    1    2  503  502 -0.10264014061E+01  0.28833541495E+02 -0.21812249968E+02  0.36169059480E+02  0.00000000000E+00 0.  1.
          1    1    1    2  501    0 -0.11144532986E+03 -0.10492860360E+02  0.16176552602E+02  0.11310102794E+03  0.00000000000E+00 0. -1.
<scales pt_clust_5="13000.00000" pt_clust_6="13000.00000" pt_clust_7="13000.00000" pt_clust_8="13000.00000" pt_clust_9="28.85182" pt_clust_10="13000.00000"></scales>
<clustering>
<clus scale="   28.852">  1  9  2 -1</clus>
<clus scale="   88.741">  7  8 -1 -1</clus>
<clus scale="   90.865">  5  6 -1 -1</clus>
<clus scale="  112.042">  7 10 -1 -1</clus>
<clus scale="  115.276">  2  5  1 -1</clus>
<clus scale="   28.852">  1  5  2 -1</clus>
</clustering>
</event>
<event>
10    2  0.5921424E-006  0.1343644E+03  0.7546771E-02  0.1230914E+00
         21   -1    0    0  503  502  0.00000000000E+00  0.00000000000E+00  0.44125974012E+02  0.44125974012E+02  0.00000000000E+00 0. -1.
         -3   -1    0    0    0  501 -0.00000000000E+00 -0.00000000000E+00 -0.64111508783E+03  0.64111508783E+03  0.00000000000E+00 0.  1.
         23    2    1    2    0    0  0.71502113715E+02  0.88821701818E+01 -0.99157642205E+02  0.15360828192E+03  0.92584129602E+02 0.  0.
         23    2    1    2    0    0 -0.15079185910E+02 -0.90014633933E+01 -0.35955113630E+03  0.37143401724E+03  0.91530330229E+02 0.  0.
        -13    1    4    4    0    0  0.23124090651E+02 -0.37397897007E+02 -0.13834536122E+03  0.14516461428E+03  0.00000000000E+00 0. -1.
         13    1    4    4    0    0 -0.38203276561E+02  0.28396433614E+02 -0.22120577509E+03  0.22626940295E+03  0.00000000000E+00 0.  1.
        -13    1    3    3    0    0  0.79379994441E+02  0.32754733814E+02 -0.52612142804E+02  0.10070796232E+03  0.00000000000E+00 0. -1.
         13    1    3    3    0    0 -0.78778807265E+01 -0.23872563632E+02 -0.46545499401E+02  0.52900319598E+02  0.00000000000E+00 0.  1.
         21    1    1    2  503  501 -0.25557836511E+02  0.23349161233E+02 -0.32101925341E+02  0.47211438741E+02  0.00000000000E+00 0.  1.
         -3    1    1    2    0  502 -0.30865091293E+02 -0.23229868022E+02 -0.10617840997E+03  0.11298732394E+03  0.00000000000E+00 0.  1.
<scales pt_clust_5="13000.00000" pt_clust_6="13000.00000" pt_clust_7="13000.00000" pt_clust_8="13000.00000" pt_clust_9="34.61772" pt_clust_10="13000.00000"></scales>
<clustering>
<clus scale="   34.618">  1  9  2 -1</clus>
<clus scale="   91.530">  5  6 -1 -1</clus>
<clus scale="   39.352">  5 10 -1 -1</clus>
<clus scale="   92.584">  7  8 -1 -1</clus>
<clus scale="  109.615">  2  7  1 -1</clus>
<clus scale="   34.618">  1  5  2 -1</clus>
</clustering>
</event>
<event>
10    2  0.5921424E-006  0.1539836E+03  0.7546771E-02  0.1218870E+00
          1   -1    0    0  502    0 -0.00000000000E+00  0.00000000000E+00  0.50049099826E+03  0.50049099826E+03  0.00000000000E+00 0. -1.
         21   -1    0    0  503  502  0.00000000000E+00 -0.00000000000E+00 -0.77629702948E+02  0.77629702948E+02  0.00000000000E+00 0.  1.
         23    2    1    2    0    0 -0.19611804546E+02  0.84288728701E+01  0.34360171539E+03  0.35596362009E+03  0.90511276823E+02 0.  0.
         23    2    1    2    0    0 -0.57500949843E+01 -0.24245189725E+02  0.11501103763E+03  0.14898143477E+03  0.91362116394E+02 0.  0.
        -11    1    4    4    0    0  0.15254935029E+02  0.29069440222E+02  0.65437559791E+02  0.73210789020E+02  0.00000000000E+00 0. -1.
         11    1    4    4    0    0 -0.21005030013E+02 -0.53314629947E+02  0.49573477843E+02  0.75770645752E+02  0.00000000000E+00 0.  1.
        -11    1    3    3    0    0  0.18805067971E+02  0.38549023415E+02  0.19044646858E+03  0.19521658532E+03  0.00000000000E+00 0. -1.
         11    1    3    3    0    0 -0.38416872518E+02 -0.30120150545E+02  0.15315524681E+03  0.16074703477E+03  0.00000000000E+00 0.  1.
         21    1    1    2  503  501 -0.10181300952E+02  0.24097434563E+02 -0.21981417380E+02  0.34169108148E+02  0.00000000000E+00 0.  1.
          1    1    1    2  501    0  0.35543200483E+02 -0.82811177084E+01 -0.13770040337E+02  0.39006538195E+02  0.00000000000E+00 0. -1.
<scales pt_clust_5="13000.00000" pt_clust_6="13000.00000" pt_clust_7="13000.00000" pt_clust_8="13000.00000" pt_clust_9="26.15999" pt_clust_10="13000.00000"></scales>
<clustering>
<clus scale="   26.160">  2  9  1 -1</clus>
<clus scale="   90.511">  7  8 -1 -1</clus>
<clus scale="   91.362">  5  6 -1 -1</clus>
<clus scale="   30.463">  5 10 -1 -1</clus>
<clus scale="   93.590">  1  7  2 -1</clus>
<clus scale="   26.160">  2  5  1 -1</clus>
</clustering>
</event>
<event>
10    2  0.5921424E-006  0.4257165E+03  0.7546771E-02  0.1081716E+00
          1   -1    0    0  502    0 -0.00000000000E+00  0.00000000000E+00  0.67349324007E+03  0.67349324007E+03  0.00000000000E+00 0. -1.
         21   -1    0    0  503  502  0.00000000000E+00 -0.00000000000E+00 -0.56384841500E+03  0.56384841500E+03  0.00000000000E+00 0. -1.
         23    2    1    2    0    0  0.64428816026E+02  0.30823049827E+02  0.35379965546E+03  0.37213468956E+03  0.90602970348E+02 0.  0.
         23    2    1    2    0    0 -0.87015390865E+02  0.68351476963E+02  0.23336572944E+02  0.14707904451E+03  0.94042793703E+02 0.  0.
        -13    1    4    4    0    0 -0.24384655940E+02  0.79374853491E+01  0.49892735052E+02  0.56097238167E+02  0.00000000000E+00 0.  1.
         13    1    4    4    0    0 -0.62630734925E+02  0.60413991614E+02 -0.26556162108E+02  0.90981806345E+02  0.00000000000E+00 0. -1.
        -13    1    3    3    0    0  0.25822910004E+02 -0.28467682270E+02  0.72314716073E+02  0.81894137615E+02  0.00000000000E+00 0.  1.
         13    1    3    3    0    0  0.38605906022E+02  0.59290732097E+02  0.28148493939E+03  0.29024055195E+03  0.00000000000E+00 0. -1.
         21    1    1    2  503  501 -0.52239915708E+02  0.18061584037E+03 -0.36661099245E+03  0.41201299782E+03  0.00000000000E+00 0. -1.
          1    1    1    2  501    0  0.74826490547E+02 -0.27979036716E+03  0.99119589114E+02  0.30611492318E+03  0.00000000000E+00 0. -1.
<scales pt_clust_5="13000.00000" pt_clust_6="13000.00000" pt_clust_7="13000.00000" pt_clust_8="13000.00000" pt_clust_9="188.94501" pt_clust_10="13000.00000"></scales>
<clustering>
<clus scale="   90.603">  7  8 -1 -1</clus>
<clus scale="   94.043">  5  6 -1 -1</clus>
<clus scale="  115.369">  1  7  2 -1</clus>
<clus scale="  188.945">  2  9  1 -1</clus>
<clus scale="  170.919">  5 10 -1 -1</clus>
<clus scale="  188.945">  2  5  1 -1</clus>
</clustering>
</event>
<event>
10    2  0.5921424E-006  0.1812840E+03  0.7546771E-02  0.1194739E+00
         21   -1    0    0  501  502  0.00000000000E+00  0.00000000000E+00  0.92027998417E+02  0.92027998417E+02  0.00000000000E+00 0.  1.
          1   -1    0    0  503    0 -0.00000000000E+00 -0.00000000000E+00 -0.47494498637E+03  0.47494498637E+03  0.00000000000E+00 0. -1.
         23    2    1    2    0    0 -0.34795206575E+02 -0.59081535422E+01 -0.14733714568E+03  0.17601293023E+03  0.89591877041E+02 0.  0.
         23    2    1    2    0    0 -0.85116317960E+01  0.15297927548E+02 -0.12545299992E+03  0.15617522232E+03  0.91355188212E+02 0.  0.
        -11    1    3    3    0    0 -0.10109302054E+02  0.30025980240E+02 -0.12099920756E+03  0.12507823835E+03  0.00000000000E+00 0. -1.
         11    1    3    3    0    0 -0.24685904521E+02 -0.35934133782E+02 -0.26337938118E+02  0.50934691881E+02  0.00000000000E+00 0.  1.
        -13    1    4    4    0    0  0.40275367910E+01  0.39853656466E+02 -0.12197596861E+03  0.12838485855E+03  0.00000000000E+00 0. -1.
         13    1    4    4    0    0 -0.12539168587E+02 -0.24555728918E+02 -0.34770313103E+01  0.27790363766E+02  0.00000000000E+00 0.  1.
         21    1    1    2  503  502  0.10531886039E+03  0.30703542560E+02 -0.96997953755E+01  0.11013108512E+03  0.00000000000E+00 0.  1.
          1    1    1    2  501    0 -0.62012022016E+02 -0.40093316565E+02 -0.10042704698E+03  0.12465374712E+03  0.00000000000E+00 0. -1.
<scales pt_clust_5="13000.00000" pt_clust_6="13000.00000" pt_clust_7="13000.00000" pt_clust_8="13000.00000" pt_clust_9="103.00087" pt_clust_10="13000.00000"></scales>
<clustering>
<clus scale="   89.592">  5  6 -1 -1</clus>
<clus scale="   91.355">  7  8 -1 -1</clus>
<clus scale="   73.844">  7 10 -1 -1</clus>
<clus scale="   96.293">  2  5  1 -1</clus>
<clus scale="  103.001">  1  9  2 -1</clus>
<clus scale="  103.001">  1  5  2 -1</clus>
</clustering>
</event>
<event>
10    2  0.5921424E-006  0.1930483E+03  0.7546771E-02  0.1167027E+00
         -3   -1    0    0    0  501 -0.00000000000E+00  0.00000000000E+00  0.31118402564E+03  0.31118402564E+03  0.00000000000E+00 0.  1.
         21   -1    0    0  501  502  0.00000000000E+00 -0.00000000000E+00 -0.14300771236E+03  0.14300771236E+03  0.00000000000E+00 0. -1.
         23    2    1    2    0    0 -0.55848718657E+01 -0.97469877455E+02  0.35786810348E+02  0.13836362906E+03  0.91281050862E+02 0.  0.
         23    2    1    2    0    0 -0.25248527138E+02  0.60961812221E+02  0.12128053633E+03  0.16604061197E+03  0.92231695518E+02 0.  0.
        -11    1    3    3    0    0  0.19098764839E+02 -0.87350875040E+02  0.55459282416E+02  0.10521725236E+03  0.00000000000E+00 0.  1.
         11    1    3    3    0    0 -0.24683636705E+02 -0.10119002416E+02 -0.19672472068E+02  0.33146376697E+02  0.00000000000E+00 0. -1.
        -11    1    4    4    0    0  0.20760618549E+01  0.79641896946E+02  0.93406649424E+02  0.12276784570E+03  0.00000000000E+00 0. -1.
         11    1    4    4    0    0 -0.27324588992E+02 -0.18680084725E+02  0.27873886910E+02  0.43272766267E+02  0.00000000000E+00 0.  1.
         21    1    1    2  503  502 -0.15591065734E+02 -0.36998820515E+02 -0.33300327042E+02  0.52162302780E+02  0.00000000000E+00 0.  1.
         -3    1    1    2    0  503  0.46424464737E+02  0.73506885749E+02  0.44409293647E+02  0.97625194191E+02  0.00000000000E+00 0.  1.
<scales pt_clust_5="13000.00000" pt_clust_6="13000.00000" pt_clust_7="13000.00000" pt_clust_8="13000.00000" pt_clust_9="40.14965" pt_clust_10="13000.00000"></scales>
<clustering>
<clus scale="   40.150">  2  9  1 -1</clus>
<clus scale="   91.281">  5  6 -1 -1</clus>
<clus scale="   92.232">  7  8 -1 -1</clus>
<clus scale="   76.450">  7 10 -1 -1</clus>
<clus scale="  148.538">  1  5  2 -1</clus>
<clus scale="   40.150">  2  5  1 -1</clus>
</clustering>
</event>
<event>
10    2  0.5921424E-006  0.1831314E+03  0.7546771E-02  0.1186939E+00
         -1   -1    0    0    0  501 -0.00000000000E+00  0.00000000000E+00  0.63209130754E+03  0.63209130754E+03  0.00000000000E+00 0.  1.
         21   -1    0    0  503  502  0.00000000000E+00 -0.00000000000E+00 -0.11883089756E+03  0.11883089756E+03  0.00000000000E+00 0. -1.
         23    2    1    2    0    0 -0.27666803907E+02 -0.54623295029E+02  0.24113186267E+02  0.11270597836E+03  0.91498827354E+02 0.  0.
         23    2    1    2    0    0  0.40494140202E+02  0.67598595824E+02  0.53540276523E+03  0.54864627795E+03  0.90262238745E+02 0.  0.
        -11    1    3    3    0    0 -0.10098076365E+02  0.25673674307E+02  0.97722331109E+01  0.29267819165E+02  0.00000000000E+00 0.  1.
         11    1    3    3    0    0 -0.17568727541E+02 -0.80296969335E+02  0.14340953156E+02  0.83438159192E+02  0.00000000000E+00 0. -1.
        -11    1    4    4    0    0  0.48413280943E+02 -0.23337559662E+01  0.25339983782E+03  0.25799374023E+03  0.00000000000E+00 0. -1.
         11    1    4    4    0    0 -0.79191407407E+01  0.69932351790E+02  0.28200292741E+03  0.29065253772E+03  0.00000000000E+00 0.  1.
         21    1    1    2  503  501 -0.20067504783E+02  0.11514789156E+02 -0.57263307691E+02  0.61760679443E+02  0.00000000000E+00 0. -1.
         -1    1    1    2    0  502  0.72401684873E+01 -0.24490089951E+02  0.11007766175E+02  0.27809269349E+02  0.00000000000E+00 0.  1.
<scales pt_clust_5="13000.00000" pt_clust_6="13000.00000" pt_clust_7="13000.00000" pt_clust_8="13000.00000" pt_clust_9="23.13645" pt_clust_10="13000.00000"></scales>
<clustering>
<clus scale="   23.136">  2  9  1 -1</clus>
<clus scale="   90.262">  7  8 -1 -1</clus>
<clus scale="   23.279">  7 10 -1 -1</clus>
<clus scale="   91.499">  5  6 -1 -1</clus>
<clus scale="  110.948">  1  5  2 -1</clus>
<clus scale="   23.136">  2  5  1 -1</clus>
</clustering>
</event>
<event>
10    2  0.5921424E-006  0.2100002E+03  0.7546771E-02  0.1171134E+00
         21   -1    0    0  501  502  0.00000000000E+00  0.00000000000E+00  0.20170312343E+03  0.20170312343E+03  0.00000000000E+00 0.  1.
          1   -1    0    0  503    0 -0.00000000000E+00 -0.00000000000E+00 -0.22681103425E+03  0.22681103425E+03  0.00000000000E+00 0. -1.
         23    2    1    2    0    0  0.17312735403E+02  0.45736015583E+02 -0.70812043322E+02  0.12542489051E+03  0.91244417639E+02 0.  0.
         23    2    1    2    0    0 -0.73557079293E+02 -0.45984281410E+01 -0.16397548322E+02  0.11830880051E+03  0.91084044883E+02 0.  0.
        -11    1    4    4    0    0  0.12553942118E+02  0.16549490252E+02  0.13454239017E+02  0.24748810837E+02  0.00000000000E+00 0. -1.
         11    1    4    4    0    0 -0.86111021411E+02 -0.21147918393E+02 -0.29851787339E+02  0.93559989676E+02  0.00000000000E+00 0.  1.
        -13    1    3    3    0    0 -0.29341792388E+02  0.48511407399E+02 -0.36185609322E+02  0.67258425126E+02  0.00000000000E+00 0. -1.
         13    1    3    3    0    0  0.46654527791E+02 -0.27753918164E+01 -0.34626434000E+02  0.58166465379E+02  0.00000000000E+00 0.  1.
         21    1    1    2  503  502 -0.18502922036E+02  0.19922734757E+02  0.81863944924E+02  0.86261109213E+02  0.00000000000E+00 0.  1.
          1    1    1    2  501    0  0.74747265927E+02 -0.61060322199E+02 -0.19762264097E+02  0.98519357453E+02  0.00000000000E+00 0. -1.
<scales pt_clust_5="13000.00000" pt_clust_6="13000.00000" pt_clust_7="13000.00000" pt_clust_8="13000.00000" pt_clust_9="27.18958" pt_clust_10="13000.00000"></scales>
<clustering>
<clus scale="   27.190">  1  9  2 -1</clus>
<clus scale="   91.084">  5  6 -1 -1</clus>
<clus scale="   87.510">  5 10 -1 -1</clus>
<clus scale="   91.244">  7  8 -1 -1</clus>
<clus scale="  105.029">  2  7  1 -1</clus>
<clus scale="   27.190">  1  5  2 -1</clus>
</clustering>
</event>
<event>
10    2  0.5921424E-006  0.3158763E+03  0.7546771E-02  0.1125999E+00
         21   -1    0    0  501  502  0.00000000000E+00  0.00000000000E+00  0.32419717737E+03  0.32419717737E+03  0.00000000000E+00 0.  1.
         -1   -1    0    0    0  501 -0.00000000000E+00 -0.00000000000E+00 -0.52611673691E+03  0.52611673691E+03  0.00000000000E+00 0.  1.
         23    2    1    2    0    0 -0.33773306394E+00 -0.43531524801E+02 -0.22705524570E+03  0.24353763338E+03  0.76559692783E+02 0.  0.
         23    2    1    2    0    0 -0.83453848508E+02  0.72997288847E+02 -0.24598975621E+03  0.28475582340E+03  0.91004229535E+02 0.  0.
        -11    1    4    4    0    0 -0.43609558682E+02  0.15690643965E+02 -0.24284314747E+02  0.52323205743E+02  0.00000000000E+00 0. -1.
         11    1    4    4    0    0 -0.39844289826E+02  0.57306644882E+02 -0.22170544146E+03  0.23243261766E+03  0.00000000000E+00 0.  1.
        -13    1    3    3    0    0 -0.42293776490E+01  0.21343623993E+02 -0.40331245439E+02  0.45826272804E+02  0.00000000000E+00 0. -1.
         13    1    3    3    0    0  0.38916445850E+01 -0.64875148795E+02 -0.18672400026E+03  0.19771136058E+03  0.00000000000E+00 0.  1.
         21    1    1    2  503  502  0.56010377591E+01 -0.51002670665E+02  0.22055238277E+03  0.22644204023E+03  0.00000000000E+00 0.  1.
         -1    1    1    2    0  503  0.78190543813E+02  0.21536906619E+02  0.50573059602E+02  0.95578417260E+02  0.00000000000E+00 0.  1.
<scales pt_clust_5="13000.00000" pt_clust_6="13000.00000" pt_clust_7="13000.00000" pt_clust_8="13000.00000" pt_clust_9="51.30930" pt_clust_10="13000.00000"></scales>
<clustering>
<clus scale="   51.309">  1  9  2 -1</clus>
<clus scale="   76.560">  7  8 -1 -1</clus>
<clus scale="   90.207">  2  7  1 -1</clus>
<clus scale="   91.004">  5  6 -1 -1</clus>
<clus scale="   84.854">  5 10 -1 -1</clus>
<clus scale="   51.309">  1  5  2 -1</clus>
</clustering>
</event>
<event>
10    2  0.5921424E-006  0.6096782E+03  0.7546771E-02  0.1034883E+00
         21   -1    0    0  501  502  0.00000000000E+00  0.00000000000E+00  0.20936426861E+03  0.20936426861E+03  0.00000000000E+00 0. -1.
          2   -1    0    0  503    0 -0.00000000000E+00 -0.00000000000E+00 -0.73343609001E+03  0.73343609001E+03  0.00000000000E+00 0. -1.
         23    2    1    2    0    0 -0.51162788074E+02  0.10352365820E+03 -0.15531591391E+03  0.21487767465E+03  0.93352039398E+02 0.  0.
         23    2    1    2    0    0  0.27672677954E+03 -0.95965723078E+02 -0.36333229021E+03  0.47571435136E+03  0.92231558907E+02 0.  0.
        -11    1    4    4    0    0  0.35804836655E+02 -0.23774440998E+02 -0.13877707189E+02  0.45164157576E+02  0.00000000000E+00 0.  1.
         11    1    4    4    0    0  0.24092194288E+03 -0.72191282080E+02 -0.34945458302E+03  0.43055019378E+03  0.00000000000E+00 0. -1.
        -13    1    3    3    0    0  0.13423622172E+02  0.75235186773E+02 -0.96224305635E+02  0.12288060854E+03  0.00000000000E+00 0.  1.
         13    1    3    3    0    0 -0.64586410246E+02  0.28288471427E+02 -0.59091608272E+02  0.91997066107E+02  0.00000000000E+00 0. -1.
         21    1    1    2  503  502  0.75904747737E+00 -0.20461253752E+02 -0.14895054412E+02  0.25319986258E+02  0.00000000000E+00 0.  1.
          2    1    1    2  501    0 -0.22632303894E+03  0.12903318630E+02  0.94714371273E+01  0.22688834635E+03  0.00000000000E+00 0. -1.
<scales pt_clust_5="13000.00000" pt_clust_6="13000.00000" pt_clust_7="13000.00000" pt_clust_8="13000.00000" pt_clust_9="20.47534" pt_clust_10="13000.00000"></scales>
<clustering>
<clus scale="   20.475">  1  9  2 -1</clus>
<clus scale="   92.232">  5  6 -1 -1</clus>
<clus scale="   93.352">  7  8 -1 -1</clus>
<clus scale="  146.386">  2  7  1 -1</clus>
<clus scale="  238.254">  5 10 -1 -1</clus>
<clus scale="   20.475">  1  5  2 -1</clus>
</clustering>
</event>
<event>
10    2  0.5921424E-006  0.1694542E+03  0.7546771E-02  0.1184568E+00
          1   -1    0    0  503    0 -0.00000000000E+00  0.00000000000E+00  0.73036290932E+03  0.73036290932E+03  0.00000000000E+00 0. -1.
         21   -1    0    0  501  502  0.00000000000E+00 -0.00000000000E+00 -0.59037723784E+02  0.59037723784E+02  0.00000000000E+00 0. -1.
         23    2    1    2    0    0 -0.67160807802E+02 -0.81811176897E+02  0.36815238317E+03  0.39371293575E+03  0.90939847009E+02 0.  0.
         23    2    1    2    0    0  0.76182431518E+02  0.47436149918E+02  0.23258967734E+03  0.26532756429E+03  0.90811933005E+02 0.  0.
        -11    1    4    4    0    0  0.40725234077E+01  0.34306223551E+02  0.15414641992E+03  0.15797031745E+03  0.00000000000E+00 0. -1.
         11    1    4    4    0    0  0.72109908110E+02  0.13129926367E+02  0.78443257412E+02  0.10735724683E+03  0.00000000000E+00 0.  1.
        -11    1    3    3    0    0  0.17992913937E+02 -0.25776498389E+02  0.14517823108E+03  0.14854255822E+03  0.00000000000E+00 0.  1.
         11    1    3    3    0    0 -0.85153721739E+02 -0.56034678509E+02  0.22297415209E+03  0.24517037754E+03  0.00000000000E+00 0. -1.
         21    1    1    2  503  502 -0.25841531333E+02 -0.18807237772E+02 -0.89745125747E+01  0.33196969894E+02  0.00000000000E+00 0. -1.
          1    1    1    2  501    0  0.16819907617E+02  0.53182264752E+02  0.79557637600E+02  0.97163163168E+02  0.00000000000E+00 0. -1.
<scales pt_clust_5="13000.00000" pt_clust_6="13000.00000" pt_clust_7="13000.00000" pt_clust_8="13000.00000" pt_clust_9="31.96087" pt_clust_10="13000.00000"></scales>
<clustering>
<clus scale="   31.961">  2  9  1 -1</clus>
<clus scale="   90.812">  5  6 -1 -1</clus>
<clus scale="   50.006">  5 10 -1 -1</clus>
<clus scale="   90.940">  7  8 -1 -1</clus>
<clus scale="  147.630">  1  7  2 -1</clus>
<clus scale="   31.961">  2  5  1 -1</clus>
</clustering>
</event>
<event>
10    2  0.5921424E-006  0.1792176E+03  0.7546771E-02  0.1178305E+00
         21   -1    0    0  503  502  0.00000000000E+00  0.00000000000E+00  0.15596079783E+03  0.15596079783E+03  0.00000000000E+00 0. -1.
          3   -1    0    0  502    0 -0.00000000000E+00 -0.00000000000E+00 -0.42136835128E+03  0.42136835128E+03  0.00000000000E+00 0. -1.
         23    2    1    2    0    0  0.95479328296E+02  0.43624539516E+02 -0.26867787573E+03  0.30309133525E+03  0.93043828472E+02 0.  0.
         23    2    1    2    0    0 -0.51827308092E+02 -0.48229985121E+02 -0.50199505482E+02  0.12364375850E+03  0.88065812530E+02 0.  0.
        -11    1    3    3    0    0 -0.16519617773E+02  0.13910530675E+02 -0.68176001308E+02  0.71514808182E+02  0.00000000000E+00 0.  1.
         11    1    3    3    0    0  0.11199894607E+03  0.29714008841E+02 -0.20050187443E+03  0.23157652707E+03  0.00000000000E+00 0. -1.
        -13    1    4    4    0    0 -0.27049812980E+02 -0.68653239055E+02 -0.53817835344E+02  0.91330821830E+02  0.00000000000E+00 0.  1.
         13    1    4    4    0    0 -0.24777495111E+02  0.20423253934E+02  0.36183298623E+01  0.32312936670E+02  0.00000000000E+00 0. -1.
         21    1    1    2  503  501  0.30977475349E+02 -0.15236595789E+02  0.63941103793E+02  0.72665140091E+02  0.00000000000E+00 0. -1.
          3    1    1    2  501    0 -0.74629495553E+02  0.19842041393E+02 -0.10471276027E+02  0.77928915268E+02  0.00000000000E+00 0. -1.
<scales pt_clust_5="13000.00000" pt_clust_6="13000.00000" pt_clust_7="13000.00000" pt_clust_8="13000.00000" pt_clust_9="34.52185" pt_clust_10="13000.00000"></scales>
<clustering>
<clus scale="   34.522">  1  9  2 -1</clus>
<clus scale="   88.066">  7  8 -1 -1</clus>
<clus scale="   64.249">  7 10 -1 -1</clus>
<clus scale="   93.044">  5  6 -1 -1</clus>
<clus scale="  143.606">  2  5  1 -1</clus>
<clus scale="   34.522">  1  5  2 -1</clus>
</clustering>
</event>
<event>
10    2  0.5921424E-006  0.1997572E+03  0.7546771E-02  0.1176207E+00
         21   -1    0    0  503  502  0.00000000000E+00  0.00000000000E+00  0.57891996181E+02  0.57891996181E+02  0.00000000000E+00 0.  1.
          1   -1    0    0  502    0 -0.00000000000E+00 -0.00000000000E+00 -0.70536984284E+03  0.70536984284E+03  0.00000000000E+00 0. -1.
         23    2    1    2    0    0  0.68597316219E+02  0.24238741303E+02 -0.28498849579E+03  0.30671132624E+03  0.86949908197E+02 0.  0.
         23    2    1    2    0    0 -0.11708565884E+02  0.71103168859E+02 -0.29973350749E+03  0.32089862113E+03  0.89123500823E+02 0.  0.
        -13    1    3    3    0    0  0.47914382086E+02 -0.22815253049E+02 -0.20399779949E+03  0.21078763242E+03  0.00000000000E+00 0. -1.
         13    1    3    3    0    0  0.20682934133E+02  0.47053994352E+02 -0.80990696301E+02  0.95923693820E+02  0.00000000000E+00 0.  1.
        -13    1    4    4    0    0  0.11812670272E+02 -0.16243805994E+02 -0.94552370091E+02  0.96662045819E+02  0.00000000000E+00 0. -1.
         13    1    4    4    0    0 -0.23521236156E+02  0.87346974852E+02 -0.20518113739E+03  0.22423657531E+03  0.00000000000E+00 0.  1.
         21    1    1    2  503  501 -0.14001526606E+02 -0.45115529120E+02 -0.42665084407E+01  0.47430547217E+02  0.00000000000E+00 0.  1.
          1    1    1    2  501    0 -0.42887223729E+02 -0.50226381042E+02 -0.58489334940E+02  0.88221344433E+02  0.00000000000E+00 0. -1.
<scales pt_clust_5="13000.00000" pt_clust_6="13000.00000" pt_clust_7="13000.00000" pt_clust_8="13000.00000" pt_clust_9="47.23827" pt_clust_10="13000.00000"></scales>
<clustering>
<clus scale="   47.238">  1  9  2 -1</clus>
<clus scale="   86.950">  5  6 -1 -1</clus>
<clus scale="   89.124">  7  8 -1 -1</clus>
<clus scale="   84.162">  7 10 -1 -1</clus>
<clus scale="  108.739">  2  5  1 -1</clus>
<clus scale="   47.238">  1  5  2 -1</clus>
</clustering>
</event>
<event>
10    2  0.5921424E-006  0.3521568E+03  0.7546771E-02  0.1101110E+00
         21   -1    0    0  503  502  0.00000000000E+00  0.00000000000E+00  0.67819491907E+03  0.67819491907E+03  0.00000000000E+00 0. -1.
          1   -1    0    0  502    0 -0.00000000000E+00 -0.00000000000E+00 -0.10391529080E+03  0.10391529080E+03  0.00000000000E+00 0. -1.
         23    2    1    2    0    0  0.13016523540E+02 -0.75322505935E+02  0.16123383697E+03  0.20115150821E+03  0.92858329111E+02 0.  0.
         23    2    1    2    0    0 -0.68188677798E+01 -0.11244420999E+03  0.16299496888E+03  0.22119905069E+03  0.98343595756E+02 0.  0.
        -11    1    4    4    0    0  0.14904500166E+02 -0.12266596208E+03  0.12172149072E+03  0.17345086821E+03  0.00000000000E+00 0. -1.
         11    1    4    4    0    0 -0.21723367946E+02  0.10221752091E+02  0.41273478156E+02  0.47748182477E+02  0.00000000000E+00 0.  1.
        -13    1    3    3    0    0 -0.38169653054E+02 -0.45146044698E+02  0.97437705890E+02  0.11397014651E+03  0.00000000000E+00 0. -1.
         13    1    3    3    0    0  0.51186176594E+02 -0.30176461237E+02  0.63796131081E+02  0.87181361701E+02  0.00000000000E+00 0.  1.
         21    1    1    2  503  501 -0.17914196240E+02 -0.11790405085E+02  0.11857277466E+03  0.12049661808E+03  0.00000000000E+00 0. -1.
          1    1    1    2  501    0  0.11716540480E+02  0.19955712101E+03  0.13147804776E+03  0.23926303289E+03  0.00000000000E+00 0. -1.
<scales pt_clust_5="13000.00000" pt_clust_6="13000.00000" pt_clust_7="13000.00000" pt_clust_8="13000.00000" pt_clust_9="21.44603" pt_clust_10="13000.00000"></scales>
<clustering>
<clus scale="   21.446">  1  9  2 -1</clus>
<clus scale="   92.858">  7  8 -1 -1</clus>
<clus scale="   98.344">  5  6 -1 -1</clus>
<clus scale="  122.224">  2  7  1 -1</clus>
<clus scale="  146.462">  5 10 -1 -1</clus>
<clus scale="   21.446">  1  5  2 -1</clus>
</clustering>
</event>
<event>
10    2  0.5921424E-006  0.3304763E+03  0.7546771E-02  0.1080888E+00
         21   -1    0    0  501  502  0.00000000000E+00  0.00000000000E+00  0.51456711106E+03  0.51456711106E+03  0.00000000000E+00 0. -1.
          2   -1    0    0  503    0 -0.00000000000E+00 -0.00000000000E+00 -0.29594368960E+03  0.29594368960E+03  0.00000000000E+00 0. -1.
         23    2    1    2    0    0 -0.19915120334E+03  0.10698282710E+03 -0.11676028929E+03  0.26986311709E+03  0.89925578814E+02 0.  0.
         23    2    1    2    0    0  0.53301790743E+02 -0.20354794491E+02  0.86091616562E+01  0.10590015103E+03  0.88799356802E+02 0.  0.
        -13    1    3    3    0    0 -0.86889200200E+01  0.19590688881E+02  0.11349504112E+02  0.24250848759E+02  0.00000000000E+00 0.  1.
         13    1    3    3    0    0 -0.19046228332E+03  0.87392138221E+02 -0.12810979340E+03  0.24561226833E+03  0.00000000000E+00 0. -1.
        -13    1    4    4    0    0  0.70455214901E+02  0.80615830756E+01  0.13969586436E+02  0.72277768184E+02  0.00000000000E+00 0.  1.
         13    1    4    4    0    0 -0.17153424159E+02 -0.28416377566E+02 -0.53604247801E+01  0.33622382845E+02  0.00000000000E+00 0. -1.
         21    1    1    2  503  502 -0.56685217445E+02  0.13777705667E+02  0.46056305205E+02  0.74325112173E+02  0.00000000000E+00 0.  1.
          2    1    1    2  501    0  0.20253463005E+03 -0.10040573828E+03  0.28071824390E+03  0.36042242037E+03  0.00000000000E+00 0. -1.
<scales pt_clust_5="13000.00000" pt_clust_6="13000.00000" pt_clust_7="13000.00000" pt_clust_8="13000.00000" pt_clust_9="58.33557" pt_clust_10="13000.00000"></scales>
<clustering>
<clus scale="   58.336">  1  9  2 -1</clus>
<clus scale="   88.799">  7  8 -1 -1</clus>
<clus scale="   89.926">  5  6 -1 -1</clus>
<clus scale="  186.129">  7 10 -1 -1</clus>
<clus scale="  252.171">  2  5  1 -1</clus>
<clus scale="   58.336">  1  5  2 -1</clus>
</clustering>
</event>
<event>
10    2  0.5921424E-006  0.1764305E+03  0.7546771E-02  0.1190440E+00
          1   -1    0    0  503    0 -0.00000000000E+00  0.00000000000E+00  0.18052698219E+03  0.18052698219E+03  0.00000000000E+00 0. -1.
         21   -1    0    0  501  502  0.00000000000E+00 -0.00000000000E+00 -0.17700585728E+03  0.17700585728E+03  0.00000000000E+00 0.  1.
         23    2    1    2    0    0 -0.26011187665E+02 -0.47934534092E+02 -0.31325520609E+01  0.10873484456E+03  0.94016764979E+02 0.  0.
         23    2    1    2    0    0  0.12049068432E+02  0.17239530496E+02  0.86157444714E+02  0.12578495432E+03  0.89198475278E+02 0.  0.
        -13    1    4    4    0    0 -0.29471195179E+02  0.25478841127E+02  0.12649354667E+02  0.40960088671E+02  0.00000000000E+00 0.  1.
         13    1    4    4    0    0  0.41520263611E+02 -0.82393106315E+01  0.73508090046E+02  0.84824865648E+02  0.00000000000E+00 0. -1.
        -13    1    3    3    0    0 -0.42857275030E+02 -0.78401318908E+01 -0.34116547964E+02  0.55336719599E+02  0.00000000000E+00 0.  1.
         13    1    3    3    0    0  0.16846087365E+02 -0.40094402202E+02  0.30983995903E+02  0.53398124963E+02  0.00000000000E+00 0. -1.
         21    1    1    2  503  502 -0.21241943790E+02 -0.16366465097E+02 -0.51164172068E+02  0.57765507520E+02  0.00000000000E+00 0.  1.
          1    1    1    2  501    0  0.35204063023E+02  0.47061468693E+02 -0.28339595674E+02  0.65247533071E+02  0.00000000000E+00 0. -1.
<scales pt_clust_5="13000.00000" pt_clust_6="13000.00000" pt_clust_7="13000.00000" pt_clust_8="13000.00000" pt_clust_9="26.81569" pt_clust_10="13000.00000"></scales>
<clustering>
<clus scale="   26.816">  2  9  1 -1</clus>
<clus scale="   89.198">  5  6 -1 -1</clus>
<clus scale="   48.986">  5 10 -1 -1</clus>
<clus scale="   94.017">  7  8 -1 -1</clus>
<clus scale="  114.821">  1  7  2 -1</clus>
<clus scale="   26.816">  2  5  1 -1</clus>
</clustering>
</event>
<event>
10    2  0.5921424E-006  0.5345605E+03  0.7546771E-02  0.1020670E+00
         21   -1    0    0  501  502  0.00000000000E+00  0.00000000000E+00  0.14065854208E+03  0.14065854208E+03  0.00000000000E+00 0. -1.
          2   -1    0    0  503    0 -0.00000000000E+00 -0.00000000000E+00 -0.18721466698E+04  0.18721466698E+04  0.00000000000E+00 0. -1.
         23    2    1    2    0    0  0.27100704684E+03 -0.17098218077E+03 -0.11884323166E+04  0.12342561167E+04  0.91307529007E+02 0.  0.
         23    2    1    2    0    0 -0.49982414376E+02  0.48341906002E+02 -0.49199945392E+03  0.50509181982E+03  0.90659264098E+02 0.  0.
        -11    1    3    3    0    0  0.24763989156E+02  0.10687821267E+02 -0.10898953780E+03  0.11227735316E+03  0.00000000000E+00 0.  1.
         11    1    3    3    0    0  0.24624305769E+03 -0.18167000204E+03 -0.10794427788E+04  0.11219787636E+04  0.00000000000E+00 0. -1.
        -13    1    4    4    0    0  0.24344009284E+02  0.28138747965E+02 -0.15541299516E+03  0.15980494045E+03  0.00000000000E+00 0. -1.
         13    1    4    4    0    0 -0.74326423660E+02  0.20203158038E+02 -0.33658645875E+03  0.34528687937E+03  0.00000000000E+00 0.  1.
         21    1    1    2  503  502 -0.19683455739E+02 -0.14484523095E+02 -0.10071698965E+02  0.26432535996E+02  0.00000000000E+00 0. -1.
          2    1    1    2  501    0 -0.20134117673E+03  0.13712479787E+03 -0.40984658185E+02  0.24702473933E+03  0.00000000000E+00 0. -1.
<scales pt_clust_5="13000.00000" pt_clust_6="13000.00000" pt_clust_7="13000.00000" pt_clust_8="13000.00000" pt_clust_9="24.43849" pt_clust_10="13000.00000"></scales>
<clustering>
<clus scale="   24.438">  1  9  2 -1</clus>
<clus scale="   90.659">  7  8 -1 -1</clus>
<clus scale="   91.308">  5  6 -1 -1</clus>
<clus scale="  250.554">  7 10 -1 -1</clus>
<clus scale="  331.732">  2  5  1 -1</clus>
<clus scale="   24.438">  1  5  2 -1</clus>
</clustering>
</event>
<event>
10    2  0.5921424E-006  0.5800215E+03  0.7546771E-02  0.1046031E+00
          3   -1    0    0  503    0 -0.00000000000E+00  0.00000000000E+00  0.41267202817E+03  0.41267202817E+03  0.00000000000E+00 0. -1.
         21   -1    0    0  501  502  0.00000000000E+00 -0.00000000000E+00 -0.48162216543E+03  0.48162216543E+03  0.00000000000E+00 0.  1.
         23    2    1    2    0    0 -0.56315115580E+02  0.60241267544E+02  0.18623191553E+02  0.12435532780E+03  0.91197706826E+02 0.  0.
         23    2    1    2    0    0  0.14255328091E+03  0.16618797668E+03 -0.19907083359E+03  0.30978829598E+03  0.91649932072E+02 0.  0.
        -11    1    4    4    0    0  0.66146066316E+02  0.11410034338E+03 -0.65302473445E+02  0.14716862263E+03  0.00000000000E+00 0.  1.
         11    1    4    4    0    0  0.76407214593E+02  0.52087633298E+02 -0.13376836014E+03  0.16261967335E+03  0.00000000000E+00 0. -1.
        -11    1    3    3    0    0 -0.66284175173E+02  0.58239326842E+01  0.18381695641E+02  0.69031853553E+02  0.00000000000E+00 0. -1.
         11    1    3    3    0    0  0.99690595927E+01  0.54417334860E+02  0.24149591203E+00  0.55323474246E+02  0.00000000000E+00 0.  1.
         21    1    1    2  503  502  0.14705543627E+03 -0.74065187693E+02  0.67964801363E+02  0.17812963703E+03  0.00000000000E+00 0.  1.
          3    1    1    2  501    0 -0.23329360159E+03 -0.15236405653E+03  0.43532703415E+02  0.28202093279E+03  0.00000000000E+00 0. -1.
<scales pt_clust_5="13000.00000" pt_clust_6="13000.00000" pt_clust_7="13000.00000" pt_clust_8="13000.00000" pt_clust_9="137.12703" pt_clust_10="13000.00000"></scales>
<clustering>
<clus scale="   91.198">  7  8 -1 -1</clus>
<clus scale="   91.650">  5  6 -1 -1</clus>
<clus scale="  122.953">  1  7  2 -1</clus>
<clus scale="  137.127">  2  9  1 -1</clus>
<clus scale="  257.725">  5 10 -1 -1</clus>
<clus scale="  137.127">  2  5  1 -1</clus>
</clustering>
</event>
<event>
10    2  0.5921424E-006  0.5475394E+03  0.7546771E-02  0.1050333E+00
         21   -1    0    0  501  502  0.00000000000E+00  0.00000000000E+00  0.35811235106E+03  0.35811235106E+03  0.00000000000E+00 0.  1.
         -3   -1    0    0    0  501 -0.00000000000E+00 -0.00000000000E+00 -0.39742042951E+03  0.39742042951E+03  0.00000000000E+00 0.  1.
         23    2    1    2    0    0  0.36281192323E+02  0.78299388862E+02  0.41423311598E+01  0.12910383368E+03  0.95934987111E+02 0.  0.
         23    2    1    2    0    0  0.42663601248E+02 -0.17971275135E+03 -0.26441288353E+03  0.33505101293E+03  0.90709163918E+02 0.  0.
        -11    1    4    4    0    0 -0.14161061068E+02 -0.11042913714E+03 -0.10992097837E+03  0.15645367195E+03  0.00000000000E+00 0. -1.
         11    1    4    4    0    0  0.56824662316E+02 -0.69283614209E+02 -0.15449190516E+03  0.17859734098E+03  0.00000000000E+00 0.  1.
        -13    1    3    3    0    0  0.62663162992E+02  0.70876975157E+02  0.21026646773E+02  0.96914072652E+02  0.00000000000E+00 0.  1.
         13    1    3    3    0    0 -0.26381970669E+02  0.74224137052E+01 -0.16884315613E+02  0.32189761032E+02  0.00000000000E+00 0. -1.
         21    1    1    2  503  502  0.27275717550E+02 -0.12634181334E+02  0.61223962700E+02  0.68205285092E+02  0.00000000000E+00 0.  1.
         -3    1    1    2    0  503 -0.10622051112E+03  0.11404754382E+03  0.15973851123E+03  0.22317264887E+03  0.00000000000E+00 0.  1.
<scales pt_clust_5="13000.00000" pt_clust_6="13000.00000" pt_clust_7="13000.00000" pt_clust_8="13000.00000" pt_clust_9="30.05973" pt_clust_10="13000.00000"></scales>
<clustering>
<clus scale="   30.060">  1  9  2 -1</clus>
<clus scale="   90.709">  5  6 -1 -1</clus>
<clus scale="   95.935">  7  8 -1 -1</clus>
<clus scale="  129.218">  2  7  1 -1</clus>
<clus scale="  140.591">  5 10 -1 -1</clus>
<clus scale="   30.060">  1  5  2 -1</clus>
</clustering>
</event>
<event>
10    2  0.5921424E-006  0.1884623E+03  0.7546771E-02  0.1189215E+00
         21   -1    0    0  501  502  0.00000000000E+00  0.00000000000E+00  0.74782111424E+02  0.74782111424E+02  0.00000000000E+00 0. -1.
         -3   -1    0    0    0  501 -0.00000000000E+00 -0.00000000000E+00 -0.43057034021E+03  0.43057034021E+03  0.00000000000E+00 0.  1.
         23    2    1    2    0    0  0.38502863801E+01  0.40535496852E+02 -0.22016320090E+03  0.24126028710E+03  0.89870684268E+02 0.  0.
         23    2    1    2    0    0 -0.28038083266E+00  0.40402299343E+02 -0.22150200644E+02  0.10245652092E+03  0.91511107983E+02 0.  0.
        -11    1    4    4    0    0  0.40544794681E+02 -0.26907447261E+00 -0.18910136269E+02  0.44738641357E+02  0.00000000000E+00 0.  1.
         11    1    4    4    0    0 -0.40825175513E+02  0.40671373815E+02 -0.32400643749E+01  0.57717879560E+02  0.00000000000E+00 0. -1.
        -13    1    3    3    0    0  0.18726573555E+01 -0.28447820484E+02 -0.82114576248E+02  0.86922890933E+02  0.00000000000E+00 0.  1.
         13    1    3    3    0    0  0.19776290246E+01  0.68983317336E+02 -0.13804862465E+03  0.15433739616E+03  0.00000000000E+00 0. -1.
         21    1    1    2  503  502  0.12588076139E+02 -0.27705054696E+02  0.49165847031E+01  0.30825355176E+02  0.00000000000E+00 0. -1.
         -3    1    1    2    0  503 -0.16157981687E+02 -0.53232741499E+02 -0.11839141195E+03  0.13081028845E+03  0.00000000000E+00 0.  1.
<scales pt_clust_5="13000.00000" pt_clust_6="13000.00000" pt_clust_7="13000.00000" pt_clust_8="13000.00000" pt_clust_9="30.43074" pt_clust_10="13000.00000"></scales>
<clustering>
<clus scale="   30.431">  1  9  2 -1</clus>
<clus scale="   89.871">  7  8 -1 -1</clus>
<clus scale="   91.511">  5  6 -1 -1</clus>
<clus scale="   58.166">  5 10 -1 -1</clus>
<clus scale="   96.789">  2  7  1 -1</clus>
<clus scale="   30.431">  1  5  2 -1</clus>
</clustering>
</event>
<event>
10    2  0.5921424E-006  0.2026162E+03  0.7546771E-02  0.1166916E+00
         21   -1    0    0  503  502  0.00000000000E+00  0.00000000000E+00  0.49808765069E+03  0.49808765069E+03  0.00000000000E+00 0.  1.
          1   -1    0    0  502    0 -0.00000000000E+00 -0.00000000000E+00 -0.31794379479E+03  0.31794379479E+03  0.00000000000E+00 0. -1.
         23    2    1    2    0    0  0.98009364633E+02  0.71941482010E+02 -0.11612212610E+03  0.19089218308E+03  0.90410535902E+02 0.  0.
         23    2    1    2    0    0 -0.56988549677E+02 -0.61912670847E+02 -0.12143231296E+03  0.17355924352E+03  0.91083098185E+02 0.  0.
        -13    1    3    3    0    0  0.39076211180E+02  0.35645869930E+02 -0.10919799887E+03  0.12133334777E+03  0.00000000000E+00 0. -1.
         13    1    3    3    0    0  0.58933153453E+02  0.36295612081E+02 -0.69241272293E+01  0.69558835313E+02  0.00000000000E+00 0.  1.
        -13    1    4    4    0    0 -0.29735393694E+02 -0.78005563095E+02 -0.54992981907E+02  0.99966442224E+02  0.00000000000E+00 0. -1.
         13    1    4    4    0    0 -0.27253155983E+02  0.16092892249E+02 -0.66439331051E+02  0.73592801295E+02  0.00000000000E+00 0.  1.
         21    1    1    2  503  501 -0.57186217701E+02 -0.45783060083E+02  0.40311781332E+03  0.40971981097E+03  0.00000000000E+00 0.  1.
          1    1    1    2  501    0  0.16165402745E+02  0.35754248919E+02  0.14580481643E+02  0.41860207914E+02  0.00000000000E+00 0. -1.
<scales pt_clust_5="13000.00000" pt_clust_6="13000.00000" pt_clust_7="13000.00000" pt_clust_8="13000.00000" pt_clust_9="73.25539" pt_clust_10="13000.00000"></scales>
<clustering>
<clus scale="   73.255">  1  9  2 -1</clus>
<clus scale="   90.411">  5  6 -1 -1</clus>
<clus scale="   91.083">  7  8 -1 -1</clus>
<clus scale="   21.708">  7 10 -1 -1</clus>
<clus scale="  128.802">  2  5  1 -1</clus>
<clus scale="   73.255">  1  5  2 -1</clus>
</clustering>
</event>
<event>
10    2  0.5921424E-006  0.5486610E+03  0.7546771E-02  0.1055332E+00
          2   -1    0    0  502    0 -0.00000000000E+00  0.00000000000E+00  0.19566811361E+04  0.19566811361E+04  0.00000000000E+00 0. -1.
         21   -1    0    0  503  502  0.00000000000E+00 -0.00000000000E+00 -0.94744331024E+02  0.94744331024E+02  0.00000000000E+00 0. -1.
         23    2    1    2    0    0  0.19984163798E+02 -0.59528774236E+02  0.26938407867E+03  0.29152625426E+03  0.92069176829E+02 0.  0.
         23    2    1    2    0    0 -0.24466569459E+03 -0.15332753153E+03  0.12852506004E+04  0.13203507213E+04  0.89923786687E+02 0.  0.
        -13    1    3    3    0    0 -0.25301249763E+02  0.74273526841E+01  0.36617766814E+02  0.45124047402E+02  0.00000000000E+00 0.  1.
         13    1    3    3    0    0  0.45285413561E+02 -0.66956126920E+02  0.23276631185E+03  0.24640220686E+03  0.00000000000E+00 0. -1.
        -13    1    4    4    0    0 -0.22548894281E+03 -0.11009113633E+03  0.11503123731E+04  0.11773631035E+04  0.00000000000E+00 0. -1.
         13    1    4    4    0    0 -0.19176751774E+02 -0.43236395202E+02  0.13493822725E+03  0.14298761783E+03  0.00000000000E+00 0.  1.
         21    1    1    2  503  501  0.93037291363E+02  0.10857134103E+03  0.10968436441E+03  0.18020636357E+03  0.00000000000E+00 0. -1.
          2    1    1    2  501    0  0.13164423943E+03  0.10428496474E+03  0.19761776164E+03  0.25934212801E+03  0.00000000000E+00 0. -1.
<scales pt_clust_5="13000.00000" pt_clust_6="13000.00000" pt_clust_7="13000.00000" pt_clust_8="13000.00000" pt_clust_9="140.27457" pt_clust_10="13000.00000"></scales>
<clustering>
<clus scale="   89.924">  7  8 -1 -1</clus>
<clus scale="   92.069">  5  6 -1 -1</clus>
<clus scale="  111.444">  1  5  2 -1</clus>
<clus scale="  140.275">  2  9  1 -1</clus>
<clus scale="  242.541">  7 10 -1 -1</clus>
<clus scale="  140.275">  2  5  1 -1</clus>
</clustering>
</event>
<event>
10    2  0.5921424E-006  0.3057485E+03  0.7546771E-02  0.1118287E+00
          2   -1    0    0  503    0 -0.00000000000E+00  0.00000000000E+00  0.12890396952E+04  0.12890396952E+04  0.00000000000E+00 0. -1.
         21   -1    0    0  501  502  0.00000000000E+00 -0.00000000000E+00 -0.82826208482E+02  0.82826208482E+02  0.00000000000E+00 0. -1.
         23    2    1    2    0    0  0.67017318823E+02 -0.42321413566E+02  0.42592035785E+02  0.12784597297E+03  0.90818986027E+02 0.  0.
         23    2    1    2    0    0 -0.39005309593E+02  0.27722913850E+02  0.58646925588E+03  0.59556214826E+03  0.91967984761E+02 0.  0.
        -11    1    3    3    0    0  0.86154978377E+02 -0.20729075364E+02  0.44045930777E+02  0.98956651533E+02  0.00000000000E+00 0.  1.
         11    1    3    3    0    0 -0.19137659554E+02 -0.21592338202E+02 -0.14538949924E+01  0.28889321434E+02  0.00000000000E+00 0. -1.
        -13    1    4    4    0    0 -0.62048724357E+02  0.43467061529E+02  0.43131023766E+03  0.43791317718E+03  0.00000000000E+00 0. -1.
         13    1    4    4    0    0  0.23043414764E+02 -0.15744147679E+02  0.15515901822E+03  0.15764897109E+03  0.00000000000E+00 0.  1.
         21    1    1    2  503  502 -0.12607586039E+03  0.35807572020E+02  0.51275043504E+03  0.52923559349E+03  0.00000000000E+00 0. -1.
          2    1    1    2  501    0  0.98063851160E+02 -0.21209072304E+02  0.64401760056E+02  0.11922218900E+03  0.00000000000E+00 0. -1.
<scales pt_clust_5="13000.00000" pt_clust_6="13000.00000" pt_clust_7="13000.00000" pt_clust_8="13000.00000" pt_clust_9="98.63529" pt_clust_10="13000.00000"></scales>
<clustering>
<clus scale="   90.819">  5  6 -1 -1</clus>
<clus scale="   91.968">  7  8 -1 -1</clus>
<clus scale="  100.331">  7 10 -1 -1</clus>
<clus scale="  120.543">  1  5  2 -1</clus>
<clus scale="   98.635">  2  9  1 -1</clus>
<clus scale="   98.635">  2  5  1 -1</clus>
</clustering>
</event>
<event>
10    2  0.5921424E-006  0.4912151E+03  0.7546771E-02  0.1037481E+00
         21   -1    0    0  501  502  0.00000000000E+00  0.00000000000E+00  0.79686391177E+03  0.79686391177E+03  0.00000000000E+00 0. -1.
          1   -1    0    0  503    0 -0.00000000000E+00 -0.00000000000E+00 -0.35743662076E+03  0.35743662076E+03  0.00000000000E+00 0. -1.
         23    2    1    2    0    0 -0.28658946222E+02 -0.22381728663E+03 -0.82818490390E+02  0.25728851900E+03  0.91776721831E+02 0.  0.
         23    2    1    2    0    0 -0.62292392551E+02  0.39755027622E+02 -0.88581934924E+02  0.14487736696E+03  0.87646379688E+02 0.  0.
        -13    1    4    4    0    0 -0.64863408057E+02  0.62860859237E+02 -0.61967067429E+02  0.10953842602E+03  0.00000000000E+00 0. -1.
         13    1    4    4    0    0  0.25710155059E+01 -0.23105831615E+02 -0.26614867495E+02  0.35338940945E+02  0.00000000000E+00 0.  1.
        -13    1    3    3    0    0 -0.52789613391E+02 -0.11563100653E+03 -0.16652367982E+02  0.12819740369E+03  0.00000000000E+00 0. -1.
         13    1    3    3    0    0  0.24130667169E+02 -0.10818628010E+03 -0.66166122408E+02  0.12909111532E+03  0.00000000000E+00 0.  1.
         21    1    1    2  503  502 -0.44158903623E+02 -0.88915446253E+02  0.30399277395E+03  0.31979301426E+03  0.00000000000E+00 0. -1.
          1    1    1    2  501    0  0.13511024240E+03  0.27297770526E+03  0.30683494237E+03  0.43234163231E+03  0.00000000000E+00 0. -1.
<scales pt_clust_5="13000.00000" pt_clust_6="13000.00000" pt_clust_7="13000.00000" pt_clust_8="13000.00000" pt_clust_9="99.27721" pt_clust_10="13000.00000"></scales>
<clustering>
<clus scale="   87.646">  5  6 -1 -1</clus>
<clus scale="   91.777">  7  8 -1 -1</clus>
<clus scale="   99.277">  1  9  2 -1</clus>
<clus scale="  228.927">  5 10 -1 -1</clus>
<clus scale="  259.369">  2  7  1 -1</clus>
<clus scale="   99.277">  1  5  2 -1</clus>
</clustering>
</event>
<event>
10    2  0.5921424E-006  0.3670272E+03  0.7546771E-02  0.1106294E+00
         -1   -1    0    0    0  501 -0.00000000000E+00  0.00000000000E+00  0.38315516594E+03  0.38315516594E+03  0.00000000000E+00 0.  1.
         21   -1    0    0  501  502  0.00000000000E+00 -0.00000000000E+00 -0.16381417367E+03  0.16381417367E+03  0.00000000000E+00 0.  1.
         23    2    1    2    0    0  0.26488446692E+02 -0.73468029021E+01  0.78754926427E+02  0.12365689089E+03  0.91285677451E+02 0.  0.
         23    2    1    2    0    0  0.80196082333E+02 -0.15255580624E+03  0.11893894935E+03  0.22679287135E+03  0.87085286827E+02 0.  0.
        -11    1    4    4    0    0 -0.98441703024E+01 -0.50289538808E+02  0.97002265249E+01  0.52154000777E+02  0.00000000000E+00 0. -1.
         11    1    4    4    0    0  0.90040252635E+02 -0.10226626744E+03  0.10923872282E+03  0.17463887057E+03  0.00000000000E+00 0.  1.
        -13    1    3    3    0    0  0.60602754271E+02 -0.77346448206E+01  0.53526694538E+02  0.81225769211E+02  0.00000000000E+00 0.  1.
         13    1    3    3    0    0 -0.34114307579E+02  0.38784191849E+00  0.25228231889E+02  0.42431121682E+02  0.00000000000E+00 0. -1.
         21    1    1    2  503  502 -0.16767749420E+02  0.20066034911E+02 -0.86249022280E+01  0.27535288561E+02  0.00000000000E+00 0. -1.
         -1    1    1    2    0  503 -0.89916779604E+02  0.13983657423E+03  0.30272018719E+02  0.16898428881E+03  0.00000000000E+00 0.  1.
<scales pt_clust_5="13000.00000" pt_clust_6="13000.00000" pt_clust_7="13000.00000" pt_clust_8="13000.00000" pt_clust_9="26.14963" pt_clust_10="13000.00000"></scales>
<clustering>
<clus scale="   26.150">  2  9  1 -1</clus>
<clus scale="   87.085">  5  6 -1 -1</clus>
<clus scale="   91.286">  7  8 -1 -1</clus>
<clus scale="   94.460">  1  7  2 -1</clus>
<clus scale="  171.701">  5 10 -1 -1</clus>
<clus scale="   26.150">  2  5  1 -1</clus>
</clustering>
</event>
<event>
10    2  0.5921424E-006  0.1555568E+03  0.7546771E-02  0.1204573E+00
          2   -1    0    0  502    0 -0.00000000000E+00  0.00000000000E+00  0.29060420194E+03  0.29060420194E+03  0.00000000000E+00 0. -1.
         21   -1    0    0  503  502  0.00000000000E+00 -0.00000000000E+00 -0.12099927867E+03  0.12099927867E+03  0.00000000000E+00 0.  1.
         23    2    1    2    0    0  0.69771040577E+01  0.70972158778E+02  0.94236220534E+02  0.14941487232E+03  0.91425442337E+02 0.  0.
         23    2    1    2    0    0 -0.51839461154E+02 -0.53310823046E+02  0.11040748587E+03  0.16116206051E+03  0.90851655035E+02 0.  0.
        -11    1    3    3    0    0 -0.38550406998E+02  0.34494543339E+02  0.68021549810E+02  0.85457232804E+02  0.00000000000E+00 0. -1.
         11    1    3    3    0    0  0.45527511056E+02  0.36477615440E+02  0.26214670724E+02  0.63957639515E+02  0.00000000000E+00 0.  1.
        -13    1    4    4    0    0 -0.54641801505E+02  0.28498125629E+01  0.80882263418E+02  0.97651361685E+02  0.00000000000E+00 0.  1.
         13    1    4    4    0    0  0.28023403515E+01 -0.56160635609E+02  0.29525222457E+02  0.63510698820E+02  0.00000000000E+00 0. -1.
         21    1    1    2  503  501  0.33627677011E+02  0.23072333410E+02 -0.41611531256E+02  0.58263820366E+02  0.00000000000E+00 0.  1.
          2    1    1    2  501    0  0.11234680085E+02 -0.40733669142E+02  0.65727481188E+01  0.42762727418E+02  0.00000000000E+00 0. -1.
<scales pt_clust_5="13000.00000" pt_clust_6="13000.00000" pt_clust_7="13000.00000" pt_clust_8="13000.00000" pt_clust_9="40.78178" pt_clust_10="13000.00000"></scales>
<clustering>
<clus scale="   40.782">  2  9  1 -1</clus>
<clus scale="   90.852">  7  8 -1 -1</clus>
<clus scale="   40.088">  7 10 -1 -1</clus>
<clus scale="   91.425">  5  6 -1 -1</clus>
<clus scale="  123.080">  1  5  2 -1</clus>
<clus scale="   40.782">  2  5  1 -1</clus>
</clustering>
</event>
<event>
10    2  0.5921424E-006  0.1734808E+03  0.7546771E-02  0.1202266E+00
          1   -1    0    0  503    0 -0.00000000000E+00  0.00000000000E+00  0.56480671729E+03  0.56480671729E+03  0.00000000000E+00 0. -1.
         21   -1    0    0  501  502  0.00000000000E+00 -0.00000000000E+00 -0.56922773170E+02  0.56922773170E+02  0.00000000000E+00 0.  1.
         23    2    1    2    0    0  0.11998409356E+02  0.86755414616E+01  0.27474875292E+03  0.29035508167E+03  0.92736019830E+02 0.  0.
         23    2    1    2    0    0 -0.53455271686E+02 -0.25167289996E+01  0.18046165302E+03  0.20970829041E+03  0.92451927279E+02 0.  0.
        -11    1    3    3    0    0 -0.35317423741E+02 -0.12388519977E+02  0.16218547213E+03  0.16644795949E+03  0.00000000000E+00 0.  1.
         11    1    3    3    0    0  0.47315833096E+02  0.21064061438E+02  0.11256328079E+03  0.12390712218E+03  0.00000000000E+00 0. -1.
        -13    1    4    4    0    0 -0.66987171001E+02 -0.31835092906E+02  0.13345378883E+03  0.15267831533E+03  0.00000000000E+00 0.  1.
         13    1    4    4    0    0  0.13531899315E+02  0.29318363906E+02  0.47007864193E+02  0.57029975076E+02  0.00000000000E+00 0. -1.
         21    1    1    2  503  502 -0.22504627004E+02 -0.70844004565E+01 -0.15461760947E+02  0.28208385597E+02  0.00000000000E+00 0.  1.
          1    1    1    2  501    0  0.63961489335E+02  0.92558799449E+00  0.68135299126E+02  0.93457732789E+02  0.00000000000E+00 0. -1.
<scales pt_clust_5="13000.00000" pt_clust_6="13000.00000" pt_clust_7="13000.00000" pt_clust_8="13000.00000" pt_clust_9="23.59337" pt_clust_10="13000.00000"></scales>
<clustering>
<clus scale="   23.593">  2  9  1 -1</clus>
<clus scale="   92.452">  7  8 -1 -1</clus>
<clus scale="   55.865">  7 10 -1 -1</clus>
<clus scale="   92.736">  5  6 -1 -1</clus>
<clus scale="   93.270">  1  5  2 -1</clus>
<clus scale="   23.593">  2  5  1 -1</clus>
</clustering>
</event>
<event>
10    2  0.5921424E-006  0.2017868E+03  0.7546771E-02  0.1158497E+00
         -1   -1    0    0    0  501 -0.00000000000E+00  0.00000000000E+00  0.48076396548E+03  0.48076396548E+03  0.00000000000E+00 0.  1.
         21   -1    0    0  503  502  0.00000000000E+00 -0.00000000000E+00 -0.15510940267E+03  0.15510940267E+03  0.00000000000E+00 0.  1.
         23    2    1    2    0    0 -0.75077953252E+02 -0.50596345885E+02  0.62634419512E+02  0.14617578282E+03  0.96164440908E+02 0.  0.
         23    2    1    2    0    0  0.51325187798E+02  0.20217270254E+02  0.23071805531E+03  0.25432319751E+03  0.91686721110E+02 0.  0.
        -11    1    3    3    0    0 -0.28045336872E+02 -0.72334636772E+02  0.22929635130E+02  0.80898756259E+02  0.00000000000E+00 0.  1.
         11    1    3    3    0    0 -0.47032616380E+02  0.21738290887E+02  0.39704784382E+02  0.65277026564E+02  0.00000000000E+00 0. -1.
        -11    1    4    4    0    0  0.45509933047E+02  0.55045372488E+02  0.16268548637E+03  0.17767305511E+03  0.00000000000E+00 0.  1.
         11    1    4    4    0    0  0.58152547507E+01 -0.34828102234E+02  0.68032568942E+02  0.76650142400E+02  0.00000000000E+00 0. -1.
         21    1    1    2  503  501 -0.76025373604E+02  0.52709984699E+01 -0.60122592609E+02  0.97068877600E+02  0.00000000000E+00 0.  1.
         -1    1    1    2    0  502  0.99778139058E+02  0.25108077161E+02  0.92424680599E+02  0.13830551022E+03  0.00000000000E+00 0.  1.
<scales pt_clust_5="13000.00000" pt_clust_6="13000.00000" pt_clust_7="13000.00000" pt_clust_8="13000.00000" pt_clust_9="76.20788" pt_clust_10="13000.00000"></scales>
<clustering>
<clus scale="   76.208">  2  9  1 -1</clus>
<clus scale="   91.687">  7  8 -1 -1</clus>
<clus scale="   81.479">  7 10 -1 -1</clus>
<clus scale="   96.164">  5  6 -1 -1</clus>
<clus scale="  158.481">  1  5  2 -1</clus>
<clus scale="   76.208">  2  5  1 -1</clus>
</clustering>
</event>
<event>
10    2  0.5921424E-006  0.4840287E+03  0.7546771E-02  0.1061112E+00
         -1   -1    0    0    0  501 -0.00000000000E+00  0.00000000000E+00  0.53381539297E+03  0.53381539297E+03  0.00000000000E+00 0.  1.
         21   -1    0    0  501  502  0.00000000000E+00 -0.00000000000E+00 -0.46166522837E+03  0.46166522837E+03  0.00000000000E+00 0.  1.
         23    2    1    2    0    0 -0.59565400351E+02 -0.85456937437E+02  0.22476614092E+02  0.13981379698E+03  0.90508422644E+02 0.  0.
         23    2    1    2    0    0 -0.17151858144E+03 -0.53392831989E+02  0.38921712514E+02  0.20600010159E+03  0.93014643272E+02 0.  0.
        -11    1    4    4    0    0 -0.76663224195E+02 -0.68400655914E+02  0.39195384791E+02  0.10996443908E+03  0.00000000000E+00 0.  1.
         11    1    4    4    0    0 -0.94855357243E+02  0.15007823925E+02 -0.27367227714E+00  0.96035662507E+02  0.00000000000E+00 0. -1.
        -13    1    3    3    0    0 -0.15329615040E+02 -0.64767347242E+02 -0.25575892407E+02  0.71301701511E+02  0.00000000000E+00 0.  1.
         13    1    3    3    0    0 -0.44235785311E+02 -0.20689590196E+02  0.48052506499E+02  0.68512095467E+02  0.00000000000E+00 0. -1.
         21    1    1    2  503  502  0.65131493025E+01  0.18476587881E+03 -0.24454579364E+03  0.30656727855E+03  0.00000000000E+00 0.  1.
         -1    1    1    2    0  503  0.22457083249E+03 -0.45916109389E+02  0.25529763164E+03  0.34309944423E+03  0.00000000000E+00 0.  1.
<scales pt_clust_5="13000.00000" pt_clust_6="13000.00000" pt_clust_7="13000.00000" pt_clust_8="13000.00000" pt_clust_9="178.92808" pt_clust_10="13000.00000"></scales>
<clustering>
<clus scale="   90.508">  7  8 -1 -1</clus>
<clus scale="   93.015">  5  6 -1 -1</clus>
<clus scale="  137.995">  1  7  2 -1</clus>
<clus scale="  178.928">  2  9  1 -1</clus>
<clus scale="  188.910">  5 10 -1 -1</clus>
<clus scale="  178.928">  2  5  1 -1</clus>
</clustering>
</event>
<event>
10    2  0.5921424E-006  0.1513598E+03  0.7546771E-02  0.1215025E+00
         -1   -1    0    0    0  501 -0.00000000000E+00  0.00000000000E+00  0.79013023463E+03  0.79013023463E+03  0.00000000000E+00 0.  1.
         21   -1    0    0  503  502  0.00000000000E+00 -0.00000000000E+00 -0.51879856450E+02  0.51879856450E+02  0.00000000000E+00 0. -1.
         23    2    1    2    0    0  0.27751710407E+02 -0.40308133972E+02  0.48958097163E+03  0.50075189630E+03  0.93102259766E+02 0.  0.
         23    2    1    2    0    0 -0.49390543295E+02 -0.42787777109E+01  0.17495442420E+03  0.20390941713E+03  0.92261943086E+02 0.  0.
        -11    1    3    3    0    0 -0.16473474941E+02  0.19963764060E+02  0.71516207199E+02  0.76055868572E+02  0.00000000000E+00 0.  1.
         11    1    3    3    0    0  0.44225185348E+02 -0.60271898033E+02  0.41806476443E+03  0.42469602773E+03  0.00000000000E+00 0. -1.
        -11    1    4    4    0    0  0.16824976839E+01  0.25506666341E+02  0.12164208525E+03  0.12429890478E+03  0.00000000000E+00 0.  1.
         11    1    4    4    0    0 -0.51073040979E+02 -0.29785444052E+02  0.53312338952E+02  0.79610512351E+02  0.00000000000E+00 0. -1.
         21    1    1    2  503  501  0.18786927401E+02 -0.73019674211E+01 -0.21128879590E+02  0.29200974677E+02  0.00000000000E+00 0. -1.
         -1    1    1    2    0  502  0.28519054869E+01  0.51888879104E+02  0.94843861949E+02  0.10814780298E+03  0.00000000000E+00 0.  1.
<scales pt_clust_5="13000.00000" pt_clust_6="13000.00000" pt_clust_7="13000.00000" pt_clust_8="13000.00000" pt_clust_9="20.15608" pt_clust_10="13000.00000"></scales>
<clustering>
<clus scale="   20.156">  2  9  1 -1</clus>
<clus scale="   92.262">  7  8 -1 -1</clus>
<clus scale="   50.634">  7 10 -1 -1</clus>
<clus scale="   93.102">  5  6 -1 -1</clus>
<clus scale="  106.873">  1  5  2 -1</clus>
<clus scale="   20.156">  2  5  1 -1</clus>
</clustering>
</event>
<event>
10    2  0.5921424E-006  0.3063250E+03  0.7546771E-02  0.1084157E+00
          2   -1    0    0  502    0 -0.00000000000E+00  0.00000000000E+00  0.74381545330E+03  0.74381545330E+03  0.00000000000E+00 0. -1.
         21   -1    0    0  503  502  0.00000000000E+00 -0.00000000000E+00 -0.15677949679E+03  0.15677949679E+03  0.00000000000E+00 0. -1.
         23    2    1    2    0    0  0.12535042220E+03 -0.22627125448E+03  0.29552697016E+03  0.40544916073E+03  0.10070463195E+03 0.  0.
         23    2    1    2    0    0 -0.20184836270E+02  0.19398306480E+03  0.19460093641E+03  0.29044206446E+03  0.91925030931E+02 0.  0.
        -13    1    4    4    0    0 -0.30863945644E+02  0.21762138031E+02  0.62925258351E+02  0.73387750552E+02  0.00000000000E+00 0.  1.
         13    1    4    4    0    0  0.10679109374E+02  0.17222092677E+03  0.13167567806E+03  0.21705431391E+03  0.00000000000E+00 0. -1.
        -13    1    3    3    0    0  0.13898255200E+02 -0.11662994644E+03  0.16038819312E+03  0.19879657541E+03  0.00000000000E+00 0. -1.
         13    1    3    3    0    0  0.11145216700E+03 -0.10964130804E+03  0.13513877704E+03  0.20665258532E+03  0.00000000000E+00 0.  1.
         21    1    1    2  503  501 -0.41934297546E+02 -0.56838597439E+02  0.31437020416E+02  0.77313632188E+02  0.00000000000E+00 0. -1.
          2    1    1    2  501    0 -0.63231288388E+02  0.89126787121E+02  0.65471029527E+02  0.12739009271E+03  0.00000000000E+00 0. -1.
<scales pt_clust_5="13000.00000" pt_clust_6="13000.00000" pt_clust_7="13000.00000" pt_clust_8="13000.00000" pt_clust_9="70.63364" pt_clust_10="13000.00000"></scales>
<clustering>
<clus scale="   70.634">  2  9  1 -1</clus>
<clus scale="   91.925">  5  6 -1 -1</clus>
<clus scale="  100.705">  7  8 -1 -1</clus>
<clus scale="  105.318">  5 10 -1 -1</clus>
<clus scale="  290.068">  1  7  2 -1</clus>
<clus scale="   70.634">  2  5  1 -1</clus>
</clustering>
</event>
<event>
10    2  0.5921424E-006  0.1180257E+03  0.7546771E-02  0.1257879E+00
         -1   -1    0    0    0  501 -0.00000000000E+00  0.00000000000E+00  0.14247238576E+03  0.14247238576E+03  0.00000000000E+00 0.  1.
         21   -1    0    0  503  502  0.00000000000E+00 -0.00000000000E+00 -0.31905286656E+03  0.31905286656E+03  0.00000000000E+00 0. -1.
         23    2    1    2    0    0 -0.20890330702E+02 -0.13017046634E+02  0.84764933628E+02  0.12674655013E+03  0.90960126299E+02 0.  0.
         23    2    1    2    0    0  0.41631364084E+01  0.20130212881E+01 -0.57319476568E+02  0.10690755211E+03  0.90123905515E+02 0.  0.
        -11    1    4    4    0    0  0.36351432067E+02  0.22118808788E+02 -0.58400402982E+01  0.42950836851E+02  0.00000000000E+00 0. -1.
         11    1    4    4    0    0 -0.32188295658E+02 -0.20105787500E+02 -0.51479436270E+02  0.63956715262E+02  0.00000000000E+00 0.  1.
        -11    1    3    3    0    0 -0.47923659135E+02  0.26399858889E+01  0.14966170198E+02  0.50275569423E+02  0.00000000000E+00 0.  1.
         11    1    3    3    0    0  0.27033328433E+02 -0.15657032523E+02  0.69798763430E+02  0.76470980705E+02  0.00000000000E+00 0. -1.
         21    1    1    2  503  501 -0.54447797601E+01  0.28384313839E+02 -0.19663219939E+03  0.19874490367E+03  0.00000000000E+00 0. -1.
         -1    1    1    2    0  502  0.22171974054E+02 -0.17380288493E+02 -0.73937384657E+01  0.29126246412E+02  0.00000000000E+00 0.  1.
<scales pt_clust_5="13000.00000" pt_clust_6="13000.00000" pt_clust_7="13000.00000" pt_clust_8="13000.00000" pt_clust_9="28.90181" pt_clust_10="13000.00000"></scales>
<clustering>
<clus scale="   28.902">  2  9  1 -1</clus>
<clus scale="   90.124">  5  6 -1 -1</clus>
<clus scale="   25.056">  5 10 -1 -1</clus>
<clus scale="   90.960">  7  8 -1 -1</clus>
<clus scale="   93.894">  1  7  2 -1</clus>
<clus scale="   28.902">  2  5  1 -1</clus>
</clustering>
</event>
<event>
10    2  0.5921424E-006  0.2273364E+03  0.7546771E-02  0.1160369E+00
          1   -1    0    0  503    0 -0.00000000000E+00  0.00000000000E+00  0.53398666975E+03  0.53398666975E+03  0.00000000000E+00 0. -1.
         21   -1    0    0  501  502  0.00000000000E+00 -0.00000000000E+00 -0.14788760675E+03  0.14788760675E+03  0.00000000000E+00 0. -1.
         23    2    1    2    0    0 -0.49409311271E+02 -0.70367866187E+02  0.25141303329E+03  0.27451724594E+03  0.68980347765E+02 0.  0.
         23    2    1    2    0    0  0.25596080405E+02  0.39818468815E+02  0.21409599877E+03  0.23776885967E+03  0.91957947712E+02 0.  0.
        -11    1    4    4    0    0 -0.33523180641E+02  0.26265641483E+02  0.95395684058E+02  0.10447020676E+03  0.00000000000E+00 0.  1.
         11    1    4    4    0    0  0.59119261045E+02  0.13552827332E+02  0.11870031471E+03  0.13329865291E+03  0.00000000000E+00 0. -1.
        -13    1    3    3    0    0  0.57808389631E+01 -0.48777507365E+02  0.13927228892E+03  0.14768017397E+03  0.00000000000E+00 0. -1.
         13    1    3    3    0    0 -0.55190150234E+02 -0.21590358821E+02  0.11214074438E+03  0.12683707197E+03  0.00000000000E+00 0.  1.
         21    1    1    2  503  502 -0.34040172600E+02  0.65551944265E+02 -0.69179237003E+02  0.10120058093E+03  0.00000000000E+00 0. -1.
          1    1    1    2  501    0  0.57853403467E+02 -0.35002546893E+02 -0.10230732062E+02  0.68387589958E+02  0.00000000000E+00 0. -1.
<scales pt_clust_5="13000.00000" pt_clust_6="13000.00000" pt_clust_7="13000.00000" pt_clust_8="13000.00000" pt_clust_9="73.86332" pt_clust_10="13000.00000"></scales>
<clustering>
<clus scale="   68.980">  7  8 -1 -1</clus>
<clus scale="   73.863">  2  9  1 -1</clus>
<clus scale="   91.958">  5  6 -1 -1</clus>
<clus scale="   37.017">  5 10 -1 -1</clus>
<clus scale="  106.096">  1  7  2 -1</clus>
<clus scale="   73.863">  2  5  1 -1</clus>
</clustering>
</event>
<event>
10    2  0.5921424E-006  0.1987290E+03  0.7546771E-02  0.1158890E+00
          1   -1    0    0  503    0 -0.00000000000E+00  0.00000000000E+00  0.14945852833E+03  0.14945852833E+03  0.00000000000E+00 0. -1.
         21   -1    0    0  501  502  0.00000000000E+00 -0.00000000000E+00 -0.59222566870E+03  0.59222566870E+03  0.00000000000E+00 0.  1.
         23    2    1    2    0    0 -0.64079684929E+02  0.11731281502E+03  0.43883791875E+02  0.16820546201E+03  0.92188869581E+02 0.  0.
         23    2    1    2    0    0  0.11656554857E+03 -0.11040860301E+03 -0.21839773005E+03  0.28593896388E+03  0.91027115964E+02 0.  0.
        -11    1    3    3    0    0 -0.63175695460E+02  0.66691910305E+02  0.65838973527E+02  0.11302101500E+03  0.00000000000E+00 0. -1.
         11    1    3    3    0    0 -0.90398946904E+00  0.50620904711E+02 -0.21955181652E+02  0.55184447013E+02  0.00000000000E+00 0.  1.
        -11    1    4    4    0    0  0.78549566418E+02 -0.50583021999E+02 -0.56446919499E+02  0.10915553683E+03  0.00000000000E+00 0. -1.
         11    1    4    4    0    0  0.38015982154E+02 -0.59825581014E+02 -0.16195081055E+03  0.17678342705E+03  0.00000000000E+00 0.  1.
         21    1    1    2  503  502 -0.72032095730E+02 -0.25433789902E+02 -0.19001632861E+03  0.20479674222E+03  0.00000000000E+00 0.  1.
          1    1    1    2  501    0  0.19546232087E+02  0.18529577898E+02 -0.78236873591E+02  0.82743028922E+02  0.00000000000E+00 0. -1.
<scales pt_clust_5="13000.00000" pt_clust_6="13000.00000" pt_clust_7="13000.00000" pt_clust_8="13000.00000" pt_clust_9="76.39045" pt_clust_10="13000.00000"></scales>
<clustering>
<clus scale="   76.390">  2  9  1 -1</clus>
<clus scale="   91.027">  7  8 -1 -1</clus>
<clus scale="   14.202">  7 10 -1 -1</clus>
<clus scale="   92.189">  5  6 -1 -1</clus>
<clus scale="  164.395">  1  5  2 -1</clus>
<clus scale="   76.390">  2  5  1 -1</clus>
</clustering>
</event>
<event>
10    2  0.5921424E-006  0.1430268E+03  0.7546771E-02  0.1233714E+00
         21   -1    0    0  503  502  0.00000000000E+00  0.00000000000E+00  0.14023793637E+03  0.14023793637E+03  0.00000000000E+00 0. -1.
         -1   -1    0    0    0  501 -0.00000000000E+00 -0.00000000000E+00 -0.45356454869E+03  0.45356454869E+03  0.00000000000E+00 0.  1.
         23    2    1    2    0    0 -0.57144656770E+01 -0.35017085540E+02 -0.32331303643E+03  0.33415512729E+03  0.76612519677E+02 0.  0.
         23    2    1    2    0    0  0.10393296901E+02  0.45722093770E+02 -0.10648060528E+02  0.10223785197E+03  0.90225643264E+02 0.  0.
        -11    1    3    3    0    0  0.95436972452E+01 -0.56897299015E+02 -0.21503318745E+03  0.22263794937E+03  0.00000000000E+00 0.  1.
         11    1    3    3    0    0 -0.15258162922E+02  0.21880213475E+02 -0.10827984898E+03  0.11151717792E+03  0.00000000000E+00 0. -1.
        -13    1    4    4    0    0 -0.52651707768E+01  0.63089328091E+02  0.17462324875E+02  0.65672811210E+02  0.00000000000E+00 0. -1.
         13    1    4    4    0    0  0.15658467678E+02 -0.17367234320E+02 -0.28110385403E+02  0.36565040756E+02  0.00000000000E+00 0.  1.
         21    1    1    2  503  501  0.12018393635E+02 -0.33340767969E+02  0.82313822906E+02  0.89619272680E+02  0.00000000000E+00 0. -1.
         -1    1    1    2    0  502 -0.16697224860E+02  0.22635759738E+02 -0.61679338269E+02  0.67790233119E+02  0.00000000000E+00 0.  1.
<scales pt_clust_5="13000.00000" pt_clust_6="13000.00000" pt_clust_7="13000.00000" pt_clust_8="13000.00000" pt_clust_9="35.44078" pt_clust_10="13000.00000"></scales>
<clustering>
<clus scale="   35.441">  1  9  2 -1</clus>
<clus scale="   76.613">  5  6 -1 -1</clus>
<clus scale="   85.793">  2  5  1 -1</clus>
<clus scale="   90.226">  7  8 -1 -1</clus>
<clus scale="   18.349">  7 10 -1 -1</clus>
<clus scale="   35.441">  1  5  2 -1</clus>
</clustering>
</event>
<event>
10    2  0.5921424E-006  0.2500295E+03  0.7546771E-02  0.1140472E+00
         21   -1    0    0  501  502  0.00000000000E+00  0.00000000000E+00  0.22599548543E+03  0.22599548543E+03  0.00000000000E+00 0. -1.
          2   -1    0    0  503    0 -0.00000000000E+00 -0.00000000000E+00 -0.33814552333E+03  0.33814552333E+03  0.00000000000E+00 0. -1.
         23    2    1    2    0    0  0.38560633103E+02 -0.57393269547E+02 -0.18951592885E+02  0.11725982929E+03  0.92788980367E+02 0.  0.
         23    2    1    2    0    0  0.46336954392E+01  0.76382431467E+02 -0.22441419450E+03  0.25449423587E+03  0.92465336358E+02 0.  0.
        -13    1    3    3    0    0  0.28725128466E+01 -0.74056924391E+02 -0.23164428903E+02  0.77648375043E+02  0.00000000000E+00 0.  1.
         13    1    3    3    0    0  0.35688120257E+02  0.16663654845E+02  0.42128360179E+01  0.39611454247E+02  0.00000000000E+00 0. -1.
        -13    1    4    4    0    0  0.36503686850E+02  0.78628008585E+02 -0.17994985720E+03  0.19974191847E+03  0.00000000000E+00 0. -1.
         13    1    4    4    0    0 -0.31869991411E+02 -0.22455771182E+01 -0.44464337292E+02  0.54752317393E+02  0.00000000000E+00 0.  1.
         21    1    1    2  503  502  0.26936447142E+02 -0.33259880622E+02  0.10954631697E+03  0.11761032015E+03  0.00000000000E+00 0. -1.
          2    1    1    2  501    0 -0.70130775685E+02  0.14270718701E+02  0.21669432510E+02  0.74776623457E+02  0.00000000000E+00 0. -1.
<scales pt_clust_5="13000.00000" pt_clust_6="13000.00000" pt_clust_7="13000.00000" pt_clust_8="13000.00000" pt_clust_9="42.79944" pt_clust_10="13000.00000"></scales>
<clustering>
<clus scale="   42.799">  1  9  2 -1</clus>
<clus scale="   92.465">  7  8 -1 -1</clus>
<clus scale="   58.576">  7 10 -1 -1</clus>
<clus scale="   92.789">  5  6 -1 -1</clus>
<clus scale="  127.744">  2  5  1 -1</clus>
<clus scale="   42.799">  1  5  2 -1</clus>
</clustering>
</event>
<event>
10    2  0.5921424E-006  0.4628215E+03  0.7546771E-02  0.1078405E+00
         21   -1    0    0  503  502  0.00000000000E+00  0.00000000000E+00  0.49767133872E+03  0.49767133872E+03  0.00000000000E+00 0. -1.
          1   -1    0    0  502    0 -0.00000000000E+00 -0.00000000000E+00 -0.20066801925E+03  0.20066801925E+03  0.00000000000E+00 0. -1.
         23    2    1    2    0    0 -0.11913075810E+02 -0.50559266679E+01 -0.17247331121E+02  0.99363923902E+02  0.96996057511E+02 0.  0.
         23    2    1    2    0    0  0.12438338030E+03 -0.11365917232E+03 -0.39584012436E+02  0.19446930539E+03  0.88666701487E+02 0.  0.
        -13    1    3    3    0    0  0.36495107924E+02  0.18302664704E+02  0.51184714073E+01  0.41147043480E+02  0.00000000000E+00 0. -1.
         13    1    3    3    0    0 -0.48408183734E+02 -0.23358591372E+02 -0.22365802529E+02  0.58216880422E+02  0.00000000000E+00 0.  1.
        -13    1    4    4    0    0  0.10105712573E+03 -0.12572727244E+03 -0.21851229951E+02  0.16278011532E+03  0.00000000000E+00 0. -1.
         13    1    4    4    0    0  0.23326254574E+02  0.12068100114E+02 -0.17732782485E+02  0.31689190073E+02  0.00000000000E+00 0.  1.
         21    1    1    2  503  501 -0.15308590088E+02 -0.19300589796E+02  0.70819234447E+02  0.74981528823E+02  0.00000000000E+00 0. -1.
          1    1    1    2  501    0 -0.97161714400E+02  0.13801568879E+03  0.28301542857E+03  0.32952459985E+03  0.00000000000E+00 0. -1.
<scales pt_clust_5="13000.00000" pt_clust_6="13000.00000" pt_clust_7="13000.00000" pt_clust_8="13000.00000" pt_clust_9="24.63464" pt_clust_10="13000.00000"></scales>
<clustering>
<clus scale="   24.635">  1  9  2 -1</clus>
<clus scale="   88.667">  7  8 -1 -1</clus>
<clus scale="   96.996">  5  6 -1 -1</clus>
<clus scale="   98.161">  2  5  1 -1</clus>
<clus scale="  165.267">  7 10 -1 -1</clus>
<clus scale="   24.635">  1  5  2 -1</clus>
</clustering>
</event>
<event>
10    2  0.5921424E-006  0.2105723E+03  0.7546771E-02  0.1174969E+00
         -4   -1    0    0    0  501 -0.00000000000E+00  0.00000000000E+00  0.26136036715E+03  0.26136036715E+03  0.00000000000E+00 0.  1.
         21   -1    0    0  501  502  0.00000000000E+00 -0.00000000000E+00 -0.41085224991E+03  0.41085224991E+03  0.00000000000E+00 0. -1.
         23    2    1    2    0    0  0.39078092913E+01  0.11755870752E+02  0.41141449627E+02  0.10395832788E+03  0.94663845200E+02 0.  0.
         23    2    1    2    0    0 -0.33123191171E+02 -0.97602884733E+02  0.14219234082E+03  0.20490940287E+03  0.10557335220E+03 0.  0.
        -11    1    4    4    0    0  0.22735486817E+02 -0.16335387065E+02  0.88086244994E+02  0.92427992451E+02  0.00000000000E+00 0.  1.
         11    1    4    4    0    0 -0.55858677989E+02 -0.81267497668E+02  0.54106095828E+02  0.11248141042E+03  0.00000000000E+00 0. -1.
        -11    1    3    3    0    0  0.47516706861E+02 -0.63330938460E+01  0.16458391790E+02  0.50683569022E+02  0.00000000000E+00 0.  1.
         11    1    3    3    0    0 -0.43608897569E+02  0.18088964598E+02  0.24683057837E+02  0.53274758860E+02  0.00000000000E+00 0. -1.
         21    1    1    2  503  502  0.57858366091E+02  0.89893297687E+02 -0.30505723174E+03  0.32324651604E+03  0.00000000000E+00 0. -1.
         -4    1    1    2    0  503 -0.28642984211E+02 -0.40462837061E+01 -0.27768441467E+02  0.40098370264E+02  0.00000000000E+00 0.  1.
<scales pt_clust_5="13000.00000" pt_clust_6="13000.00000" pt_clust_7="13000.00000" pt_clust_8="13000.00000" pt_clust_9="107.48181" pt_clust_10="13000.00000"></scales>
<clustering>
<clus scale="   94.664">  7  8 -1 -1</clus>
<clus scale="   95.471">  1  7  2 -1</clus>
<clus scale="  105.573">  5  6 -1 -1</clus>
<clus scale="   28.750">  5 10 -1 -1</clus>
<clus scale="  107.482">  2  9  1 -1</clus>
<clus scale="  107.482">  2  5  1 -1</clus>
</clustering>
</event>
<event>
10    2  0.5921424E-006  0.4354662E+03  0.7546771E-02  0.1085186E+00
          1   -1    0    0  503    0 -0.00000000000E+00  0.00000000000E+00  0.60234801591E+03  0.60234801591E+03  0.00000000000E+00 0. -1.
         21   -1    0    0  501  502  0.00000000000E+00 -0.00000000000E+00 -0.23229540587E+03  0.23229540587E+03  0.00000000000E+00 0. -1.
         23    2    1    2    0    0 -0.84118474232E+01  0.48220828347E+02  0.27716703581E+01  0.98271255840E+02  0.85167776209E+02 0.  0.
         23    2    1    2    0    0 -0.50221281591E+02 -0.89865071960E+02  0.20345276916E+02  0.14083849618E+03  0.93934250573E+02 0.  0.
        -11    1    4    4    0    0  0.25746008618E+01 -0.68953555650E+02 -0.19219376540E+02  0.71628247508E+02  0.00000000000E+00 0.  1.
         11    1    4    4    0    0 -0.52795882452E+02 -0.20911516309E+02  0.39564653456E+02  0.69210248673E+02  0.00000000000E+00 0. -1.
        -13    1    3    3    0    0 -0.21244605306E+02  0.56921438421E+01 -0.34074610117E+02  0.40556291876E+02  0.00000000000E+00 0. -1.
         13    1    3    3    0    0  0.12832757882E+02  0.42528684505E+02  0.36846280475E+02  0.57714963965E+02  0.00000000000E+00 0.  1.
         21    1    1    2  503  502  0.28492292285E+02 -0.20615359031E+03  0.62933526062E+02  0.21742065730E+03  0.00000000000E+00 0. -1.
          1    1    1    2  501    0  0.30140836729E+02  0.24779783392E+03  0.28400213671E+03  0.37811301246E+03  0.00000000000E+00 0. -1.
<scales pt_clust_5="13000.00000" pt_clust_6="13000.00000" pt_clust_7="13000.00000" pt_clust_8="13000.00000" pt_clust_9="195.68727" pt_clust_10="13000.00000"></scales>
<clustering>
<clus scale="   85.168">  7  8 -1 -1</clus>
<clus scale="   93.934">  5  6 -1 -1</clus>
<clus scale="   98.232">  1  7  2 -1</clus>
<clus scale="  195.687">  2  9  1 -1</clus>
<clus scale="  181.793">  5 10 -1 -1</clus>
<clus scale="  195.687">  2  5  1 -1</clus>
</clustering>
</event>
<event>
10    2  0.5921424E-006  0.2387526E+03  0.7546771E-02  0.1160823E+00
         21   -1    0    0  503  502  0.00000000000E+00  0.00000000000E+00  0.11162288500E+03  0.11162288500E+03  0.00000000000E+00 0. -1.
          3   -1    0    0  502    0 -0.00000000000E+00 -0.00000000000E+00 -0.41809373700E+03  0.41809373700E+03  0.00000000000E+00 0. -1.
         23    2    1    2    0    0  0.40967633665E+01  0.20422989706E+01 -0.20894197091E+03  0.22778429809E+03  0.90597929297E+02 0.  0.
         23    2    1    2    0    0  0.79616301292E+01  0.83381200709E+02 -0.15057189117E+03  0.19317645458E+03  0.87346642797E+02 0.  0.
        -13    1    4    4    0    0  0.46678859699E+02  0.52418933161E+02 -0.10163497580E+03  0.12351651227E+03  0.00000000000E+00 0.  1.
         13    1    4    4    0    0 -0.38717229569E+02  0.30962267548E+02 -0.48936915363E+02  0.69659942309E+02  0.00000000000E+00 0. -1.
        -13    1    3    3    0    0 -0.41410072737E+02 -0.40040042424E+01 -0.12965592492E+03  0.13616712174E+03  0.00000000000E+00 0.  1.
         13    1    3    3    0    0  0.45506836104E+02  0.60463032130E+01 -0.79286045988E+02  0.91617176354E+02  0.00000000000E+00 0. -1.
         21    1    1    2  503  501 -0.14358131345E+02 -0.14644674574E+02  0.25614360877E+02  0.32813380079E+02  0.00000000000E+00 0.  1.
          3    1    1    2  501    0  0.22997378491E+01 -0.70778825106E+02  0.27428649198E+02  0.75942489256E+02  0.00000000000E+00 0. -1.
<scales pt_clust_5="13000.00000" pt_clust_6="13000.00000" pt_clust_7="13000.00000" pt_clust_8="13000.00000" pt_clust_9="20.50908" pt_clust_10="13000.00000"></scales>
<clustering>
<clus scale="   20.509">  1  9  2 -1</clus>
<clus scale="   87.347">  5  6 -1 -1</clus>
<clus scale="   80.244">  5 10 -1 -1</clus>
<clus scale="   90.598">  7  8 -1 -1</clus>
<clus scale="   90.632">  2  7  1 -1</clus>
<clus scale="   20.509">  1  5  2 -1</clus>
</clustering>
</event>
<event>
10    2  0.5921424E-006  0.2240341E+03  0.7546771E-02  0.1160434E+00
         -4   -1    0    0    0  501 -0.00000000000E+00  0.00000000000E+00  0.38729557626E+03  0.38729557626E+03  0.00000000000E+00 0.  1.
         21   -1    0    0  503  502  0.00000000000E+00 -0.00000000000E+00 -0.11945531971E+03  0.11945531971E+03  0.00000000000E+00 0. -1.
         23    2    1    2    0    0  0.82342899456E+00 -0.61819048056E+02  0.19398694281E+03  0.22271951696E+03  0.90281651056E+02 0.  0.
         23    2    1    2    0    0  0.38332883888E+02 -0.16488082956E+02 -0.15085726632E+02  0.10105508801E+03  0.90792537129E+02 0.  0.
        -11    1    4    4    0    0 -0.27352274058E+02  0.49451405322E+01 -0.15770842012E+02  0.31958109594E+02  0.00000000000E+00 0.  1.
         11    1    4    4    0    0  0.65685157946E+02 -0.21433223489E+02  0.68511538009E+00  0.69096978418E+02  0.00000000000E+00 0. -1.
        -13    1    3    3    0    0 -0.38091234812E+02 -0.35917695757E+02  0.14864523284E+03  0.15759577495E+03  0.00000000000E+00 0. -1.
         13    1    3    3    0    0  0.38914663806E+02 -0.25901352299E+02  0.45341709976E+02  0.65123742012E+02  0.00000000000E+00 0.  1.
         21    1    1    2  503  501 -0.19973787111E+02 -0.13524015218E+02 -0.25431894098E+02  0.35051852969E+02  0.00000000000E+00 0. -1.
         -4    1    1    2    0  502 -0.19182525771E+02  0.91831146230E+02  0.11437093447E+03  0.14792443802E+03  0.00000000000E+00 0.  1.
<scales pt_clust_5="13000.00000" pt_clust_6="13000.00000" pt_clust_7="13000.00000" pt_clust_8="13000.00000" pt_clust_9="24.12159" pt_clust_10="13000.00000"></scales>
<clustering>
<clus scale="   24.122">  2  9  1 -1</clus>
<clus scale="   90.282">  7  8 -1 -1</clus>
<clus scale="   90.793">  5  6 -1 -1</clus>
<clus scale="   92.187">  5 10 -1 -1</clus>
<clus scale="  110.689">  1  7  2 -1</clus>
<clus scale="   24.122">  2  5  1 -1</clus>
</clustering>
</event>
<event>
10    2  0.5921424E-006  0.2546048E+03  0.7546771E-02  0.1126095E+00
         21   -1    0    0  503  502  0.00000000000E+00  0.00000000000E+00  0.18769578798E+03  0.18769578798E+03  0.00000000000E+00 0. -1.
         -1   -1    0    0    0  501 -0.00000000000E+00 -0.00000000000E+00 -0.40154454588E+03  0.40154454588E+03  0.00000000000E+00 0.  1.
         23    2    1    2    0    0 -0.11167100238E+02  0.10068825212E+03  0.41494037734E+02  0.14179179543E+03  0.90112872778E+02 0.  0.
         23    2    1    2    0    0 -0.70853465803E+01 -0.58222587315E+02 -0.22819743255E+03  0.25165546962E+03  0.88410041028E+02 0.  0.
        -11    1    4    4    0    0  0.37589028664E+02 -0.25706298261E+02 -0.14328909573E+03  0.15035130129E+03  0.00000000000E+00 0.  1.
         11    1    4    4    0    0 -0.44674375244E+02 -0.32516289054E+02 -0.84908336825E+02  0.10130416832E+03  0.00000000000E+00 0. -1.
        -11    1    3    3    0    0 -0.31874016517E+02  0.99195534153E+02  0.10817825721E+02  0.10475081039E+03  0.00000000000E+00 0. -1.
         11    1    3    3    0    0  0.20706916279E+02  0.14927179653E+01  0.30676212013E+02  0.37040985032E+02  0.00000000000E+00 0.  1.
         21    1    1    2  503  501 -0.51650037248E+01  0.73852041625E+02  0.19334278253E+00  0.74032686680E+02  0.00000000000E+00 0. -1.
         -1    1    1    2    0  502  0.23417450544E+02 -0.11631770643E+03 -0.27338705866E+02  0.12176038213E+03  0.00000000000E+00 0.  1.
<scales pt_clust_5="13000.00000" pt_clust_6="13000.00000" pt_clust_7="13000.00000" pt_clust_8="13000.00000" pt_clust_9="74.03243" pt_clust_10="13000.00000"></scales>
<clustering>
<clus scale="   74.032">  1  9  2 -1</clus>
<clus scale="   88.410">  5  6 -1 -1</clus>
<clus scale="   90.113">  7  8 -1 -1</clus>
<clus scale="   95.680">  5 10 -1 -1</clus>
<clus scale="  171.856">  2  7  1 -1</clus>
<clus scale="   74.032">  1  5  2 -1</clus>
</clustering>
</event>
<event>
10    2  0.5921424E-006  0.2665648E+03  0.7546771E-02  0.1143523E+00
         21   -1    0    0  501  502  0.00000000000E+00  0.00000000000E+00  0.23376117687E+03  0.23376117687E+03  0.00000000000E+00 0. -1.
          3   -1    0    0  503    0 -0.00000000000E+00 -0.00000000000E+00 -0.24337713273E+03  0.24337713273E+03  0.00000000000E+00 0. -1.
         23    2    1    2    0    0 -0.33485867551E+02 -0.94809980943E+01 -0.44616540623E+02  0.10643992736E+03  0.90153368148E+02 0.  0.
         23    2    1    2    0    0  0.52661388559E+02  0.96488820636E+02 -0.12149031494E+03  0.18515653376E+03  0.86253875382E+02 0.  0.
        -11    1    3    3    0    0 -0.38623277941E+01 -0.32299203655E+02 -0.58185604384E+02  0.66661238289E+02  0.00000000000E+00 0. -1.
         11    1    3    3    0    0 -0.29623539757E+02  0.22818205561E+02  0.13569063761E+02  0.39778689069E+02  0.00000000000E+00 0.  1.
        -13    1    4    4    0    0  0.14173975459E+02  0.89423214602E+02 -0.11355168613E+03  0.14522877921E+03  0.00000000000E+00 0. -1.
         13    1    4    4    0    0  0.38487413099E+02  0.70656060336E+01 -0.79386288101E+01  0.39927754546E+02  0.00000000000E+00 0.  1.
         21    1    1    2  503  502 -0.78801069604E+01 -0.25518328403E+02  0.91684256284E+02  0.95494942382E+02  0.00000000000E+00 0. -1.
          3    1    1    2  501    0 -0.11295414047E+02 -0.61489494138E+02  0.64806643410E+02  0.90046906098E+02  0.00000000000E+00 0. -1.
<scales pt_clust_5="13000.00000" pt_clust_6="13000.00000" pt_clust_7="13000.00000" pt_clust_8="13000.00000" pt_clust_9="26.70732" pt_clust_10="13000.00000"></scales>
<clustering>
<clus scale="   26.707">  1  9  2 -1</clus>
<clus scale="   86.254">  7  8 -1 -1</clus>
<clus scale="   77.188">  7 10 -1 -1</clus>
<clus scale="   90.153">  5  6 -1 -1</clus>
<clus scale="   97.962">  2  5  1 -1</clus>
<clus scale="   26.707">  1  5  2 -1</clus>
</clustering>
</event>
<event>
10    2  0.5921424E-006  0.2179117E+03  0.7546771E-02  0.1173715E+00
          1   -1    0    0  503    0 -0.00000000000E+00  0.00000000000E+00  0.27177997152E+03  0.27177997152E+03  0.00000000000E+00 0. -1.
         21   -1    0    0  501  502  0.00000000000E+00 -0.00000000000E+00 -0.20919500605E+03  0.20919500605E+03  0.00000000000E+00 0. -1.
         23    2    1    2    0    0 -0.38662467624E+01 -0.80065230194E+01  0.21716694829E+02  0.91535943557E+02  0.88476900114E+02 0.  0.
         23    2    1    2    0    0  0.34261352201E+02  0.75517452901E+01  0.18419726622E+03  0.20934056221E+03  0.93080443653E+02 0.  0.
        -11    1    4    4    0    0 -0.26172141900E+02 -0.17344571329E+02  0.38685983152E+02  0.49823894455E+02  0.00000000000E+00 0.  1.
         11    1    4    4    0    0  0.60433494101E+02  0.24896316619E+02  0.14551128307E+03  0.15951666775E+03  0.00000000000E+00 0. -1.
        -13    1    3    3    0    0 -0.40250878126E+02 -0.13900338296E+02  0.32003036583E+02  0.53268630029E+02  0.00000000000E+00 0.  1.
         13    1    3    3    0    0  0.36384631364E+02  0.58938152761E+01 -0.10286341754E+02  0.38267313528E+02  0.00000000000E+00 0. -1.
         21    1    1    2  503  502  0.93450692018E+01  0.34816083529E+02 -0.11477846566E+03  0.12030621834E+03  0.00000000000E+00 0. -1.
          1    1    1    2  501    0 -0.39740174641E+02 -0.34361305799E+02 -0.28550529918E+02  0.59792253472E+02  0.00000000000E+00 0. -1.
<scales pt_clust_5="13000.00000" pt_clust_6="13000.00000" pt_clust_7="13000.00000" pt_clust_8="13000.00000" pt_clust_9="36.04844" pt_clust_10="13000.00000"></scales>
<clustering>
<clus scale="   36.048">  2  9  1 -1</clus>
<clus scale="   88.477">  7  8 -1 -1</clus>
<clus scale="   88.633">  1  7  2 -1</clus>
<clus scale="   93.080">  5  6 -1 -1</clus>
<clus scale="   39.265">  5 10 -1 -1</clus>
<clus scale="   36.048">  2  5  1 -1</clus>
</clustering>
</event>
<event>
10    2  0.5921424E-006  0.3529599E+03  0.7546771E-02  0.1090505E+00
         21   -1    0    0  501  502  0.00000000000E+00  0.00000000000E+00  0.18118705059E+03  0.18118705059E+03  0.00000000000E+00 0.  1.
          2   -1    0    0  503    0 -0.00000000000E+00 -0.00000000000E+00 -0.75187354295E+03  0.75187354295E+03  0.00000000000E+00 0. -1.
         23    2    1    2    0    0 -0.89868915594E+02  0.10482776070E+03 -0.36861144879E+03  0.40414829661E+03  0.91630584786E+02 0.  0.
         23    2    1    2    0    0 -0.53856535771E+02  0.87425232354E+02 -0.15766241877E+03  0.20448774243E+03  0.80088081587E+02 0.  0.
        -13    1    3    3    0    0  0.11969642692E+02  0.47199511919E+02 -0.10650733838E+03  0.11711054351E+03  0.00000000000E+00 0.  1.
         13    1    3    3    0    0 -0.10183855829E+03  0.57628248777E+02 -0.26210411041E+03  0.28703775310E+03  0.00000000000E+00 0. -1.
        -13    1    4    4    0    0  0.38142591618E+01  0.24288458730E+02 -0.95907273695E+02  0.99008499373E+02  0.00000000000E+00 0.  1.
         13    1    4    4    0    0 -0.57670794933E+02  0.63136773624E+02 -0.61755145079E+02  0.10547924306E+03  0.00000000000E+00 0. -1.
         21    1    1    2  503  502  0.35824753933E+02 -0.18729923100E+02  0.76837671940E+02  0.86823100859E+02  0.00000000000E+00 0.  1.
          2    1    1    2  501    0  0.10790069743E+03 -0.17352306995E+03 -0.12125029674E+03  0.23760145364E+03  0.00000000000E+00 0. -1.
<scales pt_clust_5="13000.00000" pt_clust_6="13000.00000" pt_clust_7="13000.00000" pt_clust_8="13000.00000" pt_clust_9="40.42552" pt_clust_10="13000.00000"></scales>
<clustering>
<clus scale="   40.426">  1  9  2 -1</clus>
<clus scale="   80.088">  7  8 -1 -1</clus>
<clus scale="   91.631">  5  6 -1 -1</clus>
<clus scale="  160.187">  2  5  1 -1</clus>
<clus scale="  150.902">  7 10 -1 -1</clus>
<clus scale="   40.426">  1  5  2 -1</clus>
</clustering>
</event>
<event>
10    2  0.5921424E-006  0.3385923E+03  0.7546771E-02  0.1116402E+00
         21   -1    0    0  503  502  0.00000000000E+00  0.00000000000E+00  0.15591719187E+03  0.15591719187E+03  0.00000000000E+00 0.  1.
          2   -1    0    0  502    0 -0.00000000000E+00 -0.00000000000E+00 -0.81972036982E+03  0.81972036982E+03  0.00000000000E+00 0. -1.
         23    2    1    2    0    0 -0.19214102601E+00  0.51219426025E+01  0.48235083226E+02  0.10441636989E+03  0.92465581887E+02 0.  0.
         23    2    1    2    0    0 -0.11482943785E+03  0.63917314287E+02 -0.64706345477E+03  0.66644804001E+03  0.90502224647E+02 0.  0.
        -13    1    4    4    0    0 -0.20477244420E+02 -0.19631860074E+02 -0.65385120775E+02  0.71273708250E+02  0.00000000000E+00 0. -1.
         13    1    4    4    0    0 -0.94352193429E+02  0.83549174361E+02 -0.58167833400E+03  0.59517433176E+03  0.00000000000E+00 0.  1.
        -13    1    3    3    0    0  0.11194397249E+02  0.41983187664E+02  0.49437620082E+02  0.65817785253E+02  0.00000000000E+00 0.  1.
         13    1    3    3    0    0 -0.11386538275E+02 -0.36861245061E+02 -0.12025368557E+01  0.38598584641E+02  0.00000000000E+00 0. -1.
         21    1    1    2  503  501  0.60362855369E+01 -0.21981358604E+02  0.40173854647E+02  0.46190426133E+02  0.00000000000E+00 0. -1.
          2    1    1    2  501    0  0.10898529334E+03 -0.47057898285E+02 -0.10514866106E+03  0.15858272566E+03  0.00000000000E+00 0. -1.
<scales pt_clust_5="13000.00000" pt_clust_6="13000.00000" pt_clust_7="13000.00000" pt_clust_8="13000.00000" pt_clust_9="22.79511" pt_clust_10="13000.00000"></scales>
<clustering>
<clus scale="   22.795">  1  9  2 -1</clus>
<clus scale="   90.502">  5  6 -1 -1</clus>
<clus scale="   92.466">  7  8 -1 -1</clus>
<clus scale="   93.061">  2  7  1 -1</clus>
<clus scale="  123.541">  5 10 -1 -1</clus>
<clus scale="   22.795">  1  5  2 -1</clus>
</clustering>
</event>
<event>
10    2  0.5921424E-006  0.2105105E+03  0.7546771E-02  0.1165376E+00
          2   -1    0    0  502    0 -0.00000000000E+00  0.00000000000E+00  0.76029269567E+03  0.76029269567E+03  0.00000000000E+00 0. -1.
         21   -1    0    0  503  502  0.00000000000E+00 -0.00000000000E+00 -0.15393961838E+03  0.15393961838E+03  0.00000000000E+00 0. -1.
         23    2    1    2    0    0  0.62634031973E+02 -0.20085728294E+02  0.55063492205E+03  0.56371182869E+03  0.10122129210E+03 0.  0.
         23    2    1    2    0    0 -0.67027856983E+02 -0.12840275409E+02  0.17182419639E+03  0.20573528832E+03  0.90254352319E+02 0.  0.
        -11    1    3    3    0    0  0.85018290733E+02 -0.18774588084E+02  0.50928368621E+03  0.51667249584E+03  0.00000000000E+00 0. -1.
         11    1    3    3    0    0 -0.22384258760E+02 -0.13111402095E+01  0.41351235840E+02  0.47039332844E+02  0.00000000000E+00 0.  1.
        -13    1    4    4    0    0 -0.54894694167E+02  0.32954371014E+02  0.80529429995E+02  0.10288054778E+03  0.00000000000E+00 0.  1.
         13    1    4    4    0    0 -0.12133162815E+02 -0.45794646423E+02  0.91294766391E+02  0.10285474054E+03  0.00000000000E+00 0. -1.
         21    1    1    2  503  501 -0.27901234714E+02  0.72226648658E+01 -0.93254386754E+02  0.97606487669E+02  0.00000000000E+00 0. -1.
          2    1    1    2  501    0  0.32295059724E+02  0.25703338837E+02 -0.22851654399E+02  0.47178709379E+02  0.00000000000E+00 0. -1.
<scales pt_clust_5="13000.00000" pt_clust_6="13000.00000" pt_clust_7="13000.00000" pt_clust_8="13000.00000" pt_clust_9="28.82093" pt_clust_10="13000.00000"></scales>
<clustering>
<clus scale="   28.821">  2  9  1 -1</clus>
<clus scale="   90.254">  7  8 -1 -1</clus>
<clus scale="   33.835">  7 10 -1 -1</clus>
<clus scale="  101.221">  5  6 -1 -1</clus>
<clus scale="  118.994">  1  5  2 -1</clus>
<clus scale="   28.821">  2  5  1 -1</clus>
</clustering>
</event>
<event>
10    2  0.5921424E-006  0.1491952E+03  0.7546771E-02  0.1218519E+00
          1   -1    0    0  503    0 -0.00000000000E+00  0.00000000000E+00  0.21234267269E+03  0.21234267269E+03  0.00000000000E+00 0. -1.
         21   -1    0    0  501  502  0.00000000000E+00 -0.00000000000E+00 -0.23659995511E+03  0.23659995511E+03  0.00000000000E+00 0.  1.
         23    2    1    2    0    0 -0.63133936925E+02 -0.29877917187E+02  0.10289793521E+03  0.15268062979E+03  0.88570907842E+02 0.  0.
         23    2    1    2    0    0  0.63268658538E+01  0.15298926528E+02  0.36654253227E+02  0.99161054981E+02  0.90638259918E+02 0.  0.
        -13    1    4    4    0    0 -0.12383349360E+02 -0.18478014676E+02  0.52810919220E+02  0.57304254262E+02  0.00000000000E+00 0. -1.
         13    1    4    4    0    0  0.18710215214E+02  0.33776941204E+02 -0.16156665993E+02  0.41856800719E+02  0.00000000000E+00 0.  1.
        -13    1    3    3    0    0 -0.16729753996E+01  0.28191908353E+02  0.26100567497E+02  0.38455456920E+02  0.00000000000E+00 0.  1.
         13    1    3    3    0    0 -0.61460961525E+02 -0.58069825540E+02  0.76797367716E+02  0.11422517287E+03  0.00000000000E+00 0. -1.
         21    1    1    2  503  502  0.76982643667E+02 -0.87920992387E+01 -0.12979619553E+03  0.15116441648E+03  0.00000000000E+00 0.  1.
          1    1    1    2  501    0 -0.20175572596E+02  0.23371089898E+02 -0.34013275332E+02  0.45936526549E+02  0.00000000000E+00 0. -1.
<scales pt_clust_5="13000.00000" pt_clust_6="13000.00000" pt_clust_7="13000.00000" pt_clust_8="13000.00000" pt_clust_9="77.48308" pt_clust_10="13000.00000"></scales>
<clustering>
<clus scale="   77.483">  2  9  1 -1</clus>
<clus scale="   88.571">  7  8 -1 -1</clus>
<clus scale="   90.638">  5  6 -1 -1</clus>
<clus scale="   22.997">  5 10 -1 -1</clus>
<clus scale="  103.657">  1  7  2 -1</clus>
<clus scale="   77.483">  2  5  1 -1</clus>
</clustering>
</event>
<event>
10    2  0.5921424E-006  0.1314044E+03  0.7546771E-02  0.1249091E+00
          2   -1    0    0  503    0 -0.00000000000E+00  0.00000000000E+00  0.23334063054E+03  0.23334063054E+03  0.00000000000E+00 0. -1.
         21   -1    0    0  501  502  0.00000000000E+00 -0.00000000000E+00 -0.18025375553E+03  0.18025375553E+03  0.00000000000E+00 0.  1.
         23    2    1    2    0    0  0.62149501331E+01  0.42196590139E+01  0.15658732219E+03  0.17613819534E+03  0.80303444872E+02 0.  0.
         23    2    1    2    0    0 -0.34507495820E+01 -0.29778658771E+02  0.12432615915E+02  0.98721666560E+02  0.93234764541E+02 0.  0.
        -11    1    3    3    0    0 -0.19066186327E+02 -0.29236020909E+02  0.45122373227E+02  0.57046410451E+02  0.00000000000E+00 0.  1.
         11    1    3    3    0    0  0.25281136460E+02  0.33455679923E+02  0.11146494897E+03  0.11909178489E+03  0.00000000000E+00 0. -1.
        -13    1    4    4    0    0 -0.40780050799E+02 -0.16240189256E+02  0.32128623388E+02  0.54396734562E+02  0.00000000000E+00 0.  1.
         13    1    4    4    0    0  0.37329301217E+02 -0.13538469515E+02 -0.19696007473E+02  0.44324931997E+02  0.00000000000E+00 0. -1.
         21    1    1    2  503  502  0.25039822644E+02  0.91650264153E+01 -0.98510077570E+02  0.10205501364E+03  0.00000000000E+00 0.  1.
          2    1    1    2  501    0 -0.27804023195E+02  0.16393973342E+02 -0.17422985532E+02  0.36679510529E+02  0.00000000000E+00 0. -1.
<scales pt_clust_5="13000.00000" pt_clust_6="13000.00000" pt_clust_7="13000.00000" pt_clust_8="13000.00000" pt_clust_9="26.66440" pt_clust_10="13000.00000"></scales>
<clustering>
<clus scale="   26.664">  2  9  1 -1</clus>
<clus scale="   80.303">  5  6 -1 -1</clus>
<clus scale="   81.014">  1  5  2 -1</clus>
<clus scale="   93.235">  7  8 -1 -1</clus>
<clus scale="   27.138">  7 10 -1 -1</clus>
<clus scale="   26.664">  2  5  1 -1</clus>
</clustering>
</event>
<event>
10    2  0.5921424E-006  0.3068697E+03  0.7546771E-02  0.1113870E+00
         21   -1    0    0  501  502  0.00000000000E+00  0.00000000000E+00  0.67381192593E+03  0.67381192593E+03  0.00000000000E+00 0.  1.
          1   -1    0    0  503    0 -0.00000000000E+00 -0.00000000000E+00 -0.10963788577E+03  0.10963788577E+03  0.00000000000E+00 0. -1.
         23    2    1    2    0    0 -0.99704887262E+02  0.26764679810E+02  0.32701560551E+03  0.35475556137E+03  0.90856422147E+02 0.  0.
         23    2    1    2    0    0  0.39445339752E+02  0.33864198762E+02 -0.37856388783E+02  0.11356532184E+03  0.93601588485E+02 0.  0.
        -13    1    3    3    0    0 -0.15675357431E+02 -0.24377936784E+02  0.29313475918E+02  0.41222330148E+02  0.00000000000E+00 0. -1.
         13    1    3    3    0    0 -0.84029529831E+02  0.51142616594E+02  0.29770212959E+03  0.31353323122E+03  0.00000000000E+00 0.  1.
        -13    1    4    4    0    0 -0.25237652617E+02  0.32007159689E+02 -0.24289791437E+02  0.47448828743E+02  0.00000000000E+00 0.  1.
         13    1    4    4    0    0  0.64682992369E+02  0.18570390724E+01 -0.13566597346E+02  0.66116493097E+02  0.00000000000E+00 0. -1.
         21    1    1    2  503  502  0.41895407841E+01 -0.47918556980E+02  0.17360811184E+02  0.51138421172E+02  0.00000000000E+00 0. -1.
          1    1    1    2  501    0  0.56070006726E+02 -0.12710321592E+02  0.25765401225E+03  0.26399050732E+03  0.00000000000E+00 0. -1.
<scales pt_clust_5="13000.00000" pt_clust_6="13000.00000" pt_clust_7="13000.00000" pt_clust_8="13000.00000" pt_clust_9="48.10138" pt_clust_10="13000.00000"></scales>
<clustering>
<clus scale="   48.101">  1  9  2 -1</clus>
<clus scale="   90.856">  5  6 -1 -1</clus>
<clus scale="   93.602">  7  8 -1 -1</clus>
<clus scale="   66.171">  7 10 -1 -1</clus>
<clus scale="  133.256">  2  5  1 -1</clus>
<clus scale="   48.101">  1  5  2 -1</clus>
</clustering>
</event>
<event>
10    2  0.5921424E-006  0.5491648E+03  0.7546771E-02  0.1008552E+00
         21   -1    0    0  501  502  0.00000000000E+00  0.00000000000E+00  0.66963023851E+03  0.66963023851E+03  0.00000000000E+00 0. -1.
          1   -1    0    0  503    0 -0.00000000000E+00 -0.00000000000E+00 -0.81096892256E+03  0.81096892256E+03  0.00000000000E+00 0. -1.
         23    2    1    2    0    0  0.25456147268E+03  0.35506985200E+03 -0.59774897209E+03  0.74592469567E+03  0.90684479384E+02 0.  0.
         23    2    1    2    0    0 -0.33453300683E+02 -0.94568059095E+02 -0.21075002495E+02  0.13757357694E+03  0.91761060452E+02 0.  0.
        -11    1    4    4    0    0  0.29507338905E+02 -0.22849089700E+02 -0.19543347023E+02  0.42127263883E+02  0.00000000000E+00 0.  1.
         11    1    4    4    0    0 -0.62960639588E+02 -0.71718969395E+02 -0.15316554725E+01  0.95446313061E+02  0.00000000000E+00 0. -1.
        -13    1    3    3    0    0  0.21969112616E+03  0.23920823077E+03 -0.44974888383E+03  0.55476015276E+03  0.00000000000E+00 0. -1.
         13    1    3    3    0    0  0.34870346515E+02  0.11586162124E+03 -0.14800008826E+03  0.19116454291E+03  0.00000000000E+00 0.  1.
         21    1    1    2  503  502 -0.41813314175E+02 -0.49353075349E+00  0.43303242325E+02  0.60197737589E+02  0.00000000000E+00 0. -1.
          1    1    1    2  501    0 -0.17929485782E+03 -0.26000826215E+03  0.43418204821E+03  0.53690315087E+03  0.00000000000E+00 0. -1.
<scales pt_clust_5="13000.00000" pt_clust_6="13000.00000" pt_clust_7="13000.00000" pt_clust_8="13000.00000" pt_clust_9="41.81623" pt_clust_10="13000.00000"></scales>
<clustering>
<clus scale="   41.816">  1  9  2 -1</clus>
<clus scale="   90.684">  7  8 -1 -1</clus>
<clus scale="   91.761">  5  6 -1 -1</clus>
<clus scale="  335.879">  5 10 -1 -1</clus>
<clus scale="  443.317">  2  7  1 -1</clus>
<clus scale="   41.816">  1  5  2 -1</clus>
</clustering>
</event>
<event>
10    2  0.5921424E-006  0.3002386E+03  0.7546771E-02  0.1118448E+00
         21   -1    0    0  503  502  0.00000000000E+00  0.00000000000E+00  0.28874365650E+03  0.28874365650E+03  0.00000000000E+00 0.  1.
         -3   -1    0    0    0  501 -0.00000000000E+00 -0.00000000000E+00 -0.67392575044E+03  0.67392575044E+03  0.00000000000E+00 0.  1.
         23    2    1    2    0    0 -0.79293010703E+02 -0.35074980048E+02 -0.53677793032E+03  0.55142074361E+03  0.91742325161E+02 0.  0.
         23    2    1    2    0    0 -0.61964404071E+02  0.53833343823E+02  0.82960728784E+02  0.14771964020E+03  0.90559335810E+02 0.  0.
        -11    1    4    4    0    0 -0.63884032363E+02  0.42710427391E+01  0.19010724273E+02  0.66789363184E+02  0.00000000000E+00 0.  1.
         11    1    4    4    0    0  0.19196282924E+01  0.49562301084E+02  0.63950004511E+02  0.80930277020E+02  0.00000000000E+00 0. -1.
        -13    1    3    3    0    0 -0.98505693336E+02 -0.20814468372E+02 -0.46447591585E+03  0.47526254861E+03  0.00000000000E+00 0.  1.
         13    1    3    3    0    0  0.19212682633E+02 -0.14260511676E+02 -0.72302014475E+02  0.76158194992E+02  0.00000000000E+00 0. -1.
         21    1    1    2  503  501 -0.43045899291E+02  0.23431088175E+02 -0.22160970448E+02  0.53787302869E+02  0.00000000000E+00 0.  1.
         -3    1    1    2    0  502  0.18430331406E+03 -0.42189451949E+02  0.90796078046E+02  0.20974172026E+03  0.00000000000E+00 0.  1.
<scales pt_clust_5="13000.00000" pt_clust_6="13000.00000" pt_clust_7="13000.00000" pt_clust_8="13000.00000" pt_clust_9="49.00987" pt_clust_10="13000.00000"></scales>
<clustering>
<clus scale="   49.010">  1  9  2 -1</clus>
<clus scale="   90.559">  5  6 -1 -1</clus>
<clus scale="   91.742">  7  8 -1 -1</clus>
<clus scale="  126.787">  2  7  1 -1</clus>
<clus scale="  129.265">  5 10 -1 -1</clus>
<clus scale="   49.010">  1  5  2 -1</clus>
</clustering>
</event>
<event>
10    2  0.5921424E-006  0.1929766E+03  0.7546771E-02  0.1185965E+00
         21   -1    0    0  503  502  0.00000000000E+00  0.00000000000E+00  0.11809158247E+03  0.11809158247E+03  0.00000000000E+00 0.  1.
          1   -1    0    0  502    0 -0.00000000000E+00 -0.00000000000E+00 -0.25032095133E+03  0.25032095133E+03  0.00000000000E+00 0. -1.
         23    2    1    2    0    0  0.23306640908E+02  0.14424814560E+01 -0.78403967216E+02  0.12309791540E+03  0.91981707077E+02 0.  0.
         23    2    1    2    0    0 -0.71434617376E+02 -0.46701972430E+02 -0.48528005760E+02  0.13451268762E+03  0.91949535069E+02 0.  0.
        -11    1    4    4    0    0 -0.64201511166E+02  0.89305454632E+01 -0.43763064720E+02  0.78209938703E+02  0.00000000000E+00 0. -1.
         11    1    4    4    0    0 -0.72331062104E+01 -0.55632517893E+02 -0.47649410406E+01  0.56302748918E+02  0.00000000000E+00 0.  1.
        -13    1    3    3    0    0  0.10553608514E+02 -0.27955711226E+02  0.80076354906E+01  0.30935782987E+02  0.00000000000E+00 0.  1.
         13    1    3    3    0    0  0.12753032394E+02  0.29398192682E+02 -0.86411602706E+02  0.92162132411E+02  0.00000000000E+00 0. -1.
         21    1    1    2  503  501  0.30394558546E+02 -0.24240617922E+02  0.34148924391E-01  0.38877215854E+02  0.00000000000E+00 0. -1.
          1    1    1    2  501    0  0.17733417923E+02  0.69500108896E+02 -0.53315448060E+01  0.71924714930E+02  0.00000000000E+00 0. -1.
<scales pt_clust_5="13000.00000" pt_clust_6="13000.00000" pt_clust_7="13000.00000" pt_clust_8="13000.00000" pt_clust_9="38.87720" pt_clust_10="13000.00000"></scales>
<clustering>
<clus scale="   38.877">  1  9  2 -1</clus>
<clus scale="   91.950">  5  6 -1 -1</clus>
<clus scale="   67.405">  5 10 -1 -1</clus>
<clus scale="   91.982">  7  8 -1 -1</clus>
<clus scale="   96.895">  2  7  1 -1</clus>
<clus scale="   38.877">  1  5  2 -1</clus>
</clustering>
</event>
<event>
10    2  0.5921424E-006  0.2862422E+03  0.7546771E-02  0.1113384E+00
          1   -1    0    0  502    0 -0.00000000000E+00  0.00000000000E+00  0.12734900833E+04  0.12734900833E+04  0.00000000000E+00 0. -1.
         21   -1    0    0  503  502  0.00000000000E+00 -0.00000000000E+00 -0.61076565162E+02  0.61076565162E+02  0.00000000000E+00 0. -1.
         23    2    1    2    0    0  0.91121662853E+02 -0.11041944475E+03  0.69520999529E+03  0.71561056336E+03  0.91027081790E+02 0.  0.
         23    2    1    2    0    0 -0.20863637161E+02 -0.37598721812E+02  0.35041772180E+03  0.36528739616E+03  0.93772846849E+02 0.  0.
        -11    1    3    3    0    0  0.64159561088E+02 -0.12259950118E+03  0.52959291031E+03  0.54737166315E+03  0.00000000000E+00 0. -1.
         11    1    3    3    0    0  0.26962101765E+02  0.12180056429E+02  0.16561708498E+03  0.16823890021E+03  0.00000000000E+00 0.  1.
        -11    1    4    4    0    0  0.37248016853E+02 -0.12955666100E+02  0.15442483348E+03  0.15938096888E+03  0.00000000000E+00 0.  1.
         11    1    4    4    0    0 -0.58111654014E+02 -0.24643055712E+02  0.19599288832E+03  0.20590642729E+03  0.00000000000E+00 0. -1.
         21    1    1    2  503  501 -0.19456444735E+02  0.74492286971E+01 -0.92011745385E+01  0.22775114990E+02  0.00000000000E+00 0. -1.
          1    1    1    2  501    0 -0.50801580957E+02  0.14056893787E+03  0.17598697564E+03  0.23089357400E+03  0.00000000000E+00 0. -1.
<scales pt_clust_5="13000.00000" pt_clust_6="13000.00000" pt_clust_7="13000.00000" pt_clust_8="13000.00000" pt_clust_9="20.83373" pt_clust_10="13000.00000"></scales>
<clustering>
<clus scale="   20.834">  2  9  1 -1</clus>
<clus scale="   91.027">  5  6 -1 -1</clus>
<clus scale="   93.773">  7  8 -1 -1</clus>
<clus scale="  158.051">  7 10 -1 -1</clus>
<clus scale="  166.221">  1  5  2 -1</clus>
<clus scale="   20.834">  2  5  1 -1</clus>
</clustering>
</event>
<event>
10    2  0.5921424E-006  0.3281091E+03  0.7546771E-02  0.1114354E+00
         21   -1    0    0  503  502  0.00000000000E+00  0.00000000000E+00  0.19640196696E+03  0.19640196696E+03  0.00000000000E+00 0.  1.
         -3   -1    0    0    0  501 -0.00000000000E+00 -0.00000000000E+00 -0.37858059155E+03  0.37858059155E+03  0.00000000000E+00 0.  1.
         23    2    1    2    0    0 -0.57690694711E+02  0.15983135386E+00 -0.37937134165E+02  0.11538826947E+03  0.92449904167E+02 0.  0.
         23    2    1    2    0    0  0.64073176271E+02  0.14494361955E+03 -0.19545828513E+03  0.26767467343E+03  0.91278501313E+02 0.  0.
        -11    1    3    3    0    0 -0.58289982987E+02  0.38196985734E+02 -0.32724012682E+02  0.76990862067E+02  0.00000000000E+00 0.  1.
         11    1    3    3    0    0  0.59928827580E+00 -0.38037154380E+02 -0.52131214834E+01  0.38397407404E+02  0.00000000000E+00 0. -1.
        -13    1    4    4    0    0  0.47237053360E+02  0.15581092737E+03 -0.17252057882E+03  0.23721664026E+03  0.00000000000E+00 0.  1.
         13    1    4    4    0    0  0.16836122911E+02 -0.10867307818E+02 -0.22937706308E+02  0.30458033170E+02  0.00000000000E+00 0. -1.
         21    1    1    2  503  501  0.99061008115E+01 -0.25665403465E+02  0.65008094210E+02  0.70589631541E+02  0.00000000000E+00 0.  1.
         -3    1    1    2    0  502 -0.16288582371E+02 -0.11943804744E+03 -0.13791299510E+02  0.12132998407E+03  0.00000000000E+00 0.  1.
<scales pt_clust_5="13000.00000" pt_clust_6="13000.00000" pt_clust_7="13000.00000" pt_clust_8="13000.00000" pt_clust_9="27.51079" pt_clust_10="13000.00000"></scales>
<clustering>
<clus scale="   27.511">  1  9  2 -1</clus>
<clus scale="   91.279">  7  8 -1 -1</clus>
<clus scale="   92.450">  5  6 -1 -1</clus>
<clus scale="  107.690">  2  5  1 -1</clus>
<clus scale="  134.908">  7 10 -1 -1</clus>
<clus scale="   27.511">  1  5  2 -1</clus>
</clustering>
</event>
<event>
10    2  0.5921424E-006  0.4316699E+03  0.7546771E-02  0.1055219E+00
         21   -1    0    0  503  502  0.00000000000E+00  0.00000000000E+00  0.28227523948E+03  0.28227523948E+03  0.00000000000E+00 0. -1.
          2   -1    0    0  502    0 -0.00000000000E+00 -0.00000000000E+00 -0.17102757013E+04  0.17102757013E+04  0.00000000000E+00 0. -1.
         23    2    1    2    0    0  0.13213575729E+03 -0.20232167845E+03 -0.30708455229E+03  0.40136288804E+03  0.91636923292E+02 0.  0.
         23    2    1    2    0    0  0.58434860751E+02  0.15799807426E+02 -0.11791216459E+03  0.16210382126E+03  0.93327934953E+02 0.  0.
        -11    1    4    4    0    0  0.31824315145E+02  0.93514172526E+01  0.72742218655E+01  0.33958067419E+02  0.00000000000E+00 0.  1.
         11    1    4    4    0    0  0.26610545607E+02  0.64483901734E+01 -0.12518638646E+03  0.12814575384E+03  0.00000000000E+00 0. -1.
        -11    1    3    3    0    0  0.43454276005E+02 -0.96451171486E+01 -0.36563085156E+02  0.57603485867E+02  0.00000000000E+00 0. -1.
         11    1    3    3    0    0  0.88681481285E+02 -0.19267656130E+03 -0.27052146714E+03  0.34375940217E+03  0.00000000000E+00 0.  1.
         21    1    1    2  503  501  0.12949593998E+02  0.76531931573E+02  0.19451223241E+03  0.20942740291E+03  0.00000000000E+00 0. -1.
          2    1    1    2  501    0 -0.20352021204E+03  0.10998993945E+03 -0.11975159774E+04  0.12196568286E+04  0.00000000000E+00 0. -1.
<scales pt_clust_5="13000.00000" pt_clust_6="13000.00000" pt_clust_7="13000.00000" pt_clust_8="13000.00000" pt_clust_9="77.61977" pt_clust_10="13000.00000"></scales>
<clustering>
<clus scale="   77.620">  1  9  2 -1</clus>
<clus scale="   91.637">  7  8 -1 -1</clus>
<clus scale="   93.328">  5  6 -1 -1</clus>
<clus scale="  229.560">  2  7  1 -1</clus>
<clus scale="   80.485">  5 10 -1 -1</clus>
<clus scale="   77.620">  1  5  2 -1</clus>
</clustering>
</event>
<event>
10    2  0.5921424E-006  0.1537413E+03  0.7546771E-02  0.1210060E+00
         21   -1    0    0  503  502  0.00000000000E+00  0.00000000000E+00  0.82495147104E+02  0.82495147104E+02  0.00000000000E+00 0. -1.
          2   -1    0    0  502    0 -0.00000000000E+00 -0.00000000000E+00 -0.48930982676E+03  0.48930982676E+03  0.00000000000E+00 0. -1.
         23    2    1    2    0    0  0.56225577496E+02 -0.38985881970E+02 -0.31388167980E+03  0.33442334772E+03  0.92930361192E+02 0.  0.
         23    2    1    2    0    0 -0.87209465849E+00  0.14016737478E+02 -0.18282365304E+02  0.92678710675E+02  0.89765634029E+02 0.  0.
        -13    1    4    4    0    0  0.25772897448E+02  0.19567064556E+02  0.25450387843E+02  0.41168367706E+02  0.00000000000E+00 0. -1.
         13    1    4    4    0    0 -0.26644992106E+02 -0.55503270780E+01 -0.43732753147E+02  0.51510342969E+02  0.00000000000E+00 0.  1.
        -13    1    3    3    0    0 -0.22683386671E+02  0.73079460238E+01 -0.70123625422E+02  0.74062574545E+02  0.00000000000E+00 0.  1.
         13    1    3    3    0    0  0.78908964167E+02 -0.46293827994E+02 -0.24375805438E+03  0.26036077318E+03  0.00000000000E+00 0. -1.
         21    1    1    2  503  501 -0.71340643447E+00  0.47333121804E+02 -0.71279653859E+02  0.85567063889E+02  0.00000000000E+00 0. -1.
          2    1    1    2  501    0 -0.54640076403E+02 -0.22363977311E+02 -0.33709806899E+01  0.59135851573E+02  0.00000000000E+00 0. -1.
<scales pt_clust_5="13000.00000" pt_clust_6="13000.00000" pt_clust_7="13000.00000" pt_clust_8="13000.00000" pt_clust_9="47.33852" pt_clust_10="13000.00000"></scales>
<clustering>
<clus scale="   47.339">  1  9  2 -1</clus>
<clus scale="   89.766">  5  6 -1 -1</clus>
<clus scale="   55.118">  5 10 -1 -1</clus>
<clus scale="   92.930">  7  8 -1 -1</clus>
<clus scale="  113.335">  2  7  1 -1</clus>
<clus scale="   47.339">  1  5  2 -1</clus>
</clustering>
</event>
<event>
10    2  0.5921424E-006  0.4187727E+03  0.7546771E-02  0.1070011E+00
          2   -1    0    0  503    0 -0.00000000000E+00  0.00000000000E+00  0.53987262884E+03  0.53987262884E+03  0.00000000000E+00 0. -1.
         21   -1    0    0  501  502  0.00000000000E+00 -0.00000000000E+00 -0.36283371434E+03  0.36283371434E+03  0.00000000000E+00 0. -1.
         23    2    1    2    0    0  0.13276488350E+02  0.14956366675E+03  0.12327255727E+03  0.21199611091E+03  0.84856774096E+02 0.  0.
         23    2    1    2    0    0  0.11517773348E+02  0.50183358604E+02  0.28658981961E+03  0.30602781407E+03  0.94171490891E+02 0.  0.
        -11    1    4    4    0    0  0.24914244423E+02 -0.16844923654E+02  0.15342042775E+03  0.15634032967E+03  0.00000000000E+00 0.  1.
         11    1    4    4    0    0 -0.13396471075E+02  0.67028282258E+02  0.13316939186E+03  0.14968748441E+03  0.00000000000E+00 0. -1.
        -13    1    3    3    0    0  0.48587510249E+02  0.68114253470E+02  0.57873069519E+02  0.10173293397E+03  0.00000000000E+00 0.  1.
         13    1    3    3    0    0 -0.35311021899E+02  0.81449413285E+02  0.65399487752E+02  0.11026317695E+03  0.00000000000E+00 0. -1.
         21    1    1    2  503  502  0.11791092367E+02 -0.25928558326E+02 -0.20249056518E+03  0.20448410447E+03  0.00000000000E+00 0. -1.
          2    1    1    2  501    0 -0.36585354065E+02 -0.17381846703E+03 -0.30332897200E+02  0.18019831372E+03  0.00000000000E+00 0. -1.
<scales pt_clust_5="13000.00000" pt_clust_6="13000.00000" pt_clust_7="13000.00000" pt_clust_8="13000.00000" pt_clust_9="28.48368" pt_clust_10="13000.00000"></scales>
<clustering>
<clus scale="   28.484">  2  9  1 -1</clus>
<clus scale="   84.857">  7  8 -1 -1</clus>
<clus scale="   94.171">  5  6 -1 -1</clus>
<clus scale="  166.544">  1  7  2 -1</clus>
<clus scale="  159.585">  5 10 -1 -1</clus>
<clus scale="   28.484">  2  5  1 -1</clus>
</clustering>
</event>
<event>
10    2  0.5921424E-006  0.1203759E+03  0.7546771E-02  0.1254438E+00
          3   -1    0    0  503    0 -0.00000000000E+00  0.00000000000E+00  0.34374731479E+03  0.34374731479E+03  0.00000000000E+00 0. -1.
         21   -1    0    0  501  502  0.00000000000E+00 -0.00000000000E+00 -0.11819853217E+03  0.11819853217E+03  0.00000000000E+00 0.  1.
         23    2    1    2    0    0  0.34284781300E+01 -0.27469158570E+01  0.80972387670E+02  0.12296923498E+03  0.92442442513E+02 0.  0.
         23    2    1    2    0    0 -0.85480791299E+01 -0.69887638672E+01  0.19276226733E+03  0.21393207783E+03  0.92128875707E+02 0.  0.
        -13    1    3    3    0    0  0.29259538931E+02 -0.38508306204E+02  0.39978973439E+02  0.62748136087E+02  0.00000000000E+00 0.  1.
         13    1    3    3    0    0 -0.25831060801E+02  0.35761390347E+02  0.40993414231E+02  0.60221098894E+02  0.00000000000E+00 0. -1.
        -13    1    4    4    0    0  0.31775364604E+02  0.24046664848E+02  0.10740373234E+03  0.11455774791E+03  0.00000000000E+00 0.  1.
         13    1    4    4    0    0 -0.40323443734E+02 -0.31035428716E+02  0.85358534997E+02  0.99374329920E+02  0.00000000000E+00 0. -1.
         21    1    1    2  503  502  0.29510407327E+02 -0.29407049568E+01 -0.78624076231E+02  0.84031287325E+02  0.00000000000E+00 0.  1.
          3    1    1    2  501    0 -0.24390806327E+02  0.12676384681E+02  0.30438203843E+02  0.41013246824E+02  0.00000000000E+00 0. -1.
<scales pt_clust_5="13000.00000" pt_clust_6="13000.00000" pt_clust_7="13000.00000" pt_clust_8="13000.00000" pt_clust_9="29.65657" pt_clust_10="13000.00000"></scales>
<clustering>
<clus scale="   29.657">  2  9  1 -1</clus>
<clus scale="   92.129">  7  8 -1 -1</clus>
<clus scale="   23.591">  7 10 -1 -1</clus>
<clus scale="   92.442">  5  6 -1 -1</clus>
<clus scale="   94.734">  1  5  2 -1</clus>
<clus scale="   29.657">  2  5  1 -1</clus>
</clustering>
</event>
<event>
10    2  0.5921424E-006  0.5300210E+03  0.7546771E-02  0.1028049E+00
         21   -1    0    0  503  502  0.00000000000E+00  0.00000000000E+00  0.38317437404E+03  0.38317437404E+03  0.00000000000E+00 0. -1.
          1   -1    0    0  502    0 -0.00000000000E+00 -0.00000000000E+00 -0.76734551580E+03  0.76734551580E+03  0.00000000000E+00 0. -1.
         23    2    1    2    0    0  0.10919231428E+03 -0.24438033409E+03 -0.25622811968E+03  0.38169211846E+03  0.91604119949E+02 0.  0.
         23    2    1    2    0    0  0.16118292713E+03  0.25039004366E+02 -0.16764112126E+03  0.25126082471E+03  0.91769105689E+02 0.  0.
        -11    1    3    3    0    0 -0.98169080867E+01 -0.68607656832E+02 -0.79616508183E+02  0.10555648078E+03  0.00000000000E+00 0.  1.
         11    1    3    3    0    0  0.11900922236E+03 -0.17577267726E+03 -0.17661161150E+03  0.27613563767E+03  0.00000000000E+00 0. -1.
        -11    1    4    4    0    0  0.14928599415E+03  0.46158714871E+02 -0.16438601227E+03  0.22680320993E+03  0.00000000000E+00 0. -1.
         11    1    4    4    0    0  0.11896932982E+02 -0.21119710505E+02 -0.32551089994E+01  0.24457614781E+02  0.00000000000E+00 0.  1.
         21    1    1    2  503  501 -0.64359776839E+01  0.37252620401E+02  0.16799573999E+03  0.17219682980E+03  0.00000000000E+00 0. -1.
          1    1    1    2  501    0 -0.26393926372E+03  0.18208870932E+03 -0.12829764081E+03  0.34537011688E+03  0.00000000000E+00 0. -1.
<scales pt_clust_5="13000.00000" pt_clust_6="13000.00000" pt_clust_7="13000.00000" pt_clust_8="13000.00000" pt_clust_9="37.80449" pt_clust_10="13000.00000"></scales>
<clustering>
<clus scale="   37.804">  1  9  2 -1</clus>
<clus scale="   91.604">  5  6 -1 -1</clus>
<clus scale="   91.769">  7  8 -1 -1</clus>
<clus scale="  272.737">  2  5  1 -1</clus>
<clus scale="  220.380">  7 10 -1 -1</clus>
<clus scale="   37.804">  1  5  2 -1</clus>
</clustering>
</event>
<event>
10    2  0.5921424E-006  0.2195803E+03  0.7546771E-02  0.1171545E+00
         21   -1    0    0  503  502  0.00000000000E+00  0.00000000000E+00  0.84542199986E+02  0.84542199986E+02  0.00000000000E+00 0. -1.
          2   -1    0    0  502    0 -0.00000000000E+00 -0.00000000000E+00 -0.69697281545E+03  0.69697281545E+03  0.00000000000E+00 0. -1.
         23    2    1    2    0    0  0.70494834041E+01  0.34136514366E+01 -0.23426451546E+03  0.25119110685E+03  0.90309250501E+02 0.  0.
         23    2    1    2    0    0 -0.57291790219E+02  0.30665601319E+02 -0.42582485858E+03  0.44034327411E+03  0.91392891082E+02 0.  0.
        -11    1    4    4    0    0  0.78692312966E+01  0.44558165973E+02 -0.15752025720E+03  0.16389016561E+03  0.00000000000E+00 0.  1.
         11    1    4    4    0    0 -0.65161021515E+02 -0.13892564653E+02 -0.26830460138E+03  0.27645310850E+03  0.00000000000E+00 0. -1.
        -11    1    3    3    0    0  0.11667264796E+02 -0.33057348212E+02 -0.19200633304E+03  0.19518028913E+03  0.00000000000E+00 0.  1.
         11    1    3    3    0    0 -0.46177813919E+01  0.36470999649E+02 -0.42258182424E+02  0.56010817724E+02  0.00000000000E+00 0. -1.
         21    1    1    2  503  501  0.17888983379E+02 -0.13506466976E+02  0.46502537325E+02  0.51622924696E+02  0.00000000000E+00 0. -1.
          2    1    1    2  501    0  0.32353323435E+02 -0.20572785780E+02  0.11562212461E+01  0.38357709780E+02  0.00000000000E+00 0. -1.
<scales pt_clust_5="13000.00000" pt_clust_6="13000.00000" pt_clust_7="13000.00000" pt_clust_8="13000.00000" pt_clust_9="22.41518" pt_clust_10="13000.00000"></scales>
<clustering>
<clus scale="   22.415">  1  9  2 -1</clus>
<clus scale="   90.309">  7  8 -1 -1</clus>
<clus scale="   91.016">  2  7  1 -1</clus>
<clus scale="   91.393">  5  6 -1 -1</clus>
<clus scale="   51.542">  5 10 -1 -1</clus>
<clus scale="   22.415">  1  5  2 -1</clus>
</clustering>
</event>
<event>
10    2  0.5921424E-006  0.2050305E+03  0.7546771E-02  0.1173505E+00
          2   -1    0    0  503    0 -0.00000000000E+00  0.00000000000E+00  0.83387009286E+02  0.83387009286E+02  0.00000000000E+00 0. -1.
         21   -1    0    0  501  502  0.00000000000E+00 -0.00000000000E+00 -0.70904384675E+03  0.70904384675E+03  0.00000000000E+00 0. -1.
         23    2    1    2    0    0 -0.44151577291E+02 -0.36110558538E+02 -0.55650025400E+02  0.12053553036E+03  0.90435361095E+02 0.  0.
         23    2    1    2    0    0 -0.25489014505E+02  0.57563907200E+02 -0.11506821504E+03  0.17444842945E+03  0.11501420413E+03 0.  0.
        -13    1    3    3    0    0 -0.28156499487E+02 -0.62514569315E+02 -0.57679582100E+02  0.89597957740E+02  0.00000000000E+00 0. -1.
         13    1    3    3    0    0 -0.15995077805E+02  0.26404010777E+02  0.20295567001E+01  0.30937572618E+02  0.00000000000E+00 0.  1.
        -13    1    4    4    0    0 -0.68285808185E+01  0.71774889082E+02 -0.12855428834E+03  0.14739222934E+03  0.00000000000E+00 0.  1.
         13    1    4    4    0    0 -0.18660433687E+02 -0.14210981882E+02  0.13486073300E+02  0.27056200112E+02  0.00000000000E+00 0. -1.
         21    1    1    2  503  502  0.12955166875E+03 -0.33599848956E+02 -0.36442388805E+03  0.38822333123E+03  0.00000000000E+00 0. -1.
          2    1    1    2  501    0 -0.59911076953E+02  0.12146500294E+02 -0.90514708972E+02  0.10922356500E+03  0.00000000000E+00 0. -1.
<scales pt_clust_5="13000.00000" pt_clust_6="13000.00000" pt_clust_7="13000.00000" pt_clust_8="13000.00000" pt_clust_9="126.43084" pt_clust_10="13000.00000"></scales>
<clustering>
<clus scale="   90.435">  5  6 -1 -1</clus>
<clus scale="  106.920">  1  5  2 -1</clus>
<clus scale="  115.014">  7  8 -1 -1</clus>
<clus scale="   68.242">  7 10 -1 -1</clus>
<clus scale="  126.431">  2  9  1 -1</clus>
<clus scale="  126.431">  2  5  1 -1</clus>
</clustering>
</event>
<event>
10    2  0.5921424E-006  0.2290855E+03  0.7546771E-02  0.1155975E+00
          1   -1    0    0  503    0 -0.00000000000E+00  0.00000000000E+00  0.70858011941E+03  0.70858011941E+03  0.00000000000E+00 0. -1.
         21   -1    0    0  501  502  0.00000000000E+00 -0.00000000000E+00 -0.91450336057E+02  0.91450336057E+02  0.00000000000E+00 0.  1.
         23    2    1    2    0    0 -0.67390929522E+02 -0.14696375787E+02  0.92323703165E+02  0.14738833426E+03  0.91881086556E+02 0.  0.
         23    2    1    2    0    0  0.16017796281E+03  0.84702364937E+02  0.41664744800E+03  0.46352650408E+03  0.91816412847E+02 0.  0.
        -11    1    4    4    0    0  0.93442851265E+02  0.15097215023E+02  0.12798847005E+03  0.15918712517E+03  0.00000000000E+00 0. -1.
         11    1    4    4    0    0  0.66735111544E+02  0.69605149914E+02  0.28865897795E+03  0.30433937891E+03  0.00000000000E+00 0.  1.
        -13    1    3    3    0    0 -0.58703016668E+02 -0.48047481922E+02  0.42944247959E+02  0.87171171368E+02  0.00000000000E+00 0.  1.
         13    1    3    3    0    0 -0.86879128538E+01  0.33351106135E+02  0.49379455206E+02  0.60217162891E+02  0.00000000000E+00 0. -1.
         21    1    1    2  503  502 -0.76288757665E+02 -0.93046317405E+02  0.10657172751E+03  0.16073308568E+03  0.00000000000E+00 0.  1.
          1    1    1    2  501    0 -0.16498275622E+02  0.23040328255E+02  0.15869046821E+01  0.28382531442E+02  0.00000000000E+00 0. -1.
<scales pt_clust_5="13000.00000" pt_clust_6="13000.00000" pt_clust_7="13000.00000" pt_clust_8="13000.00000" pt_clust_9="132.95850" pt_clust_10="13000.00000"></scales>
<clustering>
<clus scale="   91.816">  5  6 -1 -1</clus>
<clus scale="   28.338">  5 10 -1 -1</clus>
<clus scale="   91.881">  7  8 -1 -1</clus>
<clus scale="  114.890">  1  7  2 -1</clus>
<clus scale="  132.959">  2  9  1 -1</clus>
<clus scale="  132.959">  2  5  1 -1</clus>
</clustering>
</event>
<event>
10    2  0.5921424E-006  0.2149526E+03  0.7546771E-02  0.1173961E+00
         21   -1    0    0  503  502  0.00000000000E+00  0.00000000000E+00  0.31349255528E+03  0.31349255528E+03  0.00000000000E+00 0. -1.
          2   -1    0    0  502    0 -0.00000000000E+00 -0.00000000000E+00 -0.44838359792E+03  0.44838359792E+03  0.00000000000E+00 0. -1.
         23    2    1    2    0    0 -0.73447661499E+01 -0.23115456623E+02 -0.32207745302E+03  0.33481022196E+03  0.88180094468E+02 0.  0.
         23    2    1    2    0    0 -0.35002251134E+01  0.46535769274E+02 -0.92548752473E+02  0.14065082904E+03  0.95076572966E+02 0.  0.
        -11    1    4    4    0    0 -0.33392530961E+02 -0.14858651334E+02 -0.23000912608E+02  0.43184286775E+02  0.00000000000E+00 0.  1.
         11    1    4    4    0    0  0.29892305848E+02  0.61394420609E+02 -0.69547839865E+02  0.97466542263E+02  0.00000000000E+00 0. -1.
        -11    1    3    3    0    0 -0.46357739019E+02 -0.15347232545E+02 -0.21770346218E+03  0.22311291975E+03  0.00000000000E+00 0.  1.
         11    1    3    3    0    0  0.39012972869E+02 -0.77682240772E+01 -0.10437399084E+03  0.11169730221E+03  0.00000000000E+00 0. -1.
         21    1    1    2  503  501 -0.16803969402E+02 -0.18774560142E+02  0.20590322383E+03  0.20743913585E+03  0.00000000000E+00 0. -1.
          2    1    1    2  501    0  0.27648960666E+02 -0.46457525103E+01  0.73831939021E+02  0.78975966357E+02  0.00000000000E+00 0. -1.
<scales pt_clust_5="13000.00000" pt_clust_6="13000.00000" pt_clust_7="13000.00000" pt_clust_8="13000.00000" pt_clust_9="25.19638" pt_clust_10="13000.00000"></scales>
<clustering>
<clus scale="   25.196">  1  9  2 -1</clus>
<clus scale="   88.180">  7  8 -1 -1</clus>
<clus scale="   91.830">  2  7  1 -1</clus>
<clus scale="   95.077">  5  6 -1 -1</clus>
<clus scale="   24.290">  5 10 -1 -1</clus>
<clus scale="   25.196">  1  5  2 -1</clus>
</clustering>
</event>
<event>
10    2  0.5921424E-006  0.2192931E+03  0.7546771E-02  0.1169633E+00
         -2   -1    0    0    0  501 -0.00000000000E+00  0.00000000000E+00  0.12248318429E+03  0.12248318429E+03  0.00000000000E+00 0.  1.
         21   -1    0    0  503  502  0.00000000000E+00 -0.00000000000E+00 -0.54424632960E+03  0.54424632960E+03  0.00000000000E+00 0. -1.
         23    2    1    2    0    0 -0.31599270541E+02  0.12005013278E+02 -0.26741579013E+02  0.10289025459E+03  0.93427288297E+02 0.  0.
         23    2    1    2    0    0  0.12501449075E+02  0.47205824315E+02  0.43588344071E+02  0.11376611407E+03  0.93048959663E+02 0.  0.
        -13    1    3    3    0    0 -0.59318934394E+02  0.10230533498E+02  0.53682407710E+01  0.60433581743E+02  0.00000000000E+00 0.  1.
         13    1    3    3    0    0  0.27719663852E+02  0.17744797801E+01 -0.32109819784E+02  0.42456672846E+02  0.00000000000E+00 0. -1.
        -13    1    4    4    0    0  0.18110374758E+02 -0.25017964691E+02  0.22837493399E+02  0.38411395912E+02  0.00000000000E+00 0. -1.
         13    1    4    4    0    0 -0.56089256823E+01  0.72223789006E+02  0.20750850672E+02  0.75354718162E+02  0.00000000000E+00 0.  1.
         21    1    1    2  503  501  0.40936294188E+02 -0.22942668198E+02 -0.33305597060E+03  0.33634569383E+03  0.00000000000E+00 0. -1.
         -2    1    1    2    0  502 -0.21838472722E+02 -0.36268169395E+02 -0.10555393977E+03  0.11372745140E+03  0.00000000000E+00 0.  1.
<scales pt_clust_5="13000.00000" pt_clust_6="13000.00000" pt_clust_7="13000.00000" pt_clust_8="13000.00000" pt_clust_9="46.92703" pt_clust_10="13000.00000"></scales>
<clustering>
<clus scale="   46.927">  2  9  1 -1</clus>
<clus scale="   93.049">  7  8 -1 -1</clus>
<clus scale="   48.274">  7 10 -1 -1</clus>
<clus scale="   93.427">  5  6 -1 -1</clus>
<clus scale="   95.453">  1  5  2 -1</clus>
<clus scale="   46.927">  2  5  1 -1</clus>
</clustering>
</event>
<event>
10    2  0.5921424E-006  0.3096049E+03  0.7546771E-02  0.1126065E+00
         21   -1    0    0  501  502  0.00000000000E+00  0.00000000000E+00  0.30826593260E+03  0.30826593260E+03  0.00000000000E+00 0.  1.
         -3   -1    0    0    0  501 -0.00000000000E+00 -0.00000000000E+00 -0.39412451296E+03  0.39412451296E+03  0.00000000000E+00 0.  1.
         23    2    1    2    0    0 -0.13903099983E+02  0.45587713314E+02 -0.49256774052E+02  0.11310699633E+03  0.89974591049E+02 0.  0.
         23    2    1    2    0    0 -0.24952689746E+02  0.35849658172E+02 -0.29227064566E+03  0.30932107584E+03  0.91375942820E+02 0.  0.
        -11    1    4    4    0    0  0.24000008902E+02  0.36027085683E+02 -0.74932149553E+02  0.86537727996E+02  0.00000000000E+00 0.  1.
         11    1    4    4    0    0 -0.48952698649E+02 -0.17742751063E+00 -0.21733849611E+03  0.22278334785E+03  0.00000000000E+00 0. -1.
        -13    1    3    3    0    0 -0.29337532216E+02 -0.76083743645E+01  0.10074878026E+02  0.31938712001E+02  0.00000000000E+00 0. -1.
         13    1    3    3    0    0  0.15434432233E+02  0.53196087679E+02 -0.59331652078E+02  0.81168284330E+02  0.00000000000E+00 0.  1.
         21    1    1    2  503  502 -0.11751434913E+01 -0.56077213111E+02  0.19542110521E+03  0.20331119781E+03  0.00000000000E+00 0.  1.
         -3    1    1    2    0  503  0.40030933221E+02 -0.25360158375E+02  0.60247734152E+02  0.76651175580E+02  0.00000000000E+00 0.  1.
<scales pt_clust_5="13000.00000" pt_clust_6="13000.00000" pt_clust_7="13000.00000" pt_clust_8="13000.00000" pt_clust_9="56.08952" pt_clust_10="13000.00000"></scales>
<clustering>
<clus scale="   56.090">  1  9  2 -1</clus>
<clus scale="   89.975">  7  8 -1 -1</clus>
<clus scale="   91.376">  5  6 -1 -1</clus>
<clus scale="   72.230">  5 10 -1 -1</clus>
<clus scale="   95.645">  2  7  1 -1</clus>
<clus scale="   56.090">  1  5  2 -1</clus>
</clustering>
</event>
<event>
10    2  0.5921424E-006  0.3544015E+03  0.7546771E-02  0.1101734E+00
         21   -1    0    0  503  502  0.00000000000E+00  0.00000000000E+00  0.17289722598E+03  0.17289722598E+03  0.00000000000E+00 0. -1.
          2   -1    0    0  502    0 -0.00000000000E+00 -0.00000000000E+00 -0.15618597916E+04  0.15618597916E+04  0.00000000000E+00 0. -1.
         23    2    1    2    0    0 -0.73653138243E+02  0.16590262667E+02 -0.49518611409E+03  0.50895063344E+03  0.90119021880E+02 0.  0.
         23    2    1    2    0    0  0.11651711922E+03 -0.83150430873E+02 -0.31534339261E+03  0.36877795914E+03  0.12674973237E+03 0.  0.
        -11    1    3    3    0    0 -0.25493794889E+02 -0.36264935170E+02 -0.23352304646E+03  0.23769327362E+03  0.00000000000E+00 0.  1.
         11    1    3    3    0    0 -0.48159343354E+02  0.52855197838E+02 -0.26166306764E+03  0.27125735982E+03  0.00000000000E+00 0. -1.
        -13    1    4    4    0    0  0.77127587001E+02 -0.22957417925E+02 -0.52058210082E+02  0.95842396419E+02  0.00000000000E+00 0.  1.
         13    1    4    4    0    0  0.39389532223E+02 -0.60193012947E+02 -0.26328518253E+03  0.27293556272E+03  0.00000000000E+00 0. -1.
         21    1    1    2  503  501 -0.78771202831E+01 -0.21710099959E+02  0.13517366465E+03  0.13713240711E+03  0.00000000000E+00 0. -1.
          2    1    1    2  501    0 -0.34986860698E+02  0.88270268164E+02 -0.71360672352E+03  0.71989601785E+03  0.00000000000E+00 0. -1.
<scales pt_clust_5="13000.00000" pt_clust_6="13000.00000" pt_clust_7="13000.00000" pt_clust_8="13000.00000" pt_clust_9="23.09497" pt_clust_10="13000.00000"></scales>
<clustering>
<clus scale="   23.095">  1  9  2 -1</clus>
<clus scale="   90.119">  5  6 -1 -1</clus>
<clus scale="  117.994">  2  5  1 -1</clus>
<clus scale="  126.750">  7  8 -1 -1</clus>
<clus scale="  127.350">  7 10 -1 -1</clus>
<clus scale="   23.095">  1  5  2 -1</clus>
</clustering>
</event>
<event>
10    2  0.5921424E-006  0.3474533E+03  0.7546771E-02  0.1106182E+00
          2   -1    0    0  502    0 -0.00000000000E+00  0.00000000000E+00  0.50788976955E+03  0.50788976955E+03  0.00000000000E+00 0. -1.
         21   -1    0    0  503  502  0.00000000000E+00 -0.00000000000E+00 -0.18169554553E+03  0.18169554553E+03  0.00000000000E+00 0. -1.
         23    2    1    2    0    0 -0.33204339490E+02  0.45563917008E+02  0.13939967975E+03  0.17651507963E+03  0.92448385224E+02 0.  0.
         23    2    1    2    0    0 -0.76551503656E+02 -0.22895349778E+02  0.24788532828E+03  0.27645839189E+03  0.92724197035E+02 0.  0.
        -11    1    3    3    0    0  0.22078221395E+02  0.40131379361E+02  0.32886274755E+02  0.56386900399E+02  0.00000000000E+00 0. -1.
         11    1    3    3    0    0 -0.55282560884E+02  0.54325376472E+01  0.10651340499E+03  0.12012817924E+03  0.00000000000E+00 0.  1.
        -11    1    4    4    0    0 -0.18817359137E+02  0.27035747489E+02  0.26476533723E+02  0.42261465724E+02  0.00000000000E+00 0.  1.
         11    1    4    4    0    0 -0.57734144519E+02 -0.49931097267E+02  0.22140879456E+03  0.23419692617E+03  0.00000000000E+00 0. -1.
         21    1    1    2  503  501 -0.44403481251E+02  0.12372572264E+02 -0.63542750326E+02  0.78501151651E+02  0.00000000000E+00 0. -1.
          2    1    1    2  501    0  0.15415932440E+03 -0.35041139494E+02  0.24519663173E+01  0.15811069190E+03  0.00000000000E+00 0. -1.
<scales pt_clust_5="13000.00000" pt_clust_6="13000.00000" pt_clust_7="13000.00000" pt_clust_8="13000.00000" pt_clust_9="46.09501" pt_clust_10="13000.00000"></scales>
<clustering>
<clus scale="   46.095">  2  9  1 -1</clus>
<clus scale="   92.448">  5  6 -1 -1</clus>
<clus scale="   92.724">  7  8 -1 -1</clus>
<clus scale="  111.663">  1  5  2 -1</clus>
<clus scale="  117.300">  7 10 -1 -1</clus>
<clus scale="   46.095">  2  5  1 -1</clus>
</clustering>
</event>
<event>
10    2  0.5921424E-006  0.2887323E+03  0.7546771E-02  0.1128736E+00
         21   -1    0    0  503  502  0.00000000000E+00  0.00000000000E+00  0.16487094807E+03  0.16487094807E+03  0.00000000000E+00 0. -1.
          1   -1    0    0  502    0 -0.00000000000E+00 -0.00000000000E+00 -0.13121712811E+04  0.13121712811E+04  0.00000000000E+00 0. -1.
         23    2    1    2    0    0 -0.14160521024E+02 -0.63877185936E+02 -0.41046152288E+03  0.42585981834E+03  0.92720590338E+02 0.  0.
         23    2    1    2    0    0  0.66137724077E+02 -0.62919726755E+02 -0.65476573165E+03  0.67101530554E+03  0.11493600984E+03 0.  0.
        -11    1    4    4    0    0 -0.32790022586E+02 -0.12638416110E+02 -0.13173955836E+03  0.13634598043E+03  0.00000000000E+00 0.  1.
         11    1    4    4    0    0  0.98927746663E+02 -0.50281310645E+02 -0.52302617330E+03  0.53466932511E+03  0.00000000000E+00 0. -1.
        -13    1    3    3    0    0  0.31254990556E+02  0.48107627975E+00 -0.74582801942E+02  0.80868412960E+02  0.00000000000E+00 0. -1.
         13    1    3    3    0    0 -0.45415511579E+02 -0.64358262216E+02 -0.33587872093E+03  0.34499140538E+03  0.00000000000E+00 0.  1.
         21    1    1    2  503  501 -0.13974260906E+00  0.22448732550E+02  0.13336440612E+03  0.13524063717E+03  0.00000000000E+00 0. -1.
          1    1    1    2  501    0 -0.51837460444E+02  0.10434818014E+03 -0.21543748460E+03  0.24492646810E+03  0.00000000000E+00 0. -1.
<scales pt_clust_5="13000.00000" pt_clust_6="13000.00000" pt_clust_7="13000.00000" pt_clust_8="13000.00000" pt_clust_9="22.44917" pt_clust_10="13000.00000"></scales>
<clustering>
<clus scale="   22.449">  1  9  2 -1</clus>
<clus scale="   92.721">  7  8 -1 -1</clus>
<clus scale="  110.402">  2  7  1 -1</clus>
<clus scale="  114.936">  5  6 -1 -1</clus>
<clus scale="  112.793">  5 10 -1 -1</clus>
<clus scale="   22.449">  1  5  2 -1</clus>
</clustering>
</event>
<event>
10    2  0.5921424E-006  0.3284062E+03  0.7546771E-02  0.1103071E+00
          3   -1    0    0  503    0 -0.00000000000E+00  0.00000000000E+00  0.54579691710E+03  0.54579691710E+03  0.00000000000E+00 0. -1.
         21   -1    0    0  501  502  0.00000000000E+00 -0.00000000000E+00 -0.14771547590E+03  0.14771547590E+03  0.00000000000E+00 0. -1.
         23    2    1    2    0    0 -0.11130484025E+03 -0.50420363301E+01  0.26533956162E+03  0.30197145230E+03  0.91473960530E+02 0.  0.
         23    2    1    2    0    0  0.17822480374E+03  0.50225494009E+02  0.22203071848E+02  0.20694807321E+03  0.89709797065E+02 0.  0.
        -11    1    3    3    0    0 -0.18637827088E+02 -0.36919467067E+02  0.46734383648E+02  0.62406075522E+02  0.00000000000E+00 0.  1.
         11    1    3    3    0    0 -0.92667013157E+02  0.31877430737E+02  0.21860517797E+03  0.23956537678E+03  0.00000000000E+00 0. -1.
        -13    1    4    4    0    0  0.13821485816E+03  0.76068099628E+02  0.11875159439E+02  0.15821100534E+03  0.00000000000E+00 0. -1.
         13    1    4    4    0    0  0.40009945581E+02 -0.25842605618E+02  0.10327912409E+02  0.48737067877E+02  0.00000000000E+00 0.  1.
         21    1    1    2  503  502  0.89402473488E+01 -0.19446186393E+02 -0.21382774039E+02  0.30254011527E+02  0.00000000000E+00 0. -1.
          3    1    1    2  501    0 -0.75860210845E+02 -0.25737271286E+02  0.13192158177E+03  0.15433885596E+03  0.00000000000E+00 0. -1.
<scales pt_clust_5="13000.00000" pt_clust_6="13000.00000" pt_clust_7="13000.00000" pt_clust_8="13000.00000" pt_clust_9="21.40285" pt_clust_10="13000.00000"></scales>
<clustering>
<clus scale="   21.403">  2  9  1 -1</clus>
<clus scale="   89.710">  7  8 -1 -1</clus>
<clus scale="   79.927">  7 10 -1 -1</clus>
<clus scale="   91.474">  5  6 -1 -1</clus>
<clus scale="  143.257">  1  5  2 -1</clus>
<clus scale="   21.403">  2  5  1 -1</clus>
</clustering>
</event>
<event>
10    2  0.5921424E-006  0.5584690E+03  0.7546771E-02  0.1011659E+00
          1   -1    0    0  503    0 -0.00000000000E+00  0.00000000000E+00  0.98917380086E+03  0.98917380086E+03  0.00000000000E+00 0. -1.
         21   -1    0    0  501  502  0.00000000000E+00 -0.00000000000E+00 -0.27505886855E+03  0.27505886855E+03  0.00000000000E+00 0. -1.
         23    2    1    2    0    0  0.37942048778E+03 -0.44956763876E+02  0.36169041057E+03  0.53408982545E+03  0.91929165052E+02 0.  0.
         23    2    1    2    0    0 -0.81531398316E+02 -0.69994115255E+02  0.35846004503E+03  0.38507741106E+03  0.90799028350E+02 0.  0.
        -11    1    4    4    0    0  0.36492010709E+01 -0.47803801773E+02  0.82500960870E+02  0.95419749931E+02  0.00000000000E+00 0. -1.
         11    1    4    4    0    0 -0.85180599387E+02 -0.22190313482E+02  0.27595908416E+03  0.28965766113E+03  0.00000000000E+00 0.  1.
        -13    1    3    3    0    0  0.24180276900E+03 -0.69463009989E+02  0.20890915991E+03  0.32701181316E+03  0.00000000000E+00 0. -1.
         13    1    3    3    0    0  0.13761771878E+03  0.24506246113E+02  0.15278125066E+03  0.20707801229E+03  0.00000000000E+00 0.  1.
         21    1    1    2  503  502 -0.24589484153E+02  0.24489620994E+02 -0.42515797889E+02  0.54881484468E+02  0.00000000000E+00 0. -1.
          1    1    1    2  501    0 -0.27329960531E+03  0.90461258137E+02  0.36480274600E+02  0.29018394842E+03  0.00000000000E+00 0. -1.
<scales pt_clust_5="13000.00000" pt_clust_6="13000.00000" pt_clust_7="13000.00000" pt_clust_8="13000.00000" pt_clust_9="34.70424" pt_clust_10="13000.00000"></scales>
<clustering>
<clus scale="   34.704">  2  9  1 -1</clus>
<clus scale="   90.799">  5  6 -1 -1</clus>
<clus scale="   91.929">  7  8 -1 -1</clus>
<clus scale="  305.400">  5 10 -1 -1</clus>
<clus scale="  382.965">  1  7  2 -1</clus>
<clus scale="   34.704">  2  5  1 -1</clus>
</clustering>
</event>
<event>
10    2  0.5921424E-006  0.2329494E+03  0.7546771E-02  0.1152068E+00
         21   -1    0    0  503  502  0.00000000000E+00  0.00000000000E+00  0.40637872711E+02  0.40637872711E+02  0.00000000000E+00 0.  1.
         -2   -1    0    0    0  501 -0.00000000000E+00 -0.00000000000E+00 -0.17670251246E+04  0.17670251246E+04  0.00000000000E+00 0.  1.
         23    2    1    2    0    0  0.12522319161E+02  0.37895744053E+02 -0.47682712039E+03  0.49164307045E+03  0.11294206516E+03 0.  0.
         23    2    1    2    0    0  0.13207221851E+02 -0.72254354648E+02 -0.26850719343E+03  0.29303744529E+03  0.91540750190E+02 0.  0.
        -11    1    3    3    0    0 -0.46115680196E+02  0.49237700536E+00 -0.13072063891E+03  0.13861740090E+03  0.00000000000E+00 0.  1.
         11    1    3    3    0    0  0.58637999357E+02  0.37403367048E+02 -0.34610648149E+03  0.35302566955E+03  0.00000000000E+00 0. -1.
        -11    1    4    4    0    0  0.34789266378E+02 -0.81436244384E+02 -0.16891530430E+03  0.19072109212E+03  0.00000000000E+00 0. -1.
         11    1    4    4    0    0 -0.21582044527E+02  0.91818897356E+01 -0.99591889132E+02  0.10231635317E+03  0.00000000000E+00 0.  1.
         21    1    1    2  503  501  0.56081296670E+02  0.13428986277E+03 -0.67997968714E+03  0.69537849694E+03  0.00000000000E+00 0.  1.
         -2    1    1    2    0  502 -0.81810837682E+02 -0.99931252178E+02 -0.30107325092E+03  0.32760398462E+03  0.00000000000E+00 0.  1.
<scales pt_clust_5="13000.00000" pt_clust_6="13000.00000" pt_clust_7="13000.00000" pt_clust_8="13000.00000" pt_clust_9="166.87081" pt_clust_10="13000.00000"></scales>
<clustering>
<clus scale="   91.541">  7  8 -1 -1</clus>
<clus scale="  112.942">  5  6 -1 -1</clus>
<clus scale="  119.787">  2  5  1 -1</clus>
<clus scale="  120.070">  7 10 -1 -1</clus>
<clus scale="  166.871">  1  9  2 -1</clus>
<clus scale="  166.871">  1  5  2 -1</clus>
</clustering>
</event>
<event>
10    2  0.5921424E-006  0.3458128E+03  0.7546771E-02  0.1069437E+00
         21   -1    0    0  503  502  0.00000000000E+00  0.00000000000E+00  0.92762393108E+02  0.92762393108E+02  0.00000000000E+00 0. -1.
          2   -1    0    0  502    0 -0.00000000000E+00 -0.00000000000E+00 -0.20370892112E+04  0.20370892112E+04  0.00000000000E+00 0. -1.
         23    2    1    2    0    0 -0.25239945579E+03 -0.17492696452E+03 -0.83930111303E+03  0.89838206303E+03  0.91427811046E+02 0.  0.
         23    2    1    2    0    0  0.13593052773E+03  0.16243307219E+03 -0.92517883880E+03  0.95362454159E+03  0.92640548606E+02 0.  0.
        -11    1    3    3    0    0 -0.13486258858E+03 -0.12574980739E+03 -0.59405395293E+03  0.62201369024E+03  0.00000000000E+00 0. -1.
         11    1    3    3    0    0 -0.11753686722E+03 -0.49177157126E+02 -0.24524716010E+03  0.27636837279E+03  0.00000000000E+00 0.  1.
        -11    1    4    4    0    0  0.10823078347E+03  0.57614922522E+02 -0.50824085980E+03  0.52282133981E+03  0.00000000000E+00 0.  1.
         11    1    4    4    0    0  0.27699744257E+02  0.10481814967E+03 -0.41693797900E+03  0.43080320178E+03  0.00000000000E+00 0. -1.
         21    1    1    2  503  501  0.26231469590E+02  0.28429910203E+02  0.29941862560E+02  0.48916918592E+02  0.00000000000E+00 0. -1.
          2    1    1    2  501    0  0.90237458477E+02 -0.15936017877E+02 -0.20978872886E+03  0.22892808114E+03  0.00000000000E+00 0. -1.
<scales pt_clust_5="13000.00000" pt_clust_6="13000.00000" pt_clust_7="13000.00000" pt_clust_8="13000.00000" pt_clust_9="38.68268" pt_clust_10="13000.00000"></scales>
<clustering>
<clus scale="   38.683">  1  9  2 -1</clus>
<clus scale="   91.428">  5  6 -1 -1</clus>
<clus scale="   92.641">  7  8 -1 -1</clus>
<clus scale="   95.561">  7 10 -1 -1</clus>
<clus scale="  300.466">  2  5  1 -1</clus>
<clus scale="   38.683">  1  5  2 -1</clus>
</clustering>
</event>
<event>
10    2  0.5921424E-006  0.3432979E+03  0.7546771E-02  0.1112634E+00
          2   -1    0    0  502    0 -0.00000000000E+00  0.00000000000E+00  0.49685399215E+03  0.49685399215E+03  0.00000000000E+00 0. -1.
         21   -1    0    0  503  502  0.00000000000E+00 -0.00000000000E+00 -0.18589751746E+03  0.18589751746E+03  0.00000000000E+00 0. -1.
         23    2    1    2    0    0 -0.18856146305E+02 -0.33920634819E+02 -0.67010597353E+02  0.11887433128E+03  0.90191589190E+02 0.  0.
         23    2    1    2    0    0  0.15431588706E+03  0.17356712174E+02  0.21191421147E+03  0.27779004612E+03  0.90249810186E+02 0.  0.
        -13    1    3    3    0    0 -0.53230199552E+02 -0.35069254740E+02 -0.41711702563E+02  0.76178559340E+02  0.00000000000E+00 0. -1.
         13    1    3    3    0    0  0.34374053247E+02  0.11486199213E+01 -0.25298894790E+02  0.42695771944E+02  0.00000000000E+00 0.  1.
        -13    1    4    4    0    0  0.13474327062E+03  0.63591659588E+01  0.11183462388E+03  0.17522320357E+03  0.00000000000E+00 0. -1.
         13    1    4    4    0    0  0.19572616440E+02  0.10997546216E+02  0.10007958760E+03  0.10256684255E+03  0.00000000000E+00 0.  1.
         21    1    1    2  503  501  0.26813044492E+02 -0.81142256951E+01 -0.22622271013E+02  0.36007598634E+02  0.00000000000E+00 0. -1.
          2    1    1    2  501    0 -0.16227278525E+03  0.24678148339E+02  0.18867513158E+03  0.25007953358E+03  0.00000000000E+00 0. -1.
<scales pt_clust_5="13000.00000" pt_clust_6="13000.00000" pt_clust_7="13000.00000" pt_clust_8="13000.00000" pt_clust_9="28.01393" pt_clust_10="13000.00000"></scales>
<clustering>
<clus scale="   28.014">  2  9  1 -1</clus>
<clus scale="   90.192">  5  6 -1 -1</clus>
<clus scale="   90.250">  7  8 -1 -1</clus>
<clus scale="   98.203">  1  5  2 -1</clus>
<clus scale="  158.430">  7 10 -1 -1</clus>
<clus scale="   28.014">  2  5  1 -1</clus>
</clustering>
</event>
<event>
10    2  0.5921424E-006  0.1052695E+04  0.7546771E-02  0.9725347E-01
         21   -1    0    0  503  502  0.00000000000E+00  0.00000000000E+00  0.73279145268E+03  0.73279145268E+03  0.00000000000E+00 0. -1.
          1   -1    0    0  502    0 -0.00000000000E+00 -0.00000000000E+00 -0.15349240149E+04  0.15349240149E+04  0.00000000000E+00 0. -1.
         23    2    1    2    0    0  0.14916794937E+03  0.10174223427E+03  0.12527581495E+03  0.23626486764E+03  0.86743867324E+02 0.  0.
         23    2    1    2    0    0  0.18070786071E+03  0.14770599070E+02 -0.40758582929E+03  0.45518139622E+03  0.90500793986E+02 0.  0.
        -11    1    3    3    0    0  0.14325964943E+03  0.55452091671E+02  0.97927868388E+02  0.18217609347E+03  0.00000000000E+00 0. -1.
         11    1    3    3    0    0  0.59082999332E+01  0.46290142598E+02  0.27347946564E+02  0.54088774169E+02  0.00000000000E+00 0.  1.
        -13    1    4    4    0    0  0.13737442310E+01  0.23047951949E+02 -0.44069065005E+02  0.49751158305E+02  0.00000000000E+00 0.  1.
         13    1    4    4    0    0  0.17933411648E+03 -0.82773528790E+01 -0.36351676428E+03  0.40543023792E+03  0.00000000000E+00 0. -1.
         21    1    1    2  503  501 -0.33452506303E+03  0.64408775149E+03 -0.29142636742E+03  0.78210317545E+03  0.00000000000E+00 0. -1.
          1    1    1    2  501    0  0.46492529616E+01 -0.76060058483E+03 -0.22839618045E+03  0.79416602826E+03  0.00000000000E+00 0. -1.
<scales pt_clust_5="13000.00000" pt_clust_6="13000.00000" pt_clust_7="13000.00000" pt_clust_8="13000.00000" pt_clust_9="736.47122" pt_clust_10="13000.00000"></scales>
<clustering>
<clus scale="   86.744">  5  6 -1 -1</clus>
<clus scale="   90.501">  7  8 -1 -1</clus>
<clus scale="  200.317">  2  5  1 -1</clus>
<clus scale="  727.613">  7 10 -1 -1</clus>
<clus scale="  736.471">  1  9  2 -1</clus>
<clus scale="  736.471">  1  5  2 -1</clus>
</clustering>
</event>
<event>
10    2  0.5921424E-006  0.2617111E+03  0.7546771E-02  0.1131547E+00
          1   -1    0    0  503    0 -0.00000000000E+00  0.00000000000E+00  0.66889924582E+03  0.66889924582E+03  0.00000000000E+00 0. -1.
         21   -1    0    0  501  502  0.00000000000E+00 -0.00000000000E+00 -0.96962347894E+02  0.96962347894E+02  0.00000000000E+00 0.  1.
         23    2    1    2    0    0 -0.48876204466E+01  0.94743868714E+02  0.81576060393E+02  0.15440196529E+03  0.90471121150E+02 0.  0.
         23    2    1    2    0    0 -0.37291621606E+02 -0.12783479168E+03  0.52111147941E+03  0.54531090988E+03  0.89857751213E+02 0.  0.
        -13    1    4    4    0    0  0.19235378325E+02 -0.32236686032E+02  0.58147589012E+02  0.69212324145E+02  0.00000000000E+00 0. -1.
         13    1    4    4    0    0 -0.56526999931E+02 -0.95598105653E+02  0.46296389040E+03  0.47609858573E+03  0.00000000000E+00 0.  1.
        -13    1    3    3    0    0  0.29329846054E+02  0.21191829559E+02 -0.40974908345E+01  0.36415970958E+02  0.00000000000E+00 0.  1.
         13    1    3    3    0    0 -0.34217466501E+02  0.73552039155E+02  0.85673551227E+02  0.11798599433E+03  0.00000000000E+00 0. -1.
         21    1    1    2  503  502  0.13033813645E+02  0.18706597045E+02 -0.23709269858E+02  0.32892955907E+02  0.00000000000E+00 0.  1.
          1    1    1    2  501    0  0.29145428408E+02  0.14384325925E+02 -0.70413720144E+01  0.33255762647E+02  0.00000000000E+00 0. -1.
<scales pt_clust_5="13000.00000" pt_clust_6="13000.00000" pt_clust_7="13000.00000" pt_clust_8="13000.00000" pt_clust_9="22.79950" pt_clust_10="13000.00000"></scales>
<clustering>
<clus scale="   22.799">  2  9  1 -1</clus>
<clus scale="   89.858">  5  6 -1 -1</clus>
<clus scale="   38.497">  5 10 -1 -1</clus>
<clus scale="   90.471">  7  8 -1 -1</clus>
<clus scale="  138.361">  1  7  2 -1</clus>
<clus scale="   22.799">  2  5  1 -1</clus>
</clustering>
</event>
<event>
10    2  0.5921424E-006  0.1317970E+03  0.7546771E-02  0.1243009E+00
         21   -1    0    0  503  502  0.00000000000E+00  0.00000000000E+00  0.28896033099E+03  0.28896033099E+03  0.00000000000E+00 0.  1.
          2   -1    0    0  502    0 -0.00000000000E+00 -0.00000000000E+00 -0.21064997035E+03  0.21064997035E+03  0.00000000000E+00 0. -1.
         23    2    1    2    0    0 -0.54448324346E+01  0.46195881839E+02  0.71141262453E+02  0.12271087903E+03  0.88505225325E+02 0.  0.
         23    2    1    2    0    0 -0.61725677334E+01  0.40884134532E+01 -0.14175894083E+03  0.16956185621E+03  0.92740552393E+02 0.  0.
        -11    1    4    4    0    0  0.37457251016E+02 -0.20607545271E+02 -0.70052973369E+02  0.82067872237E+02  0.00000000000E+00 0.  1.
         11    1    4    4    0    0 -0.43629818749E+02  0.24695958724E+02 -0.71705967459E+02  0.87493983968E+02  0.00000000000E+00 0. -1.
        -11    1    3    3    0    0  0.19329282816E+02  0.33409627355E+02  0.83671582752E+02  0.92145309888E+02  0.00000000000E+00 0.  1.
         11    1    3    3    0    0 -0.24774115251E+02  0.12786254484E+02 -0.12530320299E+02  0.30565569142E+02  0.00000000000E+00 0. -1.
         21    1    1    2  503  501  0.22073917192E+02 -0.79085669652E+02  0.15563979142E+03  0.17597029760E+03  0.00000000000E+00 0.  1.
          2    1    1    2  501    0 -0.10456517024E+02  0.28801374360E+02 -0.67117524063E+01  0.31367268508E+02  0.00000000000E+00 0. -1.
<scales pt_clust_5="13000.00000" pt_clust_6="13000.00000" pt_clust_7="13000.00000" pt_clust_8="13000.00000" pt_clust_9="82.10847" pt_clust_10="13000.00000"></scales>
<clustering>
<clus scale="   82.108">  1  9  2 -1</clus>
<clus scale="   88.505">  7  8 -1 -1</clus>
<clus scale="   90.736">  2  7  1 -1</clus>
<clus scale="   92.741">  5  6 -1 -1</clus>
<clus scale="   21.057">  5 10 -1 -1</clus>
<clus scale="   82.108">  1  5  2 -1</clus>
</clustering>
</event>
<event>
10    2  0.5921424E-006  0.3172490E+03  0.7546771E-02  0.1095693E+00
         21   -1    0    0  503  502  0.00000000000E+00  0.00000000000E+00  0.26104151914E+03  0.26104151914E+03  0.00000000000E+00 0.  1.
         -3   -1    0    0    0  501 -0.00000000000E+00 -0.00000000000E+00 -0.70198304228E+03  0.70198304228E+03  0.00000000000E+00 0.  1.
         23    2    1    2    0    0  0.56972797149E+02 -0.16018180614E+03 -0.20161533235E+03  0.27874293647E+03  0.90248389238E+02 0.  0.
         23    2    1    2    0    0 -0.31720322971E+02  0.84657938995E+02 -0.19617503644E+03  0.23623161873E+03  0.95643019833E+02 0.  0.
        -11    1    3    3    0    0  0.35883400434E+02 -0.77274192385E+02 -0.16497998447E+03  0.18568067889E+03  0.00000000000E+00 0. -1.
         11    1    3    3    0    0  0.21089396715E+02 -0.82907613754E+02 -0.36635347877E+02  0.93062257582E+02  0.00000000000E+00 0.  1.
        -11    1    4    4    0    0 -0.34148753512E+02 -0.89384283141E+01 -0.76764398231E+02  0.84491453432E+02  0.00000000000E+00 0. -1.
         11    1    4    4    0    0  0.24284305407E+01  0.93596367309E+02 -0.11941063821E+03  0.15174016530E+03  0.00000000000E+00 0.  1.
         21    1    1    2  503  501 -0.11463701725E+03  0.17212209312E+03  0.11948067267E+03  0.23883737523E+03  0.00000000000E+00 0.  1.
         -3    1    1    2    0  502  0.89384543073E+02 -0.96598225973E+02 -0.16263182703E+03  0.20921263099E+03  0.00000000000E+00 0.  1.
<scales pt_clust_5="13000.00000" pt_clust_6="13000.00000" pt_clust_7="13000.00000" pt_clust_8="13000.00000" pt_clust_9="185.57057" pt_clust_10="13000.00000"></scales>
<clustering>
<clus scale="   90.248">  5  6 -1 -1</clus>
<clus scale="   95.643">  7  8 -1 -1</clus>
<clus scale="  131.609">  7 10 -1 -1</clus>
<clus scale="  192.481">  2  5  1 -1</clus>
<clus scale="  185.571">  1  9  2 -1</clus>
<clus scale="  185.571">  1  5  2 -1</clus>
</clustering>
</event>
<event>
10    2  0.5921424E-006  0.3451337E+03  0.7546771E-02  0.1109775E+00
          1   -1    0    0  503    0 -0.00000000000E+00  0.00000000000E+00  0.23792632149E+03  0.23792632149E+03  0.00000000000E+00 0. -1.
         21   -1    0    0  501  502  0.00000000000E+00 -0.00000000000E+00 -0.33080054371E+03  0.33080054371E+03  0.00000000000E+00 0. -1.
         23    2    1    2    0    0  0.32683625712E+02 -0.34620079666E+02  0.98419695362E+02  0.14292879399E+03  0.92062122558E+02 0.  0.
         23    2    1    2    0    0  0.82781576843E+02 -0.26453582843E+02  0.37844721788E+02  0.13221183125E+03  0.92169213113E+02 0.  0.
        -11    1    3    3    0    0  0.53181519940E+02 -0.12187629332E+02  0.98431753835E+02  0.11254164800E+03  0.00000000000E+00 0. -1.
         11    1    3    3    0    0 -0.20497894228E+02 -0.22432450335E+02 -0.12058472792E-01  0.30387145987E+02  0.00000000000E+00 0.  1.
        -13    1    4    4    0    0  0.54307837502E+02  0.30783880321E+02  0.13965742150E+02  0.63968980417E+02  0.00000000000E+00 0. -1.
         13    1    4    4    0    0  0.28473739341E+02 -0.57237463164E+02  0.23878979638E+02  0.68242850835E+02  0.00000000000E+00 0.  1.
         21    1    1    2  503  502  0.27549276606E+02  0.15702901034E+02 -0.25775669504E+02  0.40864763314E+02  0.00000000000E+00 0.  1.
          1    1    1    2  501    0 -0.14301447916E+03  0.45370761476E+02 -0.20336296987E+03  0.25272147665E+03  0.00000000000E+00 0. -1.
<scales pt_clust_5="13000.00000" pt_clust_6="13000.00000" pt_clust_7="13000.00000" pt_clust_8="13000.00000" pt_clust_9="31.71031" pt_clust_10="13000.00000"></scales>
<clustering>
<clus scale="   31.710">  2  9  1 -1</clus>
<clus scale="   92.062">  5  6 -1 -1</clus>
<clus scale="   92.169">  7  8 -1 -1</clus>
<clus scale="  103.929">  1  5  2 -1</clus>
<clus scale="  124.681">  7 10 -1 -1</clus>
<clus scale="   31.710">  2  5  1 -1</clus>
</clustering>
</event>
<event>
10    2  0.5921424E-006  0.2127272E+03  0.7546771E-02  0.1166625E+00
         21   -1    0    0  503  502  0.00000000000E+00  0.00000000000E+00  0.17742674630E+03  0.17742674630E+03  0.00000000000E+00 0.  1.
         -3   -1    0    0    0  501 -0.00000000000E+00 -0.00000000000E+00 -0.34215328405E+03  0.34215328405E+03  0.00000000000E+00 0.  1.
         23    2    1    2    0    0  0.20762835417E+02 -0.76854202037E+02 -0.60445448560E+02  0.13573235536E+03  0.91825684500E+02 0.  0.
         23    2    1    2    0    0 -0.61614694773E+02  0.94810226698E+01 -0.46140487868E+02  0.12113908542E+03  0.93056289376E+02 0.  0.
        -11    1    4    4    0    0 -0.64155007967E+02  0.35288374661E+02 -0.57233063628E+02  0.92934159520E+02  0.00000000000E+00 0.  1.
         11    1    4    4    0    0  0.25403131942E+01 -0.25807351991E+02  0.11092575760E+02  0.28204925898E+02  0.00000000000E+00 0. -1.
        -11    1    3    3    0    0  0.30725677148E+02 -0.13692863232E+02 -0.63346776135E+02  0.71724304015E+02  0.00000000000E+00 0. -1.
         11    1    3    3    0    0 -0.99628417308E+01 -0.63161338804E+02  0.29013275753E+01  0.64008051342E+02  0.00000000000E+00 0.  1.
         21    1    1    2  503  501 -0.16805102966E+02  0.30723860043E+02  0.91628759726E+02  0.98092796222E+02  0.00000000000E+00 0.  1.
         -3    1    1    2    0  502  0.57656962322E+02  0.36649319324E+02 -0.14976936105E+03  0.16461579335E+03  0.00000000000E+00 0.  1.
<scales pt_clust_5="13000.00000" pt_clust_6="13000.00000" pt_clust_7="13000.00000" pt_clust_8="13000.00000" pt_clust_9="35.01952" pt_clust_10="13000.00000"></scales>
<clustering>
<clus scale="   35.020">  1  9  2 -1</clus>
<clus scale="   91.826">  7  8 -1 -1</clus>
<clus scale="   93.056">  5  6 -1 -1</clus>
<clus scale="   68.598">  5 10 -1 -1</clus>
<clus scale="  112.042">  2  7  1 -1</clus>
<clus scale="   35.020">  1  5  2 -1</clus>
</clustering>
</event>
<event>
10    2  0.5921424E-006  0.1256032E+03  0.7546771E-02  0.1251644E+00
          1   -1    0    0  503    0 -0.00000000000E+00  0.00000000000E+00  0.11783334552E+03  0.11783334552E+03  0.00000000000E+00 0. -1.
         21   -1    0    0  501  502  0.00000000000E+00 -0.00000000000E+00 -0.37476020973E+03  0.37476020973E+03  0.00000000000E+00 0.  1.
         23    2    1    2    0    0  0.19690943263E+02 -0.69137976738E+01  0.30850069832E+02  0.93749438108E+02  0.86033112765E+02 0.  0.
         23    2    1    2    0    0  0.53124442855E+01  0.35980053477E+01  0.25647178205E+01  0.91872602971E+02  0.91612388313E+02 0.  0.
        -11    1    3    3    0    0  0.50296456672E+02 -0.69882250210E+01  0.36617453777E+02  0.62605165632E+02  0.00000000000E+00 0.  1.
         11    1    3    3    0    0 -0.30605513409E+02  0.74427347231E-01 -0.57673839446E+01  0.31144272476E+02  0.00000000000E+00 0. -1.
        -11    1    4    4    0    0  0.16163663000E+02 -0.25972300740E+02 -0.32571410623E+02  0.44684686385E+02  0.00000000000E+00 0.  1.
         11    1    4    4    0    0 -0.10851218715E+02  0.29570306088E+02  0.35136128444E+02  0.47187916586E+02  0.00000000000E+00 0. -1.
         21    1    1    2  503  502 -0.24910970292E+02 -0.26574727269E+02 -0.26583495163E+03  0.26831882916E+03  0.00000000000E+00 0.  1.
          1    1    1    2  501    0 -0.92417256902E-01  0.29890519595E+02 -0.24506700232E+02  0.38652685015E+02  0.00000000000E+00 0. -1.
<scales pt_clust_5="13000.00000" pt_clust_6="13000.00000" pt_clust_7="13000.00000" pt_clust_8="13000.00000" pt_clust_9="36.42489" pt_clust_10="13000.00000"></scales>
<clustering>
<clus scale="   36.425">  2  9  1 -1</clus>
<clus scale="   86.033">  5  6 -1 -1</clus>
<clus scale="   88.154">  1  5  2 -1</clus>
<clus scale="   91.612">  7  8 -1 -1</clus>
<clus scale="   21.545">  7 10 -1 -1</clus>
<clus scale="   36.425">  2  5  1 -1</clus>
</clustering>
</event>
<event>
10    2  0.5921424E-006  0.4001240E+03  0.7546771E-02  0.1097926E+00
         21   -1    0    0  503  502  0.00000000000E+00  0.00000000000E+00  0.24125809605E+03  0.24125809605E+03  0.00000000000E+00 0.  1.
          2   -1    0    0  502    0 -0.00000000000E+00 -0.00000000000E+00 -0.61465393876E+03  0.61465393876E+03  0.00000000000E+00 0. -1.
         23    2    1    2    0    0 -0.85908808284E+01  0.19892333301E+02 -0.34141977738E+03  0.35328260061E+03  0.88156811141E+02 0.  0.
         23    2    1    2    0    0 -0.13206372933E+03  0.14808292921E+03 -0.55775325774E+02  0.23163970292E+03  0.10571983012E+03 0.  0.
        -11    1    4    4    0    0 -0.10954708834E+03  0.16337146897E+03 -0.41992404173E+02  0.20113220390E+03  0.00000000000E+00 0.  1.
         11    1    4    4    0    0 -0.22516640984E+02 -0.15288539759E+02 -0.13782921600E+02  0.30507499029E+02  0.00000000000E+00 0. -1.
        -13    1    3    3    0    0  0.27542339594E+02 -0.20743664412E+02 -0.98799093722E+02  0.10464292142E+03  0.00000000000E+00 0.  1.
         13    1    3    3    0    0 -0.36133220422E+02  0.40635997713E+02 -0.24262068366E+03  0.24863967919E+03  0.00000000000E+00 0. -1.
         21    1    1    2  503  501  0.52856000079E+02 -0.13987187626E+02  0.69020973088E+02  0.88052784670E+02  0.00000000000E+00 0.  1.
          2    1    1    2  501    0  0.87798610074E+02 -0.15398807488E+03 -0.45221712650E+02  0.18293694660E+03  0.00000000000E+00 0. -1.
<scales pt_clust_5="13000.00000" pt_clust_6="13000.00000" pt_clust_7="13000.00000" pt_clust_8="13000.00000" pt_clust_9="54.67539" pt_clust_10="13000.00000"></scales>
<clustering>
<clus scale="   54.675">  1  9  2 -1</clus>
<clus scale="   88.157">  7  8 -1 -1</clus>
<clus scale="   90.508">  2  7  1 -1</clus>
<clus scale="  105.720">  5  6 -1 -1</clus>
<clus scale="  183.757">  5 10 -1 -1</clus>
<clus scale="   54.675">  1  5  2 -1</clus>
</clustering>
</event>
<event>
10    2  0.5921424E-006  0.3244304E+03  0.7546771E-02  0.1119027E+00
         21   -1    0    0  503  502  0.00000000000E+00  0.00000000000E+00  0.22475168156E+03  0.22475168156E+03  0.00000000000E+00 0. -1.
          3   -1    0    0  502    0 -0.00000000000E+00 -0.00000000000E+00 -0.42485378633E+03  0.42485378633E+03  0.00000000000E+00 0. -1.
         23    2    1    2    0    0 -0.41553748763E+01  0.21454023288E+02  0.47889811918E+02  0.10475197546E+03  0.90564893980E+02 0.  0.
         23    2    1    2    0    0 -0.17772002434E+03 -0.46479526376E+02 -0.23565074048E+03  0.31355599167E+03  0.95085934829E+02 0.  0.
        -11    1    4    4    0    0 -0.34027362364E+02 -0.52952638608E+02 -0.75416683811E+02  0.98231967924E+02  0.00000000000E+00 0.  1.
         11    1    4    4    0    0 -0.14369266197E+03  0.64731122326E+01 -0.16023405667E+03  0.21532402375E+03  0.00000000000E+00 0. -1.
        -13    1    3    3    0    0 -0.22283334611E+02 -0.25950268423E+02  0.41219704760E+02  0.53563303605E+02  0.00000000000E+00 0. -1.
         13    1    3    3    0    0  0.18127959735E+02  0.47404291711E+02  0.66701071585E+01  0.51188671855E+02  0.00000000000E+00 0.  1.
         21    1    1    2  503  501  0.65493842554E+02  0.10342941842E+02  0.63341048073E+02  0.91697918348E+02  0.00000000000E+00 0. -1.
          3    1    1    2  501    0  0.11638155666E+03  0.14682561245E+02 -0.75682224291E+02  0.13959958241E+03  0.00000000000E+00 0. -1.
<scales pt_clust_5="13000.00000" pt_clust_6="13000.00000" pt_clust_7="13000.00000" pt_clust_8="13000.00000" pt_clust_9="66.30550" pt_clust_10="13000.00000"></scales>
<clustering>
<clus scale="   66.306">  1  9  2 -1</clus>
<clus scale="   90.565">  7  8 -1 -1</clus>
<clus scale="   95.086">  5  6 -1 -1</clus>
<clus scale="   99.039">  2  7  1 -1</clus>
<clus scale="  144.159">  5 10 -1 -1</clus>
<clus scale="   66.306">  1  5  2 -1</clus>
</clustering>
</event>
<event>
10    2  0.5921424E-006  0.1338662E+03  0.7546771E-02  0.1240027E+00
         21   -1    0    0  501  502  0.00000000000E+00  0.00000000000E+00  0.43627339734E+02  0.43627339734E+02  0.00000000000E+00 0.  1.
         -1   -1    0    0    0  501 -0.00000000000E+00 -0.00000000000E+00 -0.80350431125E+03  0.80350431125E+03  0.00000000000E+00 0.  1.
         23    2    1    2    0    0 -0.19746439707E+01 -0.11067055091E+02 -0.46645749379E+03  0.47523261744E+03  0.90205699618E+02 0.  0.
         23    2    1    2    0    0  0.85237513846E+01  0.60414787422E+02 -0.28239494660E+03  0.30315533110E+03  0.91834895501E+02 0.  0.
        -13    1    3    3    0    0 -0.18637858493E+01 -0.50860297968E+02 -0.24540689952E+03  0.25062878913E+03  0.00000000000E+00 0. -1.
         13    1    3    3    0    0 -0.11085812144E+00  0.39793242876E+02 -0.22105059427E+03  0.22460382831E+03  0.00000000000E+00 0.  1.
        -13    1    4    4    0    0 -0.38511892437E+02  0.32839350431E+02 -0.18204856019E+03  0.18895308165E+03  0.00000000000E+00 0.  1.
         13    1    4    4    0    0  0.47035643821E+02  0.27575436990E+02 -0.10034638641E+03  0.11420224946E+03  0.00000000000E+00 0. -1.
         21    1    1    2  503  502  0.76814479001E+01 -0.30733784268E+02  0.13847506526E+02  0.34573451870E+02  0.00000000000E+00 0.  1.
         -1    1    1    2    0  503 -0.14230555314E+02 -0.18613948063E+02 -0.24872037647E+02  0.34170250566E+02  0.00000000000E+00 0.  1.
<scales pt_clust_5="13000.00000" pt_clust_6="13000.00000" pt_clust_7="13000.00000" pt_clust_8="13000.00000" pt_clust_9="31.67918" pt_clust_10="13000.00000"></scales>
<clustering>
<clus scale="   31.679">  1  9  2 -1</clus>
<clus scale="   90.206">  5  6 -1 -1</clus>
<clus scale="   91.835">  7  8 -1 -1</clus>
<clus scale="   28.777">  7 10 -1 -1</clus>
<clus scale="   91.987">  2  5  1 -1</clus>
<clus scale="   31.679">  1  5  2 -1</clus>
</clustering>
</event>
<event>
10    2  0.5921424E-006  0.1919005E+03  0.7546771E-02  0.1174079E+00
         -3   -1    0    0    0  501 -0.00000000000E+00  0.00000000000E+00  0.61743576498E+03  0.61743576498E+03  0.00000000000E+00 0.  1.
         21   -1    0    0  503  502  0.00000000000E+00 -0.00000000000E+00 -0.92803135257E+02  0.92803135257E+02  0.00000000000E+00 0.  1.
         23    2    1    2    0    0  0.85316503188E+02 -0.28046114311E+02  0.32508815565E+03  0.34941166100E+03  0.91327485759E+02 0.  0.
         23    2    1    2    0    0 -0.36987483916E+02  0.62095313041E+01  0.56408750629E+02  0.11545782406E+03  0.93498287386E+02 0.  0.
        -11    1    3    3    0    0  0.10232053208E+03 -0.12120937746E+02  0.28489618390E+03  0.30295584500E+03  0.00000000000E+00 0.  1.
         11    1    3    3    0    0 -0.17004028895E+02 -0.15925176566E+02  0.40191971748E+02  0.46455816001E+02  0.00000000000E+00 0. -1.
        -13    1    4    4    0    0  0.10628206277E+02 -0.27567630325E+02  0.48157154307E+02  0.56498181576E+02  0.00000000000E+00 0.  1.
         13    1    4    4    0    0 -0.47615690192E+02  0.33777161629E+02  0.82515963218E+01  0.58959642486E+02  0.00000000000E+00 0. -1.
         21    1    1    2  503  501  0.91047550586E+01  0.18980866325E+02 -0.44441631573E+02  0.49175486454E+02  0.00000000000E+00 0.  1.
         -3    1    1    2    0  502 -0.57433774331E+02  0.28557166823E+01  0.18757735502E+03  0.19619392872E+03  0.00000000000E+00 0.  1.
<scales pt_clust_5="13000.00000" pt_clust_6="13000.00000" pt_clust_7="13000.00000" pt_clust_8="13000.00000" pt_clust_9="21.05160" pt_clust_10="13000.00000"></scales>
<clustering>
<clus scale="   21.052">  2  9  1 -1</clus>
<clus scale="   91.327">  5  6 -1 -1</clus>
<clus scale="   93.498">  7  8 -1 -1</clus>
<clus scale="   56.770">  7 10 -1 -1</clus>
<clus scale="  128.711">  1  5  2 -1</clus>
<clus scale="   21.052">  2  5  1 -1</clus>
</clustering>
</event>
<event>
10    2  0.5921424E-006  0.3152320E+03  0.7546771E-02  0.1093783E+00
         21   -1    0    0  503  502  0.00000000000E+00  0.00000000000E+00  0.15744467091E+03  0.15744467091E+03  0.00000000000E+00 0. -1.
          2   -1    0    0  502    0 -0.00000000000E+00 -0.00000000000E+00 -0.51329712670E+03  0.51329712670E+03  0.00000000000E+00 0. -1.
         23    2    1    2    0    0  0.16375794963E+03  0.96543626408E+02 -0.19662896648E+03  0.28889724377E+03  0.93066262037E+02 0.  0.
         23    2    1    2    0    0 -0.79852529477E+01  0.12381112566E+02  0.21586021390E+02  0.95531071488E+02  0.91886740541E+02 0.  0.
        -11    1    4    4    0    0 -0.22768684754E+02 -0.32193999136E+02 -0.77120225710E+01  0.40178873527E+02  0.00000000000E+00 0.  1.
         11    1    4    4    0    0  0.14783431806E+02  0.44575111701E+02  0.29298043961E+02  0.55352197961E+02  0.00000000000E+00 0. -1.
        -11    1    3    3    0    0  0.10829777521E+03  0.41512534145E+02 -0.17109534165E+03  0.20670102695E+03  0.00000000000E+00 0. -1.
         11    1    3    3    0    0  0.55460174420E+02  0.55031092263E+02 -0.25533624829E+02  0.82196216818E+02  0.00000000000E+00 0.  1.
         21    1    1    2  503  501 -0.30815090930E+02  0.14778859848E+02 -0.98799909801E-01  0.34175931427E+02  0.00000000000E+00 0. -1.
          2    1    1    2  501    0 -0.12495760576E+03 -0.12370359882E+03 -0.18071071079E+03  0.25213755093E+03  0.00000000000E+00 0. -1.
<scales pt_clust_5="13000.00000" pt_clust_6="13000.00000" pt_clust_7="13000.00000" pt_clust_8="13000.00000" pt_clust_9="34.17579" pt_clust_10="13000.00000"></scales>
<clustering>
<clus scale="   34.176">  1  9  2 -1</clus>
<clus scale="   91.887">  5  6 -1 -1</clus>
<clus scale="   93.066">  7  8 -1 -1</clus>
<clus scale="  178.945">  5 10 -1 -1</clus>
<clus scale="  206.267">  2  7  1 -1</clus>
<clus scale="   34.176">  1  5  2 -1</clus>
</clustering>
</event>
<event>
10    2  0.5921424E-006  0.2959376E+03  0.7546771E-02  0.1126539E+00
          3   -1    0    0  502    0 -0.00000000000E+00  0.00000000000E+00  0.32084602272E+03  0.32084602272E+03  0.00000000000E+00 0. -1.
         21   -1    0    0  503  502  0.00000000000E+00 -0.00000000000E+00 -0.31633646939E+03  0.31633646939E+03  0.00000000000E+00 0. -1.
         23    2    1    2    0    0  0.78921344597E+02 -0.50708926818E+02 -0.59791098665E+02  0.14381061340E+03  0.91140238940E+02 0.  0.
         23    2    1    2    0    0  0.13939560538E+02 -0.10338738846E+03  0.11695256863E+03  0.18131950824E+03  0.91189897013E+02 0.  0.
        -11    1    3    3    0    0  0.41685319451E+02 -0.55833216552E+02 -0.75797292930E+02  0.10295748416E+03  0.00000000000E+00 0. -1.
         11    1    3    3    0    0  0.37236025146E+02  0.51242897340E+01  0.16006194265E+02  0.40853129241E+02  0.00000000000E+00 0.  1.
        -13    1    4    4    0    0 -0.51576496273E+01 -0.11470182709E+03  0.87087816882E+02  0.14410898077E+03  0.00000000000E+00 0. -1.
         13    1    4    4    0    0  0.19097210165E+02  0.11314438631E+02  0.29864751751E+02  0.37210527472E+02  0.00000000000E+00 0.  1.
         21    1    1    2  503  501 -0.85172806941E+02  0.29294998795E+01 -0.11934368080E+03  0.14664891121E+03  0.00000000000E+00 0. -1.
          3    1    1    2  501    0 -0.76880981927E+01  0.15116681540E+03  0.66691764150E+02  0.16540345927E+03  0.00000000000E+00 0. -1.
<scales pt_clust_5="13000.00000" pt_clust_6="13000.00000" pt_clust_7="13000.00000" pt_clust_8="13000.00000" pt_clust_9="85.22317" pt_clust_10="13000.00000"></scales>
<clustering>
<clus scale="   85.223">  2  9  1 -1</clus>
<clus scale="   91.140">  5  6 -1 -1</clus>
<clus scale="   91.190">  7  8 -1 -1</clus>
<clus scale="  108.240">  1  5  2 -1</clus>
<clus scale="  130.725">  7 10 -1 -1</clus>
<clus scale="   85.223">  2  5  1 -1</clus>
</clustering>
</event>
<event>
10    2  0.5921424E-006  0.3304571E+03  0.7546771E-02  0.1093806E+00
         21   -1    0    0  503  502  0.00000000000E+00  0.00000000000E+00  0.18589409057E+03  0.18589409057E+03  0.00000000000E+00 0.  1.
         -1   -1    0    0    0  501 -0.00000000000E+00 -0.00000000000E+00 -0.51258807193E+03  0.51258807193E+03  0.00000000000E+00 0.  1.
         23    2    1    2    0    0  0.13495748491E+03  0.87633572278E+02 -0.18683237333E+03  0.26485795777E+03  0.96696620157E+02 0.  0.
         23    2    1    2    0    0 -0.88147338135E+02 -0.15185725437E+03 -0.22108464224E+03  0.29734197926E+03  0.93291235751E+02 0.  0.
        -11    1    3    3    0    0  0.12926112562E+03  0.40219702181E+02 -0.16172460849E+03  0.21090498342E+03  0.00000000000E+00 0.  1.
         11    1    3    3    0    0  0.56963592951E+01  0.47413870096E+02 -0.25107764833E+02  0.53952974354E+02  0.00000000000E+00 0. -1.
        -11    1    4    4    0    0  0.11784003548E+02 -0.17504201440E+02 -0.65346248612E+02  0.68668712056E+02  0.00000000000E+00 0. -1.
         11    1    4    4    0    0 -0.99931341683E+02 -0.13435305293E+03 -0.15573839363E+03  0.22867326720E+03  0.00000000000E+00 0.  1.
         21    1    1    2  503  501 -0.41606624535E+02 -0.68960447161E+00  0.46792853103E+02  0.62619149316E+02  0.00000000000E+00 0.  1.
         -1    1    1    2    0  502 -0.52035222422E+01  0.64913286563E+02  0.34430181108E+02  0.73663076146E+02  0.00000000000E+00 0.  1.
<scales pt_clust_5="13000.00000" pt_clust_6="13000.00000" pt_clust_7="13000.00000" pt_clust_8="13000.00000" pt_clust_9="41.61234" pt_clust_10="13000.00000"></scales>
<clustering>
<clus scale="   41.612">  1  9  2 -1</clus>
<clus scale="   93.291">  7  8 -1 -1</clus>
<clus scale="   68.383">  7 10 -1 -1</clus>
<clus scale="   96.697">  5  6 -1 -1</clus>
<clus scale="  178.944">  2  5  1 -1</clus>
<clus scale="   41.612">  1  5  2 -1</clus>
</clustering>
</event>
<event>
10    2  0.5921424E-006  0.4103262E+03  0.7546771E-02  0.1082507E+00
         21   -1    0    0  503  502  0.00000000000E+00  0.00000000000E+00  0.10253858644E+04  0.10253858644E+04  0.00000000000E+00 0.  1.
          2   -1    0    0  502    0 -0.00000000000E+00 -0.00000000000E+00 -0.48031435252E+03  0.48031435252E+03  0.00000000000E+00 0. -1.
         23    2    1    2    0    0 -0.24500685400E+02  0.81514283584E+02 -0.25967857236E+03  0.28869321349E+03  0.93091076681E+02 0.  0.
         23    2    1    2    0    0 -0.35036847797E+02  0.41856863853E+02 -0.93109396006E+02  0.14164032528E+03  0.91722649138E+02 0.  0.
        -11    1    4    4    0    0 -0.35407385043E+01 -0.28891134905E+02 -0.21775550382E+02  0.36351191173E+02  0.00000000000E+00 0.  1.
         11    1    4    4    0    0 -0.31496109292E+02  0.70747998758E+02 -0.71333845624E+02  0.10528913410E+03  0.00000000000E+00 0. -1.
        -11    1    3    3    0    0 -0.52519490706E+02  0.40208249223E+02 -0.89134111620E+02  0.11099500017E+03  0.00000000000E+00 0. -1.
         11    1    3    3    0    0  0.28018805306E+02  0.41306034361E+02 -0.17054446074E+03  0.17769821331E+03  0.00000000000E+00 0.  1.
         21    1    1    2  503  501 -0.16383516098E+03  0.76286440176E+01  0.76867783737E+03  0.78598077194E+03  0.00000000000E+00 0.  1.
          2    1    1    2  501    0  0.22337269418E+03 -0.13099979145E+03  0.12918164289E+03  0.28938590623E+03  0.00000000000E+00 0. -1.
<scales pt_clust_5="13000.00000" pt_clust_6="13000.00000" pt_clust_7="13000.00000" pt_clust_8="13000.00000" pt_clust_9="165.23338" pt_clust_10="13000.00000"></scales>
<clustering>
<clus scale="   91.723">  5  6 -1 -1</clus>
<clus scale="   93.091">  7  8 -1 -1</clus>
<clus scale="  126.138">  2  7  1 -1</clus>
<clus scale="  165.233">  1  9  2 -1</clus>
<clus scale="  127.019">  5 10 -1 -1</clus>
<clus scale="  165.233">  1  5  2 -1</clus>
</clustering>
</event>
<event>
10    2  0.5921424E-006  0.2520693E+03  0.7546771E-02  0.1140992E+00
          3   -1    0    0  502    0 -0.00000000000E+00  0.00000000000E+00  0.99800886928E+02  0.99800886928E+02  0.00000000000E+00 0. -1.
         21   -1    0    0  503  502  0.00000000000E+00 -0.00000000000E+00 -0.11600375131E+04  0.11600375131E+04  0.00000000000E+00 0. -1.
         23    2    1    2    0    0 -0.60624771465E+02 -0.53980651474E+02 -0.15773729705E+03  0.20009726711E+03  0.92566666661E+02 0.  0.
         23    2    1    2    0    0  0.33405710987E+01  0.72787046390E+02 -0.19729011678E+02  0.11923891441E+03  0.92301523659E+02 0.  0.
        -11    1    3    3    0    0 -0.12169638119E+01 -0.59075039743E+02 -0.52016976620E+02  0.78721707160E+02  0.00000000000E+00 0.  1.
         11    1    3    3    0    0 -0.59407807653E+02  0.50943882686E+01 -0.10572032043E+03  0.12137555995E+03  0.00000000000E+00 0. -1.
        -13    1    4    4    0    0 -0.16511867502E+02  0.85626458080E+02  0.18580279993E+01  0.87223760294E+02  0.00000000000E+00 0. -1.
         13    1    4    4    0    0  0.19852438601E+02 -0.12839411689E+02 -0.21587039677E+02  0.32015154114E+02  0.00000000000E+00 0.  1.
         21    1    1    2  503  501 -0.11846024135E+02 -0.14111172640E+03 -0.67498226838E+03  0.68967667080E+03  0.00000000000E+00 0. -1.
          3    1    1    2  501    0  0.69130224502E+02  0.12230533149E+03 -0.20778804906E+03  0.25082554770E+03  0.00000000000E+00 0. -1.
<scales pt_clust_5="13000.00000" pt_clust_6="13000.00000" pt_clust_7="13000.00000" pt_clust_8="13000.00000" pt_clust_9="147.20159" pt_clust_10="13000.00000"></scales>
<clustering>
<clus scale="   92.302">  7  8 -1 -1</clus>
<clus scale="   92.567">  5  6 -1 -1</clus>
<clus scale="  123.117">  1  5  2 -1</clus>
<clus scale="  119.679">  7 10 -1 -1</clus>
<clus scale="  147.202">  2  9  1 -1</clus>
<clus scale="  147.202">  2  5  1 -1</clus>
</clustering>
</event>
<event>
10    2  0.5921424E-006  0.5903585E+03  0.7546771E-02  0.1022756E+00
         21   -1    0    0  501  502  0.00000000000E+00  0.00000000000E+00  0.69294605667E+02  0.69294605667E+02  0.00000000000E+00 0.  1.
          2   -1    0    0  503    0 -0.00000000000E+00 -0.00000000000E+00 -0.28046236711E+04  0.28046236711E+04  0.00000000000E+00 0. -1.
         23    2    1    2    0    0 -0.25842513100E+02 -0.21237612430E+03 -0.11499321077E+04  0.11732745440E+04  0.91966567801E+02 0.  0.
         23    2    1    2    0    0  0.15300587116E+03 -0.10944716322E+03 -0.34701470064E+03  0.40529097956E+03  0.91935289765E+02 0.  0.
        -11    1    4    4    0    0  0.14746220408E+03 -0.62171499768E+02 -0.24382935056E+03  0.29165587463E+03  0.00000000000E+00 0.  1.
         11    1    4    4    0    0  0.55436670818E+01 -0.47275663452E+02 -0.10318535008E+03  0.11363510493E+03  0.00000000000E+00 0. -1.
        -11    1    3    3    0    0 -0.51761796873E+02 -0.64952347800E+02 -0.42948444366E+03  0.43744140001E+03  0.00000000000E+00 0.  1.
         11    1    3    3    0    0  0.25919283773E+02 -0.14742377650E+03 -0.72044766401E+03  0.73583314394E+03  0.00000000000E+00 0. -1.
         21    1    1    2  503  502  0.25016954270E+02  0.71480223370E+01 -0.46630482994E+02  0.53397979068E+02  0.00000000000E+00 0. -1.
          2    1    1    2  501    0 -0.15218031233E+03  0.31467526519E+03 -0.11917517741E+04  0.12419547742E+04  0.00000000000E+00 0. -1.
<scales pt_clust_5="13000.00000" pt_clust_6="13000.00000" pt_clust_7="13000.00000" pt_clust_8="13000.00000" pt_clust_9="26.01811" pt_clust_10="13000.00000"></scales>
<clustering>
<clus scale="   26.018">  1  9  2 -1</clus>
<clus scale="   91.935">  5  6 -1 -1</clus>
<clus scale="   91.967">  7  8 -1 -1</clus>
<clus scale="  231.266">  2  7  1 -1</clus>
<clus scale="  226.230">  5 10 -1 -1</clus>
<clus scale="   26.018">  1  5  2 -1</clus>
</clustering>
</event>
<event>
10    2  0.5921424E-006  0.3294526E+03  0.7546771E-02  0.1095416E+00
          1   -1    0    0  502    0 -0.00000000000E+00  0.00000000000E+00  0.12289022038E+04  0.12289022038E+04  0.00000000000E+00 0. -1.
         21   -1    0    0  503  502  0.00000000000E+00 -0.00000000000E+00 -0.59606033545E+02  0.59606033545E+02  0.00000000000E+00 0. -1.
         23    2    1    2    0    0 -0.14133347907E+03 -0.43312870320E+02  0.42398682075E+03  0.45843991401E+03  0.92472555614E+02 0.  0.
         23    2    1    2    0    0 -0.47768532414E+02 -0.31752027069E+02  0.12985704894E+03  0.16896626536E+03  0.91633627878E+02 0.  0.
        -11    1    3    3    0    0 -0.28944257167E+02 -0.53316297934E+02  0.17061344471E+03  0.18107828463E+03  0.00000000000E+00 0.  1.
         11    1    3    3    0    0 -0.11238922191E+03  0.10003427615E+02  0.25337337604E+03  0.27736162938E+03  0.00000000000E+00 0. -1.
        -13    1    4    4    0    0 -0.30944958500E+02 -0.64043563814E+02  0.93848287839E+02  0.11775682423E+03  0.00000000000E+00 0. -1.
         13    1    4    4    0    0 -0.16823573915E+02  0.32291536746E+02  0.36008761100E+02  0.51209441128E+02  0.00000000000E+00 0.  1.
         21    1    1    2  503  501  0.16081935677E+02 -0.31991263778E+02  0.64352400825E+02  0.73643065560E+02  0.00000000000E+00 0. -1.
          1    1    1    2  501    0  0.17302007581E+03  0.10705616117E+03  0.55109989970E+03  0.58745899238E+03  0.00000000000E+00 0. -1.
<scales pt_clust_5="13000.00000" pt_clust_6="13000.00000" pt_clust_7="13000.00000" pt_clust_8="13000.00000" pt_clust_9="35.80600" pt_clust_10="13000.00000"></scales>
<clustering>
<clus scale="   35.806">  2  9  1 -1</clus>
<clus scale="   91.634">  7  8 -1 -1</clus>
<clus scale="   92.473">  5  6 -1 -1</clus>
<clus scale="  173.124">  1  5  2 -1</clus>
<clus scale="   94.726">  7 10 -1 -1</clus>
<clus scale="   35.806">  2  5  1 -1</clus>
</clustering>
</event>
<event>
10    2  0.5921424E-006  0.1660537E+03  0.7546771E-02  0.1198953E+00
         21   -1    0    0  501  502  0.00000000000E+00  0.00000000000E+00  0.35206681218E+03  0.35206681218E+03  0.00000000000E+00 0.  1.
          1   -1    0    0  503    0 -0.00000000000E+00 -0.00000000000E+00 -0.27053949836E+03  0.27053949836E+03  0.00000000000E+00 0. -1.
         23    2    1    2    0    0  0.10806905007E+02 -0.63097643642E+02 -0.16084392971E+03  0.19562806928E+03  0.91112402757E+02 0.  0.
         23    2    1    2    0    0  0.23186769032E+01  0.74508240272E+02 -0.49263685678E+02  0.12691894108E+03  0.90136855649E+02 0.  0.
        -11    1    3    3    0    0 -0.38253970423E+02 -0.37180565190E+02 -0.58215595026E+02  0.78960852232E+02  0.00000000000E+00 0.  1.
         11    1    3    3    0    0  0.49060875430E+02 -0.25917078452E+02 -0.10262833468E+03  0.11666721705E+03  0.00000000000E+00 0. -1.
        -13    1    4    4    0    0  0.42499127090E+02  0.58879616990E+02 -0.21861827474E+02  0.75834850833E+02  0.00000000000E+00 0. -1.
         13    1    4    4    0    0 -0.40180450187E+02  0.15628623281E+02 -0.27401858204E+02  0.51084090243E+02  0.00000000000E+00 0.  1.
         21    1    1    2  503  502 -0.20143837560E+02 -0.33388541469E+02  0.24439714025E+03  0.24748844630E+03  0.00000000000E+00 0.  1.
          1    1    1    2  501    0  0.70182556499E+01  0.21977944840E+02  0.47237788967E+02  0.52570853885E+02  0.00000000000E+00 0. -1.
<scales pt_clust_5="13000.00000" pt_clust_6="13000.00000" pt_clust_7="13000.00000" pt_clust_8="13000.00000" pt_clust_9="38.99447" pt_clust_10="13000.00000"></scales>
<clustering>
<clus scale="   38.994">  1  9  2 -1</clus>
<clus scale="   90.137">  7  8 -1 -1</clus>
<clus scale="    6.740">  7 10 -1 -1</clus>
<clus scale="   91.112">  5  6 -1 -1</clus>
<clus scale="  114.279">  2  5  1 -1</clus>
<clus scale="   38.994">  1  5  2 -1</clus>
</clustering>
</event>
<event>
10    2  0.5921424E-006  0.1438498E+03  0.7546771E-02  0.1217366E+00
         21   -1    0    0  503  502  0.00000000000E+00  0.00000000000E+00  0.50178296883E+03  0.50178296883E+03  0.00000000000E+00 0. -1.
          2   -1    0    0  502    0 -0.00000000000E+00 -0.00000000000E+00 -0.10828834996E+03  0.10828834996E+03  0.00000000000E+00 0. -1.
         23    2    1    2    0    0  0.89766911128E+02 -0.23796271652E+02  0.24205550422E+03  0.27448336748E+03  0.90143724253E+02 0.  0.
         23    2    1    2    0    0 -0.44491181352E+02 -0.32431195766E+02  0.41770349945E+01  0.10564655498E+03  0.90069413686E+02 0.  0.
        -13    1    3    3    0    0 -0.12264057176E+02 -0.22387243734E+02  0.69179381349E+02  0.73738609861E+02  0.00000000000E+00 0.  1.
         13    1    3    3    0    0  0.10203096830E+03 -0.14090279186E+01  0.17287612287E+03  0.20074475762E+03  0.00000000000E+00 0. -1.
        -13    1    4    4    0    0  0.52475444390E+01 -0.44579589809E+02  0.23809147972E+02  0.50810944464E+02  0.00000000000E+00 0.  1.
         13    1    4    4    0    0 -0.49738725791E+02  0.12148394044E+02 -0.19632112977E+02  0.54835610520E+02  0.00000000000E+00 0. -1.
         21    1    1    2  503  501 -0.19708360350E+02  0.56105422182E+02  0.17932769971E+03  0.18893030924E+03  0.00000000000E+00 0. -1.
          2    1    1    2  501    0 -0.25567369426E+02  0.12204523640E+00 -0.32065620055E+02  0.41011087085E+02  0.00000000000E+00 0. -1.
<scales pt_clust_5="13000.00000" pt_clust_6="13000.00000" pt_clust_7="13000.00000" pt_clust_8="13000.00000" pt_clust_9="59.46628" pt_clust_10="13000.00000"></scales>
<clustering>
<clus scale="   59.466">  1  9  2 -1</clus>
<clus scale="   90.069">  7  8 -1 -1</clus>
<clus scale="   25.861">  7 10 -1 -1</clus>
<clus scale="   90.144">  5  6 -1 -1</clus>
<clus scale="  118.491">  2  5  1 -1</clus>
<clus scale="   59.466">  1  5  2 -1</clus>
</clustering>
</event>
<event>
10    2  0.5921424E-006  0.1858286E+03  0.7546771E-02  0.1189975E+00
          1   -1    0    0  502    0 -0.00000000000E+00  0.00000000000E+00  0.88723741660E+03  0.88723741660E+03  0.00000000000E+00 0. -1.
         21   -1    0    0  503  502  0.00000000000E+00 -0.00000000000E+00 -0.20206316380E+03  0.20206316380E+03  0.00000000000E+00 0.  1.
         23    2    1    2    0    0 -0.72852647824E+01  0.35349503618E+02  0.56410481308E+03  0.57240674754E+03  0.90180829460E+02 0.  0.
         23    2    1    2    0    0  0.28588141427E+01  0.12882987798E+02  0.12826549282E+03  0.15595149381E+03  0.87719368327E+02 0.  0.
        -11    1    3    3    0    0 -0.10781083019E+02 -0.29897616902E+02  0.18891601431E+03  0.19157076945E+03  0.00000000000E+00 0. -1.
         11    1    3    3    0    0  0.34958182370E+01  0.65247120520E+02  0.37518879878E+03  0.38083597809E+03  0.00000000000E+00 0.  1.
        -11    1    4    4    0    0  0.19879161522E+02 -0.21621401749E+02  0.10906885193E+03  0.11295432943E+03  0.00000000000E+00 0. -1.
         11    1    4    4    0    0 -0.17020347380E+02  0.34504389547E+02  0.19196640893E+02  0.42997164377E+02  0.00000000000E+00 0.  1.
         21    1    1    2  503  501  0.60943251058E+02  0.60174187995E+02 -0.15013950589E+03  0.17284931004E+03  0.00000000000E+00 0.  1.
          1    1    1    2  501    0 -0.56516800418E+02 -0.10840667941E+03  0.14294345278E+03  0.18809302901E+03  0.00000000000E+00 0. -1.
<scales pt_clust_5="13000.00000" pt_clust_6="13000.00000" pt_clust_7="13000.00000" pt_clust_8="13000.00000" pt_clust_9="85.64469" pt_clust_10="13000.00000"></scales>
<clustering>
<clus scale="   85.645">  2  9  1 -1</clus>
<clus scale="   87.719">  7  8 -1 -1</clus>
<clus scale="   78.258">  7 10 -1 -1</clus>
<clus scale="   90.181">  5  6 -1 -1</clus>
<clus scale="   99.280">  1  5  2 -1</clus>
<clus scale="   85.645">  2  5  1 -1</clus>
</clustering>
</event>
<event>
10    2  0.5921424E-006  0.2287292E+03  0.7546771E-02  0.1146317E+00
          1   -1    0    0  503    0 -0.00000000000E+00  0.00000000000E+00  0.91445510352E+03  0.91445510352E+03  0.00000000000E+00 0. -1.
         21   -1    0    0  501  502  0.00000000000E+00 -0.00000000000E+00 -0.67738906171E+02  0.67738906171E+02  0.00000000000E+00 0.  1.
         23    2    1    2    0    0  0.10134753564E+03 -0.26587174901E+02  0.35794408810E+03  0.38348531123E+03  0.89212178947E+02 0.  0.
         23    2    1    2    0    0 -0.62517607447E+02 -0.14025163275E+02  0.36334428332E+03  0.38003056617E+03  0.91098883390E+02 0.  0.
        -13    1    3    3    0    0  0.10306159811E+03  0.19324853744E+01  0.31860940777E+03  0.33486920166E+03  0.00000000000E+00 0.  1.
         13    1    3    3    0    0 -0.17140624704E+01 -0.28519660276E+02  0.39334680335E+02  0.48616109567E+02  0.00000000000E+00 0. -1.
        -13    1    4    4    0    0 -0.15753966786E+02  0.37145065039E+02  0.10314321704E+03  0.11075408140E+03  0.00000000000E+00 0.  1.
         13    1    4    4    0    0 -0.46763640661E+02 -0.51170228315E+02  0.26020106628E+03  0.26927648477E+03  0.00000000000E+00 0. -1.
         21    1    1    2  503  502  0.47978383302E+02  0.71140195008E+02  0.73717692318E+02  0.11312449236E+03  0.00000000000E+00 0.  1.
          1    1    1    2  501    0 -0.86808311492E+02 -0.30527856831E+02  0.51710133610E+02  0.10555363994E+03  0.00000000000E+00 0. -1.
<scales pt_clust_5="13000.00000" pt_clust_6="13000.00000" pt_clust_7="13000.00000" pt_clust_8="13000.00000" pt_clust_9="85.80707" pt_clust_10="13000.00000"></scales>
<clustering>
<clus scale="   85.807">  2  9  1 -1</clus>
<clus scale="   89.212">  5  6 -1 -1</clus>
<clus scale="   91.099">  7  8 -1 -1</clus>
<clus scale="   60.643">  7 10 -1 -1</clus>
<clus scale="  145.042">  1  5  2 -1</clus>
<clus scale="   85.807">  2  5  1 -1</clus>
</clustering>
</event>
<event>
10    2  0.5921424E-006  0.2274660E+03  0.7546771E-02  0.1146447E+00
         21   -1    0    0  501  502  0.00000000000E+00  0.00000000000E+00  0.16755519737E+03  0.16755519737E+03  0.00000000000E+00 0. -1.
          3   -1    0    0  503    0 -0.00000000000E+00 -0.00000000000E+00 -0.47280958683E+03  0.47280958683E+03  0.00000000000E+00 0. -1.
         23    2    1    2    0    0 -0.78420828686E+02  0.99165903849E+02 -0.24903503472E+03  0.29483385093E+03  0.94471415132E+02 0.  0.
         23    2    1    2    0    0  0.24355290374E+02 -0.12367620154E+03 -0.10121298496E+03  0.18536340210E+03  0.90700272977E+02 0.  0.
        -11    1    4    4    0    0  0.23490639741E+02 -0.12448440911E+02  0.96848361864E+01  0.28294343755E+02  0.00000000000E+00 0.  1.
         11    1    4    4    0    0  0.86465063257E+00 -0.11122776063E+03 -0.11089782114E+03  0.15706905835E+03  0.00000000000E+00 0. -1.
        -13    1    3    3    0    0 -0.44148466462E+02 -0.63590812563E+01 -0.50323669309E+02  0.67245793163E+02  0.00000000000E+00 0.  1.
         13    1    3    3    0    0 -0.34272362224E+02  0.10552498511E+03 -0.19871136542E+03  0.22758805777E+03  0.00000000000E+00 0. -1.
         21    1    1    2  503  502  0.40026202306E+02 -0.30949006096E+02  0.78853147720E+02  0.93689683289E+02  0.00000000000E+00 0. -1.
          3    1    1    2  501    0  0.14039336007E+02  0.55459303789E+02 -0.33859517502E+02  0.66477847873E+02  0.00000000000E+00 0. -1.
<scales pt_clust_5="13000.00000" pt_clust_6="13000.00000" pt_clust_7="13000.00000" pt_clust_8="13000.00000" pt_clust_9="50.59583" pt_clust_10="13000.00000"></scales>
<clustering>
<clus scale="   50.596">  1  9  2 -1</clus>
<clus scale="   90.700">  5  6 -1 -1</clus>
<clus scale="   53.969">  5 10 -1 -1</clus>
<clus scale="   94.471">  7  8 -1 -1</clus>
<clus scale="  147.017">  2  7  1 -1</clus>
<clus scale="   50.596">  1  5  2 -1</clus>
</clustering>
</event>
<event>
10    2  0.5921424E-006  0.1455986E+03  0.7546771E-02  0.1224774E+00
         -3   -1    0    0    0  501 -0.00000000000E+00  0.00000000000E+00  0.12118576249E+03  0.12118576249E+03  0.00000000000E+00 0.  1.
         21   -1    0    0  501  502  0.00000000000E+00 -0.00000000000E+00 -0.36472944360E+03  0.36472944360E+03  0.00000000000E+00 0. -1.
         23    2    1    2    0    0 -0.19171801220E+02  0.36451855946E+01 -0.74439306843E+02  0.11875012831E+03  0.90440794064E+02 0.  0.
         23    2    1    2    0    0  0.29402179653E+02 -0.21739025382E+02  0.64940227839E+02  0.11787673623E+03  0.91326985936E+02 0.  0.
        -11    1    4    4    0    0  0.36685399324E+02 -0.54010933373E+02  0.43162298555E+02  0.78268662081E+02  0.00000000000E+00 0.  1.
         11    1    4    4    0    0 -0.72832196706E+01  0.32271907990E+02  0.21777929284E+02  0.39608074152E+02  0.00000000000E+00 0. -1.
        -13    1    3    3    0    0 -0.27018826503E+02 -0.32758337203E+02 -0.89242262569E+01  0.43390868350E+02  0.00000000000E+00 0.  1.
         13    1    3    3    0    0  0.78470252830E+01  0.36403522797E+02 -0.65515080586E+02  0.75359259962E+02  0.00000000000E+00 0. -1.
         21    1    1    2  503  502 -0.28674012606E+02 -0.31928462293E+01 -0.21081302780E+03  0.21277811438E+03  0.00000000000E+00 0. -1.
         -3    1    1    2    0  503  0.18443634173E+02  0.21286686017E+02 -0.23231574310E+02  0.36510227170E+02  0.00000000000E+00 0.  1.
<scales pt_clust_5="13000.00000" pt_clust_6="13000.00000" pt_clust_7="13000.00000" pt_clust_8="13000.00000" pt_clust_9="28.85123" pt_clust_10="13000.00000"></scales>
<clustering>
<clus scale="   28.851">  2  9  1 -1</clus>
<clus scale="   90.441">  7  8 -1 -1</clus>
<clus scale="   91.327">  5  6 -1 -1</clus>
<clus scale="   24.329">  5 10 -1 -1</clus>
<clus scale="   97.838">  1  7  2 -1</clus>
<clus scale="   28.851">  2  5  1 -1</clus>
</clustering>
</event>
<event>
10    2  0.5921424E-006  0.4651717E+03  0.7546771E-02  0.1065309E+00
         21   -1    0    0  501  502  0.00000000000E+00  0.00000000000E+00  0.11336715586E+03  0.11336715586E+03  0.00000000000E+00 0. -1.
          2   -1    0    0  503    0 -0.00000000000E+00 -0.00000000000E+00 -0.11275986544E+04  0.11275986544E+04  0.00000000000E+00 0. -1.
         23    2    1    2    0    0 -0.11003313600E+03  0.15220651690E+02 -0.12229219109E+03  0.18677285401E+03  0.87119227154E+02 0.  0.
         23    2    1    2    0    0  0.73119340021E+02  0.22597143533E+03 -0.63451898060E+03  0.68348654748E+03  0.90166492520E+02 0.  0.
        -13    1    4    4    0    0 -0.12644752334E+02  0.62710860020E+02 -0.10705279868E+03  0.12471103973E+03  0.00000000000E+00 0.  1.
         13    1    4    4    0    0  0.85764092354E+02  0.16326057531E+03 -0.52746618192E+03  0.55877550775E+03  0.00000000000E+00 0. -1.
        -13    1    3    3    0    0 -0.20518933654E+02  0.19331808810E+02 -0.85284402665E+02  0.89823019366E+02  0.00000000000E+00 0.  1.
         13    1    3    3    0    0 -0.89514202344E+02 -0.41111571198E+01 -0.37007788421E+02  0.96949834646E+02  0.00000000000E+00 0. -1.
         21    1    1    2  503  502  0.72299726763E+01 -0.49410506949E+02 -0.20687121163E+01  0.49979498514E+02  0.00000000000E+00 0.  1.
          2    1    1    2  501    0  0.29683823301E+02 -0.19178158007E+03 -0.25535161476E+03  0.32072691028E+03  0.00000000000E+00 0. -1.
<scales pt_clust_5="13000.00000" pt_clust_6="13000.00000" pt_clust_7="13000.00000" pt_clust_8="13000.00000" pt_clust_9="49.93667" pt_clust_10="13000.00000"></scales>
<clustering>
<clus scale="   49.937">  1  9  2 -1</clus>
<clus scale="   87.119">  7  8 -1 -1</clus>
<clus scale="   90.166">  5  6 -1 -1</clus>
<clus scale="  138.336">  2  7  1 -1</clus>
<clus scale="  210.931">  5 10 -1 -1</clus>
<clus scale="   49.937">  1  5  2 -1</clus>
</clustering>
</event>
<event>
10    2  0.5921424E-006  0.2020783E+03  0.7546771E-02  0.1151936E+00
         21   -1    0    0  501  502  0.00000000000E+00  0.00000000000E+00  0.12131841093E+03  0.12131841093E+03  0.00000000000E+00 0. -1.
          1   -1    0    0  503    0 -0.00000000000E+00 -0.00000000000E+00 -0.89724600066E+03  0.89724600066E+03  0.00000000000E+00 0. -1.
         23    2    1    2    0    0  0.30456869085E+02 -0.15080485194E+03 -0.54013079948E+03  0.56892200921E+03  0.90891406473E+02 0.  0.
         23    2    1    2    0    0 -0.19171790809E+02  0.15432319288E+03 -0.22792616056E+03  0.29039031985E+03  0.90515179789E+02 0.  0.
        -11    1    3    3    0    0  0.57819648087E+02 -0.11425909356E+03 -0.33194046401E+03  0.35578465933E+03  0.00000000000E+00 0. -1.
         11    1    3    3    0    0 -0.27362779001E+02 -0.36545758375E+02 -0.20819033547E+03  0.21313734988E+03  0.00000000000E+00 0.  1.
        -13    1    4    4    0    0 -0.53225801183E+02  0.86937678654E+02 -0.10663829164E+03  0.14752244278E+03  0.00000000000E+00 0.  1.
         13    1    4    4    0    0  0.34054010374E+02  0.67385514222E+02 -0.12128786893E+03  0.14286787707E+03  0.00000000000E+00 0. -1.
         21    1    1    2  503  502  0.11370714532E+02 -0.18753947191E+02  0.71778076109E+02  0.75053953221E+02  0.00000000000E+00 0. -1.
          1    1    1    2  501    0 -0.22655792809E+02  0.15235606254E+02 -0.79648705788E+02  0.84198129311E+02  0.00000000000E+00 0. -1.
<scales pt_clust_5="13000.00000" pt_clust_6="13000.00000" pt_clust_7="13000.00000" pt_clust_8="13000.00000" pt_clust_9="21.93180" pt_clust_10="13000.00000"></scales>
<clustering>
<clus scale="   21.932">  1  9  2 -1</clus>
<clus scale="   90.515">  7  8 -1 -1</clus>
<clus scale="   26.361">  7 10 -1 -1</clus>
<clus scale="   90.891">  5  6 -1 -1</clus>
<clus scale="  184.072">  2  5  1 -1</clus>
<clus scale="   21.932">  1  5  2 -1</clus>
</clustering>
</event>
<event>
10    2  0.1117766E-005  0.8555631E+03  0.7546771E-02  0.9697687E-01
         -1   -1    0    0    0  501 -0.00000000000E+00  0.00000000000E+00  0.12779151896E+04  0.12779151896E+04  0.00000000000E+00 0.  1.
         21   -1    0    0  503  502  0.00000000000E+00 -0.00000000000E+00 -0.78510407877E+03  0.78510407877E+03  0.00000000000E+00 0.  1.
         23    2    1    2    0    0  0.27608532567E+03  0.28830955379E+03  0.35156910184E+02  0.41082235200E+03  0.90517902692E+02 0.  0.
         23    2    1    2    0    0 -0.22776960999E+02 -0.55409624522E+02  0.46856708417E+03  0.48122597746E+03  0.91838513544E+02 0.  0.
        -11    1    3    3    0    0  0.65114562956E+02  0.44235734652E+02  0.39724772422E+02  0.88174622615E+02  0.00000000000E+00 0. -1.
         11    1    3    3    0    0  0.21097076271E+03  0.24407381914E+03 -0.45678622380E+01  0.32264772938E+03  0.00000000000E+00 0.  1.
        -13    1    4    4    0    0 -0.83616039546E+01  0.25553408282E+02  0.96233423676E+02  0.99918791666E+02  0.00000000000E+00 0.  1.
         13    1    4    4    0    0 -0.14415357044E+02 -0.80963032803E+02  0.37233366049E+03  0.38130718579E+03  0.00000000000E+00 0. -1.
         21    1    1    2  503  501 -0.63566212344E+03 -0.37358649495E+03 -0.12510944075E+03  0.74785398077E+03  0.00000000000E+00 0.  1.
         -1    1    1    2    0  502  0.38235375877E+03  0.14068656568E+03  0.11419655726E+03  0.42311695818E+03  0.00000000000E+00 0.  1.
<scales pt_clust_5="13000.00000" pt_clust_6="13000.00000" pt_clust_7="13000.00000" pt_clust_8="13000.00000" pt_clust_9="624.76652" pt_clust_10="13000.00000"></scales>
<clustering>
<clus scale="   90.518">  5  6 -1 -1</clus>
<clus scale="   91.839">  7  8 -1 -1</clus>
<clus scale="  407.415">  7 10 -1 -1</clus>
<clus scale="  409.315">  1  5  2 -1</clus>
<clus scale="  624.767">  2  9  1 -1</clus>
<clus scale="  624.767">  2  5  1 -1</clus>
</clustering>
</event>
<event>
10    2  0.5921424E-006  0.3412437E+03  0.7546771E-02  0.1105947E+00
         21   -1    0    0  503  502  0.00000000000E+00  0.00000000000E+00  0.17092523319E+03  0.17092523319E+03  0.00000000000E+00 0. -1.
          1   -1    0    0  502    0 -0.00000000000E+00 -0.00000000000E+00 -0.68601336629E+03  0.68601336629E+03  0.00000000000E+00 0. -1.
         23    2    1    2    0    0  0.38512443677E+02 -0.64121173056E+02 -0.25467785742E+03  0.28150733261E+03  0.93759448066E+02 0.  0.
         23    2    1    2    0    0  0.10864321729E+02  0.49651348105E+01 -0.39521967143E+03  0.40187751401E+03  0.71862796604E+02 0.  0.
        -11    1    3    3    0    0  0.45491571423E+02 -0.84450077082E+02 -0.22721727955E+03  0.24663533955E+03  0.00000000000E+00 0. -1.
         11    1    3    3    0    0 -0.69791277460E+01  0.20328904026E+02 -0.27460577874E+02  0.34871993062E+02  0.00000000000E+00 0.  1.
        -11    1    4    4    0    0 -0.11472505887E+02  0.34177504404E+02 -0.20076445632E+03  0.20397570228E+03  0.00000000000E+00 0.  1.
         11    1    4    4    0    0  0.22336827617E+02 -0.29212369594E+02 -0.19445521510E+03  0.19790181173E+03  0.00000000000E+00 0. -1.
         21    1    1    2  503  501 -0.35543886751E+02 -0.40485699698E+01  0.83956802188E+02  0.91260634656E+02  0.00000000000E+00 0. -1.
          1    1    1    2  501    0 -0.13832878655E+02  0.63204608216E+02  0.50852593557E+02  0.82293118200E+02  0.00000000000E+00 0. -1.
<scales pt_clust_5="13000.00000" pt_clust_6="13000.00000" pt_clust_7="13000.00000" pt_clust_8="13000.00000" pt_clust_9="35.77372" pt_clust_10="13000.00000"></scales>
<clustering>
<clus scale="   35.774">  1  9  2 -1</clus>
<clus scale="   71.863">  7  8 -1 -1</clus>
<clus scale="   73.349">  7 10 -1 -1</clus>
<clus scale="   93.759">  5  6 -1 -1</clus>
<clus scale="  118.581">  2  5  1 -1</clus>
<clus scale="   35.774">  1  5  2 -1</clus>
</clustering>
</event>
<event>
10    2  0.5921424E-006  0.8287680E+03  0.7546771E-02  0.9933898E-01
         21   -1    0    0  503  502  0.00000000000E+00  0.00000000000E+00  0.46520068078E+03  0.46520068078E+03  0.00000000000E+00 0.  1.
         -1   -1    0    0    0  501 -0.00000000000E+00 -0.00000000000E+00 -0.68412626473E+03  0.68412626473E+03  0.00000000000E+00 0.  1.
         23    2    1    2    0    0  0.16794056376E+03  0.71401474643E+02 -0.27047884029E+02  0.20570849609E+03  0.91006559089E+02 0.  0.
         23    2    1    2    0    0  0.22405208698E+03 -0.27603749073E+01 -0.37168346919E+03  0.44362504298E+03  0.91910935864E+02 0.  0.
        -11    1    3    3    0    0  0.14704936955E+03  0.22464868111E+02 -0.72389297080E+01  0.14893149260E+03  0.00000000000E+00 0.  1.
         11    1    3    3    0    0  0.20891194208E+02  0.48936606531E+02 -0.19808954321E+02  0.56777003492E+02  0.00000000000E+00 0. -1.
        -13    1    4    4    0    0  0.21269687051E+03 -0.26533480878E+02 -0.34472917778E+03  0.40593372655E+03  0.00000000000E+00 0.  1.
         13    1    4    4    0    0  0.11355216470E+02  0.23773105971E+02 -0.26954291410E+02  0.37691316427E+02  0.00000000000E+00 0. -1.
         21    1    1    2  503  501  0.10417880620E+02  0.24035953358E+02  0.66968384716E+02  0.71909831330E+02  0.00000000000E+00 0.  1.
         -1    1    1    2    0  502 -0.40241053137E+03 -0.92677053093E+02  0.11283738455E+03  0.42808357511E+03  0.00000000000E+00 0.  1.
<scales pt_clust_5="13000.00000" pt_clust_6="13000.00000" pt_clust_7="13000.00000" pt_clust_8="13000.00000" pt_clust_9="26.19655" pt_clust_10="13000.00000"></scales>
<clustering>
<clus scale="   26.197">  1  9  2 -1</clus>
<clus scale="   91.007">  5  6 -1 -1</clus>
<clus scale="   91.911">  7  8 -1 -1</clus>
<clus scale="  207.808">  2  5  1 -1</clus>
<clus scale="  353.865">  7 10 -1 -1</clus>
<clus scale="   26.197">  1  5  2 -1</clus>
</clustering>
</event>
<event>
10    2  0.5921424E-006  0.1303532E+03  0.7546771E-02  0.1234860E+00
          2   -1    0    0  503    0 -0.00000000000E+00  0.00000000000E+00  0.35455673581E+03  0.35455673581E+03  0.00000000000E+00 0. -1.
         21   -1    0    0  501  502  0.00000000000E+00 -0.00000000000E+00 -0.34112605654E+03  0.34112605654E+03  0.00000000000E+00 0. -1.
         23    2    1    2    0    0 -0.33035892520E+02 -0.30841163337E+02  0.26379761985E+03  0.28689759421E+03  0.10333681712E+03 0.  0.
         23    2    1    2    0    0  0.19869782504E+02  0.27610203558E+02  0.39146658084E+02  0.10481181696E+03  0.91081966044E+02 0.  0.
        -13    1    4    4    0    0  0.42046624713E+02 -0.15287487407E+02  0.36695139708E+01  0.44889767807E+02  0.00000000000E+00 0.  1.
         13    1    4    4    0    0 -0.22176842209E+02  0.42897690965E+02  0.35477144113E+02  0.59922049155E+02  0.00000000000E+00 0. -1.
        -13    1    3    3    0    0 -0.25557745568E+01  0.35088345733E+02  0.12976224607E+03  0.13444688354E+03  0.00000000000E+00 0.  1.
         13    1    3    3    0    0 -0.30480117963E+02 -0.65929509070E+02  0.13403537378E+03  0.15245071066E+03  0.00000000000E+00 0. -1.
         21    1    1    2  503  502  0.33564720231E+02  0.86021675575E+01 -0.27758710023E+03  0.27974128395E+03  0.00000000000E+00 0. -1.
          2    1    1    2  501    0 -0.20398610215E+02 -0.53712077782E+01 -0.11926498426E+02  0.24232097235E+02  0.00000000000E+00 0. -1.
<scales pt_clust_5="13000.00000" pt_clust_6="13000.00000" pt_clust_7="13000.00000" pt_clust_8="13000.00000" pt_clust_9="34.64950" pt_clust_10="13000.00000"></scales>
<clustering>
<clus scale="   34.649">  2  9  1 -1</clus>
<clus scale="   91.082">  5  6 -1 -1</clus>
<clus scale="   11.065">  5 10 -1 -1</clus>
<clus scale="  103.337">  7  8 -1 -1</clus>
<clus scale="  110.697">  1  7  2 -1</clus>
<clus scale="   34.649">  2  5  1 -1</clus>
</clustering>
</event>
<event>
10    2  0.5921424E-006  0.2567517E+03  0.7546771E-02  0.1135574E+00
          1   -1    0    0  502    0 -0.00000000000E+00  0.00000000000E+00  0.26775785829E+03  0.26775785829E+03  0.00000000000E+00 0. -1.
         21   -1    0    0  503  502  0.00000000000E+00 -0.00000000000E+00 -0.19338227638E+03  0.19338227638E+03  0.00000000000E+00 0. -1.
         23    2    1    2    0    0  0.88356235336E+02  0.67340181685E+01  0.57930917387E+02  0.13911644541E+03  0.90250888480E+02 0.  0.
         23    2    1    2    0    0 -0.15795269141E+02  0.56838995876E+02  0.97045379651E+02  0.14545865658E+03  0.90885934463E+02 0.  0.
        -11    1    3    3    0    0  0.50797743841E+02 -0.56770047906E+01  0.79156700791E+02  0.94225381097E+02  0.00000000000E+00 0. -1.
         11    1    3    3    0    0  0.37558491495E+02  0.12411022959E+02 -0.21225783404E+02  0.44891064316E+02  0.00000000000E+00 0.  1.
        -13    1    4    4    0    0 -0.27904037340E+02  0.77316445225E+02  0.86838824308E+02  0.11957194240E+03  0.00000000000E+00 0. -1.
         13    1    4    4    0    0  0.12108768199E+02 -0.20477449349E+02  0.10206555343E+02  0.25886714181E+02  0.00000000000E+00 0.  1.
         21    1    1    2  503  501  0.34709674275E+02 -0.25388273081E+02 -0.26379201422E+02  0.50449857938E+02  0.00000000000E+00 0. -1.
          1    1    1    2  501    0 -0.10727064047E+03 -0.38184740964E+02 -0.54221513709E+02  0.12611517473E+03  0.00000000000E+00 0. -1.
<scales pt_clust_5="13000.00000" pt_clust_6="13000.00000" pt_clust_7="13000.00000" pt_clust_8="13000.00000" pt_clust_9="43.00379" pt_clust_10="13000.00000"></scales>
<clustering>
<clus scale="   43.004">  2  9  1 -1</clus>
<clus scale="   90.251">  5  6 -1 -1</clus>
<clus scale="   90.886">  7  8 -1 -1</clus>
<clus scale="  101.914">  7 10 -1 -1</clus>
<clus scale="  132.821">  1  5  2 -1</clus>
<clus scale="   43.004">  2  5  1 -1</clus>
</clustering>
</event>
<event>
10    2  0.5921424E-006  0.3229899E+03  0.7546771E-02  0.1111098E+00
          1   -1    0    0  503    0 -0.00000000000E+00  0.00000000000E+00  0.81774811412E+03  0.81774811412E+03  0.00000000000E+00 0. -1.
         21   -1    0    0  501  502  0.00000000000E+00 -0.00000000000E+00 -0.73676562843E+02  0.73676562843E+02  0.00000000000E+00 0. -1.
         23    2    1    2    0    0  0.56975793733E+01 -0.81594180481E+02  0.31892448169E+03  0.34165770089E+03  0.91252873132E+02 0.  0.
         23    2    1    2    0    0 -0.67817139882E+02  0.14293640456E+03  0.40049448278E+03  0.44553396852E+03  0.11434468137E+03 0.  0.
        -13    1    3    3    0    0  0.36617370745E+02 -0.21168935572E+01  0.81203189310E+02  0.89102587127E+02  0.00000000000E+00 0.  1.
         13    1    3    3    0    0 -0.30919791372E+02 -0.79477286924E+02  0.23772129238E+03  0.25255511376E+03  0.00000000000E+00 0. -1.
        -13    1    4    4    0    0 -0.18236034807E+02  0.34488717584E+02  0.14632678901E+02  0.41667012106E+02  0.00000000000E+00 0.  1.
         13    1    4    4    0    0 -0.49581105076E+02  0.10844768697E+03  0.38586180388E+03  0.40386695641E+03  0.00000000000E+00 0. -1.
         21    1    1    2  503  502  0.23521805027E+02  0.16744831921E+01  0.18699632308E+02  0.30095771367E+02  0.00000000000E+00 0. -1.
          1    1    1    2  501    0  0.38597755482E+02 -0.63016707269E+02  0.59529545038E+01  0.74137236194E+02  0.00000000000E+00 0. -1.
<scales pt_clust_5="13000.00000" pt_clust_6="13000.00000" pt_clust_7="13000.00000" pt_clust_8="13000.00000" pt_clust_9="23.58133" pt_clust_10="13000.00000"></scales>
<clustering>
<clus scale="   23.581">  2  9  1 -1</clus>
<clus scale="   91.253">  5  6 -1 -1</clus>
<clus scale="  114.345">  7  8 -1 -1</clus>
<clus scale="   80.035">  7 10 -1 -1</clus>
<clus scale="  122.604">  1  5  2 -1</clus>
<clus scale="   23.581">  2  5  1 -1</clus>
</clustering>
</event>
<event>
10    2  0.5921424E-006  0.2734432E+03  0.7546771E-02  0.1119981E+00
         21   -1    0    0  503  502  0.00000000000E+00  0.00000000000E+00  0.24330082970E+03  0.24330082970E+03  0.00000000000E+00 0. -1.
          2   -1    0    0  502    0 -0.00000000000E+00 -0.00000000000E+00 -0.59871263131E+03  0.59871263131E+03  0.00000000000E+00 0. -1.
         23    2    1    2    0    0  0.60347287782E+02 -0.14087743451E+03  0.86671329208E+01  0.17978179314E+03  0.93584866593E+02 0.  0.
         23    2    1    2    0    0 -0.10463219886E+03  0.48261753281E+02 -0.36166865581E+03  0.39095089737E+03  0.93601782503E+02 0.  0.
        -11    1    4    4    0    0 -0.45262323653E+02  0.59503516908E+02 -0.11634271371E+03  0.13829307105E+03  0.00000000000E+00 0. -1.
         11    1    4    4    0    0 -0.59369875204E+02 -0.11241763626E+02 -0.24532594210E+03  0.25265782632E+03  0.00000000000E+00 0.  1.
        -11    1    3    3    0    0 -0.10001228187E+02 -0.48510831801E+02  0.35097983254E+02  0.60705797052E+02  0.00000000000E+00 0.  1.
         11    1    3    3    0    0  0.70348515970E+02 -0.92366602711E+02 -0.26430850334E+02  0.11907599609E+03  0.00000000000E+00 0. -1.
         21    1    1    2  503  501 -0.32948589532E+02  0.19847156093E+02  0.11009881816E+03  0.11662447820E+03  0.00000000000E+00 0. -1.
          2    1    1    2  501    0  0.77233500607E+02  0.72768525137E+02 -0.11250909688E+03  0.15465629230E+03  0.00000000000E+00 0. -1.
<scales pt_clust_5="13000.00000" pt_clust_6="13000.00000" pt_clust_7="13000.00000" pt_clust_8="13000.00000" pt_clust_9="38.46452" pt_clust_10="13000.00000"></scales>
<clustering>
<clus scale="   38.465">  1  9  2 -1</clus>
<clus scale="   93.585">  7  8 -1 -1</clus>
<clus scale="   93.602">  5  6 -1 -1</clus>
<clus scale="  104.605">  5 10 -1 -1</clus>
<clus scale="  161.511">  2  7  1 -1</clus>
<clus scale="   38.465">  1  5  2 -1</clus>
</clustering>
</event>
<event>
10    2  0.5921424E-006  0.2379190E+03  0.7546771E-02  0.1135418E+00
         -3   -1    0    0    0  501 -0.00000000000E+00  0.00000000000E+00  0.46337348027E+03  0.46337348027E+03  0.00000000000E+00 0.  1.
         21   -1    0    0  501  502  0.00000000000E+00 -0.00000000000E+00 -0.11513111119E+03  0.11513111119E+03  0.00000000000E+00 0.  1.
         23    2    1    2    0    0  0.66171511567E+02  0.12298028292E+03  0.68864749509E+02  0.18096304835E+03  0.92208742596E+02 0.  0.
         23    2    1    2    0    0 -0.37858998888E+01 -0.82440113828E+02  0.27867939601E+03  0.30598141464E+03  0.95664596043E+02 0.  0.
        -11    1    3    3    0    0  0.70532165876E+02  0.36845368153E+02  0.20889686105E+02  0.82272392472E+02  0.00000000000E+00 0.  1.
         11    1    3    3    0    0 -0.43606543084E+01  0.86134914771E+02  0.47975063404E+02  0.98690655876E+02  0.00000000000E+00 0. -1.
        -11    1    4    4    0    0 -0.16423165308E+02  0.17723727012E+02  0.38610864985E+02  0.45548323271E+02  0.00000000000E+00 0. -1.
         11    1    4    4    0    0  0.12637265420E+02 -0.10016384084E+03  0.24006853102E+03  0.26043309136E+03  0.00000000000E+00 0.  1.
         21    1    1    2  503  502 -0.22911160390E+02  0.11336544064E+02 -0.52694667557E+01  0.26099919188E+02  0.00000000000E+00 0. -1.
         -3    1    1    2    0  503 -0.39474451289E+02 -0.51876713160E+02  0.59676903168E+01  0.65460209292E+02  0.00000000000E+00 0.  1.
<scales pt_clust_5="13000.00000" pt_clust_6="13000.00000" pt_clust_7="13000.00000" pt_clust_8="13000.00000" pt_clust_9="25.56244" pt_clust_10="13000.00000"></scales>
<clustering>
<clus scale="   25.562">  2  9  1 -1</clus>
<clus scale="   92.209">  5  6 -1 -1</clus>
<clus scale="   95.665">  7  8 -1 -1</clus>
<clus scale="   67.061">  7 10 -1 -1</clus>
<clus scale="  167.557">  1  5  2 -1</clus>
<clus scale="   25.562">  2  5  1 -1</clus>
</clustering>
</event>
<event>
10    2  0.5921424E-006  0.3223294E+03  0.7546771E-02  0.1112944E+00
         -2   -1    0    0    0  501 -0.00000000000E+00  0.00000000000E+00  0.65171549079E+03  0.65171549079E+03  0.00000000000E+00 0.  1.
         21   -1    0    0  501  502  0.00000000000E+00 -0.00000000000E+00 -0.31998751930E+03  0.31998751930E+03  0.00000000000E+00 0.  1.
         23    2    1    2    0    0 -0.41040118785E+01 -0.76484297717E+02  0.51184556457E+03  0.52532522647E+03  0.90077860163E+02 0.  0.
         23    2    1    2    0    0  0.96286025577E+02 -0.26412718218E+02  0.70862875007E+02  0.15338365953E+03  0.92392475615E+02 0.  0.
        -11    1    3    3    0    0 -0.21872091737E+02  0.13707236719E+02  0.93376009562E+02  0.96878046518E+02  0.00000000000E+00 0. -1.
         11    1    3    3    0    0  0.17768079858E+02 -0.90191534436E+02  0.41846955501E+03  0.42844717996E+03  0.00000000000E+00 0.  1.
        -13    1    4    4    0    0 -0.84055703912E+01 -0.20393344984E+02 -0.65851660610E+01  0.23019699070E+02  0.00000000000E+00 0. -1.
         13    1    4    4    0    0  0.10469159597E+03 -0.60193732343E+01  0.77448041068E+02  0.13036396046E+03  0.00000000000E+00 0.  1.
         21    1    1    2  503  502 -0.17930024691E+02  0.25237334701E+02 -0.11820087373E+03  0.12218778744E+03  0.00000000000E+00 0. -1.
         -2    1    1    2    0  503 -0.74251989008E+02  0.77659681235E+02 -0.13277959435E+03  0.17080633664E+03  0.00000000000E+00 0.  1.
<scales pt_clust_5="13000.00000" pt_clust_6="13000.00000" pt_clust_7="13000.00000" pt_clust_8="13000.00000" pt_clust_9="30.95818" pt_clust_10="13000.00000"></scales>
<clustering>
<clus scale="   30.958">  2  9  1 -1</clus>
<clus scale="   90.078">  5  6 -1 -1</clus>
<clus scale="   92.392">  7  8 -1 -1</clus>
<clus scale="  117.714">  1  5  2 -1</clus>
<clus scale="  119.741">  7 10 -1 -1</clus>
<clus scale="   30.958">  2  5  1 -1</clus>
</clustering>
</event>
<event>
10    2  0.5921424E-006  0.3174343E+03  0.7546771E-02  0.1122380E+00
         21   -1    0    0  501  502  0.00000000000E+00  0.00000000000E+00  0.85511661685E+03  0.85511661685E+03  0.00000000000E+00 0.  1.
          1   -1    0    0  503    0 -0.00000000000E+00 -0.00000000000E+00 -0.18494066257E+03  0.18494066257E+03  0.00000000000E+00 0. -1.
         23    2    1    2    0    0  0.55880023977E+01 -0.32978229979E+02 -0.93315288359E+02  0.13477092149E+03  0.91305360265E+02 0.  0.
         23    2    1    2    0    0 -0.10285622215E+03  0.57553758566E+02  0.18121311359E+03  0.23485440757E+03  0.91796310716E+02 0.  0.
        -13    1    3    3    0    0 -0.17801158249E+02 -0.47447850018E+02 -0.94512487747E+02  0.10724173649E+03  0.00000000000E+00 0.  1.
         13    1    3    3    0    0  0.23389160647E+02  0.14469620039E+02  0.11971993881E+01  0.27529184990E+02  0.00000000000E+00 0. -1.
        -13    1    4    4    0    0 -0.75842177162E+02  0.62504074830E+02  0.70926561661E+02  0.12119972094E+03  0.00000000000E+00 0. -1.
         13    1    4    4    0    0 -0.27014044983E+02 -0.49503162639E+01  0.11028655193E+03  0.11365468663E+03  0.00000000000E+00 0.  1.
         21    1    1    2  503  502 -0.41824848118E+02 -0.13849870897E+03  0.33309319853E+03  0.36315601222E+03  0.00000000000E+00 0.  1.
          1    1    1    2  501    0  0.13909306787E+03  0.11392318038E+03  0.24918493053E+03  0.30727593814E+03  0.00000000000E+00 0. -1.
<scales pt_clust_5="13000.00000" pt_clust_6="13000.00000" pt_clust_7="13000.00000" pt_clust_8="13000.00000" pt_clust_9="151.06005" pt_clust_10="13000.00000"></scales>
<clustering>
<clus scale="   91.305">  5  6 -1 -1</clus>
<clus scale="   91.796">  7  8 -1 -1</clus>
<clus scale="   97.239">  2  5  1 -1</clus>
<clus scale="  151.060">  1  9  2 -1</clus>
<clus scale="  119.759">  7 10 -1 -1</clus>
<clus scale="  151.060">  1  5  2 -1</clus>
</clustering>
</event>
<event>
10    2  0.5921424E-006  0.1344925E+03  0.7546771E-02  0.1231865E+00
         -2   -1    0    0    0  501 -0.00000000000E+00  0.00000000000E+00  0.49122953029E+03  0.49122953029E+03  0.00000000000E+00 0.  1.
         21   -1    0    0  503  502  0.00000000000E+00 -0.00000000000E+00 -0.51610698613E+02  0.51610698613E+02  0.00000000000E+00 0. -1.
         23    2    1    2    0    0  0.40151621521E+01  0.35346261033E+02  0.10124226441E+03  0.14064582062E+03  0.90916285996E+02 0.  0.
         23    2    1    2    0    0  0.38633494610E+01 -0.65382274032E+02  0.26055309436E+03  0.28402072812E+03  0.92141694139E+02 0.  0.
        -11    1    3    3    0    0 -0.39959415597E+02  0.33473388978E+01  0.25940213572E+02  0.47758289885E+02  0.00000000000E+00 0.  1.
         11    1    3    3    0    0  0.43974577749E+02  0.31998922136E+02  0.75302050834E+02  0.92887530734E+02  0.00000000000E+00 0. -1.
        -13    1    4    4    0    0 -0.27477429522E+01  0.20585770403E+02  0.21495939141E+02  0.29889788121E+02  0.00000000000E+00 0. -1.
         13    1    4    4    0    0  0.66110924132E+01 -0.85968044435E+02  0.23905715522E+03  0.25413094000E+03  0.00000000000E+00 0.  1.
         21    1    1    2  503  501 -0.38156996018E+02  0.33747395307E+02  0.24008048927E+02  0.56313670173E+02  0.00000000000E+00 0. -1.
         -2    1    1    2    0  502  0.30278484405E+02 -0.37113823079E+01  0.53815423984E+02  0.61860009983E+02  0.00000000000E+00 0.  1.
<scales pt_clust_5="13000.00000" pt_clust_6="13000.00000" pt_clust_7="13000.00000" pt_clust_8="13000.00000" pt_clust_9="50.93960" pt_clust_10="13000.00000"></scales>
<clustering>
<clus scale="   50.940">  2  9  1 -1</clus>
<clus scale="   90.916">  5  6 -1 -1</clus>
<clus scale="   92.142">  7  8 -1 -1</clus>
<clus scale="   25.950">  7 10 -1 -1</clus>
<clus scale="  107.181">  1  5  2 -1</clus>
<clus scale="   50.940">  2  5  1 -1</clus>
</clustering>
</event>
<event>
10    2  0.5921424E-006  0.5517648E+03  0.7546771E-02  0.1028149E+00
         21   -1    0    0  503  502  0.00000000000E+00  0.00000000000E+00  0.66367749109E+03  0.66367749109E+03  0.00000000000E+00 0.  1.
         -1   -1    0    0    0  501 -0.00000000000E+00 -0.00000000000E+00 -0.46881038153E+03  0.46881038153E+03  0.00000000000E+00 0.  1.
         23    2    1    2    0    0  0.20088874532E+03  0.81826092174E+02 -0.11488726460E+03  0.26152581512E+03  0.90248939336E+02 0.  0.
         23    2    1    2    0    0 -0.36718216514E+03 -0.47904630538E+02 -0.11046055492E+03  0.39728509142E+03  0.92283875332E+02 0.  0.
        -11    1    4    4    0    0 -0.30647671707E+03 -0.64808894080E+02 -0.65912052521E+02  0.32011336981E+03  0.00000000000E+00 0. -1.
         11    1    4    4    0    0 -0.60705448063E+02  0.16904263542E+02 -0.44548502399E+02  0.77171721611E+02  0.00000000000E+00 0.  1.
        -13    1    3    3    0    0  0.13951976122E+03  0.99120873368E+02 -0.85703862079E+02  0.19140497194E+03  0.00000000000E+00 0.  1.
         13    1    3    3    0    0  0.61368984097E+02 -0.17294781193E+02 -0.29183402520E+02  0.70120843180E+02  0.00000000000E+00 0. -1.
         21    1    1    2  503  501  0.55229640672E+02 -0.55137807794E+02  0.29417478224E+03  0.30435060960E+03  0.00000000000E+00 0.  1.
         -1    1    1    2    0  502  0.11106377915E+03  0.21216346158E+02  0.12604014685E+03  0.16932635648E+03  0.00000000000E+00 0.  1.
<scales pt_clust_5="13000.00000" pt_clust_6="13000.00000" pt_clust_7="13000.00000" pt_clust_8="13000.00000" pt_clust_9="78.04160" pt_clust_10="13000.00000"></scales>
<clustering>
<clus scale="   78.042">  1  9  2 -1</clus>
<clus scale="   90.249">  7  8 -1 -1</clus>
<clus scale="   92.284">  5  6 -1 -1</clus>
<clus scale="  133.451">  5 10 -1 -1</clus>
<clus scale="  241.023">  2  7  1 -1</clus>
<clus scale="   78.042">  1  5  2 -1</clus>
</clustering>
</event>
<event>
10    2  0.5921424E-006  0.5794912E+03  0.7546771E-02  0.1035440E+00
         21   -1    0    0  503  502  0.00000000000E+00  0.00000000000E+00  0.13291734848E+04  0.13291734848E+04  0.00000000000E+00 0.  1.
         -1   -1    0    0    0  501 -0.00000000000E+00 -0.00000000000E+00 -0.13528124800E+03  0.13528124800E+03  0.00000000000E+00 0.  1.
         23    2    1    2    0    0 -0.95953672635E+02  0.84312207927E+02  0.25166177751E+03  0.29635459892E+03  0.90425341279E+02 0.  0.
         23    2    1    2    0    0 -0.51657879271E+02 -0.14912241446E+03  0.71165830847E+01  0.18301981418E+03  0.92409824373E+02 0.  0.
        -11    1    4    4    0    0 -0.18774041794E+02 -0.97456442050E+02 -0.38709072915E+02  0.10652987876E+03  0.00000000000E+00 0.  1.
         11    1    4    4    0    0 -0.32883837477E+02 -0.51665972412E+02  0.45825655999E+02  0.76489935418E+02  0.00000000000E+00 0. -1.
        -13    1    3    3    0    0 -0.50132728950E+02  0.94005572043E+02  0.14562847317E+03  0.18043832820E+03  0.00000000000E+00 0.  1.
         13    1    3    3    0    0 -0.45820943685E+02 -0.96933641162E+01  0.10603330434E+03  0.11591627072E+03  0.00000000000E+00 0. -1.
         21    1    1    2  503  501 -0.75099645626E+02 -0.77948450086E+01  0.22782676991E+03  0.24001198610E+03  0.00000000000E+00 0.  1.
         -1    1    1    2    0  502  0.22271119753E+03  0.72605051544E+02  0.70728710627E+03  0.74506833359E+03  0.00000000000E+00 0.  1.
<scales pt_clust_5="13000.00000" pt_clust_6="13000.00000" pt_clust_7="13000.00000" pt_clust_8="13000.00000" pt_clust_9="75.50309" pt_clust_10="13000.00000"></scales>
<clustering>
<clus scale="   75.503">  1  9  2 -1</clus>
<clus scale="   90.425">  7  8 -1 -1</clus>
<clus scale="   92.410">  5  6 -1 -1</clus>
<clus scale="  167.708">  2  7  1 -1</clus>
<clus scale="  174.816">  5 10 -1 -1</clus>
<clus scale="   75.503">  1  5  2 -1</clus>
</clustering>
</event>
<event>
10    2  0.5921424E-006  0.1966329E+03  0.7546771E-02  0.1177903E+00
          2   -1    0    0  503    0 -0.00000000000E+00  0.00000000000E+00  0.86752205938E+03  0.86752205938E+03  0.00000000000E+00 0. -1.
         21   -1    0    0  501  502  0.00000000000E+00 -0.00000000000E+00 -0.38698933961E+02  0.38698933961E+02  0.00000000000E+00 0.  1.
         23    2    1    2    0    0 -0.67178549649E+02  0.31681535832E+02  0.13899793454E+03  0.18162450038E+03  0.90279322574E+02 0.  0.
         23    2    1    2    0    0  0.51716284858E+02  0.33790341004E+02  0.51641913136E+03  0.52797086414E+03  0.90819341978E+02 0.  0.
        -11    1    3    3    0    0 -0.56165601689E+02  0.58716965873E+02  0.12539231468E+03  0.14941716593E+03  0.00000000000E+00 0. -1.
         11    1    3    3    0    0 -0.11012947960E+02 -0.27035430041E+02  0.13605619865E+02  0.32207334447E+02  0.00000000000E+00 0.  1.
        -11    1    4    4    0    0  0.54911338359E+02 -0.18089427673E+02  0.27957800272E+03  0.28549315592E+03  0.00000000000E+00 0.  1.
         11    1    4    4    0    0 -0.31950535015E+01  0.51879768677E+02  0.23684112864E+03  0.24247770821E+03  0.00000000000E+00 0. -1.
         21    1    1    2  503  502  0.24054277020E+02  0.24959072515E+01  0.44885475646E+02  0.50985720745E+02  0.00000000000E+00 0.  1.
          2    1    1    2  501    0 -0.85920122295E+01 -0.67967784088E+02  0.12852058387E+03  0.14563990808E+03  0.00000000000E+00 0. -1.
<scales pt_clust_5="13000.00000" pt_clust_6="13000.00000" pt_clust_7="13000.00000" pt_clust_8="13000.00000" pt_clust_9="24.18342" pt_clust_10="13000.00000"></scales>
<clustering>
<clus scale="   24.183">  2  9  1 -1</clus>
<clus scale="   90.279">  5  6 -1 -1</clus>
<clus scale="   90.819">  7  8 -1 -1</clus>
<clus scale="   67.427">  7 10 -1 -1</clus>
<clus scale="  109.720">  1  5  2 -1</clus>
<clus scale="   24.183">  2  5  1 -1</clus>
</clustering>
</event>
<event>
10    2  0.5921424E-006  0.1852400E+03  0.7546771E-02  0.1178755E+00
          2   -1    0    0  503    0 -0.00000000000E+00  0.00000000000E+00  0.30847395434E+03  0.30847395434E+03  0.00000000000E+00 0. -1.
         21   -1    0    0  501  502  0.00000000000E+00 -0.00000000000E+00 -0.40510416098E+03  0.40510416098E+03  0.00000000000E+00 0. -1.
         23    2    1    2    0    0 -0.40069720287E+01  0.11505853605E+03  0.75588072409E+02  0.16680754221E+03  0.94109919273E+02 0.  0.
         23    2    1    2    0    0  0.46053555688E+02 -0.59482525673E+02  0.91776414991E+02  0.14980470345E+03  0.91429962131E+02 0.  0.
        -13    1    4    4    0    0  0.50052271365E+02 -0.32390898103E+02  0.10395192714E+03  0.11983490019E+03  0.00000000000E+00 0. -1.
         13    1    4    4    0    0 -0.39987156769E+01 -0.27091627570E+02 -0.12175512144E+02  0.29969803259E+02  0.00000000000E+00 0.  1.
        -13    1    3    3    0    0 -0.48412714458E+02  0.66968992204E+02  0.34665470847E+02  0.89612118082E+02  0.00000000000E+00 0.  1.
         13    1    3    3    0    0  0.44405742430E+02  0.48089543845E+02  0.40922601562E+02  0.77195424130E+02  0.00000000000E+00 0. -1.
         21    1    1    2  503  502 -0.10379472860E+03 -0.96451271987E+02 -0.28645595894E+03  0.31958286870E+03  0.00000000000E+00 0. -1.
          2    1    1    2  501    0  0.61748144945E+02  0.40875261611E+02  0.22461264903E+02  0.77383000955E+02  0.00000000000E+00 0. -1.
<scales pt_clust_5="13000.00000" pt_clust_6="13000.00000" pt_clust_7="13000.00000" pt_clust_8="13000.00000" pt_clust_9="141.69049" pt_clust_10="13000.00000"></scales>
<clustering>
<clus scale="   91.430">  5  6 -1 -1</clus>
<clus scale="   74.052">  5 10 -1 -1</clus>
<clus scale="   94.110">  7  8 -1 -1</clus>
<clus scale="  141.690">  2  9  1 -1</clus>
<clus scale="  128.740">  1  7  2 -1</clus>
<clus scale="  141.690">  2  5  1 -1</clus>
</clustering>
</event>
<event>
10    2  0.5921424E-006  0.2701016E+03  0.7546771E-02  0.1129312E+00
          3   -1    0    0  503    0 -0.00000000000E+00  0.00000000000E+00  0.32033271139E+03  0.32033271139E+03  0.00000000000E+00 0. -1.
         21   -1    0    0  501  502  0.00000000000E+00 -0.00000000000E+00 -0.26461418949E+03  0.26461418949E+03  0.00000000000E+00 0. -1.
         23    2    1    2    0    0  0.91167198700E+02  0.25579065053E+02  0.19079973904E+03  0.23116675337E+03  0.89820825858E+02 0.  0.
         23    2    1    2    0    0 -0.18010701078E+02 -0.46381029207E+02  0.47534609659E+02  0.11465053081E+03  0.91703979606E+02 0.  0.
        -11    1    4    4    0    0  0.23952148725E+02  0.12446012343E+02  0.29876510982E+02  0.40264308764E+02  0.00000000000E+00 0. -1.
         11    1    4    4    0    0 -0.41962849803E+02 -0.58827041550E+02  0.17658098678E+02  0.74386222045E+02  0.00000000000E+00 0.  1.
        -13    1    3    3    0    0  0.10147406705E+03 -0.15362505171E+01  0.14999897717E+03  0.18110505101E+03  0.00000000000E+00 0. -1.
         13    1    3    3    0    0 -0.10306868354E+02  0.27115315570E+02  0.40800761866E+02  0.50061702354E+02  0.00000000000E+00 0.  1.
         21    1    1    2  503  502  0.38808754443E+02 -0.32384781866E+01 -0.35492888105E+02  0.52691102365E+02  0.00000000000E+00 0. -1.
          3    1    1    2  501    0 -0.11196525207E+03  0.24040442341E+02 -0.14712293870E+03  0.18643851434E+03  0.00000000000E+00 0. -1.
<scales pt_clust_5="13000.00000" pt_clust_6="13000.00000" pt_clust_7="13000.00000" pt_clust_8="13000.00000" pt_clust_9="38.94364" pt_clust_10="13000.00000"></scales>
<clustering>
<clus scale="   38.944">  2  9  1 -1</clus>
<clus scale="   89.821">  7  8 -1 -1</clus>
<clus scale="   91.704">  5  6 -1 -1</clus>
<clus scale="   85.389">  5 10 -1 -1</clus>
<clus scale="  132.961">  1  7  2 -1</clus>
<clus scale="   38.944">  2  5  1 -1</clus>
</clustering>
</event>
<event>
10    2  0.5921424E-006  0.3450132E+03  0.7546771E-02  0.1065270E+00
         21   -1    0    0  501  502  0.00000000000E+00  0.00000000000E+00  0.11394908554E+04  0.11394908554E+04  0.00000000000E+00 0.  1.
         -3   -1    0    0    0  501 -0.00000000000E+00 -0.00000000000E+00 -0.13963341392E+03  0.13963341392E+03  0.00000000000E+00 0.  1.
         23    2    1    2    0    0  0.58814425865E+02 -0.31819701663E+03  0.52890129489E+03  0.63106152509E+03  0.11744611801E+03 0.  0.
         23    2    1    2    0    0  0.16984554775E+02  0.26321462496E+03  0.19238511211E+03  0.33873957231E+03  0.90344078895E+02 0.  0.
        -13    1    3    3    0    0  0.52631377158E+02 -0.42723520004E+02  0.86998432135E+02  0.11029092536E+03  0.00000000000E+00 0. -1.
         13    1    3    3    0    0  0.61830487074E+01 -0.27547349662E+03  0.44190286275E+03  0.52077059973E+03  0.00000000000E+00 0.  1.
        -13    1    4    4    0    0  0.22018622187E+02  0.24151618397E+03  0.20087092936E+03  0.31490318688E+03  0.00000000000E+00 0.  1.
         13    1    4    4    0    0 -0.50340674118E+01  0.21698440989E+02 -0.84858172488E+01  0.23836385432E+02  0.00000000000E+00 0. -1.
         21    1    1    2  503  502 -0.40898660300E+02  0.23075590284E+01  0.21792347367E+03  0.22174008573E+03  0.00000000000E+00 0.  1.
         -3    1    1    2    0  503 -0.34900320341E+02  0.52674832637E+02  0.60647560813E+02  0.87583086186E+02  0.00000000000E+00 0.  1.
<scales pt_clust_5="13000.00000" pt_clust_6="13000.00000" pt_clust_7="13000.00000" pt_clust_8="13000.00000" pt_clust_9="40.96371" pt_clust_10="13000.00000"></scales>
<clustering>
<clus scale="   40.964">  1  9  2 -1</clus>
<clus scale="   90.344">  7  8 -1 -1</clus>
<clus scale="   65.217">  7 10 -1 -1</clus>
<clus scale="  117.446">  5  6 -1 -1</clus>
<clus scale="  339.425">  2  5  1 -1</clus>
<clus scale="   40.964">  1  5  2 -1</clus>
</clustering>
</event>
<event>
10    2  0.5921424E-006  0.4685995E+03  0.7546771E-02  0.1055659E+00
          1   -1    0    0  503    0 -0.00000000000E+00  0.00000000000E+00  0.13175445005E+04  0.13175445005E+04  0.00000000000E+00 0. -1.
         21   -1    0    0  501  502  0.00000000000E+00 -0.00000000000E+00 -0.96758661749E+02  0.96758661749E+02  0.00000000000E+00 0. -1.
         23    2    1    2    0    0 -0.10941856380E+03  0.10533861954E+03  0.56302666002E+03  0.59004333634E+03  0.89908130834E+02 0.  0.
         23    2    1    2    0    0 -0.22891146323E+02 -0.73112591726E+02  0.62373058422E+03  0.63544974818E+03  0.94271337736E+02 0.  0.
        -11    1    3    3    0    0  0.72267640885E+01  0.38176600640E+02  0.17728545963E+03  0.18149328679E+03  0.00000000000E+00 0.  1.
         11    1    3    3    0    0 -0.11664532789E+03  0.67162018897E+02  0.38574120040E+03  0.40855004954E+03  0.00000000000E+00 0. -1.
        -13    1    4    4    0    0 -0.25845605583E+02  0.16938644323E+02  0.13596617495E+03  0.13943354592E+03  0.00000000000E+00 0.  1.
         13    1    4    4    0    0  0.29544592606E+01 -0.90051236049E+02  0.48776440928E+03  0.49601620226E+03  0.00000000000E+00 0. -1.
         21    1    1    2  503  502 -0.20892954694E+02 -0.13819316480E+02  0.23172686352E+02  0.34124220967E+02  0.00000000000E+00 0. -1.
          1    1    1    2  501    0  0.15320266482E+03 -0.18406711332E+02  0.10855908110E+02  0.15468585672E+03  0.00000000000E+00 0. -1.
<scales pt_clust_5="13000.00000" pt_clust_6="13000.00000" pt_clust_7="13000.00000" pt_clust_8="13000.00000" pt_clust_9="25.04973" pt_clust_10="13000.00000"></scales>
<clustering>
<clus scale="   25.050">  2  9  1 -1</clus>
<clus scale="   89.908">  5  6 -1 -1</clus>
<clus scale="   94.271">  7  8 -1 -1</clus>
<clus scale="  139.845">  7 10 -1 -1</clus>
<clus scale="  177.233">  1  5  2 -1</clus>
<clus scale="   25.050">  2  5  1 -1</clus>
</clustering>
</event>
<event>
10    2  0.5921424E-006  0.3538484E+03  0.7546771E-02  0.1099354E+00
          3   -1    0    0  502    0 -0.00000000000E+00  0.00000000000E+00  0.51588338818E+03  0.51588338818E+03  0.00000000000E+00 0. -1.
         21   -1    0    0  503  502  0.00000000000E+00 -0.00000000000E+00 -0.15382880227E+03  0.15382880227E+03  0.00000000000E+00 0. -1.
         23    2    1    2    0    0  0.38634129009E+02 -0.79773036098E+02  0.16606854864E+03  0.21180930835E+03  0.97098336984E+02 0.  0.
         23    2    1    2    0    0  0.62128843691E+02 -0.12077385023E+03  0.87318910751E+02  0.18736649101E+03  0.95054161721E+02 0.  0.
        -11    1    4    4    0    0  0.27450000357E+02  0.46338656045E+01  0.40376658856E+02  0.49043346240E+02  0.00000000000E+00 0.  1.
         11    1    4    4    0    0  0.34678843334E+02 -0.12540771583E+03  0.46942251895E+02  0.13832314477E+03  0.00000000000E+00 0. -1.
        -13    1    3    3    0    0  0.64754776512E+02 -0.74630488839E+02  0.15305265111E+03  0.18217575293E+03  0.00000000000E+00 0.  1.
         13    1    3    3    0    0 -0.26120647503E+02 -0.51425472588E+01  0.13015897532E+02  0.29633555420E+02  0.00000000000E+00 0. -1.
         21    1    1    2  503  501 -0.36622644493E+02  0.30791228387E+02 -0.15909029550E+02  0.50422366629E+02  0.00000000000E+00 0. -1.
          3    1    1    2  501    0 -0.64140328206E+02  0.16975565794E+03  0.12457615607E+03  0.22011402446E+03  0.00000000000E+00 0. -1.
<scales pt_clust_5="13000.00000" pt_clust_6="13000.00000" pt_clust_7="13000.00000" pt_clust_8="13000.00000" pt_clust_9="47.84682" pt_clust_10="13000.00000"></scales>
<clustering>
<clus scale="   47.847">  2  9  1 -1</clus>
<clus scale="   95.054">  5  6 -1 -1</clus>
<clus scale="   97.098">  7  8 -1 -1</clus>
<clus scale="  126.092">  1  7  2 -1</clus>
<clus scale="  147.958">  5 10 -1 -1</clus>
<clus scale="   47.847">  2  5  1 -1</clus>
</clustering>
</event>
<event>
10    2  0.5921424E-006  0.2556804E+03  0.7546771E-02  0.1151252E+00
         21   -1    0    0  501  502  0.00000000000E+00  0.00000000000E+00  0.45312935544E+03  0.45312935544E+03  0.00000000000E+00 0. -1.
          2   -1    0    0  503    0 -0.00000000000E+00 -0.00000000000E+00 -0.35728644040E+03  0.35728644040E+03  0.00000000000E+00 0. -1.
         23    2    1    2    0    0  0.29402646781E+02  0.37426607590E+02 -0.27474320946E+03  0.28987286383E+03  0.79228652945E+02 0.  0.
         23    2    1    2    0    0  0.91132300962E+01 -0.39304734982E+02  0.39394642998E+02  0.10915188250E+03  0.93457382813E+02 0.  0.
        -11    1    3    3    0    0 -0.73478316883E+01 -0.21344420849E+02 -0.54854389860E+02  0.59317611371E+02  0.00000000000E+00 0.  1.
         11    1    3    3    0    0  0.36750478469E+02  0.58771028439E+02 -0.21988881960E+03  0.23055525246E+03  0.00000000000E+00 0. -1.
        -13    1    4    4    0    0 -0.30129522659E+02 -0.34225177944E+01 -0.14350188739E+02  0.33547424351E+02  0.00000000000E+00 0.  1.
         13    1    4    4    0    0  0.39242752755E+02 -0.35882217187E+02  0.53744831737E+02  0.75604458152E+02  0.00000000000E+00 0. -1.
         21    1    1    2  503  502  0.50563610491E+02 -0.49988368812E+02  0.72804278878E+01  0.71473913791E+02  0.00000000000E+00 0. -1.
          2    1    1    2  501    0 -0.89079487368E+02  0.51866496204E+02  0.32391105361E+03  0.33991713571E+03  0.00000000000E+00 0. -1.
<scales pt_clust_5="13000.00000" pt_clust_6="13000.00000" pt_clust_7="13000.00000" pt_clust_8="13000.00000" pt_clust_9="71.10219" pt_clust_10="13000.00000"></scales>
<clustering>
<clus scale="   71.102">  1  9  2 -1</clus>
<clus scale="   79.229">  5  6 -1 -1</clus>
<clus scale="   92.358">  2  5  1 -1</clus>
<clus scale="   93.457">  7  8 -1 -1</clus>
<clus scale="   44.933">  7 10 -1 -1</clus>
<clus scale="   71.102">  1  5  2 -1</clus>
</clustering>
</event>
<event>
10    2  0.5921424E-006  0.1446413E+03  0.7546771E-02  0.1222974E+00
         21   -1    0    0  501  502  0.00000000000E+00  0.00000000000E+00  0.40526592497E+02  0.40526592497E+02  0.00000000000E+00 0.  1.
          2   -1    0    0  503    0 -0.00000000000E+00 -0.00000000000E+00 -0.61796452775E+03  0.61796452775E+03  0.00000000000E+00 0. -1.
         23    2    1    2    0    0  0.26003479367E+02  0.36735428623E+02 -0.35818706416E+03  0.37250444461E+03  0.91847240939E+02 0.  0.
         23    2    1    2    0    0  0.93718927165E+01 -0.54158598792E+02 -0.21045831518E+03  0.23434315238E+03  0.87195323499E+02 0.  0.
        -11    1    3    3    0    0  0.39215723473E+02  0.61131603514E+02 -0.28840215769E+03  0.29740670886E+03  0.00000000000E+00 0. -1.
         11    1    3    3    0    0 -0.13212244106E+02 -0.24396174891E+02 -0.69784906468E+02  0.75097735747E+02  0.00000000000E+00 0.  1.
        -11    1    4    4    0    0 -0.13801125849E+02  0.17267888068E+02 -0.87667525486E+02  0.90411537195E+02  0.00000000000E+00 0. -1.
         11    1    4    4    0    0  0.23173018566E+02 -0.71426486860E+02 -0.12279078970E+03  0.14393161518E+03  0.00000000000E+00 0.  1.
         21    1    1    2  503  502 -0.13358399372E+02  0.23422220472E+02 -0.10083088343E+02  0.28787426355E+02  0.00000000000E+00 0. -1.
          2    1    1    2  501    0 -0.22016972711E+02 -0.59990503038E+01  0.12905324280E+01  0.22856096908E+02  0.00000000000E+00 0. -1.
<scales pt_clust_5="13000.00000" pt_clust_6="13000.00000" pt_clust_7="13000.00000" pt_clust_8="13000.00000" pt_clust_9="26.96381" pt_clust_10="13000.00000"></scales>
<clustering>
<clus scale="   26.964">  1  9  2 -1</clus>
<clus scale="   87.195">  7  8 -1 -1</clus>
<clus scale="   27.363">  7 10 -1 -1</clus>
<clus scale="   91.847">  5  6 -1 -1</clus>
<clus scale="  103.613">  2  5  1 -1</clus>
<clus scale="   26.964">  1  5  2 -1</clus>
</clustering>
</event>
<event>
10    2  0.5921424E-006  0.4204295E+03  0.7546771E-02  0.1084543E+00
          1   -1    0    0  503    0 -0.00000000000E+00  0.00000000000E+00  0.60742119849E+03  0.60742119849E+03  0.00000000000E+00 0. -1.
         21   -1    0    0  501  502  0.00000000000E+00 -0.00000000000E+00 -0.65951567804E+03  0.65951567804E+03  0.00000000000E+00 0.  1.
         23    2    1    2    0    0 -0.55136524065E+02  0.38441636322E+02  0.29312926012E+03  0.31345656322E+03  0.88388111194E+02 0.  0.
         23    2    1    2    0    0 -0.18460331640E+02 -0.78330966012E+02  0.14864134877E+03  0.18718775012E+03  0.80426855896E+02 0.  0.
        -11    1    4    4    0    0 -0.52488795514E+00 -0.65236245529E+02  0.15135436748E+03  0.16481561756E+03  0.00000000000E+00 0.  1.
         11    1    4    4    0    0 -0.17935443685E+02 -0.13094720483E+02 -0.27130187036E+01  0.22372132558E+02  0.00000000000E+00 0. -1.
        -13    1    3    3    0    0 -0.52219051271E+02 -0.16854876954E+02  0.16464475335E+03  0.17354771966E+03  0.00000000000E+00 0.  1.
         13    1    3    3    0    0 -0.29174727941E+01  0.55296513276E+02  0.12848450676E+03  0.13990884356E+03  0.00000000000E+00 0. -1.
         21    1    1    2  503  502 -0.18149329972E+03 -0.44167010754E+02 -0.45888085441E+03  0.49544140039E+03  0.00000000000E+00 0.  1.
          1    1    1    2  501    0  0.25509015542E+03  0.84056340444E+02 -0.34984234033E+02  0.27085116280E+03  0.00000000000E+00 0. -1.
<scales pt_clust_5="13000.00000" pt_clust_6="13000.00000" pt_clust_7="13000.00000" pt_clust_8="13000.00000" pt_clust_9="189.48808" pt_clust_10="13000.00000"></scales>
<clustering>
<clus scale="   80.427">  5  6 -1 -1</clus>
<clus scale="   88.388">  7  8 -1 -1</clus>
<clus scale="  111.042">  1  7  2 -1</clus>
<clus scale="  189.488">  2  9  1 -1</clus>
<clus scale="  102.453">  5 10 -1 -1</clus>
<clus scale="  189.488">  2  5  1 -1</clus>
</clustering>
</event>
<event>
10    2  0.5921424E-006  0.1342364E+03  0.7546771E-02  0.1233301E+00
         -1   -1    0    0    0  501 -0.00000000000E+00  0.00000000000E+00  0.19847478375E+03  0.19847478375E+03  0.00000000000E+00 0.  1.
         21   -1    0    0  501  502  0.00000000000E+00 -0.00000000000E+00 -0.40044657550E+03  0.40044657550E+03  0.00000000000E+00 0.  1.
         23    2    1    2    0    0 -0.10737514262E+02  0.59667269957E+02  0.99413220360E+02  0.14858662700E+03  0.92301246058E+02 0.  0.
         23    2    1    2    0    0  0.25679396359E+02  0.21345592841E+01 -0.14799922170E+02  0.10165714173E+03  0.97217020257E+02 0.  0.
        -13    1    3    3    0    0  0.27943873372E+02 -0.10186218260E+02  0.19174148637E+02  0.35387385852E+02  0.00000000000E+00 0.  1.
         13    1    3    3    0    0 -0.38681387633E+02  0.69853488217E+02  0.80239071723E+02  0.11319924115E+03  0.00000000000E+00 0. -1.
        -13    1    4    4    0    0  0.19667516569E+02 -0.44676831784E+02  0.76223151274E+01  0.49405770859E+02  0.00000000000E+00 0.  1.
         13    1    4    4    0    0  0.60118797902E+01  0.46811391069E+02 -0.22422237298E+02  0.52251370870E+02  0.00000000000E+00 0. -1.
         21    1    1    2  503  502 -0.41869623965E+02 -0.56984428164E+02 -0.30668512496E+03  0.31473172121E+03  0.00000000000E+00 0.  1.
         -1    1    1    2    0  503  0.26927741868E+02 -0.48174010766E+01  0.20100035019E+02  0.33945869307E+02  0.00000000000E+00 0.  1.
<scales pt_clust_5="13000.00000" pt_clust_6="13000.00000" pt_clust_7="13000.00000" pt_clust_8="13000.00000" pt_clust_9="70.71273" pt_clust_10="13000.00000"></scales>
<clustering>
<clus scale="   70.713">  2  9  1 -1</clus>
<clus scale="   92.301">  5  6 -1 -1</clus>
<clus scale="   97.217">  7  8 -1 -1</clus>
<clus scale="   25.426">  7 10 -1 -1</clus>
<clus scale="  104.659">  1  5  2 -1</clus>
<clus scale="   70.713">  2  5  1 -1</clus>
</clustering>
</event>
<event>
10    2  0.5921424E-006  0.1475056E+03  0.7546771E-02  0.1225177E+00
         21   -1    0    0  501  502  0.00000000000E+00  0.00000000000E+00  0.22390169515E+03  0.22390169515E+03  0.00000000000E+00 0.  1.
          1   -1    0    0  503    0 -0.00000000000E+00 -0.00000000000E+00 -0.17310549448E+03  0.17310549448E+03  0.00000000000E+00 0. -1.
         23    2    1    2    0    0 -0.10376067542E+02  0.23553344577E+02 -0.94408449814E+02  0.13331202808E+03  0.90535731152E+02 0.  0.
         23    2    1    2    0    0  0.38994901189E+02 -0.96916731197E+01  0.19384230797E+02  0.10373568518E+03  0.93652619446E+02 0.  0.
        -11    1    4    4    0    0 -0.27068132353E+02 -0.20745286337E+02  0.36151917699E+00  0.34105445172E+02  0.00000000000E+00 0.  1.
         11    1    4    4    0    0  0.66063033541E+02  0.11053613217E+02  0.19022711620E+02  0.69630240005E+02  0.00000000000E+00 0. -1.
        -13    1    3    3    0    0 -0.44737242888E+02  0.61442997328E+01 -0.19719417473E+02  0.49275031668E+02  0.00000000000E+00 0.  1.
         13    1    3    3    0    0  0.34361175345E+02  0.17409044845E+02 -0.74689032340E+02  0.84036996409E+02  0.00000000000E+00 0. -1.
         21    1    1    2  503  502  0.15456849176E+02 -0.13315786897E+02  0.11188530291E+03  0.11373014277E+03  0.00000000000E+00 0.  1.
          1    1    1    2  501    0 -0.44075682822E+02 -0.54588456059E+00  0.13935116773E+02  0.46229333606E+02  0.00000000000E+00 0. -1.
<scales pt_clust_5="13000.00000" pt_clust_6="13000.00000" pt_clust_7="13000.00000" pt_clust_8="13000.00000" pt_clust_9="20.40158" pt_clust_10="13000.00000"></scales>
<clustering>
<clus scale="   20.402">  1  9  2 -1</clus>
<clus scale="   90.536">  7  8 -1 -1</clus>
<clus scale="   93.305">  2  7  1 -1</clus>
<clus scale="   93.653">  5  6 -1 -1</clus>
<clus scale="   41.649">  5 10 -1 -1</clus>
<clus scale="   20.402">  1  5  2 -1</clus>
</clustering>
</event>
<event>
10    2  0.5921424E-006  0.2355404E+03  0.7546771E-02  0.1131582E+00
         21   -1    0    0  503  502  0.00000000000E+00  0.00000000000E+00  0.97091594084E+02  0.97091594084E+02  0.00000000000E+00 0. -1.
         -1   -1    0    0    0  501 -0.00000000000E+00 -0.00000000000E+00 -0.80062035674E+03  0.80062035674E+03  0.00000000000E+00 0.  1.
         23    2    1    2    0    0 -0.97641383204E+02 -0.11355446399E+03 -0.14378800110E+03  0.22835420867E+03  0.95090479810E+02 0.  0.
         23    2    1    2    0    0  0.88360443762E+02  0.12297698585E+03 -0.56001518788E+03  0.58729663868E+03  0.91484556541E+02 0.  0.
        -11    1    4    4    0    0  0.93614803320E+02  0.67471261161E+02 -0.44135028924E+03  0.45618656303E+03  0.00000000000E+00 0.  1.
         11    1    4    4    0    0 -0.52543595577E+01  0.55505724689E+02 -0.11866489864E+03  0.13111007565E+03  0.00000000000E+00 0. -1.
        -11    1    3    3    0    0  0.66548277755E+01 -0.59571975724E+02 -0.50161184880E+02  0.78161700935E+02  0.00000000000E+00 0.  1.
         11    1    3    3    0    0 -0.10429621098E+03 -0.53982488264E+02 -0.93626816223E+02  0.15019250774E+03  0.00000000000E+00 0. -1.
         21    1    1    2  503  501 -0.28084478610E+02 -0.45636197531E+01  0.24262801591E+02  0.37393155859E+02  0.00000000000E+00 0. -1.
         -1    1    1    2    0  502  0.37365418052E+02 -0.48589021091E+01 -0.23988375269E+02  0.44667947613E+02  0.00000000000E+00 0.  1.
<scales pt_clust_5="13000.00000" pt_clust_6="13000.00000" pt_clust_7="13000.00000" pt_clust_8="13000.00000" pt_clust_9="28.45285" pt_clust_10="13000.00000"></scales>
<clustering>
<clus scale="   28.453">  1  9  2 -1</clus>
<clus scale="   91.485">  5  6 -1 -1</clus>
<clus scale="   33.450">  5 10 -1 -1</clus>
<clus scale="   95.090">  7  8 -1 -1</clus>
<clus scale="  189.635">  2  7  1 -1</clus>
<clus scale="   28.453">  1  5  2 -1</clus>
</clustering>
</event>
<event>
10    2  0.5921424E-006  0.1738781E+03  0.7546771E-02  0.1189417E+00
         21   -1    0    0  503  502  0.00000000000E+00  0.00000000000E+00  0.80202967166E+02  0.80202967166E+02  0.00000000000E+00 0.  1.
         -3   -1    0    0    0  501 -0.00000000000E+00 -0.00000000000E+00 -0.44200192873E+03  0.44200192873E+03  0.00000000000E+00 0.  1.
         23    2    1    2    0    0  0.42671716364E+02  0.47684347345E+02 -0.10679879078E+03  0.15651135437E+03  0.94842764478E+02 0.  0.
         23    2    1    2    0    0 -0.12645940867E+02 -0.10468733064E+03 -0.17999341348E+03  0.22829656610E+03  0.92748779942E+02 0.  0.
        -11    1    4    4    0    0  0.40106814044E+02 -0.53517160654E+02 -0.82344253685E+02  0.10608119123E+03  0.00000000000E+00 0.  1.
         11    1    4    4    0    0 -0.52752754911E+02 -0.51170169983E+02 -0.97649159793E+02  0.12221537487E+03  0.00000000000E+00 0. -1.
        -11    1    3    3    0    0 -0.47999646968E+01  0.63889248030E+02 -0.55523569146E+02  0.84780554407E+02  0.00000000000E+00 0.  1.
         11    1    3    3    0    0  0.47471681061E+02 -0.16204900685E+02 -0.51275221636E+02  0.71730799959E+02  0.00000000000E+00 0. -1.
         21    1    1    2  503  501  0.61465173285E+00  0.36459027863E+02  0.15529574179E+02  0.39633397326E+02  0.00000000000E+00 0.  1.
         -3    1    1    2    0  502 -0.30640427230E+02  0.20543955430E+02 -0.90536331483E+02  0.97763578105E+02  0.00000000000E+00 0.  1.
<scales pt_clust_5="13000.00000" pt_clust_6="13000.00000" pt_clust_7="13000.00000" pt_clust_8="13000.00000" pt_clust_9="36.46421" pt_clust_10="13000.00000"></scales>
<clustering>
<clus scale="   36.464">  1  9  2 -1</clus>
<clus scale="   92.749">  5  6 -1 -1</clus>
<clus scale="   38.307">  5 10 -1 -1</clus>
<clus scale="   94.843">  7  8 -1 -1</clus>
<clus scale="  122.694">  2  7  1 -1</clus>
<clus scale="   36.464">  1  5  2 -1</clus>
</clustering>
</event>
<event>
10    2  0.5921424E-006  0.4302938E+03  0.7546771E-02  0.1084281E+00
         -1   -1    0    0    0  501 -0.00000000000E+00  0.00000000000E+00  0.28579978255E+03  0.28579978255E+03  0.00000000000E+00 0.  1.
         21   -1    0    0  503  502  0.00000000000E+00 -0.00000000000E+00 -0.30103044950E+03  0.30103044950E+03  0.00000000000E+00 0.  1.
         23    2    1    2    0    0  0.43721355458E+02  0.23149657701E+02  0.69756831051E+01  0.10480081689E+03  0.92125390047E+02 0.  0.
         23    2    1    2    0    0 -0.10407817428E+03  0.11215280640E+03  0.12898320027E+03  0.21989073035E+03  0.91130395568E+02 0.  0.
        -11    1    4    4    0    0 -0.22841559770E+02 -0.36784566582E+01 -0.64703491759E+01  0.24023599118E+02  0.00000000000E+00 0. -1.
         11    1    4    4    0    0 -0.81236614505E+02  0.11583126306E+03  0.13545354945E+03  0.19586713123E+03  0.00000000000E+00 0.  1.
        -13    1    3    3    0    0  0.35838367770E+02  0.56786776772E+02  0.16129911164E+02  0.69060123477E+02  0.00000000000E+00 0.  1.
         13    1    3    3    0    0  0.78829876874E+01 -0.33637119071E+02 -0.91542280589E+01  0.35740693413E+02  0.00000000000E+00 0. -1.
         21    1    1    2  503  501 -0.19051433463E+02  0.25628299784E+02 -0.39382909989E+02  0.50702864476E+02  0.00000000000E+00 0. -1.
         -1    1    1    2    0  502  0.79408252281E+02 -0.16093076389E+03 -0.11180664034E+03  0.21143582033E+03  0.00000000000E+00 0.  1.
<scales pt_clust_5="13000.00000" pt_clust_6="13000.00000" pt_clust_7="13000.00000" pt_clust_8="13000.00000" pt_clust_9="31.93379" pt_clust_10="13000.00000"></scales>
<clustering>
<clus scale="   31.934">  2  9  1 -1</clus>
<clus scale="   91.130">  5  6 -1 -1</clus>
<clus scale="   92.125">  7  8 -1 -1</clus>
<clus scale="  104.308">  1  7  2 -1</clus>
<clus scale="  158.309">  5 10 -1 -1</clus>
<clus scale="   31.934">  2  5  1 -1</clus>
</clustering>
</event>
<event>
10    2  0.5921424E-006  0.7316457E+03  0.7546771E-02  0.9944439E-01
          1   -1    0    0  503    0 -0.00000000000E+00  0.00000000000E+00  0.21802808427E+04  0.21802808427E+04  0.00000000000E+00 0. -1.
         21   -1    0    0  501  502  0.00000000000E+00 -0.00000000000E+00 -0.14383088550E+03  0.14383088550E+03  0.00000000000E+00 0. -1.
         23    2    1    2    0    0  0.15814368990E+03 -0.23446224857E+03  0.97303507071E+03  0.10176521059E+04  0.94003122768E+02 0.  0.
         23    2    1    2    0    0  0.29882928811E+01  0.22208437868E+03  0.10645891315E+04  0.10913518147E+04  0.91478758771E+02 0.  0.
        -11    1    3    3    0    0  0.11133622896E+03 -0.22377594753E+03  0.82418358430E+03  0.86124909940E+03  0.00000000000E+00 0. -1.
         11    1    3    3    0    0  0.46807460937E+02 -0.10686301044E+02  0.14885148641E+03  0.15640300648E+03  0.00000000000E+00 0.  1.
        -13    1    4    4    0    0 -0.38804403721E+02  0.11418183291E+03  0.44506693734E+03  0.46111587636E+03  0.00000000000E+00 0. -1.
         13    1    4    4    0    0  0.41792696602E+02  0.10790254577E+03  0.61952219420E+03  0.63023593834E+03  0.00000000000E+00 0.  1.
         21    1    1    2  503  502 -0.20010191018E+02  0.33302128171E+02  0.50197214750E+02  0.63475978559E+02  0.00000000000E+00 0.  1.
          1    1    1    2  501    0 -0.14112179176E+03 -0.20924258279E+02 -0.51371459831E+02  0.15163182905E+03  0.00000000000E+00 0. -1.
<scales pt_clust_5="13000.00000" pt_clust_6="13000.00000" pt_clust_7="13000.00000" pt_clust_8="13000.00000" pt_clust_9="38.85151" pt_clust_10="13000.00000"></scales>
<clustering>
<clus scale="   38.852">  2  9  1 -1</clus>
<clus scale="   91.479">  7  8 -1 -1</clus>
<clus scale="   94.003">  5  6 -1 -1</clus>
<clus scale="  155.971">  7 10 -1 -1</clus>
<clus scale="  292.045">  1  5  2 -1</clus>
<clus scale="   38.852">  2  5  1 -1</clus>
</clustering>
</event>
<event>
10    2  0.5921424E-006  0.2314999E+03  0.7546771E-02  0.1160515E+00
         21   -1    0    0  501  502  0.00000000000E+00  0.00000000000E+00  0.61183095669E+02  0.61183095669E+02  0.00000000000E+00 0.  1.
          1   -1    0    0  503    0 -0.00000000000E+00 -0.00000000000E+00 -0.10083025937E+04  0.10083025937E+04  0.00000000000E+00 0. -1.
         23    2    1    2    0    0  0.37820093816E+02 -0.32142752211E+02 -0.25029467897E+03  0.26809151350E+03  0.82232093952E+02 0.  0.
         23    2    1    2    0    0  0.44939103388E+02  0.60169563069E+01 -0.36439618342E+03  0.38522660106E+03  0.11644410203E+03 0.  0.
        -11    1    3    3    0    0  0.44474925993E+02 -0.55355866346E+02 -0.20155395990E+03  0.21369672373E+03  0.00000000000E+00 0.  1.
         11    1    3    3    0    0 -0.66548321771E+01  0.23213114135E+02 -0.48740719075E+02  0.54394789779E+02  0.00000000000E+00 0. -1.
        -11    1    4    4    0    0  0.15363350622E+02 -0.46115812083E+02 -0.72813119271E+02  0.87546850339E+02  0.00000000000E+00 0.  1.
         11    1    4    4    0    0  0.29575752766E+02  0.52132768390E+02 -0.29158306415E+03  0.29767975072E+03  0.00000000000E+00 0. -1.
         21    1    1    2  503  502  0.21749871883E+02 -0.10148299326E+02  0.29314912945E+02  0.37886792251E+02  0.00000000000E+00 0.  1.
          1    1    1    2  501    0 -0.10450906909E+03  0.36274095230E+02 -0.36174354859E+03  0.37828078256E+03  0.00000000000E+00 0. -1.
<scales pt_clust_5="13000.00000" pt_clust_6="13000.00000" pt_clust_7="13000.00000" pt_clust_8="13000.00000" pt_clust_9="24.00094" pt_clust_10="13000.00000"></scales>
<clustering>
<clus scale="   24.001">  1  9  2 -1</clus>
<clus scale="   82.232">  5  6 -1 -1</clus>
<clus scale="  100.134">  2  5  1 -1</clus>
<clus scale="  116.444">  7  8 -1 -1</clus>
<clus scale="   79.712">  7 10 -1 -1</clus>
<clus scale="   24.001">  1  5  2 -1</clus>
</clustering>
</event>
<event>
10    2  0.5921424E-006  0.1851815E+03  0.7546771E-02  0.1199123E+00
         21   -1    0    0  503  502  0.00000000000E+00  0.00000000000E+00  0.45951862017E+02  0.45951862017E+02  0.00000000000E+00 0. -1.
         -1   -1    0    0    0  501 -0.00000000000E+00 -0.00000000000E+00 -0.59496949499E+03  0.59496949499E+03  0.00000000000E+00 0.  1.
         23    2    1    2    0    0 -0.18823130971E+02  0.32367581416E+02 -0.51854959280E+02  0.90969914652E+02  0.64688623294E+02 0.  0.
         23    2    1    2    0    0  0.63209406133E+02  0.45581856022E+02 -0.15846401517E+03  0.18731406158E+03  0.62470624627E+02 0.  0.
        -11    1    4    4    0    0  0.21219675662E+02 -0.12521739803E+02 -0.21400395279E+02  0.32635035176E+02  0.00000000000E+00 0.  1.
         11    1    4    4    0    0  0.41989730471E+02  0.58103595825E+02 -0.13706361989E+03  0.15467902641E+03  0.00000000000E+00 0. -1.
        -13    1    3    3    0    0  0.11166519737E+02  0.40150652041E+02 -0.40093397629E+02  0.57829460967E+02  0.00000000000E+00 0. -1.
         13    1    3    3    0    0 -0.29989650708E+02 -0.77830706253E+01 -0.11761561651E+02  0.33140453685E+02  0.00000000000E+00 0.  1.
         21    1    1    2  503  501 -0.34551865858E+02  0.10675720349E+02 -0.14431822604E+03  0.14878021645E+03  0.00000000000E+00 0. -1.
         -1    1    1    2    0  502 -0.98344093035E+01 -0.88625157787E+02 -0.19438043248E+03  0.21385716432E+03  0.00000000000E+00 0.  1.
<scales pt_clust_5="13000.00000" pt_clust_6="13000.00000" pt_clust_7="13000.00000" pt_clust_8="13000.00000" pt_clust_9="36.16357" pt_clust_10="13000.00000"></scales>
<clustering>
<clus scale="   36.164">  1  9  2 -1</clus>
<clus scale="   62.471">  5  6 -1 -1</clus>
<clus scale="   64.689">  7  8 -1 -1</clus>
<clus scale="   82.093">  2  7  1 -1</clus>
<clus scale="   75.727">  5 10 -1 -1</clus>
<clus scale="   36.164">  1  5  2 -1</clus>
</clustering>
</event>
<event>
10    2  0.5921424E-006  0.1809908E+03  0.7546771E-02  0.1196002E+00
         -1   -1    0    0    0  501 -0.00000000000E+00  0.00000000000E+00  0.60354454831E+02  0.60354454831E+02  0.00000000000E+00 0.  1.
         21   -1    0    0  503  502  0.00000000000E+00 -0.00000000000E+00 -0.44877880056E+03  0.44877880056E+03  0.00000000000E+00 0.  1.
         23    2    1    2    0    0 -0.11066023239E+02  0.15541526257E+02 -0.11071690045E+03  0.14441063895E+03  0.90731497766E+02 0.  0.
         23    2    1    2    0    0  0.31777679748E+02  0.30485040093E+02 -0.27965989315E+02  0.10458534443E+03  0.90646782131E+02 0.  0.
        -11    1    3    3    0    0  0.32060390988E+02  0.29368864504E+02 -0.33481376702E+02  0.54876237649E+02  0.00000000000E+00 0. -1.
         11    1    3    3    0    0 -0.43126414228E+02 -0.13827338246E+02 -0.77235523750E+02  0.89534401300E+02  0.00000000000E+00 0.  1.
        -13    1    4    4    0    0  0.95652843935E+01  0.47484611070E+02 -0.49521391658E+02  0.69272297390E+02  0.00000000000E+00 0. -1.
         13    1    4    4    0    0  0.22212395354E+02 -0.16999570977E+02  0.21555402343E+02  0.35313047036E+02  0.00000000000E+00 0.  1.
         21    1    1    2  503  501 -0.20495883680E+02  0.14806933233E+01 -0.12456795425E+03  0.12625153040E+03  0.00000000000E+00 0.  1.
         -1    1    1    2    0  502 -0.21577282798E+00 -0.47507259673E+02 -0.12517350171E+03  0.13388574162E+03  0.00000000000E+00 0.  1.
<scales pt_clust_5="13000.00000" pt_clust_6="13000.00000" pt_clust_7="13000.00000" pt_clust_8="13000.00000" pt_clust_9="20.54930" pt_clust_10="13000.00000"></scales>
<clustering>
<clus scale="   20.549">  2  9  1 -1</clus>
<clus scale="   90.647">  7  8 -1 -1</clus>
<clus scale="   47.665">  7 10 -1 -1</clus>
<clus scale="   90.731">  5  6 -1 -1</clus>
<clus scale="   94.122">  1  5  2 -1</clus>
<clus scale="   20.549">  2  5  1 -1</clus>
</clustering>
</event>
<event>
10    2  0.5921424E-006  0.4527492E+03  0.7546771E-02  0.1062026E+00
         21   -1    0    0  503  502  0.00000000000E+00  0.00000000000E+00  0.43044432128E+03  0.43044432128E+03  0.00000000000E+00 0. -1.
          2   -1    0    0  502    0 -0.00000000000E+00 -0.00000000000E+00 -0.54155249167E+03  0.54155249167E+03  0.00000000000E+00 0. -1.
         23    2    1    2    0    0  0.11851648044E+03 -0.15085503795E+02  0.10081936520E+02  0.15129965786E+03  0.92283327112E+02 0.  0.
         23    2    1    2    0    0 -0.22766954298E+03 -0.66230195456E+02 -0.40900365341E+03  0.48369572021E+03  0.10226290455E+03 0.  0.
        -11    1    4    4    0    0 -0.35730418981E+02 -0.49059901069E+02 -0.14188581250E+03  0.15432148432E+03  0.00000000000E+00 0.  1.
         11    1    4    4    0    0 -0.19193912400E+03 -0.17170294386E+02 -0.26711784091E+03  0.32937423589E+03  0.00000000000E+00 0. -1.
        -13    1    3    3    0    0  0.38514664143E+02  0.21943243488E+02  0.38463032034E+02  0.58688074786E+02  0.00000000000E+00 0.  1.
         13    1    3    3    0    0  0.80001816298E+02 -0.37028747283E+02 -0.28381095515E+02  0.92611583071E+02  0.00000000000E+00 0. -1.
         21    1    1    2  503  501  0.39503794872E+02  0.84561298407E+02  0.22325186420E+03  0.24197635807E+03  0.00000000000E+00 0. -1.
          2    1    1    2  501    0  0.69649267673E+02 -0.32455991564E+01  0.64561682315E+02  0.95025076819E+02  0.00000000000E+00 0. -1.
<scales pt_clust_5="13000.00000" pt_clust_6="13000.00000" pt_clust_7="13000.00000" pt_clust_8="13000.00000" pt_clust_9="93.33361" pt_clust_10="13000.00000"></scales>
<clustering>
<clus scale="   92.283">  7  8 -1 -1</clus>
<clus scale="   93.334">  1  9  2 -1</clus>
<clus scale="  102.263">  5  6 -1 -1</clus>
<clus scale="   90.977">  5 10 -1 -1</clus>
<clus scale="  164.371">  2  7  1 -1</clus>
<clus scale="   93.334">  1  5  2 -1</clus>
</clustering>
</event>
<event>
10    2  0.5921424E-006  0.2464944E+03  0.7546771E-02  0.1147321E+00
          1   -1    0    0  502    0 -0.00000000000E+00  0.00000000000E+00  0.18528004289E+03  0.18528004289E+03  0.00000000000E+00 0. -1.
         21   -1    0    0  503  502  0.00000000000E+00 -0.00000000000E+00 -0.21400738933E+03  0.21400738933E+03  0.00000000000E+00 0.  1.
         23    2    1    2    0    0  0.61705341713E+02 -0.21183055646E+02 -0.35783071348E+02  0.11578877045E+03  0.88714937441E+02 0.  0.
         23    2    1    2    0    0 -0.48004719098E+02 -0.68646100356E+02  0.77059400528E+02  0.14560339897E+03  0.90804506673E+02 0.  0.
        -13    1    3    3    0    0  0.37577418590E+02  0.35447266054E+01 -0.61885820338E+02  0.72487807481E+02  0.00000000000E+00 0.  1.
         13    1    3    3    0    0  0.24127923123E+02 -0.24727782251E+02  0.26102748990E+02  0.43300962970E+02  0.00000000000E+00 0. -1.
        -13    1    4    4    0    0  0.24194657507E+02 -0.94664939411E+01  0.34019132125E+02  0.42805342073E+02  0.00000000000E+00 0.  1.
         13    1    4    4    0    0 -0.72199376606E+02 -0.59179606415E+02  0.43040268403E+02  0.10279805690E+03  0.00000000000E+00 0. -1.
         21    1    1    2  503  501  0.20088032914E+02  0.26105088779E+02  0.55913914908E+01  0.33410602888E+02  0.00000000000E+00 0.  1.
          1    1    1    2  501    0 -0.33788655529E+02  0.63724067223E+02 -0.75595067113E+02  0.10448465992E+03  0.00000000000E+00 0. -1.
<scales pt_clust_5="13000.00000" pt_clust_6="13000.00000" pt_clust_7="13000.00000" pt_clust_8="13000.00000" pt_clust_9="32.93943" pt_clust_10="13000.00000"></scales>
<clustering>
<clus scale="   32.939">  2  9  1 -1</clus>
<clus scale="   88.715">  5  6 -1 -1</clus>
<clus scale="   90.805">  7  8 -1 -1</clus>
<clus scale="   79.425">  7 10 -1 -1</clus>
<clus scale="  113.147">  1  5  2 -1</clus>
<clus scale="   32.939">  2  5  1 -1</clus>
</clustering>
</event>
<event>
10    2  0.5921424E-006  0.2393957E+03  0.7546771E-02  0.1135803E+00
          2   -1    0    0  503    0 -0.00000000000E+00  0.00000000000E+00  0.67594993846E+03  0.67594993846E+03  0.00000000000E+00 0. -1.
         21   -1    0    0  501  502  0.00000000000E+00 -0.00000000000E+00 -0.17443313818E+03  0.17443313818E+03  0.00000000000E+00 0. -1.
         23    2    1    2    0    0  0.39306970731E+02 -0.11513333591E+03  0.56206704299E+03  0.58558351331E+03  0.11039912708E+03 0.  0.
         23    2    1    2    0    0 -0.50474498336E+02 -0.90692910256E+01  0.28581967620E+02  0.10849347203E+03  0.91235834951E+02 0.  0.
        -11    1    3    3    0    0  0.56414027967E+02 -0.12959019050E+03  0.50030038547E+03  0.51988136698E+03  0.00000000000E+00 0. -1.
         11    1    3    3    0    0 -0.17107057236E+02  0.14456854594E+02  0.61766657517E+02  0.65702146334E+02  0.00000000000E+00 0.  1.
        -11    1    4    4    0    0  0.22217240119E+02 -0.18895608847E+02 -0.15172462044E+01  0.29205339037E+02  0.00000000000E+00 0.  1.
         11    1    4    4    0    0 -0.72691738455E+02  0.98263178211E+01  0.30099213824E+02  0.79288132998E+02  0.00000000000E+00 0. -1.
         21    1    1    2  503  502 -0.84291152779E+01  0.21081739520E+02 -0.22571338165E+02  0.32014918899E+02  0.00000000000E+00 0.  1.
          2    1    1    2  501    0  0.19596642882E+02  0.10312088741E+03 -0.66560872158E+02  0.12429117240E+03  0.00000000000E+00 0. -1.
<scales pt_clust_5="13000.00000" pt_clust_6="13000.00000" pt_clust_7="13000.00000" pt_clust_8="13000.00000" pt_clust_9="22.70440" pt_clust_10="13000.00000"></scales>
<clustering>
<clus scale="   22.704">  2  9  1 -1</clus>
<clus scale="   91.236">  7  8 -1 -1</clus>
<clus scale="  110.399">  5  6 -1 -1</clus>
<clus scale="  117.645">  7 10 -1 -1</clus>
<clus scale="  162.945">  1  5  2 -1</clus>
<clus scale="   22.704">  2  5  1 -1</clus>
</clustering>
</event>
<event>
10    2  0.5921424E-006  0.2040387E+03  0.7546771E-02  0.1177210E+00
          1   -1    0    0  503    0 -0.00000000000E+00  0.00000000000E+00  0.12508499159E+03  0.12508499159E+03  0.00000000000E+00 0. -1.
         21   -1    0    0  501  502  0.00000000000E+00 -0.00000000000E+00 -0.26125765589E+03  0.26125765589E+03  0.00000000000E+00 0. -1.
         23    2    1    2    0    0  0.22298089126E+02  0.31865505480E+02  0.12359297468E+02  0.98027092766E+02  0.89128802662E+02 0.  0.
         23    2    1    2    0    0 -0.33091810939E+02 -0.63068363429E+01  0.57327139684E+01  0.97690529051E+02  0.91519021634E+02 0.  0.
        -13    1    4    4    0    0  0.31975672021E+02 -0.55116509021E+01  0.15700272098E+01  0.32485179426E+02  0.00000000000E+00 0.  1.
         13    1    4    4    0    0 -0.65067482960E+02 -0.79518544084E+00  0.41626867586E+01  0.65205349625E+02  0.00000000000E+00 0. -1.
        -13    1    3    3    0    0  0.16922542009E+02  0.62048336399E+02  0.18151414342E+02  0.66826958038E+02  0.00000000000E+00 0. -1.
         13    1    3    3    0    0  0.53755471170E+01 -0.30182830920E+02 -0.57921168748E+01  0.31200134728E+02  0.00000000000E+00 0.  1.
         21    1    1    2  503  502  0.13139473651E+02  0.30899887731E+02 -0.90088112887E+01  0.34765032870E+02  0.00000000000E+00 0.  1.
          1    1    1    2  501    0 -0.23457518380E+01 -0.56458556868E+02 -0.14525586445E+03  0.15585999279E+03  0.00000000000E+00 0. -1.
<scales pt_clust_5="13000.00000" pt_clust_6="13000.00000" pt_clust_7="13000.00000" pt_clust_8="13000.00000" pt_clust_9="33.57752" pt_clust_10="13000.00000"></scales>
<clustering>
<clus scale="   33.578">  2  9  1 -1</clus>
<clus scale="   89.129">  7  8 -1 -1</clus>
<clus scale="   91.519">  5  6 -1 -1</clus>
<clus scale="   37.493">  5 10 -1 -1</clus>
<clus scale="   99.749">  1  7  2 -1</clus>
<clus scale="   33.578">  2  5  1 -1</clus>
</clustering>
</event>
<event>
10    2  0.5921424E-006  0.2229126E+03  0.7546771E-02  0.1151332E+00
         21   -1    0    0  501  502  0.00000000000E+00  0.00000000000E+00  0.41252690590E+03  0.41252690590E+03  0.00000000000E+00 0.  1.
          2   -1    0    0  503    0 -0.00000000000E+00 -0.00000000000E+00 -0.10929719554E+03  0.10929719554E+03  0.00000000000E+00 0. -1.
         23    2    1    2    0    0  0.60551400945E+02 -0.10539273345E+03  0.17303847887E+03  0.23027647900E+03  0.91163815135E+02 0.  0.
         23    2    1    2    0    0  0.71689654775E+01  0.28190324579E+02  0.12701119205E+03  0.16834563656E+03  0.10659419298E+03 0.  0.
        -11    1    3    3    0    0 -0.17119227495E+02 -0.29593513796E+02  0.81206494162E+02  0.88109810480E+02  0.00000000000E+00 0. -1.
         11    1    3    3    0    0  0.77670628439E+02 -0.75799219653E+02  0.91831984713E+02  0.14216666852E+03  0.00000000000E+00 0.  1.
        -13    1    4    4    0    0 -0.33688785013E+01 -0.40464240960E+02  0.54137584523E+02  0.67672610389E+02  0.00000000000E+00 0. -1.
         13    1    4    4    0    0  0.10537843979E+02  0.68654565540E+02  0.72873607522E+02  0.10067302617E+03  0.00000000000E+00 0.  1.
         21    1    1    2  503  502  0.49187915552E+01  0.41162055018E+02  0.69139006608E+01  0.42027506541E+02  0.00000000000E+00 0. -1.
          2    1    1    2  501    0 -0.72639157977E+02  0.36040353851E+02 -0.37338612187E+01  0.81174479345E+02  0.00000000000E+00 0. -1.
<scales pt_clust_5="13000.00000" pt_clust_6="13000.00000" pt_clust_7="13000.00000" pt_clust_8="13000.00000" pt_clust_9="41.45493" pt_clust_10="13000.00000"></scales>
<clustering>
<clus scale="   41.455">  1  9  2 -1</clus>
<clus scale="   91.164">  5  6 -1 -1</clus>
<clus scale="  106.594">  7  8 -1 -1</clus>
<clus scale="   82.566">  7 10 -1 -1</clus>
<clus scale="  139.104">  2  5  1 -1</clus>
<clus scale="   41.455">  1  5  2 -1</clus>
</clustering>
</event>
<event>
10    2  0.5921424E-006  0.1569993E+03  0.7546771E-02  0.1216716E+00
         -1   -1    0    0    0  501 -0.00000000000E+00  0.00000000000E+00  0.68854239819E+02  0.68854239819E+02  0.00000000000E+00 0.  1.
         21   -1    0    0  501  502  0.00000000000E+00 -0.00000000000E+00 -0.31856859831E+03  0.31856859831E+03  0.00000000000E+00 0. -1.
         23    2    1    2    0    0  0.14796418548E+02 -0.13803703210E+02 -0.84692755692E+02  0.12588025125E+03  0.90903787402E+02 0.  0.
         23    2    1    2    0    0 -0.13758020775E+02  0.36058746929E+02 -0.84658313344E+02  0.13014648381E+03  0.91003081625E+02 0.  0.
        -13    1    4    4    0    0 -0.30145368745E+02  0.60194146213E+02 -0.45249588591E+02  0.81114756751E+02  0.00000000000E+00 0.  1.
         13    1    4    4    0    0  0.16387347971E+02 -0.24135399285E+02 -0.39408724753E+02  0.49031727063E+02  0.00000000000E+00 0. -1.
        -13    1    3    3    0    0 -0.32803108204E+02 -0.50734809456E+01 -0.63486739658E+01  0.33794818802E+02  0.00000000000E+00 0.  1.
         13    1    3    3    0    0  0.47599526751E+02 -0.87302222642E+01 -0.78344081726E+02  0.92085432449E+02  0.00000000000E+00 0. -1.
         21    1    1    2  503  502  0.40364821529E+01  0.30210760622E+02 -0.71790711390E+02  0.77992881005E+02  0.00000000000E+00 0. -1.
         -1    1    1    2    0  503 -0.50748799259E+01 -0.52465804341E+02 -0.85725780624E+01  0.53403222056E+02  0.00000000000E+00 0.  1.
<scales pt_clust_5="13000.00000" pt_clust_6="13000.00000" pt_clust_7="13000.00000" pt_clust_8="13000.00000" pt_clust_9="30.47923" pt_clust_10="13000.00000"></scales>
<clustering>
<clus scale="   30.479">  2  9  1 -1</clus>
<clus scale="   90.904">  7  8 -1 -1</clus>
<clus scale="   91.003">  5  6 -1 -1</clus>
<clus scale="   48.837">  5 10 -1 -1</clus>
<clus scale="   92.399">  1  7  2 -1</clus>
<clus scale="   30.479">  2  5  1 -1</clus>
</clustering>
</event>
<event>
10    2  0.5921424E-006  0.2365799E+03  0.7546771E-02  0.1151390E+00
         21   -1    0    0  503  502  0.00000000000E+00  0.00000000000E+00  0.97304444346E+03  0.97304444346E+03  0.00000000000E+00 0.  1.
          1   -1    0    0  502    0 -0.00000000000E+00 -0.00000000000E+00 -0.65975760211E+03  0.65975760211E+03  0.00000000000E+00 0. -1.
         23    2    1    2    0    0 -0.48069814324E+02  0.51379805879E+02 -0.21424399663E+03  0.24372869908E+03  0.92480252830E+02 0.  0.
         23    2    1    2    0    0  0.17088451240E+03 -0.11926324414E+03 -0.30779639512E+03  0.38295960247E+03  0.92163975046E+02 0.  0.
        -11    1    4    4    0    0  0.13529263038E+03 -0.11953243002E+03 -0.19995255648E+03  0.26939399122E+03  0.00000000000E+00 0.  1.
         11    1    4    4    0    0  0.35591882016E+02  0.26918588179E+00 -0.10784383864E+03  0.11356561125E+03  0.00000000000E+00 0. -1.
        -13    1    3    3    0    0 -0.22459875742E+02  0.58610580584E+02 -0.20677169253E+03  0.21608835926E+03  0.00000000000E+00 0.  1.
         13    1    3    3    0    0 -0.25609938582E+02 -0.72307747049E+01 -0.74723040970E+01  0.27640339823E+02  0.00000000000E+00 0. -1.
         21    1    1    2  503  501 -0.18577000732E+03  0.72472478911E+02  0.89638279451E+03  0.91829454431E+03  0.00000000000E+00 0.  1.
          1    1    1    2  501    0  0.62955309249E+02 -0.45890406544E+01 -0.61055561406E+02  0.87819199697E+02  0.00000000000E+00 0. -1.
<scales pt_clust_5="13000.00000" pt_clust_6="13000.00000" pt_clust_7="13000.00000" pt_clust_8="13000.00000" pt_clust_9="201.02139" pt_clust_10="13000.00000"></scales>
<clustering>
<clus scale="   92.164">  5  6 -1 -1</clus>
<clus scale="   63.122">  5 10 -1 -1</clus>
<clus scale="   92.480">  7  8 -1 -1</clus>
<clus scale="  116.203">  2  7  1 -1</clus>
<clus scale="  201.021">  1  9  2 -1</clus>
<clus scale="  201.021">  1  5  2 -1</clus>
</clustering>
</event>
<event>
10    2  0.5921424E-006  0.3431616E+03  0.7546771E-02  0.1114591E+00
          2   -1    0    0  503    0 -0.00000000000E+00  0.00000000000E+00  0.40880027340E+03  0.40880027340E+03  0.00000000000E+00 0. -1.
         21   -1    0    0  501  502  0.00000000000E+00 -0.00000000000E+00 -0.21396604902E+03  0.21396604902E+03  0.00000000000E+00 0. -1.
         23    2    1    2    0    0  0.10280675179E+02  0.14987090498E+02  0.63634766189E+02  0.11315772828E+03  0.91787705259E+02 0.  0.
         23    2    1    2    0    0  0.86617287006E+02 -0.45369130839E+02  0.16479334604E+02  0.13481263160E+03  0.91334356776E+02 0.  0.
        -11    1    4    4    0    0  0.70865041336E+02 -0.19889754503E+02 -0.30027981452E+02  0.79492993955E+02  0.00000000000E+00 0. -1.
         11    1    4    4    0    0  0.15752245670E+02 -0.25479376336E+02  0.46507316056E+02  0.55319637643E+02  0.00000000000E+00 0.  1.
        -11    1    3    3    0    0 -0.23268353733E+02  0.43523118006E+02  0.37057306222E+02  0.61716464827E+02  0.00000000000E+00 0. -1.
         11    1    3    3    0    0  0.33549028911E+02 -0.28536027508E+02  0.26577459968E+02  0.51441263448E+02  0.00000000000E+00 0.  1.
         21    1    1    2  503  502  0.10053519982E+03  0.33895801174E+02 -0.50338114708E+02  0.11743158660E+03  0.00000000000E+00 0. -1.
          2    1    1    2  501    0 -0.19743316200E+03 -0.35137608326E+01  0.16505823830E+03  0.25736437594E+03  0.00000000000E+00 0. -1.
<scales pt_clust_5="13000.00000" pt_clust_6="13000.00000" pt_clust_7="13000.00000" pt_clust_8="13000.00000" pt_clust_9="107.62287" pt_clust_10="13000.00000"></scales>
<clustering>
<clus scale="   91.334">  5  6 -1 -1</clus>
<clus scale="   91.788">  7  8 -1 -1</clus>
<clus scale="   93.570">  1  7  2 -1</clus>
<clus scale="  107.623">  2  9  1 -1</clus>
<clus scale="  147.513">  5 10 -1 -1</clus>
<clus scale="  107.623">  2  5  1 -1</clus>
</clustering>
</event>
<event>
10    2  0.5921424E-006  0.3779762E+03  0.7546771E-02  0.1104353E+00
          2   -1    0    0  503    0 -0.00000000000E+00  0.00000000000E+00  0.11206449647E+04  0.11206449647E+04  0.00000000000E+00 0. -1.
         21   -1    0    0  501  502  0.00000000000E+00 -0.00000000000E+00 -0.14239043564E+03  0.14239043564E+03  0.00000000000E+00 0. -1.
         23    2    1    2    0    0  0.14766055637E+01 -0.60634824966E+00  0.17140114777E+03  0.19401803700E+03  0.90896079140E+02 0.  0.
         23    2    1    2    0    0  0.67721306737E+02 -0.63335534755E+02  0.12818166451E+03  0.18496356558E+03  0.95830142056E+02 0.  0.
        -13    1    4    4    0    0  0.30945038471E+02 -0.18670837273E+02 -0.79868017215E+01  0.37013302638E+02  0.00000000000E+00 0. -1.
         13    1    4    4    0    0  0.36776268267E+02 -0.44664697482E+02  0.13616846623E+03  0.14795026294E+03  0.00000000000E+00 0.  1.
        -13    1    3    3    0    0 -0.37324945795E+02 -0.15876688066E+02  0.43433335072E+02  0.59427900838E+02  0.00000000000E+00 0.  1.
         13    1    3    3    0    0  0.38801551358E+02  0.15270339816E+02  0.12796781270E+03  0.13459013616E+03  0.00000000000E+00 0. -1.
         21    1    1    2  503  502 -0.30433748946E+03  0.84454784938E+02  0.28699555700E+03  0.42675563022E+03  0.00000000000E+00 0. -1.
          2    1    1    2  501    0  0.23513957716E+03 -0.20512901933E+02  0.39167615976E+03  0.45729816752E+03  0.00000000000E+00 0. -1.
<scales pt_clust_5="13000.00000" pt_clust_6="13000.00000" pt_clust_7="13000.00000" pt_clust_8="13000.00000" pt_clust_9="315.23538" pt_clust_10="13000.00000"></scales>
<clustering>
<clus scale="   90.896">  7  8 -1 -1</clus>
<clus scale="   90.910">  1  7  2 -1</clus>
<clus scale="   95.830">  5  6 -1 -1</clus>
<clus scale="  236.722">  5 10 -1 -1</clus>
<clus scale="  315.235">  2  9  1 -1</clus>
<clus scale="  315.235">  2  5  1 -1</clus>
</clustering>
</event>
<event>
10    2  0.5921424E-006  0.2366550E+03  0.7546771E-02  0.1127091E+00
         21   -1    0    0  501  502  0.00000000000E+00  0.00000000000E+00  0.42718313603E+03  0.42718313603E+03  0.00000000000E+00 0. -1.
          1   -1    0    0  503    0 -0.00000000000E+00 -0.00000000000E+00 -0.22174032356E+03  0.22174032356E+03  0.00000000000E+00 0. -1.
         23    2    1    2    0    0 -0.18195057478E+03  0.41756261973E+02 -0.14416125513E+02  0.20847667783E+03  0.91679351243E+02 0.  0.
         23    2    1    2    0    0  0.10679627376E+03  0.10954975194E+01 -0.19009712858E+02  0.14383284947E+03  0.94445090926E+02 0.  0.
        -11    1    4    4    0    0  0.30096515349E+01  0.30685751213E+02 -0.18405571465E+02  0.35908750895E+02  0.00000000000E+00 0.  1.
         11    1    4    4    0    0  0.10378662222E+03 -0.29590253694E+02 -0.60414139282E+00  0.10792409857E+03  0.00000000000E+00 0. -1.
        -13    1    3    3    0    0 -0.15283300503E+03  0.65115126131E+02 -0.28549483965E+02  0.16856150247E+03  0.00000000000E+00 0. -1.
         13    1    3    3    0    0 -0.29117569751E+02 -0.23358864158E+02  0.14133358452E+02  0.39915175361E+02  0.00000000000E+00 0.  1.
         21    1    1    2  503  502 -0.10849271393E+02 -0.50990232693E+02  0.19071527020E+03  0.19771197437E+03  0.00000000000E+00 0. -1.
          1    1    1    2  501    0  0.86003572419E+02  0.81384732013E+01  0.48153380638E+02  0.98901957927E+02  0.00000000000E+00 0. -1.
<scales pt_clust_5="13000.00000" pt_clust_6="13000.00000" pt_clust_7="13000.00000" pt_clust_8="13000.00000" pt_clust_9="52.13167" pt_clust_10="13000.00000"></scales>
<clustering>
<clus scale="   52.132">  1  9  2 -1</clus>
<clus scale="   91.679">  7  8 -1 -1</clus>
<clus scale="   94.445">  5  6 -1 -1</clus>
<clus scale="   82.962">  5 10 -1 -1</clus>
<clus scale="  208.799">  2  7  1 -1</clus>
<clus scale="   52.132">  1  5  2 -1</clus>
</clustering>
</event>
<event>
10    2  0.5921424E-006  0.6103781E+03  0.7546771E-02  0.1043585E+00
         21   -1    0    0  501  502  0.00000000000E+00  0.00000000000E+00  0.26529832145E+03  0.26529832145E+03  0.00000000000E+00 0. -1.
          2   -1    0    0  503    0 -0.00000000000E+00 -0.00000000000E+00 -0.94648739955E+03  0.94648739955E+03  0.00000000000E+00 0. -1.
         23    2    1    2    0    0 -0.57231781559E+02 -0.42106741690E+02 -0.23668733983E+02  0.11869772579E+03  0.92089557628E+02 0.  0.
         23    2    1    2    0    0 -0.25951133360E+03  0.10498402520E+03 -0.33751793330E+03  0.44274387827E+03  0.61122897777E+02 0.  0.
        -13    1    3    3    0    0  0.99667537993E+01 -0.39274637667E+02 -0.31032362406E+02  0.51037641615E+02  0.00000000000E+00 0. -1.
         13    1    3    3    0    0 -0.67198535359E+02 -0.28321040228E+01  0.73636284230E+01  0.67660084179E+02  0.00000000000E+00 0.  1.
        -13    1    4    4    0    0 -0.64371954169E+02  0.42536480996E+02 -0.12966522320E+03  0.15088462747E+03  0.00000000000E+00 0.  1.
         13    1    4    4    0    0 -0.19513937943E+03  0.62447544203E+02 -0.20785271010E+03  0.29185925080E+03  0.00000000000E+00 0. -1.
         21    1    1    2  503  502  0.58415375068E+01  0.21192441270E+02  0.11052013033E+03  0.11268514691E+03  0.00000000000E+00 0. -1.
          2    1    1    2  501    0  0.31090157766E+03 -0.84069724779E+02 -0.43052254114E+03  0.53765897002E+03  0.00000000000E+00 0. -1.
<scales pt_clust_5="13000.00000" pt_clust_6="13000.00000" pt_clust_7="13000.00000" pt_clust_8="13000.00000" pt_clust_9="21.98279" pt_clust_10="13000.00000"></scales>
<clustering>
<clus scale="   21.983">  1  9  2 -1</clus>
<clus scale="   61.123">  7  8 -1 -1</clus>
<clus scale="   92.090">  5  6 -1 -1</clus>
<clus scale="  113.211">  2  5  1 -1</clus>
<clus scale="  298.311">  7 10 -1 -1</clus>
<clus scale="   21.983">  1  5  2 -1</clus>
</clustering>
</event>
<event>
10    2  0.5921424E-006  0.1554936E+03  0.7546771E-02  0.1211716E+00
          1   -1    0    0  503    0 -0.00000000000E+00  0.00000000000E+00  0.34490717185E+03  0.34490717185E+03  0.00000000000E+00 0. -1.
         21   -1    0    0  501  502  0.00000000000E+00 -0.00000000000E+00 -0.80337605220E+02  0.80337605220E+02  0.00000000000E+00 0.  1.
         23    2    1    2    0    0  0.25718507776E+02  0.45897231253E+02  0.93932314834E+02  0.14143194019E+03  0.91715410142E+02 0.  0.
         23    2    1    2    0    0  0.38183455273E+02 -0.22321104561E+02  0.15829865535E+03  0.18743620184E+03  0.90098043868E+02 0.  0.
        -11    1    4    4    0    0  0.50822801553E+02  0.88895716207E+01  0.13979962806E+03  0.14901650126E+03  0.00000000000E+00 0.  1.
         11    1    4    4    0    0 -0.12639346280E+02 -0.31210676181E+02  0.18499027289E+02  0.38419700581E+02  0.00000000000E+00 0. -1.
        -11    1    3    3    0    0  0.53903239131E+02  0.17303600633E+02  0.81818358671E+02  0.99494811922E+02  0.00000000000E+00 0. -1.
         11    1    3    3    0    0 -0.28184731356E+02  0.28593630620E+02  0.12113956163E+02  0.41937128270E+02  0.00000000000E+00 0.  1.
         21    1    1    2  503  502 -0.27617865640E+02  0.11119229000E+02 -0.20714952522E+02  0.36269725862E+02  0.00000000000E+00 0. -1.
          1    1    1    2  501    0 -0.36284097408E+02 -0.34695355693E+02  0.33053548968E+02  0.60106909176E+02  0.00000000000E+00 0. -1.
<scales pt_clust_5="13000.00000" pt_clust_6="13000.00000" pt_clust_7="13000.00000" pt_clust_8="13000.00000" pt_clust_9="29.77220" pt_clust_10="13000.00000"></scales>
<clustering>
<clus scale="   29.772">  2  9  1 -1</clus>
<clus scale="   90.098">  5  6 -1 -1</clus>
<clus scale="   53.872">  5 10 -1 -1</clus>
<clus scale="   91.715">  7  8 -1 -1</clus>
<clus scale="  105.748">  1  7  2 -1</clus>
<clus scale="   29.772">  2  5  1 -1</clus>
</clustering>
</event>
<event>
10    2  0.5921424E-006  0.3905699E+03  0.7546771E-02  0.1093960E+00
         21   -1    0    0  501  502  0.00000000000E+00  0.00000000000E+00  0.34042971026E+03  0.34042971026E+03  0.00000000000E+00 0. -1.
          2   -1    0    0  503    0 -0.00000000000E+00 -0.00000000000E+00 -0.34844441148E+03  0.34844441148E+03  0.00000000000E+00 0. -1.
         23    2    1    2    0    0 -0.52123633995E+02 -0.27974299056E+02 -0.11034413136E+03  0.15447784245E+03  0.90488352045E+02 0.  0.
         23    2    1    2    0    0  0.74035306103E+02 -0.12918414585E+02  0.25887485190E+03  0.28286771491E+03  0.85731226571E+02 0.  0.
        -11    1    3    3    0    0 -0.53134486795E+02  0.37805004736E+01 -0.17063355625E+02  0.55934997774E+02  0.00000000000E+00 0. -1.
         11    1    3    3    0    0  0.10108528002E+01 -0.31754799530E+02 -0.93280775730E+02  0.98542844678E+02  0.00000000000E+00 0.  1.
        -13    1    4    4    0    0 -0.80461559330E+01 -0.22725425220E+02  0.24631645232E+02  0.34465976318E+02  0.00000000000E+00 0.  1.
         13    1    4    4    0    0  0.82081462036E+02  0.98070106348E+01  0.23424320667E+03  0.24840173860E+03  0.00000000000E+00 0. -1.
         21    1    1    2  503  502 -0.40297691304E+02  0.98533308155E+02 -0.28958960411E+02  0.11032378768E+03  0.00000000000E+00 0.  1.
          2    1    1    2  501    0  0.18386019196E+02 -0.57640594514E+02 -0.12758646136E+03  0.14120477669E+03  0.00000000000E+00 0. -1.
<scales pt_clust_5="13000.00000" pt_clust_6="13000.00000" pt_clust_7="13000.00000" pt_clust_8="13000.00000" pt_clust_9="106.45529" pt_clust_10="13000.00000"></scales>
<clustering>
<clus scale="   85.731">  7  8 -1 -1</clus>
<clus scale="   60.502">  7 10 -1 -1</clus>
<clus scale="   90.488">  5  6 -1 -1</clus>
<clus scale="  106.455">  1  9  2 -1</clus>
<clus scale="  107.946">  2  5  1 -1</clus>
<clus scale="  106.455">  1  5  2 -1</clus>
</clustering>
</event>
<event>
10    2  0.5921424E-006  0.3344138E+03  0.7546771E-02  0.1103346E+00
         21   -1    0    0  503  502  0.00000000000E+00  0.00000000000E+00  0.30231581056E+03  0.30231581056E+03  0.00000000000E+00 0. -1.
          2   -1    0    0  502    0 -0.00000000000E+00 -0.00000000000E+00 -0.56735292333E+03  0.56735292333E+03  0.00000000000E+00 0. -1.
         23    2    1    2    0    0  0.87732186559E+02 -0.36127128425E+02 -0.19897770246E+03  0.24029261627E+03  0.95636339279E+02 0.  0.
         23    2    1    2    0    0 -0.43392948010E+02  0.28841143247E+02 -0.26806204775E+02  0.10666244270E+03  0.89126564990E+02 0.  0.
        -11    1    3    3    0    0  0.31988408399E+02 -0.13940773634E+02 -0.26414755004E+01  0.34994011405E+02  0.00000000000E+00 0. -1.
         11    1    3    3    0    0  0.55743778160E+02 -0.22186354790E+02 -0.19633622696E+03  0.20529860486E+03  0.00000000000E+00 0.  1.
        -13    1    4    4    0    0  0.49598351740E+01  0.43926946313E+02 -0.33642463229E+02  0.55551704829E+02  0.00000000000E+00 0.  1.
         13    1    4    4    0    0 -0.48352783184E+02 -0.15085803065E+02  0.68362584541E+01  0.51110737868E+02  0.00000000000E+00 0. -1.
         21    1    1    2  503  501 -0.22003173099E+03  0.29614460406E+02  0.14655183574E+03  0.26602334384E+03  0.00000000000E+00 0. -1.
          2    1    1    2  501    0  0.17569249244E+03 -0.22328475228E+02 -0.18580504128E+03  0.25669033108E+03  0.00000000000E+00 0. -1.
<scales pt_clust_5="13000.00000" pt_clust_6="13000.00000" pt_clust_7="13000.00000" pt_clust_8="13000.00000" pt_clust_9="206.29225" pt_clust_10="13000.00000"></scales>
<clustering>
<clus scale="   89.127">  7  8 -1 -1</clus>
<clus scale="   95.636">  5  6 -1 -1</clus>
<clus scale="  134.716">  2  5  1 -1</clus>
<clus scale="  206.292">  1  9  2 -1</clus>
<clus scale="  112.132">  7 10 -1 -1</clus>
<clus scale="  206.292">  1  5  2 -1</clus>
</clustering>
</event>
<event>
10    2  0.5921424E-006  0.1838529E+03  0.7546771E-02  0.1183576E+00
          2   -1    0    0  502    0 -0.00000000000E+00  0.00000000000E+00  0.27815442649E+03  0.27815442649E+03  0.00000000000E+00 0. -1.
         21   -1    0    0  503  502  0.00000000000E+00 -0.00000000000E+00 -0.13381583776E+03  0.13381583776E+03  0.00000000000E+00 0.  1.
         23    2    1    2    0    0  0.58684367278E+02  0.47581985881E+02  0.10217355264E+03  0.15752371637E+03  0.93093426273E+02 0.  0.
         23    2    1    2    0    0 -0.26567970185E+02 -0.92807387265E+02  0.33276900622E+02  0.13686165228E+03  0.91130080538E+02 0.  0.
        -11    1    4    4    0    0 -0.25609288775E+02 -0.39196520647E+02  0.60681472528E+02  0.76644921623E+02  0.00000000000E+00 0. -1.
         11    1    4    4    0    0 -0.95868140959E+00 -0.53610866618E+02 -0.27404571906E+02  0.60216730656E+02  0.00000000000E+00 0.  1.
        -13    1    3    3    0    0  0.57547491779E+02 -0.10764783596E+02  0.68642941856E+02  0.90218888502E+02  0.00000000000E+00 0. -1.
         13    1    3    3    0    0  0.11368754999E+01  0.58346769477E+02  0.33530610788E+02  0.67304827866E+02  0.00000000000E+00 0.  1.
         21    1    1    2  503  501 -0.20840329916E+02  0.10659893102E+02 -0.46077370619E+02  0.51682460807E+02  0.00000000000E+00 0.  1.
          2    1    1    2  501    0 -0.11276067178E+02  0.34565508282E+02  0.54965506081E+02  0.65902434800E+02  0.00000000000E+00 0. -1.
<scales pt_clust_5="13000.00000" pt_clust_6="13000.00000" pt_clust_7="13000.00000" pt_clust_8="13000.00000" pt_clust_9="23.40839" pt_clust_10="13000.00000"></scales>
<clustering>
<clus scale="   23.408">  2  9  1 -1</clus>
<clus scale="   91.130">  5  6 -1 -1</clus>
<clus scale="   37.442">  5 10 -1 -1</clus>
<clus scale="   93.093">  7  8 -1 -1</clus>
<clus scale="  118.178">  1  7  2 -1</clus>
<clus scale="   23.408">  2  5  1 -1</clus>
</clustering>
</event>
<event>
10    2  0.5921424E-006  0.6345468E+03  0.7546771E-02  0.1030009E+00
         21   -1    0    0  501  502  0.00000000000E+00  0.00000000000E+00  0.76683433362E+03  0.76683433362E+03  0.00000000000E+00 0. -1.
          3   -1    0    0  503    0 -0.00000000000E+00 -0.00000000000E+00 -0.26973638899E+03  0.26973638899E+03  0.00000000000E+00 0. -1.
         23    2    1    2    0    0  0.11802974283E+03  0.85740211146E+01 -0.32557013015E+01  0.15082215152E+03  0.93446175774E+02 0.  0.
         23    2    1    2    0    0 -0.18093225005E+03 -0.15822084265E+03 -0.81111032242E+02  0.26288380034E+03  0.68982452638E+02 0.  0.
        -11    1    4    4    0    0 -0.83659430603E+01 -0.18368455164E+02 -0.27973578468E+02  0.34495075600E+02  0.00000000000E+00 0.  1.
         11    1    4    4    0    0 -0.17256630699E+03 -0.13985238749E+03 -0.53137453774E+02  0.22838872474E+03  0.00000000000E+00 0. -1.
        -13    1    3    3    0    0  0.73693140515E+02  0.47523738554E+02 -0.19042316642E+02  0.89731792070E+02  0.00000000000E+00 0.  1.
         13    1    3    3    0    0  0.44336602320E+02 -0.38949717440E+02  0.15786615340E+02  0.61090359450E+02  0.00000000000E+00 0. -1.
         21    1    1    2  503  502 -0.73830395286E+01 -0.21987070338E+02  0.16945506773E+03  0.17103496869E+03  0.00000000000E+00 0.  1.
          3    1    1    2  501    0  0.70285546747E+02  0.17163389188E+03  0.41200961045E+03  0.45182980205E+03  0.00000000000E+00 0. -1.
<scales pt_clust_5="13000.00000" pt_clust_6="13000.00000" pt_clust_7="13000.00000" pt_clust_8="13000.00000" pt_clust_9="23.19355" pt_clust_10="13000.00000"></scales>
<clustering>
<clus scale="   23.194">  1  9  2 -1</clus>
<clus scale="   68.982">  5  6 -1 -1</clus>
<clus scale="   93.446">  7  8 -1 -1</clus>
<clus scale="  149.943">  2  7  1 -1</clus>
<clus scale="  173.475">  5 10 -1 -1</clus>
<clus scale="   23.194">  1  5  2 -1</clus>
</clustering>
</event>
<event>
10    2  0.5921424E-006  0.1919840E+03  0.7546771E-02  0.1187139E+00
         21   -1    0    0  501  502  0.00000000000E+00  0.00000000000E+00  0.21086676567E+03  0.21086676567E+03  0.00000000000E+00 0. -1.
          1   -1    0    0  503    0 -0.00000000000E+00 -0.00000000000E+00 -0.20445393703E+03  0.20445393703E+03  0.00000000000E+00 0. -1.
         23    2    1    2    0    0  0.43716573279E+02  0.21790285812E+01 -0.60289815420E+02  0.11325174527E+03  0.85294835824E+02 0.  0.
         23    2    1    2    0    0 -0.25399586760E+02 -0.54699620318E+02 -0.19373047600E+02  0.10922477487E+03  0.88980610257E+02 0.  0.
        -11    1    3    3    0    0  0.86580349019E+01 -0.33881480764E+02 -0.51415675344E+02  0.62181090198E+02  0.00000000000E+00 0.  1.
         11    1    3    3    0    0  0.35058538377E+02  0.36060509345E+02 -0.88741400760E+01  0.51070655071E+02  0.00000000000E+00 0. -1.
        -13    1    4    4    0    0 -0.28228344508E+02  0.18363640764E+02 -0.37067579564E+00  0.33677887943E+02  0.00000000000E+00 0. -1.
         13    1    4    4    0    0  0.28287577485E+01 -0.73063261081E+02 -0.19002371804E+02  0.75546886928E+02  0.00000000000E+00 0.  1.
         21    1    1    2  503  502 -0.29706067573E+02  0.94399893034E+02  0.28763194975E+01  0.99005370912E+02  0.00000000000E+00 0. -1.
          1    1    1    2  501    0  0.11389081054E+02 -0.41879301298E+02  0.83199372164E+02  0.93838811655E+02  0.00000000000E+00 0. -1.
<scales pt_clust_5="13000.00000" pt_clust_6="13000.00000" pt_clust_7="13000.00000" pt_clust_8="13000.00000" pt_clust_9="96.02405" pt_clust_10="13000.00000"></scales>
<clustering>
<clus scale="   85.295">  5  6 -1 -1</clus>
<clus scale="   88.981">  7  8 -1 -1</clus>
<clus scale="   43.400">  7 10 -1 -1</clus>
<clus scale="   95.870">  2  5  1 -1</clus>
<clus scale="   96.024">  1  9  2 -1</clus>
<clus scale="   96.024">  1  5  2 -1</clus>
</clustering>
</event>
<event>
10    2  0.5921424E-006  0.4046340E+03  0.7546771E-02  0.1044256E+00
         -3   -1    0    0    0  501 -0.00000000000E+00  0.00000000000E+00  0.23602278089E+03  0.23602278089E+03  0.00000000000E+00 0.  1.
         21   -1    0    0  503  502  0.00000000000E+00 -0.00000000000E+00 -0.86735849325E+03  0.86735849325E+03  0.00000000000E+00 0. -1.
         23    2    1    2    0    0  0.25322112872E+03  0.27844430822E+03 -0.10790435358E+03  0.40211490410E+03  0.91656280602E+02 0.  0.
         23    2    1    2    0    0 -0.10087105633E+03 -0.11276425907E+03 -0.10652568004E+03  0.20663444783E+03  0.91974596465E+02 0.  0.
        -11    1    3    3    0    0  0.19407979055E+03  0.23038704988E+03 -0.12129494077E+03  0.32474239100E+03  0.00000000000E+00 0. -1.
         11    1    3    3    0    0  0.59141338169E+02  0.48057258334E+02  0.13390587196E+02  0.77372513107E+02  0.00000000000E+00 0.  1.
        -13    1    4    4    0    0 -0.10326627340E+03 -0.51410057555E+02 -0.75219809136E+02  0.13771324165E+03  0.00000000000E+00 0.  1.
         13    1    4    4    0    0  0.23952170730E+01 -0.61354201510E+02 -0.31305870902E+02  0.68921206176E+02  0.00000000000E+00 0. -1.
         21    1    1    2  503  501 -0.27716112824E+02  0.11497515598E+01 -0.16721016207E+03  0.16949555492E+03  0.00000000000E+00 0. -1.
         -3    1    1    2    0  502 -0.12463395956E+03 -0.16682980071E+03 -0.24969551668E+03  0.32513636728E+03  0.00000000000E+00 0.  1.
<scales pt_clust_5="13000.00000" pt_clust_6="13000.00000" pt_clust_7="13000.00000" pt_clust_8="13000.00000" pt_clust_9="27.73995" pt_clust_10="13000.00000"></scales>
<clustering>
<clus scale="   27.740">  2  9  1 -1</clus>
<clus scale="   91.656">  5  6 -1 -1</clus>
<clus scale="   91.975">  7  8 -1 -1</clus>
<clus scale="  214.893">  7 10 -1 -1</clus>
<clus scale="  381.141">  1  5  2 -1</clus>
<clus scale="   27.740">  2  5  1 -1</clus>
</clustering>
</event>
<event>
10    2  0.5921424E-006  0.1701819E+03  0.7546771E-02  0.1199518E+00
         21   -1    0    0  501  502  0.00000000000E+00  0.00000000000E+00  0.50542904122E+03  0.50542904122E+03  0.00000000000E+00 0. -1.
         -4   -1    0    0    0  501 -0.00000000000E+00 -0.00000000000E+00 -0.51364475878E+02  0.51364475878E+02  0.00000000000E+00 0.  1.
         23    2    1    2    0    0  0.41971821698E+02 -0.46610356301E+02  0.16998670630E+03  0.20306980650E+03  0.91693548631E+02 0.  0.
         23    2    1    2    0    0 -0.42138217429E+02  0.17808493702E+01  0.73672982571E+02  0.12536498383E+03  0.92248956722E+02 0.  0.
        -11    1    3    3    0    0  0.60720200119E+02 -0.78198962695E+01  0.13250232660E+03  0.14596218700E+03  0.00000000000E+00 0. -1.
         11    1    3    3    0    0 -0.18748378421E+02 -0.38790460032E+02  0.37484379706E+02  0.57107619499E+02  0.00000000000E+00 0.  1.
        -13    1    4    4    0    0 -0.56937491233E+02  0.26189763069E+02  0.22164725512E+02  0.66475985547E+02  0.00000000000E+00 0.  1.
         13    1    4    4    0    0  0.14799273804E+02 -0.24408913698E+02  0.51508257058E+02  0.58888998278E+02  0.00000000000E+00 0. -1.
         21    1    1    2  503  502 -0.35439522162E+02  0.60803329601E+01  0.92504480780E+02  0.99247212275E+02  0.00000000000E+00 0. -1.
         -4    1    1    2    0  503  0.35605917893E+02  0.38749173971E+02  0.11790039568E+03  0.12911151449E+03  0.00000000000E+00 0.  1.
<scales pt_clust_5="13000.00000" pt_clust_6="13000.00000" pt_clust_7="13000.00000" pt_clust_8="13000.00000" pt_clust_9="35.95734" pt_clust_10="13000.00000"></scales>
<clustering>
<clus scale="   35.957">  1  9  2 -1</clus>
<clus scale="   91.694">  5  6 -1 -1</clus>
<clus scale="   92.249">  7  8 -1 -1</clus>
<clus scale="   47.623">  7 10 -1 -1</clus>
<clus scale="  104.867">  2  5  1 -1</clus>
<clus scale="   35.957">  1  5  2 -1</clus>
</clustering>
</event>
<event>
10    2  0.5921424E-006  0.5936164E+03  0.7546771E-02  0.1027685E+00
         21   -1    0    0  503  502  0.00000000000E+00  0.00000000000E+00  0.14158158009E+03  0.14158158009E+03  0.00000000000E+00 0. -1.
          2   -1    0    0  502    0 -0.00000000000E+00 -0.00000000000E+00 -0.12913686992E+04  0.12913686992E+04  0.00000000000E+00 0. -1.
         23    2    1    2    0    0 -0.15145517759E+03 -0.34281002842E+02 -0.30665272298E+03  0.36230525243E+03  0.11452224872E+03 0.  0.
         23    2    1    2    0    0  0.35121737222E+03  0.13018301984E+03 -0.65123757203E+03  0.75673045009E+03  0.90715696970E+02 0.  0.
        -11    1    4    4    0    0  0.35397017259E+02  0.26167498352E+02 -0.33971854410E+02  0.55603720136E+02  0.00000000000E+00 0.  1.
         11    1    4    4    0    0  0.31582035496E+03  0.10401552149E+03 -0.61726571762E+03  0.70112672996E+03  0.00000000000E+00 0. -1.
        -13    1    3    3    0    0 -0.11544810863E+03 -0.70685874212E+02 -0.25955685014E+03  0.29273625853E+03  0.00000000000E+00 0.  1.
         13    1    3    3    0    0 -0.36007068960E+02  0.36404871370E+02 -0.47095872834E+02  0.69568993902E+02  0.00000000000E+00 0. -1.
         21    1    1    2  503  501 -0.14364067865E+02 -0.16883762650E+02  0.13664064494E+02  0.26040248565E+02  0.00000000000E+00 0.  1.
          2    1    1    2  501    0 -0.18539812676E+03 -0.79018254349E+02 -0.20556088865E+03  0.28787432825E+03  0.00000000000E+00 0. -1.
<scales pt_clust_5="13000.00000" pt_clust_6="13000.00000" pt_clust_7="13000.00000" pt_clust_8="13000.00000" pt_clust_9="22.16727" pt_clust_10="13000.00000"></scales>
<clustering>
<clus scale="   22.167">  1  9  2 -1</clus>
<clus scale="   90.716">  5  6 -1 -1</clus>
<clus scale="  114.522">  7  8 -1 -1</clus>
<clus scale="  196.250">  2  7  1 -1</clus>
<clus scale="  252.803">  5 10 -1 -1</clus>
<clus scale="   22.167">  1  5  2 -1</clus>
</clustering>
</event>
<event>
10    2  0.5921424E-006  0.1852032E+03  0.7546771E-02  0.1170882E+00
         21   -1    0    0  501  502  0.00000000000E+00  0.00000000000E+00  0.53826124035E+02  0.53826124035E+02  0.00000000000E+00 0. -1.
          1   -1    0    0  503    0 -0.00000000000E+00 -0.00000000000E+00 -0.86464882261E+03  0.86464882261E+03  0.00000000000E+00 0. -1.
         23    2    1    2    0    0  0.77827859015E+01 -0.12377765661E+03 -0.58900796996E+03  0.60874129246E+03  0.90852035950E+02 0.  0.
         23    2    1    2    0    0 -0.46722813467E+02  0.78983559521E+02 -0.12447670413E+03  0.18786056266E+03  0.10665700708E+03 0.  0.
        -13    1    4    4    0    0  0.14877215731E+02 -0.16498189027E+02 -0.45960297705E+01  0.22685794646E+02  0.00000000000E+00 0.  1.
         13    1    4    4    0    0 -0.61600029198E+02  0.95481748548E+02 -0.11988067436E+03  0.16517476801E+03  0.00000000000E+00 0. -1.
        -13    1    3    3    0    0 -0.39651330486E+02 -0.43717271468E+02 -0.18649667477E+03  0.19561297896E+03  0.00000000000E+00 0. -1.
         13    1    3    3    0    0  0.47434116387E+02 -0.80060385140E+02 -0.40251129519E+03  0.41312831350E+03  0.00000000000E+00 0.  1.
         21    1    1    2  503  502  0.27927987441E+02  0.75933289755E+00 -0.36204164749E+02  0.45730631027E+02  0.00000000000E+00 0.  1.
          1    1    1    2  501    0  0.11012040125E+02  0.44034764189E+02 -0.61133859733E+02  0.76142460499E+02  0.00000000000E+00 0. -1.
<scales pt_clust_5="13000.00000" pt_clust_6="13000.00000" pt_clust_7="13000.00000" pt_clust_8="13000.00000" pt_clust_9="27.93831" pt_clust_10="13000.00000"></scales>
<clustering>
<clus scale="   27.938">  1  9  2 -1</clus>
<clus scale="   90.852">  7  8 -1 -1</clus>
<clus scale="  106.657">  5  6 -1 -1</clus>
<clus scale="   46.721">  5 10 -1 -1</clus>
<clus scale="  154.002">  2  7  1 -1</clus>
<clus scale="   27.938">  1  5  2 -1</clus>
</clustering>
</event>
<event>
10    2  0.5921424E-006  0.4474792E+03  0.7546771E-02  0.1057806E+00
          4   -1    0    0  503    0 -0.00000000000E+00  0.00000000000E+00  0.16204481010E+03  0.16204481010E+03  0.00000000000E+00 0. -1.
         21   -1    0    0  501  502  0.00000000000E+00 -0.00000000000E+00 -0.71569941519E+03  0.71569941519E+03  0.00000000000E+00 0.  1.
         23    2    1    2    0    0  0.62299738645E+02  0.16564518368E+03 -0.22700457942E+03  0.30205368114E+03  0.91573811219E+02 0.  0.
         23    2    1    2    0    0 -0.13025293224E+03 -0.10080542627E+03 -0.35710280213E+03  0.40308804705E+03  0.88487298880E+02 0.  0.
        -11    1    3    3    0    0  0.21539957899E+02  0.58308070533E+02 -0.19926315214E+02  0.65275254986E+02  0.00000000000E+00 0. -1.
         11    1    3    3    0    0  0.40759780746E+02  0.10733711315E+03 -0.20707826421E+03  0.23677842615E+03  0.00000000000E+00 0.  1.
        -11    1    4    4    0    0 -0.10311254956E+03 -0.31497427810E+02 -0.25390798270E+03  0.27585059274E+03  0.00000000000E+00 0.  1.
         11    1    4    4    0    0 -0.27140382672E+02 -0.69307998456E+02 -0.10319481943E+03  0.12723745431E+03  0.00000000000E+00 0. -1.
         21    1    1    2  503  502 -0.21951629091E+02 -0.15580124393E+02 -0.39998424127E+02  0.48212946690E+02  0.00000000000E+00 0.  1.
          4    1    1    2  501    0  0.89904822682E+02 -0.49259633019E+02  0.70451200589E+02  0.12438955041E+03  0.00000000000E+00 0. -1.
<scales pt_clust_5="13000.00000" pt_clust_6="13000.00000" pt_clust_7="13000.00000" pt_clust_8="13000.00000" pt_clust_9="26.91866" pt_clust_10="13000.00000"></scales>
<clustering>
<clus scale="   26.919">  2  9  1 -1</clus>
<clus scale="   88.487">  7  8 -1 -1</clus>
<clus scale="   91.574">  5  6 -1 -1</clus>
<clus scale="  102.048">  7 10 -1 -1</clus>
<clus scale="  191.592">  1  5  2 -1</clus>
<clus scale="   26.919">  2  5  1 -1</clus>
</clustering>
</event>
<event>
10    2  0.5921424E-006  0.3026305E+03  0.7546771E-02  0.1117359E+00
         21   -1    0    0  503  502  0.00000000000E+00  0.00000000000E+00  0.25260516559E+03  0.25260516559E+03  0.00000000000E+00 0.  1.
          2   -1    0    0  502    0 -0.00000000000E+00 -0.00000000000E+00 -0.32602620183E+03  0.32602620183E+03  0.00000000000E+00 0. -1.
         23    2    1    2    0    0  0.48425634992E+02  0.42250489218E+02 -0.20772552497E+02  0.11535257350E+03  0.93512412612E+02 0.  0.
         23    2    1    2    0    0  0.33858692597E+01 -0.16589532895E+01 -0.15818494963E+03  0.18194789985E+03  0.89823959687E+02 0.  0.
        -11    1    3    3    0    0 -0.16712652501E+02  0.15305506785E+02 -0.36654402542E+02  0.43094274762E+02  0.00000000000E+00 0. -1.
         11    1    3    3    0    0  0.65138287493E+02  0.26944982433E+02  0.15881850045E+02  0.72258298739E+02  0.00000000000E+00 0.  1.
        -11    1    4    4    0    0  0.22879190513E+02  0.38656175456E+02 -0.85325048273E+02  0.96426765591E+02  0.00000000000E+00 0.  1.
         11    1    4    4    0    0 -0.19493321253E+02 -0.40315128746E+02 -0.72859901352E+02  0.85521134255E+02  0.00000000000E+00 0. -1.
         21    1    1    2  503  501  0.10220735399E+03 -0.15960952787E+02  0.56266392702E+02  0.11775823611E+03  0.00000000000E+00 0.  1.
          2    1    1    2  501    0 -0.15401885824E+03 -0.24630583141E+02  0.49270073179E+02  0.16357265796E+03  0.00000000000E+00 0. -1.
<scales pt_clust_5="13000.00000" pt_clust_6="13000.00000" pt_clust_7="13000.00000" pt_clust_8="13000.00000" pt_clust_9="103.44610" pt_clust_10="13000.00000"></scales>
<clustering>
<clus scale="   89.824">  7  8 -1 -1</clus>
<clus scale="   93.512">  5  6 -1 -1</clus>
<clus scale="  103.446">  1  9  2 -1</clus>
<clus scale="   94.974">  7 10 -1 -1</clus>
<clus scale="  127.237">  2  5  1 -1</clus>
<clus scale="  103.446">  1  5  2 -1</clus>
</clustering>
</event>
<event>
10    2  0.5921424E-006  0.3647661E+03  0.7546771E-02  0.1095834E+00
          2   -1    0    0  503    0 -0.00000000000E+00  0.00000000000E+00  0.80005735443E+03  0.80005735443E+03  0.00000000000E+00 0. -1.
         21   -1    0    0  501  502  0.00000000000E+00 -0.00000000000E+00 -0.22649856292E+03  0.22649856292E+03  0.00000000000E+00 0.  1.
         23    2    1    2    0    0 -0.75683646645E+02  0.28561840630E+02  0.36272001483E+03  0.38403600778E+03  0.96819693257E+02 0.  0.
         23    2    1    2    0    0  0.68376249200E+02 -0.11534636920E+03  0.15943988097E+03  0.22419392606E+03  0.82835647481E+02 0.  0.
        -13    1    3    3    0    0 -0.21864216887E+02 -0.32286072222E+02  0.17835692679E+03  0.18256951491E+03  0.00000000000E+00 0. -1.
         13    1    3    3    0    0 -0.53819429759E+02  0.60847912852E+02  0.18436308804E+03  0.20146649287E+03  0.00000000000E+00 0.  1.
        -13    1    4    4    0    0  0.38459471964E+02 -0.90963255058E+02  0.55424067134E+02  0.11324871731E+03  0.00000000000E+00 0. -1.
         13    1    4    4    0    0  0.29916777236E+02 -0.24383114144E+02  0.10401581384E+03  0.11094520875E+03  0.00000000000E+00 0.  1.
         21    1    1    2  503  502 -0.40930739326E+01  0.20541063692E+03  0.15741353287E+03  0.25882291889E+03  0.00000000000E+00 0.  1.
          2    1    1    2  501    0  0.11400471378E+02 -0.11862610835E+03 -0.10601463717E+03  0.15950306462E+03  0.00000000000E+00 0. -1.
<scales pt_clust_5="13000.00000" pt_clust_6="13000.00000" pt_clust_7="13000.00000" pt_clust_8="13000.00000" pt_clust_9="223.14276" pt_clust_10="13000.00000"></scales>
<clustering>
<clus scale="   82.836">  7  8 -1 -1</clus>
<clus scale="   96.820">  5  6 -1 -1</clus>
<clus scale="  119.173">  7 10 -1 -1</clus>
<clus scale="  126.166">  1  5  2 -1</clus>
<clus scale="  223.143">  2  9  1 -1</clus>
<clus scale="  223.143">  2  5  1 -1</clus>
</clustering>
</event>
<event>
10    2  0.5921424E-006  0.1841437E+03  0.7546771E-02  0.1186494E+00
         21   -1    0    0  501  502  0.00000000000E+00  0.00000000000E+00  0.93984413500E+02  0.93984413500E+02  0.00000000000E+00 0.  1.
          1   -1    0    0  503    0 -0.00000000000E+00 -0.00000000000E+00 -0.35447795115E+03  0.35447795115E+03  0.00000000000E+00 0. -1.
         23    2    1    2    0    0  0.19306891163E+02 -0.46011296648E+02 -0.10668951138E+03  0.14952562038E+03  0.92116577465E+02 0.  0.
         23    2    1    2    0    0 -0.37524970851E+02  0.15106746469E+02 -0.17742198661E+03  0.20328386734E+03  0.90605916816E+02 0.  0.
        -11    1    4    4    0    0  0.11779772756E+02  0.24534934454E+02 -0.10827707510E+02  0.29291044788E+02  0.00000000000E+00 0.  1.
         11    1    4    4    0    0 -0.49304743607E+02 -0.94281879851E+01 -0.16659427910E+03  0.17399282255E+03  0.00000000000E+00 0. -1.
        -13    1    3    3    0    0 -0.12700191477E+02 -0.65487046966E+02 -0.75751744324E+02  0.10093648970E+03  0.00000000000E+00 0.  1.
         13    1    3    3    0    0  0.32007082640E+02  0.19475750318E+02 -0.30937767061E+02  0.48589130681E+02  0.00000000000E+00 0. -1.
         21    1    1    2  503  502  0.35950058998E+02 -0.18103502399E+02  0.14258439246E+02  0.42701834045E+02  0.00000000000E+00 0.  1.
          1    1    1    2  501    0 -0.17731979309E+02  0.49008052577E+02  0.93595211006E+01  0.52951042887E+02  0.00000000000E+00 0. -1.
<scales pt_clust_5="13000.00000" pt_clust_6="13000.00000" pt_clust_7="13000.00000" pt_clust_8="13000.00000" pt_clust_9="40.25101" pt_clust_10="13000.00000"></scales>
<clustering>
<clus scale="   40.251">  1  9  2 -1</clus>
<clus scale="   90.606">  5  6 -1 -1</clus>
<clus scale="   40.403">  5 10 -1 -1</clus>
<clus scale="   92.117">  7  8 -1 -1</clus>
<clus scale="  110.214">  2  7  1 -1</clus>
<clus scale="   40.251">  1  5  2 -1</clus>
</clustering>
</event>
<event>
10    2  0.5921424E-006  0.4200354E+03  0.7546771E-02  0.1083337E+00
          1   -1    0    0  503    0 -0.00000000000E+00  0.00000000000E+00  0.61644786269E+02  0.61644786269E+02  0.00000000000E+00 0. -1.
         21   -1    0    0  501  502  0.00000000000E+00 -0.00000000000E+00 -0.25196634843E+04  0.25196634843E+04  0.00000000000E+00 0.  1.
         23    2    1    2    0    0 -0.22056327641E+02 -0.72865225155E+02 -0.47301166961E+03  0.48679185268E+03  0.86200032647E+02 0.  0.
         23    2    1    2    0    0 -0.48638873420E+02  0.99156676214E+02 -0.21808427135E+03  0.26075900652E+03  0.90756397160E+02 0.  0.
        -13    1    3    3    0    0  0.29948481086E+02 -0.10498725220E+02 -0.95139109519E+02  0.10029249678E+03  0.00000000000E+00 0.  1.
         13    1    3    3    0    0 -0.52004808727E+02 -0.62366499935E+02 -0.37787256009E+03  0.38649935590E+03  0.00000000000E+00 0. -1.
        -13    1    4    4    0    0  0.12115339459E+02  0.73872516745E+02 -0.92669114339E+02  0.11912806106E+03  0.00000000000E+00 0. -1.
         13    1    4    4    0    0 -0.60754212879E+02  0.25284159469E+02 -0.12541515701E+03  0.14163094546E+03  0.00000000000E+00 0.  1.
         21    1    1    2  503  502 -0.20422481262E+03 -0.66431703158E+01 -0.94547403263E+03  0.96730194468E+03  0.00000000000E+00 0.  1.
          1    1    1    2  501    0  0.27492001368E+03 -0.19648280743E+02 -0.82144872440E+03  0.86645546665E+03  0.00000000000E+00 0. -1.
<scales pt_clust_5="13000.00000" pt_clust_6="13000.00000" pt_clust_7="13000.00000" pt_clust_8="13000.00000" pt_clust_9="209.69225" pt_clust_10="13000.00000"></scales>
<clustering>
<clus scale="   86.200">  5  6 -1 -1</clus>
<clus scale="   90.756">  7  8 -1 -1</clus>
<clus scale="  115.006">  1  5  2 -1</clus>
<clus scale="  209.692">  2  9  1 -1</clus>
<clus scale="  142.906">  7 10 -1 -1</clus>
<clus scale="  209.692">  2  5  1 -1</clus>
</clustering>
</event>
<event>
10    2  0.5921424E-006  0.2984192E+03  0.7546771E-02  0.1131903E+00
         21   -1    0    0  501  502  0.00000000000E+00  0.00000000000E+00  0.80999588059E+03  0.80999588059E+03  0.00000000000E+00 0.  1.
          3   -1    0    0  503    0 -0.00000000000E+00 -0.00000000000E+00 -0.11832815417E+03  0.11832815417E+03  0.00000000000E+00 0. -1.
         23    2    1    2    0    0  0.12317524481E+02  0.92607950051E+01  0.73599156286E+01  0.93428863605E+02  0.91854779206E+02 0.  0.
         23    2    1    2    0    0 -0.24966905574E+02  0.19977546692E+02 -0.29950832912E+02  0.10294047876E+03  0.93151709751E+02 0.  0.
        -11    1    3    3    0    0  0.68355084224E+01  0.34229627859E+02 -0.31431562337E+02  0.46971637290E+02  0.00000000000E+00 0. -1.
         11    1    3    3    0    0  0.54820160590E+01 -0.24968832854E+02  0.38791477965E+02  0.46457226315E+02  0.00000000000E+00 0.  1.
        -13    1    4    4    0    0 -0.91256929658E+01  0.52442069778E+02  0.39823352292E+01  0.53378909212E+02  0.00000000000E+00 0. -1.
         13    1    4    4    0    0 -0.15841212608E+02 -0.32464523086E+02 -0.33933168141E+02  0.49561569549E+02  0.00000000000E+00 0.  1.
         21    1    1    2  503  502 -0.12204674945E+02 -0.91826156725E+02  0.41332828850E+03  0.42358148121E+03  0.00000000000E+00 0.  1.
          3    1    1    2  501    0  0.24854056038E+02  0.62587815028E+02  0.30093035520E+03  0.30837321118E+03  0.00000000000E+00 0. -1.
<scales pt_clust_5="13000.00000" pt_clust_6="13000.00000" pt_clust_7="13000.00000" pt_clust_8="13000.00000" pt_clust_9="92.63367" pt_clust_10="13000.00000"></scales>
<clustering>
<clus scale="   91.855">  5  6 -1 -1</clus>
<clus scale="   92.634">  1  9  2 -1</clus>
<clus scale="   92.517">  2  5  1 -1</clus>
<clus scale="   93.152">  7  8 -1 -1</clus>
<clus scale="   18.949">  7 10 -1 -1</clus>
<clus scale="   92.634">  1  5  2 -1</clus>
</clustering>
</event>
<event>
10    2  0.5921424E-006  0.2416381E+03  0.7546771E-02  0.1138002E+00
          1   -1    0    0  503    0 -0.00000000000E+00  0.00000000000E+00  0.68893565595E+03  0.68893565595E+03  0.00000000000E+00 0. -1.
         21   -1    0    0  501  502  0.00000000000E+00 -0.00000000000E+00 -0.38400010687E+03  0.38400010687E+03  0.00000000000E+00 0. -1.
         23    2    1    2    0    0 -0.10316839991E+03 -0.16319637246E+03  0.21953867975E+03  0.30626262111E+03  0.91229307021E+02 0.  0.
         23    2    1    2    0    0 -0.12395423547E+02  0.32444115027E+02  0.37649977916E+03  0.38878626523E+03  0.90534022310E+02 0.  0.
        -11    1    3    3    0    0 -0.31495578155E+02 -0.11640118231E+03  0.16644644740E+03  0.20553740910E+03  0.00000000000E+00 0. -1.
         11    1    3    3    0    0 -0.71672821751E+02 -0.46795190150E+02  0.53092232349E+02  0.10072521201E+03  0.00000000000E+00 0.  1.
        -13    1    4    4    0    0 -0.36212734507E+02  0.50525451885E+02  0.30525906273E+03  0.31152412235E+03  0.00000000000E+00 0.  1.
         13    1    4    4    0    0  0.23817310960E+02 -0.18081336858E+02  0.71240716436E+02  0.77262142879E+02  0.00000000000E+00 0. -1.
         21    1    1    2  503  502  0.12744932346E+03  0.82019640735E+02 -0.29057151828E+03  0.32772299089E+03  0.00000000000E+00 0. -1.
          1    1    1    2  501    0 -0.11885500010E+02  0.48732616702E+02 -0.53139154831E+00  0.50163885596E+02  0.00000000000E+00 0. -1.
<scales pt_clust_5="13000.00000" pt_clust_6="13000.00000" pt_clust_7="13000.00000" pt_clust_8="13000.00000" pt_clust_9="151.56039" pt_clust_10="13000.00000"></scales>
<clustering>
<clus scale="   90.534">  7  8 -1 -1</clus>
<clus scale="   50.161">  7 10 -1 -1</clus>
<clus scale="   91.229">  5  6 -1 -1</clus>
<clus scale="  151.560">  2  9  1 -1</clus>
<clus scale="  150.220">  1  5  2 -1</clus>
<clus scale="  151.560">  2  5  1 -1</clus>
</clustering>
</event>
<event>
10    2  0.5921424E-006  0.4233420E+03  0.7546771E-02  0.1080555E+00
         21   -1    0    0  503  502  0.00000000000E+00  0.00000000000E+00  0.12044433528E+03  0.12044433528E+03  0.00000000000E+00 0. -1.
          2   -1    0    0  502    0 -0.00000000000E+00 -0.00000000000E+00 -0.23469644113E+04  0.23469644113E+04  0.00000000000E+00 0. -1.
         23    2    1    2    0    0 -0.10939082343E+02  0.74851494998E+02 -0.33195819459E+03  0.35375152822E+03  0.96028594359E+02 0.  0.
         23    2    1    2    0    0  0.18579157745E+02 -0.22843391801E+03 -0.11805576804E+04  0.12060455973E+04  0.91116990403E+02 0.  0.
        -11    1    4    4    0    0 -0.30615617751E+02 -0.12732658205E+03 -0.73116596498E+03  0.74280080970E+03  0.00000000000E+00 0.  1.
         11    1    4    4    0    0  0.49194775496E+02 -0.10110733596E+03 -0.44939171541E+03  0.46324478756E+03  0.00000000000E+00 0. -1.
        -13    1    3    3    0    0  0.23062223590E+02  0.12209368737E+01 -0.17425551553E+02  0.28931067915E+02  0.00000000000E+00 0. -1.
         13    1    3    3    0    0 -0.34001305934E+02  0.73630558124E+02 -0.31453264304E+03  0.32482046030E+03  0.00000000000E+00 0.  1.
         21    1    1    2  503  501 -0.49503961581E+02 -0.19405322735E+02  0.78807568024E+02  0.95067563030E+02  0.00000000000E+00 0. -1.
          2    1    1    2  501    0  0.41863886180E+02  0.17298774575E+03 -0.79281176903E+03  0.81254405804E+03  0.00000000000E+00 0. -1.
<scales pt_clust_5="13000.00000" pt_clust_6="13000.00000" pt_clust_7="13000.00000" pt_clust_8="13000.00000" pt_clust_9="53.17150" pt_clust_10="13000.00000"></scales>
<clustering>
<clus scale="   53.172">  1  9  2 -1</clus>
<clus scale="   91.117">  5  6 -1 -1</clus>
<clus scale="   96.029">  7  8 -1 -1</clus>
<clus scale="  121.039">  2  7  1 -1</clus>
<clus scale="  193.367">  5 10 -1 -1</clus>
<clus scale="   53.172">  1  5  2 -1</clus>
</clustering>
</event>
<event>
10    2  0.5921424E-006  0.1985203E+03  0.7546771E-02  0.1173668E+00
         -3   -1    0    0    0  501 -0.00000000000E+00  0.00000000000E+00  0.65107071296E+03  0.65107071296E+03  0.00000000000E+00 0.  1.
         21   -1    0    0  503  502  0.00000000000E+00 -0.00000000000E+00 -0.86514537181E+02  0.86514537181E+02  0.00000000000E+00 0. -1.
         23    2    1    2    0    0 -0.78094669922E+02  0.17649996270E+02  0.22586953686E+03  0.25702265580E+03  0.92915542692E+02 0.  0.
         23    2    1    2    0    0  0.65195427598E+02 -0.73784743821E+02  0.23798306073E+03  0.27574930313E+03  0.98524660772E+02 0.  0.
        -11    1    4    4    0    0  0.51859095619E+02  0.77453435018E+01  0.61029745312E+02  0.80461083495E+02  0.00000000000E+00 0.  1.
         11    1    4    4    0    0  0.13336331979E+02 -0.81530087323E+02  0.17695331542E+03  0.19528821963E+03  0.00000000000E+00 0. -1.
        -11    1    3    3    0    0 -0.98680509122E+02  0.61385618354E+01  0.17642219736E+03  0.20223826676E+03  0.00000000000E+00 0. -1.
         11    1    3    3    0    0  0.20585839200E+02  0.11511434435E+02  0.49447339503E+02  0.54784389038E+02  0.00000000000E+00 0.  1.
         21    1    1    2  503  501  0.23112187792E+02  0.58968484012E+01 -0.44684112824E+02  0.50651909979E+02  0.00000000000E+00 0.  1.
         -3    1    1    2    0  502 -0.10212945469E+02  0.50237899150E+02  0.14538769101E+03  0.15416138123E+03  0.00000000000E+00 0.  1.
<scales pt_clust_5="13000.00000" pt_clust_6="13000.00000" pt_clust_7="13000.00000" pt_clust_8="13000.00000" pt_clust_9="23.85259" pt_clust_10="13000.00000"></scales>
<clustering>
<clus scale="   23.853">  2  9  1 -1</clus>
<clus scale="   92.916">  7  8 -1 -1</clus>
<clus scale="   98.525">  5  6 -1 -1</clus>
<clus scale="   51.468">  5 10 -1 -1</clus>
<clus scale="  117.350">  1  7  2 -1</clus>
<clus scale="   23.853">  2  5  1 -1</clus>
</clustering>
</event>
<event>
10    2  0.5921424E-006  0.5855178E+03  0.7546771E-02  0.1053963E+00
          2   -1    0    0  502    0 -0.00000000000E+00  0.00000000000E+00  0.19790586671E+04  0.19790586671E+04  0.00000000000E+00 0. -1.
         21   -1    0    0  503  502  0.00000000000E+00 -0.00000000000E+00 -0.78682215549E+02  0.78682215549E+02  0.00000000000E+00 0. -1.
         23    2    1    2    0    0  0.17861313835E+02 -0.42575428587E+02  0.64688676230E+02  0.11773490507E+03  0.86863049612E+02 0.  0.
         23    2    1    2    0    0 -0.20380655624E+03  0.21782198457E+03  0.99476567688E+03  0.10432101075E+04  0.98717005346E+02 0.  0.
        -11    1    3    3    0    0  0.12287135067E+01  0.24729736517E+02  0.30145820273E+01  0.24943081404E+02  0.00000000000E+00 0.  1.
         11    1    3    3    0    0  0.16632600328E+02 -0.67305165104E+02  0.61674094203E+02  0.92791823665E+02  0.00000000000E+00 0. -1.
        -13    1    4    4    0    0 -0.13766160963E+03  0.16709088623E+03  0.83968498617E+03  0.86714529292E+03  0.00000000000E+00 0. -1.
         13    1    4    4    0    0 -0.66144946603E+02  0.50731098335E+02  0.15508069071E+03  0.17606481457E+03  0.00000000000E+00 0.  1.
         21    1    1    2  503  501 -0.12354868096E+01  0.20167952857E+02  0.92748146506E+01  0.22232744700E+02  0.00000000000E+00 0. -1.
          2    1    1    2  501    0  0.18718072921E+03 -0.19541450884E+03  0.83164728374E+03  0.87456312534E+03  0.00000000000E+00 0. -1.
<scales pt_clust_5="13000.00000" pt_clust_6="13000.00000" pt_clust_7="13000.00000" pt_clust_8="13000.00000" pt_clust_9="20.20576" pt_clust_10="13000.00000"></scales>
<clustering>
<clus scale="   20.206">  2  9  1 -1</clus>
<clus scale="   86.863">  5  6 -1 -1</clus>
<clus scale="   95.315">  1  5  2 -1</clus>
<clus scale="   98.717">  7  8 -1 -1</clus>
<clus scale="  282.493">  7 10 -1 -1</clus>
<clus scale="   20.206">  2  5  1 -1</clus>
</clustering>
</event>
<event>
10    2  0.5921424E-006  0.2083504E+03  0.7546771E-02  0.1160663E+00
          2   -1    0    0  502    0 -0.00000000000E+00  0.00000000000E+00  0.84088408740E+03  0.84088408740E+03  0.00000000000E+00 0. -1.
         21   -1    0    0  503  502  0.00000000000E+00 -0.00000000000E+00 -0.10127330111E+03  0.10127330111E+03  0.00000000000E+00 0. -1.
         23    2    1    2    0    0  0.51428311600E+02  0.10595515793E+03  0.14606021054E+03  0.20798762494E+03  0.89743525099E+02 0.  0.
         23    2    1    2    0    0  0.41982149672E+02 -0.94058285049E+02  0.58796945938E+03  0.60402138586E+03  0.92327068271E+02 0.  0.
        -11    1    3    3    0    0 -0.11696935885E+02  0.31362568647E+02  0.15102722966E+01  0.33506864127E+02  0.00000000000E+00 0.  1.
         11    1    3    3    0    0  0.63125247485E+02  0.74592589287E+02  0.14454993824E+03  0.17448076081E+03  0.00000000000E+00 0. -1.
        -13    1    4    4    0    0 -0.26440032024E+02 -0.49380898725E+02  0.26706340516E+03  0.27287434989E+03  0.00000000000E+00 0.  1.
         13    1    4    4    0    0  0.68422181696E+02 -0.44677386324E+02  0.32090605422E+03  0.33114703597E+03  0.00000000000E+00 0. -1.
         21    1    1    2  503  501 -0.50657463400E+02 -0.64520060981E+01 -0.41876679232E+02  0.66041375245E+02  0.00000000000E+00 0. -1.
          2    1    1    2  501    0 -0.42752997872E+02 -0.54448667862E+01  0.47457795596E+02  0.64107002458E+02  0.00000000000E+00 0. -1.
<scales pt_clust_5="13000.00000" pt_clust_6="13000.00000" pt_clust_7="13000.00000" pt_clust_8="13000.00000" pt_clust_9="51.06669" pt_clust_10="13000.00000"></scales>
<clustering>
<clus scale="   51.067">  2  9  1 -1</clus>
<clus scale="   89.744">  5  6 -1 -1</clus>
<clus scale="   92.327">  7  8 -1 -1</clus>
<clus scale="   52.083">  7 10 -1 -1</clus>
<clus scale="  136.885">  1  5  2 -1</clus>
<clus scale="   51.067">  2  5  1 -1</clus>
</clustering>
</event>
<event>
10    2  0.5921424E-006  0.1302683E+03  0.7546771E-02  0.1236379E+00
          2   -1    0    0  502    0 -0.00000000000E+00  0.00000000000E+00  0.32018318606E+03  0.32018318606E+03  0.00000000000E+00 0. -1.
         21   -1    0    0  503  502  0.00000000000E+00 -0.00000000000E+00 -0.11389280501E+03  0.11389280501E+03  0.00000000000E+00 0.  1.
         23    2    1    2    0    0  0.42422151557E+02 -0.68993900756E+01 -0.64262425835E+02  0.11971738740E+03  0.91407619734E+02 0.  0.
         23    2    1    2    0    0 -0.19843157537E+02 -0.22743205749E+01  0.18514112319E+03  0.20681042866E+03  0.89968852794E+02 0.  0.
        -11    1    4    4    0    0 -0.46734204469E+02 -0.28231366733E+02  0.11626529209E+03  0.12844732025E+03  0.00000000000E+00 0. -1.
         11    1    4    4    0    0  0.26891046932E+02  0.25957046159E+02  0.68875831100E+02  0.78363108413E+02  0.00000000000E+00 0.  1.
        -13    1    3    3    0    0 -0.10521023884E+02 -0.37241821718E+02 -0.15832014782E+02  0.41812652636E+02  0.00000000000E+00 0. -1.
         13    1    3    3    0    0  0.52943175442E+02  0.30342431642E+02 -0.48430411053E+02  0.77904734763E+02  0.00000000000E+00 0.  1.
         21    1    1    2  503  501  0.16438081015E+02  0.12918313726E+02  0.11436681969E+02  0.23830464356E+02  0.00000000000E+00 0.  1.
          2    1    1    2  501    0 -0.39017075035E+02 -0.37446030750E+01  0.73975001720E+02  0.83717710647E+02  0.00000000000E+00 0. -1.
<scales pt_clust_5="13000.00000" pt_clust_6="13000.00000" pt_clust_7="13000.00000" pt_clust_8="13000.00000" pt_clust_9="20.90679" pt_clust_10="13000.00000"></scales>
<clustering>
<clus scale="   20.907">  2  9  1 -1</clus>
<clus scale="   89.969">  5  6 -1 -1</clus>
<clus scale="   38.404">  5 10 -1 -1</clus>
<clus scale="   91.408">  7  8 -1 -1</clus>
<clus scale="  107.520">  1  7  2 -1</clus>
<clus scale="   20.907">  2  5  1 -1</clus>
</clustering>
</event>
<event>
10    2  0.5921424E-006  0.5189107E+03  0.7546771E-02  0.1045967E+00
         21   -1    0    0  501  502  0.00000000000E+00  0.00000000000E+00  0.86320804175E+02  0.86320804175E+02  0.00000000000E+00 0.  1.
          2   -1    0    0  503    0 -0.00000000000E+00 -0.00000000000E+00 -0.17202285234E+04  0.17202285234E+04  0.00000000000E+00 0. -1.
         23    2    1    2    0    0 -0.14616855890E+03  0.25551037441E+02 -0.66386147094E+03  0.68627509615E+03  0.90792906521E+02 0.  0.
         23    2    1    2    0    0  0.22469494707E+03 -0.17069611719E+03 -0.39853783583E+03  0.49684453055E+03  0.91635676897E+02 0.  0.
        -11    1    4    4    0    0  0.22864969608E+03 -0.14618991701E+03 -0.35681648788E+03  0.44829697899E+03  0.00000000000E+00 0.  1.
         11    1    4    4    0    0 -0.39547490021E+01 -0.24506200181E+02 -0.41721347952E+02  0.48547551554E+02  0.00000000000E+00 0. -1.
        -13    1    3    3    0    0 -0.96023510274E+02 -0.22481033095E+02 -0.47307996815E+03  0.48325000532E+03  0.00000000000E+00 0. -1.
         13    1    3    3    0    0 -0.50145048623E+02  0.48032070536E+02 -0.19078150279E+03  0.20302509083E+03  0.00000000000E+00 0.  1.
         21    1    1    2  503  502  0.12170073041E+02 -0.20560118033E+02 -0.26641225035E+01  0.24040105658E+02  0.00000000000E+00 0.  1.
          2    1    1    2  501    0 -0.90696461218E+02  0.16570519778E+03 -0.56884428990E+03  0.59938959517E+03  0.00000000000E+00 0. -1.
<scales pt_clust_5="13000.00000" pt_clust_6="13000.00000" pt_clust_7="13000.00000" pt_clust_8="13000.00000" pt_clust_9="23.89203" pt_clust_10="13000.00000"></scales>
<clustering>
<clus scale="   23.892">  1  9  2 -1</clus>
<clus scale="   90.793">  7  8 -1 -1</clus>
<clus scale="   91.636">  5  6 -1 -1</clus>
<clus scale="  172.021">  2  7  1 -1</clus>
<clus scale="  239.217">  5 10 -1 -1</clus>
<clus scale="   23.892">  1  5  2 -1</clus>
</clustering>
</event>
<event>
10    2  0.5921424E-006  0.9650833E+03  0.7546771E-02  0.9751636E-01
          2   -1    0    0  503    0 -0.00000000000E+00  0.00000000000E+00  0.28385962378E+03  0.28385962378E+03  0.00000000000E+00 0. -1.
         21   -1    0    0  501  502  0.00000000000E+00 -0.00000000000E+00 -0.27934260285E+04  0.27934260285E+04  0.00000000000E+00 0. -1.
         23    2    1    2    0    0 -0.22021283906E+03 -0.22648202358E+01 -0.36704484349E+02  0.24101639949E+03  0.90790207375E+02 0.  0.
         23    2    1    2    0    0  0.41253549007E+02  0.22304374826E+02  0.55615276122E+02  0.11732504538E+03  0.92047633823E+02 0.  0.
        -11    1    4    4    0    0  0.53545607290E+02 -0.21348439387E+02  0.26591161856E+02  0.63482106243E+02  0.00000000000E+00 0. -1.
         11    1    4    4    0    0 -0.12292058282E+02  0.43652814213E+02  0.29024114266E+02  0.53842939133E+02  0.00000000000E+00 0.  1.
        -11    1    3    3    0    0 -0.56392212221E+02  0.28097189621E+02  0.18220645009E+02  0.65586016561E+02  0.00000000000E+00 0.  1.
         11    1    3    3    0    0 -0.16382062684E+03 -0.30362009857E+02 -0.54925129358E+02  0.17543038293E+03  0.00000000000E+00 0. -1.
         21    1    1    2  503  502 -0.23478708366E+03  0.11613418890E+03 -0.15193387592E+03  0.30281351875E+03  0.00000000000E+00 0. -1.
          2    1    1    2  501    0  0.41374637371E+03 -0.13617374349E+03 -0.23765433206E+04  0.24161306887E+04  0.00000000000E+00 0. -1.
<scales pt_clust_5="13000.00000" pt_clust_6="13000.00000" pt_clust_7="13000.00000" pt_clust_8="13000.00000" pt_clust_9="345.95676" pt_clust_10="13000.00000"></scales>
<clustering>
<clus scale="   90.790">  7  8 -1 -1</clus>
<clus scale="   92.048">  5  6 -1 -1</clus>
<clus scale="  238.205">  1  7  2 -1</clus>
<clus scale="  345.957">  2  9  1 -1</clus>
<clus scale="   88.371">  5 10 -1 -1</clus>
<clus scale="  345.957">  2  5  1 -1</clus>
</clustering>
</event>
<event>
10    2  0.5921424E-006  0.2308446E+03  0.7546771E-02  0.1162937E+00
         21   -1    0    0  501  502  0.00000000000E+00  0.00000000000E+00  0.12892254492E+03  0.12892254492E+03  0.00000000000E+00 0. -1.
          2   -1    0    0  503    0 -0.00000000000E+00 -0.00000000000E+00 -0.40588441560E+03  0.40588441560E+03  0.00000000000E+00 0. -1.
         23    2    1    2    0    0 -0.49508532820E+02 -0.60970389526E+01 -0.50221133423E+02  0.11499843772E+03  0.90632277530E+02 0.  0.
         23    2    1    2    0    0 -0.26884673040E+02 -0.64729762150E+02 -0.25080437893E+03  0.27645817744E+03  0.92809264772E+02 0.  0.
        -11    1    4    4    0    0 -0.52118272744E+02 -0.62732027995E+02 -0.22885948332E+03  0.24295737239E+03  0.00000000000E+00 0. -1.
         11    1    4    4    0    0  0.25233599703E+02 -0.19977341544E+01 -0.21944895613E+02  0.33500805053E+02  0.00000000000E+00 0.  1.
        -13    1    3    3    0    0 -0.46139338923E+02 -0.44776698856E+02 -0.35734380912E+02  0.73557714319E+02  0.00000000000E+00 0. -1.
         13    1    3    3    0    0 -0.33691938970E+01  0.38679659904E+02 -0.14486752510E+02  0.41440723402E+02  0.00000000000E+00 0.  1.
         21    1    1    2  503  502  0.45899310410E+02  0.10813317240E+01  0.45119542690E+02  0.64371492968E+02  0.00000000000E+00 0. -1.
          2    1    1    2  501    0  0.30493895450E+02  0.69745469378E+02 -0.21055901012E+02  0.78978852397E+02  0.00000000000E+00 0. -1.
<scales pt_clust_5="13000.00000" pt_clust_6="13000.00000" pt_clust_7="13000.00000" pt_clust_8="13000.00000" pt_clust_9="45.91205" pt_clust_10="13000.00000"></scales>
<clustering>
<clus scale="   45.912">  1  9  2 -1</clus>
<clus scale="   90.632">  7  8 -1 -1</clus>
<clus scale="   92.809">  5  6 -1 -1</clus>
<clus scale="   85.250">  5 10 -1 -1</clus>
<clus scale="   95.468">  2  7  1 -1</clus>
<clus scale="   45.912">  1  5  2 -1</clus>
</clustering>
</event>
<event>
10    2  0.5921424E-006  0.3459578E+03  0.7546771E-02  0.1073612E+00
          1   -1    0    0  503    0 -0.00000000000E+00  0.00000000000E+00  0.82953197567E+03  0.82953197567E+03  0.00000000000E+00 0. -1.
         21   -1    0    0  501  502  0.00000000000E+00 -0.00000000000E+00 -0.25954571877E+03  0.25954571877E+03  0.00000000000E+00 0.  1.
         23    2    1    2    0    0 -0.20546067181E+03 -0.13838081325E+03  0.58980332365E+03  0.64883732293E+03  0.10843695814E+03 0.  0.
         23    2    1    2    0    0  0.55168400241E+02 -0.31439225346E+02  0.21767253523E+02  0.11389853247E+03  0.92016765307E+02 0.  0.
        -13    1    4    4    0    0 -0.25308852420E+02 -0.58776354744E+01 -0.23341522734E+01  0.26087025059E+02  0.00000000000E+00 0.  1.
         13    1    4    4    0    0  0.80477252661E+02 -0.25561589871E+02  0.24101405796E+02  0.87811507412E+02  0.00000000000E+00 0. -1.
        -13    1    3    3    0    0 -0.28027384844E+02 -0.69069049911E+02  0.11278824981E+03  0.13519340684E+03  0.00000000000E+00 0.  1.
         13    1    3    3    0    0 -0.17743328697E+03 -0.69311763342E+02  0.47701507384E+03  0.51364391609E+03  0.00000000000E+00 0. -1.
         21    1    1    2  503  502  0.41778681186E+02 -0.29557982967E+02 -0.81134725824E+02  0.95926932054E+02  0.00000000000E+00 0. -1.
          1    1    1    2  501    0  0.10851359039E+03  0.19937802157E+03  0.39550405542E+02  0.23041490698E+03  0.00000000000E+00 0. -1.
<scales pt_clust_5="13000.00000" pt_clust_6="13000.00000" pt_clust_7="13000.00000" pt_clust_8="13000.00000" pt_clust_9="51.17746" pt_clust_10="13000.00000"></scales>
<clustering>
<clus scale="   51.177">  2  9  1 -1</clus>
<clus scale="   92.017">  5  6 -1 -1</clus>
<clus scale="  108.437">  7  8 -1 -1</clus>
<clus scale="  225.444">  5 10 -1 -1</clus>
<clus scale="  267.673">  1  7  2 -1</clus>
<clus scale="   51.177">  2  5  1 -1</clus>
</clustering>
</event>
<event>
10    2  0.5921424E-006  0.3202043E+03  0.7546771E-02  0.1115135E+00
         -3   -1    0    0    0  501 -0.00000000000E+00  0.00000000000E+00  0.27365948078E+03  0.27365948078E+03  0.00000000000E+00 0.  1.
         21   -1    0    0  503  502  0.00000000000E+00 -0.00000000000E+00 -0.34742691506E+03  0.34742691506E+03  0.00000000000E+00 0. -1.
         23    2    1    2    0    0 -0.10453594842E+01 -0.13696724097E+02  0.45913764090E+02  0.12111507473E+03  0.11122991759E+03 0.  0.
         23    2    1    2    0    0  0.47553434202E+02  0.16853610116E+03  0.57603898431E+02  0.20600107293E+03  0.91937404983E+02 0.  0.
        -13    1    3    3    0    0  0.17744702867E+02 -0.40496840122E+02 -0.19227005337E+02  0.48213548656E+02  0.00000000000E+00 0.  1.
         13    1    3    3    0    0 -0.18790062351E+02  0.26800116025E+02  0.65140769427E+02  0.72901526072E+02  0.00000000000E+00 0. -1.
        -13    1    4    4    0    0  0.43733350777E+02  0.81867289396E+02 -0.13550582430E+02  0.93800198974E+02  0.00000000000E+00 0.  1.
         13    1    4    4    0    0  0.38200834246E+01  0.86668811768E+02  0.71154480861E+02  0.11220087396E+03  0.00000000000E+00 0. -1.
         21    1    1    2  503  501 -0.45602851022E+02 -0.33033766909E+02 -0.16163153183E+03  0.17115958010E+03  0.00000000000E+00 0. -1.
         -3    1    1    2    0  502 -0.90522369577E+00 -0.12180561016E+03 -0.15653564970E+02  0.12281066807E+03  0.00000000000E+00 0.  1.
<scales pt_clust_5="13000.00000" pt_clust_6="13000.00000" pt_clust_7="13000.00000" pt_clust_8="13000.00000" pt_clust_9="56.31030" pt_clust_10="13000.00000"></scales>
<clustering>
<clus scale="   56.310">  2  9  1 -1</clus>
<clus scale="   91.937">  7  8 -1 -1</clus>
<clus scale="  111.230">  5  6 -1 -1</clus>
<clus scale="  113.602">  1  5  2 -1</clus>
<clus scale="  143.964">  7 10 -1 -1</clus>
<clus scale="   56.310">  2  5  1 -1</clus>
</clustering>
</event>
<event>
10    2  0.5921424E-006  0.1653062E+03  0.7546771E-02  0.1206147E+00
          2   -1    0    0  503    0 -0.00000000000E+00  0.00000000000E+00  0.50143236051E+03  0.50143236051E+03  0.00000000000E+00 0. -1.
         21   -1    0    0  501  502  0.00000000000E+00 -0.00000000000E+00 -0.89792266459E+02  0.89792266459E+02  0.00000000000E+00 0. -1.
         23    2    1    2    0    0 -0.22260166309E+02 -0.24736268846E+02  0.35328645165E+03  0.36679331526E+03  0.92836529442E+02 0.  0.
         23    2    1    2    0    0 -0.24196268025E+02  0.44224648939E+02  0.99217474912E+02  0.14569086259E+03  0.94023620187E+02 0.  0.
        -11    1    3    3    0    0  0.13927686835E+00  0.33906601811E+02  0.91353619905E+02  0.97443116300E+02  0.00000000000E+00 0.  1.
         11    1    3    3    0    0 -0.22399443177E+02 -0.58642870658E+02  0.26193283175E+03  0.26935019896E+03  0.00000000000E+00 0. -1.
        -13    1    4    4    0    0  0.22117522155E+02  0.31970649041E+02  0.39750153833E+01  0.39078228384E+02  0.00000000000E+00 0.  1.
         13    1    4    4    0    0 -0.46313790180E+02  0.12253999898E+02  0.95242459529E+02  0.10661263420E+03  0.00000000000E+00 0. -1.
         21    1    1    2  503  502  0.14667519674E+02 -0.30159775852E+02 -0.17130651950E+02  0.37659095170E+02  0.00000000000E+00 0.  1.
          2    1    1    2  501    0  0.31788914659E+02  0.10671395760E+02 -0.23733180565E+02  0.41081353950E+02  0.00000000000E+00 0. -1.
<scales pt_clust_5="13000.00000" pt_clust_6="13000.00000" pt_clust_7="13000.00000" pt_clust_8="13000.00000" pt_clust_9="33.53727" pt_clust_10="13000.00000"></scales>
<clustering>
<clus scale="   33.537">  2  9  1 -1</clus>
<clus scale="   92.837">  5  6 -1 -1</clus>
<clus scale="   94.024">  7  8 -1 -1</clus>
<clus scale="   39.722">  7 10 -1 -1</clus>
<clus scale="   99.146">  1  5  2 -1</clus>
<clus scale="   33.537">  2  5  1 -1</clus>
</clustering>
</event>
<event>
10    2  0.5921424E-006  0.3751392E+03  0.7546771E-02  0.1073464E+00
         21   -1    0    0  503  502  0.00000000000E+00  0.00000000000E+00  0.11886703772E+03  0.11886703772E+03  0.00000000000E+00 0.  1.
          2   -1    0    0  502    0 -0.00000000000E+00 -0.00000000000E+00 -0.93862600005E+03  0.93862600005E+03  0.00000000000E+00 0. -1.
         23    2    1    2    0    0  0.16712910961E+03 -0.78982068536E+02 -0.49432871916E+03  0.53611439131E+03  0.94273281231E+02 0.  0.
         23    2    1    2    0    0 -0.19818461934E+03  0.16260718734E+03 -0.29625818418E+03  0.40183599019E+03  0.89358886522E+02 0.  0.
        -13    1    3    3    0    0  0.79090476737E+02 -0.89719131055E+01 -0.11077302071E+03  0.13640550155E+03  0.00000000000E+00 0.  1.
         13    1    3    3    0    0  0.88038632872E+02 -0.70010155431E+02 -0.38355569845E+03  0.39970888976E+03  0.00000000000E+00 0. -1.
        -13    1    4    4    0    0 -0.30419425067E+02  0.59691323721E+02 -0.12094732706E+03  0.13826297940E+03  0.00000000000E+00 0. -1.
         13    1    4    4    0    0 -0.16776519427E+03  0.10291586362E+03 -0.17531085712E+03  0.26357301079E+03  0.00000000000E+00 0.  1.
         21    1    1    2  503  501  0.22914948696E+02  0.13898249548E+01 -0.25138497145E+02  0.34043656176E+02  0.00000000000E+00 0. -1.
          2    1    1    2  501    0  0.81405610358E+01 -0.85014943759E+02 -0.40335618574E+01  0.85499000097E+02  0.00000000000E+00 0. -1.
<scales pt_clust_5="13000.00000" pt_clust_6="13000.00000" pt_clust_7="13000.00000" pt_clust_8="13000.00000" pt_clust_9="22.95706" pt_clust_10="13000.00000"></scales>
<clustering>
<clus scale="   22.957">  1  9  2 -1</clus>
<clus scale="   89.359">  7  8 -1 -1</clus>
<clus scale="   86.077">  7 10 -1 -1</clus>
<clus scale="   94.273">  5  6 -1 -1</clus>
<clus scale="  210.794">  2  5  1 -1</clus>
<clus scale="   22.957">  1  5  2 -1</clus>
</clustering>
</event>
<event>
10    2  0.5921424E-006  0.2770946E+03  0.7546771E-02  0.1120929E+00
         21   -1    0    0  503  502  0.00000000000E+00  0.00000000000E+00  0.48697377083E+03  0.48697377083E+03  0.00000000000E+00 0.  1.
          1   -1    0    0  502    0 -0.00000000000E+00 -0.00000000000E+00 -0.39506209885E+03  0.39506209885E+03  0.00000000000E+00 0. -1.
         23    2    1    2    0    0  0.12317277259E+03  0.21807898931E+02 -0.27424737472E+03  0.31466975507E+03  0.90323395931E+02 0.  0.
         23    2    1    2    0    0 -0.10888953124E+03 -0.15625020610E+02 -0.30192574823E+02  0.16079794539E+03  0.11332835649E+03 0.  0.
        -11    1    3    3    0    0  0.45801931181E+02  0.46173285343E+02 -0.73442679340E+02  0.98100032252E+02  0.00000000000E+00 0.  1.
         11    1    3    3    0    0  0.77370841411E+02 -0.24365386412E+02 -0.20080469538E+03  0.21656972282E+03  0.00000000000E+00 0. -1.
        -13    1    4    4    0    0 -0.25877266587E+02  0.36102106275E+02  0.22398157350E+02  0.49746079807E+02  0.00000000000E+00 0.  1.
         13    1    4    4    0    0 -0.83012264654E+02 -0.51727126884E+02 -0.52590732173E+02  0.11105186558E+03  0.00000000000E+00 0. -1.
         21    1    1    2  503  501 -0.27354489100E+02 -0.41020913553E+02  0.28307251610E+03  0.28733435714E+03  0.00000000000E+00 0.  1.
          1    1    1    2  501    0  0.13071247749E+02  0.34838035232E+02  0.11327910542E+03  0.11923381207E+03  0.00000000000E+00 0. -1.
<scales pt_clust_5="13000.00000" pt_clust_6="13000.00000" pt_clust_7="13000.00000" pt_clust_8="13000.00000" pt_clust_9="49.30500" pt_clust_10="13000.00000"></scales>
<clustering>
<clus scale="   49.305">  1  9  2 -1</clus>
<clus scale="   90.323">  5  6 -1 -1</clus>
<clus scale="  113.328">  7  8 -1 -1</clus>
<clus scale="   11.521">  7 10 -1 -1</clus>
<clus scale="  151.577">  2  5  1 -1</clus>
<clus scale="   49.305">  1  5  2 -1</clus>
</clustering>
</event>
<event>
10    2  0.5921424E-006  0.1800551E+03  0.7546771E-02  0.1183330E+00
         21   -1    0    0  503  502  0.00000000000E+00  0.00000000000E+00  0.55787048944E+02  0.55787048944E+02  0.00000000000E+00 0.  1.
         -1   -1    0    0    0  501 -0.00000000000E+00 -0.00000000000E+00 -0.51926624281E+03  0.51926624281E+03  0.00000000000E+00 0.  1.
         23    2    1    2    0    0  0.12296275059E+02 -0.13398007829E+01 -0.15078405256E+03  0.19713660024E+03  0.12638835074E+03 0.  0.
         23    2    1    2    0    0 -0.27535423569E+02 -0.26562439459E+02 -0.25027398373E+03  0.26876148768E+03  0.90177090147E+02 0.  0.
        -13    1    3    3    0    0 -0.40107472364E+02  0.29584487222E+01 -0.30583622733E+01  0.40332559280E+02  0.00000000000E+00 0.  1.
         13    1    3    3    0    0  0.52403747422E+02 -0.42982495050E+01 -0.14772569028E+03  0.15680404096E+03  0.00000000000E+00 0. -1.
        -13    1    4    4    0    0 -0.48194378701E+02 -0.45034664687E+02 -0.13567581290E+03  0.15086001911E+03  0.00000000000E+00 0.  1.
         13    1    4    4    0    0  0.20658955132E+02  0.18472225228E+02 -0.11459817083E+03  0.11790146856E+03  0.00000000000E+00 0. -1.
         21    1    1    2  503  501 -0.26185320644E+02  0.15171394705E+02 -0.58219765727E+02  0.65615420108E+02  0.00000000000E+00 0. -1.
         -1    1    1    2    0  502  0.41424469155E+02  0.12730845538E+02 -0.42013918484E+01  0.43539783720E+02  0.00000000000E+00 0.  1.
<scales pt_clust_5="13000.00000" pt_clust_6="13000.00000" pt_clust_7="13000.00000" pt_clust_8="13000.00000" pt_clust_9="30.26290" pt_clust_10="13000.00000"></scales>
<clustering>
<clus scale="   30.263">  1  9  2 -1</clus>
<clus scale="   90.177">  7  8 -1 -1</clus>
<clus scale="   36.542">  7 10 -1 -1</clus>
<clus scale="  126.388">  5  6 -1 -1</clus>
<clus scale="  126.506">  2  5  1 -1</clus>
<clus scale="   30.263">  1  5  2 -1</clus>
</clustering>
</event>
<event>
10    2  0.5921424E-006  0.2719494E+03  0.7546771E-02  0.1113822E+00
         21   -1    0    0  503  502  0.00000000000E+00  0.00000000000E+00  0.19763247239E+03  0.19763247239E+03  0.00000000000E+00 0.  1.
         -3   -1    0    0    0  501 -0.00000000000E+00 -0.00000000000E+00 -0.51122636671E+03  0.51122636671E+03  0.00000000000E+00 0.  1.
         23    2    1    2    0    0  0.75979998506E+02 -0.15105449007E+03 -0.33957111156E+03  0.39041651891E+03  0.92336879364E+02 0.  0.
         23    2    1    2    0    0 -0.54177955680E+02  0.96076877494E+00 -0.43287368976E+02  0.11475548629E+03  0.91426754085E+02 0.  0.
        -13    1    4    4    0    0 -0.15731239385E+02 -0.40593886132E+02 -0.74581457201E-01  0.43535514770E+02  0.00000000000E+00 0. -1.
         13    1    4    4    0    0 -0.38446716294E+02  0.41554654907E+02 -0.43212787519E+02  0.71219971521E+02  0.00000000000E+00 0.  1.
        -13    1    3    3    0    0  0.55096397014E+02 -0.16006554163E+03 -0.30873906955E+03  0.35210283107E+03  0.00000000000E+00 0.  1.
         13    1    3    3    0    0  0.20883601492E+02  0.90110515614E+01 -0.30832042012E+02  0.38313687843E+02  0.00000000000E+00 0. -1.
         21    1    1    2  503  501 -0.20724274168E+02 -0.28828204403E+01  0.43881812394E+02  0.48615014682E+02  0.00000000000E+00 0. -1.
         -3    1    1    2    0  502 -0.10777686583E+01  0.15297654174E+03  0.25382773817E+02  0.15507181921E+03  0.00000000000E+00 0.  1.
<scales pt_clust_5="13000.00000" pt_clust_6="13000.00000" pt_clust_7="13000.00000" pt_clust_8="13000.00000" pt_clust_9="20.92382" pt_clust_10="13000.00000"></scales>
<clustering>
<clus scale="   20.924">  1  9  2 -1</clus>
<clus scale="   91.427">  5  6 -1 -1</clus>
<clus scale="   92.337">  7  8 -1 -1</clus>
<clus scale="  151.853">  5 10 -1 -1</clus>
<clus scale="  191.693">  2  7  1 -1</clus>
<clus scale="   20.924">  1  5  2 -1</clus>
</clustering>
</event>
<event>
10    2  0.5921424E-006  0.2471083E+03  0.7546771E-02  0.1136260E+00
          1   -1    0    0  503    0 -0.00000000000E+00  0.00000000000E+00  0.20588269013E+03  0.20588269013E+03  0.00000000000E+00 0. -1.
         21   -1    0    0  501  502  0.00000000000E+00 -0.00000000000E+00 -0.25324091772E+03  0.25324091772E+03  0.00000000000E+00 0. -1.
         23    2    1    2    0    0  0.86447872431E+01 -0.12767091927E+03  0.29395664363E+02  0.16001080690E+03  0.91459046939E+02 0.  0.
         23    2    1    2    0    0  0.71350365915E+01  0.97769938843E+02 -0.12680395375E+03  0.17809112453E+03  0.77635921205E+02 0.  0.
        -13    1    3    3    0    0 -0.40858395299E+02 -0.58712702375E+02  0.50830093677E+01  0.71710716569E+02  0.00000000000E+00 0.  1.
         13    1    3    3    0    0  0.49503182542E+02 -0.68958216893E+02  0.24312654995E+02  0.88300090327E+02  0.00000000000E+00 0. -1.
        -13    1    4    4    0    0 -0.26999827854E+02  0.83548989306E+02 -0.83804336530E+02  0.12137788571E+03  0.00000000000E+00 0. -1.
         13    1    4    4    0    0  0.34134864446E+02  0.14220949538E+02 -0.42999617218E+02  0.56713238819E+02  0.00000000000E+00 0.  1.
         21    1    1    2  503  502  0.21180481302E+02  0.48747400378E+02 -0.35180241293E+01  0.53266296339E+02  0.00000000000E+00 0. -1.
          1    1    1    2  501    0 -0.36960305137E+02 -0.18846419954E+02  0.53568085923E+02  0.67755380084E+02  0.00000000000E+00 0. -1.
<scales pt_clust_5="13000.00000" pt_clust_6="13000.00000" pt_clust_7="13000.00000" pt_clust_8="13000.00000" pt_clust_9="53.15002" pt_clust_10="13000.00000"></scales>
<clustering>
<clus scale="   53.150">  2  9  1 -1</clus>
<clus scale="   77.636">  7  8 -1 -1</clus>
<clus scale="   40.208">  7 10 -1 -1</clus>
<clus scale="   91.459">  5  6 -1 -1</clus>
<clus scale="  146.522">  1  5  2 -1</clus>
<clus scale="   53.150">  2  5  1 -1</clus>
</clustering>
</event>
<event>
10    2  0.5921424E-006  0.1724263E+03  0.7546771E-02  0.1189605E+00
          2   -1    0    0  502    0 -0.00000000000E+00  0.00000000000E+00  0.28691223502E+03  0.28691223502E+03  0.00000000000E+00 0. -1.
         21   -1    0    0  503  502  0.00000000000E+00 -0.00000000000E+00 -0.24984608212E+03  0.24984608212E+03  0.00000000000E+00 0. -1.
         23    2    1    2    0    0 -0.19975830520E+02 -0.85460653458E+02  0.27617928089E+02  0.12830502738E+03  0.89425236956E+02 0.  0.
         23    2    1    2    0    0 -0.86295067296E+02  0.10318906157E+03  0.10425911593E+03  0.19199859427E+03  0.88874495099E+02 0.  0.
        -11    1    4    4    0    0 -0.64316764676E+02  0.11699888315E+03  0.75999339848E+02  0.15362709570E+03  0.00000000000E+00 0. -1.
         11    1    4    4    0    0 -0.21978302619E+02 -0.13809821577E+02  0.28259776085E+02  0.38371498569E+02  0.00000000000E+00 0.  1.
        -13    1    3    3    0    0 -0.27700126771E+02  0.66016307838E+01  0.21566967298E+02  0.35721318992E+02  0.00000000000E+00 0.  1.
         13    1    3    3    0    0  0.77242962510E+01 -0.92062284242E+02  0.60509607912E+01  0.92583708388E+02  0.00000000000E+00 0. -1.
         21    1    1    2  503  501  0.13354636756E+03 -0.20763935026E+02 -0.11884692969E+03  0.17997323686E+03  0.00000000000E+00 0. -1.
          2    1    1    2  501    0 -0.27275469746E+02  0.30355269147E+01  0.24036038579E+02  0.36481458634E+02  0.00000000000E+00 0. -1.
<scales pt_clust_5="13000.00000" pt_clust_6="13000.00000" pt_clust_7="13000.00000" pt_clust_8="13000.00000" pt_clust_9="134.79344" pt_clust_10="13000.00000"></scales>
<clustering>
<clus scale="   88.874">  5  6 -1 -1</clus>
<clus scale="   27.444">  5 10 -1 -1</clus>
<clus scale="   89.425">  7  8 -1 -1</clus>
<clus scale="  125.297">  1  7  2 -1</clus>
<clus scale="  134.793">  2  9  1 -1</clus>
<clus scale="  134.793">  2  5  1 -1</clus>
</clustering>
</event>
<event>
10    2  0.5921424E-006  0.1853011E+03  0.7546771E-02  0.1177665E+00
         21   -1    0    0  501  502  0.00000000000E+00  0.00000000000E+00  0.52690950699E+03  0.52690950699E+03  0.00000000000E+00 0. -1.
         -3   -1    0    0    0  501 -0.00000000000E+00 -0.00000000000E+00 -0.10031217444E+03  0.10031217444E+03  0.00000000000E+00 0.  1.
         23    2    1    2    0    0  0.87356148665E+02  0.56103727575E+02  0.19365431673E+02  0.13974170153E+03  0.91509552752E+02 0.  0.
         23    2    1    2    0    0 -0.63139953380E+02 -0.42804246564E+02  0.65601871400E+02  0.13425949220E+03  0.88899653987E+02 0.  0.
        -11    1    3    3    0    0  0.91441758022E+02  0.35890030397E+02  0.43981117000E+02  0.10762912266E+03  0.00000000000E+00 0. -1.
         11    1    3    3    0    0 -0.40856093577E+01  0.20213697179E+02 -0.24615685327E+02  0.32112578868E+02  0.00000000000E+00 0.  1.
        -13    1    4    4    0    0 -0.15035542774E+02  0.27856470544E+02  0.17181048677E+02  0.36017203269E+02  0.00000000000E+00 0. -1.
         13    1    4    4    0    0 -0.48104410606E+02 -0.70660717108E+02  0.48420822723E+02  0.98242288935E+02  0.00000000000E+00 0.  1.
         21    1    1    2  503  502 -0.49658189893E+02  0.12973875283E+02  0.23345095131E+03  0.23902636660E+03  0.00000000000E+00 0. -1.
         -3    1    1    2    0  503  0.25441994609E+02 -0.26273356294E+02  0.10817907817E+03  0.11419412110E+03  0.00000000000E+00 0.  1.
<scales pt_clust_5="13000.00000" pt_clust_6="13000.00000" pt_clust_7="13000.00000" pt_clust_8="13000.00000" pt_clust_9="51.32502" pt_clust_10="13000.00000"></scales>
<clustering>
<clus scale="   51.325">  1  9  2 -1</clus>
<clus scale="   88.900">  7  8 -1 -1</clus>
<clus scale="   22.264">  7 10 -1 -1</clus>
<clus scale="   91.510">  5  6 -1 -1</clus>
<clus scale="  131.810">  2  5  1 -1</clus>
<clus scale="   51.325">  1  5  2 -1</clus>
</clustering>
</event>
<event>
10    2  0.5921424E-006  0.1686436E+03  0.7546771E-02  0.1197896E+00
         21   -1    0    0  503  502  0.00000000000E+00  0.00000000000E+00  0.16589540656E+03  0.16589540656E+03  0.00000000000E+00 0.  1.
         -4   -1    0    0    0  501 -0.00000000000E+00 -0.00000000000E+00 -0.20331627799E+03  0.20331627799E+03  0.00000000000E+00 0.  1.
         23    2    1    2    0    0  0.24101915724E+02 -0.13233570585E+02  0.12163749441E+02  0.10245634863E+03  0.97945478928E+02 0.  0.
         23    2    1    2    0    0  0.15420223063E+02  0.21214501699E+02 -0.18377812233E+02  0.82050149673E+02  0.75542337251E+02 0.  0.
        -11    1    3    3    0    0 -0.36136738013E+02  0.63168309102E+01 -0.45247763841E+01  0.36962681022E+02  0.00000000000E+00 0. -1.
         11    1    3    3    0    0  0.60238653738E+02 -0.19550401495E+02  0.16688525825E+02  0.65493667609E+02  0.00000000000E+00 0.  1.
        -13    1    4    4    0    0 -0.16852057322E+02  0.23974721651E+02  0.17165512186E+02  0.33962242606E+02  0.00000000000E+00 0.  1.
         13    1    4    4    0    0  0.32272280385E+02 -0.27602199516E+01 -0.35543324419E+02  0.48087907068E+02  0.00000000000E+00 0. -1.
         21    1    1    2  503  501  0.54217515752E+02 -0.14973236974E+01  0.39510829936E+02  0.67103551880E+02  0.00000000000E+00 0.  1.
         -4    1    1    2    0  502 -0.93739654539E+02 -0.64836074168E+01 -0.70717638578E+02  0.11760163436E+03  0.00000000000E+00 0.  1.
<scales pt_clust_5="13000.00000" pt_clust_6="13000.00000" pt_clust_7="13000.00000" pt_clust_8="13000.00000" pt_clust_9="54.23819" pt_clust_10="13000.00000"></scales>
<clustering>
<clus scale="   54.238">  1  9  2 -1</clus>
<clus scale="   75.542">  7  8 -1 -1</clus>
<clus scale="   82.731">  7 10 -1 -1</clus>
<clus scale="   97.945">  5  6 -1 -1</clus>
<clus scale="  111.634">  2  5  1 -1</clus>
<clus scale="   54.238">  1  5  2 -1</clus>
</clustering>
</event>
<event>
10    2  0.5921424E-006  0.4055676E+03  0.7546771E-02  0.1092038E+00
         -1   -1    0    0    0  501 -0.00000000000E+00  0.00000000000E+00  0.28491676027E+03  0.28491676027E+03  0.00000000000E+00 0.  1.
         21   -1    0    0  503  502  0.00000000000E+00 -0.00000000000E+00 -0.61620244313E+03  0.61620244313E+03  0.00000000000E+00 0.  1.
         23    2    1    2    0    0 -0.44816321332E+02 -0.50189867905E+00  0.54278473276E+02  0.11501703337E+03  0.90961589389E+02 0.  0.
         23    2    1    2    0    0  0.33042747635E+02 -0.30881477919E+01 -0.17748691959E+03  0.20261214543E+03  0.91916891935E+02 0.  0.
        -11    1    3    3    0    0  0.27178495326E+01 -0.33618914667E+02 -0.26012465012E+01  0.33828754231E+02  0.00000000000E+00 0. -1.
         11    1    3    3    0    0 -0.47534170865E+02  0.33117015988E+02  0.56879719777E+02  0.81188279140E+02  0.00000000000E+00 0.  1.
        -11    1    4    4    0    0 -0.12969777596E+00 -0.43683356112E+02 -0.99209688024E+02  0.10840117444E+03  0.00000000000E+00 0.  1.
         11    1    4    4    0    0  0.33172445411E+02  0.40595208320E+02 -0.78277231562E+02  0.94210970986E+02  0.00000000000E+00 0. -1.
         21    1    1    2  503  501 -0.24121917078E+03  0.16074120728E+02 -0.22415129040E+03  0.32967994585E+03  0.00000000000E+00 0.  1.
         -1    1    1    2    0  502  0.25299274448E+03 -0.12484074257E+02  0.16074053844E+02  0.25381007875E+03  0.00000000000E+00 0.  1.
<scales pt_clust_5="13000.00000" pt_clust_6="13000.00000" pt_clust_7="13000.00000" pt_clust_8="13000.00000" pt_clust_9="253.52851" pt_clust_10="13000.00000"></scales>
<clustering>
<clus scale="   90.962">  5  6 -1 -1</clus>
<clus scale="   91.917">  7  8 -1 -1</clus>
<clus scale="  101.404">  1  5  2 -1</clus>
<clus scale="  223.164">  7 10 -1 -1</clus>
<clus scale="  253.529">  2  9  1 -1</clus>
<clus scale="  253.529">  2  5  1 -1</clus>
</clustering>
</event>
<event>
10    2  0.5921424E-006  0.2571533E+03  0.7546771E-02  0.1130708E+00
         -1   -1    0    0    0  501 -0.00000000000E+00  0.00000000000E+00  0.60381999352E+03  0.60381999352E+03  0.00000000000E+00 0.  1.
         21   -1    0    0  501  502  0.00000000000E+00 -0.00000000000E+00 -0.43467078965E+03  0.43467078965E+03  0.00000000000E+00 0.  1.
         23    2    1    2    0    0 -0.99103143082E+02  0.44470659184E+01  0.15029534149E+02  0.13601531402E+03  0.91831744990E+02 0.  0.
         23    2    1    2    0    0  0.73509721298E+02 -0.30603118310E+02  0.48932326915E+03  0.50417569647E+03  0.91736804003E+02 0.  0.
        -11    1    4    4    0    0  0.38844722718E+02  0.31429259251E+02  0.22357567038E+03  0.22909122900E+03  0.00000000000E+00 0. -1.
         11    1    4    4    0    0  0.34664998580E+02 -0.62032377561E+02  0.26574759877E+03  0.27508446747E+03  0.00000000000E+00 0.  1.
        -13    1    3    3    0    0 -0.38615563042E+02  0.47048691994E+02  0.20484982689E+01  0.60901046564E+02  0.00000000000E+00 0. -1.
         13    1    3    3    0    0 -0.60487580040E+02 -0.42601626076E+02  0.12981035880E+02  0.75114267459E+02  0.00000000000E+00 0.  1.
         21    1    1    2  503  502 -0.13918889247E+02  0.63228299927E+02 -0.33790515905E+03  0.34405152216E+03  0.00000000000E+00 0.  1.
         -1    1    1    2    0  503  0.39512311031E+02 -0.37072247536E+02  0.27015596182E+01  0.54248250523E+02  0.00000000000E+00 0.  1.
<scales pt_clust_5="13000.00000" pt_clust_6="13000.00000" pt_clust_7="13000.00000" pt_clust_8="13000.00000" pt_clust_9="64.74221" pt_clust_10="13000.00000"></scales>
<clustering>
<clus scale="   64.742">  2  9  1 -1</clus>
<clus scale="   91.737">  5  6 -1 -1</clus>
<clus scale="   40.750">  5 10 -1 -1</clus>
<clus scale="   91.832">  7  8 -1 -1</clus>
<clus scale="  148.882">  1  7  2 -1</clus>
<clus scale="   64.742">  2  5  1 -1</clus>
</clustering>
</event>
<event>
10    2  0.5921424E-006  0.3633053E+03  0.7546771E-02  0.1092522E+00
          2   -1    0    0  503    0 -0.00000000000E+00  0.00000000000E+00  0.64947889352E+03  0.64947889352E+03  0.00000000000E+00 0. -1.
         21   -1    0    0  501  502  0.00000000000E+00 -0.00000000000E+00 -0.25301575484E+03  0.25301575484E+03  0.00000000000E+00 0. -1.
         23    2    1    2    0    0 -0.13189374966E+01  0.11049863958E+03  0.39919765509E+03  0.42221835008E+03  0.81840566767E+02 0.  0.
         23    2    1    2    0    0  0.13670167213E+03 -0.53525047033E+01  0.78184212719E+02  0.18207741782E+03  0.91232770921E+02 0.  0.
        -11    1    3    3    0    0 -0.36081788245E+02  0.37837514826E+02  0.10652856705E+03  0.11866721775E+03  0.00000000000E+00 0. -1.
         11    1    3    3    0    0  0.34762850749E+02  0.72661124752E+02  0.29266908805E+03  0.30355113233E+03  0.00000000000E+00 0.  1.
        -11    1    4    4    0    0  0.30574187022E+02  0.36510252257E+02  0.38663572013E+02  0.61340453477E+02  0.00000000000E+00 0.  1.
         11    1    4    4    0    0  0.10612748511E+03 -0.41862756961E+02  0.39520640706E+02  0.12073696434E+03  0.00000000000E+00 0. -1.
         21    1    1    2  503  502  0.13218546222E+02  0.30463155687E+02 -0.90898582787E+02  0.96774408659E+02  0.00000000000E+00 0. -1.
          2    1    1    2  501    0 -0.14860128086E+03 -0.13560929056E+03  0.99798536545E+01  0.20142447180E+03  0.00000000000E+00 0. -1.
<scales pt_clust_5="13000.00000" pt_clust_6="13000.00000" pt_clust_7="13000.00000" pt_clust_8="13000.00000" pt_clust_9="33.20744" pt_clust_10="13000.00000"></scales>
<clustering>
<clus scale="   33.207">  2  9  1 -1</clus>
<clus scale="   81.841">  5  6 -1 -1</clus>
<clus scale="   91.233">  7  8 -1 -1</clus>
<clus scale="  139.283">  1  5  2 -1</clus>
<clus scale="  158.513">  7 10 -1 -1</clus>
<clus scale="   33.207">  2  5  1 -1</clus>
</clustering>
</event>
<event>
10    2  0.5921424E-006  0.2308149E+03  0.7546771E-02  0.1160977E+00
         21   -1    0    0  503  502  0.00000000000E+00  0.00000000000E+00  0.18195208249E+03  0.18195208249E+03  0.00000000000E+00 0.  1.
          1   -1    0    0  502    0 -0.00000000000E+00 -0.00000000000E+00 -0.47759775342E+03  0.47759775342E+03  0.00000000000E+00 0. -1.
         23    2    1    2    0    0 -0.29374593089E+02  0.16405607973E+02 -0.97982401336E+02  0.13814357361E+03  0.91384272528E+02 0.  0.
         23    2    1    2    0    0  0.66286771569E+02 -0.15988292344E+02 -0.34311954594E+03  0.36178131709E+03  0.92223299698E+02 0.  0.
        -11    1    3    3    0    0  0.83041716906E+01  0.33126958122E+02 -0.89856594772E+02  0.96127843239E+02  0.00000000000E+00 0. -1.
         11    1    3    3    0    0 -0.37678764780E+02 -0.16721350148E+02 -0.81258065646E+01  0.42015730369E+02  0.00000000000E+00 0.  1.
        -13    1    4    4    0    0  0.59094542410E+02  0.18137016242E+02 -0.30010508088E+03  0.30640524779E+03  0.00000000000E+00 0. -1.
         13    1    4    4    0    0  0.71922291585E+01 -0.34125308586E+02 -0.43014465059E+02  0.55376069296E+02  0.00000000000E+00 0.  1.
         21    1    1    2  503  501 -0.14529708633E+02  0.14254100524E+02  0.12304768016E+03  0.12471977954E+03  0.00000000000E+00 0.  1.
          1    1    1    2  501    0 -0.22382469846E+02 -0.14671416153E+02  0.22408596181E+02  0.34905165680E+02  0.00000000000E+00 0. -1.
<scales pt_clust_5="13000.00000" pt_clust_6="13000.00000" pt_clust_7="13000.00000" pt_clust_8="13000.00000" pt_clust_9="20.35416" pt_clust_10="13000.00000"></scales>
<clustering>
<clus scale="   20.354">  1  9  2 -1</clus>
<clus scale="   91.384">  5  6 -1 -1</clus>
<clus scale="   92.223">  7  8 -1 -1</clus>
<clus scale="   30.524">  7 10 -1 -1</clus>
<clus scale="   99.948">  2  5  1 -1</clus>
<clus scale="   20.354">  1  5  2 -1</clus>
</clustering>
</event>
<event>
10    2  0.5921424E-006  0.2578342E+03  0.7546771E-02  0.1140828E+00
          1   -1    0    0  502    0 -0.00000000000E+00  0.00000000000E+00  0.74060598357E+03  0.74060598357E+03  0.00000000000E+00 0. -1.
         21   -1    0    0  503  502  0.00000000000E+00 -0.00000000000E+00 -0.41190607976E+03  0.41190607976E+03  0.00000000000E+00 0.  1.
         23    2    1    2    0    0  0.38377184053E+02 -0.56521473627E+02  0.31878517588E+03  0.33755023562E+03  0.87456777747E+02 0.  0.
         23    2    1    2    0    0 -0.53643745869E+02 -0.65568307804E+01  0.65144987695E+02  0.12439977883E+03  0.91163545617E+02 0.  0.
        -11    1    4    4    0    0 -0.34813095345E+02  0.37639314014E+02  0.55206362367E+02  0.75341967142E+02  0.00000000000E+00 0.  1.
         11    1    4    4    0    0 -0.18830650524E+02 -0.44196144795E+02  0.99386253283E+01  0.49057811685E+02  0.00000000000E+00 0. -1.
        -11    1    3    3    0    0  0.33485372284E+02  0.15189415473E+02  0.14267257393E+03  0.14733448969E+03  0.00000000000E+00 0. -1.
         11    1    3    3    0    0  0.48918117691E+01 -0.71710889100E+02  0.17611260194E+03  0.19021574593E+03  0.00000000000E+00 0.  1.
         21    1    1    2  503  501 -0.46706458794E+02 -0.75793080370E+02 -0.34877850965E+03  0.35996184953E+03  0.00000000000E+00 0.  1.
          1    1    1    2  501    0  0.61973020610E+02  0.13887138478E+03  0.29354824989E+03  0.33060019935E+03  0.00000000000E+00 0. -1.
<scales pt_clust_5="13000.00000" pt_clust_6="13000.00000" pt_clust_7="13000.00000" pt_clust_8="13000.00000" pt_clust_9="89.02856" pt_clust_10="13000.00000"></scales>
<clustering>
<clus scale="   87.457">  7  8 -1 -1</clus>
<clus scale="   89.029">  2  9  1 -1</clus>
<clus scale="   91.164">  5  6 -1 -1</clus>
<clus scale="  115.497">  1  7  2 -1</clus>
<clus scale="   98.999">  5 10 -1 -1</clus>
<clus scale="   89.029">  2  5  1 -1</clus>
</clustering>
</event>
<event>
10    2  0.5921424E-006  0.2591300E+03  0.7546771E-02  0.1140027E+00
          1   -1    0    0  502    0 -0.00000000000E+00  0.00000000000E+00  0.76873049993E+03  0.76873049993E+03  0.00000000000E+00 0. -1.
         21   -1    0    0  503  502  0.00000000000E+00 -0.00000000000E+00 -0.10898382610E+03  0.10898382610E+03  0.00000000000E+00 0. -1.
         23    2    1    2    0    0  0.20266522243E+02 -0.75264709186E+02  0.35928157966E+03  0.37713435414E+03  0.84092563361E+02 0.  0.
         23    2    1    2    0    0  0.46289053290E+02  0.72623977941E+02  0.36747318154E+03  0.38831091922E+03  0.91279308750E+02 0.  0.
        -11    1    3    3    0    0 -0.25724889920E+02 -0.11371967620E+01  0.57612749531E+02  0.63105404573E+02  0.00000000000E+00 0.  1.
         11    1    3    3    0    0  0.45991412163E+02 -0.74127512424E+02  0.30166883013E+03  0.31402894956E+03  0.00000000000E+00 0. -1.
        -13    1    4    4    0    0  0.17563374620E+02 -0.17545047678E+02  0.13587567007E+03  0.13812493816E+03  0.00000000000E+00 0. -1.
         13    1    4    4    0    0  0.28725678670E+02  0.90169025619E+02  0.23159751147E+03  0.25018598105E+03  0.00000000000E+00 0.  1.
         21    1    1    2  503  501 -0.18963978851E+02 -0.16351203032E+02 -0.53817253608E+02  0.59357317328E+02  0.00000000000E+00 0. -1.
          1    1    1    2  501    0 -0.47591596681E+02  0.18991934277E+02 -0.13190833764E+02  0.52911735349E+02  0.00000000000E+00 0. -1.
<scales pt_clust_5="13000.00000" pt_clust_6="13000.00000" pt_clust_7="13000.00000" pt_clust_8="13000.00000" pt_clust_9="25.03985" pt_clust_10="13000.00000"></scales>
<clustering>
<clus scale="   25.040">  2  9  1 -1</clus>
<clus scale="   84.093">  5  6 -1 -1</clus>
<clus scale="   91.279">  7  8 -1 -1</clus>
<clus scale="   60.183">  7 10 -1 -1</clus>
<clus scale="  115.990">  1  5  2 -1</clus>
<clus scale="   25.040">  2  5  1 -1</clus>
</clustering>
</event>
<event>
10    2  0.5921424E-006  0.3376807E+03  0.7546771E-02  0.1103719E+00
         21   -1    0    0  503  502  0.00000000000E+00  0.00000000000E+00  0.34962166374E+03  0.34962166374E+03  0.00000000000E+00 0. -1.
          1   -1    0    0  502    0 -0.00000000000E+00 -0.00000000000E+00 -0.21991323870E+03  0.21991323870E+03  0.00000000000E+00 0. -1.
         23    2    1    2    0    0 -0.27190786913E+02 -0.89187782691E+02 -0.70725468271E+02  0.14863683147E+03  0.91635235211E+02 0.  0.
         23    2    1    2    0    0 -0.76850887077E+02  0.17028004734E+02 -0.59061639541E+02  0.13142813063E+03  0.87115236708E+02 0.  0.
        -11    1    4    4    0    0 -0.49068570958E+02  0.52603185443E+02 -0.41085157568E+02  0.82842078360E+02  0.00000000000E+00 0. -1.
         11    1    4    4    0    0 -0.27782316119E+02 -0.35575180708E+02 -0.17976481973E+02  0.48586052273E+02  0.00000000000E+00 0.  1.
        -13    1    3    3    0    0  0.28484734828E+02 -0.35789726825E+02 -0.27606851774E+01  0.45824731828E+02  0.00000000000E+00 0.  1.
         13    1    3    3    0    0 -0.55675521741E+02 -0.53398055866E+02 -0.67964783093E+02  0.10281209964E+03  0.00000000000E+00 0. -1.
         21    1    1    2  503  501  0.22864928480E+02  0.63020337237E+01  0.45703113466E+02  0.51490728912E+02  0.00000000000E+00 0.  1.
          1    1    1    2  501    0  0.81176745509E+02  0.65857744233E+02  0.21379241938E+03  0.23797921143E+03  0.00000000000E+00 0. -1.
<scales pt_clust_5="13000.00000" pt_clust_6="13000.00000" pt_clust_7="13000.00000" pt_clust_8="13000.00000" pt_clust_9="23.71752" pt_clust_10="13000.00000"></scales>
<clustering>
<clus scale="   23.718">  1  9  2 -1</clus>
<clus scale="   87.115">  5  6 -1 -1</clus>
<clus scale="   91.635">  7  8 -1 -1</clus>
<clus scale="  121.046">  5 10 -1 -1</clus>
<clus scale="  129.591">  2  7  1 -1</clus>
<clus scale="   23.718">  1  5  2 -1</clus>
</clustering>
</event>
<event>
10    2  0.5921424E-006  0.2165276E+03  0.7546771E-02  0.1140123E+00
          1   -1    0    0  502    0 -0.00000000000E+00  0.00000000000E+00  0.18917982570E+03  0.18917982570E+03  0.00000000000E+00 0. -1.
         21   -1    0    0  503  502  0.00000000000E+00 -0.00000000000E+00 -0.32603314839E+03  0.32603314839E+03  0.00000000000E+00 0. -1.
         23    2    1    2    0    0 -0.64358199338E+02  0.15345424499E+03 -0.53162284147E+02  0.19646272007E+03  0.89895432553E+02 0.  0.
         23    2    1    2    0    0  0.33758611756E+02 -0.93199874242E+02  0.18444308119E+02  0.13546872533E+03  0.90474983363E+02 0.  0.
        -11    1    4    4    0    0  0.51731715600E+02 -0.54128533681E+02  0.42598003589E+02  0.86143243885E+02  0.00000000000E+00 0. -1.
         11    1    4    4    0    0 -0.17973103844E+02 -0.39071340561E+02 -0.24153695470E+02  0.49325481446E+02  0.00000000000E+00 0.  1.
        -11    1    3    3    0    0  0.11845138845E+02  0.74161479926E+02 -0.41676742819E+02  0.85890530974E+02  0.00000000000E+00 0.  1.
         11    1    3    3    0    0 -0.76203338183E+02  0.79292765063E+02 -0.11485541328E+02  0.11057218909E+03  0.00000000000E+00 0. -1.
         21    1    1    2  503  501 -0.18018243719E+02  0.13278950883E+02 -0.91842128053E+02  0.94530228650E+02  0.00000000000E+00 0. -1.
          1    1    1    2  501    0  0.48617831300E+02 -0.73533321630E+02 -0.10293218607E+02  0.88751300044E+02  0.00000000000E+00 0. -1.
<scales pt_clust_5="13000.00000" pt_clust_6="13000.00000" pt_clust_7="13000.00000" pt_clust_8="13000.00000" pt_clust_9="22.38275" pt_clust_10="13000.00000"></scales>
<clustering>
<clus scale="   22.383">  2  9  1 -1</clus>
<clus scale="   89.895">  7  8 -1 -1</clus>
<clus scale="   90.475">  5  6 -1 -1</clus>
<clus scale="   83.699">  5 10 -1 -1</clus>
<clus scale="  198.351">  1  7  2 -1</clus>
<clus scale="   22.383">  2  5  1 -1</clus>
</clustering>
</event>
<event>
10    2  0.5921424E-006  0.1651985E+03  0.7546771E-02  0.1207116E+00
         21   -1    0    0  503  502  0.00000000000E+00  0.00000000000E+00  0.27212796840E+03  0.27212796840E+03  0.00000000000E+00 0. -1.
          1   -1    0    0  502    0 -0.00000000000E+00 -0.00000000000E+00 -0.36564649167E+03  0.36564649167E+03  0.00000000000E+00 0. -1.
         23    2    1    2    0    0 -0.19089894001E+02 -0.11099280012E+02 -0.20175079636E+03  0.22385311169E+03  0.94441588886E+02 0.  0.
         23    2    1    2    0    0 -0.73677169390E+02  0.25823895270E+02 -0.69818082590E+02  0.13903550549E+03  0.91439095987E+02 0.  0.
        -11    1    3    3    0    0 -0.19836202057E+02  0.37129196514E+02 -0.13560440697E+03  0.14198805350E+03  0.00000000000E+00 0. -1.
         11    1    3    3    0    0  0.74630805579E+00 -0.48228476526E+02 -0.66146389393E+02  0.81865058196E+02  0.00000000000E+00 0.  1.
        -13    1    4    4    0    0 -0.91669194288E+02  0.36833192751E+02 -0.53363772883E+02  0.11228364763E+03  0.00000000000E+00 0.  1.
         13    1    4    4    0    0  0.17992024898E+02 -0.11009297481E+02 -0.16454309707E+02  0.26751857859E+02  0.00000000000E+00 0. -1.
         21    1    1    2  503  501  0.53890731588E+02 -0.60993682738E+02  0.19568136603E+03  0.21193309627E+03  0.00000000000E+00 0. -1.
          1    1    1    2  501    0  0.38876331803E+02  0.46269067481E+02 -0.17631010346E+02  0.62952746611E+02  0.00000000000E+00 0. -1.
<scales pt_clust_5="13000.00000" pt_clust_6="13000.00000" pt_clust_7="13000.00000" pt_clust_8="13000.00000" pt_clust_9="81.39066" pt_clust_10="13000.00000"></scales>
<clustering>
<clus scale="   81.391">  1  9  2 -1</clus>
<clus scale="   91.439">  7  8 -1 -1</clus>
<clus scale="   62.439">  7 10 -1 -1</clus>
<clus scale="   94.442">  5  6 -1 -1</clus>
<clus scale="   97.295">  2  5  1 -1</clus>
<clus scale="   81.391">  1  5  2 -1</clus>
</clustering>
</event>
<event>
10    2  0.5921424E-006  0.3158193E+03  0.7546771E-02  0.1115419E+00
         -3   -1    0    0    0  501 -0.00000000000E+00  0.00000000000E+00  0.53827980201E+03  0.53827980201E+03  0.00000000000E+00 0.  1.
         21   -1    0    0  501  502  0.00000000000E+00 -0.00000000000E+00 -0.26816153258E+03  0.26816153258E+03  0.00000000000E+00 0.  1.
         23    2    1    2    0    0  0.69264251525E+02 -0.36267186555E+02  0.25491331021E+03  0.28121735352E+03  0.89384332181E+02 0.  0.
         23    2    1    2    0    0 -0.61875301280E+02 -0.26822617987E+02  0.25291046162E+03  0.27694399241E+03  0.90477995086E+02 0.  0.
        -11    1    3    3    0    0  0.86316440830E+02 -0.12839421174E+02  0.21375374603E+03  0.23088101402E+03  0.00000000000E+00 0.  1.
         11    1    3    3    0    0 -0.17052189305E+02 -0.23427765380E+02  0.41159564181E+02  0.50336339501E+02  0.00000000000E+00 0. -1.
        -11    1    4    4    0    0 -0.21061220933E+02  0.24467627134E+02  0.28190712917E+02  0.42859725845E+02  0.00000000000E+00 0.  1.
         11    1    4    4    0    0 -0.40814080347E+02 -0.51290245121E+02  0.22471974870E+03  0.23408426657E+03  0.00000000000E+00 0. -1.
         21    1    1    2  503  502 -0.27812619656E+01  0.27038303374E+02 -0.16244325394E+03  0.16470159689E+03  0.00000000000E+00 0.  1.
         -3    1    1    2    0  503 -0.46076882795E+01  0.36051501167E+02 -0.75262248455E+02  0.83578391765E+02  0.00000000000E+00 0.  1.
<scales pt_clust_5="13000.00000" pt_clust_6="13000.00000" pt_clust_7="13000.00000" pt_clust_8="13000.00000" pt_clust_9="27.18097" pt_clust_10="13000.00000"></scales>
<clustering>
<clus scale="   27.181">  2  9  1 -1</clus>
<clus scale="   89.384">  5  6 -1 -1</clus>
<clus scale="   90.478">  7  8 -1 -1</clus>
<clus scale="   56.981">  7 10 -1 -1</clus>
<clus scale="  117.554">  1  5  2 -1</clus>
<clus scale="   27.181">  2  5  1 -1</clus>
</clustering>
</event>
<event>
10    2  0.5921424E-006  0.1277986E+03  0.7546771E-02  0.1245937E+00
         21   -1    0    0  501  502  0.00000000000E+00  0.00000000000E+00  0.38685079540E+02  0.38685079540E+02  0.00000000000E+00 0.  1.
          1   -1    0    0  503    0 -0.00000000000E+00 -0.00000000000E+00 -0.60089414512E+03  0.60089414512E+03  0.00000000000E+00 0. -1.
         23    2    1    2    0    0  0.96831247184E+01 -0.12227760189E+02 -0.27752608395E+03  0.29336532405E+03  0.93804078057E+02 0.  0.
         23    2    1    2    0    0 -0.32551001013E+01  0.23475450831E+01 -0.22888732578E+03  0.24912229186E+03  0.98266992178E+02 0.  0.
        -13    1    4    4    0    0  0.18986116403E+02  0.45697830012E+02 -0.10866086805E+03  0.11939827691E+03  0.00000000000E+00 0. -1.
         13    1    4    4    0    0 -0.22241216504E+02 -0.43350284929E+02 -0.12022645773E+03  0.12972401495E+03  0.00000000000E+00 0.  1.
        -13    1    3    3    0    0  0.29529526025E+02  0.22373202282E+02 -0.49241703914E+02  0.61622224010E+02  0.00000000000E+00 0. -1.
         13    1    3    3    0    0 -0.19846401307E+02 -0.34600962471E+02 -0.22828438004E+03  0.23174310004E+03  0.00000000000E+00 0.  1.
         21    1    1    2  503  502 -0.28469849399E+02  0.30574560709E+02 -0.11268954457E+02  0.43270375800E+02  0.00000000000E+00 0.  1.
          1    1    1    2  501    0  0.22041824782E+02 -0.20694345602E+02 -0.44526701396E+02  0.53821232956E+02  0.00000000000E+00 0. -1.
<scales pt_clust_5="13000.00000" pt_clust_6="13000.00000" pt_clust_7="13000.00000" pt_clust_8="13000.00000" pt_clust_9="41.77722" pt_clust_10="13000.00000"></scales>
<clustering>
<clus scale="   41.777">  1  9  2 -1</clus>
<clus scale="   93.804">  7  8 -1 -1</clus>
<clus scale="   93.817">  2  7  1 -1</clus>
<clus scale="   98.267">  5  6 -1 -1</clus>
<clus scale="   21.799">  5 10 -1 -1</clus>
<clus scale="   41.777">  1  5  2 -1</clus>
</clustering>
</event>
<event>
10    2  0.5921424E-006  0.3885822E+03  0.7546771E-02  0.1097625E+00
         21   -1    0    0  503  502  0.00000000000E+00  0.00000000000E+00  0.13348563789E+03  0.13348563789E+03  0.00000000000E+00 0.  1.
          2   -1    0    0  502    0 -0.00000000000E+00 -0.00000000000E+00 -0.15642048105E+04  0.15642048105E+04  0.00000000000E+00 0. -1.
         23    2    1    2    0    0 -0.28680126909E+02  0.23738013089E+01 -0.36152956703E+03  0.37499691678E+03  0.95346080922E+02 0.  0.
         23    2    1    2    0    0  0.61064403249E+02 -0.13518806240E+03 -0.66799519705E+03  0.69203613807E+03  0.10340096494E+03 0.  0.
        -13    1    3    3    0    0 -0.45397540673E+02 -0.33361418482E+02 -0.15965463707E+03  0.16930305396E+03  0.00000000000E+00 0. -1.
         13    1    3    3    0    0  0.16717413763E+02  0.35735219791E+02 -0.20187492996E+03  0.20569386282E+03  0.00000000000E+00 0.  1.
        -13    1    4    4    0    0  0.77534833788E+02 -0.11925755456E+03 -0.64115666272E+03  0.65674643579E+03  0.00000000000E+00 0. -1.
         13    1    4    4    0    0 -0.16470430539E+02 -0.15930507834E+02 -0.26838534335E+02  0.35289702283E+02  0.00000000000E+00 0.  1.
         21    1    1    2  503  501  0.14960169325E+03  0.84914405936E+02  0.16220249728E+02  0.17278373610E+03  0.00000000000E+00 0.  1.
          2    1    1    2  501    0 -0.18198596959E+03  0.47899855154E+02 -0.41741465827E+03  0.45787365745E+03  0.00000000000E+00 0. -1.
<scales pt_clust_5="13000.00000" pt_clust_6="13000.00000" pt_clust_7="13000.00000" pt_clust_8="13000.00000" pt_clust_9="170.46808" pt_clust_10="13000.00000"></scales>
<clustering>
<clus scale="   95.346">  5  6 -1 -1</clus>
<clus scale="   99.594">  2  5  1 -1</clus>
<clus scale="  103.401">  7  8 -1 -1</clus>
<clus scale="  170.468">  1  9  2 -1</clus>
<clus scale="  143.538">  7 10 -1 -1</clus>
<clus scale="  170.468">  1  5  2 -1</clus>
</clustering>
</event>
<event>
10    2  0.5921424E-006  0.1873934E+03  0.7546771E-02  0.1191189E+00
          1   -1    0    0  502    0 -0.00000000000E+00  0.00000000000E+00  0.12681566191E+04  0.12681566191E+04  0.00000000000E+00 0. -1.
         21   -1    0    0  503  502  0.00000000000E+00 -0.00000000000E+00 -0.67124169671E+02  0.67124169671E+02  0.00000000000E+00 0.  1.
         23    2    1    2    0    0  0.53259187485E+01  0.30122793462E+02  0.39704427827E+03  0.40865682831E+03  0.91763262380E+02 0.  0.
         23    2    1    2    0    0  0.93950423047E+02  0.33089752332E+01  0.76640136570E+03  0.77825464207E+03  0.97322162229E+02 0.  0.
        -11    1    3    3    0    0 -0.26795115267E+01  0.60741610928E+02  0.31301385122E+03  0.31886422523E+03  0.00000000000E+00 0. -1.
         11    1    3    3    0    0  0.80054302752E+01 -0.30618817465E+02  0.84030427050E+02  0.89792603075E+02  0.00000000000E+00 0.  1.
        -13    1    4    4    0    0 -0.11930456053E+02 -0.22861876999E+02  0.12297247717E+03  0.12564724964E+03  0.00000000000E+00 0. -1.
         13    1    4    4    0    0  0.10588087910E+03  0.26170852232E+02  0.64342888853E+03  0.65260739243E+03  0.00000000000E+00 0.  1.
         21    1    1    2  503  501 -0.67660137034E+02 -0.51337131539E+02 -0.13171136509E+02  0.85946925803E+02  0.00000000000E+00 0.  1.
          1    1    1    2  501    0 -0.31616204762E+02  0.17905362844E+02  0.50757941954E+02  0.62422392565E+02  0.00000000000E+00 0. -1.
<scales pt_clust_5="13000.00000" pt_clust_6="13000.00000" pt_clust_7="13000.00000" pt_clust_8="13000.00000" pt_clust_9="84.93171" pt_clust_10="13000.00000"></scales>
<clustering>
<clus scale="   84.932">  2  9  1 -1</clus>
<clus scale="   91.763">  5  6 -1 -1</clus>
<clus scale="   94.254">  1  5  2 -1</clus>
<clus scale="   97.322">  7  8 -1 -1</clus>
<clus scale="   57.776">  7 10 -1 -1</clus>
<clus scale="   84.932">  2  5  1 -1</clus>
</clustering>
</event>
<event>
10    2  0.5921424E-006  0.5922363E+03  0.7546771E-02  0.1022172E+00
          1   -1    0    0  503    0 -0.00000000000E+00  0.00000000000E+00  0.22368646927E+04  0.22368646927E+04  0.00000000000E+00 0. -1.
         21   -1    0    0  501  502  0.00000000000E+00 -0.00000000000E+00 -0.15551204663E+03  0.15551204663E+03  0.00000000000E+00 0. -1.
         23    2    1    2    0    0  0.18422682078E+03  0.11136776314E+03  0.46602775978E+03  0.52144654721E+03  0.91555057492E+02 0.  0.
         23    2    1    2    0    0  0.18401979025E+02 -0.26601898611E+03  0.69933993726E+03  0.75406880313E+03  0.91862278490E+02 0.  0.
        -11    1    3    3    0    0  0.18582531072E+03  0.86045035000E+02  0.37887139951E+03  0.43067195348E+03  0.00000000000E+00 0.  1.
         11    1    3    3    0    0 -0.15984899419E+01  0.25322728136E+02  0.87156360276E+02  0.90774593730E+02  0.00000000000E+00 0. -1.
        -11    1    4    4    0    0 -0.29390032429E+02 -0.18054452262E+03  0.42168041812E+03  0.45964603085E+03  0.00000000000E+00 0.  1.
         11    1    4    4    0    0  0.47792011454E+02 -0.85474463495E+02  0.27765951914E+03  0.29442277228E+03  0.00000000000E+00 0. -1.
         21    1    1    2  503  502  0.25132224066E+02 -0.51492528758E+02 -0.66318669929E+02  0.87642884398E+02  0.00000000000E+00 0. -1.
          1    1    1    2  501    0 -0.22776102387E+03  0.20614375173E+03  0.98230361894E+03  0.10292185046E+04  0.00000000000E+00 0. -1.
<scales pt_clust_5="13000.00000" pt_clust_6="13000.00000" pt_clust_7="13000.00000" pt_clust_8="13000.00000" pt_clust_9="57.29842" pt_clust_10="13000.00000"></scales>
<clustering>
<clus scale="   57.298">  2  9  1 -1</clus>
<clus scale="   91.555">  5  6 -1 -1</clus>
<clus scale="   91.862">  7  8 -1 -1</clus>
<clus scale="  233.139">  1  5  2 -1</clus>
<clus scale="  267.556">  7 10 -1 -1</clus>
<clus scale="   57.298">  2  5  1 -1</clus>
</clustering>
</event>
<event>
10    2  0.5921424E-006  0.4959808E+03  0.7546771E-02  0.1064207E+00
         21   -1    0    0  501  502  0.00000000000E+00  0.00000000000E+00  0.71974381319E+03  0.71974381319E+03  0.00000000000E+00 0.  1.
          1   -1    0    0  503    0 -0.00000000000E+00 -0.00000000000E+00 -0.43486855939E+03  0.43486855939E+03  0.00000000000E+00 0. -1.
         23    2    1    2    0    0  0.17027054208E+02  0.76947217965E+02 -0.27669828928E+03  0.30125048933E+03  0.89325915080E+02 0.  0.
         23    2    1    2    0    0 -0.44660878632E+02 -0.72326482071E+02 -0.96545683772E+02  0.16314401199E+03  0.10034533125E+03 0.  0.
        -11    1    3    3    0    0  0.18454671641E+02  0.79162773075E+01 -0.46974047963E+01  0.20622995990E+02  0.00000000000E+00 0.  1.
         11    1    3    3    0    0 -0.14276174331E+01  0.69030940657E+02 -0.27200088448E+03  0.28062749334E+03  0.00000000000E+00 0. -1.
        -13    1    4    4    0    0  0.24463846484E+02  0.72061271976E+01 -0.25447053554E+02  0.36027220106E+02  0.00000000000E+00 0.  1.
         13    1    4    4    0    0 -0.69124725116E+02 -0.79532609269E+02 -0.71098630218E+02  0.12711679188E+03  0.00000000000E+00 0. -1.
         21    1    1    2  503  502 -0.63225263770E+02 -0.70122171610E+02  0.25871325296E+03  0.27540352247E+03  0.00000000000E+00 0.  1.
          1    1    1    2  501    0  0.90859088193E+02  0.65501435717E+02  0.39940597389E+03  0.41481434880E+03  0.00000000000E+00 0. -1.
<scales pt_clust_5="13000.00000" pt_clust_6="13000.00000" pt_clust_7="13000.00000" pt_clust_8="13000.00000" pt_clust_9="94.41691" pt_clust_10="13000.00000"></scales>
<clustering>
<clus scale="   89.326">  5  6 -1 -1</clus>
<clus scale="   94.417">  1  9  2 -1</clus>
<clus scale="  100.345">  7  8 -1 -1</clus>
<clus scale="   34.087">  7 10 -1 -1</clus>
<clus scale="  117.667">  2  5  1 -1</clus>
<clus scale="   94.417">  1  5  2 -1</clus>
</clustering>
</event>
<event>
10    2  0.5921424E-006  0.2623266E+03  0.7546771E-02  0.1134894E+00
         -2   -1    0    0    0  501 -0.00000000000E+00  0.00000000000E+00  0.71234945287E+03  0.71234945287E+03  0.00000000000E+00 0.  1.
         21   -1    0    0  501  502  0.00000000000E+00 -0.00000000000E+00 -0.70816016924E+02  0.70816016924E+02  0.00000000000E+00 0.  1.
         23    2    1    2    0    0  0.29876607073E+01  0.95377394989E+02  0.28574349118E+03  0.31409265996E+03  0.88876783821E+02 0.  0.
         23    2    1    2    0    0 -0.92734668376E+02 -0.10673359711E+02  0.29460268102E+03  0.32226747288E+03  0.91388976830E+02 0.  0.
        -11    1    4    4    0    0 -0.45663608757E+02  0.13472228154E+02  0.24554951331E+03  0.25012242919E+03  0.00000000000E+00 0.  1.
         11    1    4    4    0    0 -0.47071059619E+02 -0.24145587864E+02  0.49053167711E+02  0.72145043693E+02  0.00000000000E+00 0. -1.
        -11    1    3    3    0    0 -0.25361544324E+02 -0.48740142620E+01  0.67037648059E+02  0.71840171234E+02  0.00000000000E+00 0.  1.
         11    1    3    3    0    0  0.28349205031E+02  0.10025140925E+03  0.21870584312E+03  0.24225248873E+03  0.00000000000E+00 0. -1.
         21    1    1    2  503  502  0.10160697152E+02 -0.20978161188E+02 -0.67755322035E+01  0.24274077739E+02  0.00000000000E+00 0.  1.
         -2    1    1    2    0  503  0.79586310517E+02 -0.63725874090E+02  0.67962795953E+02  0.12253125921E+03  0.00000000000E+00 0.  1.
<scales pt_clust_5="13000.00000" pt_clust_6="13000.00000" pt_clust_7="13000.00000" pt_clust_8="13000.00000" pt_clust_9="23.30929" pt_clust_10="13000.00000"></scales>
<clustering>
<clus scale="   23.309">  2  9  1 -1</clus>
<clus scale="   88.877">  7  8 -1 -1</clus>
<clus scale="   91.389">  5  6 -1 -1</clus>
<clus scale="  112.449">  5 10 -1 -1</clus>
<clus scale="  126.611">  1  7  2 -1</clus>
<clus scale="   23.309">  2  5  1 -1</clus>
</clustering>
</event>
<event>
10    2  0.5921424E-006  0.1657227E+03  0.7546771E-02  0.1207406E+00
         21   -1    0    0  501  502  0.00000000000E+00  0.00000000000E+00  0.55296991296E+02  0.55296991296E+02  0.00000000000E+00 0.  1.
         -2   -1    0    0    0  501 -0.00000000000E+00 -0.00000000000E+00 -0.77145577934E+03  0.77145577934E+03  0.00000000000E+00 0.  1.
         23    2    1    2    0    0  0.88240521519E+01  0.19840479820E+02 -0.24322408991E+03  0.26080638640E+03  0.91599698368E+02 0.  0.
         23    2    1    2    0    0  0.21951642587E+02 -0.52984091458E+02 -0.39289532468E+03  0.40704199624E+03  0.89594988605E+02 0.  0.
        -13    1    4    4    0    0  0.58511086761E+01 -0.67365239398E+02 -0.36768749919E+03  0.37385345794E+03  0.00000000000E+00 0.  1.
         13    1    4    4    0    0  0.16100533911E+02  0.14381147940E+02 -0.25207825490E+02  0.33188538295E+02  0.00000000000E+00 0. -1.
        -13    1    3    3    0    0 -0.39930898245E+02  0.45070180870E+01 -0.76326188964E+02  0.86258199427E+02  0.00000000000E+00 0. -1.
         13    1    3    3    0    0  0.48754950397E+02  0.15333461733E+02 -0.16689790094E+03  0.17454818698E+03  0.00000000000E+00 0.  1.
         21    1    1    2  503  502  0.18441838617E+02  0.78556890656E+01  0.29799936963E+02  0.35914474872E+02  0.00000000000E+00 0.  1.
         -2    1    1    2    0  503 -0.49217533356E+02  0.25287922573E+02 -0.10983931041E+03  0.12298991312E+03  0.00000000000E+00 0.  1.
<scales pt_clust_5="13000.00000" pt_clust_6="13000.00000" pt_clust_7="13000.00000" pt_clust_8="13000.00000" pt_clust_9="20.04528" pt_clust_10="13000.00000"></scales>
<clustering>
<clus scale="   20.045">  1  9  2 -1</clus>
<clus scale="   89.595">  5  6 -1 -1</clus>
<clus scale="   51.777">  5 10 -1 -1</clus>
<clus scale="   91.600">  7  8 -1 -1</clus>
<clus scale="   95.777">  2  7  1 -1</clus>
<clus scale="   20.045">  1  5  2 -1</clus>
</clustering>
</event>
<event>
10    2  0.5921424E-006  0.1452840E+04  0.7546771E-02  0.9654320E-01
         21   -1    0    0  503  502  0.00000000000E+00  0.00000000000E+00  0.41725695312E+03  0.41725695312E+03  0.00000000000E+00 0. -1.
          1   -1    0    0  502    0 -0.00000000000E+00 -0.00000000000E+00 -0.17736263544E+04  0.17736263544E+04  0.00000000000E+00 0. -1.
         23    2    1    2    0    0  0.45595748804E+00 -0.24818804722E+02 -0.85146988333E+02  0.12845086962E+03  0.92916281241E+02 0.  0.
         23    2    1    2    0    0 -0.10710750088E+03  0.32618610327E+03 -0.15657615124E+04  0.16055396247E+04  0.90988910673E+02 0.  0.
        -11    1    4    4    0    0 -0.56518746365E+02  0.27659433907E+03 -0.13150748158E+04  0.13450355268E+04  0.00000000000E+00 0. -1.
         11    1    4    4    0    0 -0.50588754518E+02  0.49591764204E+02 -0.25068669661E+03  0.26050409789E+03  0.00000000000E+00 0.  1.
        -13    1    3    3    0    0 -0.11002007354E+02 -0.49458100893E+02 -0.87568433499E+02  0.10117004722E+03  0.00000000000E+00 0.  1.
         13    1    3    3    0    0  0.11457964842E+02  0.24639296171E+02  0.24214451652E+01  0.27280822400E+02  0.00000000000E+00 0. -1.
         21    1    1    2  503  501 -0.26999444913E+02 -0.33088543061E+02  0.71508771650E+02  0.83290612499E+02  0.00000000000E+00 0.  1.
          1    1    1    2  501    0  0.13365098831E+03 -0.26827875549E+03  0.22303032778E+03  0.37360220079E+03  0.00000000000E+00 0. -1.
<scales pt_clust_5="13000.00000" pt_clust_6="13000.00000" pt_clust_7="13000.00000" pt_clust_8="13000.00000" pt_clust_9="42.70623" pt_clust_10="13000.00000"></scales>
<clustering>
<clus scale="   42.706">  1  9  2 -1</clus>
<clus scale="   90.989">  5  6 -1 -1</clus>
<clus scale="   92.916">  7  8 -1 -1</clus>
<clus scale="   96.748">  2  7  1 -1</clus>
<clus scale="  318.353">  5 10 -1 -1</clus>
<clus scale="   42.706">  1  5  2 -1</clus>
</clustering>
</event>
<event>
10    2  0.5921424E-006  0.1424751E+03  0.7546771E-02  0.1229243E+00
          1   -1    0    0  503    0 -0.00000000000E+00  0.00000000000E+00  0.14477224257E+03  0.14477224257E+03  0.00000000000E+00 0. -1.
         21   -1    0    0  501  502  0.00000000000E+00 -0.00000000000E+00 -0.90250563742E+03  0.90250563742E+03  0.00000000000E+00 0. -1.
         23    2    1    2    0    0  0.28818013037E+02  0.43365259453E+02 -0.25242564231E+02  0.10963027078E+03  0.93115979400E+02 0.  0.
         23    2    1    2    0    0 -0.20165284129E+02 -0.19281595796E+01  0.38168185274E+02  0.10188629130E+03  0.92269439704E+02 0.  0.
        -11    1    4    4    0    0 -0.47469242213E+02  0.20026057053E+02  0.20414860649E+01  0.51561027751E+02  0.00000000000E+00 0. -1.
         11    1    4    4    0    0  0.27303958084E+02 -0.21954216633E+02  0.36126699210E+02  0.50325263544E+02  0.00000000000E+00 0.  1.
        -13    1    3    3    0    0 -0.19349159614E+02  0.11091942300E+02  0.24575932230E+02  0.33187310929E+02  0.00000000000E+00 0. -1.
         13    1    3    3    0    0  0.48167172651E+02  0.32273317153E+02 -0.49818496461E+02  0.76442959852E+02  0.00000000000E+00 0.  1.
         21    1    1    2  503  502 -0.19968462646E+02 -0.94488814910E+02 -0.77532430576E+03  0.78131597626E+03  0.00000000000E+00 0. -1.
          1    1    1    2  501    0  0.11315733738E+02  0.53051715037E+02  0.46652898688E+01  0.54445341655E+02  0.00000000000E+00 0. -1.
<scales pt_clust_5="13000.00000" pt_clust_6="13000.00000" pt_clust_7="13000.00000" pt_clust_8="13000.00000" pt_clust_9="96.57575" pt_clust_10="13000.00000"></scales>
<clustering>
<clus scale="   92.269">  5  6 -1 -1</clus>
<clus scale="   54.245">  5 10 -1 -1</clus>
<clus scale="   93.116">  7  8 -1 -1</clus>
<clus scale="   96.576">  2  9  1 -1</clus>
<clus scale="   95.167">  1  7  2 -1</clus>
<clus scale="   96.576">  2  5  1 -1</clus>
</clustering>
</event>
<event>
10    2  0.5921424E-006  0.1519228E+03  0.7546771E-02  0.1220329E+00
          1   -1    0    0  503    0 -0.00000000000E+00  0.00000000000E+00  0.64277187092E+03  0.64277187092E+03  0.00000000000E+00 0. -1.
         21   -1    0    0  501  502  0.00000000000E+00 -0.00000000000E+00 -0.98619629040E+02  0.98619629040E+02  0.00000000000E+00 0.  1.
         23    2    1    2    0    0 -0.11492874875E+02  0.19853940806E+01  0.28306330473E+03  0.29760472176E+03  0.91146628937E+02 0.  0.
         23    2    1    2    0    0  0.50060597692E+02 -0.66531364302E+02  0.18761708691E+03  0.22433396522E+03  0.90515583059E+02 0.  0.
        -13    1    4    4    0    0 -0.29053363227E+01  0.20677413472E+02  0.34835431876E+02  0.40614082792E+02  0.00000000000E+00 0.  1.
         13    1    4    4    0    0  0.52965934015E+02 -0.87208777774E+02  0.15278165503E+03  0.18371988243E+03  0.00000000000E+00 0. -1.
        -13    1    3    3    0    0 -0.30787544522E+02 -0.36491720008E+02  0.17162708132E+03  0.17814424933E+03  0.00000000000E+00 0. -1.
         13    1    3    3    0    0  0.19294669647E+02  0.38477114089E+02  0.11143622341E+03  0.11946047243E+03  0.00000000000E+00 0.  1.
         21    1    1    2  503  502  0.57310769198E+01  0.89248006288E+02 -0.37857009852E+02  0.97114391642E+02  0.00000000000E+00 0.  1.
          1    1    1    2  501    0 -0.44298799737E+02 -0.24702036067E+02  0.11132886009E+03  0.12233842133E+03  0.00000000000E+00 0. -1.
<scales pt_clust_5="13000.00000" pt_clust_6="13000.00000" pt_clust_7="13000.00000" pt_clust_8="13000.00000" pt_clust_9="89.43183" pt_clust_10="13000.00000"></scales>
<clustering>
<clus scale="   89.432">  2  9  1 -1</clus>
<clus scale="   90.516">  5  6 -1 -1</clus>
<clus scale="   44.195">  5 10 -1 -1</clus>
<clus scale="   91.147">  7  8 -1 -1</clus>
<clus scale="   94.509">  1  7  2 -1</clus>
<clus scale="   89.432">  2  5  1 -1</clus>
</clustering>
</event>
<event>
10    2  0.5921424E-006  0.3544243E+03  0.7546771E-02  0.1107789E+00
         21   -1    0    0  501  502  0.00000000000E+00  0.00000000000E+00  0.41328752987E+03  0.41328752987E+03  0.00000000000E+00 0.  1.
         -1   -1    0    0    0  501 -0.00000000000E+00 -0.00000000000E+00 -0.45801201132E+03  0.45801201132E+03  0.00000000000E+00 0.  1.
         23    2    1    2    0    0 -0.32306603656E+02 -0.21108292675E+02 -0.19933566787E+03  0.22292410884E+03  0.92038976309E+02 0.  0.
         23    2    1    2    0    0  0.12832182818E+03 -0.75905081630E+02 -0.18671565028E+03  0.25349143564E+03  0.84658731858E+02 0.  0.
        -11    1    4    4    0    0  0.27621286257E+02 -0.11987052961E+02 -0.10418454705E+03  0.10844835055E+03  0.00000000000E+00 0.  1.
         11    1    4    4    0    0  0.10070054193E+03 -0.63918028669E+02 -0.82531103230E+02  0.14504308509E+03  0.00000000000E+00 0. -1.
        -11    1    3    3    0    0 -0.17171956961E+02 -0.57652069401E+02 -0.11551210260E+03  0.13023702645E+03  0.00000000000E+00 0.  1.
         11    1    3    3    0    0 -0.15134646695E+02  0.36543776726E+02 -0.83823565266E+02  0.92687082389E+02  0.00000000000E+00 0. -1.
         21    1    1    2  503  502 -0.47987197265E+02  0.10418243764E+02  0.26592754182E+03  0.27042331335E+03  0.00000000000E+00 0.  1.
         -1    1    1    2    0  503 -0.48028027261E+02  0.86595130541E+02  0.75399294867E+02  0.12446068336E+03  0.00000000000E+00 0.  1.
<scales pt_clust_5="13000.00000" pt_clust_6="13000.00000" pt_clust_7="13000.00000" pt_clust_8="13000.00000" pt_clust_9="49.10510" pt_clust_10="13000.00000"></scales>
<clustering>
<clus scale="   49.105">  1  9  2 -1</clus>
<clus scale="   84.659">  5  6 -1 -1</clus>
<clus scale="   92.039">  7  8 -1 -1</clus>
<clus scale="  100.959">  2  7  1 -1</clus>
<clus scale="  125.654">  5 10 -1 -1</clus>
<clus scale="   49.105">  1  5  2 -1</clus>
</clustering>
</event>
<event>
10    2  0.5921424E-006  0.2357572E+03  0.7546771E-02  0.1129897E+00
         21   -1    0    0  503  502  0.00000000000E+00  0.00000000000E+00  0.13554957565E+03  0.13554957565E+03  0.00000000000E+00 0.  1.
          1   -1    0    0  502    0 -0.00000000000E+00 -0.00000000000E+00 -0.49697294700E+03  0.49697294700E+03  0.00000000000E+00 0. -1.
         23    2    1    2    0    0 -0.11425048168E+03 -0.10741757953E+03 -0.64573949357E+02  0.19305801933E+03  0.92249091783E+02 0.  0.
         23    2    1    2    0    0  0.85773153360E+02  0.12051608587E+03 -0.29813743293E+03  0.34413029176E+03  0.87513244700E+02 0.  0.
        -11    1    3    3    0    0 -0.66128974887E+02 -0.37874949991E+02  0.14160338857E+02  0.77511730422E+02  0.00000000000E+00 0.  1.
         11    1    3    3    0    0 -0.48121506792E+02 -0.69542629538E+02 -0.78734288214E+02  0.11554628890E+03  0.00000000000E+00 0. -1.
        -13    1    4    4    0    0  0.47699366661E+02  0.34675665469E+01 -0.67824626919E+02  0.82990563405E+02  0.00000000000E+00 0. -1.
         13    1    4    4    0    0  0.38073786699E+02  0.11704851932E+03 -0.23031280601E+03  0.26113972835E+03  0.00000000000E+00 0.  1.
         21    1    1    2  503  501 -0.25515344081E+02 -0.14344128110E+02  0.22898974293E+02  0.37163824056E+02  0.00000000000E+00 0.  1.
          1    1    1    2  501    0  0.53992672400E+02  0.12456217686E+01 -0.21610963348E+02  0.58170387512E+02  0.00000000000E+00 0. -1.
<scales pt_clust_5="13000.00000" pt_clust_6="13000.00000" pt_clust_7="13000.00000" pt_clust_8="13000.00000" pt_clust_9="29.27092" pt_clust_10="13000.00000"></scales>
<clustering>
<clus scale="   29.271">  1  9  2 -1</clus>
<clus scale="   87.513">  7  8 -1 -1</clus>
<clus scale="   49.588">  7 10 -1 -1</clus>
<clus scale="   92.249">  5  6 -1 -1</clus>
<clus scale="  197.091">  2  5  1 -1</clus>
<clus scale="   29.271">  1  5  2 -1</clus>
</clustering>
</event>
<event>
10    2  0.5921424E-006  0.1475794E+03  0.7546771E-02  0.1218953E+00
         21   -1    0    0  501  502  0.00000000000E+00  0.00000000000E+00  0.21396211130E+03  0.21396211130E+03  0.00000000000E+00 0.  1.
          2   -1    0    0  503    0 -0.00000000000E+00 -0.00000000000E+00 -0.20092998498E+03  0.20092998498E+03  0.00000000000E+00 0. -1.
         23    2    1    2    0    0  0.26245373926E+02  0.55219362788E+01  0.65670751039E+01  0.94965677449E+02  0.90862764569E+02 0.  0.
         23    2    1    2    0    0 -0.70084068236E+02  0.38397873317E+01 -0.12269602108E+03  0.16556897994E+03  0.86210515270E+02 0.  0.
        -11    1    4    4    0    0 -0.79643470112E+02  0.23673169769E+02 -0.70672809978E+02  0.10907862929E+03  0.00000000000E+00 0. -1.
         11    1    4    4    0    0  0.95594018767E+01 -0.19833382437E+02 -0.52023211099E+02  0.56490350647E+02  0.00000000000E+00 0.  1.
        -13    1    3    3    0    0 -0.30302101568E+02 -0.11359159100E+02  0.14426375627E+02  0.35431175095E+02  0.00000000000E+00 0. -1.
         13    1    3    3    0    0  0.56547475494E+02  0.16881095378E+02 -0.78593005229E+01  0.59534502354E+02  0.00000000000E+00 0.  1.
         21    1    1    2  503  502  0.48632358586E+02  0.14070034252E+02  0.11709128498E+03  0.12756739859E+03  0.00000000000E+00 0.  1.
          2    1    1    2  501    0 -0.47936642760E+01 -0.23431757863E+02  0.12069787308E+02  0.26790040302E+02  0.00000000000E+00 0. -1.
<scales pt_clust_5="13000.00000" pt_clust_6="13000.00000" pt_clust_7="13000.00000" pt_clust_8="13000.00000" pt_clust_9="50.62679" pt_clust_10="13000.00000"></scales>
<clustering>
<clus scale="   50.627">  1  9  2 -1</clus>
<clus scale="   86.211">  5  6 -1 -1</clus>
<clus scale="   21.180">  5 10 -1 -1</clus>
<clus scale="   90.863">  7  8 -1 -1</clus>
<clus scale="  106.125">  2  7  1 -1</clus>
<clus scale="   50.627">  1  5  2 -1</clus>
</clustering>
</event>
<event>
10    2  0.5921424E-006  0.2208517E+03  0.7546771E-02  0.1152262E+00
         21   -1    0    0  503  502  0.00000000000E+00  0.00000000000E+00  0.93826020506E+03  0.93826020506E+03  0.00000000000E+00 0. -1.
         -2   -1    0    0    0  501 -0.00000000000E+00 -0.00000000000E+00 -0.41052147420E+02  0.41052147420E+02  0.00000000000E+00 0.  1.
         23    2    1    2    0    0  0.78255696680E+01  0.98673852361E+02  0.36955695372E+03  0.39355529390E+03  0.92280326357E+02 0.  0.
         23    2    1    2    0    0 -0.54604580486E+02 -0.11326271345E+03  0.24197982320E+03  0.28750609778E+03  0.91079190570E+02 0.  0.
        -11    1    4    4    0    0  0.96136343805E+01 -0.79880189542E+02  0.10190764071E+03  0.12984003189E+03  0.00000000000E+00 0.  1.
         11    1    4    4    0    0 -0.64218214866E+02 -0.33382523906E+02  0.14007218249E+03  0.15766606589E+03  0.00000000000E+00 0. -1.
        -13    1    3    3    0    0  0.39686491025E+02  0.42358274909E+02  0.93785448565E+02  0.11029483844E+03  0.00000000000E+00 0.  1.
         13    1    3    3    0    0 -0.31860921357E+02  0.56315577453E+02  0.27577150515E+03  0.28326045546E+03  0.00000000000E+00 0. -1.
         21    1    1    2  503  501 -0.15667016704E+02  0.14206682418E+02  0.10451949852E+03  0.10663775508E+03  0.00000000000E+00 0. -1.
         -2    1    1    2    0  502  0.62446027522E+02  0.38217866918E+00  0.18115178220E+03  0.19161320572E+03  0.00000000000E+00 0.  1.
<scales pt_clust_5="13000.00000" pt_clust_6="13000.00000" pt_clust_7="13000.00000" pt_clust_8="13000.00000" pt_clust_9="21.14912" pt_clust_10="13000.00000"></scales>
<clustering>
<clus scale="   21.149">  1  9  2 -1</clus>
<clus scale="   91.079">  5  6 -1 -1</clus>
<clus scale="   59.047">  5 10 -1 -1</clus>
<clus scale="   92.280">  7  8 -1 -1</clus>
<clus scale="  139.928">  2  7  1 -1</clus>
<clus scale="   21.149">  1  5  2 -1</clus>
</clustering>
</event>
<event>
10    2  0.5921424E-006  0.2314012E+03  0.7546771E-02  0.1138720E+00
         21   -1    0    0  503  502  0.00000000000E+00  0.00000000000E+00  0.11812285222E+03  0.11812285222E+03  0.00000000000E+00 0.  1.
          1   -1    0    0  502    0 -0.00000000000E+00 -0.00000000000E+00 -0.67070402677E+03  0.67070402677E+03  0.00000000000E+00 0. -1.
         23    2    1    2    0    0  0.20600723486E+02 -0.19473447517E+03 -0.12816154710E+03  0.25111505756E+03  0.91035621308E+02 0.  0.
         23    2    1    2    0    0  0.53598420017E+01  0.15899986712E+02 -0.22876467654E+03  0.24634866400E+03  0.89849037498E+02 0.  0.
        -13    1    4    4    0    0  0.18787370208E+02 -0.34361794909E+02 -0.10669193202E+03  0.11365239367E+03  0.00000000000E+00 0.  1.
         13    1    4    4    0    0 -0.13427528206E+02  0.50261781621E+02 -0.12207274452E+03  0.13269627033E+03  0.00000000000E+00 0. -1.
        -13    1    3    3    0    0  0.56422552779E+02 -0.10535976935E+03 -0.66396740739E+02  0.13672129549E+03  0.00000000000E+00 0.  1.
         13    1    3    3    0    0 -0.35821829292E+02 -0.89374705826E+02 -0.61764806362E+02  0.11439376207E+03  0.00000000000E+00 0. -1.
         21    1    1    2  503  501  0.45695170779E+02  0.96339139247E+02 -0.96687050321E+02  0.14393631954E+03  0.00000000000E+00 0. -1.
          1    1    1    2  501    0 -0.71655736267E+02  0.82495349216E+02 -0.98967900587E+02  0.14742683789E+03  0.00000000000E+00 0. -1.
<scales pt_clust_5="13000.00000" pt_clust_6="13000.00000" pt_clust_7="13000.00000" pt_clust_8="13000.00000" pt_clust_9="106.62682" pt_clust_10="13000.00000"></scales>
<clustering>
<clus scale="   89.849">  5  6 -1 -1</clus>
<clus scale="   91.036">  7  8 -1 -1</clus>
<clus scale="  106.627">  1  9  2 -1</clus>
<clus scale="  122.817">  5 10 -1 -1</clus>
<clus scale="  168.108">  2  7  1 -1</clus>
<clus scale="  106.627">  1  5  2 -1</clus>
</clustering>
</event>
<event>
10    2  0.5921424E-006  0.2557491E+03  0.7546771E-02  0.1148307E+00
          2   -1    0    0  503    0 -0.00000000000E+00  0.00000000000E+00  0.67833247276E+03  0.67833247276E+03  0.00000000000E+00 0. -1.
         21   -1    0    0  501  502  0.00000000000E+00 -0.00000000000E+00 -0.54594437902E+02  0.54594437902E+02  0.00000000000E+00 0. -1.
         23    2    1    2    0    0  0.25400881687E+02  0.39137201483E+02  0.14801663372E+03  0.17934115034E+03  0.89874351284E+02 0.  0.
         23    2    1    2    0    0  0.59121395424E+02 -0.75208510964E+02  0.29953787081E+03  0.32760093971E+03  0.91911806255E+02 0.  0.
        -11    1    3    3    0    0 -0.99721403091E+00 -0.28268774738E+02  0.33286447780E+02  0.43681868857E+02  0.00000000000E+00 0.  1.
         11    1    3    3    0    0  0.26398095718E+02  0.67405976221E+02  0.11473018594E+03  0.13565928149E+03  0.00000000000E+00 0. -1.
        -13    1    4    4    0    0  0.67777326869E+02 -0.13037792862E+02  0.17551288484E+03  0.18859618985E+03  0.00000000000E+00 0. -1.
         13    1    4    4    0    0 -0.86559314450E+01 -0.62170718102E+02  0.12402498597E+03  0.13900474986E+03  0.00000000000E+00 0.  1.
         21    1    1    2  503  502  0.75760510568E+01 -0.27242790270E+02  0.49845286704E+02  0.57307231463E+02  0.00000000000E+00 0. -1.
          2    1    1    2  501    0 -0.92098328167E+02  0.63314099752E+02  0.12633824362E+03  0.16867758915E+03  0.00000000000E+00 0. -1.
<scales pt_clust_5="13000.00000" pt_clust_6="13000.00000" pt_clust_7="13000.00000" pt_clust_8="13000.00000" pt_clust_9="28.27662" pt_clust_10="13000.00000"></scales>
<clustering>
<clus scale="   28.277">  2  9  1 -1</clus>
<clus scale="   89.874">  5  6 -1 -1</clus>
<clus scale="   91.912">  7  8 -1 -1</clus>
<clus scale="   98.955">  1  5  2 -1</clus>
<clus scale="  101.239">  7 10 -1 -1</clus>
<clus scale="   28.277">  2  5  1 -1</clus>
</clustering>
</event>
<event>
10    2  0.5921424E-006  0.3329222E+03  0.7546771E-02  0.1111585E+00
         21   -1    0    0  503  502  0.00000000000E+00  0.00000000000E+00  0.33836869919E+03  0.33836869919E+03  0.00000000000E+00 0. -1.
          2   -1    0    0  502    0 -0.00000000000E+00 -0.00000000000E+00 -0.21426948142E+03  0.21426948142E+03  0.00000000000E+00 0. -1.
         23    2    1    2    0    0  0.66108182569E+02 -0.12448626031E+01 -0.55733625568E+02  0.12611433007E+03  0.91797307931E+02 0.  0.
         23    2    1    2    0    0  0.10425233645E+03  0.46250130855E+02 -0.21186219843E+02  0.14771827762E+03  0.91456051596E+02 0.  0.
        -13    1    4    4    0    0  0.68066255508E+02  0.74031506142E+02 -0.14086337658E+02  0.10154853002E+03  0.00000000000E+00 0.  1.
         13    1    4    4    0    0  0.36186080942E+02 -0.27781375287E+02 -0.70998821850E+01  0.46169747604E+02  0.00000000000E+00 0. -1.
        -13    1    3    3    0    0  0.39284113191E+02 -0.82024459811E+01  0.20454172215E+02  0.45043255103E+02  0.00000000000E+00 0. -1.
         13    1    3    3    0    0  0.26824069378E+02  0.69575833781E+01 -0.76187797783E+02  0.81071074962E+02  0.00000000000E+00 0.  1.
         21    1    1    2  503  501 -0.33425768667E+02  0.16879808566E+02  0.70234892064E+02  0.79593655598E+02  0.00000000000E+00 0. -1.
          2    1    1    2  501    0 -0.13693475035E+03 -0.61885076817E+02  0.13078417112E+03  0.19921191732E+03  0.00000000000E+00 0. -1.
<scales pt_clust_5="13000.00000" pt_clust_6="13000.00000" pt_clust_7="13000.00000" pt_clust_8="13000.00000" pt_clust_9="37.44609" pt_clust_10="13000.00000"></scales>
<clustering>
<clus scale="   37.446">  1  9  2 -1</clus>
<clus scale="   91.456">  5  6 -1 -1</clus>
<clus scale="   91.797">  7  8 -1 -1</clus>
<clus scale="  110.579">  2  7  1 -1</clus>
<clus scale="  145.305">  5 10 -1 -1</clus>
<clus scale="   37.446">  1  5  2 -1</clus>
</clustering>
</event>
<event>
10    2  0.5921424E-006  0.1308504E+03  0.7546771E-02  0.1236368E+00
          1   -1    0    0  503    0 -0.00000000000E+00  0.00000000000E+00  0.16639170585E+03  0.16639170585E+03  0.00000000000E+00 0. -1.
         21   -1    0    0  501  502  0.00000000000E+00 -0.00000000000E+00 -0.10521206734E+03  0.10521206734E+03  0.00000000000E+00 0.  1.
         23    2    1    2    0    0 -0.15986298462E+02 -0.52603118088E+02  0.19100155393E+02  0.10980771910E+03  0.93114281757E+02 0.  0.
         23    2    1    2    0    0  0.13451941291E+02  0.23249818379E+02  0.58491130459E+02  0.11166675147E+03  0.91250984993E+02 0.  0.
        -13    1    3    3    0    0 -0.54548078652E+01 -0.70101736937E+02  0.39743690383E+02  0.80768616280E+02  0.00000000000E+00 0. -1.
         13    1    3    3    0    0 -0.10531490597E+02  0.17498618849E+02 -0.20643534990E+02  0.29039102822E+02  0.00000000000E+00 0.  1.
        -13    1    4    4    0    0  0.19322600998E+02 -0.21128241824E+02 -0.95832993064E+01  0.30192799432E+02  0.00000000000E+00 0. -1.
         13    1    4    4    0    0 -0.58706597077E+01  0.44378060203E+02  0.68074429765E+02  0.81473952037E+02  0.00000000000E+00 0.  1.
         21    1    1    2  503  502 -0.16863665106E+02  0.15944776097E+02 -0.42405633156E+01  0.23592402650E+02  0.00000000000E+00 0.  1.
          1    1    1    2  501    0  0.19398022277E+02  0.13408523612E+02 -0.12171084025E+02  0.26536899971E+02  0.00000000000E+00 0. -1.
<scales pt_clust_5="13000.00000" pt_clust_6="13000.00000" pt_clust_7="13000.00000" pt_clust_8="13000.00000" pt_clust_9="23.20817" pt_clust_10="13000.00000"></scales>
<clustering>
<clus scale="   23.208">  2  9  1 -1</clus>
<clus scale="   91.251">  7  8 -1 -1</clus>
<clus scale="   23.070">  7 10 -1 -1</clus>
<clus scale="   93.114">  5  6 -1 -1</clus>
<clus scale="  106.115">  1  5  2 -1</clus>
<clus scale="   23.208">  2  5  1 -1</clus>
</clustering>
</event>
<event>
10    2  0.6376494E-006  0.1705422E+03  0.7546771E-02  0.1204204E+00
         21   -1    0    0  503  502  0.00000000000E+00  0.00000000000E+00  0.35690422907E+03  0.35690422907E+03  0.00000000000E+00 0.  1.
         -1   -1    0    0    0  501 -0.00000000000E+00 -0.00000000000E+00 -0.39293826039E+03  0.39293826039E+03  0.00000000000E+00 0.  1.
         23    2    1    2    0    0 -0.14042482602E+02  0.27946305462E+02 -0.60179937110E+00  0.93164989427E+02  0.87756286304E+02 0.  0.
         23    2    1    2    0    0 -0.23898322342E+01 -0.21840580853E+02 -0.28605018779E+03  0.30291908593E+03  0.97224176109E+02 0.  0.
        -13    1    4    4    0    0  0.38940088535E+01 -0.59873616930E+02 -0.15127816727E+03  0.16274242594E+03  0.00000000000E+00 0. -1.
         13    1    4    4    0    0 -0.62838410877E+01  0.38033036077E+02 -0.13477202051E+03  0.14017665999E+03  0.00000000000E+00 0.  1.
        -13    1    3    3    0    0 -0.53480777860E+01  0.54342183324E+02 -0.21196930905E+02  0.58574608016E+02  0.00000000000E+00 0.  1.
         13    1    3    3    0    0 -0.86944048164E+01 -0.26395877862E+02  0.20595131534E+02  0.34590381411E+02  0.00000000000E+00 0. -1.
         21    1    1    2  503  501 -0.28406869807E+02 -0.31000899922E+02  0.28751819939E+03  0.29057653214E+03  0.00000000000E+00 0.  1.
         -1    1    1    2    0  502  0.44839184643E+02  0.24895175313E+02 -0.36900243551E+02  0.63181881956E+02  0.00000000000E+00 0.  1.
<scales pt_clust_5="13000.00000" pt_clust_6="13000.00000" pt_clust_7="13000.00000" pt_clust_8="13000.00000" pt_clust_9="42.04766" pt_clust_10="13000.00000"></scales>
<clustering>
<clus scale="   42.048">  1  9  2 -1</clus>
<clus scale="   87.756">  7  8 -1 -1</clus>
<clus scale="   94.150">  2  7  1 -1</clus>
<clus scale="   97.224">  5  6 -1 -1</clus>
<clus scale="   40.693">  5 10 -1 -1</clus>
<clus scale="   42.048">  1  5  2 -1</clus>
</clustering>
</event>
<event>
10    2  0.5921424E-006  0.3837308E+03  0.7546771E-02  0.1096656E+00
          1   -1    0    0  503    0 -0.00000000000E+00  0.00000000000E+00  0.59504556711E+03  0.59504556711E+03  0.00000000000E+00 0. -1.
         21   -1    0    0  501  502  0.00000000000E+00 -0.00000000000E+00 -0.13583717556E+03  0.13583717556E+03  0.00000000000E+00 0. -1.
         23    2    1    2    0    0 -0.25583544052E+02  0.48749048852E+02  0.23022208918E+03  0.25388257414E+03  0.91777794790E+02 0.  0.
         23    2    1    2    0    0  0.12949509678E+01 -0.18611173249E+03  0.19211226544E+03  0.28267404567E+03  0.91423408892E+02 0.  0.
        -13    1    3    3    0    0 -0.53765721721E+02  0.41774391623E+01  0.12682792898E+03  0.13781700693E+03  0.00000000000E+00 0. -1.
         13    1    3    3    0    0  0.28182177669E+02  0.44571609689E+02  0.10339416020E+03  0.11606556721E+03  0.00000000000E+00 0.  1.
        -13    1    4    4    0    0  0.54998931734E+00 -0.40045880038E+02  0.10552829914E+03  0.11287248077E+03  0.00000000000E+00 0.  1.
         13    1    4    4    0    0  0.74496165045E+00 -0.14606585246E+03  0.86583966298E+02  0.16980156490E+03  0.00000000000E+00 0. -1.
         21    1    1    2  503  502 -0.19073382727E+01 -0.22231015159E+02 -0.12050339263E+02  0.25358758854E+02  0.00000000000E+00 0. -1.
          1    1    1    2  501    0  0.26195931357E+02  0.15959369880E+03  0.48924376198E+02  0.16896736402E+03  0.00000000000E+00 0. -1.
<scales pt_clust_5="13000.00000" pt_clust_6="13000.00000" pt_clust_7="13000.00000" pt_clust_8="13000.00000" pt_clust_9="22.31269" pt_clust_10="13000.00000"></scales>
<clustering>
<clus scale="   22.313">  2  9  1 -1</clus>
<clus scale="   91.423">  7  8 -1 -1</clus>
<clus scale="   91.778">  5  6 -1 -1</clus>
<clus scale="  106.067">  1  5  2 -1</clus>
<clus scale="  162.092">  7 10 -1 -1</clus>
<clus scale="   22.313">  2  5  1 -1</clus>
</clustering>
</event>
<event>
10    2  0.5921424E-006  0.2328628E+03  0.7546771E-02  0.1162741E+00
         -3   -1    0    0    0  501 -0.00000000000E+00  0.00000000000E+00  0.23321743693E+03  0.23321743693E+03  0.00000000000E+00 0.  1.
         21   -1    0    0  501  502  0.00000000000E+00 -0.00000000000E+00 -0.28160329963E+03  0.28160329963E+03  0.00000000000E+00 0.  1.
         23    2    1    2    0    0  0.17800347236E+02  0.30063146051E+02 -0.14009254459E+03  0.17123973442E+03  0.92067803730E+02 0.  0.
         23    2    1    2    0    0  0.61550599052E+02  0.45622364028E+02  0.15231819963E+03  0.19544990932E+03  0.95550807277E+02 0.  0.
        -11    1    3    3    0    0 -0.13083158816E+02  0.56351211612E+02 -0.85451012134E+02  0.10319158672E+03  0.00000000000E+00 0.  1.
         11    1    3    3    0    0  0.30883506052E+02 -0.26288065561E+02 -0.54641532453E+02  0.68048147703E+02  0.00000000000E+00 0. -1.
        -13    1    4    4    0    0 -0.18437526486E+01  0.35617201825E+02  0.11674549651E+03  0.12207168158E+03  0.00000000000E+00 0.  1.
         13    1    4    4    0    0  0.63394351701E+02  0.10005162203E+02  0.35572703122E+02  0.73378227736E+02  0.00000000000E+00 0. -1.
         21    1    1    2  503  502 -0.18116106844E+02 -0.20976857415E+02 -0.59913405339E+02  0.66013922876E+02  0.00000000000E+00 0.  1.
         -3    1    1    2    0  503 -0.61234839445E+02 -0.54708652664E+02 -0.69811239694E+00  0.82117169941E+02  0.00000000000E+00 0.  1.
<scales pt_clust_5="13000.00000" pt_clust_6="13000.00000" pt_clust_7="13000.00000" pt_clust_8="13000.00000" pt_clust_9="27.71682" pt_clust_10="13000.00000"></scales>
<clustering>
<clus scale="   27.717">  2  9  1 -1</clus>
<clus scale="   92.068">  5  6 -1 -1</clus>
<clus scale="   93.431">  1  5  2 -1</clus>
<clus scale="   95.551">  7  8 -1 -1</clus>
<clus scale="   84.360">  7 10 -1 -1</clus>
<clus scale="   27.717">  2  5  1 -1</clus>
</clustering>
</event>
<event>
10    2  0.5921424E-006  0.1345669E+03  0.7546771E-02  0.1238522E+00
          2   -1    0    0  503    0 -0.00000000000E+00  0.00000000000E+00  0.56314513908E+03  0.56314513908E+03  0.00000000000E+00 0. -1.
         21   -1    0    0  501  502  0.00000000000E+00 -0.00000000000E+00 -0.71183740674E+02  0.71183740674E+02  0.00000000000E+00 0.  1.
         23    2    1    2    0    0 -0.44220350756E+01  0.29499620338E+02  0.41733607442E+03  0.42782600101E+03  0.89307928731E+02 0.  0.
         23    2    1    2    0    0  0.23622490149E+02  0.41953461671E+01 -0.14059589885E+02  0.96092521358E+02  0.91980854654E+02 0.  0.
        -11    1    4    4    0    0  0.36329215168E+02 -0.30264456707E+02 -0.30060792120E+02  0.56030352822E+02  0.00000000000E+00 0.  1.
         11    1    4    4    0    0 -0.12706725019E+02  0.34459802874E+02  0.16001202235E+02  0.40062168536E+02  0.00000000000E+00 0. -1.
        -13    1    3    3    0    0  0.64311174852E+01 -0.30375477371E+02  0.10003277897E+03  0.10474056409E+03  0.00000000000E+00 0.  1.
         13    1    3    3    0    0 -0.10853152561E+02  0.59875097710E+02  0.31730329545E+03  0.32308543692E+03  0.00000000000E+00 0. -1.
         21    1    1    2  503  502  0.91166209170E+01 -0.32153388348E+02  0.66423817746E+02  0.74357761687E+02  0.00000000000E+00 0. -1.
          2    1    1    2  501    0 -0.28317075990E+02 -0.15415781572E+01  0.22261096126E+02  0.36052595698E+02  0.00000000000E+00 0. -1.
<scales pt_clust_5="13000.00000" pt_clust_6="13000.00000" pt_clust_7="13000.00000" pt_clust_8="13000.00000" pt_clust_9="33.42087" pt_clust_10="13000.00000"></scales>
<clustering>
<clus scale="   33.421">  2  9  1 -1</clus>
<clus scale="   89.308">  7  8 -1 -1</clus>
<clus scale="   91.981">  5  6 -1 -1</clus>
<clus scale="   27.806">  5 10 -1 -1</clus>
<clus scale="   93.371">  1  7  2 -1</clus>
<clus scale="   33.421">  2  5  1 -1</clus>
</clustering>
</event>
<event>
10    2  0.5921424E-006  0.1325383E+03  0.7546771E-02  0.1235970E+00
         21   -1    0    0  501  502  0.00000000000E+00  0.00000000000E+00  0.58582714131E+02  0.58582714131E+02  0.00000000000E+00 0.  1.
          2   -1    0    0  503    0 -0.00000000000E+00 -0.00000000000E+00 -0.33186760175E+03  0.33186760175E+03  0.00000000000E+00 0. -1.
         23    2    1    2    0    0 -0.10379246314E+02  0.33541132034E+01 -0.12586533364E+03  0.16292106005E+03  0.10286987298E+03 0.  0.
         23    2    1    2    0    0  0.17200710976E+02  0.10007835385E+02 -0.11106719146E+03  0.14507793817E+03  0.91190273037E+02 0.  0.
        -13    1    4    4    0    0  0.39732918565E+02  0.32597870129E+02 -0.33880186311E+02  0.61556421104E+02  0.00000000000E+00 0.  1.
         13    1    4    4    0    0 -0.22532207589E+02 -0.22590034744E+02 -0.77187005149E+02  0.83521517062E+02  0.00000000000E+00 0. -1.
        -13    1    3    3    0    0  0.42384373846E+01 -0.45381260771E+02 -0.89317350227E+02  0.10027468390E+03  0.00000000000E+00 0. -1.
         13    1    3    3    0    0 -0.14617683699E+02  0.48735373974E+02 -0.36547983415E+02  0.62646376150E+02  0.00000000000E+00 0.  1.
         21    1    1    2  503  502  0.30760112202E+02 -0.30515882540E+00 -0.37014936456E+01  0.30983522715E+02  0.00000000000E+00 0.  1.
          2    1    1    2  501    0 -0.37581576864E+02 -0.13056789763E+02 -0.32650868875E+02  0.51467794948E+02  0.00000000000E+00 0. -1.
<scales pt_clust_5="13000.00000" pt_clust_6="13000.00000" pt_clust_7="13000.00000" pt_clust_8="13000.00000" pt_clust_9="30.76163" pt_clust_10="13000.00000"></scales>
<clustering>
<clus scale="   30.762">  1  9  2 -1</clus>
<clus scale="   91.190">  5  6 -1 -1</clus>
<clus scale="   33.793">  5 10 -1 -1</clus>
<clus scale="  102.870">  7  8 -1 -1</clus>
<clus scale="  102.946">  2  7  1 -1</clus>
<clus scale="   30.762">  1  5  2 -1</clus>
</clustering>
</event>
<event>
10    2  0.5921424E-006  0.2039653E+03  0.7546771E-02  0.1169453E+00
          3   -1    0    0  503    0 -0.00000000000E+00  0.00000000000E+00  0.13464573078E+03  0.13464573078E+03  0.00000000000E+00 0. -1.
         21   -1    0    0  501  502  0.00000000000E+00 -0.00000000000E+00 -0.32322069818E+03  0.32322069818E+03  0.00000000000E+00 0. -1.
         23    2    1    2    0    0  0.72385902436E+02 -0.19172556319E+02  0.21244084456E+02  0.12115669506E+03  0.92845720673E+02 0.  0.
         23    2    1    2    0    0 -0.27380400626E+02  0.52932410637E+02 -0.45715027527E+02  0.11698898726E+03  0.89694107739E+02 0.  0.
        -11    1    3    3    0    0 -0.15899404052E+02 -0.24211982112E+02  0.14709353623E+02  0.32486554312E+02  0.00000000000E+00 0.  1.
         11    1    3    3    0    0  0.88285306488E+02  0.50394257933E+01  0.65347308331E+01  0.88670140753E+02  0.00000000000E+00 0. -1.
        -13    1    4    4    0    0 -0.54299373623E+02  0.56715739063E+02 -0.23723780846E+02  0.82023867325E+02  0.00000000000E+00 0. -1.
         13    1    4    4    0    0  0.26918972997E+02 -0.37833284258E+01 -0.21991246681E+02  0.34965119931E+02  0.00000000000E+00 0.  1.
         21    1    1    2  503  502  0.78530337696E+01  0.46350051983E+02 -0.76411277237E+02  0.89714440015E+02  0.00000000000E+00 0. -1.
          3    1    1    2  501    0 -0.52858535580E+02 -0.80109906301E+02 -0.87692747092E+02  0.13000630663E+03  0.00000000000E+00 0. -1.
<scales pt_clust_5="13000.00000" pt_clust_6="13000.00000" pt_clust_7="13000.00000" pt_clust_8="13000.00000" pt_clust_9="47.01061" pt_clust_10="13000.00000"></scales>
<clustering>
<clus scale="   47.011">  2  9  1 -1</clus>
<clus scale="   89.694">  7  8 -1 -1</clus>
<clus scale="   76.964">  7 10 -1 -1</clus>
<clus scale="   92.846">  5  6 -1 -1</clus>
<clus scale="  119.122">  1  5  2 -1</clus>
<clus scale="   47.011">  2  5  1 -1</clus>
</clustering>
</event>
<event>
10    2  0.5921424E-006  0.1891211E+03  0.7546771E-02  0.1164228E+00
         21   -1    0    0  503  502  0.00000000000E+00  0.00000000000E+00  0.33946748454E+03  0.33946748454E+03  0.00000000000E+00 0.  1.
          2   -1    0    0  502    0 -0.00000000000E+00 -0.00000000000E+00 -0.20968562660E+03  0.20968562660E+03  0.00000000000E+00 0. -1.
         23    2    1    2    0    0  0.30672913807E+02  0.14537761950E+03  0.29712536893E+02  0.17540724314E+03  0.88370731611E+02 0.  0.
         23    2    1    2    0    0  0.20260201804E+02 -0.95653313874E+02 -0.74728019547E+02  0.15199864122E+03  0.89214784628E+02 0.  0.
        -11    1    4    4    0    0 -0.26484755731E+02 -0.70160984597E+02 -0.61877330418E+02  0.97225562819E+02  0.00000000000E+00 0. -1.
         11    1    4    4    0    0  0.46744957535E+02 -0.25492329277E+02 -0.12850689129E+02  0.54773078405E+02  0.00000000000E+00 0.  1.
        -13    1    3    3    0    0  0.50042447748E+02  0.61468322141E+02 -0.11229225213E+02  0.80054335937E+02  0.00000000000E+00 0. -1.
         13    1    3    3    0    0 -0.19369533941E+02  0.83909297356E+02  0.40941762106E+02  0.95352907203E+02  0.00000000000E+00 0.  1.
         21    1    1    2  503  501 -0.38122467386E+02 -0.34255327946E+01  0.16909338470E+03  0.17337136310E+03  0.00000000000E+00 0.  1.
          2    1    1    2  501    0 -0.12810648225E+02 -0.46298772828E+02  0.57039558943E+01  0.48375863674E+02  0.00000000000E+00 0. -1.
<scales pt_clust_5="13000.00000" pt_clust_6="13000.00000" pt_clust_7="13000.00000" pt_clust_8="13000.00000" pt_clust_9="38.27606" pt_clust_10="13000.00000"></scales>
<clustering>
<clus scale="   38.276">  1  9  2 -1</clus>
<clus scale="   88.371">  7  8 -1 -1</clus>
<clus scale="   89.215">  5  6 -1 -1</clus>
<clus scale="   50.532">  5 10 -1 -1</clus>
<clus scale="  168.513">  2  7  1 -1</clus>
<clus scale="   38.276">  1  5  2 -1</clus>
</clustering>
</event>
<event>
10    2  0.5921424E-006  0.4897659E+03  0.7546771E-02  0.1063912E+00
         21   -1    0    0  501  502  0.00000000000E+00  0.00000000000E+00  0.18386230122E+03  0.18386230122E+03  0.00000000000E+00 0. -1.
          2   -1    0    0  503    0 -0.00000000000E+00 -0.00000000000E+00 -0.23206829581E+04  0.23206829581E+04  0.00000000000E+00 0. -1.
         23    2    1    2    0    0  0.29513866598E+02 -0.74246565399E+02 -0.68690216869E+03  0.69786435179E+03  0.93789356307E+02 0.  0.
         23    2    1    2    0    0 -0.19524277918E+03  0.20061501778E+03 -0.12743972084E+04  0.13081231120E+04  0.93443584195E+02 0.  0.
        -13    1    4    4    0    0 -0.11525201719E+03  0.68663643950E+02 -0.45679375437E+03  0.47608639710E+03  0.00000000000E+00 0.  1.
         13    1    4    4    0    0 -0.79990761981E+02  0.13195137383E+03 -0.81760345398E+03  0.83203671494E+03  0.00000000000E+00 0. -1.
        -13    1    3    3    0    0 -0.15501679648E+02 -0.76574793862E+02 -0.43302186540E+03  0.44001356461E+03  0.00000000000E+00 0. -1.
         13    1    3    3    0    0  0.45015546246E+02  0.23282284624E+01 -0.25388030329E+03  0.25785078718E+03  0.00000000000E+00 0.  1.
         21    1    1    2  503  502 -0.60354043715E+01 -0.14751084127E+03  0.96339586841E+02  0.17628723831E+03  0.00000000000E+00 0. -1.
          2    1    1    2  501    0  0.17176431695E+03  0.21142388884E+02 -0.27186086666E+03  0.32227055715E+03  0.00000000000E+00 0. -1.
<scales pt_clust_5="13000.00000" pt_clust_6="13000.00000" pt_clust_7="13000.00000" pt_clust_8="13000.00000" pt_clust_9="149.42796" pt_clust_10="13000.00000"></scales>
<clustering>
<clus scale="   93.444">  5  6 -1 -1</clus>
<clus scale="   93.789">  7  8 -1 -1</clus>
<clus scale="  123.207">  2  7  1 -1</clus>
<clus scale="  149.428">  1  9  2 -1</clus>
<clus scale="  194.748">  5 10 -1 -1</clus>
<clus scale="  149.428">  1  5  2 -1</clus>
</clustering>
</event>
<event>
10    2  0.5921424E-006  0.3094541E+03  0.7546771E-02  0.1124530E+00
         21   -1    0    0  503  502  0.00000000000E+00  0.00000000000E+00  0.59777036047E+03  0.59777036047E+03  0.00000000000E+00 0.  1.
         -4   -1    0    0    0  501 -0.00000000000E+00 -0.00000000000E+00 -0.82203198365E+02  0.82203198365E+02  0.00000000000E+00 0.  1.
         23    2    1    2    0    0  0.30582369757E+02  0.19565133614E+02  0.62916929975E+02  0.11829465579E+03  0.93364927659E+02 0.  0.
         23    2    1    2    0    0  0.71394915012E+02 -0.14481701492E+02  0.38968683866E+03  0.40636693507E+03  0.89282137769E+02 0.  0.
        -13    1    3    3    0    0 -0.23944180463E+02 -0.12879853177E+02 -0.23245197836E+01  0.27287685650E+02  0.00000000000E+00 0.  1.
         13    1    3    3    0    0  0.54526550220E+02  0.32444986792E+02  0.65241449758E+02  0.91006970136E+02  0.00000000000E+00 0. -1.
        -13    1    4    4    0    0  0.72874024414E+02  0.16559785177E+02  0.33709637535E+03  0.34528077878E+03  0.00000000000E+00 0.  1.
         13    1    4    4    0    0 -0.14791094022E+01 -0.31041486669E+02  0.52590463312E+02  0.61086156293E+02  0.00000000000E+00 0. -1.
         21    1    1    2  503  501 -0.78304381632E+00 -0.21748188657E+02  0.46635283629E+02  0.51463060021E+02  0.00000000000E+00 0. -1.
         -4    1    1    2    0  502 -0.10119424095E+03  0.16664756535E+02  0.16328109834E+02  0.10384890795E+03  0.00000000000E+00 0.  1.
<scales pt_clust_5="13000.00000" pt_clust_6="13000.00000" pt_clust_7="13000.00000" pt_clust_8="13000.00000" pt_clust_9="21.76228" pt_clust_10="13000.00000"></scales>
<clustering>
<clus scale="   21.762">  1  9  2 -1</clus>
<clus scale="   89.282">  7  8 -1 -1</clus>
<clus scale="   93.365">  5  6 -1 -1</clus>
<clus scale="   99.497">  2  5  1 -1</clus>
<clus scale="   81.468">  7 10 -1 -1</clus>
<clus scale="   21.762">  1  5  2 -1</clus>
</clustering>
</event>
<event>
10    2  0.5921424E-006  0.2107456E+03  0.7546771E-02  0.1150794E+00
          1   -1    0    0  503    0 -0.00000000000E+00  0.00000000000E+00  0.26350687433E+03  0.26350687433E+03  0.00000000000E+00 0. -1.
         21   -1    0    0  501  502  0.00000000000E+00 -0.00000000000E+00 -0.62512148852E+03  0.62512148852E+03  0.00000000000E+00 0.  1.
         23    2    1    2    0    0 -0.55566934199E+01 -0.99390654306E+02 -0.48153023321E+03  0.50003553529E+03  0.90855886185E+02 0.  0.
         23    2    1    2    0    0 -0.19138733491E+02  0.19579731193E+02  0.91369095782E+02  0.13184688177E+03  0.91025444653E+02 0.  0.
        -11    1    3    3    0    0  0.30791941265E+02 -0.59461719610E+02 -0.37131366436E+03  0.37730316337E+03  0.00000000000E+00 0.  1.
         11    1    3    3    0    0 -0.36348634685E+02 -0.39928934695E+02 -0.11021656885E+03  0.12273237192E+03  0.00000000000E+00 0. -1.
        -11    1    4    4    0    0 -0.51072692122E+02 -0.93964746250E+01  0.50481782854E+02  0.72423228429E+02  0.00000000000E+00 0.  1.
         11    1    4    4    0    0  0.31933958632E+02  0.28976205818E+02  0.40887312929E+02  0.59423653338E+02  0.00000000000E+00 0. -1.
         21    1    1    2  503  502  0.80408150378E+02 -0.25333037333E+02 -0.64127734379E+02  0.10592261205E+03  0.00000000000E+00 0. -1.
          1    1    1    2  501    0 -0.55712723468E+02  0.10514396045E+03  0.92674257616E+02  0.15082333374E+03  0.00000000000E+00 0. -1.
<scales pt_clust_5="13000.00000" pt_clust_6="13000.00000" pt_clust_7="13000.00000" pt_clust_8="13000.00000" pt_clust_9="84.30441" pt_clust_10="13000.00000"></scales>
<clustering>
<clus scale="   84.304">  2  9  1 -1</clus>
<clus scale="   90.856">  5  6 -1 -1</clus>
<clus scale="   91.025">  7  8 -1 -1</clus>
<clus scale="  115.805">  7 10 -1 -1</clus>
<clus scale="  166.724">  1  5  2 -1</clus>
<clus scale="   84.304">  2  5  1 -1</clus>
</clustering>
</event>
<event>
10    2  0.5921424E-006  0.1423442E+03  0.7546771E-02  0.1227732E+00
         21   -1    0    0  501  502  0.00000000000E+00  0.00000000000E+00  0.35400124751E+02  0.35400124751E+02  0.00000000000E+00 0. -1.
          1   -1    0    0  503    0 -0.00000000000E+00 -0.00000000000E+00 -0.52586131770E+03  0.52586131770E+03  0.00000000000E+00 0. -1.
         23    2    1    2    0    0  0.36038740274E+02  0.14552681310E+02 -0.19619522183E+03  0.22001039682E+03  0.91659360179E+02 0.  0.
         23    2    1    2    0    0 -0.48178339295E+02 -0.97348292199E+01 -0.24653047732E+03  0.26877679761E+03  0.95119774034E+02 0.  0.
        -11    1    3    3    0    0  0.47562397441E+02 -0.23216397533E+02 -0.15093536798E+03  0.15994582855E+03  0.00000000000E+00 0. -1.
         11    1    3    3    0    0 -0.11523657167E+02  0.37769078842E+02 -0.45259853853E+02  0.60064568274E+02  0.00000000000E+00 0.  1.
        -11    1    4    4    0    0 -0.26819442603E+02 -0.52333558738E+02 -0.12178799122E+03  0.13524200042E+03  0.00000000000E+00 0. -1.
         11    1    4    4    0    0 -0.21358896692E+02  0.42598729518E+02 -0.12474248610E+03  0.13353479720E+03  0.00000000000E+00 0.  1.
         21    1    1    2  503  502 -0.63674844755E+00 -0.27711323362E+02 -0.29862911356E+02  0.40744525591E+02  0.00000000000E+00 0. -1.
          1    1    1    2  501    0  0.12776347469E+02  0.22893471272E+02 -0.17872582442E+02  0.31729722417E+02  0.00000000000E+00 0. -1.
<scales pt_clust_5="13000.00000" pt_clust_6="13000.00000" pt_clust_7="13000.00000" pt_clust_8="13000.00000" pt_clust_9="27.71864" pt_clust_10="13000.00000"></scales>
<clustering>
<clus scale="   27.719">  1  9  2 -1</clus>
<clus scale="   91.659">  5  6 -1 -1</clus>
<clus scale="   95.120">  7  8 -1 -1</clus>
<clus scale="   20.766">  7 10 -1 -1</clus>
<clus scale="   98.461">  2  5  1 -1</clus>
<clus scale="   27.719">  1  5  2 -1</clus>
</clustering>
</event>
<event>
10    2  0.5921424E-006  0.4413227E+03  0.7546771E-02  0.1057488E+00
         -4   -1    0    0    0  501 -0.00000000000E+00  0.00000000000E+00  0.86996008407E+03  0.86996008407E+03  0.00000000000E+00 0.  1.
         21   -1    0    0  501  502  0.00000000000E+00 -0.00000000000E+00 -0.39473695990E+03  0.39473695990E+03  0.00000000000E+00 0. -1.
         23    2    1    2    0    0 -0.13694849842E+03  0.11587871921E+03  0.29728689147E+03  0.35914878491E+03  0.91790985836E+02 0.  0.
         23    2    1    2    0    0  0.10145100205E+03  0.11366555473E+03  0.21229157433E+03  0.27882907593E+03  0.97292224281E+02 0.  0.
        -13    1    3    3    0    0 -0.57600391316E+02  0.23040474988E+02  0.38556162383E+02  0.73042769834E+02  0.00000000000E+00 0. -1.
         13    1    3    3    0    0 -0.79348107104E+02  0.92838244218E+02  0.25873072909E+03  0.28610601508E+03  0.00000000000E+00 0.  1.
        -13    1    4    4    0    0  0.79970507289E+02  0.28308795749E+02  0.63551863257E+02  0.10599768524E+03  0.00000000000E+00 0. -1.
         13    1    4    4    0    0  0.21480494758E+02  0.85356758977E+02  0.14873971107E+03  0.17283139069E+03  0.00000000000E+00 0.  1.
         21    1    1    2  503  502 -0.71703004223E+02 -0.40398059389E+03 -0.77318934419E+02  0.41751629750E+03  0.00000000000E+00 0. -1.
         -4    1    1    2    0  503  0.10720050060E+03  0.17443631996E+03  0.42963592797E+02  0.20920288563E+03  0.00000000000E+00 0.  1.
<scales pt_clust_5="13000.00000" pt_clust_6="13000.00000" pt_clust_7="13000.00000" pt_clust_8="13000.00000" pt_clust_9="385.07646" pt_clust_10="13000.00000"></scales>
<clustering>
<clus scale="   91.791">  5  6 -1 -1</clus>
<clus scale="   97.292">  7  8 -1 -1</clus>
<clus scale="  201.515">  1  5  2 -1</clus>
<clus scale="  215.031">  7 10 -1 -1</clus>
<clus scale="  385.076">  2  9  1 -1</clus>
<clus scale="  385.076">  2  5  1 -1</clus>
</clustering>
</event>
<event>
10    2  0.5921424E-006  0.1415207E+03  0.7546771E-02  0.1230907E+00
         21   -1    0    0  503  502  0.00000000000E+00  0.00000000000E+00  0.37340890582E+03  0.37340890582E+03  0.00000000000E+00 0.  1.
         -3   -1    0    0    0  501 -0.00000000000E+00 -0.00000000000E+00 -0.40872752069E+03  0.40872752069E+03  0.00000000000E+00 0.  1.
         23    2    1    2    0    0  0.81765816542E+01  0.48293403945E+02 -0.88680204911E+02  0.13628492757E+03  0.91160810587E+02 0.  0.
         23    2    1    2    0    0  0.28113800605E+01  0.13317354184E+02 -0.26740791248E+03  0.28278563792E+03  0.90969607970E+02 0.  0.
        -13    1    3    3    0    0 -0.22309625121E+02  0.80016605020E+01  0.97626506572E+01  0.25633089780E+02  0.00000000000E+00 0. -1.
         13    1    3    3    0    0  0.30486206775E+02  0.40291743443E+02 -0.98442855568E+02  0.11065183779E+03  0.00000000000E+00 0.  1.
        -13    1    4    4    0    0  0.32027355699E+02 -0.26592398049E+02 -0.14201550769E+03  0.14799091719E+03  0.00000000000E+00 0.  1.
         13    1    4    4    0    0 -0.29215975639E+02  0.39909752233E+02 -0.12539240479E+03  0.13479472073E+03  0.00000000000E+00 0. -1.
         21    1    1    2  503  501 -0.35439071838E+02 -0.51531873408E+02  0.32937031753E+03  0.33525552622E+03  0.00000000000E+00 0.  1.
         -3    1    1    2    0  502  0.24451110123E+02 -0.10078884720E+02 -0.86008150060E+01  0.27810334809E+02  0.00000000000E+00 0.  1.
<scales pt_clust_5="13000.00000" pt_clust_6="13000.00000" pt_clust_7="13000.00000" pt_clust_8="13000.00000" pt_clust_9="62.54168" pt_clust_10="13000.00000"></scales>
<clustering>
<clus scale="   62.542">  1  9  2 -1</clus>
<clus scale="   90.970">  7  8 -1 -1</clus>
<clus scale="   27.401">  7 10 -1 -1</clus>
<clus scale="   91.161">  5  6 -1 -1</clus>
<clus scale="   93.825">  2  5  1 -1</clus>
<clus scale="   62.542">  1  5  2 -1</clus>
</clustering>
</event>
<event>
10    2  0.5921424E-006  0.2431397E+03  0.7546771E-02  0.1131813E+00
         21   -1    0    0  503  502  0.00000000000E+00  0.00000000000E+00  0.16238388464E+03  0.16238388464E+03  0.00000000000E+00 0.  1.
          1   -1    0    0  502    0 -0.00000000000E+00 -0.00000000000E+00 -0.44606686299E+03  0.44606686299E+03  0.00000000000E+00 0. -1.
         23    2    1    2    0    0  0.79220878230E+02 -0.13246395012E+03 -0.11492374417E+03  0.21432147683E+03  0.94358798366E+02 0.  0.
         23    2    1    2    0    0 -0.25729741357E+02  0.73672945463E+00 -0.14478220931E+03  0.17270209589E+03  0.90562483574E+02 0.  0.
        -11    1    4    4    0    0  0.18544073096E+02 -0.12602883229E+02 -0.11619619872E+03  0.11833964640E+03  0.00000000000E+00 0.  1.
         11    1    4    4    0    0 -0.44273814454E+02  0.13339612684E+02 -0.28586010583E+02  0.54362449484E+02  0.00000000000E+00 0. -1.
        -11    1    3    3    0    0  0.16446066175E+02 -0.11121714608E+03 -0.55817107482E+02  0.12552002295E+03  0.00000000000E+00 0.  1.
         11    1    3    3    0    0  0.62774812054E+02 -0.21246804039E+02 -0.59106636690E+02  0.88801453880E+02  0.00000000000E+00 0. -1.
         21    1    1    2  503  501 -0.50800928383E+02  0.27033539311E+00  0.49394609711E+02  0.70856438482E+02  0.00000000000E+00 0. -1.
          1    1    1    2  501    0 -0.26902084895E+01  0.13145688527E+03 -0.73371634579E+02  0.15057073643E+03  0.00000000000E+00 0. -1.
<scales pt_clust_5="13000.00000" pt_clust_6="13000.00000" pt_clust_7="13000.00000" pt_clust_8="13000.00000" pt_clust_9="50.80165" pt_clust_10="13000.00000"></scales>
<clustering>
<clus scale="   50.802">  1  9  2 -1</clus>
<clus scale="   90.562">  5  6 -1 -1</clus>
<clus scale="   94.359">  7  8 -1 -1</clus>
<clus scale="  133.364">  5 10 -1 -1</clus>
<clus scale="  171.433">  2  7  1 -1</clus>
<clus scale="   50.802">  1  5  2 -1</clus>
</clustering>
</event>
<event>
10    2  0.5921424E-006  0.1600480E+03  0.7546771E-02  0.1204030E+00
          1   -1    0    0  503    0 -0.00000000000E+00  0.00000000000E+00  0.48447049362E+03  0.48447049362E+03  0.00000000000E+00 0. -1.
         21   -1    0    0  501  502  0.00000000000E+00 -0.00000000000E+00 -0.67039038246E+02  0.67039038246E+02  0.00000000000E+00 0.  1.
         23    2    1    2    0    0  0.14172773658E+02 -0.76915417640E+02  0.29526415963E+03  0.31838982804E+03  0.89857162531E+02 0.  0.
         23    2    1    2    0    0  0.36024024663E+01  0.39695063617E+02  0.13853432914E+03  0.17442017092E+03  0.98193483978E+02 0.  0.
        -11    1    3    3    0    0 -0.23655135959E+02 -0.42998791522E+02  0.23258132342E+03  0.23770261575E+03  0.00000000000E+00 0.  1.
         11    1    3    3    0    0  0.37827909617E+02 -0.33916626118E+02  0.62682836206E+02  0.80687212296E+02  0.00000000000E+00 0. -1.
        -13    1    4    4    0    0  0.12581662782E+02  0.61821493231E+02  0.13659738470E+03  0.15046275543E+03  0.00000000000E+00 0. -1.
         13    1    4    4    0    0 -0.89792603152E+01 -0.22126429614E+02  0.19369444323E+01  0.23957415491E+02  0.00000000000E+00 0.  1.
         21    1    1    2  503  502  0.55189424662E+01  0.31921085931E+02 -0.77992362381E+01  0.33320302202E+02  0.00000000000E+00 0.  1.
          1    1    1    2  501    0 -0.23294118590E+02  0.52992680924E+01 -0.85677971455E+01  0.25379230704E+02  0.00000000000E+00 0. -1.
<scales pt_clust_5="13000.00000" pt_clust_6="13000.00000" pt_clust_7="13000.00000" pt_clust_8="13000.00000" pt_clust_9="32.39467" pt_clust_10="13000.00000"></scales>
<clustering>
<clus scale="   32.395">  2  9  1 -1</clus>
<clus scale="   89.857">  5  6 -1 -1</clus>
<clus scale="   98.193">  7  8 -1 -1</clus>
<clus scale="   27.208">  7 10 -1 -1</clus>
<clus scale="  114.339">  1  5  2 -1</clus>
<clus scale="   32.395">  2  5  1 -1</clus>
</clustering>
</event>
<event>
10    2  0.5921424E-006  0.3087933E+03  0.7546771E-02  0.1128355E+00
         21   -1    0    0  501  502  0.00000000000E+00  0.00000000000E+00  0.20242394345E+03  0.20242394345E+03  0.00000000000E+00 0. -1.
          2   -1    0    0  503    0 -0.00000000000E+00 -0.00000000000E+00 -0.31328039503E+03  0.31328039503E+03  0.00000000000E+00 0. -1.
         23    2    1    2    0    0 -0.17395750726E+02 -0.17828954442E+02 -0.91359596914E+02  0.12784432084E+03  0.85890108062E+02 0.  0.
         23    2    1    2    0    0  0.10325046643E+02 -0.10187934898E+03 -0.94117472449E+02  0.16724372115E+03  0.92878174550E+02 0.  0.
        -13    1    3    3    0    0 -0.87973664813E+01 -0.51714116801E+02 -0.67642455658E+02  0.85599330260E+02  0.00000000000E+00 0. -1.
         13    1    3    3    0    0 -0.85983842445E+01  0.33885162359E+02 -0.23717141256E+02  0.42244990580E+02  0.00000000000E+00 0.  1.
        -13    1    4    4    0    0 -0.22283063756E+02 -0.47845416712E+02  0.13551813182E+01  0.52797304355E+02  0.00000000000E+00 0.  1.
         13    1    4    4    0    0  0.32608110399E+02 -0.54033932264E+02 -0.95472653768E+02  0.11444641679E+03  0.00000000000E+00 0. -1.
         21    1    1    2  503  502 -0.33941163429E+02 -0.27514453047E+02  0.49007374855E+02  0.65656458110E+02  0.00000000000E+00 0. -1.
          2    1    1    2  501    0  0.41011867512E+02  0.14722275646E+03  0.25613242935E+02  0.15495983838E+03  0.00000000000E+00 0. -1.
<scales pt_clust_5="13000.00000" pt_clust_6="13000.00000" pt_clust_7="13000.00000" pt_clust_8="13000.00000" pt_clust_9="43.69265" pt_clust_10="13000.00000"></scales>
<clustering>
<clus scale="   43.693">  1  9  2 -1</clus>
<clus scale="   85.890">  5  6 -1 -1</clus>
<clus scale="   91.102">  2  5  1 -1</clus>
<clus scale="   92.878">  7  8 -1 -1</clus>
<clus scale="  125.011">  7 10 -1 -1</clus>
<clus scale="   43.693">  1  5  2 -1</clus>
</clustering>
</event>
<event>
10    2  0.5921424E-006  0.2597384E+03  0.7546771E-02  0.1137017E+00
          1   -1    0    0  503    0 -0.00000000000E+00  0.00000000000E+00  0.43994567490E+03  0.43994567490E+03  0.00000000000E+00 0. -1.
         21   -1    0    0  501  502  0.00000000000E+00 -0.00000000000E+00 -0.16001682945E+03  0.16001682945E+03  0.00000000000E+00 0.  1.
         23    2    1    2    0    0  0.75843061687E+02 -0.24484273840E+02  0.44234633386E+02  0.12679584829E+03  0.88140993188E+02 0.  0.
         23    2    1    2    0    0 -0.41618966700E+02  0.96402408161E+02  0.88474110695E+02  0.16585455531E+03  0.93029578981E+02 0.  0.
        -13    1    4    4    0    0 -0.30170619193E+01  0.97691516494E+02  0.80019782621E+02  0.12631666821E+03  0.00000000000E+00 0.  1.
         13    1    4    4    0    0 -0.38601904780E+02 -0.12891083325E+01  0.84543280730E+01  0.39537887097E+02  0.00000000000E+00 0. -1.
        -13    1    3    3    0    0  0.18972062636E+02  0.18340460883E+02  0.48779177366E+02  0.55459172465E+02  0.00000000000E+00 0. -1.
         13    1    3    3    0    0  0.56870999051E+02 -0.42824734722E+02 -0.45445439796E+01  0.71336675820E+02  0.00000000000E+00 0.  1.
         21    1    1    2  503  502  0.19071537795E+02  0.84664626113E+01 -0.68181869205E+02  0.71303378821E+02  0.00000000000E+00 0.  1.
          1    1    1    2  501    0 -0.53295632783E+02 -0.80384596933E+02  0.21540197058E+03  0.23600872193E+03  0.00000000000E+00 0. -1.
<scales pt_clust_5="13000.00000" pt_clust_6="13000.00000" pt_clust_7="13000.00000" pt_clust_8="13000.00000" pt_clust_9="20.86635" pt_clust_10="13000.00000"></scales>
<clustering>
<clus scale="   20.866">  2  9  1 -1</clus>
<clus scale="   88.141">  7  8 -1 -1</clus>
<clus scale="   93.030">  5  6 -1 -1</clus>
<clus scale="   94.448">  5 10 -1 -1</clus>
<clus scale="  123.874">  1  7  2 -1</clus>
<clus scale="   20.866">  2  5  1 -1</clus>
</clustering>
</event>
<event>
10    2  0.5921424E-006  0.5210225E+03  0.7546771E-02  0.1055490E+00
         21   -1    0    0  503  502  0.00000000000E+00  0.00000000000E+00  0.51993450492E+03  0.51993450492E+03  0.00000000000E+00 0. -1.
          2   -1    0    0  502    0 -0.00000000000E+00 -0.00000000000E+00 -0.30054776144E+03  0.30054776144E+03  0.00000000000E+00 0. -1.
         23    2    1    2    0    0 -0.10805602204E+02  0.10022778563E+03  0.33787785441E+02  0.14035470497E+03  0.91626735784E+02 0.  0.
         23    2    1    2    0    0 -0.14103577157E+03 -0.23093004750E+03 -0.16383052368E+02  0.28576930590E+03  0.90420772433E+02 0.  0.
        -11    1    4    4    0    0 -0.10335559496E+03 -0.10357550208E+03 -0.38081211540E+02  0.15119670073E+03  0.00000000000E+00 0. -1.
         11    1    4    4    0    0 -0.37680176608E+02 -0.12735454543E+03  0.21698159172E+02  0.13457260517E+03  0.00000000000E+00 0.  1.
        -11    1    3    3    0    0 -0.46960771389E+02  0.71415280162E+02  0.44243574021E+01  0.85586396282E+02  0.00000000000E+00 0. -1.
         11    1    3    3    0    0  0.36155169186E+02  0.28812505470E+02  0.29363428039E+02  0.54768308688E+02  0.00000000000E+00 0.  1.
         21    1    1    2  503  501 -0.41024188049E+00 -0.38356732773E+02  0.15805724933E+03  0.16264532367E+03  0.00000000000E+00 0. -1.
          2    1    1    2  501    0  0.15225161565E+03  0.16905899464E+03  0.43924761084E+02  0.23171293182E+03  0.00000000000E+00 0. -1.
<scales pt_clust_5="13000.00000" pt_clust_6="13000.00000" pt_clust_7="13000.00000" pt_clust_8="13000.00000" pt_clust_9="38.35893" pt_clust_10="13000.00000"></scales>
<clustering>
<clus scale="   38.359">  1  9  2 -1</clus>
<clus scale="   90.421">  5  6 -1 -1</clus>
<clus scale="   91.627">  7  8 -1 -1</clus>
<clus scale="  129.555">  2  7  1 -1</clus>
<clus scale="  237.682">  5 10 -1 -1</clus>
<clus scale="   38.359">  1  5  2 -1</clus>
</clustering>
</event>
<event>
10    2  0.5921424E-006  0.2932463E+03  0.7546771E-02  0.1131520E+00
         21   -1    0    0  503  502  0.00000000000E+00  0.00000000000E+00  0.37842502969E+03  0.37842502969E+03  0.00000000000E+00 0. -1.
          3   -1    0    0  502    0 -0.00000000000E+00 -0.00000000000E+00 -0.13351559839E+03  0.13351559839E+03  0.00000000000E+00 0. -1.
         23    2    1    2    0    0  0.37106403130E+02  0.11679749557E+02 -0.47912468465E+01  0.97507727434E+02  0.89283252405E+02 0.  0.
         23    2    1    2    0    0 -0.14229800920E+02  0.75111241425E+02  0.20769119647E+03  0.23995488582E+03  0.92728249837E+02 0.  0.
        -11    1    3    3    0    0 -0.11722540095E+02  0.38358236378E+02 -0.10811878007E+02  0.41541171750E+02  0.00000000000E+00 0.  1.
         11    1    3    3    0    0  0.48828943225E+02 -0.26678486821E+02  0.60206311603E+01  0.55966555684E+02  0.00000000000E+00 0. -1.
        -13    1    4    4    0    0  0.12787710542E+02  0.65894609491E+02  0.61614812609E+02  0.91115367715E+02  0.00000000000E+00 0.  1.
         13    1    4    4    0    0 -0.27017511462E+02  0.92166319336E+01  0.14607638386E+03  0.14883951811E+03  0.00000000000E+00 0. -1.
         21    1    1    2  503  501  0.10034105138E+02  0.24066081268E+02  0.52241675853E+02  0.58387089579E+02  0.00000000000E+00 0. -1.
          3    1    1    2  501    0 -0.32910707348E+02 -0.11085707225E+03 -0.10232194173E+02  0.11609092524E+03  0.00000000000E+00 0. -1.
<scales pt_clust_5="13000.00000" pt_clust_6="13000.00000" pt_clust_7="13000.00000" pt_clust_8="13000.00000" pt_clust_9="26.07412" pt_clust_10="13000.00000"></scales>
<clustering>
<clus scale="   26.074">  1  9  2 -1</clus>
<clus scale="   89.283">  5  6 -1 -1</clus>
<clus scale="   92.728">  7  8 -1 -1</clus>
<clus scale="   98.419">  2  5  1 -1</clus>
<clus scale="   95.892">  7 10 -1 -1</clus>
<clus scale="   26.074">  1  5  2 -1</clus>
</clustering>
</event>
<event>
10    2  0.5921424E-006  0.2425008E+03  0.7546771E-02  0.1146372E+00
          2   -1    0    0  502    0 -0.00000000000E+00  0.00000000000E+00  0.69904034777E+03  0.69904034777E+03  0.00000000000E+00 0. -1.
         21   -1    0    0  503  502  0.00000000000E+00 -0.00000000000E+00 -0.58055152034E+02  0.58055152034E+02  0.00000000000E+00 0. -1.
         23    2    1    2    0    0  0.72238147261E+02  0.25726876925E+02  0.11660890347E+03  0.16610355385E+03  0.90069595960E+02 0.  0.
         23    2    1    2    0    0 -0.35846105231E+02 -0.78917737421E+02  0.11871239844E+03  0.17289572261E+03  0.91034854932E+02 0.  0.
        -11    1    3    3    0    0  0.10133052502E+02  0.50141329814E+02  0.57454771710E+02  0.76927774573E+02  0.00000000000E+00 0.  1.
         11    1    3    3    0    0  0.62105094759E+02 -0.24414452890E+02  0.59154131761E+02  0.89175779275E+02  0.00000000000E+00 0. -1.
        -13    1    4    4    0    0 -0.56701146972E+02 -0.54688340203E+02  0.11678270424E+03  0.14086885615E+03  0.00000000000E+00 0.  1.
         13    1    4    4    0    0  0.20855041741E+02 -0.24229397218E+02  0.19296941976E+01  0.32026866460E+02  0.00000000000E+00 0. -1.
         21    1    1    2  503  501  0.91356141893E+00  0.24633960665E+02  0.27124273914E+02  0.36652323909E+02  0.00000000000E+00 0. -1.
          2    1    1    2  501    0 -0.37305603449E+02  0.28556899831E+02  0.37853961992E+03  0.38144389944E+03  0.00000000000E+00 0. -1.
<scales pt_clust_5="13000.00000" pt_clust_6="13000.00000" pt_clust_7="13000.00000" pt_clust_8="13000.00000" pt_clust_9="24.65089" pt_clust_10="13000.00000"></scales>
<clustering>
<clus scale="   24.651">  2  9  1 -1</clus>
<clus scale="   90.070">  5  6 -1 -1</clus>
<clus scale="   91.035">  7  8 -1 -1</clus>
<clus scale="   47.372">  7 10 -1 -1</clus>
<clus scale="  121.547">  1  5  2 -1</clus>
<clus scale="   24.651">  2  5  1 -1</clus>
</clustering>
</event>
<event>
10    2  0.5921424E-006  0.1933412E+03  0.7546771E-02  0.1166997E+00
         21   -1    0    0  503  502  0.00000000000E+00  0.00000000000E+00  0.26143688955E+02  0.26143688955E+02  0.00000000000E+00 0.  1.
          1   -1    0    0  502    0 -0.00000000000E+00 -0.00000000000E+00 -0.13695288557E+04  0.13695288557E+04  0.00000000000E+00 0. -1.
         23    2    1    2    0    0 -0.67870040090E+00  0.11270796848E+03 -0.35547273154E+03  0.38410388989E+03  0.92040146503E+02 0.  0.
         23    2    1    2    0    0 -0.63164314569E+01 -0.14056437002E+03 -0.81334063788E+03  0.83054931605E+03  0.92146262717E+02 0.  0.
        -11    1    4    4    0    0  0.31913700746E+02 -0.12671218873E+02 -0.14518202935E+03  0.14918735111E+03  0.00000000000E+00 0. -1.
         11    1    4    4    0    0 -0.38230132203E+02 -0.12789315115E+03 -0.66815860853E+03  0.68136196494E+03  0.00000000000E+00 0.  1.
        -13    1    3    3    0    0  0.32357809789E+02  0.54991251650E+01 -0.67666519911E+02  0.75206556555E+02  0.00000000000E+00 0.  1.
         13    1    3    3    0    0 -0.33036510190E+02  0.10720884331E+03 -0.28780621163E+03  0.30889733334E+03  0.00000000000E+00 0. -1.
         21    1    1    2  503  501  0.19957623044E+02  0.44816621369E+01 -0.60739724644E+02  0.64091389148E+02  0.00000000000E+00 0.  1.
          1    1    1    2  501    0 -0.12962491186E+02  0.23374739404E+02 -0.11383207268E+03  0.11692794957E+03  0.00000000000E+00 0. -1.
<scales pt_clust_5="13000.00000" pt_clust_6="13000.00000" pt_clust_7="13000.00000" pt_clust_8="13000.00000" pt_clust_9="20.45463" pt_clust_10="13000.00000"></scales>
<clustering>
<clus scale="   20.455">  1  9  2 -1</clus>
<clus scale="   92.040">  7  8 -1 -1</clus>
<clus scale="   92.146">  5  6 -1 -1</clus>
<clus scale="   26.393">  5 10 -1 -1</clus>
<clus scale="  147.964">  2  7  1 -1</clus>
<clus scale="   20.455">  1  5  2 -1</clus>
</clustering>
</event>
<event>
10    2  0.5921424E-006  0.1464812E+03  0.7546771E-02  0.1224346E+00
          2   -1    0    0  503    0 -0.00000000000E+00  0.00000000000E+00  0.18460305687E+03  0.18460305687E+03  0.00000000000E+00 0. -1.
         21   -1    0    0  501  502  0.00000000000E+00 -0.00000000000E+00 -0.11629921008E+03  0.11629921008E+03  0.00000000000E+00 0. -1.
         23    2    1    2    0    0  0.11308792039E+02 -0.40251335454E+02  0.41756489915E+02  0.10931621598E+03  0.91969407107E+02 0.  0.
         23    2    1    2    0    0 -0.20545659643E+02 -0.10342604357E+02 -0.14613234658E+02  0.93694598319E+02  0.89643948663E+02 0.  0.
        -11    1    4    4    0    0 -0.42525677409E+02 -0.89399877067E+01 -0.40710349847E+02  0.59545690054E+02  0.00000000000E+00 0. -1.
         11    1    4    4    0    0  0.21980017766E+02 -0.14026166507E+01  0.26097115189E+02  0.34148908265E+02  0.00000000000E+00 0.  1.
        -11    1    3    3    0    0  0.23493363099E+01  0.28599978146E+02  0.80565119027E+00  0.28707615799E+02  0.00000000000E+00 0.  1.
         11    1    3    3    0    0  0.89594557293E+01 -0.68851313599E+02  0.40950838725E+02  0.80608600184E+02  0.00000000000E+00 0. -1.
         21    1    1    2  503  502 -0.31373193396E+02  0.29041730222E+02  0.17618821217E+02  0.46239833685E+02  0.00000000000E+00 0.  1.
          2    1    1    2  501    0  0.40610061001E+02  0.21552209589E+02  0.23541770315E+02  0.51651618970E+02  0.00000000000E+00 0. -1.
<scales pt_clust_5="13000.00000" pt_clust_6="13000.00000" pt_clust_7="13000.00000" pt_clust_8="13000.00000" pt_clust_9="42.75162" pt_clust_10="13000.00000"></scales>
<clustering>
<clus scale="   42.752">  2  9  1 -1</clus>
<clus scale="   89.644">  5  6 -1 -1</clus>
<clus scale="   44.382">  5 10 -1 -1</clus>
<clus scale="   91.969">  7  8 -1 -1</clus>
<clus scale="   96.941">  1  7  2 -1</clus>
<clus scale="   42.752">  2  5  1 -1</clus>
</clustering>
</event>
<event>
10    2  0.5921424E-006  0.2171092E+03  0.7546771E-02  0.1170386E+00
         21   -1    0    0  501  502  0.00000000000E+00  0.00000000000E+00  0.91624780408E+02  0.91624780408E+02  0.00000000000E+00 0. -1.
          1   -1    0    0  503    0 -0.00000000000E+00 -0.00000000000E+00 -0.47827439009E+03  0.47827439009E+03  0.00000000000E+00 0. -1.
         23    2    1    2    0    0 -0.23622507172E+02  0.69142784383E+01 -0.37103512479E+01  0.92571413654E+02  0.89162042530E+02 0.  0.
         23    2    1    2    0    0  0.52256646272E+02  0.18439633070E+01 -0.40292341664E+03  0.41751414049E+03  0.96107338670E+02 0.  0.
        -11    1    3    3    0    0 -0.62880577103E+00  0.45054937129E+02  0.96377117964E+01  0.46078500898E+02  0.00000000000E+00 0. -1.
         11    1    3    3    0    0 -0.22993701401E+02 -0.38140658690E+02 -0.13348063044E+02  0.46492912756E+02  0.00000000000E+00 0.  1.
        -11    1    4    4    0    0 -0.27427659471E+02 -0.72122285295E+01 -0.83836160959E+02  0.88503076945E+02  0.00000000000E+00 0.  1.
         11    1    4    4    0    0  0.79684305743E+02  0.90561918365E+01 -0.31908725569E+03  0.32901106354E+03  0.00000000000E+00 0. -1.
         21    1    1    2  503  502 -0.14101062141E+02  0.19701298402E+02  0.11077640562E+02  0.26640105718E+02  0.00000000000E+00 0. -1.
          1    1    1    2  501    0 -0.14533076959E+02 -0.28459540147E+02  0.89065176507E+01  0.33173510636E+02  0.00000000000E+00 0. -1.
<scales pt_clust_5="13000.00000" pt_clust_6="13000.00000" pt_clust_7="13000.00000" pt_clust_8="13000.00000" pt_clust_9="24.22769" pt_clust_10="13000.00000"></scales>
<clustering>
<clus scale="   24.228">  1  9  2 -1</clus>
<clus scale="   89.162">  5  6 -1 -1</clus>
<clus scale="   96.107">  7  8 -1 -1</clus>
<clus scale="   29.402">  7 10 -1 -1</clus>
<clus scale="   96.683">  2  5  1 -1</clus>
<clus scale="   24.228">  1  5  2 -1</clus>
</clustering>
</event>
<event>
10    2  0.5921424E-006  0.2846254E+03  0.7546771E-02  0.1108072E+00
         21   -1    0    0  501  502  0.00000000000E+00  0.00000000000E+00  0.48458813388E+02  0.48458813388E+02  0.00000000000E+00 0.  1.
          1   -1    0    0  503    0 -0.00000000000E+00 -0.00000000000E+00 -0.16958254080E+04  0.16958254080E+04  0.00000000000E+00 0. -1.
         23    2    1    2    0    0 -0.16274022168E+03  0.40988573405E+02 -0.53088124680E+03  0.56430618561E+03  0.91881064501E+02 0.  0.
         23    2    1    2    0    0  0.20625061272E+03  0.24110814263E+02 -0.94511859843E+03  0.97207225367E+03  0.92491375972E+02 0.  0.
        -11    1    3    3    0    0 -0.36931935728E+02  0.51330722259E+02 -0.14183645644E+03  0.15529453081E+03  0.00000000000E+00 0.  1.
         11    1    3    3    0    0 -0.12580828595E+03 -0.10342148853E+02 -0.38904479036E+03  0.40901165480E+03  0.00000000000E+00 0. -1.
        -11    1    4    4    0    0  0.12393658469E+03  0.46899595657E+02 -0.43112364192E+03  0.45102931581E+03  0.00000000000E+00 0.  1.
         11    1    4    4    0    0  0.82314028030E+02 -0.22788781394E+02 -0.51399495652E+03  0.52104293786E+03  0.00000000000E+00 0. -1.
         21    1    1    2  503  502 -0.95054319650E+01 -0.18851730408E+02  0.56157492616E+01  0.21846684324E+02  0.00000000000E+00 0.  1.
          1    1    1    2  501    0 -0.34004959069E+02 -0.46247657261E+02 -0.17698249862E+03  0.18605909776E+03  0.00000000000E+00 0. -1.
<scales pt_clust_5="13000.00000" pt_clust_6="13000.00000" pt_clust_7="13000.00000" pt_clust_8="13000.00000" pt_clust_9="21.11258" pt_clust_10="13000.00000"></scales>
<clustering>
<clus scale="   21.113">  1  9  2 -1</clus>
<clus scale="   91.881">  5  6 -1 -1</clus>
<clus scale="   92.491">  7  8 -1 -1</clus>
<clus scale="   60.126">  7 10 -1 -1</clus>
<clus scale="  193.533">  2  5  1 -1</clus>
<clus scale="   21.113">  1  5  2 -1</clus>
</clustering>
</event>
<event>
10    2  0.5921424E-006  0.2857296E+03  0.7546771E-02  0.1116815E+00
          1   -1    0    0  503    0 -0.00000000000E+00  0.00000000000E+00  0.59667538468E+03  0.59667538468E+03  0.00000000000E+00 0. -1.
         21   -1    0    0  501  502  0.00000000000E+00 -0.00000000000E+00 -0.36591889163E+03  0.36591889163E+03  0.00000000000E+00 0. -1.
         23    2    1    2    0    0 -0.27568753468E+02 -0.12145671195E+03  0.34193915339E+03  0.37471416197E+03  0.89311530665E+02 0.  0.
         23    2    1    2    0    0  0.81285857828E+01  0.48269033679E+02  0.15350428923E+03  0.18834365526E+03  0.97538670005E+02 0.  0.
        -11    1    4    4    0    0 -0.20638390265E+02 -0.84873721164E+01  0.15382336859E+00  0.22315965133E+02  0.00000000000E+00 0.  1.
         11    1    4    4    0    0  0.28766976048E+02  0.56756405796E+02  0.15335046586E+03  0.16602769013E+03  0.00000000000E+00 0. -1.
        -13    1    3    3    0    0 -0.46232822351E+02 -0.48871809249E+02  0.23275627211E+03  0.24228373822E+03  0.00000000000E+00 0. -1.
         13    1    3    3    0    0  0.18664068883E+02 -0.72584902697E+02  0.10918288128E+03  0.13243042374E+03  0.00000000000E+00 0.  1.
         21    1    1    2  503  502 -0.64960978065E+02  0.13909061091E+03 -0.24726852443E+03  0.29104613017E+03  0.00000000000E+00 0. -1.
          1    1    1    2  501    0  0.84401145750E+02 -0.65902932642E+02 -0.17418425147E+02  0.10849032892E+03  0.00000000000E+00 0. -1.
<scales pt_clust_5="13000.00000" pt_clust_6="13000.00000" pt_clust_7="13000.00000" pt_clust_8="13000.00000" pt_clust_9="144.64802" pt_clust_10="13000.00000"></scales>
<clustering>
<clus scale="   89.312">  7  8 -1 -1</clus>
<clus scale="   97.539">  5  6 -1 -1</clus>
<clus scale="  107.083">  5 10 -1 -1</clus>
<clus scale="  153.259">  1  7  2 -1</clus>
<clus scale="  144.648">  2  9  1 -1</clus>
<clus scale="  144.648">  2  5  1 -1</clus>
</clustering>
</event>
<event>
10    2  0.5921424E-006  0.3189760E+03  0.7546771E-02  0.1119465E+00
         21   -1    0    0  501  502  0.00000000000E+00  0.00000000000E+00  0.83293832287E+02  0.83293832287E+02  0.00000000000E+00 0.  1.
          2   -1    0    0  503    0 -0.00000000000E+00 -0.00000000000E+00 -0.10024401831E+04  0.10024401831E+04  0.00000000000E+00 0. -1.
         23    2    1    2    0    0 -0.33558730714E+02  0.23394426600E+02 -0.23928760483E+03  0.26054169723E+03  0.94604072672E+02 0.  0.
         23    2    1    2    0    0  0.26569047916E+02 -0.96849615872E+02 -0.27461992219E+03  0.30657145498E+03  0.92109678873E+02 0.  0.
        -13    1    4    4    0    0  0.77802108960E+00 -0.10736396009E+03 -0.20136652444E+03  0.22820188958E+03  0.00000000000E+00 0.  1.
         13    1    4    4    0    0  0.25791026827E+02  0.10514344214E+02 -0.73253397753E+02  0.78369565402E+02  0.00000000000E+00 0. -1.
        -13    1    3    3    0    0  0.21670847697E+02  0.87315044683E+00 -0.10479811915E+02  0.24087641840E+02  0.00000000000E+00 0.  1.
         13    1    3    3    0    0 -0.55229578411E+02  0.22521276153E+02 -0.22880779292E+03  0.23645405539E+03  0.00000000000E+00 0. -1.
         21    1    1    2  503  502  0.52907152031E+02 -0.94347562443E+02 -0.42311190255E+02  0.11615018767E+03  0.00000000000E+00 0.  1.
          2    1    1    2  501    0 -0.45917469234E+02  0.16780275172E+03 -0.36292763357E+03  0.40247067554E+03  0.00000000000E+00 0. -1.
<scales pt_clust_5="13000.00000" pt_clust_6="13000.00000" pt_clust_7="13000.00000" pt_clust_8="13000.00000" pt_clust_9="104.30979" pt_clust_10="13000.00000"></scales>
<clustering>
<clus scale="   92.110">  5  6 -1 -1</clus>
<clus scale="   94.604">  7  8 -1 -1</clus>
<clus scale="  103.070">  2  7  1 -1</clus>
<clus scale="  104.310">  1  9  2 -1</clus>
<clus scale="  131.982">  5 10 -1 -1</clus>
<clus scale="  104.310">  1  5  2 -1</clus>
</clustering>
</event>
<event>
10    2  0.5921424E-006  0.2125558E+03  0.7546771E-02  0.1160728E+00
         21   -1    0    0  501  502  0.00000000000E+00  0.00000000000E+00  0.23847551828E+02  0.23847551828E+02  0.00000000000E+00 0.  1.
          1   -1    0    0  503    0 -0.00000000000E+00 -0.00000000000E+00 -0.14405353841E+04  0.14405353841E+04  0.00000000000E+00 0. -1.
         23    2    1    2    0    0  0.94951915952E+02 -0.10743879759E+02 -0.55443414312E+03  0.57072195180E+03  0.95890718640E+02 0.  0.
         23    2    1    2    0    0 -0.87151737443E+02 -0.56940445110E+02 -0.62816944555E+03  0.64326376653E+03  0.91399022854E+02 0.  0.
        -13    1    3    3    0    0  0.85452056216E+02  0.29397267297E+02 -0.43722291034E+03  0.44646402605E+03  0.00000000000E+00 0. -1.
         13    1    3    3    0    0  0.94998597359E+01 -0.40141147055E+02 -0.11721123278E+03  0.12425792575E+03  0.00000000000E+00 0.  1.
        -13    1    4    4    0    0 -0.91247677788E+01 -0.56994661589E+02 -0.20548937970E+03  0.21344211863E+03  0.00000000000E+00 0.  1.
         13    1    4    4    0    0 -0.78026969664E+02  0.54216478771E-01 -0.42268006586E+03  0.42982164790E+03  0.00000000000E+00 0. -1.
         21    1    1    2  503  502 -0.24708400377E+02  0.68851208668E+01 -0.61338942000E+02  0.66485906357E+02  0.00000000000E+00 0.  1.
          1    1    1    2  501    0  0.16908221867E+02  0.60799204002E+02 -0.17274530159E+03  0.18391131122E+03  0.00000000000E+00 0. -1.
<scales pt_clust_5="13000.00000" pt_clust_6="13000.00000" pt_clust_7="13000.00000" pt_clust_8="13000.00000" pt_clust_9="25.64976" pt_clust_10="13000.00000"></scales>
<clustering>
<clus scale="   25.650">  1  9  2 -1</clus>
<clus scale="   91.399">  7  8 -1 -1</clus>
<clus scale="   63.468">  7 10 -1 -1</clus>
<clus scale="   95.891">  5  6 -1 -1</clus>
<clus scale="  128.724">  2  5  1 -1</clus>
<clus scale="   25.650">  1  5  2 -1</clus>
</clustering>
</event>
<event>
10    2  0.5921424E-006  0.6384074E+03  0.7546771E-02  0.1029337E+00
          2   -1    0    0  503    0 -0.00000000000E+00  0.00000000000E+00  0.62307495085E+03  0.62307495085E+03  0.00000000000E+00 0. -1.
         21   -1    0    0  501  502  0.00000000000E+00 -0.00000000000E+00 -0.46270295120E+03  0.46270295120E+03  0.00000000000E+00 0. -1.
         23    2    1    2    0    0  0.10342335618E+03 -0.38927042725E+02  0.98282899157E+02  0.17521971342E+03  0.93971881137E+02 0.  0.
         23    2    1    2    0    0 -0.37479731895E+03 -0.28688299631E+01  0.12130446423E+03  0.40449067616E+03  0.91742430653E+02 0.  0.
        -11    1    4    4    0    0 -0.13096871305E+03  0.74623661219E+01  0.88513475975E+02  0.15825020106E+03  0.00000000000E+00 0.  1.
         11    1    4    4    0    0 -0.24382860590E+03 -0.10331196085E+02  0.32790988252E+02  0.24624047510E+03  0.00000000000E+00 0. -1.
        -11    1    3    3    0    0  0.32639206513E+01 -0.39541611217E+02  0.82139297707E+01  0.40517414008E+02  0.00000000000E+00 0.  1.
         11    1    3    3    0    0  0.10015943553E+03  0.61456849195E+00  0.90068969386E+02  0.13470229941E+03  0.00000000000E+00 0. -1.
         21    1    1    2  503  502  0.29484677292E+02 -0.45462413416E+02 -0.20392349736E+03  0.21099992892E+03  0.00000000000E+00 0. -1.
          2    1    1    2  501    0  0.24188928548E+03  0.87258286104E+02  0.14470813362E+03  0.29506758355E+03  0.00000000000E+00 0. -1.
<scales pt_clust_5="13000.00000" pt_clust_6="13000.00000" pt_clust_7="13000.00000" pt_clust_8="13000.00000" pt_clust_9="54.18650" pt_clust_10="13000.00000"></scales>
<clustering>
<clus scale="   54.187">  2  9  1 -1</clus>
<clus scale="   91.742">  5  6 -1 -1</clus>
<clus scale="   93.972">  7  8 -1 -1</clus>
<clus scale="  150.206">  1  7  2 -1</clus>
<clus scale="  307.060">  5 10 -1 -1</clus>
<clus scale="   54.187">  2  5  1 -1</clus>
</clustering>
</event>
<event>
10    2  0.5921424E-006  0.2176928E+03  0.7546771E-02  0.1168263E+00
          2   -1    0    0  503    0 -0.00000000000E+00  0.00000000000E+00  0.42687616198E+03  0.42687616198E+03  0.00000000000E+00 0. -1.
         21   -1    0    0  501  502  0.00000000000E+00 -0.00000000000E+00 -0.19365456307E+03  0.19365456307E+03  0.00000000000E+00 0.  1.
         23    2    1    2    0    0 -0.44632901543E+02 -0.19767952122E+01  0.25791981166E+03  0.27764832827E+03  0.92574085586E+02 0.  0.
         23    2    1    2    0    0  0.52854991682E+02  0.28246224444E+01  0.11543469696E+03  0.15688018516E+03  0.92111859138E+02 0.  0.
        -11    1    3    3    0    0  0.12813320970E+02 -0.32052590019E+02  0.12615988339E+03  0.13079704086E+03  0.00000000000E+00 0. -1.
         11    1    3    3    0    0 -0.57446222513E+02  0.30075794807E+02  0.13175992827E+03  0.14685128741E+03  0.00000000000E+00 0.  1.
        -11    1    4    4    0    0  0.78408084367E+02 -0.72656438057E+01  0.84251338777E+02  0.11532087998E+03  0.00000000000E+00 0. -1.
         11    1    4    4    0    0 -0.25553092685E+02  0.10090266250E+02  0.31183358186E+02  0.41559305174E+02  0.00000000000E+00 0.  1.
         21    1    1    2  503  502  0.44207254218E+02  0.29147109641E+02 -0.10097608661E+03  0.11401756616E+03  0.00000000000E+00 0.  1.
          2    1    1    2  501    0 -0.52429344357E+02 -0.29994936873E+02 -0.39156823099E+02  0.71984645467E+02  0.00000000000E+00 0. -1.
<scales pt_clust_5="13000.00000" pt_clust_6="13000.00000" pt_clust_7="13000.00000" pt_clust_8="13000.00000" pt_clust_9="52.95125" pt_clust_10="13000.00000"></scales>
<clustering>
<clus scale="   52.951">  2  9  1 -1</clus>
<clus scale="   92.112">  7  8 -1 -1</clus>
<clus scale="   26.407">  7 10 -1 -1</clus>
<clus scale="   92.574">  5  6 -1 -1</clus>
<clus scale="  100.686">  1  5  2 -1</clus>
<clus scale="   52.951">  2  5  1 -1</clus>
</clustering>
</event>
<event>
10    2  0.5921424E-006  0.3173045E+03  0.7546771E-02  0.1091498E+00
         -2   -1    0    0    0  501 -0.00000000000E+00  0.00000000000E+00  0.96308978992E+03  0.96308978992E+03  0.00000000000E+00 0.  1.
         21   -1    0    0  503  502  0.00000000000E+00 -0.00000000000E+00 -0.22159719307E+03  0.22159719307E+03  0.00000000000E+00 0.  1.
         23    2    1    2    0    0 -0.10761968213E+02  0.19428902459E+03  0.16854785573E+03  0.27301826872E+03  0.90920571662E+02 0.  0.
         23    2    1    2    0    0  0.13321918138E+02 -0.22620197173E+03  0.24632274640E+03  0.34692135182E+03  0.91294706516E+02 0.  0.
        -13    1    3    3    0    0 -0.36747625421E+02  0.16643082022E+03  0.16042899832E+03  0.23406637818E+03  0.00000000000E+00 0.  1.
         13    1    3    3    0    0  0.25985657208E+02  0.27858204370E+02  0.81188574067E+01  0.38951890543E+02  0.00000000000E+00 0. -1.
        -13    1    4    4    0    0  0.34563961416E+02 -0.17565866261E+03  0.13989887534E+03  0.22720547639E+03  0.00000000000E+00 0.  1.
         13    1    4    4    0    0 -0.21242043278E+02 -0.50543309116E+02  0.10642387106E+03  0.11971587543E+03  0.00000000000E+00 0. -1.
         21    1    1    2  503  501 -0.66616827067E+01  0.24110764914E+03  0.11521496533E+03  0.26730462908E+03  0.00000000000E+00 0.  1.
         -2    1    1    2    0  502  0.41017327819E+01 -0.20919470200E+03  0.21140702939E+03  0.29744273337E+03  0.00000000000E+00 0.  1.
<scales pt_clust_5="13000.00000" pt_clust_6="13000.00000" pt_clust_7="13000.00000" pt_clust_8="13000.00000" pt_clust_9="291.32020" pt_clust_10="13000.00000"></scales>
<clustering>
<clus scale="   90.921">  5  6 -1 -1</clus>
<clus scale="   91.295">  7  8 -1 -1</clus>
<clus scale="  209.235">  7 10 -1 -1</clus>
<clus scale="  214.780">  1  5  2 -1</clus>
<clus scale="  291.320">  2  9  1 -1</clus>
<clus scale="  291.320">  2  5  1 -1</clus>
</clustering>
</event>
<event>
10    2  0.5921424E-006  0.2958394E+03  0.7546771E-02  0.1118974E+00
          1   -1    0    0  503    0 -0.00000000000E+00  0.00000000000E+00  0.11764490507E+04  0.11764490507E+04  0.00000000000E+00 0. -1.
         21   -1    0    0  501  502  0.00000000000E+00 -0.00000000000E+00 -0.13017531141E+03  0.13017531141E+03  0.00000000000E+00 0. -1.
         23    2    1    2    0    0 -0.48108906135E+00  0.85373475242E+02  0.28351444924E+03  0.31222963811E+03  0.99086034658E+02 0.  0.
         23    2    1    2    0    0 -0.15133360760E+02  0.11804157900E+02  0.38855357598E+03  0.39917693639E+03  0.89442654144E+02 0.  0.
        -11    1    4    4    0    0  0.80972868072E+01  0.45537263090E+02  0.26515064179E+03  0.26915436319E+03  0.00000000000E+00 0.  1.
         11    1    4    4    0    0 -0.23230647567E+02 -0.33733105191E+02  0.12340293419E+03  0.13002257319E+03  0.00000000000E+00 0. -1.
        -13    1    3    3    0    0  0.38609749103E+02  0.41003983892E+02  0.21240731151E+03  0.21974736723E+03  0.00000000000E+00 0. -1.
         13    1    3    3    0    0 -0.39090838164E+02  0.44369491350E+02  0.71107137727E+02  0.92482270878E+02  0.00000000000E+00 0.  1.
         21    1    1    2  503  502 -0.16286756435E+03 -0.91976713419E+02  0.73189319341E+01  0.18718740902E+03  0.00000000000E+00 0. -1.
          1    1    1    2  501    0  0.17848201417E+03 -0.52009197227E+01  0.36688678209E+03  0.40803037856E+03  0.00000000000E+00 0. -1.
<scales pt_clust_5="13000.00000" pt_clust_6="13000.00000" pt_clust_7="13000.00000" pt_clust_8="13000.00000" pt_clust_9="182.63022" pt_clust_10="13000.00000"></scales>
<clustering>
<clus scale="   89.443">  5  6 -1 -1</clus>
<clus scale="   99.086">  7  8 -1 -1</clus>
<clus scale="  130.793">  1  7  2 -1</clus>
<clus scale="  181.199">  5 10 -1 -1</clus>
<clus scale="  182.630">  2  9  1 -1</clus>
<clus scale="  182.630">  2  5  1 -1</clus>
</clustering>
</event>
<event>
10    2  0.5921424E-006  0.2851891E+03  0.7546771E-02  0.1129042E+00
          1   -1    0    0  503    0 -0.00000000000E+00  0.00000000000E+00  0.11968861524E+04  0.11968861524E+04  0.00000000000E+00 0. -1.
         21   -1    0    0  501  502  0.00000000000E+00 -0.00000000000E+00 -0.66797811135E+02  0.66797811135E+02  0.00000000000E+00 0. -1.
         23    2    1    2    0    0 -0.36461106198E+02  0.66328284470E+02  0.15191801821E+03  0.19314450547E+03  0.92178425612E+02 0.  0.
         23    2    1    2    0    0  0.65369473535E+02 -0.14453932791E+03  0.60614762921E+03  0.63283611387E+03  0.88892143910E+02 0.  0.
        -13    1    3    3    0    0 -0.57722034795E+02  0.14105164691E+02  0.10094042788E+03  0.11713137476E+03  0.00000000000E+00 0. -1.
         13    1    3    3    0    0  0.21260928597E+02  0.52223119779E+02  0.50977590336E+02  0.76013130713E+02  0.00000000000E+00 0.  1.
        -13    1    4    4    0    0  0.56032235050E+02 -0.28844622968E+02  0.16355214094E+03  0.17527386127E+03  0.00000000000E+00 0. -1.
         13    1    4    4    0    0  0.93372384858E+01 -0.11569470494E+03  0.44259548827E+03  0.45756225261E+03  0.00000000000E+00 0.  1.
         21    1    1    2  503  502  0.19155206828E+02 -0.10408457852E+02 -0.22009568367E+02  0.30978686918E+02  0.00000000000E+00 0. -1.
          1    1    1    2  501    0 -0.48063574166E+02  0.88619501290E+02  0.39403226217E+03  0.40672465723E+03  0.00000000000E+00 0. -1.
<scales pt_clust_5="13000.00000" pt_clust_6="13000.00000" pt_clust_7="13000.00000" pt_clust_8="13000.00000" pt_clust_9="21.80041" pt_clust_10="13000.00000"></scales>
<clustering>
<clus scale="   21.800">  2  9  1 -1</clus>
<clus scale="   88.892">  7  8 -1 -1</clus>
<clus scale="   92.178">  5  6 -1 -1</clus>
<clus scale="   97.954">  7 10 -1 -1</clus>
<clus scale="  113.708">  1  5  2 -1</clus>
<clus scale="   21.800">  2  5  1 -1</clus>
</clustering>
</event>
<event>
10    2  0.5921424E-006  0.1909004E+03  0.7546771E-02  0.1186813E+00
         21   -1    0    0  501  502  0.00000000000E+00  0.00000000000E+00  0.93744243294E+02  0.93744243294E+02  0.00000000000E+00 0. -1.
          1   -1    0    0  503    0 -0.00000000000E+00 -0.00000000000E+00 -0.27055330088E+03  0.27055330088E+03  0.00000000000E+00 0. -1.
         23    2    1    2    0    0 -0.66019663341E+00  0.20233462535E+02 -0.85531506227E+02  0.12930411011E+03  0.94837152362E+02 0.  0.
         23    2    1    2    0    0 -0.47145467456E+02  0.30368805635E+02 -0.56464389132E+02  0.12233971657E+03  0.92918348847E+02 0.  0.
        -11    1    4    4    0    0  0.26627187642E+02  0.10076858928E+02 -0.22343418244E+01  0.28557704581E+02  0.00000000000E+00 0.  1.
         11    1    4    4    0    0 -0.73772655098E+02  0.20291946707E+02 -0.54230047308E+02  0.93782011987E+02  0.00000000000E+00 0. -1.
        -11    1    3    3    0    0  0.24559296516E+02  0.51339317710E+02 -0.51416941135E+02  0.76698020991E+02  0.00000000000E+00 0. -1.
         11    1    3    3    0    0 -0.25219493150E+02 -0.31105855175E+02 -0.34114565093E+02  0.52606089119E+02  0.00000000000E+00 0.  1.
         21    1    1    2  503  502  0.10350335279E+01  0.20085895614E+02  0.20650371483E+01  0.20218280724E+02  0.00000000000E+00 0. -1.
          1    1    1    2  501    0  0.46770630561E+02 -0.70688163783E+02 -0.36878199375E+02  0.92435436772E+02  0.00000000000E+00 0. -1.
<scales pt_clust_5="13000.00000" pt_clust_6="13000.00000" pt_clust_7="13000.00000" pt_clust_8="13000.00000" pt_clust_9="20.11255" pt_clust_10="13000.00000"></scales>
<clustering>
<clus scale="   20.113">  1  9  2 -1</clus>
<clus scale="   92.918">  5  6 -1 -1</clus>
<clus scale="   79.421">  5 10 -1 -1</clus>
<clus scale="   94.837">  7  8 -1 -1</clus>
<clus scale="   98.221">  2  7  1 -1</clus>
<clus scale="   20.113">  1  5  2 -1</clus>
</clustering>
</event>
<event>
10    2  0.5921424E-006  0.2401693E+03  0.7546771E-02  0.1146567E+00
          2   -1    0    0  502    0 -0.00000000000E+00  0.00000000000E+00  0.11637786000E+04  0.11637786000E+04  0.00000000000E+00 0. -1.
         21   -1    0    0  503  502  0.00000000000E+00 -0.00000000000E+00 -0.15223391107E+03  0.15223391107E+03  0.00000000000E+00 0. -1.
         23    2    1    2    0    0 -0.35836218533E+02  0.76684663818E+02  0.28035883054E+03  0.30677601686E+03  0.91354684799E+02 0.  0.
         23    2    1    2    0    0 -0.10390937622E+03 -0.78067467150E+02  0.47574904654E+03  0.50169525488E+03  0.92028721551E+02 0.  0.
        -11    1    4    4    0    0  0.13942400425E+02 -0.21441532880E+02  0.11959921606E+03  0.12230332107E+03  0.00000000000E+00 0.  1.
         11    1    4    4    0    0 -0.11785177665E+03 -0.56625934270E+02  0.35614983048E+03  0.37939193381E+03  0.00000000000E+00 0. -1.
        -13    1    3    3    0    0 -0.15293514479E+02 -0.17834661114E+02  0.93009337290E+02  0.95930722635E+02  0.00000000000E+00 0. -1.
         13    1    3    3    0    0 -0.20542704054E+02  0.94519324933E+02  0.18734949325E+03  0.21084529423E+03  0.00000000000E+00 0.  1.
         21    1    1    2  503  501  0.16047304845E+03  0.10177297707E+03 -0.40553060537E+02  0.19430359971E+03  0.00000000000E+00 0. -1.
          2    1    1    2  501    0 -0.20727453698E+02 -0.10039017374E+03  0.29598987242E+03  0.31323763965E+03  0.00000000000E+00 0. -1.
<scales pt_clust_5="13000.00000" pt_clust_6="13000.00000" pt_clust_7="13000.00000" pt_clust_8="13000.00000" pt_clust_9="191.12326" pt_clust_10="13000.00000"></scales>
<clustering>
<clus scale="   91.355">  7  8 -1 -1</clus>
<clus scale="   92.029">  5  6 -1 -1</clus>
<clus scale="  102.508">  5 10 -1 -1</clus>
<clus scale="  124.541">  1  7  2 -1</clus>
<clus scale="  191.123">  2  9  1 -1</clus>
<clus scale="  191.123">  2  5  1 -1</clus>
</clustering>
</event>
<event>
10    2  0.5921424E-006  0.2625112E+03  0.7546771E-02  0.1137947E+00
         21   -1    0    0  501  502  0.00000000000E+00  0.00000000000E+00  0.76626632440E+02  0.76626632440E+02  0.00000000000E+00 0. -1.
          1   -1    0    0  503    0 -0.00000000000E+00 -0.00000000000E+00 -0.61869474182E+03  0.61869474182E+03  0.00000000000E+00 0. -1.
         23    2    1    2    0    0 -0.65179033808E+02 -0.82095364887E+01 -0.90406019820E+02  0.14372646155E+03  0.90378893519E+02 0.  0.
         23    2    1    2    0    0 -0.24397134260E+02  0.12311538607E+02 -0.55138732057E+02  0.11237410159E+03  0.94025872991E+02 0.  0.
        -11    1    4    4    0    0 -0.11249322711E+02 -0.41121886953E+02 -0.28120698067E+02  0.51071817158E+02  0.00000000000E+00 0.  1.
         11    1    4    4    0    0 -0.13147811549E+02  0.53433425560E+02 -0.27018033989E+02  0.61302284429E+02  0.00000000000E+00 0. -1.
        -13    1    3    3    0    0 -0.87841699351E+02 -0.42098223190E+01 -0.64405345789E+02  0.10900429035E+03  0.00000000000E+00 0. -1.
         13    1    3    3    0    0  0.22662665543E+02 -0.39997141697E+01 -0.26000674031E+02  0.34722171203E+02  0.00000000000E+00 0.  1.
         21    1    1    2  503  502 -0.20140355266E+02 -0.10049635619E+02  0.48962485653E+01  0.23034807061E+02  0.00000000000E+00 0.  1.
          1    1    1    2  501    0  0.10971652333E+03  0.59476335004E+01 -0.40141960607E+03  0.41618600406E+03  0.00000000000E+00 0. -1.
<scales pt_clust_5="13000.00000" pt_clust_6="13000.00000" pt_clust_7="13000.00000" pt_clust_8="13000.00000" pt_clust_9="22.50842" pt_clust_10="13000.00000"></scales>
<clustering>
<clus scale="   22.508">  1  9  2 -1</clus>
<clus scale="   90.379">  7  8 -1 -1</clus>
<clus scale="   94.026">  5  6 -1 -1</clus>
<clus scale="  107.449">  5 10 -1 -1</clus>
<clus scale="  117.316">  2  7  1 -1</clus>
<clus scale="   22.508">  1  5  2 -1</clus>
</clustering>
</event>
<event>
10    2  0.5921424E-006  0.3051378E+03  0.7546771E-02  0.1129612E+00
         -1   -1    0    0    0  501 -0.00000000000E+00  0.00000000000E+00  0.20665804594E+03  0.20665804594E+03  0.00000000000E+00 0.  1.
         21   -1    0    0  503  502  0.00000000000E+00 -0.00000000000E+00 -0.23529716830E+03  0.23529716830E+03  0.00000000000E+00 0.  1.
         23    2    1    2    0    0  0.37015138285E+01 -0.17247796980E+02  0.43885230423E+02  0.10204396848E+03  0.90420519515E+02 0.  0.
         23    2    1    2    0    0  0.41895878272E+02  0.55856693201E+02  0.85673650376E+02  0.15047823040E+03  0.10211997191E+03 0.  0.
        -11    1    4    4    0    0  0.51609301434E+01  0.71177804125E+02  0.84575272981E+02  0.11066115759E+03  0.00000000000E+00 0.  1.
         11    1    4    4    0    0  0.36734948129E+02 -0.15321110923E+02  0.10983773954E+01  0.39817072806E+02  0.00000000000E+00 0. -1.
        -13    1    3    3    0    0  0.45726296725E+02 -0.38144724568E+00  0.29958751439E+02  0.54667783035E+02  0.00000000000E+00 0.  1.
         13    1    3    3    0    0 -0.42024782896E+02 -0.16866349734E+02  0.13926478984E+02  0.47376185449E+02  0.00000000000E+00 0. -1.
         21    1    1    2  503  501 -0.46640365874E+01  0.24027075130E+02 -0.17541542492E+02  0.30112444098E+02  0.00000000000E+00 0. -1.
         -1    1    1    2    0  502 -0.40933355514E+02 -0.62635971351E+02 -0.14065646066E+03  0.15932057126E+03  0.00000000000E+00 0.  1.
<scales pt_clust_5="13000.00000" pt_clust_6="13000.00000" pt_clust_7="13000.00000" pt_clust_8="13000.00000" pt_clust_9="24.47557" pt_clust_10="13000.00000"></scales>
<clustering>
<clus scale="   24.476">  2  9  1 -1</clus>
<clus scale="   90.421">  7  8 -1 -1</clus>
<clus scale="   91.541">  1  7  2 -1</clus>
<clus scale="  102.120">  5  6 -1 -1</clus>
<clus scale="   64.232">  5 10 -1 -1</clus>
<clus scale="   24.476">  2  5  1 -1</clus>
</clustering>
</event>
<event>
10    2  0.5921424E-006  0.3362888E+03  0.7546771E-02  0.1099838E+00
         21   -1    0    0  503  502  0.00000000000E+00  0.00000000000E+00  0.18971486130E+04  0.18971486130E+04  0.00000000000E+00 0. -1.
          1   -1    0    0  502    0 -0.00000000000E+00 -0.00000000000E+00 -0.43857795259E+03  0.43857795259E+03  0.00000000000E+00 0. -1.
         23    2    1    2    0    0 -0.35102020679E+02  0.10611108554E+03 -0.32658228403E+03  0.35734874727E+03  0.92468506025E+02 0.  0.
         23    2    1    2    0    0 -0.92029738286E+02 -0.47038331143E+00  0.44975001363E+02  0.13706389896E+03  0.91071772032E+02 0.  0.
        -11    1    3    3    0    0 -0.22818617548E+02  0.63714007439E+01 -0.10940366526E+02  0.26095510610E+02  0.00000000000E+00 0.  1.
         11    1    3    3    0    0 -0.12283403131E+02  0.99739684795E+02 -0.31564191750E+03  0.33125323666E+03  0.00000000000E+00 0. -1.
        -11    1    4    4    0    0  0.94177547283E+01 -0.20623979026E+02  0.20973119156E+02  0.30885503753E+02  0.00000000000E+00 0.  1.
         11    1    4    4    0    0 -0.10144749301E+03  0.20153595714E+02  0.24001882208E+02  0.10617839521E+03  0.00000000000E+00 0. -1.
         21    1    1    2  503  501  0.15562186717E+03  0.12072371051E+03  0.14890675538E+04  0.15020368037E+04  0.00000000000E+00 0. -1.
          1    1    1    2  501    0 -0.28490108207E+02 -0.22636441274E+03  0.25111038925E+03  0.33927711566E+03  0.00000000000E+00 0. -1.
<scales pt_clust_5="13000.00000" pt_clust_6="13000.00000" pt_clust_7="13000.00000" pt_clust_8="13000.00000" pt_clust_9="199.58703" pt_clust_10="13000.00000"></scales>
<clustering>
<clus scale="   91.072">  7  8 -1 -1</clus>
<clus scale="   92.469">  5  6 -1 -1</clus>
<clus scale="  145.059">  2  5  1 -1</clus>
<clus scale="  183.428">  7 10 -1 -1</clus>
<clus scale="  199.587">  1  9  2 -1</clus>
<clus scale="  199.587">  1  5  2 -1</clus>
</clustering>
</event>
<event>
10    2  0.5921424E-006  0.4534106E+03  0.7546771E-02  0.1039051E+00
         21   -1    0    0  501  502  0.00000000000E+00  0.00000000000E+00  0.61020516843E+03  0.61020516843E+03  0.00000000000E+00 0. -1.
          1   -1    0    0  503    0 -0.00000000000E+00 -0.00000000000E+00 -0.58136872974E+03  0.58136872974E+03  0.00000000000E+00 0. -1.
         23    2    1    2    0    0 -0.13614264823E+03 -0.23450005024E+03 -0.19279575689E+03  0.34519511117E+03  0.92001992735E+02 0.  0.
         23    2    1    2    0    0  0.51790486114E+02  0.29344839202E+03 -0.18334822712E+03  0.36110608314E+03  0.89368997213E+02 0.  0.
        -11    1    3    3    0    0 -0.13088804728E+03 -0.19800171531E+03 -0.12557494340E+03  0.26852453630E+03  0.00000000000E+00 0. -1.
         11    1    3    3    0    0 -0.52546009548E+01 -0.36498334938E+02 -0.67220813493E+02  0.76670574871E+02  0.00000000000E+00 0.  1.
        -13    1    4    4    0    0  0.17154774454E+02  0.25338091897E+03 -0.12761411156E+03  0.28422093141E+03  0.00000000000E+00 0. -1.
         13    1    4    4    0    0  0.34635711660E+02  0.40067473051E+02 -0.55734115566E+02  0.76885151731E+02  0.00000000000E+00 0.  1.
         21    1    1    2  503  502  0.17952789769E+02 -0.14877292446E+03  0.28052542092E+03  0.31804118837E+03  0.00000000000E+00 0. -1.
          1    1    1    2  501    0  0.66399372349E+02  0.89824582691E+02  0.12445500179E+03  0.16723151549E+03  0.00000000000E+00 0. -1.
<scales pt_clust_5="13000.00000" pt_clust_6="13000.00000" pt_clust_7="13000.00000" pt_clust_8="13000.00000" pt_clust_9="149.85221" pt_clust_10="13000.00000"></scales>
<clustering>
<clus scale="   89.369">  7  8 -1 -1</clus>
<clus scale="   92.002">  5  6 -1 -1</clus>
<clus scale="  111.702">  7 10 -1 -1</clus>
<clus scale="  149.852">  1  9  2 -1</clus>
<clus scale="  315.024">  2  5  1 -1</clus>
<clus scale="  149.852">  1  5  2 -1</clus>
</clustering>
</event>
<event>
10    2  0.5921424E-006  0.1367332E+03  0.7546771E-02  0.1222292E+00
          1   -1    0    0  503    0 -0.00000000000E+00  0.00000000000E+00  0.30024358457E+03  0.30024358457E+03  0.00000000000E+00 0. -1.
         21   -1    0    0  501  502  0.00000000000E+00 -0.00000000000E+00 -0.14336324987E+03  0.14336324987E+03  0.00000000000E+00 0.  1.
         23    2    1    2    0    0  0.72613585990E+02  0.21235786095E+02  0.64916995078E+02  0.13485095456E+03  0.90812291096E+02 0.  0.
         23    2    1    2    0    0 -0.70388981646E+02 -0.29565189908E+02  0.14258090388E+03  0.18300583077E+03  0.85633584263E+02 0.  0.
        -11    1    3    3    0    0  0.65472597223E+02 -0.24532004240E+02  0.50806586443E+02  0.86427943659E+02  0.00000000000E+00 0. -1.
         11    1    3    3    0    0  0.71409887671E+01  0.45767790336E+02  0.14110408636E+02  0.48423010900E+02  0.00000000000E+00 0.  1.
        -11    1    4    4    0    0 -0.28362237500E+01 -0.44439678727E+02  0.68028193470E+02  0.81306606849E+02  0.00000000000E+00 0. -1.
         11    1    4    4    0    0 -0.67552757896E+02  0.14874488818E+02  0.74552710406E+02  0.10169922392E+03  0.00000000000E+00 0.  1.
         21    1    1    2  503  502  0.18545518888E+02 -0.81205492282E+01 -0.82124680097E+02  0.84583347484E+02  0.00000000000E+00 0.  1.
          1    1    1    2  501    0 -0.20770123232E+02  0.16449953041E+02  0.31507115844E+02  0.41166701628E+02  0.00000000000E+00 0. -1.
<scales pt_clust_5="13000.00000" pt_clust_6="13000.00000" pt_clust_7="13000.00000" pt_clust_8="13000.00000" pt_clust_9="20.24548" pt_clust_10="13000.00000"></scales>
<clustering>
<clus scale="   20.245">  2  9  1 -1</clus>
<clus scale="   85.634">  7  8 -1 -1</clus>
<clus scale="   24.923">  7 10 -1 -1</clus>
<clus scale="   90.812">  5  6 -1 -1</clus>
<clus scale="  124.411">  1  5  2 -1</clus>
<clus scale="   20.245">  2  5  1 -1</clus>
</clustering>
</event>
<event>
10    2  0.5921424E-006  0.4769577E+03  0.7546771E-02  0.1077535E+00
          2   -1    0    0  503    0 -0.00000000000E+00  0.00000000000E+00  0.26135698246E+03  0.26135698246E+03  0.00000000000E+00 0. -1.
         21   -1    0    0  501  502  0.00000000000E+00 -0.00000000000E+00 -0.48086211979E+03  0.48086211979E+03  0.00000000000E+00 0.  1.
         23    2    1    2    0    0  0.29700898762E+02 -0.57031843591E+01  0.79963993759E+02  0.12246890710E+03  0.87691066868E+02 0.  0.
         23    2    1    2    0    0 -0.40134791882E+02 -0.20948498365E+03 -0.49357115057E+02  0.23692418031E+03  0.90565901483E+02 0.  0.
        -11    1    3    3    0    0  0.41801580799E+02  0.31969934673E+02  0.38891418436E+02  0.65436926183E+02  0.00000000000E+00 0. -1.
         11    1    3    3    0    0 -0.12100682036E+02 -0.37673119032E+02  0.41072575322E+02  0.57031980914E+02  0.00000000000E+00 0.  1.
        -11    1    4    4    0    0 -0.53431351479E+02 -0.12847461669E+03  0.36739742918E+01  0.13919100022E+03  0.00000000000E+00 0. -1.
         11    1    4    4    0    0  0.13296559597E+02 -0.81010366959E+02 -0.53031089349E+02  0.97733180085E+02  0.00000000000E+00 0.  1.
         21    1    1    2  503  502 -0.59062189608E+02 -0.35475775717E+01 -0.65617414071E+02  0.88354810719E+02  0.00000000000E+00 0.  1.
          2    1    1    2  501    0  0.69496082728E+02  0.21873574558E+03 -0.18449460196E+03  0.29447120413E+03  0.00000000000E+00 0. -1.
<scales pt_clust_5="13000.00000" pt_clust_6="13000.00000" pt_clust_7="13000.00000" pt_clust_8="13000.00000" pt_clust_9="59.16864" pt_clust_10="13000.00000"></scales>
<clustering>
<clus scale="   59.169">  2  9  1 -1</clus>
<clus scale="   87.691">  5  6 -1 -1</clus>
<clus scale="   90.566">  7  8 -1 -1</clus>
<clus scale="   91.824">  1  5  2 -1</clus>
<clus scale="  218.987">  7 10 -1 -1</clus>
<clus scale="   59.169">  2  5  1 -1</clus>
</clustering>
</event>
<event>
10    2  0.5921424E-006  0.2605389E+03  0.7546771E-02  0.1130792E+00
         21   -1    0    0  501  502  0.00000000000E+00  0.00000000000E+00  0.11194854506E+03  0.11194854506E+03  0.00000000000E+00 0. -1.
          2   -1    0    0  503    0 -0.00000000000E+00 -0.00000000000E+00 -0.61032205550E+03  0.61032205550E+03  0.00000000000E+00 0. -1.
         23    2    1    2    0    0  0.50086819697E+02 -0.98082167251E+02 -0.14294234662E+03  0.19998475643E+03  0.86212454469E+02 0.  0.
         23    2    1    2    0    0  0.46391920497E+02  0.92508733387E+01 -0.22630729091E+03  0.24780919941E+03  0.89199890417E+02 0.  0.
        -11    1    3    3    0    0  0.18575099403E+02 -0.58172778807E+02 -0.13545809817E+03  0.14858668471E+03  0.00000000000E+00 0.  1.
         11    1    3    3    0    0  0.31511720295E+02 -0.39909388444E+02 -0.74842484528E+01  0.51398071723E+02  0.00000000000E+00 0. -1.
        -13    1    4    4    0    0 -0.22549607603E+02  0.31099994128E+01 -0.11110992944E+03  0.11341769403E+03  0.00000000000E+00 0.  1.
         13    1    4    4    0    0  0.68941528099E+02  0.61408739260E+01 -0.11519736147E+03  0.13439150538E+03  0.00000000000E+00 0. -1.
         21    1    1    2  503  502  0.32642320615E+02  0.86500090898E+01  0.36470755577E+02  0.49703719828E+02  0.00000000000E+00 0. -1.
          2    1    1    2  501    0 -0.12912106081E+03  0.80181284822E+02 -0.16559462849E+03  0.22477292489E+03  0.00000000000E+00 0. -1.
<scales pt_clust_5="13000.00000" pt_clust_6="13000.00000" pt_clust_7="13000.00000" pt_clust_8="13000.00000" pt_clust_9="33.76898" pt_clust_10="13000.00000"></scales>
<clustering>
<clus scale="   33.769">  1  9  2 -1</clus>
<clus scale="   86.212">  5  6 -1 -1</clus>
<clus scale="   89.200">  7  8 -1 -1</clus>
<clus scale="  142.428">  7 10 -1 -1</clus>
<clus scale="  142.859">  2  5  1 -1</clus>
<clus scale="   33.769">  1  5  2 -1</clus>
</clustering>
</event>
<event>
10    2  0.5921424E-006  0.1970526E+03  0.7546771E-02  0.1167509E+00
         -1   -1    0    0    0  501 -0.00000000000E+00  0.00000000000E+00  0.23206556453E+03  0.23206556453E+03  0.00000000000E+00 0.  1.
         21   -1    0    0  503  502  0.00000000000E+00 -0.00000000000E+00 -0.27151463004E+03  0.27151463004E+03  0.00000000000E+00 0.  1.
         23    2    1    2    0    0  0.10744563108E+03 -0.15844330885E+02  0.13763350142E+03  0.19720062533E+03  0.90274578138E+02 0.  0.
         23    2    1    2    0    0  0.12505788311E+02  0.13075917868E+02 -0.85483762079E+02  0.12640473701E+03  0.91341718780E+02 0.  0.
        -11    1    4    4    0    0  0.24568959693E+02 -0.13574741160E+02 -0.92210023168E+02  0.96387736515E+02  0.00000000000E+00 0.  1.
         11    1    4    4    0    0 -0.12063171382E+02  0.26650659028E+02  0.67262610886E+01  0.30017000494E+02  0.00000000000E+00 0. -1.
        -13    1    3    3    0    0  0.79734473402E+02 -0.31622029658E+02  0.14109823788E+03  0.16512495796E+03  0.00000000000E+00 0.  1.
         13    1    3    3    0    0  0.27711157673E+02  0.15777698774E+02 -0.34647364624E+01  0.32075667366E+02  0.00000000000E+00 0. -1.
         21    1    1    2  503  501 -0.32655624473E+02  0.20973543030E+02  0.14452909238E+02  0.41414561478E+02  0.00000000000E+00 0. -1.
         -1    1    1    2    0  502 -0.87295794914E+02 -0.18205130014E+02 -0.10605171409E+03  0.13856027075E+03  0.00000000000E+00 0.  1.
<scales pt_clust_5="13000.00000" pt_clust_6="13000.00000" pt_clust_7="13000.00000" pt_clust_8="13000.00000" pt_clust_9="38.81083" pt_clust_10="13000.00000"></scales>
<clustering>
<clus scale="   38.811">  2  9  1 -1</clus>
<clus scale="   90.275">  7  8 -1 -1</clus>
<clus scale="   91.342">  5  6 -1 -1</clus>
<clus scale="  103.106">  5 10 -1 -1</clus>
<clus scale="  138.125">  1  7  2 -1</clus>
<clus scale="   38.811">  2  5  1 -1</clus>
</clustering>
</event>
<event>
10    2  0.5921424E-006  0.2413010E+03  0.7546771E-02  0.1150026E+00
         21   -1    0    0  503  502  0.00000000000E+00  0.00000000000E+00  0.22702467737E+03  0.22702467737E+03  0.00000000000E+00 0. -1.
          3   -1    0    0  502    0 -0.00000000000E+00 -0.00000000000E+00 -0.39307568593E+03  0.39307568593E+03  0.00000000000E+00 0. -1.
         23    2    1    2    0    0 -0.29448571131E+02 -0.53966218162E+02 -0.19296435207E+03  0.22276551262E+03  0.92788261087E+02 0.  0.
         23    2    1    2    0    0 -0.66011844969E+02 -0.20889336992E+02 -0.28925974448E+02  0.11819577053E+03  0.91321410953E+02 0.  0.
        -13    1    3    3    0    0 -0.65610988995E+01 -0.61958790588E+02 -0.18795206464E+03  0.19800989458E+03  0.00000000000E+00 0.  1.
         13    1    3    3    0    0 -0.22887472231E+02  0.79925724256E+01 -0.50122874382E+01  0.24755618039E+02  0.00000000000E+00 0. -1.
        -13    1    4    4    0    0 -0.86399117097E+02 -0.19514875939E+02 -0.37305129999E+02  0.96110928318E+02  0.00000000000E+00 0. -1.
         13    1    4    4    0    0  0.20387272128E+02 -0.13744610529E+01  0.83791555506E+01  0.22084842217E+02  0.00000000000E+00 0.  1.
         21    1    1    2  503  501  0.20344549817E+02 -0.34015309243E+02  0.12411317107E+03  0.13028822358E+03  0.00000000000E+00 0. -1.
          3    1    1    2  501    0  0.75115866283E+02  0.10887086440E+03 -0.68273853111E+02  0.14885085657E+03  0.00000000000E+00 0. -1.
<scales pt_clust_5="13000.00000" pt_clust_6="13000.00000" pt_clust_7="13000.00000" pt_clust_8="13000.00000" pt_clust_9="39.63511" pt_clust_10="13000.00000"></scales>
<clustering>
<clus scale="   39.635">  1  9  2 -1</clus>
<clus scale="   91.321">  7  8 -1 -1</clus>
<clus scale="   92.788">  5  6 -1 -1</clus>
<clus scale="  113.108">  2  5  1 -1</clus>
<clus scale="   91.912">  7 10 -1 -1</clus>
<clus scale="   39.635">  1  5  2 -1</clus>
</clustering>
</event>
<event>
10    2  0.5921424E-006  0.2527424E+03  0.7546771E-02  0.1122623E+00
          1   -1    0    0  503    0 -0.00000000000E+00  0.00000000000E+00  0.16447950941E+04  0.16447950941E+04  0.00000000000E+00 0. -1.
         21   -1    0    0  501  502  0.00000000000E+00 -0.00000000000E+00 -0.38043809446E+02  0.38043809446E+02  0.00000000000E+00 0. -1.
         23    2    1    2    0    0  0.54286844574E+02  0.15337227864E+03  0.77105698357E+03  0.79334907266E+03  0.91672034067E+02 0.  0.
         23    2    1    2    0    0 -0.31611840341E+02 -0.67642065124E+02  0.62046500928E+03  0.63165377765E+03  0.91841764274E+02 0.  0.
        -11    1    3    3    0    0  0.45006912715E+01  0.13059875256E+03  0.58421121233E+03  0.59864766850E+03  0.00000000000E+00 0. -1.
         11    1    3    3    0    0  0.49786153303E+02  0.22773526088E+02  0.18684577124E+03  0.19470140416E+03  0.00000000000E+00 0.  1.
        -11    1    4    4    0    0 -0.20894343374E+02  0.20656203770E+02  0.16078849613E+03  0.16345088811E+03  0.00000000000E+00 0. -1.
         11    1    4    4    0    0 -0.10717496967E+02 -0.88298268894E+02  0.45967651315E+03  0.46820288954E+03  0.00000000000E+00 0.  1.
         21    1    1    2  503  502 -0.21365442728E+02  0.23072129795E+02  0.32926739087E+02  0.45529940294E+02  0.00000000000E+00 0.  1.
          1    1    1    2  501    0 -0.13095615059E+01 -0.10880234331E+03  0.18230255272E+03  0.21230611294E+03  0.00000000000E+00 0. -1.
<scales pt_clust_5="13000.00000" pt_clust_6="13000.00000" pt_clust_7="13000.00000" pt_clust_8="13000.00000" pt_clust_9="31.44527" pt_clust_10="13000.00000"></scales>
<clustering>
<clus scale="   31.445">  2  9  1 -1</clus>
<clus scale="   91.672">  5  6 -1 -1</clus>
<clus scale="   91.842">  7  8 -1 -1</clus>
<clus scale="   98.561">  7 10 -1 -1</clus>
<clus scale="  191.485">  1  5  2 -1</clus>
<clus scale="   31.445">  2  5  1 -1</clus>
</clustering>
</event>
<event>
10    2  0.5921424E-006  0.5121087E+03  0.7546771E-02  0.1014355E+00
         21   -1    0    0  501  502  0.00000000000E+00  0.00000000000E+00  0.12552862346E+03  0.12552862346E+03  0.00000000000E+00 0.  1.
          2   -1    0    0  503    0 -0.00000000000E+00 -0.00000000000E+00 -0.24959723714E+04  0.24959723714E+04  0.00000000000E+00 0. -1.
         23    2    1    2    0    0  0.25836202872E+01  0.40311511922E+03 -0.69641540333E+03  0.80967904850E+03  0.89873651059E+02 0.  0.
         23    2    1    2    0    0  0.84816587094E+02 -0.13655167850E+03 -0.68135549636E+03  0.70602945352E+03  0.91608200889E+02 0.  0.
        -11    1    3    3    0    0 -0.89780826362E+01  0.19567696777E+03 -0.25267964356E+03  0.31971406593E+03  0.00000000000E+00 0.  1.
         11    1    3    3    0    0  0.11561702923E+02  0.20743815145E+03 -0.44373575977E+03  0.48996498257E+03  0.00000000000E+00 0. -1.
        -13    1    4    4    0    0  0.34459880197E+02 -0.27356296107E+02 -0.67964485411E+02  0.80963087620E+02  0.00000000000E+00 0.  1.
         13    1    4    4    0    0  0.50356706897E+02 -0.10919538239E+03 -0.61339101095E+03  0.62506636590E+03  0.00000000000E+00 0. -1.
         21    1    1    2  503  502 -0.11011494647E+03  0.82052422253E+02 -0.30389472819E+03  0.33348149462E+03  0.00000000000E+00 0.  1.
          2    1    1    2  501    0  0.22714739084E+02 -0.34861586298E+03 -0.68877812012E+03  0.77231099827E+03  0.00000000000E+00 0. -1.
<scales pt_clust_5="13000.00000" pt_clust_6="13000.00000" pt_clust_7="13000.00000" pt_clust_8="13000.00000" pt_clust_9="137.32414" pt_clust_10="13000.00000"></scales>
<clustering>
<clus scale="   89.874">  5  6 -1 -1</clus>
<clus scale="   91.608">  7  8 -1 -1</clus>
<clus scale="  137.324">  1  9  2 -1</clus>
<clus scale="  318.225">  7 10 -1 -1</clus>
<clus scale="  457.230">  2  5  1 -1</clus>
<clus scale="  137.324">  1  5  2 -1</clus>
</clustering>
</event>
<event>
10    2  0.5921424E-006  0.1596593E+03  0.7546771E-02  0.1206529E+00
         -1   -1    0    0    0  501 -0.00000000000E+00  0.00000000000E+00  0.66549610026E+03  0.66549610026E+03  0.00000000000E+00 0.  1.
         21   -1    0    0  503  502  0.00000000000E+00 -0.00000000000E+00 -0.70409669428E+02  0.70409669428E+02  0.00000000000E+00 0.  1.
         23    2    1    2    0    0  0.29272349241E+01 -0.63068314101E+02  0.36048893446E+03  0.37761087757E+03  0.93013558405E+02 0.  0.
         23    2    1    2    0    0 -0.11802677995E+01 -0.11100216474E+02  0.19851579263E+03  0.22174950426E+03  0.98182049667E+02 0.  0.
        -11    1    4    4    0    0  0.44503836060E+02 -0.22747485915E+02  0.12245888476E+03  0.13226570982E+03  0.00000000000E+00 0.  1.
         11    1    4    4    0    0 -0.45684103859E+02  0.11647269441E+02  0.76056907874E+02  0.89483794433E+02  0.00000000000E+00 0. -1.
        -13    1    3    3    0    0  0.18709594384E+02  0.16769249098E+02  0.42482195240E+02  0.49355785373E+02  0.00000000000E+00 0.  1.
         13    1    3    3    0    0 -0.15782359460E+02 -0.79837563199E+02  0.31800673922E+03  0.32825509220E+03  0.00000000000E+00 0. -1.
         21    1    1    2  503  501  0.14491541275E+02  0.21946368585E+02 -0.36921035549E+02  0.45330020170E+02  0.00000000000E+00 0.  1.
         -1    1    1    2    0  502 -0.16238508400E+02  0.52222161990E+02  0.73002739292E+02  0.91215367686E+02  0.00000000000E+00 0.  1.
<scales pt_clust_5="13000.00000" pt_clust_6="13000.00000" pt_clust_7="13000.00000" pt_clust_8="13000.00000" pt_clust_9="26.29920" pt_clust_10="13000.00000"></scales>
<clustering>
<clus scale="   26.299">  2  9  1 -1</clus>
<clus scale="   93.014">  7  8 -1 -1</clus>
<clus scale="   98.182">  5  6 -1 -1</clus>
<clus scale="   60.201">  5 10 -1 -1</clus>
<clus scale="  109.144">  1  7  2 -1</clus>
<clus scale="   26.299">  2  5  1 -1</clus>
</clustering>
</event>
<event>
10    2  0.5921424E-006  0.1469724E+03  0.7546771E-02  0.1217292E+00
          3   -1    0    0  503    0 -0.00000000000E+00  0.00000000000E+00  0.19115072658E+03  0.19115072658E+03  0.00000000000E+00 0. -1.
         21   -1    0    0  501  502  0.00000000000E+00 -0.00000000000E+00 -0.60200455569E+03  0.60200455569E+03  0.00000000000E+00 0. -1.
         23    2    1    2    0    0 -0.64161976715E+02 -0.25119383156E+02  0.11956994224E+03  0.16621243854E+03  0.92638334247E+02 0.  0.
         23    2    1    2    0    0  0.25093801755E+01 -0.44475641597E+02 -0.34887059295E+02  0.11020657438E+03  0.94572736268E+02 0.  0.
        -11    1    3    3    0    0  0.51148616624E+01  0.27671177094E+02  0.33676631869E+02  0.43885890508E+02  0.00000000000E+00 0.  1.
         11    1    3    3    0    0 -0.69276838378E+02 -0.52790560250E+02  0.85893310375E+02  0.12232654804E+03  0.00000000000E+00 0. -1.
        -11    1    4    4    0    0  0.25121303231E+02 -0.68998052224E+01 -0.55828993882E+02  0.61608146750E+02  0.00000000000E+00 0.  1.
         11    1    4    4    0    0 -0.22611923055E+02 -0.37575836375E+02  0.20941934587E+02  0.48598427627E+02  0.00000000000E+00 0. -1.
         21    1    1    2  503  502  0.24518935742E+02  0.68855274450E+02 -0.45848371067E+03  0.46427313079E+03  0.00000000000E+00 0. -1.
          3    1    1    2  501    0  0.37133660798E+02  0.73975030290E+00 -0.37053001394E+02  0.52463138555E+02  0.00000000000E+00 0. -1.
<scales pt_clust_5="13000.00000" pt_clust_6="13000.00000" pt_clust_7="13000.00000" pt_clust_8="13000.00000" pt_clust_9="73.09054" pt_clust_10="13000.00000"></scales>
<clustering>
<clus scale="   73.091">  2  9  1 -1</clus>
<clus scale="   92.638">  5  6 -1 -1</clus>
<clus scale="   94.573">  7  8 -1 -1</clus>
<clus scale="   50.325">  7 10 -1 -1</clus>
<clus scale="  111.270">  1  5  2 -1</clus>
<clus scale="   73.091">  2  5  1 -1</clus>
</clustering>
</event>
<event>
10    2  0.5921424E-006  0.3840501E+03  0.7546771E-02  0.1091945E+00
         21   -1    0    0  503  502  0.00000000000E+00  0.00000000000E+00  0.12774683424E+03  0.12774683424E+03  0.00000000000E+00 0.  1.
          2   -1    0    0  502    0 -0.00000000000E+00 -0.00000000000E+00 -0.11235402806E+04  0.11235402806E+04  0.00000000000E+00 0. -1.
         23    2    1    2    0    0 -0.22410361729E+02 -0.78064620544E+02 -0.31480332491E+03  0.33795493210E+03  0.92282682338E+02 0.  0.
         23    2    1    2    0    0  0.89346215056E+02  0.18217054266E+03 -0.55761865124E+03  0.59822144693E+03  0.75904457031E+02 0.  0.
        -11    1    4    4    0    0  0.45743116061E+02  0.89652815147E+02 -0.38155219725E+03  0.39460377489E+03  0.00000000000E+00 0. -1.
         11    1    4    4    0    0  0.43603098996E+02  0.92517727514E+02 -0.17606645399E+03  0.20361767204E+03  0.00000000000E+00 0.  1.
        -11    1    3    3    0    0  0.29490222971E+02 -0.44484991488E+02 -0.20615745892E+03  0.21295418659E+03  0.00000000000E+00 0.  1.
         11    1    3    3    0    0 -0.51900584700E+02 -0.33579629056E+02 -0.10864586599E+03  0.12500074551E+03  0.00000000000E+00 0. -1.
         21    1    1    2  503  501  0.95112286988E+01  0.22760772131E+02  0.68449306379E+02  0.72758667959E+02  0.00000000000E+00 0.  1.
          2    1    1    2  501    0 -0.76447082026E+02 -0.12686669425E+03 -0.19182077660E+03  0.24235206786E+03  0.00000000000E+00 0. -1.
<scales pt_clust_5="13000.00000" pt_clust_6="13000.00000" pt_clust_7="13000.00000" pt_clust_8="13000.00000" pt_clust_9="24.66812" pt_clust_10="13000.00000"></scales>
<clustering>
<clus scale="   24.668">  1  9  2 -1</clus>
<clus scale="   75.904">  5  6 -1 -1</clus>
<clus scale="   92.283">  7  8 -1 -1</clus>
<clus scale="  119.713">  2  7  1 -1</clus>
<clus scale="  154.476">  5 10 -1 -1</clus>
<clus scale="   24.668">  1  5  2 -1</clus>
</clustering>
</event>
<event>
10    2  0.5921424E-006  0.1575665E+03  0.7546771E-02  0.1205741E+00
          1   -1    0    0  503    0 -0.00000000000E+00  0.00000000000E+00  0.29622698919E+03  0.29622698919E+03  0.00000000000E+00 0. -1.
         21   -1    0    0  501  502  0.00000000000E+00 -0.00000000000E+00 -0.22094067028E+03  0.22094067028E+03  0.00000000000E+00 0.  1.
         23    2    1    2    0    0  0.44987874028E+02 -0.54468712207E+02  0.22871350914E+03  0.25601550785E+03  0.90792739683E+02 0.  0.
         23    2    1    2    0    0  0.62974889916E+01  0.73168506280E+02 -0.73297410794E+02  0.13886428375E+03  0.92290249725E+02 0.  0.
        -13    1    3    3    0    0  0.60551139896E+02 -0.40676173936E+02  0.22273836941E+03  0.23437869544E+03  0.00000000000E+00 0. -1.
         13    1    3    3    0    0 -0.15563265868E+02 -0.13792538271E+02  0.59751397235E+01  0.21636812407E+02  0.00000000000E+00 0.  1.
        -13    1    4    4    0    0 -0.31281753594E+01  0.94499394531E+02 -0.60704911849E+02  0.11236105807E+03  0.00000000000E+00 0.  1.
         13    1    4    4    0    0  0.94256643510E+01 -0.21330888250E+02 -0.12592498945E+02  0.26503225685E+02  0.00000000000E+00 0. -1.
         21    1    1    2  503  502 -0.12271726493E+02 -0.19387550880E+02 -0.80044363431E+02  0.83268076220E+02  0.00000000000E+00 0.  1.
          1    1    1    2  501    0 -0.39013636527E+02  0.68775680645E+00 -0.85416008281E-01  0.39019791649E+02  0.00000000000E+00 0. -1.
<scales pt_clust_5="13000.00000" pt_clust_6="13000.00000" pt_clust_7="13000.00000" pt_clust_8="13000.00000" pt_clust_9="22.94499" pt_clust_10="13000.00000"></scales>
<clustering>
<clus scale="   22.945">  2  9  1 -1</clus>
<clus scale="   90.793">  5  6 -1 -1</clus>
<clus scale="   92.290">  7  8 -1 -1</clus>
<clus scale="   40.787">  7 10 -1 -1</clus>
<clus scale="  115.490">  1  5  2 -1</clus>
<clus scale="   22.945">  2  5  1 -1</clus>
</clustering>
</event>
<event>
10    2  0.5921424E-006  0.3418649E+03  0.7546771E-02  0.1079732E+00
          1   -1    0    0  503    0 -0.00000000000E+00  0.00000000000E+00  0.91775921914E+03  0.91775921914E+03  0.00000000000E+00 0. -1.
         21   -1    0    0  501  502  0.00000000000E+00 -0.00000000000E+00 -0.26067610608E+03  0.26067610608E+03  0.00000000000E+00 0.  1.
         23    2    1    2    0    0 -0.12111042751E+03 -0.15669471072E+03  0.48643787566E+03  0.53318631518E+03  0.91895983562E+02 0.  0.
         23    2    1    2    0    0  0.97529600331E+02  0.11223395821E+03  0.29765138842E+03  0.34478524465E+03  0.90399289744E+02 0.  0.
        -13    1    3    3    0    0 -0.12377605168E+03 -0.93999305637E+02  0.35532625432E+03  0.38783131312E+03  0.00000000000E+00 0.  1.
         13    1    3    3    0    0  0.26656241769E+01 -0.62695405082E+02  0.13111162134E+03  0.14535500205E+03  0.00000000000E+00 0. -1.
        -13    1    4    4    0    0  0.62222490692E+02  0.81855689671E+02  0.10647448136E+03  0.14801624053E+03  0.00000000000E+00 0. -1.
         13    1    4    4    0    0  0.35307109639E+02  0.30378268537E+02  0.19117690707E+03  0.19676900413E+03  0.00000000000E+00 0.  1.
         21    1    1    2  503  502 -0.60080118154E+02 -0.75557283212E+02 -0.11998443431E+03  0.15399606527E+03  0.00000000000E+00 0.  1.
          1    1    1    2  501    0  0.83660945331E+02  0.12001803572E+03 -0.70217167217E+01  0.14646770012E+03  0.00000000000E+00 0. -1.
<scales pt_clust_5="13000.00000" pt_clust_6="13000.00000" pt_clust_7="13000.00000" pt_clust_8="13000.00000" pt_clust_9="96.53250" pt_clust_10="13000.00000"></scales>
<clustering>
<clus scale="   90.399">  7  8 -1 -1</clus>
<clus scale="   91.896">  5  6 -1 -1</clus>
<clus scale="   96.533">  2  9  1 -1</clus>
<clus scale="   86.604">  7 10 -1 -1</clus>
<clus scale="  234.997">  1  5  2 -1</clus>
<clus scale="   96.533">  2  5  1 -1</clus>
</clustering>
</event>
<event>
10    2  0.5921424E-006  0.2032868E+03  0.7546771E-02  0.1178631E+00
          1   -1    0    0  503    0 -0.00000000000E+00  0.00000000000E+00  0.10693561918E+03  0.10693561918E+03  0.00000000000E+00 0. -1.
         21   -1    0    0  501  502  0.00000000000E+00 -0.00000000000E+00 -0.31834290336E+03  0.31834290336E+03  0.00000000000E+00 0.  1.
         23    2    1    2    0    0 -0.14783606085E+02 -0.53654367745E+01 -0.14850547248E+02  0.96640861950E+02  0.94189036115E+02 0.  0.
         23    2    1    2    0    0  0.33825144282E+02  0.72749322777E+00  0.15794814857E+02  0.97735410438E+02  0.90322005320E+02 0.  0.
        -13    1    3    3    0    0 -0.12783296849E+02 -0.48370507667E+02 -0.18713309064E+02  0.53416351677E+02  0.00000000000E+00 0.  1.
         13    1    3    3    0    0 -0.20003092353E+01  0.43005070893E+02  0.38627618164E+01  0.43224510273E+02  0.00000000000E+00 0. -1.
        -13    1    4    4    0    0  0.92789349484E+01 -0.25258268087E+02 -0.29569168187E+02  0.39980175685E+02  0.00000000000E+00 0.  1.
         13    1    4    4    0    0  0.24546209333E+02  0.25985761314E+02  0.45363983044E+02  0.57755234753E+02  0.00000000000E+00 0. -1.
         21    1    1    2  503  502 -0.36014345630E+02 -0.28080354249E+02 -0.67946177503E+02  0.81867102204E+02  0.00000000000E+00 0.  1.
          1    1    1    2  501    0  0.16972807433E+02  0.32718297796E+02 -0.14440537428E+03  0.14903514795E+03  0.00000000000E+00 0. -1.
<scales pt_clust_5="13000.00000" pt_clust_6="13000.00000" pt_clust_7="13000.00000" pt_clust_8="13000.00000" pt_clust_9="45.66771" pt_clust_10="13000.00000"></scales>
<clustering>
<clus scale="   45.668">  2  9  1 -1</clus>
<clus scale="   90.322">  7  8 -1 -1</clus>
<clus scale="   16.488">  7 10 -1 -1</clus>
<clus scale="   94.189">  5  6 -1 -1</clus>
<clus scale="   97.679">  1  5  2 -1</clus>
<clus scale="   45.668">  2  5  1 -1</clus>
</clustering>
</event>
<event>
10    2  0.5921424E-006  0.2334014E+03  0.7546771E-02  0.1146152E+00
         21   -1    0    0  503  502  0.00000000000E+00  0.00000000000E+00  0.34735120355E+03  0.34735120355E+03  0.00000000000E+00 0. -1.
         -2   -1    0    0    0  501 -0.00000000000E+00 -0.00000000000E+00 -0.22898045993E+03  0.22898045993E+03  0.00000000000E+00 0.  1.
         23    2    1    2    0    0 -0.95817012885E+02  0.15499102662E+01 -0.85027923116E+02  0.15732470324E+03  0.91312717403E+02 0.  0.
         23    2    1    2    0    0  0.35009777808E+02  0.14036607001E+02 -0.48016477343E+02  0.10957423062E+03  0.90984718724E+02 0.  0.
        -11    1    4    4    0    0  0.20622217844E+02  0.41500494904E+02  0.65620634862E+01  0.46804141091E+02  0.00000000000E+00 0. -1.
         11    1    4    4    0    0  0.14387559964E+02 -0.27463887903E+02 -0.54578540829E+02  0.62770089529E+02  0.00000000000E+00 0.  1.
        -13    1    3    3    0    0 -0.81855714873E+02  0.32206462391E+02 -0.30253512297E+02  0.93020907775E+02  0.00000000000E+00 0. -1.
         13    1    3    3    0    0 -0.13961298013E+02 -0.30656552125E+02 -0.54774410819E+02  0.64303795463E+02  0.00000000000E+00 0.  1.
         21    1    1    2  503  501 -0.30243660756E+02  0.43163989131E+02  0.15734259189E+03  0.16593522892E+03  0.00000000000E+00 0. -1.
         -2    1    1    2    0  502  0.91050895833E+02 -0.58750506398E+02  0.94072552188E+02  0.14349750071E+03  0.00000000000E+00 0.  1.
<scales pt_clust_5="13000.00000" pt_clust_6="13000.00000" pt_clust_7="13000.00000" pt_clust_8="13000.00000" pt_clust_9="52.70492" pt_clust_10="13000.00000"></scales>
<clustering>
<clus scale="   52.705">  1  9  2 -1</clus>
<clus scale="   90.985">  5  6 -1 -1</clus>
<clus scale="   78.177">  5 10 -1 -1</clus>
<clus scale="   91.313">  7  8 -1 -1</clus>
<clus scale="  137.043">  2  7  1 -1</clus>
<clus scale="   52.705">  1  5  2 -1</clus>
</clustering>
</event>
<event>
10    2  0.5921424E-006  0.3382575E+03  0.7546771E-02  0.1112449E+00
         -2   -1    0    0    0  501 -0.00000000000E+00  0.00000000000E+00  0.94599581221E+02  0.94599581221E+02  0.00000000000E+00 0.  1.
         21   -1    0    0  503  502  0.00000000000E+00 -0.00000000000E+00 -0.68035815456E+03  0.68035815456E+03  0.00000000000E+00 0.  1.
         23    2    1    2    0    0 -0.46144377386E+02 -0.46572964917E+01 -0.33046246588E+02  0.10679262616E+03  0.90341665989E+02 0.  0.
         23    2    1    2    0    0 -0.60336433315E+02 -0.60853122164E+02 -0.40347450108E+03  0.42264066906E+03  0.92140514776E+02 0.  0.
        -11    1    3    3    0    0 -0.64477218352E+01 -0.44511753663E+02 -0.18926560358E+02  0.48796352507E+02  0.00000000000E+00 0.  1.
         11    1    3    3    0    0 -0.39696655551E+02  0.39854457172E+02 -0.14119686230E+02  0.57996273653E+02  0.00000000000E+00 0. -1.
        -13    1    4    4    0    0  0.43744115917E+01 -0.46967497055E+02 -0.26496544703E+03  0.26913150944E+03  0.00000000000E+00 0. -1.
         13    1    4    4    0    0 -0.64710844907E+02 -0.13885625109E+02 -0.13850905405E+03  0.15350915962E+03  0.00000000000E+00 0.  1.
         21    1    1    2  503  501 -0.29796589492E+02  0.16081862669E+01 -0.68509636533E+02  0.74726121981E+02  0.00000000000E+00 0.  1.
         -2    1    1    2    0  502  0.13627740019E+03  0.63902232389E+02 -0.80728189144E+02  0.17079831858E+03  0.00000000000E+00 0.  1.
<scales pt_clust_5="13000.00000" pt_clust_6="13000.00000" pt_clust_7="13000.00000" pt_clust_8="13000.00000" pt_clust_9="29.83996" pt_clust_10="13000.00000"></scales>
<clustering>
<clus scale="   29.840">  2  9  1 -1</clus>
<clus scale="   90.342">  5  6 -1 -1</clus>
<clus scale="   92.141">  7  8 -1 -1</clus>
<clus scale="  103.143">  1  5  2 -1</clus>
<clus scale="  110.947">  7 10 -1 -1</clus>
<clus scale="   29.840">  2  5  1 -1</clus>
</clustering>
</event>
<event>
10    2  0.5921424E-006  0.3798719E+03  0.7546771E-02  0.1099531E+00
          1   -1    0    0  503    0 -0.00000000000E+00  0.00000000000E+00  0.74244118141E+03  0.74244118141E+03  0.00000000000E+00 0. -1.
         21   -1    0    0  501  502  0.00000000000E+00 -0.00000000000E+00 -0.12598209511E+03  0.12598209511E+03  0.00000000000E+00 0. -1.
         23    2    1    2    0    0  0.44781281540E+02 -0.24669072327E+02  0.27957018789E+03  0.29792125819E+03  0.89351328011E+02 0.  0.
         23    2    1    2    0    0 -0.14058811601E+03  0.16632178153E+02  0.28692539313E+02  0.17079909439E+03  0.91145055365E+02 0.  0.
        -13    1    3    3    0    0  0.62986899774E+02  0.35058405185E+01  0.12822505957E+03  0.14290313629E+03  0.00000000000E+00 0. -1.
         13    1    3    3    0    0 -0.18205618234E+02 -0.28174912845E+02  0.15134512833E+03  0.15501812190E+03  0.00000000000E+00 0.  1.
        -13    1    4    4    0    0 -0.45158366138E+02 -0.18392255290E+02  0.46753254529E+02  0.67553089462E+02  0.00000000000E+00 0.  1.
         13    1    4    4    0    0 -0.95429749871E+02  0.35024433443E+02 -0.18060715215E+02  0.10324600492E+03  0.00000000000E+00 0. -1.
         21    1    1    2  503  502 -0.15572321180E+02  0.35606255285E+02 -0.25733403522E+02  0.46610199090E+02  0.00000000000E+00 0.  1.
          1    1    1    2  501    0  0.11137915565E+03 -0.27569361111E+02  0.33392976261E+03  0.35309272485E+03  0.00000000000E+00 0. -1.
<scales pt_clust_5="13000.00000" pt_clust_6="13000.00000" pt_clust_7="13000.00000" pt_clust_8="13000.00000" pt_clust_9="38.86261" pt_clust_10="13000.00000"></scales>
<clustering>
<clus scale="   38.863">  2  9  1 -1</clus>
<clus scale="   89.351">  5  6 -1 -1</clus>
<clus scale="   91.145">  7  8 -1 -1</clus>
<clus scale="  101.446">  1  5  2 -1</clus>
<clus scale="  146.096">  7 10 -1 -1</clus>
<clus scale="   38.863">  2  5  1 -1</clus>
</clustering>
</event>
<event>
10    2  0.5921424E-006  0.1492159E+03  0.7546771E-02  0.1217911E+00
         21   -1    0    0  503  502  0.00000000000E+00  0.00000000000E+00  0.90625605048E+02  0.90625605048E+02  0.00000000000E+00 0. -1.
         -4   -1    0    0    0  501 -0.00000000000E+00 -0.00000000000E+00 -0.27716361770E+03  0.27716361770E+03  0.00000000000E+00 0.  1.
         23    2    1    2    0    0  0.30369067807E+02  0.49501737634E+02 -0.13227305332E+03  0.17086736020E+03  0.91251256644E+02 0.  0.
         23    2    1    2    0    0 -0.42555642334E+02 -0.21316140726E+02 -0.80109535619E+02  0.13272535229E+03  0.94515188699E+02 0.  0.
        -11    1    4    4    0    0 -0.47069160532E+02  0.15785896030E+01 -0.94305447385E+02  0.10541117220E+03  0.00000000000E+00 0.  1.
         11    1    4    4    0    0  0.45135181983E+01 -0.22894730329E+02  0.14195911766E+02  0.27314180094E+02  0.00000000000E+00 0. -1.
        -11    1    3    3    0    0 -0.16375734813E+02  0.56253801308E+02 -0.90528169111E+02  0.10783322426E+03  0.00000000000E+00 0. -1.
         11    1    3    3    0    0  0.46744802620E+02 -0.67520636742E+01 -0.41744884210E+02  0.63034135939E+02  0.00000000000E+00 0.  1.
         21    1    1    2  503  501 -0.16418096197E+02 -0.13815570650E+02  0.23910413910E+02  0.32126807630E+02  0.00000000000E+00 0. -1.
         -4    1    1    2    0  502  0.28604670724E+02 -0.14370026258E+02  0.19341623821E+01  0.32069702618E+02  0.00000000000E+00 0.  1.
<scales pt_clust_5="13000.00000" pt_clust_6="13000.00000" pt_clust_7="13000.00000" pt_clust_8="13000.00000" pt_clust_9="21.45749" pt_clust_10="13000.00000"></scales>
<clustering>
<clus scale="   21.457">  1  9  2 -1</clus>
<clus scale="   91.251">  7  8 -1 -1</clus>
<clus scale="   94.515">  5  6 -1 -1</clus>
<clus scale="   30.190">  5 10 -1 -1</clus>
<clus scale="  104.949">  2  7  1 -1</clus>
<clus scale="   21.457">  1  5  2 -1</clus>
</clustering>
</event>
<event>
10    2  0.5921424E-006  0.2875364E+03  0.7546771E-02  0.1131063E+00
          1   -1    0    0  502    0 -0.00000000000E+00  0.00000000000E+00  0.54204797457E+03  0.54204797457E+03  0.00000000000E+00 0. -1.
         21   -1    0    0  503  502  0.00000000000E+00 -0.00000000000E+00 -0.62486745747E+03  0.62486745747E+03  0.00000000000E+00 0.  1.
         23    2    1    2    0    0  0.21465298868E+02  0.48919423718E+02  0.41482728167E+03  0.42805068853E+03  0.91059591833E+02 0.  0.
         23    2    1    2    0    0 -0.66319729670E+02 -0.15898696452E+02  0.47382117643E+02  0.12527013304E+03  0.93789477378E+02 0.  0.
        -11    1    4    4    0    0 -0.24609797845E+02 -0.10482601806E+02  0.71810423016E+02  0.76630698446E+02  0.00000000000E+00 0. -1.
         11    1    4    4    0    0 -0.41709931826E+02 -0.54160946459E+01 -0.24428305373E+02  0.48639434593E+02  0.00000000000E+00 0.  1.
        -13    1    3    3    0    0  0.49410977655E+02  0.36546423089E+01  0.24963506270E+03  0.25450435291E+03  0.00000000000E+00 0.  1.
         13    1    3    3    0    0 -0.27945678788E+02  0.45264781409E+02  0.16519221897E+03  0.17354633562E+03  0.00000000000E+00 0. -1.
         21    1    1    2  503  501  0.99823286819E+01 -0.13768655102E+03 -0.44046948152E+03  0.46159570770E+03  0.00000000000E+00 0.  1.
          1    1    1    2  501    0  0.34872102120E+02  0.10466582375E+03 -0.10455940070E+03  0.15199890277E+03  0.00000000000E+00 0. -1.
<scales pt_clust_5="13000.00000" pt_clust_6="13000.00000" pt_clust_7="13000.00000" pt_clust_8="13000.00000" pt_clust_9="133.92848" pt_clust_10="13000.00000"></scales>
<clustering>
<clus scale="   91.060">  7  8 -1 -1</clus>
<clus scale="   93.789">  5  6 -1 -1</clus>
<clus scale="  105.573">  1  7  2 -1</clus>
<clus scale="  120.788">  5 10 -1 -1</clus>
<clus scale="  133.928">  2  9  1 -1</clus>
<clus scale="  133.928">  2  5  1 -1</clus>
</clustering>
</event>
<event>
10    2  0.5921424E-006  0.3599921E+03  0.7546771E-02  0.1085764E+00
         21   -1    0    0  503  502  0.00000000000E+00  0.00000000000E+00  0.33746603071E+03  0.33746603071E+03  0.00000000000E+00 0. -1.
          1   -1    0    0  502    0 -0.00000000000E+00 -0.00000000000E+00 -0.95203133261E+03  0.95203133261E+03  0.00000000000E+00 0. -1.
         23    2    1    2    0    0 -0.11351534466E+03 -0.80024481080E+02 -0.55326261788E+03  0.57770233218E+03  0.91382762161E+02 0.  0.
         23    2    1    2    0    0  0.12897339873E+03 -0.45025325350E+02 -0.26966242500E+03  0.31333197006E+03  0.82448059444E+02 0.  0.
        -11    1    3    3    0    0 -0.36199010744E+02 -0.54463181459E+02 -0.38792999920E+03  0.39340347074E+03  0.00000000000E+00 0. -1.
         11    1    3    3    0    0 -0.77316333912E+02 -0.25561299621E+02 -0.16533261868E+03  0.18429886144E+03  0.00000000000E+00 0.  1.
        -13    1    4    4    0    0  0.98925879414E+02 -0.69027397252E+02 -0.21440429711E+03  0.24600876774E+03  0.00000000000E+00 0.  1.
         13    1    4    4    0    0  0.30047519317E+02  0.24002071902E+02 -0.55258127889E+02  0.67323202319E+02  0.00000000000E+00 0. -1.
         21    1    1    2  503  501 -0.36890277739E+02 -0.37127592030E+02  0.22779017323E+03  0.23372572324E+03  0.00000000000E+00 0. -1.
          1    1    1    2  501    0  0.21432223664E+02  0.16217739846E+03 -0.19430432261E+02  0.16473733784E+03  0.00000000000E+00 0. -1.
<scales pt_clust_5="13000.00000" pt_clust_6="13000.00000" pt_clust_7="13000.00000" pt_clust_8="13000.00000" pt_clust_9="52.33881" pt_clust_10="13000.00000"></scales>
<clustering>
<clus scale="   52.339">  1  9  2 -1</clus>
<clus scale="   82.448">  7  8 -1 -1</clus>
<clus scale="   91.383">  5  6 -1 -1</clus>
<clus scale="  136.948">  7 10 -1 -1</clus>
<clus scale="  171.219">  2  5  1 -1</clus>
<clus scale="   52.339">  1  5  2 -1</clus>
</clustering>
</event>
<event>
10    2  0.5921424E-006  0.2143084E+03  0.7546771E-02  0.1173986E+00
          1   -1    0    0  503    0 -0.00000000000E+00  0.00000000000E+00  0.12576409335E+03  0.12576409335E+03  0.00000000000E+00 0. -1.
         21   -1    0    0  501  502  0.00000000000E+00 -0.00000000000E+00 -0.36421994721E+03  0.36421994721E+03  0.00000000000E+00 0.  1.
         23    2    1    2    0    0 -0.44032005369E+01 -0.52572669970E+01 -0.39119826313E+02  0.10053187878E+03  0.92354051394E+02 0.  0.
         23    2    1    2    0    0 -0.95402140240E+01 -0.45125154478E+01 -0.76793292039E+02  0.12212798570E+03  0.94375085217E+02 0.  0.
        -13    1    3    3    0    0  0.30499004522E+02  0.28479051321E+02 -0.69633800743E+01  0.42305251483E+02  0.00000000000E+00 0.  1.
         13    1    3    3    0    0 -0.34902205059E+02 -0.33736318318E+02 -0.32156446239E+02  0.58226627296E+02  0.00000000000E+00 0. -1.
        -13    1    4    4    0    0  0.35024781425E+01  0.42872277747E+02 -0.50681758159E+02  0.66475109345E+02  0.00000000000E+00 0.  1.
         13    1    4    4    0    0 -0.13042692166E+02 -0.47384793194E+02 -0.26111533880E+02  0.55652876355E+02  0.00000000000E+00 0. -1.
         21    1    1    2  503  502 -0.21023787036E+02  0.11988920108E+03 -0.69862115220E+02  0.14034292037E+03  0.00000000000E+00 0.  1.
          1    1    1    2  501    0  0.34967201597E+02 -0.11011941863E+03 -0.52680620292E+02  0.12698125571E+03  0.00000000000E+00 0. -1.
<scales pt_clust_5="13000.00000" pt_clust_6="13000.00000" pt_clust_7="13000.00000" pt_clust_8="13000.00000" pt_clust_9="120.09666" pt_clust_10="13000.00000"></scales>
<clustering>
<clus scale="   92.354">  5  6 -1 -1</clus>
<clus scale="   92.608">  1  5  2 -1</clus>
<clus scale="   94.375">  7  8 -1 -1</clus>
<clus scale="  116.997">  7 10 -1 -1</clus>
<clus scale="  120.097">  2  9  1 -1</clus>
<clus scale="  120.097">  2  5  1 -1</clus>
</clustering>
</event>
<event>
10    2  0.5921424E-006  0.1898446E+03  0.7546771E-02  0.1203021E+00
         21   -1    0    0  501  502  0.00000000000E+00  0.00000000000E+00  0.17100025553E+03  0.17100025553E+03  0.00000000000E+00 0.  1.
          2   -1    0    0  503    0 -0.00000000000E+00 -0.00000000000E+00 -0.13371612481E+03  0.13371612481E+03  0.00000000000E+00 0. -1.
         23    2    1    2    0    0  0.11202043693E+02 -0.60912794868E+01 -0.16834036125E+02  0.72577664715E+02  0.69437332715E+02 0.  0.
         23    2    1    2    0    0  0.59871086683E+02  0.15903795319E+02  0.46979039116E+02  0.12045887268E+03  0.92009956873E+02 0.  0.
        -11    1    4    4    0    0 -0.21141223691E+02 -0.99129757241E+01  0.68159012251E-01  0.23350012259E+02  0.00000000000E+00 0. -1.
         11    1    4    4    0    0  0.81012310374E+02  0.25816771043E+02  0.46910880104E+02  0.97108860416E+02  0.00000000000E+00 0.  1.
        -11    1    3    3    0    0  0.40648577280E+02 -0.37536543511E+01 -0.68205455619E+01  0.41387396604E+02  0.00000000000E+00 0. -1.
         11    1    3    3    0    0 -0.29446533587E+02 -0.23376251356E+01 -0.10013490563E+02  0.31190268111E+02  0.00000000000E+00 0.  1.
         21    1    1    2  503  502 -0.12454510722E+02  0.16121385906E+02  0.36014440991E+02  0.41376972832E+02  0.00000000000E+00 0. -1.
          2    1    1    2  501    0 -0.58618619654E+02 -0.25933901738E+02 -0.28875313262E+02  0.70302870109E+02  0.00000000000E+00 0. -1.
<scales pt_clust_5="13000.00000" pt_clust_6="13000.00000" pt_clust_7="13000.00000" pt_clust_8="13000.00000" pt_clust_9="20.37189" pt_clust_10="13000.00000"></scales>
<clustering>
<clus scale="   20.372">  1  9  2 -1</clus>
<clus scale="   69.437">  7  8 -1 -1</clus>
<clus scale="   70.017">  2  7  1 -1</clus>
<clus scale="   92.010">  5  6 -1 -1</clus>
<clus scale="   60.964">  5 10 -1 -1</clus>
<clus scale="   20.372">  1  5  2 -1</clus>
</clustering>
</event>
<event>
10    2  0.5921424E-006  0.3108993E+03  0.7546771E-02  0.1090010E+00
          1   -1    0    0  503    0 -0.00000000000E+00  0.00000000000E+00  0.14855090404E+04  0.14855090404E+04  0.00000000000E+00 0. -1.
         21   -1    0    0  501  502  0.00000000000E+00 -0.00000000000E+00 -0.11250914550E+03  0.11250914550E+03  0.00000000000E+00 0. -1.
         23    2    1    2    0    0  0.21674924053E+03  0.89525703426E+01  0.11581365098E+04  0.11818179101E+04  0.91394832632E+02 0.  0.
         23    2    1    2    0    0 -0.92969902110E+02 -0.69205839070E+02  0.17279041901E+03  0.22656257003E+03  0.89672840793E+02 0.  0.
        -11    1    4    4    0    0 -0.10036203620E+03 -0.37475909393E+02  0.98872260441E+02  0.14578307851E+03  0.00000000000E+00 0.  1.
         11    1    4    4    0    0  0.73921340890E+01 -0.31729929677E+02  0.73918158568E+02  0.80779491518E+02  0.00000000000E+00 0. -1.
        -13    1    3    3    0    0  0.20081865852E+03  0.34796157031E+02  0.10443103028E+04  0.10640126479E+04  0.00000000000E+00 0. -1.
         13    1    3    3    0    0  0.15930582008E+02 -0.25843586689E+02  0.11382620700E+03  0.11780526226E+03  0.00000000000E+00 0.  1.
         21    1    1    2  503  502  0.18643945539E+02 -0.88302954677E+01 -0.10097871299E+02  0.22968191659E+02  0.00000000000E+00 0. -1.
          1    1    1    2  501    0 -0.14242328396E+03  0.69083564195E+02  0.52170837302E+02  0.16666951407E+03  0.00000000000E+00 0. -1.
<scales pt_clust_5="13000.00000" pt_clust_6="13000.00000" pt_clust_7="13000.00000" pt_clust_8="13000.00000" pt_clust_9="20.62937" pt_clust_10="13000.00000"></scales>
<clustering>
<clus scale="   20.629">  2  9  1 -1</clus>
<clus scale="   89.673">  5  6 -1 -1</clus>
<clus scale="   91.395">  7  8 -1 -1</clus>
<clus scale="  145.989">  5 10 -1 -1</clus>
<clus scale="  237.482">  1  7  2 -1</clus>
<clus scale="   20.629">  2  5  1 -1</clus>
</clustering>
</event>
<event>
10    2  0.5921424E-006  0.1940834E+03  0.7546771E-02  0.1177375E+00
         21   -1    0    0  501  502  0.00000000000E+00  0.00000000000E+00  0.16288778110E+03  0.16288778110E+03  0.00000000000E+00 0.  1.
         -1   -1    0    0    0  501 -0.00000000000E+00 -0.00000000000E+00 -0.35145690802E+03  0.35145690802E+03  0.00000000000E+00 0.  1.
         23    2    1    2    0    0 -0.22875326893E+01 -0.95065064625E+02 -0.14080427984E+03  0.19192842855E+03  0.89264086538E+02 0.  0.
         23    2    1    2    0    0  0.49477054027E+02 -0.20741525604E+02 -0.37455294038E+02  0.11761278073E+03  0.97732683271E+02 0.  0.
        -11    1    4    4    0    0  0.40728195103E+02 -0.55899931572E+02 -0.56351297974E+01  0.69392671904E+02  0.00000000000E+00 0.  1.
         11    1    4    4    0    0  0.87488589240E+01  0.35158405968E+02 -0.31820164241E+02  0.48220108824E+02  0.00000000000E+00 0. -1.
        -11    1    3    3    0    0  0.25186288737E+02 -0.98264823117E+02 -0.12107222427E+03  0.15795191703E+03  0.00000000000E+00 0.  1.
         11    1    3    3    0    0 -0.27473821426E+02  0.31997584917E+01 -0.19732055571E+02  0.33976511522E+02  0.00000000000E+00 0. -1.
         21    1    1    2  503  502 -0.19307435496E+02  0.65160169828E+02  0.75342888809E+02  0.10146514521E+03  0.00000000000E+00 0.  1.
         -1    1    1    2    0  503 -0.27882085841E+02  0.50646420401E+02 -0.85652441855E+02  0.10333833464E+03  0.00000000000E+00 0.  1.
<scales pt_clust_5="13000.00000" pt_clust_6="13000.00000" pt_clust_7="13000.00000" pt_clust_8="13000.00000" pt_clust_9="67.96046" pt_clust_10="13000.00000"></scales>
<clustering>
<clus scale="   67.960">  1  9  2 -1</clus>
<clus scale="   89.264">  7  8 -1 -1</clus>
<clus scale="   97.733">  5  6 -1 -1</clus>
<clus scale="   65.719">  5 10 -1 -1</clus>
<clus scale="  115.470">  2  7  1 -1</clus>
<clus scale="   67.960">  1  5  2 -1</clus>
</clustering>
</event>
<event>
10    2  0.5921424E-006  0.1804947E+03  0.7546771E-02  0.1184782E+00
          1   -1    0    0  503    0 -0.00000000000E+00  0.00000000000E+00  0.13942223857E+04  0.13942223857E+04  0.00000000000E+00 0. -1.
         21   -1    0    0  501  502  0.00000000000E+00 -0.00000000000E+00 -0.35199545224E+02  0.35199545224E+02  0.00000000000E+00 0. -1.
         23    2    1    2    0    0  0.92526025503E+02  0.59657348741E+02  0.58192198468E+03  0.59929055344E+03  0.91629179475E+02 0.  0.
         23    2    1    2    0    0  0.33307532154E+02 -0.15338879082E+02  0.37455436753E+03  0.38707086400E+03  0.90488709863E+02 0.  0.
        -11    1    4    4    0    0 -0.14557106800E+02  0.21678191235E+02  0.45167444852E+02  0.52172324159E+02  0.00000000000E+00 0.  1.
         11    1    4    4    0    0  0.47864638955E+02 -0.37017070318E+02  0.32938692268E+03  0.33489853984E+03  0.00000000000E+00 0. -1.
        -13    1    3    3    0    0 -0.14104880253E+02  0.25015624531E+02  0.79985052047E+02  0.84984337784E+02  0.00000000000E+00 0.  1.
         13    1    3    3    0    0  0.10663090576E+03  0.34641724210E+02  0.50193693263E+03  0.51430621565E+03  0.00000000000E+00 0. -1.
         21    1    1    2  503  502 -0.58955407079E+02 -0.26225960871E+02  0.44523656940E+02  0.78395772047E+02  0.00000000000E+00 0. -1.
          1    1    1    2  501    0 -0.66878150579E+02 -0.18092508788E+02  0.35802283137E+03  0.36466474148E+03  0.00000000000E+00 0. -1.
<scales pt_clust_5="13000.00000" pt_clust_6="13000.00000" pt_clust_7="13000.00000" pt_clust_8="13000.00000" pt_clust_9="64.52551" pt_clust_10="13000.00000"></scales>
<clustering>
<clus scale="   64.526">  2  9  1 -1</clus>
<clus scale="   90.489">  5  6 -1 -1</clus>
<clus scale="   80.896">  5 10 -1 -1</clus>
<clus scale="   91.629">  7  8 -1 -1</clus>
<clus scale="  121.581">  1  7  2 -1</clus>
<clus scale="   64.526">  2  5  1 -1</clus>
</clustering>
</event>
<event>
10    2  0.5921424E-006  0.1486909E+03  0.7546771E-02  0.1223347E+00
         -1   -1    0    0    0  501 -0.00000000000E+00  0.00000000000E+00  0.28955417514E+03  0.28955417514E+03  0.00000000000E+00 0.  1.
         21   -1    0    0  501  502  0.00000000000E+00 -0.00000000000E+00 -0.23707498963E+03  0.23707498963E+03  0.00000000000E+00 0.  1.
         23    2    1    2    0    0  0.89634220674E+02  0.40959841769E+02 -0.10641942310E+03  0.16965794075E+03  0.88015459394E+02 0.  0.
         23    2    1    2    0    0 -0.24895871090E+02  0.41140321559E+02  0.20912113166E+03  0.23275159933E+03  0.90162790697E+02 0.  0.
        -11    1    4    4    0    0 -0.43813908462E+02  0.74727283560E+01  0.41740145683E+02  0.60973272878E+02  0.00000000000E+00 0. -1.
         11    1    4    4    0    0  0.18918037372E+02  0.33667593203E+02  0.16738098598E+03  0.17177832645E+03  0.00000000000E+00 0.  1.
        -11    1    3    3    0    0  0.57626837905E+02  0.60975105971E+02 -0.39289579093E+02  0.92641713178E+02  0.00000000000E+00 0.  1.
         11    1    3    3    0    0  0.32007382769E+02 -0.20015264202E+02 -0.67129844007E+02  0.77016227571E+02  0.00000000000E+00 0. -1.
         21    1    1    2  503  502 -0.65914786461E+02 -0.59575696643E+02 -0.49380619478E+02  0.10164874955E+03  0.00000000000E+00 0.  1.
         -1    1    1    2    0  503  0.11764368772E+01 -0.22524466684E+02 -0.84190357155E+00  0.22570875144E+02  0.00000000000E+00 0.  1.
<scales pt_clust_5="13000.00000" pt_clust_6="13000.00000" pt_clust_7="13000.00000" pt_clust_8="13000.00000" pt_clust_9="88.84831" pt_clust_10="13000.00000"></scales>
<clustering>
<clus scale="   88.015">  7  8 -1 -1</clus>
<clus scale="   88.848">  2  9  1 -1</clus>
<clus scale="   90.163">  5  6 -1 -1</clus>
<clus scale="   27.082">  5 10 -1 -1</clus>
<clus scale="   94.634">  1  7  2 -1</clus>
<clus scale="   88.848">  2  5  1 -1</clus>
</clustering>
</event>
<event>
10    2  0.5921424E-006  0.2353400E+03  0.7546771E-02  0.1151691E+00
         21   -1    0    0  503  502  0.00000000000E+00  0.00000000000E+00  0.90933583760E+02  0.90933583760E+02  0.00000000000E+00 0. -1.
          2   -1    0    0  502    0 -0.00000000000E+00 -0.00000000000E+00 -0.84947791616E+03  0.84947791616E+03  0.00000000000E+00 0. -1.
         23    2    1    2    0    0  0.24728671201E+01 -0.56817710062E+02 -0.29748529331E+03  0.31727201647E+03  0.94496907090E+02 0.  0.
         23    2    1    2    0    0 -0.37930150491E+02  0.52703506898E+02 -0.33522365808E+03  0.35289616704E+03  0.89131631988E+02 0.  0.
        -11    1    3    3    0    0  0.33242113169E+02  0.34284537135E+01 -0.16680973138E+03  0.17012430416E+03  0.00000000000E+00 0.  1.
         11    1    3    3    0    0 -0.30769246049E+02 -0.60246163775E+02 -0.13067556194E+03  0.14714771232E+03  0.00000000000E+00 0. -1.
        -13    1    4    4    0    0  0.18695948701E+02  0.36851219256E+02 -0.21649686910E+03  0.22040518412E+03  0.00000000000E+00 0. -1.
         13    1    4    4    0    0 -0.56626099191E+02  0.15852287642E+02 -0.11872678898E+03  0.13249098291E+03  0.00000000000E+00 0.  1.
         21    1    1    2  503  501 -0.76963803455E+02 -0.47873121571E+02  0.41013329139E+01  0.90730831270E+02  0.00000000000E+00 0. -1.
          2    1    1    2  501    0  0.11242108683E+03  0.51987324735E+02 -0.12993671393E+03  0.17951248514E+03  0.00000000000E+00 0. -1.
<scales pt_clust_5="13000.00000" pt_clust_6="13000.00000" pt_clust_7="13000.00000" pt_clust_8="13000.00000" pt_clust_9="90.63809" pt_clust_10="13000.00000"></scales>
<clustering>
<clus scale="   89.132">  7  8 -1 -1</clus>
<clus scale="   90.638">  1  9  2 -1</clus>
<clus scale="   72.901">  7 10 -1 -1</clus>
<clus scale="   94.497">  5  6 -1 -1</clus>
<clus scale="  117.213">  2  5  1 -1</clus>
<clus scale="   90.638">  1  5  2 -1</clus>
</clustering>
</event>
<event>
10    2  0.5921424E-006  0.2129666E+03  0.7546771E-02  0.1143944E+00
         21   -1    0    0  503  502  0.00000000000E+00  0.00000000000E+00  0.89383052866E+02  0.89383052866E+02  0.00000000000E+00 0. -1.
         -1   -1    0    0    0  501 -0.00000000000E+00 -0.00000000000E+00 -0.79939932550E+03  0.79939932550E+03  0.00000000000E+00 0.  1.
         23    2    1    2    0    0 -0.13910328511E+03  0.52946699750E+02 -0.18511841657E+03  0.25197673214E+03  0.84085482959E+02 0.  0.
         23    2    1    2    0    0  0.16765958908E+03 -0.85948547571E+01 -0.42922994296E+03  0.46989202383E+03  0.91523553177E+02 0.  0.
        -11    1    3    3    0    0 -0.33346080360E+02  0.34811785731E+02 -0.11255399221E+03  0.12244273218E+03  0.00000000000E+00 0.  1.
         11    1    3    3    0    0 -0.10575720475E+03  0.18134914019E+02 -0.72564424360E+02  0.12953399996E+03  0.00000000000E+00 0. -1.
        -13    1    4    4    0    0  0.13923924390E+03  0.26342963181E+02 -0.27706205598E+03  0.31119913498E+03  0.00000000000E+00 0.  1.
         13    1    4    4    0    0  0.28420345183E+02 -0.34937817938E+02 -0.15216788698E+03  0.15869288884E+03  0.00000000000E+00 0. -1.
         21    1    1    2  503  501 -0.55918178837E+02 -0.72600313804E+02 -0.43114595257E+02  0.10127446180E+03  0.00000000000E+00 0. -1.
         -1    1    1    2    0  502  0.27361874872E+02  0.28248468811E+02 -0.52553317849E+02  0.65639160595E+02  0.00000000000E+00 0.  1.
<scales pt_clust_5="13000.00000" pt_clust_6="13000.00000" pt_clust_7="13000.00000" pt_clust_8="13000.00000" pt_clust_9="91.63868" pt_clust_10="13000.00000"></scales>
<clustering>
<clus scale="   84.085">  5  6 -1 -1</clus>
<clus scale="   91.524">  7  8 -1 -1</clus>
<clus scale="   39.327">  7 10 -1 -1</clus>
<clus scale="   91.639">  1  9  2 -1</clus>
<clus scale="  190.174">  2  5  1 -1</clus>
<clus scale="   91.639">  1  5  2 -1</clus>
</clustering>
</event>
<event>
10    2  0.1640029E-005  0.4315867E+03  0.7546771E-02  0.1046685E+00
          1   -1    0    0  503    0 -0.00000000000E+00  0.00000000000E+00  0.90740912797E+03  0.90740912797E+03  0.00000000000E+00 0. -1.
         21   -1    0    0  501  502  0.00000000000E+00 -0.00000000000E+00 -0.11242205141E+04  0.11242205141E+04  0.00000000000E+00 0.  1.
         23    2    1    2    0    0  0.27525459551E+03 -0.44554431501E+02  0.34563426411E+03  0.45304110935E+03  0.89627074699E+02 0.  0.
         23    2    1    2    0    0  0.35598593601E+02  0.15258370236E+02  0.40129157969E+03  0.41278413815E+03  0.88632584614E+02 0.  0.
        -13    1    4    4    0    0  0.58581995755E+02  0.32851580683E+02  0.30080239548E+03  0.30820960028E+03  0.00000000000E+00 0.  1.
         13    1    4    4    0    0 -0.22983402155E+02 -0.17593210447E+02  0.10048918421E+03  0.10457453787E+03  0.00000000000E+00 0. -1.
        -13    1    3    3    0    0  0.25832996217E+03 -0.27843273550E+02  0.34116654179E+03  0.42884056067E+03  0.00000000000E+00 0. -1.
         13    1    3    3    0    0  0.16924633337E+02 -0.16711157951E+02  0.44677223166E+01  0.24200548678E+02  0.00000000000E+00 0.  1.
         21    1    1    2  503  502 -0.35469938915E+03  0.11159173622E+03 -0.99911980936E+03  0.10660697752E+04  0.00000000000E+00 0.  1.
          1    1    1    2  501    0  0.43846200043E+02 -0.82295674950E+02  0.35382579399E+02  0.99734619359E+02  0.00000000000E+00 0. -1.
<scales pt_clust_5="13000.00000" pt_clust_6="13000.00000" pt_clust_7="13000.00000" pt_clust_8="13000.00000" pt_clust_9="353.66850" pt_clust_10="13000.00000"></scales>
<clustering>
<clus scale="   88.633">  5  6 -1 -1</clus>
<clus scale="   89.627">  7  8 -1 -1</clus>
<clus scale="   93.247">  5 10 -1 -1</clus>
<clus scale="  292.888">  1  7  2 -1</clus>
<clus scale="  353.668">  2  9  1 -1</clus>
<clus scale="  353.668">  2  5  1 -1</clus>
</clustering>
</event>
<event>
10    2  0.5921424E-006  0.4069648E+03  0.7546771E-02  0.1071711E+00
         21   -1    0    0  501  502  0.00000000000E+00  0.00000000000E+00  0.16492884103E+03  0.16492884103E+03  0.00000000000E+00 0. -1.
          1   -1    0    0  503    0 -0.00000000000E+00 -0.00000000000E+00 -0.16179671503E+04  0.16179671503E+04  0.00000000000E+00 0. -1.
         23    2    1    2    0    0  0.31974889561E+02  0.14426291621E+03 -0.48854339720E+03  0.51833771628E+03  0.90361245061E+02 0.  0.
         23    2    1    2    0    0 -0.17242510290E+03 -0.12329704181E+03 -0.83853904280E+02  0.24433271127E+03  0.87945550813E+02 0.  0.
        -11    1    3    3    0    0 -0.27277015760E+02  0.65202099835E+02 -0.25821925513E+03  0.26771726342E+03  0.00000000000E+00 0.  1.
         11    1    3    3    0    0  0.59251905321E+02  0.79060816376E+02 -0.23032414207E+03  0.25062045286E+03  0.00000000000E+00 0. -1.
        -13    1    4    4    0    0 -0.24564517559E+02 -0.18850596727E+02 -0.52001409066E+02  0.60521955229E+02  0.00000000000E+00 0.  1.
         13    1    4    4    0    0 -0.14786058534E+03 -0.10444644508E+03 -0.31852495214E+02  0.18381075605E+03  0.00000000000E+00 0. -1.
         21    1    1    2  503  502  0.21600401388E+03  0.17003556424E+03 -0.67834990015E+03  0.73193470621E+03  0.00000000000E+00 0. -1.
          1    1    1    2  501    0 -0.75553800550E+02 -0.19100143864E+03 -0.20229110768E+03  0.28829085762E+03  0.00000000000E+00 0. -1.
<scales pt_clust_5="13000.00000" pt_clust_6="13000.00000" pt_clust_7="13000.00000" pt_clust_8="13000.00000" pt_clust_9="352.26219" pt_clust_10="13000.00000"></scales>
<clustering>
<clus scale="   87.946">  7  8 -1 -1</clus>
<clus scale="   90.361">  5  6 -1 -1</clus>
<clus scale="  173.203">  2  5  1 -1</clus>
<clus scale="  173.365">  7 10 -1 -1</clus>
<clus scale="  352.262">  1  9  2 -1</clus>
<clus scale="  352.262">  1  5  2 -1</clus>
</clustering>
</event>
<event>
10    2  0.5921424E-006  0.2837096E+03  0.7546771E-02  0.1126502E+00
         -2   -1    0    0    0  501 -0.00000000000E+00  0.00000000000E+00  0.41793409217E+03  0.41793409217E+03  0.00000000000E+00 0.  1.
         21   -1    0    0  501  502  0.00000000000E+00 -0.00000000000E+00 -0.22945884908E+03  0.22945884908E+03  0.00000000000E+00 0.  1.
         23    2    1    2    0    0  0.74145452757E+02  0.60895226425E+02 -0.33134380076E+02  0.13636125946E+03  0.91053441300E+02 0.  0.
         23    2    1    2    0    0 -0.12371902103E+03 -0.56471666260E+02  0.31449678702E+03  0.35533870988E+03  0.94137794974E+02 0.  0.
        -13    1    3    3    0    0  0.63128430707E+00  0.43635895238E+02 -0.41704427612E+02  0.60363475343E+02  0.00000000000E+00 0.  1.
         13    1    3    3    0    0  0.73514168450E+02  0.17259331187E+02  0.85700475352E+01  0.75997784117E+02  0.00000000000E+00 0. -1.
        -13    1    4    4    0    0 -0.42716669783E+02  0.12569964543E+02  0.17085520689E+03  0.17656222588E+03  0.00000000000E+00 0.  1.
         13    1    4    4    0    0 -0.81002351247E+02 -0.69041630803E+02  0.14364158013E+03  0.17877648400E+03  0.00000000000E+00 0. -1.
         21    1    1    2  503  502 -0.12091178944E+02 -0.20032062769E+02 -0.88934277638E+02  0.91960784501E+02  0.00000000000E+00 0.  1.
         -2    1    1    2    0  503  0.61664747217E+02  0.15608502604E+02 -0.39528862145E+01  0.63732187412E+02  0.00000000000E+00 0.  1.
<scales pt_clust_5="13000.00000" pt_clust_6="13000.00000" pt_clust_7="13000.00000" pt_clust_8="13000.00000" pt_clust_9="23.39829" pt_clust_10="13000.00000"></scales>
<clustering>
<clus scale="   23.398">  2  9  1 -1</clus>
<clus scale="   91.053">  5  6 -1 -1</clus>
<clus scale="   94.138">  7  8 -1 -1</clus>
<clus scale="   59.694">  7 10 -1 -1</clus>
<clus scale="  122.962">  1  5  2 -1</clus>
<clus scale="   23.398">  2  5  1 -1</clus>
</clustering>
</event>
<event>
10    2  0.5921424E-006  0.2264083E+03  0.7546771E-02  0.1162166E+00
         21   -1    0    0  503  502  0.00000000000E+00  0.00000000000E+00  0.25583178753E+03  0.25583178753E+03  0.00000000000E+00 0.  1.
         -1   -1    0    0    0  501 -0.00000000000E+00 -0.00000000000E+00 -0.13667057659E+03  0.13667057659E+03  0.00000000000E+00 0.  1.
         23    2    1    2    0    0 -0.16556418418E+02  0.29160778516E+02  0.15656927196E+02  0.10207772598E+03  0.95132837532E+02 0.  0.
         23    2    1    2    0    0  0.11391882175E+02  0.63794834512E+02  0.25380721238E+02  0.11575655156E+03  0.92497796346E+02 0.  0.
        -11    1    3    3    0    0  0.17314743074E+02 -0.28188865100E+02  0.12607582630E+02  0.35402875351E+02  0.00000000000E+00 0.  1.
         11    1    3    3    0    0 -0.33871161493E+02  0.57349643615E+02  0.30493445654E+01  0.66674850626E+02  0.00000000000E+00 0. -1.
        -13    1    4    4    0    0  0.41258097320E+02  0.41432271241E+02  0.44831911720E+02  0.73680146601E+02  0.00000000000E+00 0.  1.
         13    1    4    4    0    0 -0.29866215145E+02  0.22362563271E+02 -0.19451190483E+02  0.42076404960E+02  0.00000000000E+00 0. -1.
         21    1    1    2  503  501  0.69798128309E+00  0.23652430038E+02  0.48970858164E+02  0.54388138172E+02  0.00000000000E+00 0.  1.
         -1    1    1    2    0  502  0.44665549607E+01 -0.11660804307E+03  0.29152704342E+02  0.12027994842E+03  0.00000000000E+00 0.  1.
<scales pt_clust_5="13000.00000" pt_clust_6="13000.00000" pt_clust_7="13000.00000" pt_clust_8="13000.00000" pt_clust_9="23.66273" pt_clust_10="13000.00000"></scales>
<clustering>
<clus scale="   23.663">  1  9  2 -1</clus>
<clus scale="   92.498">  7  8 -1 -1</clus>
<clus scale="   95.133">  5  6 -1 -1</clus>
<clus scale="  103.016">  2  5  1 -1</clus>
<clus scale="   92.100">  7 10 -1 -1</clus>
<clus scale="   23.663">  1  5  2 -1</clus>
</clustering>
</event>
<event>
10    2  0.5921424E-006  0.1610171E+03  0.7546771E-02  0.1200555E+00
         -1   -1    0    0    0  501 -0.00000000000E+00  0.00000000000E+00  0.46576349921E+03  0.46576349921E+03  0.00000000000E+00 0.  1.
         21   -1    0    0  501  502  0.00000000000E+00 -0.00000000000E+00 -0.10581613705E+03  0.10581613705E+03  0.00000000000E+00 0.  1.
         23    2    1    2    0    0 -0.80143198907E+02 -0.32096520683E+02  0.14919381548E+03  0.19588227257E+03  0.93048112073E+02 0.  0.
         23    2    1    2    0    0  0.39719358886E+02  0.25634433992E+02  0.24747405896E+03  0.26830612558E+03  0.92249745180E+02 0.  0.
        -11    1    3    3    0    0 -0.53847949698E+01  0.27298432864E+02  0.55631148235E+02  0.62201487986E+02  0.00000000000E+00 0. -1.
         11    1    3    3    0    0 -0.74758403938E+02 -0.59394953547E+02  0.93562667240E+02  0.13368078458E+03  0.00000000000E+00 0.  1.
        -13    1    4    4    0    0  0.23813997197E+02 -0.29054884601E+02  0.15672571698E+03  0.16116526656E+03  0.00000000000E+00 0. -1.
         13    1    4    4    0    0  0.15905361688E+02  0.54689318593E+02  0.90748341985E+02  0.10714085902E+03  0.00000000000E+00 0.  1.
         21    1    1    2  503  502  0.91870976817E+01  0.27550116857E+02 -0.57453359990E+02  0.64376240002E+02  0.00000000000E+00 0.  1.
         -1    1    1    2    0  503  0.31236742340E+02 -0.21088030166E+02  0.20732847707E+02  0.43014998109E+02  0.00000000000E+00 0.  1.
<scales pt_clust_5="13000.00000" pt_clust_6="13000.00000" pt_clust_7="13000.00000" pt_clust_8="13000.00000" pt_clust_9="29.04155" pt_clust_10="13000.00000"></scales>
<clustering>
<clus scale="   29.042">  2  9  1 -1</clus>
<clus scale="   92.250">  7  8 -1 -1</clus>
<clus scale="   36.421">  7 10 -1 -1</clus>
<clus scale="   93.048">  5  6 -1 -1</clus>
<clus scale="  121.054">  1  5  2 -1</clus>
<clus scale="   29.042">  2  5  1 -1</clus>
</clustering>
</event>
<event>
10    2  0.5921424E-006  0.2036111E+03  0.7546771E-02  0.1172950E+00
         -3   -1    0    0    0  501 -0.00000000000E+00  0.00000000000E+00  0.50250895126E+03  0.50250895126E+03  0.00000000000E+00 0.  1.
         21   -1    0    0  503  502  0.00000000000E+00 -0.00000000000E+00 -0.81187156286E+02  0.81187156286E+02  0.00000000000E+00 0. -1.
         23    2    1    2    0    0 -0.62392265040E+02  0.37605313244E-01  0.11197115593E+03  0.15618936161E+03  0.89245620445E+02 0.  0.
         23    2    1    2    0    0  0.10099784527E+03  0.63827184840E+01  0.13964276329E+03  0.19416796640E+03  0.89217677571E+02 0.  0.
        -11    1    3    3    0    0 -0.29241720138E+02  0.12218603837E+02  0.11636135661E+03  0.12059990791E+03  0.00000000000E+00 0.  1.
         11    1    3    3    0    0 -0.33150544902E+02 -0.12180998523E+02 -0.43902006824E+01  0.35589453696E+02  0.00000000000E+00 0. -1.
        -11    1    4    4    0    0  0.14993382776E+01 -0.28658644946E+02  0.38557146674E+02  0.48064742848E+02  0.00000000000E+00 0.  1.
         11    1    4    4    0    0  0.99498506994E+02  0.35041363430E+02  0.10108561662E+03  0.14610322355E+03  0.00000000000E+00 0. -1.
         21    1    1    2  503  501 -0.52743079244E+01 -0.20076618597E+02 -0.26607153161E+02  0.33746548530E+02  0.00000000000E+00 0. -1.
         -3    1    1    2    0  502 -0.33331272307E+02  0.13656294799E+02  0.19631502891E+03  0.19959223101E+03  0.00000000000E+00 0.  1.
<scales pt_clust_5="13000.00000" pt_clust_6="13000.00000" pt_clust_7="13000.00000" pt_clust_8="13000.00000" pt_clust_9="20.75786" pt_clust_10="13000.00000"></scales>
<clustering>
<clus scale="   20.758">  2  9  1 -1</clus>
<clus scale="   89.218">  7  8 -1 -1</clus>
<clus scale="   35.939">  7 10 -1 -1</clus>
<clus scale="   89.246">  5  6 -1 -1</clus>
<clus scale="  110.558">  1  5  2 -1</clus>
<clus scale="   20.758">  2  5  1 -1</clus>
</clustering>
</event>
<event>
10    2  0.5921424E-006  0.1755836E+03  0.7546771E-02  0.1193732E+00
         21   -1    0    0  503  502  0.00000000000E+00  0.00000000000E+00  0.39977577762E+03  0.39977577762E+03  0.00000000000E+00 0.  1.
          3   -1    0    0  502    0 -0.00000000000E+00 -0.00000000000E+00 -0.20441307770E+03  0.20441307770E+03  0.00000000000E+00 0. -1.
         23    2    1    2    0    0  0.39196416067E+00 -0.60765173871E+02 -0.11776108723E+03  0.16068570901E+03  0.90882690448E+02 0.  0.
         23    2    1    2    0    0 -0.26592629181E+02 -0.26818814449E+02  0.89282848695E+02  0.13368462436E+03  0.92052892317E+02 0.  0.
        -11    1    4    4    0    0 -0.58997149625E+02 -0.20461761443E+02  0.39312993497E+02  0.73789286505E+02  0.00000000000E+00 0.  1.
         11    1    4    4    0    0  0.32404520445E+02 -0.63570530055E+01  0.49969855198E+02  0.59895337854E+02  0.00000000000E+00 0. -1.
        -13    1    3    3    0    0 -0.16601708989E+02 -0.14735003476E+02  0.96113790536E+01  0.24189164436E+02  0.00000000000E+00 0.  1.
         13    1    3    3    0    0  0.16993673150E+02 -0.46030170395E+02 -0.12737246628E+03  0.13649654457E+03  0.00000000000E+00 0. -1.
         21    1    1    2  503  501  0.10453849767E+03  0.28299153723E+02  0.15799738173E+03  0.19155237464E+03  0.00000000000E+00 0. -1.
          3    1    1    2  501    0 -0.78337832650E+02  0.59284834596E+02  0.65843556734E+02  0.11826614732E+03  0.00000000000E+00 0. -1.
<scales pt_clust_5="13000.00000" pt_clust_6="13000.00000" pt_clust_7="13000.00000" pt_clust_8="13000.00000" pt_clust_9="108.30115" pt_clust_10="13000.00000"></scales>
<clustering>
<clus scale="   90.883">  7  8 -1 -1</clus>
<clus scale="   92.053">  5  6 -1 -1</clus>
<clus scale="   98.242">  5 10 -1 -1</clus>
<clus scale="  108.301">  1  9  2 -1</clus>
<clus scale="  108.345">  2  7  1 -1</clus>
<clus scale="  108.301">  1  5  2 -1</clus>
</clustering>
</event>
<event>
10    2  0.5921424E-006  0.2068936E+03  0.7546771E-02  0.1162403E+00
          1   -1    0    0  503    0 -0.00000000000E+00  0.00000000000E+00  0.46223761318E+03  0.46223761318E+03  0.00000000000E+00 0. -1.
         21   -1    0    0  501  502  0.00000000000E+00 -0.00000000000E+00 -0.12497367967E+03  0.12497367967E+03  0.00000000000E+00 0. -1.
         23    2    1    2    0    0  0.98479258056E+02  0.31871433161E+02  0.29626807307E+03  0.32677813463E+03  0.91078129271E+02 0.  0.
         23    2    1    2    0    0 -0.28076949201E+01 -0.50306825235E+01  0.87052045002E+02  0.12482581846E+03  0.89276175418E+02 0.  0.
        -11    1    3    3    0    0  0.14108289737E+02  0.24967585321E+02  0.13662372178E+02  0.31766091506E+02  0.00000000000E+00 0.  1.
         11    1    3    3    0    0  0.84370968319E+02  0.69038478399E+01  0.28260570089E+03  0.29501204312E+03  0.00000000000E+00 0. -1.
        -11    1    4    4    0    0  0.16627657554E+02 -0.43279418294E+02  0.41091757249E+02  0.61952558925E+02  0.00000000000E+00 0.  1.
         11    1    4    4    0    0 -0.19435352474E+02  0.38248735771E+02  0.45960287753E+02  0.62873259532E+02  0.00000000000E+00 0. -1.
         21    1    1    2  503  502 -0.40934377692E+02  0.28333734843E+02 -0.16266378463E+02  0.52373837701E+02  0.00000000000E+00 0. -1.
          1    1    1    2  501    0 -0.54737185443E+02 -0.55174485480E+02 -0.29789806098E+02  0.83233502063E+02  0.00000000000E+00 0. -1.
<scales pt_clust_5="13000.00000" pt_clust_6="13000.00000" pt_clust_7="13000.00000" pt_clust_8="13000.00000" pt_clust_9="49.78377" pt_clust_10="13000.00000"></scales>
<clustering>
<clus scale="   49.784">  2  9  1 -1</clus>
<clus scale="   89.276">  7  8 -1 -1</clus>
<clus scale="   88.589">  7 10 -1 -1</clus>
<clus scale="   91.078">  5  6 -1 -1</clus>
<clus scale="  134.263">  1  5  2 -1</clus>
<clus scale="   49.784">  2  5  1 -1</clus>
</clustering>
</event>
<event>
10    2  0.5921424E-006  0.2827322E+03  0.7546771E-02  0.1118791E+00
          2   -1    0    0  503    0 -0.00000000000E+00  0.00000000000E+00  0.40668939057E+03  0.40668939057E+03  0.00000000000E+00 0. -1.
         21   -1    0    0  501  502  0.00000000000E+00 -0.00000000000E+00 -0.26089319711E+03  0.26089319711E+03  0.00000000000E+00 0. -1.
         23    2    1    2    0    0 -0.11101893162E+03 -0.56465298051E+02 -0.42528443163E+02  0.15956401596E+03  0.90213489296E+02 0.  0.
         23    2    1    2    0    0 -0.11118713993E+02 -0.49593914124E+02  0.22326411782E+03  0.24593322278E+03  0.89739075334E+02 0.  0.
        -11    1    4    4    0    0  0.11689776493E+02  0.19680630813E+02  0.10106062840E+03  0.10362059986E+03  0.00000000000E+00 0.  1.
         11    1    4    4    0    0 -0.22808490486E+02 -0.69274544938E+02  0.12220348942E+03  0.14231262292E+03  0.00000000000E+00 0. -1.
        -13    1    3    3    0    0 -0.52104712963E+02  0.14622488320E+02 -0.39834069025E+02  0.67197256884E+02  0.00000000000E+00 0. -1.
         13    1    3    3    0    0 -0.58914218654E+02 -0.71087786371E+02 -0.26943741385E+01  0.92366759079E+02  0.00000000000E+00 0.  1.
         21    1    1    2  503  502 -0.14260244465E+02  0.71591515432E+02 -0.85652080397E+02  0.11253878678E+03  0.00000000000E+00 0. -1.
          2    1    1    2  501    0  0.13639789007E+03  0.34467696742E+02  0.50712599198E+02  0.14954656216E+03  0.00000000000E+00 0. -1.
<scales pt_clust_5="13000.00000" pt_clust_6="13000.00000" pt_clust_7="13000.00000" pt_clust_8="13000.00000" pt_clust_9="72.99794" pt_clust_10="13000.00000"></scales>
<clustering>
<clus scale="   72.998">  2  9  1 -1</clus>
<clus scale="   89.739">  5  6 -1 -1</clus>
<clus scale="   90.213">  7  8 -1 -1</clus>
<clus scale="  143.557">  5 10 -1 -1</clus>
<clus scale="  150.528">  1  7  2 -1</clus>
<clus scale="   72.998">  2  5  1 -1</clus>
</clustering>
</event>
<event>
10    2  0.5921424E-006  0.1623686E+03  0.7546771E-02  0.1195789E+00
         21   -1    0    0  501  502  0.00000000000E+00  0.00000000000E+00  0.85397969037E+02  0.85397969037E+02  0.00000000000E+00 0.  1.
          1   -1    0    0  503    0 -0.00000000000E+00 -0.00000000000E+00 -0.38362926171E+03  0.38362926171E+03  0.00000000000E+00 0. -1.
         23    2    1    2    0    0  0.45802454115E+02 -0.83402342802E+02 -0.19995437116E+03  0.23998299374E+03  0.92500114341E+02 0.  0.
         23    2    1    2    0    0 -0.74932547034E+02  0.32030970986E+02 -0.63219502782E+02  0.13797258371E+03  0.91645286934E+02 0.  0.
        -13    1    4    4    0    0 -0.94536517783E+02  0.38373615496E+02 -0.53023399953E+02  0.11498334011E+03  0.00000000000E+00 0.  1.
         13    1    4    4    0    0  0.19603970748E+02 -0.63426445100E+01 -0.10196102829E+02  0.22989243602E+02  0.00000000000E+00 0. -1.
        -13    1    3    3    0    0  0.26394642263E+02 -0.24698493279E+02 -0.62938112470E+01  0.36692025979E+02  0.00000000000E+00 0.  1.
         13    1    3    3    0    0  0.19407811852E+02 -0.58703849524E+02 -0.19366055991E+03  0.20329096776E+03  0.00000000000E+00 0. -1.
         21    1    1    2  503  502  0.20002152778E+02  0.21099831144E+02  0.14343082185E+02  0.32419330601E+02  0.00000000000E+00 0. -1.
          1    1    1    2  501    0  0.91279401416E+01  0.30271540673E+02 -0.49400500919E+02  0.58652322690E+02  0.00000000000E+00 0. -1.
<scales pt_clust_5="13000.00000" pt_clust_6="13000.00000" pt_clust_7="13000.00000" pt_clust_8="13000.00000" pt_clust_9="29.07385" pt_clust_10="13000.00000"></scales>
<clustering>
<clus scale="   29.074">  1  9  2 -1</clus>
<clus scale="   91.645">  5  6 -1 -1</clus>
<clus scale="   33.570">  5 10 -1 -1</clus>
<clus scale="   92.500">  7  8 -1 -1</clus>
<clus scale="  130.972">  2  7  1 -1</clus>
<clus scale="   29.074">  1  5  2 -1</clus>
</clustering>
</event>
<event>
10    2  0.5921424E-006  0.6069956E+03  0.7546771E-02  0.1019293E+00
         21   -1    0    0  503  502  0.00000000000E+00  0.00000000000E+00  0.34030219158E+03  0.34030219158E+03  0.00000000000E+00 0.  1.
         -1   -1    0    0    0  501 -0.00000000000E+00 -0.00000000000E+00 -0.20388554112E+04  0.20388554112E+04  0.00000000000E+00 0.  1.
         23    2    1    2    0    0 -0.14855645462E+03 -0.15783867297E+03 -0.78217989663E+03  0.81677274490E+03  0.91270253798E+02 0.  0.
         23    2    1    2    0    0  0.11096276744E+03 -0.15572097095E+03 -0.71074712401E+03  0.74149564186E+03  0.89958635264E+02 0.  0.
        -11    1    3    3    0    0 -0.56021759503E+02 -0.58463326160E+02 -0.15297941204E+03  0.17308696818E+03  0.00000000000E+00 0. -1.
         11    1    3    3    0    0 -0.92534695114E+02 -0.99375346814E+02 -0.62920048459E+03  0.64368577673E+03  0.00000000000E+00 0.  1.
        -13    1    4    4    0    0  0.12488692037E+03 -0.12101299180E+03 -0.58104314798E+03  0.60650806003E+03  0.00000000000E+00 0.  1.
         13    1    4    4    0    0 -0.13924152925E+02 -0.34707979157E+02 -0.12970397603E+03  0.13498758183E+03  0.00000000000E+00 0. -1.
         21    1    1    2  503  501  0.31116417453E+02 -0.36244573940E+02  0.24543852608E+03  0.25004393746E+03  0.00000000000E+00 0.  1.
         -1    1    1    2    0  502  0.64772697231E+01  0.34980421787E+03 -0.45106472506E+03  0.57084527856E+03  0.00000000000E+00 0.  1.
<scales pt_clust_5="13000.00000" pt_clust_6="13000.00000" pt_clust_7="13000.00000" pt_clust_8="13000.00000" pt_clust_9="47.76924" pt_clust_10="13000.00000"></scales>
<clustering>
<clus scale="   47.769">  1  9  2 -1</clus>
<clus scale="   89.959">  7  8 -1 -1</clus>
<clus scale="   91.270">  5  6 -1 -1</clus>
<clus scale="  236.225">  2  5  1 -1</clus>
<clus scale="  267.204">  7 10 -1 -1</clus>
<clus scale="   47.769">  1  5  2 -1</clus>
</clustering>
</event>
<event>
10    2  0.5921424E-006  0.2026935E+03  0.7546771E-02  0.1167602E+00
          3   -1    0    0  503    0 -0.00000000000E+00  0.00000000000E+00  0.39740670146E+03  0.39740670146E+03  0.00000000000E+00 0. -1.
         21   -1    0    0  501  502  0.00000000000E+00 -0.00000000000E+00 -0.22003894977E+03  0.22003894977E+03  0.00000000000E+00 0. -1.
         23    2    1    2    0    0 -0.18923659798E+02  0.81939912738E+02  0.19171475964E+03  0.22849616701E+03  0.91562520047E+02 0.  0.
         23    2    1    2    0    0  0.68999111901E+02 -0.51343465574E+02  0.15177093995E+03  0.19554115863E+03  0.88345331548E+02 0.  0.
        -11    1    3    3    0    0  0.36938367439E+02  0.25463798909E+02  0.71219697361E+02  0.84172996478E+02  0.00000000000E+00 0. -1.
         11    1    3    3    0    0 -0.55862027237E+02  0.56476113829E+02  0.12049506228E+03  0.14432317053E+03  0.00000000000E+00 0.  1.
        -13    1    4    4    0    0  0.37820101705E+02 -0.30091936685E+01  0.54601262371E+01  0.38330514189E+02  0.00000000000E+00 0.  1.
         13    1    4    4    0    0  0.31179010196E+02 -0.48334271905E+02  0.14631081371E+03  0.15721064444E+03  0.00000000000E+00 0. -1.
         21    1    1    2  503  502 -0.30303422940E+02  0.65097225930E+01 -0.14114028281E+03  0.14450347180E+03  0.00000000000E+00 0. -1.
          3    1    1    2  501    0 -0.19772029163E+02 -0.37106169758E+02 -0.24977665088E+02  0.48904853793E+02  0.00000000000E+00 0. -1.
<scales pt_clust_5="13000.00000" pt_clust_6="13000.00000" pt_clust_7="13000.00000" pt_clust_8="13000.00000" pt_clust_9="30.99474" pt_clust_10="13000.00000"></scales>
<clustering>
<clus scale="   30.995">  2  9  1 -1</clus>
<clus scale="   88.345">  7  8 -1 -1</clus>
<clus scale="   48.268">  7 10 -1 -1</clus>
<clus scale="   91.563">  5  6 -1 -1</clus>
<clus scale="  126.640">  1  5  2 -1</clus>
<clus scale="   30.995">  2  5  1 -1</clus>
</clustering>
</event>
<event>
10    2  0.5921424E-006  0.2001684E+03  0.7546771E-02  0.1171191E+00
         21   -1    0    0  501  502  0.00000000000E+00  0.00000000000E+00  0.12464892499E+03  0.12464892499E+03  0.00000000000E+00 0. -1.
          1   -1    0    0  503    0 -0.00000000000E+00 -0.00000000000E+00 -0.63627256562E+03  0.63627256562E+03  0.00000000000E+00 0. -1.
         23    2    1    2    0    0  0.95603025950E+01 -0.84439169205E+02 -0.41794088223E+03  0.43426952487E+03  0.81817275135E+02 0.  0.
         23    2    1    2    0    0 -0.63812385845E+02  0.38702639337E+01 -0.52479625435E+02  0.12344486870E+03  0.91638010630E+02 0.  0.
        -11    1    4    4    0    0 -0.72905364150E+02 -0.17294358327E+02 -0.10635966401E+02  0.75679658648E+02  0.00000000000E+00 0. -1.
         11    1    4    4    0    0  0.90929783048E+01  0.21164622261E+02 -0.41843659034E+02  0.47765210052E+02  0.00000000000E+00 0.  1.
        -13    1    3    3    0    0  0.43185729972E+02 -0.35843432629E+02 -0.15726445504E+03  0.16697864461E+03  0.00000000000E+00 0.  1.
         13    1    3    3    0    0 -0.33625427377E+02 -0.48595736576E+02 -0.26067642718E+03  0.26729088026E+03  0.00000000000E+00 0. -1.
         21    1    1    2  503  502  0.70819531014E+02 -0.36371937068E+02 -0.54243147269E+01  0.79798163948E+02  0.00000000000E+00 0. -1.
          1    1    1    2  501    0 -0.16567447765E+02  0.11694084234E+03 -0.35778818237E+02  0.12340893309E+03  0.00000000000E+00 0. -1.
<scales pt_clust_5="13000.00000" pt_clust_6="13000.00000" pt_clust_7="13000.00000" pt_clust_8="13000.00000" pt_clust_9="79.61359" pt_clust_10="13000.00000"></scales>
<clustering>
<clus scale="   79.614">  1  9  2 -1</clus>
<clus scale="   81.817">  7  8 -1 -1</clus>
<clus scale="   91.638">  5  6 -1 -1</clus>
<clus scale="  100.515">  5 10 -1 -1</clus>
<clus scale="  121.122">  2  7  1 -1</clus>
<clus scale="   79.614">  1  5  2 -1</clus>
</clustering>
</event>
<event>
10    2  0.5921424E-006  0.2058177E+03  0.7546771E-02  0.1151657E+00
          3   -1    0    0  503    0 -0.00000000000E+00  0.00000000000E+00  0.24584193804E+03  0.24584193804E+03  0.00000000000E+00 0. -1.
         21   -1    0    0  501  502  0.00000000000E+00 -0.00000000000E+00 -0.20707238862E+03  0.20707238862E+03  0.00000000000E+00 0.  1.
         23    2    1    2    0    0  0.42864030452E+02  0.13650185367E+03 -0.43265863969E+02  0.17631691367E+03  0.93518115354E+02 0.  0.
         23    2    1    2    0    0 -0.86947024359E+02 -0.99879464030E+02  0.10239540443E+03  0.19103810349E+03  0.92060011708E+02 0.  0.
        -13    1    4    4    0    0 -0.19377513195E+02 -0.22623058056E+02  0.80852938820E+02  0.86165471560E+02  0.00000000000E+00 0. -1.
         13    1    4    4    0    0 -0.67569511164E+02 -0.77256405975E+02  0.21542465615E+02  0.10487263193E+03  0.00000000000E+00 0.  1.
        -13    1    3    3    0    0  0.67174353786E+02  0.67653442353E+02 -0.39525505138E+02  0.10320681966E+03  0.00000000000E+00 0.  1.
         13    1    3    3    0    0 -0.24310323334E+02  0.68848411316E+02 -0.37403588314E+01  0.73110094006E+02  0.00000000000E+00 0. -1.
         21    1    1    2  503  502  0.49860904006E+02 -0.12059024824E+02  0.27088589728E+01  0.51369910891E+02  0.00000000000E+00 0.  1.
          3    1    1    2  501    0 -0.57779100998E+01 -0.24563364815E+02 -0.23068850012E+02  0.34189398606E+02  0.00000000000E+00 0. -1.
<scales pt_clust_5="13000.00000" pt_clust_6="13000.00000" pt_clust_7="13000.00000" pt_clust_8="13000.00000" pt_clust_9="51.29844" pt_clust_10="13000.00000"></scales>
<clustering>
<clus scale="   51.298">  2  9  1 -1</clus>
<clus scale="   92.060">  5  6 -1 -1</clus>
<clus scale="   26.531">  5 10 -1 -1</clus>
<clus scale="   93.518">  7  8 -1 -1</clus>
<clus scale="  175.373">  1  7  2 -1</clus>
<clus scale="   51.298">  2  5  1 -1</clus>
</clustering>
</event>
<event>
10    2  0.5921424E-006  0.1552854E+03  0.7546771E-02  0.1210015E+00
          1   -1    0    0  502    0 -0.00000000000E+00  0.00000000000E+00  0.11024495164E+03  0.11024495164E+03  0.00000000000E+00 0. -1.
         21   -1    0    0  503  502  0.00000000000E+00 -0.00000000000E+00 -0.44261885919E+03  0.44261885919E+03  0.00000000000E+00 0. -1.
         23    2    1    2    0    0  0.47007719809E+02 -0.37293211083E+02 -0.20637999814E+03  0.23437796854E+03  0.93487000119E+02 0.  0.
         23    2    1    2    0    0 -0.66074687783E+01  0.74681004122E+02  0.12556711312E+02  0.12210236730E+03  0.95553158398E+02 0.  0.
        -13    1    3    3    0    0 -0.22920296497E+02 -0.38359122775E+01 -0.10050914307E+03  0.10316075831E+03  0.00000000000E+00 0. -1.
         13    1    3    3    0    0  0.69928016306E+02 -0.33457298805E+02 -0.10587085507E+03  0.13121721023E+03  0.00000000000E+00 0.  1.
        -13    1    4    4    0    0 -0.34177752876E+02  0.85287396295E+02  0.10744184786E+02  0.92506736323E+02  0.00000000000E+00 0. -1.
         13    1    4    4    0    0  0.27570284098E+02 -0.10606392174E+02  0.18125265257E+01  0.29595630972E+02  0.00000000000E+00 0.  1.
         21    1    1    2  503  501 -0.19332783235E+02 -0.14495830416E+02 -0.15790536992E+03  0.15974351773E+03  0.00000000000E+00 0. -1.
          1    1    1    2  501    0 -0.21067467796E+02 -0.22891962623E+02  0.19354749193E+02  0.36639957265E+02  0.00000000000E+00 0. -1.
<scales pt_clust_5="13000.00000" pt_clust_6="13000.00000" pt_clust_7="13000.00000" pt_clust_8="13000.00000" pt_clust_9="24.16373" pt_clust_10="13000.00000"></scales>
<clustering>
<clus scale="   24.164">  2  9  1 -1</clus>
<clus scale="   93.487">  5  6 -1 -1</clus>
<clus scale="   95.553">  7  8 -1 -1</clus>
<clus scale="   31.835">  7 10 -1 -1</clus>
<clus scale="  110.094">  1  5  2 -1</clus>
<clus scale="   24.164">  2  5  1 -1</clus>
</clustering>
</event>
<event>
10    2  0.5921424E-006  0.4766615E+03  0.7546771E-02  0.1042894E+00
          1   -1    0    0  502    0 -0.00000000000E+00  0.00000000000E+00  0.12817616804E+04  0.12817616804E+04  0.00000000000E+00 0. -1.
         21   -1    0    0  503  502  0.00000000000E+00 -0.00000000000E+00 -0.14108313389E+03  0.14108313389E+03  0.00000000000E+00 0.  1.
         23    2    1    2    0    0  0.16577225365E+03  0.14503721085E+03  0.76638814605E+03  0.80433644753E+03  0.10530953331E+03 0.  0.
         23    2    1    2    0    0 -0.27929002382E+03 -0.17466831534E+03  0.30069337190E+03  0.45526437145E+03  0.91308303130E+02 0.  0.
        -11    1    4    4    0    0 -0.34760157724E+02 -0.15138777218E+02  0.82434352589E+02  0.90735184066E+02  0.00000000000E+00 0. -1.
         11    1    4    4    0    0 -0.24452986610E+03 -0.15952953813E+03  0.21825901931E+03  0.36452918739E+03  0.00000000000E+00 0.  1.
        -13    1    3    3    0    0  0.12208086473E+03  0.11394944453E+03  0.69653659972E+03  0.71627609774E+03  0.00000000000E+00 0. -1.
         13    1    3    3    0    0  0.43691388918E+02  0.31087766322E+02  0.69851546326E+02  0.88060349787E+02  0.00000000000E+00 0.  1.
         21    1    1    2  503  501  0.31179592305E+00 -0.20289735001E+02  0.19727643703E+02  0.28301068693E+02  0.00000000000E+00 0.  1.
          1    1    1    2  501    0  0.11320597424E+03  0.49920839491E+02  0.53869384858E+02  0.13494292662E+03  0.00000000000E+00 0. -1.
<scales pt_clust_5="13000.00000" pt_clust_6="13000.00000" pt_clust_7="13000.00000" pt_clust_8="13000.00000" pt_clust_9="20.29213" pt_clust_10="13000.00000"></scales>
<clustering>
<clus scale="   20.292">  2  9  1 -1</clus>
<clus scale="   91.308">  5  6 -1 -1</clus>
<clus scale="  105.310">  7  8 -1 -1</clus>
<clus scale="  121.509">  5 10 -1 -1</clus>
<clus scale="  242.512">  1  7  2 -1</clus>
<clus scale="   20.292">  2  5  1 -1</clus>
</clustering>
</event>
<event>
10    2  0.5921424E-006  0.2104982E+03  0.7546771E-02  0.1171017E+00
         21   -1    0    0  501  502  0.00000000000E+00  0.00000000000E+00  0.33352166662E+03  0.33352166662E+03  0.00000000000E+00 0. -1.
          1   -1    0    0  503    0 -0.00000000000E+00 -0.00000000000E+00 -0.43359396156E+03  0.43359396156E+03  0.00000000000E+00 0. -1.
         23    2    1    2    0    0  0.40069742155E+02 -0.40130915739E+02 -0.31176722593E+03  0.32949961543E+03  0.90305696236E+02 0.  0.
         23    2    1    2    0    0  0.57197739622E+02 -0.68530648869E+01 -0.40872742977E+02  0.11636656893E+03  0.92477301701E+02 0.  0.
        -11    1    4    4    0    0  0.33282408566E+02 -0.49209327062E+02 -0.15000001553E+02  0.61272152210E+02  0.00000000000E+00 0.  1.
         11    1    4    4    0    0  0.23915331056E+02  0.42356262175E+02 -0.25872741424E+02  0.55094416720E+02  0.00000000000E+00 0. -1.
        -11    1    3    3    0    0  0.63146018166E+02 -0.48800863228E+02 -0.26322077143E+03  0.27505293741E+03  0.00000000000E+00 0. -1.
         11    1    3    3    0    0 -0.23076276012E+02  0.86699474885E+01 -0.48546454495E+02  0.54446678026E+02  0.00000000000E+00 0.  1.
         21    1    1    2  503  502 -0.12281238133E+02  0.56572492046E+02  0.22356767539E+03  0.23094107722E+03  0.00000000000E+00 0. -1.
          1    1    1    2  501    0 -0.84986243643E+02 -0.95885114196E+01  0.28999998575E+02  0.90308366596E+02  0.00000000000E+00 0. -1.
<scales pt_clust_5="13000.00000" pt_clust_6="13000.00000" pt_clust_7="13000.00000" pt_clust_8="13000.00000" pt_clust_9="57.89020" pt_clust_10="13000.00000"></scales>
<clustering>
<clus scale="   57.890">  1  9  2 -1</clus>
<clus scale="   90.306">  7  8 -1 -1</clus>
<clus scale="   92.477">  5  6 -1 -1</clus>
<clus scale="   94.517">  5 10 -1 -1</clus>
<clus scale="  104.564">  2  7  1 -1</clus>
<clus scale="   57.890">  1  5  2 -1</clus>
</clustering>
</event>
<event>
10    2  0.5921424E-006  0.1872218E+03  0.7546771E-02  0.1174914E+00
          3   -1    0    0  502    0 -0.00000000000E+00  0.00000000000E+00  0.60113466036E+02  0.60113466036E+02  0.00000000000E+00 0. -1.
         21   -1    0    0  503  502  0.00000000000E+00 -0.00000000000E+00 -0.70714910584E+03  0.70714910584E+03  0.00000000000E+00 0. -1.
         23    2    1    2    0    0 -0.44663012100E+02  0.88726743822E+02 -0.37852737046E+03  0.40169148162E+03  0.90586182749E+02 0.  0.
         23    2    1    2    0    0 -0.40375015845E+02 -0.79171395157E+02 -0.85255781342E+02  0.15498733607E+03  0.94097153915E+02 0.  0.
        -13    1    4    4    0    0  0.25360066763E+01 -0.84850683345E+02 -0.66401874866E+02  0.10777420276E+03  0.00000000000E+00 0.  1.
         13    1    4    4    0    0 -0.42911022521E+02  0.56792881878E+01 -0.18853906476E+02  0.47213133316E+02  0.00000000000E+00 0. -1.
        -13    1    3    3    0    0  0.25272116132E+02  0.10552673141E+02 -0.11119146526E+03  0.11451454367E+03  0.00000000000E+00 0.  1.
         13    1    3    3    0    0 -0.69935128232E+02  0.78174070680E+02 -0.26733590519E+03  0.28717693795E+03  0.00000000000E+00 0. -1.
         21    1    1    2  503  501  0.33617220784E+02  0.15371550406E+02 -0.11893912344E+03  0.12455086182E+03  0.00000000000E+00 0.  1.
          3    1    1    2  501    0  0.51420807160E+02 -0.24926899070E+02 -0.64313364566E+02  0.86032892361E+02  0.00000000000E+00 0. -1.
<scales pt_clust_5="13000.00000" pt_clust_6="13000.00000" pt_clust_7="13000.00000" pt_clust_8="13000.00000" pt_clust_9="36.96488" pt_clust_10="13000.00000"></scales>
<clustering>
<clus scale="   36.965">  2  9  1 -1</clus>
<clus scale="   90.586">  7  8 -1 -1</clus>
<clus scale="   94.097">  5  6 -1 -1</clus>
<clus scale="   60.279">  5 10 -1 -1</clus>
<clus scale="  136.002">  1  7  2 -1</clus>
<clus scale="   36.965">  2  5  1 -1</clus>
</clustering>
</event>
<event>
10    2  0.5921424E-006  0.2641461E+03  0.7546771E-02  0.1120829E+00
         21   -1    0    0  503  502  0.00000000000E+00  0.00000000000E+00  0.18425411942E+03  0.18425411942E+03  0.00000000000E+00 0. -1.
          2   -1    0    0  502    0 -0.00000000000E+00 -0.00000000000E+00 -0.47303931563E+03  0.47303931563E+03  0.00000000000E+00 0. -1.
         23    2    1    2    0    0  0.15228029743E+03  0.63686986401E+02 -0.18346736158E+03  0.26370027083E+03  0.92909842576E+02 0.  0.
         23    2    1    2    0    0 -0.20500970405E+02  0.18798879379E+02 -0.17156423126E+03  0.19654819756E+03  0.91778106659E+02 0.  0.
        -13    1    4    4    0    0  0.16334290238E+02  0.45759763634E+02 -0.70141925772E+02  0.85326752876E+02  0.00000000000E+00 0. -1.
         13    1    4    4    0    0 -0.36835260643E+02 -0.26960884255E+02 -0.10142230549E+03  0.11122144468E+03  0.00000000000E+00 0.  1.
        -13    1    3    3    0    0  0.64021092710E+02  0.21284393309E+02 -0.14229642959E+03  0.15748015616E+03  0.00000000000E+00 0.  1.
         13    1    3    3    0    0  0.88259204720E+02  0.42402593092E+02 -0.41170931987E+02  0.10622011466E+03  0.00000000000E+00 0. -1.
         21    1    1    2  503  501 -0.32674704481E+02 -0.33231448239E+02  0.72513245488E+02  0.86198238011E+02  0.00000000000E+00 0.  1.
          2    1    1    2  501    0 -0.99104622544E+02 -0.49254417541E+02 -0.62668488570E+01  0.11084672865E+03  0.00000000000E+00 0. -1.
<scales pt_clust_5="13000.00000" pt_clust_6="13000.00000" pt_clust_7="13000.00000" pt_clust_8="13000.00000" pt_clust_9="46.60435" pt_clust_10="13000.00000"></scales>
<clustering>
<clus scale="   46.604">  1  9  2 -1</clus>
<clus scale="   91.778">  5  6 -1 -1</clus>
<clus scale="   92.910">  7  8 -1 -1</clus>
<clus scale="  132.844">  5 10 -1 -1</clus>
<clus scale="  175.416">  2  7  1 -1</clus>
<clus scale="   46.604">  1  5  2 -1</clus>
</clustering>
</event>
<event>
10    2  0.5921424E-006  0.3653202E+03  0.7546771E-02  0.1095936E+00
         21   -1    0    0  501  502  0.00000000000E+00  0.00000000000E+00  0.24901334440E+03  0.24901334440E+03  0.00000000000E+00 0. -1.
          1   -1    0    0  503    0 -0.00000000000E+00 -0.00000000000E+00 -0.51434397923E+03  0.51434397923E+03  0.00000000000E+00 0. -1.
         23    2    1    2    0    0 -0.26210461184E+02  0.76975204720E+02 -0.24893615398E+03  0.27704376979E+03  0.90398402637E+02 0.  0.
         23    2    1    2    0    0  0.17092621452E+03 -0.26680019192E+02 -0.14114638929E+03  0.24165389817E+03  0.92448412957E+02 0.  0.
        -11    1    4    4    0    0  0.20525277999E+02  0.78217595533E+01 -0.66899402738E+02  0.70413045994E+02  0.00000000000E+00 0.  1.
         11    1    4    4    0    0  0.15040093652E+03 -0.34501778746E+02 -0.74246986554E+02  0.17124085218E+03  0.00000000000E+00 0. -1.
        -13    1    3    3    0    0 -0.24613727164E+02 -0.34419976730E+01 -0.13576369941E+02  0.28319617470E+02  0.00000000000E+00 0. -1.
         13    1    3    3    0    0 -0.15967340203E+01  0.80417202393E+02 -0.23535978404E+03  0.24872415232E+03  0.00000000000E+00 0.  1.
         21    1    1    2  503  502 -0.69283321375E+02  0.49039892311E+02  0.39817255426E+02  0.93757684956E+02  0.00000000000E+00 0. -1.
          1    1    1    2  501    0 -0.75432431960E+02 -0.99335077839E+02  0.84934653026E+02  0.15090197071E+03  0.00000000000E+00 0. -1.
<scales pt_clust_5="13000.00000" pt_clust_6="13000.00000" pt_clust_7="13000.00000" pt_clust_8="13000.00000" pt_clust_9="84.88280" pt_clust_10="13000.00000"></scales>
<clustering>
<clus scale="   84.883">  1  9  2 -1</clus>
<clus scale="   90.398">  7  8 -1 -1</clus>
<clus scale="   92.448">  5  6 -1 -1</clus>
<clus scale="  125.257">  2  7  1 -1</clus>
<clus scale="  136.706">  5 10 -1 -1</clus>
<clus scale="   84.883">  1  5  2 -1</clus>
</clustering>
</event>
<event>
10    2  0.5921424E-006  0.5252066E+03  0.7546771E-02  0.1048375E+00
         21   -1    0    0  503  502  0.00000000000E+00  0.00000000000E+00  0.30494326484E+03  0.30494326484E+03  0.00000000000E+00 0.  1.
         -1   -1    0    0    0  501 -0.00000000000E+00 -0.00000000000E+00 -0.56388425854E+03  0.56388425854E+03  0.00000000000E+00 0.  1.
         23    2    1    2    0    0 -0.12293221114E+03  0.21143863469E+01 -0.26062500419E+03  0.30235839140E+03  0.91533627014E+02 0.  0.
         23    2    1    2    0    0 -0.59768373873E+02  0.33416966240E+02 -0.19936835598E+03  0.22943963568E+03  0.90586162894E+02 0.  0.
        -11    1    3    3    0    0 -0.24950231103E+00  0.20554539319E+02 -0.10332903605E+02  0.23006960576E+02  0.00000000000E+00 0. -1.
         11    1    3    3    0    0 -0.12268270883E+03 -0.18440152972E+02 -0.25029210058E+03  0.27935143082E+03  0.00000000000E+00 0.  1.
        -13    1    4    4    0    0 -0.45433253653E+02  0.55311792328E+01 -0.19179903295E+03  0.19718428822E+03  0.00000000000E+00 0.  1.
         13    1    4    4    0    0 -0.14335120220E+02  0.27885787007E+02 -0.75693230321E+01  0.32255347462E+02  0.00000000000E+00 0. -1.
         21    1    1    2  503  501 -0.27542010903E+02 -0.12826894444E+02 -0.15710105208E+02  0.34203786213E+02  0.00000000000E+00 0.  1.
         -1    1    1    2    0  502  0.21024259592E+03 -0.22704458143E+02  0.21676247168E+03  0.30282571008E+03  0.00000000000E+00 0.  1.
<scales pt_clust_5="13000.00000" pt_clust_6="13000.00000" pt_clust_7="13000.00000" pt_clust_8="13000.00000" pt_clust_9="30.38244" pt_clust_10="13000.00000"></scales>
<clustering>
<clus scale="   30.382">  1  9  2 -1</clus>
<clus scale="   90.586">  7  8 -1 -1</clus>
<clus scale="   91.534">  5  6 -1 -1</clus>
<clus scale="  154.835">  2  5  1 -1</clus>
<clus scale="  165.078">  7 10 -1 -1</clus>
<clus scale="   30.382">  1  5  2 -1</clus>
</clustering>
</event>
<event>
10    2  0.5921424E-006  0.1984468E+03  0.7546771E-02  0.1176148E+00
         21   -1    0    0  503  502  0.00000000000E+00  0.00000000000E+00  0.36578224275E+03  0.36578224275E+03  0.00000000000E+00 0. -1.
         -2   -1    0    0    0  501 -0.00000000000E+00 -0.00000000000E+00 -0.16319290524E+03  0.16319290524E+03  0.00000000000E+00 0.  1.
         23    2    1    2    0    0 -0.57359935921E+02 -0.55155347295E+01  0.25407095271E+02  0.11100559863E+03  0.91411919705E+02 0.  0.
         23    2    1    2    0    0  0.84518995143E+02  0.77315401305E+01 -0.74928770791E+02  0.14514578744E+03  0.90828088540E+02 0.  0.
        -13    1    3    3    0    0 -0.53389643136E+02  0.19973375365E+02 -0.18628855226E+02  0.59970192302E+02  0.00000000000E+00 0.  1.
         13    1    3    3    0    0 -0.39702927846E+01 -0.25488910094E+02  0.44035950497E+02  0.51035406325E+02  0.00000000000E+00 0. -1.
        -13    1    4    4    0    0  0.60681480460E+02 -0.11095509327E+02 -0.91646366531E+02  0.11047356651E+03  0.00000000000E+00 0. -1.
         13    1    4    4    0    0  0.23837514682E+02  0.18827049458E+02  0.16717595740E+02  0.34672220939E+02  0.00000000000E+00 0.  1.
         21    1    1    2  503  501 -0.10893411560E+02  0.36605905850E+02  0.20941151727E+03  0.21286578476E+03  0.00000000000E+00 0. -1.
         -2    1    1    2    0  502 -0.16265647662E+02 -0.38821911251E+02  0.42699495763E+02  0.59957977163E+02  0.00000000000E+00 0.  1.
<scales pt_clust_5="13000.00000" pt_clust_6="13000.00000" pt_clust_7="13000.00000" pt_clust_8="13000.00000" pt_clust_9="38.19239" pt_clust_10="13000.00000"></scales>
<clustering>
<clus scale="   38.192">  1  9  2 -1</clus>
<clus scale="   90.828">  7  8 -1 -1</clus>
<clus scale="   33.266">  7 10 -1 -1</clus>
<clus scale="   91.412">  5  6 -1 -1</clus>
<clus scale="  111.057">  2  5  1 -1</clus>
<clus scale="   38.192">  1  5  2 -1</clus>
</clustering>
</event>
<event>
10    2  0.5921424E-006  0.2994475E+03  0.7546771E-02  0.1114312E+00
         -2   -1    0    0    0  501 -0.00000000000E+00  0.00000000000E+00  0.29707845666E+03  0.29707845666E+03  0.00000000000E+00 0.  1.
         21   -1    0    0  503  502  0.00000000000E+00 -0.00000000000E+00 -0.20012405822E+03  0.20012405822E+03  0.00000000000E+00 0.  1.
         23    2    1    2    0    0  0.12865328856E+02 -0.10526168511E+03  0.23667466855E+02  0.14374841635E+03  0.94116519155E+02 0.  0.
         23    2    1    2    0    0  0.15281203449E+02  0.29937515431E+01  0.16504753562E+03  0.19049083072E+03  0.93827447181E+02 0.  0.
        -11    1    4    4    0    0  0.35574510962E+02 -0.34373074990E+02  0.64216845116E+02  0.81060824762E+02  0.00000000000E+00 0.  1.
         11    1    4    4    0    0 -0.20293307513E+02  0.37366826533E+02  0.10083069051E+03  0.10943000595E+03  0.00000000000E+00 0. -1.
        -11    1    3    3    0    0  0.26946215010E+02 -0.70239593170E+01 -0.21039850891E+02  0.34901430248E+02  0.00000000000E+00 0.  1.
         11    1    3    3    0    0 -0.14080886154E+02 -0.98237725796E+02  0.44707317746E+02  0.10884698611E+03  0.00000000000E+00 0. -1.
         21    1    1    2  503  501  0.20540045943E+02  0.31248972273E+01 -0.29773002445E+02  0.36305511215E+02  0.00000000000E+00 0.  1.
         -2    1    1    2    0  502 -0.48686578247E+02  0.99143036342E+02 -0.61987601593E+02  0.12665775660E+03  0.00000000000E+00 0.  1.
<scales pt_clust_5="13000.00000" pt_clust_6="13000.00000" pt_clust_7="13000.00000" pt_clust_8="13000.00000" pt_clust_9="20.77639" pt_clust_10="13000.00000"></scales>
<clustering>
<clus scale="   20.776">  2  9  1 -1</clus>
<clus scale="   93.827">  5  6 -1 -1</clus>
<clus scale="   94.117">  7  8 -1 -1</clus>
<clus scale="  107.508">  5 10 -1 -1</clus>
<clus scale="  141.819">  1  7  2 -1</clus>
<clus scale="   20.776">  2  5  1 -1</clus>
</clustering>
</event>
<event>
10    2  0.5921424E-006  0.1718294E+03  0.7546771E-02  0.1183902E+00
          2   -1    0    0  503    0 -0.00000000000E+00  0.00000000000E+00  0.53396301004E+03  0.53396301004E+03  0.00000000000E+00 0. -1.
         21   -1    0    0  501  502  0.00000000000E+00 -0.00000000000E+00 -0.12986295264E+03  0.12986295264E+03  0.00000000000E+00 0. -1.
         23    2    1    2    0    0  0.10793679402E+03 -0.26759548830E+02  0.38091778036E+03  0.40735611236E+03  0.92055537170E+02 0.  0.
         23    2    1    2    0    0 -0.87278090298E+02  0.71785080601E+02  0.63625445300E+02  0.15831375370E+03  0.90799143590E+02 0.  0.
        -13    1    3    3    0    0  0.62909437998E+02 -0.58722076071E+02  0.18934592559E+03  0.20798499740E+03  0.00000000000E+00 0.  1.
         13    1    3    3    0    0  0.45027356017E+02  0.31962527240E+02  0.19157185477E+03  0.19937111496E+03  0.00000000000E+00 0. -1.
        -13    1    4    4    0    0 -0.31542516766E+02 -0.17807187086E+02  0.31539908032E+02  0.48029075304E+02  0.00000000000E+00 0.  1.
         13    1    4    4    0    0 -0.55735573532E+02  0.89592267687E+02  0.32085537269E+02  0.11028467839E+03  0.00000000000E+00 0. -1.
         21    1    1    2  503  502 -0.10464371986E+02 -0.22281934484E+02 -0.61043914934E+02  0.65820568486E+02  0.00000000000E+00 0. -1.
          2    1    1    2  501    0 -0.10194331732E+02 -0.22743597287E+02  0.20600746666E+02  0.32335528141E+02  0.00000000000E+00 0. -1.
<scales pt_clust_5="13000.00000" pt_clust_6="13000.00000" pt_clust_7="13000.00000" pt_clust_8="13000.00000" pt_clust_9="24.61682" pt_clust_10="13000.00000"></scales>
<clustering>
<clus scale="   24.617">  2  9  1 -1</clus>
<clus scale="   90.799">  7  8 -1 -1</clus>
<clus scale="   27.098">  7 10 -1 -1</clus>
<clus scale="   92.056">  5  6 -1 -1</clus>
<clus scale="  143.710">  1  5  2 -1</clus>
<clus scale="   24.617">  2  5  1 -1</clus>
</clustering>
</event>
<event>
10    2  0.5921424E-006  0.1896102E+03  0.7546771E-02  0.1189385E+00
         21   -1    0    0  501  502  0.00000000000E+00  0.00000000000E+00  0.34083256010E+03  0.34083256010E+03  0.00000000000E+00 0.  1.
         -1   -1    0    0    0  501 -0.00000000000E+00 -0.00000000000E+00 -0.13485074427E+03  0.13485074427E+03  0.00000000000E+00 0.  1.
         23    2    1    2    0    0  0.94143782275E+00 -0.24177237577E+00  0.11401935660E+03  0.14820841935E+03  0.94680394633E+02 0.  0.
         23    2    1    2    0    0  0.94305967279E+02  0.40154575259E+02  0.89119584492E+02  0.16477596702E+03  0.93288871722E+02 0.  0.
        -11    1    3    3    0    0 -0.38390764099E+02  0.18662493126E+02  0.26044086459E+02  0.50004338384E+02  0.00000000000E+00 0. -1.
         11    1    3    3    0    0  0.39332201922E+02 -0.18904265501E+02  0.87975270141E+02  0.98204080967E+02  0.00000000000E+00 0.  1.
        -13    1    4    4    0    0 -0.17867540289E+02  0.89871773526E+01  0.24482458463E+02  0.31613432669E+02  0.00000000000E+00 0. -1.
         13    1    4    4    0    0  0.11217350757E+03  0.31167397906E+02  0.64637126029E+02  0.13316253435E+03  0.00000000000E+00 0.  1.
         21    1    1    2  503  502 -0.77460153296E+02 -0.84025534628E+02 -0.54759646893E+01  0.11441307621E+03  0.00000000000E+00 0.  1.
         -1    1    1    2    0  503 -0.17787251806E+02  0.44112731745E+02  0.83188394276E+01  0.48285841799E+02  0.00000000000E+00 0.  1.
<scales pt_clust_5="13000.00000" pt_clust_6="13000.00000" pt_clust_7="13000.00000" pt_clust_8="13000.00000" pt_clust_9="114.04851" pt_clust_10="13000.00000"></scales>
<clustering>
<clus scale="   93.289">  7  8 -1 -1</clus>
<clus scale="   47.564">  7 10 -1 -1</clus>
<clus scale="   94.680">  5  6 -1 -1</clus>
<clus scale="   94.685">  2  5  1 -1</clus>
<clus scale="  114.049">  1  9  2 -1</clus>
<clus scale="  114.049">  1  5  2 -1</clus>
</clustering>
</event>
<event>
10    2  0.5921424E-006  0.4526154E+03  0.7546771E-02  0.1032611E+00
          2   -1    0    0  503    0 -0.00000000000E+00  0.00000000000E+00  0.38209681766E+03  0.38209681766E+03  0.00000000000E+00 0. -1.
         21   -1    0    0  501  502  0.00000000000E+00 -0.00000000000E+00 -0.60957161538E+03  0.60957161538E+03  0.00000000000E+00 0. -1.
         23    2    1    2    0    0 -0.33372030339E+02 -0.36741576748E+03  0.11065619957E+03  0.39581795745E+03  0.91208674634E+02 0.  0.
         23    2    1    2    0    0  0.34602165544E+02  0.52354820425E+02 -0.11126523536E+03  0.17001263199E+03  0.11218736719E+03 0.  0.
        -11    1    4    4    0    0 -0.36494504965E+02  0.14120140091E+02 -0.97762490714E+01  0.40333637261E+02  0.00000000000E+00 0.  1.
         11    1    4    4    0    0  0.71096670508E+02  0.38234680335E+02 -0.10148898629E+03  0.12967899473E+03  0.00000000000E+00 0. -1.
        -11    1    3    3    0    0  0.21410768848E+02 -0.19199476429E+03  0.31571217119E+02  0.19574767505E+03  0.00000000000E+00 0. -1.
         11    1    3    3    0    0 -0.54782799187E+02 -0.17542100320E+03  0.79084982453E+02  0.20007028240E+03  0.00000000000E+00 0.  1.
         21    1    1    2  503  502  0.20233919188E+02 -0.11900587922E+02 -0.45817921402E+02  0.51481233476E+02  0.00000000000E+00 0. -1.
          2    1    1    2  501    0 -0.21464054392E+02  0.32696153498E+03 -0.18104784053E+03  0.37435661013E+03  0.00000000000E+00 0. -1.
<scales pt_clust_5="13000.00000" pt_clust_6="13000.00000" pt_clust_7="13000.00000" pt_clust_8="13000.00000" pt_clust_9="23.47414" pt_clust_10="13000.00000"></scales>
<clustering>
<clus scale="   23.474">  2  9  1 -1</clus>
<clus scale="   91.209">  7  8 -1 -1</clus>
<clus scale="  112.187">  5  6 -1 -1</clus>
<clus scale="  321.274">  5 10 -1 -1</clus>
<clus scale="  382.547">  1  7  2 -1</clus>
<clus scale="   23.474">  2  5  1 -1</clus>
</clustering>
</event>
<event>
10    2  0.5921424E-006  0.2438732E+03  0.7546771E-02  0.1146210E+00
         21   -1    0    0  501  502  0.00000000000E+00  0.00000000000E+00  0.16612498955E+03  0.16612498955E+03  0.00000000000E+00 0. -1.
          3   -1    0    0  503    0 -0.00000000000E+00 -0.00000000000E+00 -0.48467740306E+03  0.48467740306E+03  0.00000000000E+00 0. -1.
         23    2    1    2    0    0  0.25707561094E+02 -0.58252298497E+02 -0.48932029282E+02  0.12157216345E+03  0.91275618096E+02 0.  0.
         23    2    1    2    0    0 -0.82047781694E+02  0.16309159233E+02 -0.36783631773E+03  0.38772513300E+03  0.89606891269E+02 0.  0.
        -11    1    4    4    0    0 -0.71266539995E+02  0.34509675182E+02 -0.35328418552E+03  0.36204910322E+03  0.00000000000E+00 0.  1.
         11    1    4    4    0    0 -0.10781241699E+02 -0.18200515950E+02 -0.14552132210E+02  0.25676029780E+02  0.00000000000E+00 0. -1.
        -11    1    3    3    0    0  0.31108940510E+02 -0.14551329548E+02  0.20024673388E+02  0.39755438817E+02  0.00000000000E+00 0.  1.
         11    1    3    3    0    0 -0.54013794160E+01 -0.43700968949E+02 -0.68956702670E+02  0.81816724634E+02  0.00000000000E+00 0. -1.
         21    1    1    2  503  502  0.59930592432E+02  0.44058605244E+01  0.78778897545E+02  0.99081795577E+02  0.00000000000E+00 0. -1.
          3    1    1    2  501    0 -0.35903718317E+01  0.37537278740E+02  0.19437035960E+02  0.42423300579E+02  0.00000000000E+00 0. -1.
<scales pt_clust_5="13000.00000" pt_clust_6="13000.00000" pt_clust_7="13000.00000" pt_clust_8="13000.00000" pt_clust_9="60.09232" pt_clust_10="13000.00000"></scales>
<clustering>
<clus scale="   60.092">  1  9  2 -1</clus>
<clus scale="   89.607">  5  6 -1 -1</clus>
<clus scale="   44.292">  5 10 -1 -1</clus>
<clus scale="   91.276">  7  8 -1 -1</clus>
<clus scale="  119.971">  2  7  1 -1</clus>
<clus scale="   60.092">  1  5  2 -1</clus>
</clustering>
</event>
<event>
10    2  0.5921424E-006  0.2317827E+03  0.7546771E-02  0.1152696E+00
         21   -1    0    0  501  502  0.00000000000E+00  0.00000000000E+00  0.20203217621E+03  0.20203217621E+03  0.00000000000E+00 0. -1.
          4   -1    0    0  503    0 -0.00000000000E+00 -0.00000000000E+00 -0.23864936266E+03  0.23864936266E+03  0.00000000000E+00 0. -1.
         23    2    1    2    0    0 -0.71557351246E+02  0.37152720862E+02 -0.84897911739E+02  0.14868316634E+03  0.91641962824E+02 0.  0.
         23    2    1    2    0    0  0.75467014144E+02 -0.39287783016E+02 -0.83989974320E+02  0.15097564522E+03  0.92198316383E+02 0.  0.
        -13    1    3    3    0    0 -0.89319228804E+02  0.12458357463E+02 -0.72977166393E+02  0.11601207747E+03  0.00000000000E+00 0. -1.
         13    1    3    3    0    0  0.17761877558E+02  0.24694363400E+02 -0.11920745346E+02  0.32671088866E+02  0.00000000000E+00 0.  1.
        -13    1    4    4    0    0  0.69810683782E+01  0.27315587197E+02 -0.30309506808E+02  0.41394961318E+02  0.00000000000E+00 0.  1.
         13    1    4    4    0    0  0.68485945766E+02 -0.66603370212E+02 -0.53680467512E+02  0.10958068390E+03  0.00000000000E+00 0. -1.
         21    1    1    2  503  502  0.21544500021E+02  0.75694773139E+01  0.58859002264E+02  0.63133545880E+02  0.00000000000E+00 0. -1.
          4    1    1    2  501    0 -0.25454162919E+02 -0.54344151607E+01  0.73411697346E+02  0.77889181439E+02  0.00000000000E+00 0. -1.
<scales pt_clust_5="13000.00000" pt_clust_6="13000.00000" pt_clust_7="13000.00000" pt_clust_8="13000.00000" pt_clust_9="22.83555" pt_clust_10="13000.00000"></scales>
<clustering>
<clus scale="   22.836">  1  9  2 -1</clus>
<clus scale="   91.642">  5  6 -1 -1</clus>
<clus scale="   92.198">  7  8 -1 -1</clus>
<clus scale="   13.966">  7 10 -1 -1</clus>
<clus scale="  119.815">  2  5  1 -1</clus>
<clus scale="   22.836">  1  5  2 -1</clus>
</clustering>
</event>
<event>
10    2  0.5921424E-006  0.2583486E+03  0.7546771E-02  0.1148014E+00
         -1   -1    0    0    0  501 -0.00000000000E+00  0.00000000000E+00  0.29023818817E+03  0.29023818817E+03  0.00000000000E+00 0.  1.
         21   -1    0    0  501  502  0.00000000000E+00 -0.00000000000E+00 -0.20346853716E+03  0.20346853716E+03  0.00000000000E+00 0.  1.
         23    2    1    2    0    0  0.44311431311E+01 -0.43869201525E+02  0.82775964755E+02  0.12798438058E+03  0.87086161130E+02 0.  0.
         23    2    1    2    0    0 -0.47249363980E+02  0.10565195269E+03  0.10135005522E+03  0.17878089074E+03  0.91082027283E+02 0.  0.
        -11    1    4    4    0    0  0.64366069795E+01  0.62460267818E+02  0.88778610156E+02  0.10873985740E+03  0.00000000000E+00 0.  1.
         11    1    4    4    0    0 -0.53685970960E+02  0.43191684876E+02  0.12571445069E+02  0.70041033341E+02  0.00000000000E+00 0. -1.
        -13    1    3    3    0    0 -0.18981205445E+02 -0.25691440920E+02 -0.76317414233E+01  0.32841738289E+02  0.00000000000E+00 0.  1.
         13    1    3    3    0    0  0.23412348576E+02 -0.18177760604E+02  0.90407706178E+02  0.95142642295E+02  0.00000000000E+00 0. -1.
         21    1    1    2  503  502 -0.19676313547E+02  0.95461007524E+01 -0.89105207005E+02  0.91749786211E+02  0.00000000000E+00 0.  1.
         -1    1    1    2    0  503  0.62494534396E+02 -0.71328851922E+02 -0.82511619623E+01  0.95191667805E+02  0.00000000000E+00 0.  1.
<scales pt_clust_5="13000.00000" pt_clust_6="13000.00000" pt_clust_7="13000.00000" pt_clust_8="13000.00000" pt_clust_9="21.86974" pt_clust_10="13000.00000"></scales>
<clustering>
<clus scale="   21.870">  2  9  1 -1</clus>
<clus scale="   87.086">  7  8 -1 -1</clus>
<clus scale="   91.082">  5  6 -1 -1</clus>
<clus scale="   85.704">  5 10 -1 -1</clus>
<clus scale="   96.669">  1  7  2 -1</clus>
<clus scale="   21.870">  2  5  1 -1</clus>
</clustering>
</event>
<event>
10    2  0.5921424E-006  0.1250505E+03  0.7546771E-02  0.1245933E+00
          1   -1    0    0  502    0 -0.00000000000E+00  0.00000000000E+00  0.80386503396E+03  0.80386503396E+03  0.00000000000E+00 0. -1.
         21   -1    0    0  503  502  0.00000000000E+00 -0.00000000000E+00 -0.34526970371E+02  0.34526970371E+02  0.00000000000E+00 0.  1.
         23    2    1    2    0    0  0.59674749257E+02  0.22834072999E+02  0.44471282391E+03  0.45847721897E+03  0.91375018331E+02 0.  0.
         23    2    1    2    0    0 -0.62919900744E+01 -0.65619080350E+01  0.13724240646E+03  0.16512165179E+03  0.91362103647E+02 0.  0.
        -11    1    3    3    0    0  0.54223054186E+02 -0.23533038382E+02  0.31778453895E+03  0.32323514150E+03  0.00000000000E+00 0. -1.
         11    1    3    3    0    0  0.54516950708E+01  0.46367111381E+02  0.12692828496E+03  0.13524207747E+03  0.00000000000E+00 0.  1.
        -13    1    4    4    0    0 -0.34946835599E+02 -0.15350501027E+02  0.18056872213E+02  0.42225227463E+02  0.00000000000E+00 0.  1.
         13    1    4    4    0    0  0.28654845524E+02  0.87885929919E+01  0.11918553425E+03  0.12289642433E+03  0.00000000000E+00 0. -1.
         21    1    1    2  503  501 -0.69323994417E+02 -0.35855293538E+02  0.12342846734E+03  0.14603425908E+03  0.00000000000E+00 0.  1.
          1    1    1    2  501    0  0.15941235234E+02  0.19583128574E+02  0.63954365879E+02  0.68758874485E+02  0.00000000000E+00 0. -1.
<scales pt_clust_5="13000.00000" pt_clust_6="13000.00000" pt_clust_7="13000.00000" pt_clust_8="13000.00000" pt_clust_9="78.04754" pt_clust_10="13000.00000"></scales>
<clustering>
<clus scale="   78.048">  2  9  1 -1</clus>
<clus scale="   91.362">  7  8 -1 -1</clus>
<clus scale="   18.136">  7 10 -1 -1</clus>
<clus scale="   91.375">  5  6 -1 -1</clus>
<clus scale="  100.148">  1  5  2 -1</clus>
<clus scale="   78.048">  2  5  1 -1</clus>
</clustering>
</event>
<event>
10    2  0.5921424E-006  0.2528887E+03  0.7546771E-02  0.1138529E+00
          2   -1    0    0  502    0 -0.00000000000E+00  0.00000000000E+00  0.24294092578E+03  0.24294092578E+03  0.00000000000E+00 0. -1.
         21   -1    0    0  503  502  0.00000000000E+00 -0.00000000000E+00 -0.33323622362E+03  0.33323622362E+03  0.00000000000E+00 0.  1.
         23    2    1    2    0    0  0.78063233623E+02 -0.37807390541E+02  0.16621864582E+02  0.12816452014E+03  0.92879441309E+02 0.  0.
         23    2    1    2    0    0 -0.95325431183E+02  0.31372695239E+02  0.13687880746E+03  0.19306366938E+03  0.92014067754E+02 0.  0.
        -11    1    4    4    0    0 -0.44134894397E+02 -0.28186272030E+02  0.29738197989E+02  0.60222215619E+02  0.00000000000E+00 0.  1.
         11    1    4    4    0    0 -0.51190536786E+02  0.59558967269E+02  0.10714060947E+03  0.13284145376E+03  0.00000000000E+00 0. -1.
        -13    1    3    3    0    0 -0.11642714403E+02 -0.31892367620E+02 -0.81454129433E+01  0.34914519373E+02  0.00000000000E+00 0. -1.
         13    1    3    3    0    0  0.89705948025E+02 -0.59150229209E+01  0.24767277525E+02  0.93250000768E+02  0.00000000000E+00 0.  1.
         21    1    1    2  503  501 -0.25330498915E+01 -0.23778250622E+02 -0.18045828332E+03  0.18203574803E+03  0.00000000000E+00 0.  1.
          2    1    1    2  501    0  0.19795247451E+02  0.30212945923E+02 -0.63337686566E+02  0.72913211852E+02  0.00000000000E+00 0. -1.
<scales pt_clust_5="13000.00000" pt_clust_6="13000.00000" pt_clust_7="13000.00000" pt_clust_8="13000.00000" pt_clust_9="23.91279" pt_clust_10="13000.00000"></scales>
<clustering>
<clus scale="   23.913">  2  9  1 -1</clus>
<clus scale="   92.014">  5  6 -1 -1</clus>
<clus scale="   27.029">  5 10 -1 -1</clus>
<clus scale="   92.879">  7  8 -1 -1</clus>
<clus scale="  129.389">  1  7  2 -1</clus>
<clus scale="   23.913">  2  5  1 -1</clus>
</clustering>
</event>
<event>
10    2  0.5921424E-006  0.2440617E+03  0.7546771E-02  0.1144282E+00
         -3   -1    0    0    0  501 -0.00000000000E+00  0.00000000000E+00  0.22791668911E+03  0.22791668911E+03  0.00000000000E+00 0.  1.
         21   -1    0    0  501  502  0.00000000000E+00 -0.00000000000E+00 -0.34912470779E+03  0.34912470779E+03  0.00000000000E+00 0.  1.
         23    2    1    2    0    0 -0.39055617590E+02  0.77356936475E+02  0.17038979325E+02  0.12732033178E+03  0.91709885958E+02 0.  0.
         23    2    1    2    0    0  0.56396918442E+02 -0.16720427817E+02  0.12860579980E+03  0.16766379623E+03  0.90063931228E+02 0.  0.
        -11    1    4    4    0    0  0.81105458961E+02 -0.14114680613E+02  0.10465233228E+03  0.13315190699E+03  0.00000000000E+00 0.  1.
         11    1    4    4    0    0 -0.24708540519E+02 -0.26057472040E+01  0.23953467520E+02  0.34511889246E+02  0.00000000000E+00 0. -1.
        -13    1    3    3    0    0  0.22500478407E+01  0.83756954145E+02  0.17136705629E+02  0.85521674228E+02  0.00000000000E+00 0.  1.
         13    1    3    3    0    0 -0.41305665431E+02 -0.64000176699E+01 -0.97726303874E-01  0.41798657554E+02  0.00000000000E+00 0. -1.
         21    1    1    2  503  502 -0.19252484838E+02 -0.14856853823E+02 -0.19714370968E+03  0.19863792826E+03  0.00000000000E+00 0.  1.
         -3    1    1    2    0  503  0.19111839862E+01 -0.45779654835E+02 -0.69709088134E+02  0.83419340620E+02  0.00000000000E+00 0.  1.
<scales pt_clust_5="13000.00000" pt_clust_6="13000.00000" pt_clust_7="13000.00000" pt_clust_8="13000.00000" pt_clust_9="24.31839" pt_clust_10="13000.00000"></scales>
<clustering>
<clus scale="   24.318">  2  9  1 -1</clus>
<clus scale="   90.064">  5  6 -1 -1</clus>
<clus scale="   53.874">  5 10 -1 -1</clus>
<clus scale="   91.710">  7  8 -1 -1</clus>
<clus scale="  125.336">  1  7  2 -1</clus>
<clus scale="   24.318">  2  5  1 -1</clus>
</clustering>
</event>
<event>
10    2  0.5921424E-006  0.1356839E+03  0.7546771E-02  0.1231535E+00
         21   -1    0    0  503  502  0.00000000000E+00  0.00000000000E+00  0.17513199095E+03  0.17513199095E+03  0.00000000000E+00 0. -1.
          1   -1    0    0  502    0 -0.00000000000E+00 -0.00000000000E+00 -0.38273189791E+03  0.38273189791E+03  0.00000000000E+00 0. -1.
         23    2    1    2    0    0 -0.44485080758E+02  0.42393506188E+02 -0.23228176902E+03  0.25584280484E+03  0.87889639843E+02 0.  0.
         23    2    1    2    0    0  0.42920897044E+02 -0.35404906704E+02 -0.96649781368E+02  0.14606782778E+03  0.94334083196E+02 0.  0.
        -11    1    4    4    0    0 -0.27991815364E+02 -0.11033480098E+02 -0.10527028809E+02  0.31876288147E+02  0.00000000000E+00 0. -1.
         11    1    4    4    0    0  0.70912712408E+02 -0.24371426606E+02 -0.86122752559E+02  0.11419153964E+03  0.00000000000E+00 0.  1.
        -11    1    3    3    0    0 -0.31736017104E+02 -0.14640529980E+02 -0.32634493373E+02  0.47817675157E+02  0.00000000000E+00 0.  1.
         11    1    3    3    0    0 -0.12749063654E+02  0.57034036169E+02 -0.19964727565E+03  0.20802512968E+03  0.00000000000E+00 0. -1.
         21    1    1    2  503  501  0.21512339298E+02  0.12006404669E+01  0.13068442623E+03  0.13244863736E+03  0.00000000000E+00 0. -1.
          1    1    1    2  501    0 -0.19948155583E+02 -0.81892399506E+01 -0.93527828103E+01  0.23504618875E+02  0.00000000000E+00 0. -1.
<scales pt_clust_5="13000.00000" pt_clust_6="13000.00000" pt_clust_7="13000.00000" pt_clust_8="13000.00000" pt_clust_9="21.54582" pt_clust_10="13000.00000"></scales>
<clustering>
<clus scale="   21.546">  1  9  2 -1</clus>
<clus scale="   87.890">  7  8 -1 -1</clus>
<clus scale="   94.334">  5  6 -1 -1</clus>
<clus scale="   18.293">  5 10 -1 -1</clus>
<clus scale="  105.093">  2  7  1 -1</clus>
<clus scale="   21.546">  1  5  2 -1</clus>
</clustering>
</event>
<event>
10    2  0.5921424E-006  0.1619379E+03  0.7546771E-02  0.1207124E+00
         -3   -1    0    0    0  501 -0.00000000000E+00  0.00000000000E+00  0.61414167766E+02  0.61414167766E+02  0.00000000000E+00 0.  1.
         21   -1    0    0  503  502  0.00000000000E+00 -0.00000000000E+00 -0.47907104286E+03  0.47907104286E+03  0.00000000000E+00 0.  1.
         23    2    1    2    0    0 -0.47106779614E+01 -0.26699215225E+01 -0.48092733486E+02  0.11372352930E+03  0.10291166666E+03 0.  0.
         23    2    1    2    0    0  0.10848485129E+02  0.59876795082E+02 -0.14663930706E+03  0.18686479178E+03  0.98551731649E+02 0.  0.
        -11    1    4    4    0    0  0.34625951850E+02  0.45624996437E+02 -0.25680650414E+02  0.62770157297E+02  0.00000000000E+00 0.  1.
         11    1    4    4    0    0 -0.23777466721E+02  0.14251798645E+02 -0.12095865665E+03  0.12409463448E+03  0.00000000000E+00 0. -1.
        -11    1    3    3    0    0 -0.26845774768E+02  0.43238594880E+02 -0.15402482601E+02  0.53174318805E+02  0.00000000000E+00 0.  1.
         11    1    3    3    0    0  0.22135096807E+02 -0.45908516402E+02 -0.32690250885E+02  0.60549210497E+02  0.00000000000E+00 0. -1.
         21    1    1    2  503  501  0.28691741390E+02 -0.24530866868E+02 -0.13067124118E+03  0.13601453130E+03  0.00000000000E+00 0.  1.
         -3    1    1    2    0  502 -0.34829548559E+02 -0.32676006692E+02 -0.92253593363E+02  0.10388235824E+03  0.00000000000E+00 0.  1.
<scales pt_clust_5="13000.00000" pt_clust_6="13000.00000" pt_clust_7="13000.00000" pt_clust_8="13000.00000" pt_clust_9="37.74890" pt_clust_10="13000.00000"></scales>
<clustering>
<clus scale="   37.749">  2  9  1 -1</clus>
<clus scale="   98.552">  5  6 -1 -1</clus>
<clus scale="   47.784">  5 10 -1 -1</clus>
<clus scale="  102.912">  7  8 -1 -1</clus>
<clus scale="  103.274">  1  7  2 -1</clus>
<clus scale="   37.749">  2  5  1 -1</clus>
</clustering>
</event>
<event>
10    2  0.5921424E-006  0.1913287E+03  0.7546771E-02  0.1181554E+00
          1   -1    0    0  503    0 -0.00000000000E+00  0.00000000000E+00  0.76152211278E+03  0.76152211278E+03  0.00000000000E+00 0. -1.
         21   -1    0    0  501  502  0.00000000000E+00 -0.00000000000E+00 -0.61322704902E+02  0.61322704902E+02  0.00000000000E+00 0.  1.
         23    2    1    2    0    0  0.21035033824E+02  0.51925889086E+02  0.19887651904E+03  0.22577806675E+03  0.91022497194E+02 0.  0.
         23    2    1    2    0    0  0.62356819627E+02 -0.77383637091E+01  0.27918402089E+03  0.30025607288E+03  0.90894095238E+02 0.  0.
        -13    1    3    3    0    0 -0.33729896798E+02  0.81172303653E+01  0.46302166248E+02  0.57857462493E+02  0.00000000000E+00 0. -1.
         13    1    3    3    0    0  0.54764930622E+02  0.43808658720E+02  0.15257435279E+03  0.16792060426E+03  0.00000000000E+00 0.  1.
        -13    1    4    4    0    0  0.69242509021E+02 -0.38287148755E+02  0.20444162959E+03  0.21921863681E+03  0.00000000000E+00 0. -1.
         13    1    4    4    0    0 -0.68856893942E+01  0.30548785046E+02  0.74742391303E+02  0.81037436065E+02  0.00000000000E+00 0.  1.
         21    1    1    2  503  502 -0.28815512892E+02  0.20184811330E+02 -0.19942115739E+02  0.40440677192E+02  0.00000000000E+00 0.  1.
          1    1    1    2  501    0 -0.54576340559E+02 -0.64372336706E+02  0.24208098368E+03  0.25637000086E+03  0.00000000000E+00 0. -1.
<scales pt_clust_5="13000.00000" pt_clust_6="13000.00000" pt_clust_7="13000.00000" pt_clust_8="13000.00000" pt_clust_9="35.18182" pt_clust_10="13000.00000"></scales>
<clustering>
<clus scale="   35.182">  2  9  1 -1</clus>
<clus scale="   90.894">  7  8 -1 -1</clus>
<clus scale="   85.516">  7 10 -1 -1</clus>
<clus scale="   91.022">  5  6 -1 -1</clus>
<clus scale="  109.713">  1  5  2 -1</clus>
<clus scale="   35.182">  2  5  1 -1</clus>
</clustering>
</event>
<event>
10    2  0.5921424E-006  0.2578746E+03  0.7546771E-02  0.1143597E+00
         21   -1    0    0  503  502  0.00000000000E+00  0.00000000000E+00  0.22053351792E+03  0.22053351792E+03  0.00000000000E+00 0.  1.
         -2   -1    0    0    0  501 -0.00000000000E+00 -0.00000000000E+00 -0.28447762053E+03  0.28447762053E+03  0.00000000000E+00 0.  1.
         23    2    1    2    0    0  0.14236457294E+02 -0.61299541701E+02  0.14712499815E+02  0.11264873940E+03  0.92265759139E+02 0.  0.
         23    2    1    2    0    0 -0.15258805072E+01 -0.12930083653E+02 -0.20529587070E+03  0.22399322972E+03  0.88640042076E+02 0.  0.
        -11    1    3    3    0    0  0.44871975201E+02 -0.65542564876E+02  0.27221600887E+01  0.79477871917E+02  0.00000000000E+00 0.  1.
         11    1    3    3    0    0 -0.30635517907E+02  0.42430231747E+01  0.11990339726E+02  0.33170867487E+02  0.00000000000E+00 0. -1.
        -13    1    4    4    0    0  0.51072062454E+00 -0.48824903184E+02 -0.15243862414E+03  0.16006769236E+03  0.00000000000E+00 0.  1.
         13    1    4    4    0    0 -0.20366011317E+01  0.35894819531E+02 -0.52857246561E+02  0.63925537365E+02  0.00000000000E+00 0. -1.
         21    1    1    2  503  501 -0.31484772846E+02  0.10904091530E+02  0.82375499968E+02  0.88858950749E+02  0.00000000000E+00 0.  1.
         -2    1    1    2    0  502  0.18774196059E+02  0.63325533824E+02  0.44263768319E+02  0.79510218574E+02  0.00000000000E+00 0.  1.
<scales pt_clust_5="13000.00000" pt_clust_6="13000.00000" pt_clust_7="13000.00000" pt_clust_8="13000.00000" pt_clust_9="33.31952" pt_clust_10="13000.00000"></scales>
<clustering>
<clus scale="   33.320">  1  9  2 -1</clus>
<clus scale="   88.640">  7  8 -1 -1</clus>
<clus scale="   68.465">  7 10 -1 -1</clus>
<clus scale="   92.266">  5  6 -1 -1</clus>
<clus scale="  108.012">  2  5  1 -1</clus>
<clus scale="   33.320">  1  5  2 -1</clus>
</clustering>
</event>
<event>
10    2  0.5921424E-006  0.5005031E+03  0.7546771E-02  0.1059840E+00
         -1   -1    0    0    0  501 -0.00000000000E+00  0.00000000000E+00  0.11357229125E+04  0.11357229125E+04  0.00000000000E+00 0.  1.
         21   -1    0    0  503  502  0.00000000000E+00 -0.00000000000E+00 -0.35996296273E+03  0.35996296273E+03  0.00000000000E+00 0. -1.
         23    2    1    2    0    0  0.42216699632E+02 -0.81437677221E+02  0.42863278948E+03  0.44771883893E+03  0.91168774891E+02 0.  0.
         23    2    1    2    0    0  0.95847248800E+02 -0.25521810637E+03  0.22746149186E+03  0.36723255515E+03  0.93797880348E+02 0.  0.
        -11    1    4    4    0    0 -0.43186690103E+01 -0.11975607088E+03  0.94342113683E+02  0.15251426762E+03  0.00000000000E+00 0. -1.
         11    1    4    4    0    0  0.10016591781E+03 -0.13546203549E+03  0.13311937818E+03  0.21471828752E+03  0.00000000000E+00 0.  1.
        -11    1    3    3    0    0 -0.28858645012E+02 -0.29152580240E+02  0.14315080970E+03  0.14891221791E+03  0.00000000000E+00 0. -1.
         11    1    3    3    0    0  0.71075344644E+02 -0.52285096981E+02  0.28548197979E+03  0.29880662102E+03  0.00000000000E+00 0.  1.
         21    1    1    2  503  501 -0.19012128609E+03  0.48023785089E+03  0.77425585030E+02  0.52227312593E+03  0.00000000000E+00 0. -1.
         -1    1    1    2    0  502  0.52057337660E+02 -0.14358206730E+03  0.42240083398E+02  0.15846135523E+03  0.00000000000E+00 0.  1.
<scales pt_clust_5="13000.00000" pt_clust_6="13000.00000" pt_clust_7="13000.00000" pt_clust_8="13000.00000" pt_clust_9="477.28978" pt_clust_10="13000.00000"></scales>
<clustering>
<clus scale="   91.169">  7  8 -1 -1</clus>
<clus scale="   93.798">  5  6 -1 -1</clus>
<clus scale="  129.329">  1  7  2 -1</clus>
<clus scale="  165.821">  5 10 -1 -1</clus>
<clus scale="  477.290">  2  9  1 -1</clus>
<clus scale="  477.290">  2  5  1 -1</clus>
</clustering>
</event>
<event>
10    2  0.5921424E-006  0.4181242E+03  0.7546771E-02  0.1086563E+00
         -1   -1    0    0    0  501 -0.00000000000E+00  0.00000000000E+00  0.19870354910E+03  0.19870354910E+03  0.00000000000E+00 0.  1.
         21   -1    0    0  503  502  0.00000000000E+00 -0.00000000000E+00 -0.39681590412E+03  0.39681590412E+03  0.00000000000E+00 0.  1.
         23    2    1    2    0    0  0.49687115288E+02 -0.29716205857E+02 -0.13115546975E+02  0.10803248222E+03  0.90261494146E+02 0.  0.
         23    2    1    2    0    0 -0.16595665980E+03  0.15059865192E+03 -0.15602675445E+03  0.28799637705E+03  0.91520479672E+02 0.  0.
        -13    1    4    4    0    0 -0.15630037060E+03  0.11625694284E+03 -0.93648184957E+02  0.21613760699E+03  0.00000000000E+00 0. -1.
         13    1    4    4    0    0 -0.96562892038E+01  0.34341709074E+02 -0.62378569494E+02  0.71858770066E+02  0.00000000000E+00 0.  1.
        -13    1    3    3    0    0  0.51707883053E+02  0.70861283484E+01 -0.37121562218E+02  0.64046301738E+02  0.00000000000E+00 0.  1.
         13    1    3    3    0    0 -0.20207677654E+01 -0.36802334205E+02  0.24006015243E+02  0.43986180480E+02  0.00000000000E+00 0. -1.
         21    1    1    2  503  501 -0.19233618346E+02 -0.23727126710E+02 -0.22180768534E+01  0.30623985396E+02  0.00000000000E+00 0.  1.
         -1    1    1    2    0  502  0.13550316286E+03 -0.97155319348E+02 -0.26751976742E+02  0.16886660855E+03  0.00000000000E+00 0.  1.
<scales pt_clust_5="13000.00000" pt_clust_6="13000.00000" pt_clust_7="13000.00000" pt_clust_8="13000.00000" pt_clust_9="30.54357" pt_clust_10="13000.00000"></scales>
<clustering>
<clus scale="   30.544">  2  9  1 -1</clus>
<clus scale="   90.261">  7  8 -1 -1</clus>
<clus scale="   91.520">  5  6 -1 -1</clus>
<clus scale="  106.971">  1  7  2 -1</clus>
<clus scale="  195.725">  5 10 -1 -1</clus>
<clus scale="   30.544">  2  5  1 -1</clus>
</clustering>
</event>
<event>
10    2  0.5921424E-006  0.2044433E+03  0.7546771E-02  0.1171979E+00
         21   -1    0    0  501  502  0.00000000000E+00  0.00000000000E+00  0.35623800434E+02  0.35623800434E+02  0.00000000000E+00 0.  1.
         -1   -1    0    0    0  501 -0.00000000000E+00 -0.00000000000E+00 -0.10926254396E+04  0.10926254396E+04  0.00000000000E+00 0.  1.
         23    2    1    2    0    0 -0.90807033261E+01  0.63707003000E+02 -0.13779457200E+03  0.17658567852E+03  0.89744728984E+02 0.  0.
         23    2    1    2    0    0 -0.83564520491E+02 -0.11003524228E+02 -0.44744187397E+03  0.46419443348E+03  0.90377734327E+02 0.  0.
        -11    1    3    3    0    0 -0.47401604830E+02  0.44374774880E+02 -0.63716868514E+02  0.90971820469E+02  0.00000000000E+00 0.  1.
         11    1    3    3    0    0  0.38320901504E+02  0.19332228120E+02 -0.74077703487E+02  0.85613858049E+02  0.00000000000E+00 0. -1.
        -11    1    4    4    0    0 -0.25080690948E+01  0.28820409405E+02 -0.16942243526E+03  0.17187457049E+03  0.00000000000E+00 0.  1.
         11    1    4    4    0    0 -0.81056451396E+02 -0.39823933633E+02 -0.27801943871E+03  0.29231986300E+03  0.00000000000E+00 0. -1.
         21    1    1    2  503  502  0.34653886583E+02  0.26457228586E+01 -0.74659008028E+02  0.82352044203E+02  0.00000000000E+00 0. -1.
         -1    1    1    2    0  503  0.57991337234E+02 -0.55349201631E+02 -0.39710618521E+03  0.40511708388E+03  0.00000000000E+00 0.  1.
<scales pt_clust_5="13000.00000" pt_clust_6="13000.00000" pt_clust_7="13000.00000" pt_clust_8="13000.00000" pt_clust_9="34.75474" pt_clust_10="13000.00000"></scales>
<clustering>
<clus scale="   34.755">  1  9  2 -1</clus>
<clus scale="   89.745">  5  6 -1 -1</clus>
<clus scale="   90.378">  7  8 -1 -1</clus>
<clus scale="   83.159">  7 10 -1 -1</clus>
<clus scale="  111.655">  2  5  1 -1</clus>
<clus scale="   34.755">  1  5  2 -1</clus>
</clustering>
</event>
<event>
10    2  0.5921424E-006  0.4971332E+03  0.7546771E-02  0.1038955E+00
          1   -1    0    0  502    0 -0.00000000000E+00  0.00000000000E+00  0.38572766822E+03  0.38572766822E+03  0.00000000000E+00 0. -1.
         21   -1    0    0  503  502  0.00000000000E+00 -0.00000000000E+00 -0.41385858077E+03  0.41385858077E+03  0.00000000000E+00 0.  1.
         23    2    1    2    0    0  0.20322102881E+03 -0.68020789437E+02  0.24199675377E+02  0.23337748356E+03  0.89184142075E+02 0.  0.
         23    2    1    2    0    0 -0.25498268815E+03  0.17190544684E+03  0.12862906004E+03  0.34614235582E+03  0.93281517456E+02 0.  0.
        -11    1    3    3    0    0  0.18907592018E+03 -0.41477470949E+02  0.42483506201E+02  0.19817904149E+03  0.00000000000E+00 0. -1.
         11    1    3    3    0    0  0.14145108639E+02 -0.26543318489E+02 -0.18283830824E+02  0.35198442073E+02  0.00000000000E+00 0.  1.
        -13    1    4    4    0    0 -0.22194460881E+03  0.13047615557E+03  0.13834133480E+03  0.29227001466E+03  0.00000000000E+00 0.  1.
         13    1    4    4    0    0 -0.33038079334E+02  0.41429291275E+02 -0.97122747621E+01  0.53872341166E+02  0.00000000000E+00 0. -1.
         21    1    1    2  503  501  0.25635103702E+02 -0.11225408306E+02 -0.53005839494E+02  0.59939864480E+02  0.00000000000E+00 0.  1.
          1    1    1    2  501    0  0.26126555633E+02 -0.92659249101E+02 -0.12795380847E+03  0.16012654513E+03  0.00000000000E+00 0. -1.
<scales pt_clust_5="13000.00000" pt_clust_6="13000.00000" pt_clust_7="13000.00000" pt_clust_8="13000.00000" pt_clust_9="27.98514" pt_clust_10="13000.00000"></scales>
<clustering>
<clus scale="   27.985">  2  9  1 -1</clus>
<clus scale="   89.184">  5  6 -1 -1</clus>
<clus scale="   93.282">  7  8 -1 -1</clus>
<clus scale="  103.797">  7 10 -1 -1</clus>
<clus scale="  239.672">  1  5  2 -1</clus>
<clus scale="   27.985">  2  5  1 -1</clus>
</clustering>
</event>
<event>
10    2  0.5921424E-006  0.3106485E+03  0.7546771E-02  0.1110885E+00
         21   -1    0    0  501  502  0.00000000000E+00  0.00000000000E+00  0.71456724106E+02  0.71456724106E+02  0.00000000000E+00 0.  1.
          2   -1    0    0  503    0 -0.00000000000E+00 -0.00000000000E+00 -0.14468332614E+04  0.14468332614E+04  0.00000000000E+00 0. -1.
         23    2    1    2    0    0 -0.63116554739E+02 -0.35251574215E+02 -0.24561159097E+03  0.27198714712E+03  0.91790966943E+02 0.  0.
         23    2    1    2    0    0  0.22254585192E+03  0.59356695575E+02 -0.75108109009E+03  0.79113449534E+03  0.93386895825E+02 0.  0.
        -11    1    3    3    0    0 -0.24024709215E+02  0.20282022557E+02 -0.15820026976E+03  0.16129436582E+03  0.00000000000E+00 0.  1.
         11    1    3    3    0    0 -0.39091845524E+02 -0.55533596772E+02 -0.87411321208E+02  0.11069278130E+03  0.00000000000E+00 0. -1.
        -13    1    4    4    0    0  0.29362993921E+02  0.33136089485E+02 -0.24168263638E+03  0.24570446183E+03  0.00000000000E+00 0. -1.
         13    1    4    4    0    0  0.19318285799E+03  0.26220606090E+02 -0.50939845371E+03  0.54543003351E+03  0.00000000000E+00 0.  1.
         21    1    1    2  503  502 -0.78624395047E+02 -0.46100857888E+02 -0.29073706907E+02  0.95667993748E+02  0.00000000000E+00 0.  1.
          2    1    1    2  501    0 -0.80804902130E+02  0.21995736529E+02 -0.34961014934E+03  0.35950034931E+03  0.00000000000E+00 0. -1.
<scales pt_clust_5="13000.00000" pt_clust_6="13000.00000" pt_clust_7="13000.00000" pt_clust_8="13000.00000" pt_clust_9="91.14321" pt_clust_10="13000.00000"></scales>
<clustering>
<clus scale="   91.143">  1  9  2 -1</clus>
<clus scale="   91.791">  5  6 -1 -1</clus>
<clus scale="   93.387">  7  8 -1 -1</clus>
<clus scale="   92.394">  7 10 -1 -1</clus>
<clus scale="  138.555">  2  5  1 -1</clus>
<clus scale="   91.143">  1  5  2 -1</clus>
</clustering>
</event>
<event>
10    2  0.5921424E-006  0.3972324E+03  0.7546771E-02  0.1068343E+00
         -1   -1    0    0    0  501 -0.00000000000E+00  0.00000000000E+00  0.34448768155E+03  0.34448768155E+03  0.00000000000E+00 0.  1.
         21   -1    0    0  503  502  0.00000000000E+00 -0.00000000000E+00 -0.36188492365E+03  0.36188492365E+03  0.00000000000E+00 0.  1.
         23    2    1    2    0    0  0.17110563158E+03 -0.52897137732E+02  0.14080586132E+03  0.24568678211E+03  0.91980758753E+02 0.  0.
         23    2    1    2    0    0  0.37874685273E+02  0.21316411695E+02  0.59015853331E+02  0.11605647788E+03  0.89985298369E+02 0.  0.
        -13    1    4    4    0    0  0.61841679695E+02 -0.70681362387E+01  0.31061998543E+02  0.69564356181E+02  0.00000000000E+00 0.  1.
         13    1    4    4    0    0 -0.23966994422E+02  0.28384547934E+02  0.27953854788E+02  0.46492121704E+02  0.00000000000E+00 0. -1.
        -13    1    3    3    0    0  0.12541827112E+03 -0.17586275277E+02  0.13882084678E+03  0.18791021076E+03  0.00000000000E+00 0.  1.
         13    1    3    3    0    0  0.45687360469E+02 -0.35310862455E+02  0.19850145395E+01  0.57776571347E+02  0.00000000000E+00 0. -1.
         21    1    1    2  503  501  0.24296451261E+02  0.39234495107E+01  0.10224330304E+00  0.24611409014E+02  0.00000000000E+00 0.  1.
         -1    1    1    2    0  502 -0.23327676812E+03  0.27657276527E+02 -0.21732120006E+03  0.32001793619E+03  0.00000000000E+00 0.  1.
<scales pt_clust_5="13000.00000" pt_clust_6="13000.00000" pt_clust_7="13000.00000" pt_clust_8="13000.00000" pt_clust_9="24.61121" pt_clust_10="13000.00000"></scales>
<clustering>
<clus scale="   24.611">  2  9  1 -1</clus>
<clus scale="   89.985">  5  6 -1 -1</clus>
<clus scale="   91.981">  7  8 -1 -1</clus>
<clus scale="  204.289">  1  7  2 -1</clus>
<clus scale="  154.268">  5 10 -1 -1</clus>
<clus scale="   24.611">  2  5  1 -1</clus>
</clustering>
</event>
<event>
10    2  0.5921424E-006  0.1287761E+03  0.7546771E-02  0.1239083E+00
          1   -1    0    0  503    0 -0.00000000000E+00  0.00000000000E+00  0.10314478180E+04  0.10314478180E+04  0.00000000000E+00 0. -1.
         21   -1    0    0  501  502  0.00000000000E+00 -0.00000000000E+00 -0.75774438932E+02  0.75774438932E+02  0.00000000000E+00 0.  1.
         23    2    1    2    0    0  0.86235495669E+02 -0.77955708707E+02  0.46274354597E+03  0.48627483165E+03  0.93904043187E+02 0.  0.
         23    2    1    2    0    0  0.17442720927E+02 -0.14769500536E+01  0.38069047002E+03  0.39173140611E+03  0.90674310998E+02 0.  0.
        -11    1    3    3    0    0  0.85847098678E+02 -0.31945523779E+02  0.20608295191E+03  0.22552255743E+03  0.00000000000E+00 0.  1.
         11    1    3    3    0    0  0.38839699159E+00 -0.46010184928E+02  0.25666059406E+03  0.26075227422E+03  0.00000000000E+00 0. -1.
        -13    1    4    4    0    0  0.22806857574E+02  0.42103613072E+02  0.21991410819E+03  0.22506683889E+03  0.00000000000E+00 0. -1.
         13    1    4    4    0    0 -0.53641366470E+01 -0.43580563126E+02  0.16077636183E+03  0.16666456722E+03  0.00000000000E+00 0.  1.
         21    1    1    2  503  502 -0.11689724567E+03  0.54021344972E+02  0.17158417808E+02  0.12991413726E+03  0.00000000000E+00 0.  1.
          1    1    1    2  501    0  0.13219029074E+02  0.25411313788E+02  0.95080945303E+02  0.99301881945E+02  0.00000000000E+00 0. -1.
<scales pt_clust_5="13000.00000" pt_clust_6="13000.00000" pt_clust_7="13000.00000" pt_clust_8="13000.00000" pt_clust_9="128.77605" pt_clust_10="13000.00000"></scales>
<clustering>
<clus scale="   90.674">  7  8 -1 -1</clus>
<clus scale="   28.644">  7 10 -1 -1</clus>
<clus scale="   93.904">  5  6 -1 -1</clus>
<clus scale="  128.776">  2  9  1 -1</clus>
<clus scale="  105.332">  1  5  2 -1</clus>
<clus scale="  128.776">  2  5  1 -1</clus>
</clustering>
</event>
<event>
10    2  0.5921424E-006  0.3554566E+03  0.7546771E-02  0.1068338E+00
          2   -1    0    0  502    0 -0.00000000000E+00  0.00000000000E+00  0.15671040442E+03  0.15671040442E+03  0.00000000000E+00 0. -1.
         21   -1    0    0  503  502  0.00000000000E+00 -0.00000000000E+00 -0.78152715518E+03  0.78152715518E+03  0.00000000000E+00 0.  1.
         23    2    1    2    0    0  0.14357940341E+01  0.26195339226E+03 -0.41885940579E+03  0.50246155815E+03  0.91666648103E+02 0.  0.
         23    2    1    2    0    0 -0.63129085800E+02 -0.41595158963E+02 -0.51908078646E+02  0.13236484725E+03  0.95449282013E+02 0.  0.
        -13    1    3    3    0    0 -0.40890172234E+01  0.69792531367E+02 -0.19626426359E+03  0.20834437516E+03  0.00000000000E+00 0. -1.
         13    1    3    3    0    0  0.55248112575E+01  0.19216086090E+03 -0.22259514220E+03  0.29411718299E+03  0.00000000000E+00 0.  1.
        -13    1    4    4    0    0 -0.70641658442E+02 -0.22238918444E+02  0.25288244418E+01  0.74102687900E+02  0.00000000000E+00 0. -1.
         13    1    4    4    0    0  0.75125726423E+01 -0.19356240520E+02 -0.54436903088E+02  0.58262159354E+02  0.00000000000E+00 0.  1.
         21    1    1    2  503  501  0.17091615124E+02  0.12735420707E+02 -0.26421709742E+02  0.33947326755E+02  0.00000000000E+00 0.  1.
          2    1    1    2  501    0  0.44601676641E+02 -0.23309365401E+03 -0.12762755658E+03  0.26946382743E+03  0.00000000000E+00 0. -1.
<scales pt_clust_5="13000.00000" pt_clust_6="13000.00000" pt_clust_7="13000.00000" pt_clust_8="13000.00000" pt_clust_9="21.31465" pt_clust_10="13000.00000"></scales>
<clustering>
<clus scale="   21.315">  2  9  1 -1</clus>
<clus scale="   91.667">  5  6 -1 -1</clus>
<clus scale="   95.449">  7  8 -1 -1</clus>
<clus scale="  234.921">  7 10 -1 -1</clus>
<clus scale="  285.160">  1  5  2 -1</clus>
<clus scale="   21.315">  2  5  1 -1</clus>
</clustering>
</event>
<event>
10    2  0.5921424E-006  0.4924060E+03  0.7546771E-02  0.1023959E+00
         -3   -1    0    0    0  501 -0.00000000000E+00  0.00000000000E+00  0.33880538645E+03  0.33880538645E+03  0.00000000000E+00 0.  1.
         21   -1    0    0  501  502  0.00000000000E+00 -0.00000000000E+00 -0.10769313178E+04  0.10769313178E+04  0.00000000000E+00 0.  1.
         23    2    1    2    0    0 -0.38364914087E+03 -0.86814469742E+02  0.55896141072E+02  0.40876131518E+03  0.96114612599E+02 0.  0.
         23    2    1    2    0    0  0.23476483319E+03  0.14081994741E+03 -0.12408177189E+03  0.31435210716E+03  0.92066153773E+02 0.  0.
        -13    1    4    4    0    0  0.71148914488E+02  0.61537699204E+00 -0.14486591484E+02  0.72611349351E+02  0.00000000000E+00 0. -1.
         13    1    4    4    0    0  0.16361591870E+03  0.14020457042E+03 -0.10959518041E+03  0.24174075781E+03  0.00000000000E+00 0.  1.
        -13    1    3    3    0    0 -0.24330929974E+03 -0.96923736510E+02  0.57084907674E+02  0.26805281704E+03  0.00000000000E+00 0.  1.
         13    1    3    3    0    0 -0.14033984113E+03  0.10109266768E+02 -0.11887666015E+01  0.14070849814E+03  0.00000000000E+00 0. -1.
         21    1    1    2  503  502  0.81448868823E+02  0.43837977746E+01 -0.40305853426E+03  0.41122903345E+03  0.00000000000E+00 0.  1.
         -3    1    1    2    0  503  0.67435438858E+02 -0.58389275446E+02 -0.26688176628E+03  0.28139424847E+03  0.00000000000E+00 0.  1.
<scales pt_clust_5="13000.00000" pt_clust_6="13000.00000" pt_clust_7="13000.00000" pt_clust_8="13000.00000" pt_clust_9="81.56676" pt_clust_10="13000.00000"></scales>
<clustering>
<clus scale="   81.567">  2  9  1 -1</clus>
<clus scale="   92.066">  5  6 -1 -1</clus>
<clus scale="   96.115">  7  8 -1 -1</clus>
<clus scale="  115.577">  5 10 -1 -1</clus>
<clus scale="  384.396">  1  7  2 -1</clus>
<clus scale="   81.567">  2  5  1 -1</clus>
</clustering>
</event>
<event>
10    2  0.5921424E-006  0.5226568E+03  0.7546771E-02  0.1033835E+00
         21   -1    0    0  503  502  0.00000000000E+00  0.00000000000E+00  0.48878917463E+03  0.48878917463E+03  0.00000000000E+00 0. -1.
         -1   -1    0    0    0  501 -0.00000000000E+00 -0.00000000000E+00 -0.32904360012E+03  0.32904360012E+03  0.00000000000E+00 0.  1.
         23    2    1    2    0    0 -0.18988778516E+03 -0.12143398172E+03  0.17420295925E+02  0.24136094625E+03  0.84546181442E+02 0.  0.
         23    2    1    2    0    0  0.23807020460E+03  0.15199327176E+03  0.24072230360E+03  0.38250640617E+03  0.92652826879E+02 0.  0.
        -13    1    3    3    0    0 -0.62054507662E+02 -0.17735958010E+02  0.38907542463E+02  0.75359956132E+02  0.00000000000E+00 0. -1.
         13    1    3    3    0    0 -0.12783327750E+03 -0.10369802371E+03 -0.21487246538E+02  0.16600099012E+03  0.00000000000E+00 0.  1.
        -13    1    4    4    0    0  0.23946276517E+03  0.12738514203E+03  0.20947685838E+03  0.34270970880E+03  0.00000000000E+00 0. -1.
         13    1    4    4    0    0 -0.13925605704E+01  0.24608129725E+02  0.31245445227E+02  0.39796697362E+02  0.00000000000E+00 0.  1.
         21    1    1    2  503  501 -0.94406587443E+01  0.23035677106E+02  0.36238108726E+02  0.43965543114E+02  0.00000000000E+00 0.  1.
         -1    1    1    2    0  502 -0.38741760691E+02 -0.53594967142E+02 -0.13463513375E+03  0.14999987921E+03  0.00000000000E+00 0.  1.
<scales pt_clust_5="13000.00000" pt_clust_6="13000.00000" pt_clust_7="13000.00000" pt_clust_8="13000.00000" pt_clust_9="24.89515" pt_clust_10="13000.00000"></scales>
<clustering>
<clus scale="   24.895">  1  9  2 -1</clus>
<clus scale="   84.546">  5  6 -1 -1</clus>
<clus scale="   92.653">  7  8 -1 -1</clus>
<clus scale="   65.907">  7 10 -1 -1</clus>
<clus scale="  239.633">  2  5  1 -1</clus>
<clus scale="   24.895">  1  5  2 -1</clus>
</clustering>
</event>
<event>
10    2  0.5921424E-006  0.1880032E+03  0.7546771E-02  0.1183363E+00
          3   -1    0    0  503    0 -0.00000000000E+00  0.00000000000E+00  0.24386614195E+03  0.24386614195E+03  0.00000000000E+00 0. -1.
         21   -1    0    0  501  502  0.00000000000E+00 -0.00000000000E+00 -0.37326790400E+03  0.37326790400E+03  0.00000000000E+00 0.  1.
         23    2    1    2    0    0 -0.17700355794E+02  0.10507459379E+02 -0.50057441099E+02  0.10459500766E+03  0.89502284439E+02 0.  0.
         23    2    1    2    0    0  0.31594649603E+02 -0.61035252224E+02  0.17298920837E+03  0.20777507412E+03  0.92313007292E+02 0.  0.
        -11    1    4    4    0    0  0.37274632630E+01  0.22460600625E+02  0.16118711678E+02  0.27895975139E+02  0.00000000000E+00 0.  1.
         11    1    4    4    0    0  0.27867186340E+02 -0.83495852849E+02  0.15687049669E+03  0.17987909898E+03  0.00000000000E+00 0. -1.
        -11    1    3    3    0    0 -0.27680173201E+02 -0.32818710622E+02 -0.40703290511E+02  0.59160946694E+02  0.00000000000E+00 0. -1.
         11    1    3    3    0    0  0.99798174077E+01  0.43326170001E+02 -0.93541505879E+01  0.45434060963E+02  0.00000000000E+00 0.  1.
         21    1    1    2  503  502  0.13978038167E+02  0.89326635789E+02 -0.23844869314E+03  0.25501453424E+03  0.00000000000E+00 0.  1.
          3    1    1    2  501    0 -0.27872331976E+02 -0.38798842943E+02 -0.13884836180E+02  0.49749429939E+02  0.00000000000E+00 0. -1.
<scales pt_clust_5="13000.00000" pt_clust_6="13000.00000" pt_clust_7="13000.00000" pt_clust_8="13000.00000" pt_clust_9="90.41368" pt_clust_10="13000.00000"></scales>
<clustering>
<clus scale="   89.502">  7  8 -1 -1</clus>
<clus scale="   90.414">  2  9  1 -1</clus>
<clus scale="   92.313">  5  6 -1 -1</clus>
<clus scale="   29.330">  5 10 -1 -1</clus>
<clus scale="  111.049">  1  7  2 -1</clus>
<clus scale="   90.414">  2  5  1 -1</clus>
</clustering>
</event>
<event>
10    2  0.5921424E-006  0.3822482E+03  0.7546771E-02  0.1053367E+00
          2   -1    0    0  502    0 -0.00000000000E+00  0.00000000000E+00  0.14620500651E+04  0.14620500651E+04  0.00000000000E+00 0. -1.
         21   -1    0    0  503  502  0.00000000000E+00 -0.00000000000E+00 -0.31752534709E+03  0.31752534709E+03  0.00000000000E+00 0. -1.
         23    2    1    2    0    0  0.22289585810E+03 -0.16887752346E+03  0.14877675161E+03  0.33044337722E+03  0.94106972341E+02 0.  0.
         23    2    1    2    0    0 -0.57026381535E+02  0.93361057615E+02  0.39625571009E+03  0.42180058488E+03  0.94492594157E+02 0.  0.
        -13    1    4    4    0    0 -0.24376116462E+02 -0.14095565910E+02  0.45543569264E+02  0.53545277415E+02  0.00000000000E+00 0.  1.
         13    1    4    4    0    0 -0.32650265073E+02  0.10745662352E+03  0.35071214083E+03  0.36825530746E+03  0.00000000000E+00 0. -1.
        -13    1    3    3    0    0  0.21396732301E+03 -0.12666286811E+03  0.14320236422E+03  0.28693625528E+03  0.00000000000E+00 0. -1.
         13    1    3    3    0    0  0.89285350890E+01 -0.42214655352E+02  0.55743873871E+01  0.43507121946E+02  0.00000000000E+00 0.  1.
         21    1    1    2  503  501  0.52442835312E+02 -0.56377412646E+02 -0.18608439429E+03  0.20138536549E+03  0.00000000000E+00 0. -1.
          2    1    1    2  501    0 -0.21831231187E+03  0.13189387849E+03  0.78557665065E+03  0.82594608465E+03  0.00000000000E+00 0. -1.
<scales pt_clust_5="13000.00000" pt_clust_6="13000.00000" pt_clust_7="13000.00000" pt_clust_8="13000.00000" pt_clust_9="76.99782" pt_clust_10="13000.00000"></scales>
<clustering>
<clus scale="   76.998">  2  9  1 -1</clus>
<clus scale="   94.107">  7  8 -1 -1</clus>
<clus scale="   94.493">  5  6 -1 -1</clus>
<clus scale="  243.013">  5 10 -1 -1</clus>
<clus scale="  348.392">  1  7  2 -1</clus>
<clus scale="   76.998">  2  5  1 -1</clus>
</clustering>
</event>
<event>
10    2  0.5921424E-006  0.1940202E+03  0.7546771E-02  0.1187144E+00
         21   -1    0    0  501  502  0.00000000000E+00  0.00000000000E+00  0.37409236144E+03  0.37409236144E+03  0.00000000000E+00 0.  1.
         -1   -1    0    0    0  501 -0.00000000000E+00 -0.00000000000E+00 -0.10041844698E+03  0.10041844698E+03  0.00000000000E+00 0.  1.
         23    2    1    2    0    0  0.16439754102E+02  0.77295699945E+01  0.52821327677E+02  0.10723524209E+03  0.91538476726E+02 0.  0.
         23    2    1    2    0    0 -0.11106153708E+02 -0.54752694042E+02 -0.17208262040E+02  0.10844870775E+03  0.91344369148E+02 0.  0.
        -11    1    3    3    0    0  0.26115620909E+02  0.46513340021E+02  0.30877780369E+02  0.61635653447E+02  0.00000000000E+00 0. -1.
         11    1    3    3    0    0 -0.96758668068E+01 -0.38783770026E+02  0.21943547308E+02  0.45599588643E+02  0.00000000000E+00 0.  1.
        -13    1    4    4    0    0 -0.42760421020E+02 -0.56316267498E+02 -0.26355039063E+02  0.75462332821E+02  0.00000000000E+00 0.  1.
         13    1    4    4    0    0  0.31654267312E+02  0.15635734563E+01  0.91467770233E+01  0.32986374929E+02  0.00000000000E+00 0. -1.
         21    1    1    2  503  502 -0.46584950966E+02  0.22111270082E+02  0.14731174082E+03  0.15607631116E+03  0.00000000000E+00 0. -1.
         -1    1    1    2    0  503  0.41251350572E+02  0.24911853965E+02  0.90749108005E+02  0.10275054742E+03  0.00000000000E+00 0.  1.
<scales pt_clust_5="13000.00000" pt_clust_6="13000.00000" pt_clust_7="13000.00000" pt_clust_8="13000.00000" pt_clust_9="51.56613" pt_clust_10="13000.00000"></scales>
<clustering>
<clus scale="   51.566">  1  9  2 -1</clus>
<clus scale="   91.344">  7  8 -1 -1</clus>
<clus scale="   40.408">  7 10 -1 -1</clus>
<clus scale="   91.538">  5  6 -1 -1</clus>
<clus scale="   92.873">  2  5  1 -1</clus>
<clus scale="   51.566">  1  5  2 -1</clus>
</clustering>
</event>
<event>
10    2  0.5921424E-006  0.4008482E+03  0.7546771E-02  0.1051090E+00
         21   -1    0    0  503  502  0.00000000000E+00  0.00000000000E+00  0.47290135753E+03  0.47290135753E+03  0.00000000000E+00 0.  1.
         -1   -1    0    0    0  501 -0.00000000000E+00 -0.00000000000E+00 -0.44479539447E+03  0.44479539447E+03  0.00000000000E+00 0.  1.
         23    2    1    2    0    0 -0.29881636997E+03 -0.83667579029E+02 -0.11509575108E+03  0.34312823771E+03  0.90545396657E+02 0.  0.
         23    2    1    2    0    0  0.94875763882E+02  0.14762896326E+02 -0.11072351272E+03  0.17310634454E+03  0.92123594001E+02 0.  0.
        -11    1    3    3    0    0 -0.26913456153E+03 -0.59599021488E+02 -0.12643469654E+03  0.30326751897E+03  0.00000000000E+00 0.  1.
         11    1    3    3    0    0 -0.29681808432E+02 -0.24068557541E+02  0.11338945462E+02  0.39860718735E+02  0.00000000000E+00 0. -1.
        -13    1    4    4    0    0  0.10817925662E+03 -0.54150626219E+01 -0.96475665629E+02  0.14505043442E+03  0.00000000000E+00 0.  1.
         13    1    4    4    0    0 -0.13303492737E+02  0.20177958948E+02 -0.14247847090E+02  0.28055910126E+02  0.00000000000E+00 0. -1.
         21    1    1    2  503  501 -0.44897499368E+01  0.27447940723E+02  0.17115338413E+03  0.17339846656E+03  0.00000000000E+00 0.  1.
         -1    1    1    2    0  502  0.20843035602E+03  0.41456741980E+02  0.82771842722E+02  0.22806370319E+03  0.00000000000E+00 0.  1.
<scales pt_clust_5="13000.00000" pt_clust_6="13000.00000" pt_clust_7="13000.00000" pt_clust_8="13000.00000" pt_clust_9="27.81272" pt_clust_10="13000.00000"></scales>
<clustering>
<clus scale="   27.813">  1  9  2 -1</clus>
<clus scale="   90.545">  5  6 -1 -1</clus>
<clus scale="   92.124">  7  8 -1 -1</clus>
<clus scale="  213.489">  7 10 -1 -1</clus>
<clus scale="  322.299">  2  5  1 -1</clus>
<clus scale="   27.813">  1  5  2 -1</clus>
</clustering>
</event>
<event>
10    2  0.5921424E-006  0.2703900E+03  0.7546771E-02  0.1135655E+00
         -2   -1    0    0    0  501 -0.00000000000E+00  0.00000000000E+00  0.41096064215E+03  0.41096064215E+03  0.00000000000E+00 0.  1.
         21   -1    0    0  503  502  0.00000000000E+00 -0.00000000000E+00 -0.21925028670E+03  0.21925028670E+03  0.00000000000E+00 0.  1.
         23    2    1    2    0    0  0.47074547557E+02 -0.51176679813E+02  0.10926298345E+02  0.11402071640E+03  0.89701026685E+02 0.  0.
         23    2    1    2    0    0  0.55521021607E+02  0.82257094737E+02  0.20319772176E+03  0.24378851998E+03  0.91075325263E+02 0.  0.
        -11    1    3    3    0    0 -0.20428880590E+02 -0.28108782037E+02 -0.15365215467E+02  0.37993849977E+02  0.00000000000E+00 0.  1.
         11    1    3    3    0    0  0.67503428147E+02 -0.23067897776E+02  0.26291513813E+02  0.76026866422E+02  0.00000000000E+00 0. -1.
        -13    1    4    4    0    0 -0.36169687772E+01  0.74579148571E+02  0.12219484439E+03  0.14320164755E+03  0.00000000000E+00 0.  1.
         13    1    4    4    0    0  0.59137990385E+02  0.76779461662E+01  0.81002877368E+02  0.10058687243E+03  0.00000000000E+00 0. -1.
         21    1    1    2  503  501 -0.86268643499E+01 -0.12384756356E+03 -0.55937436567E+02  0.13616768558E+03  0.00000000000E+00 0.  1.
         -2    1    1    2    0  502 -0.93968704814E+02  0.92767148631E+02  0.33523771912E+02  0.13623400689E+03  0.00000000000E+00 0.  1.
<scales pt_clust_5="13000.00000" pt_clust_6="13000.00000" pt_clust_7="13000.00000" pt_clust_8="13000.00000" pt_clust_9="129.77828" pt_clust_10="13000.00000"></scales>
<clustering>
<clus scale="   89.701">  5  6 -1 -1</clus>
<clus scale="   91.075">  7  8 -1 -1</clus>
<clus scale="  113.496">  1  5  2 -1</clus>
<clus scale="  115.131">  7 10 -1 -1</clus>
<clus scale="  129.778">  2  9  1 -1</clus>
<clus scale="  129.778">  2  5  1 -1</clus>
</clustering>
</event>
<event>
10    2  0.5921424E-006  0.4905370E+03  0.7546771E-02  0.1027018E+00
         21   -1    0    0  503  502  0.00000000000E+00  0.00000000000E+00  0.91346264227E+03  0.91346264227E+03  0.00000000000E+00 0.  1.
         -1   -1    0    0    0  501 -0.00000000000E+00 -0.00000000000E+00 -0.38325040223E+03  0.38325040223E+03  0.00000000000E+00 0.  1.
         23    2    1    2    0    0  0.26898833291E+03 -0.17771086211E+03  0.51906891262E+02  0.33903350474E+03  0.91178496516E+02 0.  0.
         23    2    1    2    0    0 -0.32361571290E+03  0.18898775125E+03 -0.61065008755E+02  0.39091843260E+03  0.92977340744E+02 0.  0.
        -13    1    4    4    0    0 -0.20782775098E+02  0.75990719110E+01 -0.28979913458E+02  0.36462378127E+02  0.00000000000E+00 0. -1.
         13    1    4    4    0    0 -0.30283293781E+03  0.18138867934E+03 -0.32085095297E+02  0.35445605447E+03  0.00000000000E+00 0.  1.
        -13    1    3    3    0    0  0.22323728964E+03 -0.14451580209E+03  0.56463810320E+01  0.26599170317E+03  0.00000000000E+00 0.  1.
         13    1    3    3    0    0  0.45751043270E+02 -0.33195060020E+02  0.46260510230E+02  0.73041801571E+02  0.00000000000E+00 0. -1.
         21    1    1    2  503  501  0.12797011801E+02 -0.67737995414E+02  0.43815669844E+03  0.44354649353E+03  0.00000000000E+00 0.  1.
         -1    1    1    2    0  502  0.41830368197E+02  0.56461106277E+02  0.10121365909E+03  0.12321461363E+03  0.00000000000E+00 0.  1.
<scales pt_clust_5="13000.00000" pt_clust_6="13000.00000" pt_clust_7="13000.00000" pt_clust_8="13000.00000" pt_clust_9="68.93620" pt_clust_10="13000.00000"></scales>
<clustering>
<clus scale="   68.936">  1  9  2 -1</clus>
<clus scale="   91.178">  7  8 -1 -1</clus>
<clus scale="   92.977">  5  6 -1 -1</clus>
<clus scale="   60.362">  5 10 -1 -1</clus>
<clus scale="  354.778">  2  7  1 -1</clus>
<clus scale="   68.936">  1  5  2 -1</clus>
</clustering>
</event>
<event>
10    2  0.5921424E-006  0.5351316E+03  0.7546771E-02  0.1046817E+00
         -1   -1    0    0    0  501 -0.00000000000E+00  0.00000000000E+00  0.33098386350E+03  0.33098386350E+03  0.00000000000E+00 0.  1.
         21   -1    0    0  503  502  0.00000000000E+00 -0.00000000000E+00 -0.44107723574E+03  0.44107723574E+03  0.00000000000E+00 0. -1.
         23    2    1    2    0    0 -0.27853953778E+01  0.12634125704E+03 -0.91571368648E+02  0.18022399110E+03  0.90141553996E+02 0.  0.
         23    2    1    2    0    0  0.20510574494E+03 -0.22845918279E+03  0.49535998811E+01  0.32044097724E+03  0.91629236236E+02 0.  0.
        -13    1    3    3    0    0 -0.38573481786E+02  0.26816550740E+02 -0.13863624810E+02  0.48982047564E+02  0.00000000000E+00 0.  1.
         13    1    3    3    0    0  0.35788086408E+02  0.99524706295E+02 -0.77707743837E+02  0.13124194354E+03  0.00000000000E+00 0. -1.
        -13    1    4    4    0    0  0.99549234716E+02 -0.57036785716E+02 -0.23534444838E+02  0.11712008859E+03  0.00000000000E+00 0.  1.
         13    1    4    4    0    0  0.10555651023E+03 -0.17142239707E+03  0.28488044719E+02  0.20332088865E+03  0.00000000000E+00 0. -1.
         21    1    1    2  503  501 -0.20405084869E+02 -0.86476009913E+01 -0.51985673893E+02  0.56512465718E+02  0.00000000000E+00 0. -1.
         -1    1    1    2    0  502 -0.18191526470E+03  0.11076552674E+03  0.28510070416E+02  0.21488366518E+03  0.00000000000E+00 0.  1.
<scales pt_clust_5="13000.00000" pt_clust_6="13000.00000" pt_clust_7="13000.00000" pt_clust_8="13000.00000" pt_clust_9="22.16187" pt_clust_10="13000.00000"></scales>
<clustering>
<clus scale="   22.162">  2  9  1 -1</clus>
<clus scale="   90.142">  5  6 -1 -1</clus>
<clus scale="   91.629">  7  8 -1 -1</clus>
<clus scale="  153.063">  1  5  2 -1</clus>
<clus scale="  251.198">  7 10 -1 -1</clus>
<clus scale="   22.162">  2  5  1 -1</clus>
</clustering>
</event>
<event>
10    2  0.5921424E-006  0.2357627E+03  0.7546771E-02  0.1163471E+00
          2   -1    0    0  503    0 -0.00000000000E+00  0.00000000000E+00  0.61295240522E+03  0.61295240522E+03  0.00000000000E+00 0. -1.
         21   -1    0    0  501  502  0.00000000000E+00 -0.00000000000E+00 -0.69249614036E+02  0.69249614036E+02  0.00000000000E+00 0. -1.
         23    2    1    2    0    0  0.12127827097E+02 -0.89098354041E+01  0.36191896566E+02  0.96759447683E+02  0.88465066449E+02 0.  0.
         23    2    1    2    0    0 -0.48253514396E+02 -0.33651132267E+02  0.47438933307E+03  0.48643156246E+03  0.90053457880E+02 0.  0.
        -13    1    3    3    0    0 -0.42618931422E+01  0.37951228958E+02  0.25660868594E+02  0.46010212883E+02  0.00000000000E+00 0.  1.
         13    1    3    3    0    0  0.16389720239E+02 -0.46861064362E+02  0.10531027972E+02  0.50749234800E+02  0.00000000000E+00 0. -1.
        -13    1    4    4    0    0  0.26198633408E+02 -0.13690652687E+01  0.12846435975E+03  0.13111572925E+03  0.00000000000E+00 0.  1.
         13    1    4    4    0    0 -0.74452147805E+02 -0.32282066998E+02  0.34592497332E+03  0.35531583321E+03  0.00000000000E+00 0. -1.
         21    1    1    2  503  502 -0.21869475339E+02  0.11005750295E+02 -0.13690845541E+01  0.24520907072E+02  0.00000000000E+00 0.  1.
          2    1    1    2  501    0  0.57995162638E+02  0.31555217377E+02  0.34490646105E+02  0.74490102039E+02  0.00000000000E+00 0. -1.
<scales pt_clust_5="13000.00000" pt_clust_6="13000.00000" pt_clust_7="13000.00000" pt_clust_8="13000.00000" pt_clust_9="24.48266" pt_clust_10="13000.00000"></scales>
<clustering>
<clus scale="   24.483">  2  9  1 -1</clus>
<clus scale="   88.465">  5  6 -1 -1</clus>
<clus scale="   88.516">  1  5  2 -1</clus>
<clus scale="   90.053">  7  8 -1 -1</clus>
<clus scale="   61.348">  7 10 -1 -1</clus>
<clus scale="   24.483">  2  5  1 -1</clus>
</clustering>
</event>
<event>
10    2  0.5921424E-006  0.3248904E+03  0.7546771E-02  0.1102726E+00
          2   -1    0    0  502    0 -0.00000000000E+00  0.00000000000E+00  0.56703194245E+03  0.56703194245E+03  0.00000000000E+00 0. -1.
         21   -1    0    0  503  502  0.00000000000E+00 -0.00000000000E+00 -0.14999154283E+03  0.14999154283E+03  0.00000000000E+00 0. -1.
         23    2    1    2    0    0  0.36723844080E+02 -0.10914388564E+03  0.31015980438E+03  0.34343531727E+03  0.92128629663E+02 0.  0.
         23    2    1    2    0    0  0.11122670802E+03  0.42102807327E+02  0.51372226711E+01  0.14932177484E+03  0.90147514787E+02 0.  0.
        -11    1    3    3    0    0  0.67005030929E+02 -0.87258327035E+02  0.23681050605E+03  0.26111856614E+03  0.00000000000E+00 0.  1.
         11    1    3    3    0    0 -0.30281186849E+02 -0.21885558603E+02  0.73349298322E+02  0.82316751130E+02  0.00000000000E+00 0. -1.
        -11    1    4    4    0    0 -0.56395493723E+01  0.30319475512E+02 -0.57082274138E+01  0.31363338034E+02  0.00000000000E+00 0.  1.
         11    1    4    4    0    0  0.11686625740E+03  0.11783331815E+02  0.10845450085E+02  0.11795843681E+03  0.00000000000E+00 0. -1.
         21    1    1    2  503  501 -0.40080168156E+01 -0.20931578541E+02 -0.82778633407E+01  0.22863031306E+02  0.00000000000E+00 0. -1.
          2    1    1    2  501    0 -0.14394253529E+03  0.87972656852E+02  0.11002123591E+03  0.20140336186E+03  0.00000000000E+00 0. -1.
<scales pt_clust_5="13000.00000" pt_clust_6="13000.00000" pt_clust_7="13000.00000" pt_clust_8="13000.00000" pt_clust_9="21.31186" pt_clust_10="13000.00000"></scales>
<clustering>
<clus scale="   21.312">  2  9  1 -1</clus>
<clus scale="   90.148">  7  8 -1 -1</clus>
<clus scale="   92.129">  5  6 -1 -1</clus>
<clus scale="  149.281">  1  5  2 -1</clus>
<clus scale="  121.453">  7 10 -1 -1</clus>
<clus scale="   21.312">  2  5  1 -1</clus>
</clustering>
</event>
<event>
10    2  0.5921424E-006  0.2738380E+03  0.7546771E-02  0.1134351E+00
         21   -1    0    0  503  502  0.00000000000E+00  0.00000000000E+00  0.31578073873E+02  0.31578073873E+02  0.00000000000E+00 0.  1.
          2   -1    0    0  502    0 -0.00000000000E+00 -0.00000000000E+00 -0.16410819509E+04  0.16410819509E+04  0.00000000000E+00 0. -1.
         23    2    1    2    0    0  0.71230625917E+02 -0.13915733854E+02 -0.54769064181E+03  0.55973258615E+03  0.89822486880E+02 0.  0.
         23    2    1    2    0    0 -0.13667236733E+02 -0.12111513719E+03 -0.72157818173E+03  0.73707086740E+03  0.87992734970E+02 0.  0.
        -11    1    4    4    0    0  0.24484433295E+02 -0.28956154885E+01 -0.85879439146E+02  0.89348475817E+02  0.00000000000E+00 0.  1.
         11    1    4    4    0    0 -0.38151670028E+02 -0.11821952170E+03 -0.63569874259E+03  0.64772239159E+03  0.00000000000E+00 0. -1.
        -13    1    3    3    0    0  0.75581321751E+02 -0.35938045578E+02 -0.50081063101E+03  0.50775522396E+03  0.00000000000E+00 0.  1.
         13    1    3    3    0    0 -0.43506958342E+01  0.22022311725E+02 -0.46880010796E+02  0.51977362189E+02  0.00000000000E+00 0. -1.
         21    1    1    2  503  501 -0.12842799962E+02  0.31622541632E+02 -0.28762747538E+02  0.44634272662E+02  0.00000000000E+00 0.  1.
          2    1    1    2  501    0 -0.44720589222E+02  0.10340832941E+03 -0.31147230597E+03  0.33122229858E+03  0.00000000000E+00 0. -1.
<scales pt_clust_5="13000.00000" pt_clust_6="13000.00000" pt_clust_7="13000.00000" pt_clust_8="13000.00000" pt_clust_9="34.13096" pt_clust_10="13000.00000"></scales>
<clustering>
<clus scale="   34.131">  1  9  2 -1</clus>
<clus scale="   87.993">  5  6 -1 -1</clus>
<clus scale="   89.822">  7  8 -1 -1</clus>
<clus scale="  112.787">  2  7  1 -1</clus>
<clus scale="  116.791">  5 10 -1 -1</clus>
<clus scale="   34.131">  1  5  2 -1</clus>
</clustering>
</event>
<event>
10    2  0.5921424E-006  0.5858864E+03  0.7546771E-02  0.1007765E+00
          2   -1    0    0  503    0 -0.00000000000E+00  0.00000000000E+00  0.16165496741E+04  0.16165496741E+04  0.00000000000E+00 0. -1.
         21   -1    0    0  501  502  0.00000000000E+00 -0.00000000000E+00 -0.35634343533E+03  0.35634343533E+03  0.00000000000E+00 0. -1.
         23    2    1    2    0    0  0.27178346020E+03  0.50301866128E+02  0.13018800903E+03  0.31978455401E+03  0.94428366029E+02 0.  0.
         23    2    1    2    0    0  0.39499262250E+02 -0.10963058018E+03  0.45360917055E+03  0.47716659695E+03  0.91365342498E+02 0.  0.
        -13    1    4    4    0    0  0.65745136936E+02 -0.10085642163E+03  0.37098078147E+03  0.39002715422E+03  0.00000000000E+00 0.  1.
         13    1    4    4    0    0 -0.26245874686E+02 -0.87741585541E+01  0.82628389086E+02  0.87139442730E+02  0.00000000000E+00 0. -1.
        -13    1    3    3    0    0  0.22236215933E+03  0.12974709630E+01  0.10303617294E+03  0.24507767395E+03  0.00000000000E+00 0. -1.
         13    1    3    3    0    0  0.49421300875E+02  0.49004395165E+02  0.27151836088E+02  0.74706880062E+02  0.00000000000E+00 0.  1.
         21    1    1    2  503  502  0.15230177491E+03  0.52258577183E+01 -0.15822159261E+03  0.21967524348E+03  0.00000000000E+00 0. -1.
          2    1    1    2  501    0 -0.46358449736E+03  0.54102856334E+02  0.83463065179E+03  0.95626671498E+03  0.00000000000E+00 0. -1.
<scales pt_clust_5="13000.00000" pt_clust_6="13000.00000" pt_clust_7="13000.00000" pt_clust_8="13000.00000" pt_clust_9="152.39140" pt_clust_10="13000.00000"></scales>
<clustering>
<clus scale="   91.365">  5  6 -1 -1</clus>
<clus scale="   94.428">  7  8 -1 -1</clus>
<clus scale="  152.391">  2  9  1 -1</clus>
<clus scale="  374.088">  1  7  2 -1</clus>
<clus scale="  216.342">  5 10 -1 -1</clus>
<clus scale="  152.391">  2  5  1 -1</clus>
</clustering>
</event>
<event>
10    2  0.5921424E-006  0.7872650E+03  0.7546771E-02  0.1016370E+00
          2   -1    0    0  503    0 -0.00000000000E+00  0.00000000000E+00  0.82534197426E+03  0.82534197426E+03  0.00000000000E+00 0. -1.
         21   -1    0    0  501  502  0.00000000000E+00 -0.00000000000E+00 -0.12731463090E+04  0.12731463090E+04  0.00000000000E+00 0. -1.
         23    2    1    2    0    0 -0.59364629476E+02  0.23750207310E+02  0.33784602141E+03  0.35797153818E+03  0.99576384646E+02 0.  0.
         23    2    1    2    0    0 -0.41388049456E+03  0.11846403266E+03  0.73391953227E+02  0.44639733721E+03  0.92484663887E+02 0.  0.
        -11    1    3    3    0    0 -0.69922722737E+02 -0.19917946108E+02  0.18935497244E+03  0.20283297888E+03  0.00000000000E+00 0. -1.
         11    1    3    3    0    0  0.10558093262E+02  0.43668153418E+02  0.14849104897E+03  0.15513855930E+03  0.00000000000E+00 0.  1.
        -11    1    4    4    0    0 -0.36068319925E+03  0.13416417357E+03  0.65853649344E+02  0.39042169359E+03  0.00000000000E+00 0. -1.
         11    1    4    4    0    0 -0.53197295315E+02 -0.15700140914E+02  0.75383038834E+01  0.55975643622E+02  0.00000000000E+00 0.  1.
         21    1    1    2  503  502  0.64712024311E+03  0.83349028260E+02 -0.73687094016E+03  0.98422073337E+03  0.00000000000E+00 0. -1.
          2    1    1    2  501    0 -0.17387511907E+03 -0.22556326823E+03 -0.12217136923E+03  0.30989867451E+03  0.00000000000E+00 0. -1.
<scales pt_clust_5="13000.00000" pt_clust_6="13000.00000" pt_clust_7="13000.00000" pt_clust_8="13000.00000" pt_clust_9="638.05085" pt_clust_10="13000.00000"></scales>
<clustering>
<clus scale="   92.485">  7  8 -1 -1</clus>
<clus scale="   99.576">  5  6 -1 -1</clus>
<clus scale="  118.337">  1  5  2 -1</clus>
<clus scale="  288.482">  7 10 -1 -1</clus>
<clus scale="  638.051">  2  9  1 -1</clus>
<clus scale="  638.051">  2  5  1 -1</clus>
</clustering>
</event>
<event>
10    2  0.5921424E-006  0.1127470E+03  0.7546771E-02  0.1263194E+00
         -3   -1    0    0    0  501 -0.00000000000E+00  0.00000000000E+00  0.21428830601E+03  0.21428830601E+03  0.00000000000E+00 0.  1.
         21   -1    0    0  503  502  0.00000000000E+00 -0.00000000000E+00 -0.94351877670E+02  0.94351877670E+02  0.00000000000E+00 0. -1.
         23    2    1    2    0    0 -0.22736221220E+02 -0.38163857823E+02  0.46804363636E+02  0.11178030401E+03  0.91273063441E+02 0.  0.
         23    2    1    2    0    0  0.20775111684E+02  0.30282051907E+02  0.90195910751E+02  0.12584131502E+03  0.79700227837E+02 0.  0.
        -11    1    3    3    0    0 -0.44586800174E+02 -0.48681749952E+02  0.55267970181E+02  0.86095551895E+02  0.00000000000E+00 0.  1.
         11    1    3    3    0    0  0.21850578954E+02  0.10517892129E+02 -0.84636065454E+01  0.25684752115E+02  0.00000000000E+00 0. -1.
        -11    1    4    4    0    0  0.30451496096E+02  0.48483992235E+02  0.88169526284E+02  0.10512781022E+03  0.00000000000E+00 0. -1.
         11    1    4    4    0    0 -0.96763844114E+01 -0.18201940328E+02  0.20263844668E+01  0.20713504798E+02  0.00000000000E+00 0.  1.
         21    1    1    2  503  501  0.24693501344E+02  0.10961487693E+02 -0.33324177863E+02  0.42900163768E+02  0.00000000000E+00 0. -1.
         -3    1    1    2    0  502 -0.22732391808E+02 -0.30796817767E+01  0.16260331812E+02  0.28118400876E+02  0.00000000000E+00 0.  1.
<scales pt_clust_5="13000.00000" pt_clust_6="13000.00000" pt_clust_7="13000.00000" pt_clust_8="13000.00000" pt_clust_9="27.01709" pt_clust_10="13000.00000"></scales>
<clustering>
<clus scale="   27.017">  2  9  1 -1</clus>
<clus scale="   79.700">  7  8 -1 -1</clus>
<clus scale="   20.221">  7 10 -1 -1</clus>
<clus scale="   91.273">  5  6 -1 -1</clus>
<clus scale="   97.035">  1  5  2 -1</clus>
<clus scale="   27.017">  2  5  1 -1</clus>
</clustering>
</event>
<event>
10    2  0.5921424E-006  0.1325831E+03  0.7546771E-02  0.1248099E+00
         21   -1    0    0  503  502  0.00000000000E+00  0.00000000000E+00  0.39068021923E+03  0.39068021923E+03  0.00000000000E+00 0.  1.
         -4   -1    0    0    0  501 -0.00000000000E+00 -0.00000000000E+00 -0.81278535266E+02  0.81278535266E+02  0.00000000000E+00 0.  1.
         23    2    1    2    0    0 -0.14149961991E+02  0.49354866260E+01  0.19979369961E+02  0.83401839748E+02  0.79574563754E+02 0.  0.
         23    2    1    2    0    0  0.72095845579E+01 -0.40771971293E+02  0.11637797478E+02  0.93066553442E+02  0.82532498367E+02 0.  0.
        -11    1    4    4    0    0 -0.24794169270E+02 -0.17339268840E+01 -0.21348683594E+02  0.32764670355E+02  0.00000000000E+00 0. -1.
         11    1    4    4    0    0  0.32003753828E+02 -0.39038044409E+02  0.32986481072E+02  0.60301883087E+02  0.00000000000E+00 0.  1.
        -13    1    3    3    0    0 -0.22707124279E+02  0.39308590509E+02  0.13780039555E+02  0.47441208574E+02  0.00000000000E+00 0.  1.
         13    1    3    3    0    0  0.85571622879E+01 -0.34373103883E+02  0.61993304069E+01  0.35960631174E+02  0.00000000000E+00 0. -1.
         21    1    1    2  503  501  0.38656628670E+02  0.19972296571E+02  0.23903572297E+03  0.24296358662E+03  0.00000000000E+00 0.  1.
         -4    1    1    2    0  502 -0.31716251237E+02  0.15864188095E+02  0.38748793559E+02  0.52526774684E+02  0.00000000000E+00 0.  1.
<scales pt_clust_5="13000.00000" pt_clust_6="13000.00000" pt_clust_7="13000.00000" pt_clust_8="13000.00000" pt_clust_9="43.51123" pt_clust_10="13000.00000"></scales>
<clustering>
<clus scale="   43.511">  1  9  2 -1</clus>
<clus scale="   79.575">  7  8 -1 -1</clus>
<clus scale="   80.453">  2  7  1 -1</clus>
<clus scale="   82.532">  5  6 -1 -1</clus>
<clus scale="   30.917">  5 10 -1 -1</clus>
<clus scale="   43.511">  1  5  2 -1</clus>
</clustering>
</event>
<event>
10    2  0.5921424E-006  0.1516588E+03  0.7546771E-02  0.1202460E+00
         -1   -1    0    0    0  501 -0.00000000000E+00  0.00000000000E+00  0.16624764437E+03  0.16624764437E+03  0.00000000000E+00 0.  1.
         21   -1    0    0  501  502  0.00000000000E+00 -0.00000000000E+00 -0.27572433484E+03  0.27572433484E+03  0.00000000000E+00 0.  1.
         23    2    1    2    0    0 -0.51529081805E+02  0.78545427196E+02 -0.51401116035E+02  0.14525295297E+03  0.98141302268E+02 0.  0.
         23    2    1    2    0    0  0.65197926216E+02 -0.69295984285E+02  0.51380414663E+02  0.14278465884E+03  0.93245958454E+02 0.  0.
        -11    1    4    4    0    0  0.34985786028E+02 -0.75330317120E+02  0.68390901369E+02  0.10759171572E+03  0.00000000000E+00 0.  1.
         11    1    4    4    0    0  0.30212140188E+02  0.60343328349E+01 -0.17010486705E+02  0.35192943120E+02  0.00000000000E+00 0. -1.
        -13    1    3    3    0    0 -0.60689061798E+02  0.42184290877E+01 -0.19893106275E+02  0.64005414171E+02  0.00000000000E+00 0. -1.
         13    1    3    3    0    0  0.91599799938E+01  0.74326998108E+02 -0.31508009761E+02  0.81247538795E+02  0.00000000000E+00 0.  1.
         21    1    1    2  503  502 -0.32380423079E+02 -0.18664206201E+02 -0.12329091201E+03  0.12883125931E+03  0.00000000000E+00 0.  1.
         -1    1    1    2    0  503  0.18711578668E+02  0.94147632906E+01  0.13834922916E+02  0.25103108098E+02  0.00000000000E+00 0.  1.
<scales pt_clust_5="13000.00000" pt_clust_6="13000.00000" pt_clust_7="13000.00000" pt_clust_8="13000.00000" pt_clust_9="37.37438" pt_clust_10="13000.00000"></scales>
<clustering>
<clus scale="   37.374">  2  9  1 -1</clus>
<clus scale="   93.246">  5  6 -1 -1</clus>
<clus scale="   19.542">  5 10 -1 -1</clus>
<clus scale="   98.141">  7  8 -1 -1</clus>
<clus scale="  139.016">  1  7  2 -1</clus>
<clus scale="   37.374">  2  5  1 -1</clus>
</clustering>
</event>
<event>
10    2  0.5921424E-006  0.3324189E+03  0.7546771E-02  0.1110388E+00
         21   -1    0    0  501  502  0.00000000000E+00  0.00000000000E+00  0.52795610757E+03  0.52795610757E+03  0.00000000000E+00 0.  1.
          2   -1    0    0  503    0 -0.00000000000E+00 -0.00000000000E+00 -0.11878589977E+03  0.11878589977E+03  0.00000000000E+00 0. -1.
         23    2    1    2    0    0  0.69476765306E+02 -0.20190126126E+02  0.45944894332E+02  0.12489160251E+03  0.90842264126E+02 0.  0.
         23    2    1    2    0    0 -0.15107450471E+03 -0.44902134239E+02  0.84989556493E+02  0.20017115787E+03  0.89473795603E+02 0.  0.
        -11    1    4    4    0    0 -0.63907089124E+02 -0.63441492490E+02  0.27642450519E+02  0.94196836892E+02  0.00000000000E+00 0. -1.
         11    1    4    4    0    0 -0.87167415584E+02  0.18539358252E+02  0.57347105975E+02  0.10597432098E+03  0.00000000000E+00 0.  1.
        -11    1    3    3    0    0  0.27887853550E+02  0.34830875100E+02  0.30968695669E+02  0.54313739949E+02  0.00000000000E+00 0. -1.
         11    1    3    3    0    0  0.41588911756E+02 -0.55021001226E+02  0.14976198663E+02  0.70577862559E+02  0.00000000000E+00 0.  1.
         21    1    1    2  503  502 -0.19360991021E+02 -0.16117173767E+02  0.87825905328E+02  0.91367395225E+02  0.00000000000E+00 0. -1.
          2    1    1    2  501    0  0.10095873042E+03  0.81209434132E+02  0.19040985165E+03  0.23031185172E+03  0.00000000000E+00 0. -1.
<scales pt_clust_5="13000.00000" pt_clust_6="13000.00000" pt_clust_7="13000.00000" pt_clust_8="13000.00000" pt_clust_9="25.19149" pt_clust_10="13000.00000"></scales>
<clustering>
<clus scale="   25.191">  1  9  2 -1</clus>
<clus scale="   89.474">  5  6 -1 -1</clus>
<clus scale="   90.842">  7  8 -1 -1</clus>
<clus scale="  114.515">  2  7  1 -1</clus>
<clus scale="  126.220">  5 10 -1 -1</clus>
<clus scale="   25.191">  1  5  2 -1</clus>
</clustering>
</event>
<event>
10    2  0.5921424E-006  0.2335184E+03  0.7546771E-02  0.1164112E+00
         21   -1    0    0  501  502  0.00000000000E+00  0.00000000000E+00  0.75930290329E+02  0.75930290329E+02  0.00000000000E+00 0.  1.
          1   -1    0    0  503    0 -0.00000000000E+00 -0.00000000000E+00 -0.76366339986E+03  0.76366339986E+03  0.00000000000E+00 0. -1.
         23    2    1    2    0    0 -0.14522103365E+02  0.75583716894E+02 -0.39394552090E+02  0.11854776887E+03  0.81103964291E+02 0.  0.
         23    2    1    2    0    0 -0.55541726568E+02  0.24079236205E+01 -0.40991989115E+03  0.42347253077E+03  0.90575855853E+02 0.  0.
        -11    1    3    3    0    0  0.43984350753E+01  0.36449266258E+02  0.22391375764E+02  0.43003127217E+02  0.00000000000E+00 0.  1.
         11    1    3    3    0    0 -0.18920538441E+02  0.39134450636E+02 -0.61785927854E+02  0.75544641652E+02  0.00000000000E+00 0. -1.
        -13    1    4    4    0    0  0.19162438361E+02 -0.18509384079E+02 -0.14501504106E+03  0.14744205125E+03  0.00000000000E+00 0.  1.
         13    1    4    4    0    0 -0.74704164929E+02  0.20917307700E+02 -0.26490485010E+03  0.27603047952E+03  0.00000000000E+00 0. -1.
         21    1    1    2  503  502  0.32757543211E+02 -0.66492184545E+02 -0.24676118360E+03  0.25765354446E+03  0.00000000000E+00 0. -1.
          1    1    1    2  501    0  0.37306286722E+02 -0.11499455969E+02  0.83425173152E+01  0.39919846088E+02  0.00000000000E+00 0. -1.
<scales pt_clust_5="13000.00000" pt_clust_6="13000.00000" pt_clust_7="13000.00000" pt_clust_8="13000.00000" pt_clust_9="74.12336" pt_clust_10="13000.00000"></scales>
<clustering>
<clus scale="   74.123">  1  9  2 -1</clus>
<clus scale="   81.104">  5  6 -1 -1</clus>
<clus scale="   89.754">  2  5  1 -1</clus>
<clus scale="   90.576">  7  8 -1 -1</clus>
<clus scale="   55.639">  7 10 -1 -1</clus>
<clus scale="   74.123">  1  5  2 -1</clus>
</clustering>
</event>
<event>
10    2  0.5921424E-006  0.2989314E+03  0.7546771E-02  0.1129767E+00
          1   -1    0    0  503    0 -0.00000000000E+00  0.00000000000E+00  0.68797952125E+03  0.68797952125E+03  0.00000000000E+00 0. -1.
         21   -1    0    0  501  502  0.00000000000E+00 -0.00000000000E+00 -0.14391976570E+03  0.14391976570E+03  0.00000000000E+00 0. -1.
         23    2    1    2    0    0  0.84357510532E+01 -0.31260911116E+02  0.29203058820E+03  0.30764103721E+03  0.91174211659E+02 0.  0.
         23    2    1    2    0    0  0.13195977424E+02  0.64074005670E+02  0.37443776943E+03  0.39132397745E+03  0.93011827917E+02 0.  0.
        -11    1    4    4    0    0  0.34474009642E+02  0.77892116321E+02  0.24397627040E+03  0.25841838101E+03  0.00000000000E+00 0.  1.
         11    1    4    4    0    0 -0.21278032217E+02 -0.13818110651E+02  0.13046149903E+03  0.13290559645E+03  0.00000000000E+00 0. -1.
        -13    1    3    3    0    0 -0.21364600288E+02 -0.53881508236E+02  0.20185638115E+03  0.21001347977E+03  0.00000000000E+00 0.  1.
         13    1    3    3    0    0  0.29800351341E+02  0.22620597120E+02  0.90174207052E+02  0.97627557439E+02  0.00000000000E+00 0. -1.
         21    1    1    2  503  502 -0.27638246070E+02 -0.12023262439E+02 -0.74439862346E+02  0.80310177385E+02  0.00000000000E+00 0. -1.
          1    1    1    2  501    0  0.60065175929E+01 -0.20789832115E+02 -0.47968739735E+02  0.52624094907E+02  0.00000000000E+00 0. -1.
<scales pt_clust_5="13000.00000" pt_clust_6="13000.00000" pt_clust_7="13000.00000" pt_clust_8="13000.00000" pt_clust_9="30.14020" pt_clust_10="13000.00000"></scales>
<clustering>
<clus scale="   30.140">  2  9  1 -1</clus>
<clus scale="   91.174">  7  8 -1 -1</clus>
<clus scale="   93.012">  5  6 -1 -1</clus>
<clus scale="   33.379">  5 10 -1 -1</clus>
<clus scale="   96.990">  1  7  2 -1</clus>
<clus scale="   30.140">  2  5  1 -1</clus>
</clustering>
</event>
<event>
10    2  0.5921424E-006  0.2422507E+03  0.7546771E-02  0.1143184E+00
          2   -1    0    0  503    0 -0.00000000000E+00  0.00000000000E+00  0.39240564545E+03  0.39240564545E+03  0.00000000000E+00 0. -1.
         21   -1    0    0  501  502  0.00000000000E+00 -0.00000000000E+00 -0.14606066643E+03  0.14606066643E+03  0.00000000000E+00 0. -1.
         23    2    1    2    0    0 -0.53589508061E+02  0.68971090459E+02  0.11597148028E+03  0.17136396591E+03  0.91035036556E+02 0.  0.
         23    2    1    2    0    0  0.13841179218E+02 -0.27052529485E+02  0.20292478390E+03  0.22396087726E+03  0.89758503942E+02 0.  0.
        -11    1    4    4    0    0  0.34928118403E+02  0.21771253341E+02  0.78170564036E+02  0.88343635927E+02  0.00000000000E+00 0.  1.
         11    1    4    4    0    0 -0.21086939185E+02 -0.48823782825E+02  0.12475421987E+03  0.13561724134E+03  0.00000000000E+00 0. -1.
        -13    1    3    3    0    0 -0.29421744780E+02  0.51263513827E+02  0.84028718544E+01  0.59700880825E+02  0.00000000000E+00 0. -1.
         13    1    3    3    0    0 -0.24167763281E+02  0.17707576632E+02  0.10756860843E+03  0.11166308509E+03  0.00000000000E+00 0.  1.
         21    1    1    2  503  502 -0.12104372712E+02  0.22507495448E+02 -0.51976997453E+02  0.57919870980E+02  0.00000000000E+00 0. -1.
          2    1    1    2  501    0  0.51852701556E+02 -0.64426056423E+02 -0.20574287700E+02  0.85221597727E+02  0.00000000000E+00 0. -1.
<scales pt_clust_5="13000.00000" pt_clust_6="13000.00000" pt_clust_7="13000.00000" pt_clust_8="13000.00000" pt_clust_9="25.55588" pt_clust_10="13000.00000"></scales>
<clustering>
<clus scale="   25.556">  2  9  1 -1</clus>
<clus scale="   89.759">  5  6 -1 -1</clus>
<clus scale="   68.169">  5 10 -1 -1</clus>
<clus scale="   91.035">  7  8 -1 -1</clus>
<clus scale="  131.585">  1  7  2 -1</clus>
<clus scale="   25.556">  2  5  1 -1</clus>
</clustering>
</event>
<event>
10    2  0.5921424E-006  0.1873036E+03  0.7546771E-02  0.1181467E+00
          1   -1    0    0  503    0 -0.00000000000E+00  0.00000000000E+00  0.28639466683E+03  0.28639466683E+03  0.00000000000E+00 0. -1.
         21   -1    0    0  501  502  0.00000000000E+00 -0.00000000000E+00 -0.15564519251E+03  0.15564519251E+03  0.00000000000E+00 0.  1.
         23    2    1    2    0    0  0.34837029395E+02  0.61170919207E+02  0.14393385019E+03  0.18387453776E+03  0.90207496528E+02 0.  0.
         23    2    1    2    0    0 -0.74477494578E+01 -0.42419634671E+02  0.83879177228E+02  0.13176616445E+03  0.92041899938E+02 0.  0.
        -13    1    4    4    0    0 -0.49005125381E+02 -0.16563061619E+02  0.34108789172E+02  0.61961656067E+02  0.00000000000E+00 0. -1.
         13    1    4    4    0    0  0.41557375923E+02 -0.25856573053E+02  0.49770388056E+02  0.69804508385E+02  0.00000000000E+00 0.  1.
        -13    1    3    3    0    0  0.19732065455E+02  0.81835535752E+02  0.85040057972E+02  0.11965876808E+03  0.00000000000E+00 0.  1.
         13    1    3    3    0    0  0.15104963940E+02 -0.20664616546E+02  0.58893792222E+02  0.64215769674E+02  0.00000000000E+00 0. -1.
         21    1    1    2  503  502  0.69090599061E+01  0.20954810169E+02 -0.54635279913E+02  0.58922431969E+02  0.00000000000E+00 0.  1.
          1    1    1    2  501    0 -0.34298339844E+02 -0.39706094704E+02 -0.42428273191E+02  0.67476725162E+02  0.00000000000E+00 0. -1.
<scales pt_clust_5="13000.00000" pt_clust_6="13000.00000" pt_clust_7="13000.00000" pt_clust_8="13000.00000" pt_clust_9="22.06443" pt_clust_10="13000.00000"></scales>
<clustering>
<clus scale="   22.064">  2  9  1 -1</clus>
<clus scale="   90.207">  7  8 -1 -1</clus>
<clus scale="   92.042">  5  6 -1 -1</clus>
<clus scale="   41.413">  5 10 -1 -1</clus>
<clus scale="  117.166">  1  7  2 -1</clus>
<clus scale="   22.064">  2  5  1 -1</clus>
</clustering>
</event>
<event>
10    2  0.5921424E-006  0.5785422E+03  0.7546771E-02  0.1011063E+00
         -1   -1    0    0    0  501 -0.00000000000E+00  0.00000000000E+00  0.12374749819E+04  0.12374749819E+04  0.00000000000E+00 0.  1.
         21   -1    0    0  503  502  0.00000000000E+00 -0.00000000000E+00 -0.15053634473E+04  0.15053634473E+04  0.00000000000E+00 0. -1.
         23    2    1    2    0    0  0.34406060012E+03  0.18547836856E+02  0.10755864832E+04  0.11330471268E+04  0.90486406381E+02 0.  0.
         23    2    1    2    0    0 -0.36395126569E+03 -0.32558640384E+02 -0.25069041131E+03  0.45237081398E+03  0.90956484936E+02 0.  0.
        -11    1    3    3    0    0  0.96376225972E+02  0.46095424082E+02  0.30559348510E+03  0.32372912008E+03  0.00000000000E+00 0. -1.
         11    1    3    3    0    0  0.24768437415E+03 -0.27547587226E+02  0.76999299815E+03  0.80931800670E+03  0.00000000000E+00 0.  1.
        -13    1    4    4    0    0 -0.22009320428E+03 -0.63984656374E+02 -0.15768423473E+03  0.27820742748E+03  0.00000000000E+00 0. -1.
         13    1    4    4    0    0 -0.14385806141E+03  0.31426015991E+02 -0.93006176580E+02  0.17416338650E+03  0.00000000000E+00 0.  1.
         21    1    1    2  503  501 -0.11552270407E+03  0.67688742436E+02 -0.92747788246E+03  0.93709256931E+03  0.00000000000E+00 0. -1.
         -1    1    1    2    0  502  0.13541336964E+03 -0.53677938908E+02 -0.16530665490E+03  0.22032791915E+03  0.00000000000E+00 0.  1.
<scales pt_clust_5="13000.00000" pt_clust_6="13000.00000" pt_clust_7="13000.00000" pt_clust_8="13000.00000" pt_clust_9="133.89272" pt_clust_10="13000.00000"></scales>
<clustering>
<clus scale="   90.486">  5  6 -1 -1</clus>
<clus scale="   90.956">  7  8 -1 -1</clus>
<clus scale="  133.893">  2  9  1 -1</clus>
<clus scale="  101.370">  7 10 -1 -1</clus>
<clus scale="  350.849">  1  5  2 -1</clus>
<clus scale="  133.893">  2  5  1 -1</clus>
</clustering>
</event>
<event>
10    2  0.5921424E-006  0.4187749E+03  0.7546771E-02  0.1072007E+00
          1   -1    0    0  503    0 -0.00000000000E+00  0.00000000000E+00  0.26653732378E+03  0.26653732378E+03  0.00000000000E+00 0. -1.
         21   -1    0    0  501  502  0.00000000000E+00 -0.00000000000E+00 -0.46813720864E+03  0.46813720864E+03  0.00000000000E+00 0.  1.
         23    2    1    2    0    0  0.64720748167E+02  0.94946272597E+02 -0.24441330597E+02  0.15283986759E+03  0.97770530115E+02 0.  0.
         23    2    1    2    0    0 -0.22481926263E+03  0.31866519771E+02  0.19155528644E+02  0.24600839148E+03  0.92703929113E+02 0.  0.
        -11    1    4    4    0    0 -0.68088270448E+02  0.34953778635E+02 -0.29263330185E+02  0.81939744367E+02  0.00000000000E+00 0. -1.
         11    1    4    4    0    0 -0.15673099218E+03 -0.30872588643E+01  0.48418858829E+02  0.16406864712E+03  0.00000000000E+00 0.  1.
        -13    1    3    3    0    0  0.34775925595E+02  0.17553308860E+02  0.33704716715E+02  0.51512052781E+02  0.00000000000E+00 0.  1.
         13    1    3    3    0    0  0.29944822573E+02  0.77392963737E+02 -0.58146047313E+02  0.10132781480E+03  0.00000000000E+00 0. -1.
         21    1    1    2  503  502  0.45408952845E+02  0.56153625763E+01 -0.14681475493E+03  0.15377931448E+03  0.00000000000E+00 0.  1.
          1    1    1    2  501    0  0.11468956161E+03 -0.13242815494E+03 -0.49499327970E+02  0.18204695887E+03  0.00000000000E+00 0. -1.
<scales pt_clust_5="13000.00000" pt_clust_6="13000.00000" pt_clust_7="13000.00000" pt_clust_8="13000.00000" pt_clust_9="45.75484" pt_clust_10="13000.00000"></scales>
<clustering>
<clus scale="   45.755">  2  9  1 -1</clus>
<clus scale="   92.704">  5  6 -1 -1</clus>
<clus scale="   97.771">  7  8 -1 -1</clus>
<clus scale="  157.677">  1  7  2 -1</clus>
<clus scale="  186.144">  5 10 -1 -1</clus>
<clus scale="   45.755">  2  5  1 -1</clus>
</clustering>
</event>
<event>
10    2  0.5921424E-006  0.2032454E+03  0.7546771E-02  0.1158972E+00
          2   -1    0    0  502    0 -0.00000000000E+00  0.00000000000E+00  0.64976929674E+03  0.64976929674E+03  0.00000000000E+00 0. -1.
         21   -1    0    0  503  502  0.00000000000E+00 -0.00000000000E+00 -0.64341870994E+02  0.64341870994E+02  0.00000000000E+00 0.  1.
         23    2    1    2    0    0  0.72619804553E+02 -0.10007388537E+03  0.19595154996E+03  0.24686497549E+03  0.85187367869E+02 0.  0.
         23    2    1    2    0    0 -0.12717689235E+00  0.58128178365E+02  0.18936195747E+03  0.21735014260E+03  0.89466375011E+02 0.  0.
        -11    1    4    4    0    0  0.74063823785E+01 -0.22674234049E+02  0.60866719817E+02  0.65373794222E+02  0.00000000000E+00 0.  1.
         11    1    4    4    0    0 -0.75335592709E+01  0.80802412414E+02  0.12849523765E+03  0.15197634838E+03  0.00000000000E+00 0. -1.
        -13    1    3    3    0    0  0.43785834718E+01 -0.76413996060E+02  0.11748467420E+03  0.14021740070E+03  0.00000000000E+00 0. -1.
         13    1    3    3    0    0  0.68241221081E+02 -0.23659889312E+02  0.78466875764E+02  0.10664757479E+03  0.00000000000E+00 0.  1.
         21    1    1    2  503  501  0.19349870518E+02  0.52900676993E+01 -0.62929398922E+01  0.21023876850E+02  0.00000000000E+00 0.  1.
          2    1    1    2  501    0 -0.91842498179E+02  0.36655639308E+02  0.20640685821E+03  0.22887217280E+03  0.00000000000E+00 0. -1.
<scales pt_clust_5="13000.00000" pt_clust_6="13000.00000" pt_clust_7="13000.00000" pt_clust_8="13000.00000" pt_clust_9="20.05997" pt_clust_10="13000.00000"></scales>
<clustering>
<clus scale="   20.060">  2  9  1 -1</clus>
<clus scale="   85.187">  7  8 -1 -1</clus>
<clus scale="   89.466">  5  6 -1 -1</clus>
<clus scale="   95.377">  5 10 -1 -1</clus>
<clus scale="  153.384">  1  7  2 -1</clus>
<clus scale="   20.060">  2  5  1 -1</clus>
</clustering>
</event>
<event>
10    2  0.5921424E-006  0.2102986E+03  0.7546771E-02  0.1171708E+00
          1   -1    0    0  503    0 -0.00000000000E+00  0.00000000000E+00  0.96048721890E+02  0.96048721890E+02  0.00000000000E+00 0. -1.
         21   -1    0    0  501  502  0.00000000000E+00 -0.00000000000E+00 -0.48188782260E+03  0.48188782260E+03  0.00000000000E+00 0.  1.
         23    2    1    2    0    0  0.48434526832E+01  0.45447461921E+02 -0.18537515655E+03  0.21195041216E+03  0.92033133825E+02 0.  0.
         23    2    1    2    0    0  0.36927008778E+02 -0.92457195083E+01  0.45091663799E+02  0.10941519000E+03  0.92137605521E+02 0.  0.
        -11    1    4    4    0    0 -0.23861130751E+02  0.15565879540E+02 -0.20868296040E+01  0.28565801658E+02  0.00000000000E+00 0.  1.
         11    1    4    4    0    0  0.60788139529E+02 -0.24811599049E+02  0.47178493403E+02  0.80849388338E+02  0.00000000000E+00 0. -1.
        -11    1    3    3    0    0 -0.34038236715E+02 -0.95739724820E+01 -0.61600337307E+02  0.71027206507E+02  0.00000000000E+00 0. -1.
         11    1    3    3    0    0  0.38881689398E+02  0.55021434403E+02 -0.12377481924E+03  0.14092320565E+03  0.00000000000E+00 0.  1.
         21    1    1    2  503  502 -0.43513019409E+02 -0.59252274249E+01 -0.13771354466E+03  0.14454588047E+03  0.00000000000E+00 0. -1.
          1    1    1    2  501    0  0.17425579479E+01 -0.30276514988E+02 -0.10784206330E+03  0.11202506186E+03  0.00000000000E+00 0. -1.
<scales pt_clust_5="13000.00000" pt_clust_6="13000.00000" pt_clust_7="13000.00000" pt_clust_8="13000.00000" pt_clust_9="43.91459" pt_clust_10="13000.00000"></scales>
<clustering>
<clus scale="   43.915">  2  9  1 -1</clus>
<clus scale="   92.033">  7  8 -1 -1</clus>
<clus scale="   92.138">  5  6 -1 -1</clus>
<clus scale="   34.456">  5 10 -1 -1</clus>
<clus scale="  103.222">  1  7  2 -1</clus>
<clus scale="   43.915">  2  5  1 -1</clus>
</clustering>
</event>
<event>
10    2  0.5921424E-006  0.2342725E+03  0.7546771E-02  0.1126223E+00
         21   -1    0    0  503  502  0.00000000000E+00  0.00000000000E+00  0.59527506082E+03  0.59527506082E+03  0.00000000000E+00 0.  1.
         -2   -1    0    0    0  501 -0.00000000000E+00 -0.00000000000E+00 -0.13713144791E+03  0.13713144791E+03  0.00000000000E+00 0.  1.
         23    2    1    2    0    0 -0.26397387796E+02  0.16962397358E+03  0.16318099147E+03  0.25337367150E+03  0.90005927246E+02 0.  0.
         23    2    1    2    0    0  0.27378633087E+02 -0.11866349158E+03  0.61597500872E+02  0.16334599798E+03  0.89761067041E+02 0.  0.
        -13    1    4    4    0    0  0.54092525855E+02 -0.75073139513E+02  0.14169463521E+02  0.93609568561E+02  0.00000000000E+00 0. -1.
         13    1    4    4    0    0 -0.26713892768E+02 -0.43590352072E+02  0.47428037352E+02  0.69736429415E+02  0.00000000000E+00 0.  1.
        -13    1    3    3    0    0  0.46795762054E+01  0.98454829290E+02  0.14204014139E+03  0.17288913676E+03  0.00000000000E+00 0.  1.
         13    1    3    3    0    0 -0.31076964002E+02  0.71169144289E+02  0.21140850076E+02  0.80484534740E+02  0.00000000000E+00 0. -1.
         21    1    1    2  503  501 -0.87295372469E+01  0.54275129694E+02  0.19629017737E+03  0.20384265563E+03  0.00000000000E+00 0. -1.
         -2    1    1    2    0  502  0.77482919559E+01 -0.10523561169E+03  0.37074943200E+02  0.11184418362E+03  0.00000000000E+00 0.  1.
<scales pt_clust_5="13000.00000" pt_clust_6="13000.00000" pt_clust_7="13000.00000" pt_clust_8="13000.00000" pt_clust_9="54.97267" pt_clust_10="13000.00000"></scales>
<clustering>
<clus scale="   54.973">  1  9  2 -1</clus>
<clus scale="   89.761">  5  6 -1 -1</clus>
<clus scale="   90.006">  7  8 -1 -1</clus>
<clus scale="   95.206">  5 10 -1 -1</clus>
<clus scale="  219.900">  2  7  1 -1</clus>
<clus scale="   54.973">  1  5  2 -1</clus>
</clustering>
</event>
<event>
10    2  0.5921424E-006  0.2000378E+03  0.7546771E-02  0.1158721E+00
         21   -1    0    0  501  502  0.00000000000E+00  0.00000000000E+00  0.53719737216E+02  0.53719737216E+02  0.00000000000E+00 0. -1.
          1   -1    0    0  503    0 -0.00000000000E+00 -0.00000000000E+00 -0.80454438467E+03  0.80454438467E+03  0.00000000000E+00 0. -1.
         23    2    1    2    0    0  0.87947966344E+02 -0.81875037673E+02 -0.17730617515E+03  0.23316661381E+03  0.92145664428E+02 0.  0.
         23    2    1    2    0    0 -0.38598169313E+02  0.17445545476E+02 -0.29441882183E+03  0.31140675270E+03  0.92182195941E+02 0.  0.
        -13    1    3    3    0    0  0.34089471267E+02  0.40344922072E+01 -0.71103732262E+01  0.35056049207E+02  0.00000000000E+00 0.  1.
         13    1    3    3    0    0  0.53858495078E+02 -0.85909529880E+02 -0.17019580192E+03  0.19811056460E+03  0.00000000000E+00 0. -1.
        -13    1    4    4    0    0 -0.68526890009E+02  0.42530242015E+01 -0.19348149614E+03  0.20530248956E+03  0.00000000000E+00 0.  1.
         13    1    4    4    0    0  0.29928720696E+02  0.13192521274E+02 -0.10093732569E+03  0.10610426314E+03  0.00000000000E+00 0. -1.
         21    1    1    2  503  502  0.75042089718E+01 -0.22731152548E+02 -0.11475842532E+02  0.26546438749E+02  0.00000000000E+00 0. -1.
          1    1    1    2  501    0 -0.56854006003E+02  0.87160644745E+02 -0.26762380795E+03  0.28714431663E+03  0.00000000000E+00 0. -1.
<scales pt_clust_5="13000.00000" pt_clust_6="13000.00000" pt_clust_7="13000.00000" pt_clust_8="13000.00000" pt_clust_9="23.93780" pt_clust_10="13000.00000"></scales>
<clustering>
<clus scale="   23.938">  1  9  2 -1</clus>
<clus scale="   92.146">  5  6 -1 -1</clus>
<clus scale="   92.182">  7  8 -1 -1</clus>
<clus scale="   99.183">  7 10 -1 -1</clus>
<clus scale="  161.827">  2  5  1 -1</clus>
<clus scale="   23.938">  1  5  2 -1</clus>
</clustering>
</event>
<event>
10    2  0.5921424E-006  0.2293164E+03  0.7546771E-02  0.1162684E+00
         21   -1    0    0  501  502  0.00000000000E+00  0.00000000000E+00  0.98799363361E+02  0.98799363361E+02  0.00000000000E+00 0. -1.
          1   -1    0    0  503    0 -0.00000000000E+00 -0.00000000000E+00 -0.60412816295E+03  0.60412816295E+03  0.00000000000E+00 0. -1.
         23    2    1    2    0    0 -0.11242451922E+02 -0.30185159678E+02 -0.94967110268E+02  0.13643789257E+03  0.92514917206E+02 0.  0.
         23    2    1    2    0    0  0.31757779978E+02  0.28770007726E+02 -0.88230716709E+02  0.13580091478E+03  0.93919961410E+02 0.  0.
        -11    1    4    4    0    0 -0.18907673226E+02  0.14127311592E+02 -0.78757186062E+02  0.82217853268E+02  0.00000000000E+00 0.  1.
         11    1    4    4    0    0  0.50665453204E+02  0.14642696133E+02 -0.94735306474E+01  0.53583061515E+02  0.00000000000E+00 0. -1.
        -13    1    3    3    0    0 -0.52039251120E+02 -0.16704183615E+02 -0.58775881352E+02  0.80260311712E+02  0.00000000000E+00 0.  1.
         13    1    3    3    0    0  0.40796799197E+02 -0.13480976063E+02 -0.36191228916E+02  0.56177580856E+02  0.00000000000E+00 0. -1.
         21    1    1    2  503  502 -0.17791037540E+02 -0.13497301479E+03 -0.22588245442E+03  0.26373683655E+03  0.00000000000E+00 0. -1.
          1    1    1    2  501    0 -0.27242905160E+01  0.13638816674E+03 -0.96248518194E+02  0.16695188241E+03  0.00000000000E+00 0. -1.
<scales pt_clust_5="13000.00000" pt_clust_6="13000.00000" pt_clust_7="13000.00000" pt_clust_8="13000.00000" pt_clust_9="151.91957" pt_clust_10="13000.00000"></scales>
<clustering>
<clus scale="   92.515">  7  8 -1 -1</clus>
<clus scale="   93.920">  5  6 -1 -1</clus>
<clus scale="   97.962">  2  7  1 -1</clus>
<clus scale="  128.384">  5 10 -1 -1</clus>
<clus scale="  151.920">  1  9  2 -1</clus>
<clus scale="  151.920">  1  5  2 -1</clus>
</clustering>
</event>
<event>
10    2  0.5921424E-006  0.1433868E+03  0.7546771E-02  0.1218349E+00
          2   -1    0    0  503    0 -0.00000000000E+00  0.00000000000E+00  0.70208911117E+03  0.70208911117E+03  0.00000000000E+00 0. -1.
         21   -1    0    0  501  502  0.00000000000E+00 -0.00000000000E+00 -0.11569058071E+03  0.11569058071E+03  0.00000000000E+00 0.  1.
         23    2    1    2    0    0 -0.75769451355E+02 -0.22292037428E+02  0.39498973562E+03  0.41314691534E+03  0.91845183449E+02 0.  0.
         23    2    1    2    0    0  0.63884995378E+02  0.26514426910E+02  0.25294462921E+03  0.27746713553E+03  0.90679205921E+02 0.  0.
        -11    1    3    3    0    0 -0.15534100694E+02 -0.45162837373E+02  0.95162119851E+02  0.10647450032E+03  0.00000000000E+00 0.  1.
         11    1    3    3    0    0 -0.60235350661E+02  0.22870799945E+02  0.29982761577E+03  0.30667241502E+03  0.00000000000E+00 0. -1.
        -11    1    4    4    0    0  0.85370321640E+02  0.33063295538E+02  0.20021861515E+03  0.22015623357E+03  0.00000000000E+00 0.  1.
         11    1    4    4    0    0 -0.21485326262E+02 -0.65488686282E+01  0.52726014060E+02  0.57310901961E+02  0.00000000000E+00 0. -1.
         21    1    1    2  503  502  0.13162669607E+02  0.17945970117E+02 -0.89061393751E+02  0.91800030345E+02  0.00000000000E+00 0.  1.
          2    1    1    2  501    0 -0.12782136299E+01 -0.22168359599E+02  0.27525559389E+02  0.35365610656E+02  0.00000000000E+00 0. -1.
<scales pt_clust_5="13000.00000" pt_clust_6="13000.00000" pt_clust_7="13000.00000" pt_clust_8="13000.00000" pt_clust_9="22.25564" pt_clust_10="13000.00000"></scales>
<clustering>
<clus scale="   22.256">  2  9  1 -1</clus>
<clus scale="   90.679">  7  8 -1 -1</clus>
<clus scale="   19.398">  7 10 -1 -1</clus>
<clus scale="   91.845">  5  6 -1 -1</clus>
<clus scale="  117.188">  1  5  2 -1</clus>
<clus scale="   22.256">  2  5  1 -1</clus>
</clustering>
</event>
<event>
10    2  0.5921424E-006  0.1221831E+03  0.7546771E-02  0.1252603E+00
          1   -1    0    0  503    0 -0.00000000000E+00  0.00000000000E+00  0.19047868087E+03  0.19047868087E+03  0.00000000000E+00 0. -1.
         21   -1    0    0  501  502  0.00000000000E+00 -0.00000000000E+00 -0.25093385683E+03  0.25093385683E+03  0.00000000000E+00 0.  1.
         23    2    1    2    0    0 -0.24695593870E+01 -0.15227422651E+02  0.13490262382E+03  0.16478819666E+03  0.93372687221E+02 0.  0.
         23    2    1    2    0    0 -0.18092149927E+02 -0.21724300213E+02 -0.66492114580E+02  0.11670536699E+03  0.91649715074E+02 0.  0.
        -11    1    3    3    0    0  0.13720417037E+02  0.23074794513E+02  0.36340240602E+01  0.27090627833E+02  0.00000000000E+00 0.  1.
         11    1    3    3    0    0 -0.16189976424E+02 -0.38302217164E+02  0.13126859976E+03  0.13769756883E+03  0.00000000000E+00 0. -1.
        -13    1    4    4    0    0  0.24409250838E+02  0.12137261556E+00  0.10109487219E+02  0.26420219333E+02  0.00000000000E+00 0.  1.
         13    1    4    4    0    0 -0.42501400765E+02 -0.21845672828E+02 -0.76601601800E+02  0.90285147652E+02  0.00000000000E+00 0. -1.
         21    1    1    2  503  502  0.30751083784E+02  0.56370358550E+02 -0.60884465433E+02  0.88488217340E+02  0.00000000000E+00 0.  1.
          1    1    1    2  501    0 -0.10189374470E+02 -0.19418635687E+02 -0.67981219773E+02  0.71430756722E+02  0.00000000000E+00 0. -1.
<scales pt_clust_5="13000.00000" pt_clust_6="13000.00000" pt_clust_7="13000.00000" pt_clust_8="13000.00000" pt_clust_9="64.21251" pt_clust_10="13000.00000"></scales>
<clustering>
<clus scale="   64.213">  2  9  1 -1</clus>
<clus scale="   91.650">  7  8 -1 -1</clus>
<clus scale="    3.487">  7 10 -1 -1</clus>
<clus scale="   93.373">  5  6 -1 -1</clus>
<clus scale="   93.956">  1  5  2 -1</clus>
<clus scale="   64.213">  2  5  1 -1</clus>
</clustering>
</event>
<event>
10    2  0.5921424E-006  0.8084599E+03  0.7546771E-02  0.9938530E-01
          1   -1    0    0  503    0 -0.00000000000E+00  0.00000000000E+00  0.10982562027E+04  0.10982562027E+04  0.00000000000E+00 0. -1.
         21   -1    0    0  501  502  0.00000000000E+00 -0.00000000000E+00 -0.60125286962E+03  0.60125286962E+03  0.00000000000E+00 0. -1.
         23    2    1    2    0    0 -0.11315470880E+02  0.18102204796E+03  0.70009220327E+02  0.21552869150E+03  0.93028512849E+02 0.  0.
         23    2    1    2    0    0  0.30443192406E+03  0.26409951858E+02  0.60272195596E+03  0.68208379105E+03  0.92672864845E+02 0.  0.
        -11    1    4    4    0    0  0.21696231962E+03 -0.23477287256E+02  0.39639762489E+03  0.45249851731E+03  0.00000000000E+00 0. -1.
         11    1    4    4    0    0  0.87469604437E+02  0.49887239114E+02  0.20632433107E+03  0.22958527374E+03  0.00000000000E+00 0.  1.
        -13    1    3    3    0    0 -0.38334890864E+02  0.26567560728E+02  0.10445371424E+02  0.47796494900E+02  0.00000000000E+00 0.  1.
         13    1    3    3    0    0  0.27019419984E+02  0.15445448723E+03  0.59563848903E+02  0.16773219660E+03  0.00000000000E+00 0. -1.
         21    1    1    2  503  502  0.16825847465E+02  0.64780198059E+02 -0.34835285075E+03  0.35472424759E+03  0.00000000000E+00 0. -1.
          1    1    1    2  501    0 -0.30994230064E+03 -0.27221219787E+03  0.17262500759E+03  0.44717234222E+03  0.00000000000E+00 0. -1.
<scales pt_clust_5="13000.00000" pt_clust_6="13000.00000" pt_clust_7="13000.00000" pt_clust_8="13000.00000" pt_clust_9="66.92969" pt_clust_10="13000.00000"></scales>
<clustering>
<clus scale="   66.930">  2  9  1 -1</clus>
<clus scale="   92.673">  5  6 -1 -1</clus>
<clus scale="   93.029">  7  8 -1 -1</clus>
<clus scale="  220.577">  1  7  2 -1</clus>
<clus scale="  351.257">  5 10 -1 -1</clus>
<clus scale="   66.930">  2  5  1 -1</clus>
</clustering>
</event>
<event>
10    2  0.5921424E-006  0.2095429E+03  0.7546771E-02  0.1160209E+00
         21   -1    0    0  503  502  0.00000000000E+00  0.00000000000E+00  0.26982826301E+03  0.26982826301E+03  0.00000000000E+00 0.  1.
          1   -1    0    0  502    0 -0.00000000000E+00 -0.00000000000E+00 -0.10804626884E+04  0.10804626884E+04  0.00000000000E+00 0. -1.
         23    2    1    2    0    0  0.65224657693E+01  0.82295978473E+02 -0.43519748525E+03  0.45123514672E+03  0.86029854311E+02 0.  0.
         23    2    1    2    0    0  0.25584477666E+02 -0.20970042704E+03 -0.54340916734E+03  0.58997255335E+03  0.90251071817E+02 0.  0.
        -11    1    4    4    0    0  0.44492209608E+02 -0.63572749297E+02 -0.13386174458E+03  0.15472562112E+03  0.00000000000E+00 0.  1.
         11    1    4    4    0    0 -0.18907731942E+02 -0.14612767774E+03 -0.40954742276E+03  0.43524693224E+03  0.00000000000E+00 0. -1.
        -13    1    3    3    0    0 -0.24872755034E+02  0.12087388136E+02 -0.40031862255E+02  0.48654998618E+02  0.00000000000E+00 0.  1.
         13    1    3    3    0    0  0.31395220804E+02  0.70208590337E+02 -0.39516562300E+03  0.40258014810E+03  0.00000000000E+00 0. -1.
         21    1    1    2  503  501 -0.34606893874E+02  0.99443325057E+02  0.22338990276E+03  0.24696084843E+03  0.00000000000E+00 0.  1.
          1    1    1    2  501    0  0.24999504381E+01  0.27961123510E+02 -0.55417675571E+02  0.62122402930E+02  0.00000000000E+00 0. -1.
<scales pt_clust_5="13000.00000" pt_clust_6="13000.00000" pt_clust_7="13000.00000" pt_clust_8="13000.00000" pt_clust_9="105.29298" pt_clust_10="13000.00000"></scales>
<clustering>
<clus scale="   86.030">  7  8 -1 -1</clus>
<clus scale="   90.251">  5  6 -1 -1</clus>
<clus scale="   28.073">  5 10 -1 -1</clus>
<clus scale="  105.293">  1  9  2 -1</clus>
<clus scale="  135.989">  2  7  1 -1</clus>
<clus scale="  105.293">  1  5  2 -1</clus>
</clustering>
</event>
<event>
10    2  0.5921424E-006  0.3110921E+03  0.7546771E-02  0.1123288E+00
         21   -1    0    0  503  502  0.00000000000E+00  0.00000000000E+00  0.10819816948E+03  0.10819816948E+03  0.00000000000E+00 0.  1.
         -2   -1    0    0    0  501 -0.00000000000E+00 -0.00000000000E+00 -0.52512693123E+03  0.52512693123E+03  0.00000000000E+00 0.  1.
         23    2    1    2    0    0 -0.13955985423E+02  0.51050742311E+02 -0.22977947628E+03  0.25152824553E+03  0.87560851763E+02 0.  0.
         23    2    1    2    0    0 -0.19289623624E+02 -0.48530013739E+02 -0.25433344439E+03  0.27599551147E+03  0.93598982920E+02 0.  0.
        -11    1    4    4    0    0  0.36635422441E+02 -0.28370369280E+02 -0.13386588173E+03  0.14165841423E+03  0.00000000000E+00 0. -1.
         11    1    4    4    0    0 -0.55925046065E+02 -0.20159644459E+02 -0.12046756266E+03  0.13433709724E+03  0.00000000000E+00 0.  1.
        -13    1    3    3    0    0 -0.47957249074E+02  0.47804373599E+02 -0.16345176653E+03  0.17692268327E+03  0.00000000000E+00 0.  1.
         13    1    3    3    0    0  0.34001263651E+02  0.32463687117E+01 -0.66327709754E+02  0.74605562265E+02  0.00000000000E+00 0. -1.
         21    1    1    2  503  501  0.72745087310E+01 -0.22491590124E+02 -0.70429867603E+01  0.24665639382E+02  0.00000000000E+00 0.  1.
         -2    1    1    2    0  502  0.25971100316E+02  0.19970861553E+02  0.74227145669E+02  0.81135704329E+02  0.00000000000E+00 0.  1.
<scales pt_clust_5="13000.00000" pt_clust_6="13000.00000" pt_clust_7="13000.00000" pt_clust_8="13000.00000" pt_clust_9="23.63874" pt_clust_10="13000.00000"></scales>
<clustering>
<clus scale="   23.639">  1  9  2 -1</clus>
<clus scale="   87.561">  7  8 -1 -1</clus>
<clus scale="   93.599">  5  6 -1 -1</clus>
<clus scale="   31.747">  5 10 -1 -1</clus>
<clus scale="  101.000">  2  7  1 -1</clus>
<clus scale="   23.639">  1  5  2 -1</clus>
</clustering>
</event>
<event>
10    2  0.5921424E-006  0.1787210E+03  0.7546771E-02  0.1196446E+00
         21   -1    0    0  501  502  0.00000000000E+00  0.00000000000E+00  0.98699414301E+02  0.98699414301E+02  0.00000000000E+00 0. -1.
         -3   -1    0    0    0  501 -0.00000000000E+00 -0.00000000000E+00 -0.47341814924E+03  0.47341814924E+03  0.00000000000E+00 0.  1.
         23    2    1    2    0    0  0.25306953249E+02 -0.39533588654E+02 -0.25497039482E+03  0.27249321093E+03  0.83900543825E+02 0.  0.
         23    2    1    2    0    0 -0.82841913601E+01  0.21910991730E+02 -0.17498355387E+03  0.19921123863E+03  0.92288428778E+02 0.  0.
        -11    1    4    4    0    0 -0.12923834633E+02  0.50064787099E+02 -0.15744631407E+03  0.16571919087E+03  0.00000000000E+00 0.  1.
         11    1    4    4    0    0  0.46396432731E+01 -0.28153795369E+02 -0.17537239805E+02  0.33492047763E+02  0.00000000000E+00 0. -1.
        -11    1    3    3    0    0  0.54249188073E+02 -0.36065545803E+02 -0.19893635826E+03  0.20933077327E+03  0.00000000000E+00 0. -1.
         11    1    3    3    0    0 -0.28942234824E+02 -0.34680428512E+01 -0.56034036554E+02  0.63162437653E+02  0.00000000000E+00 0.  1.
         21    1    1    2  503  502  0.27799252761E+02  0.10543751626E+02  0.44935941422E+02  0.53881425221E+02  0.00000000000E+00 0. -1.
         -3    1    1    2    0  503 -0.44822014650E+02  0.70788452988E+01  0.10299272331E+02  0.46531688757E+02  0.00000000000E+00 0.  1.
<scales pt_clust_5="13000.00000" pt_clust_6="13000.00000" pt_clust_7="13000.00000" pt_clust_8="13000.00000" pt_clust_9="29.73162" pt_clust_10="13000.00000"></scales>
<clustering>
<clus scale="   29.732">  1  9  2 -1</clus>
<clus scale="   83.901">  7  8 -1 -1</clus>
<clus scale="   92.288">  5  6 -1 -1</clus>
<clus scale="   31.660">  5 10 -1 -1</clus>
<clus scale="   96.812">  2  7  1 -1</clus>
<clus scale="   29.732">  1  5  2 -1</clus>
</clustering>
</event>
<event>
10    2  0.5921424E-006  0.2102038E+03  0.7546771E-02  0.1173106E+00
         21   -1    0    0  501  502  0.00000000000E+00  0.00000000000E+00  0.24619712155E+03  0.24619712155E+03  0.00000000000E+00 0.  1.
          3   -1    0    0  503    0 -0.00000000000E+00 -0.00000000000E+00 -0.35246038711E+03  0.35246038711E+03  0.00000000000E+00 0. -1.
         23    2    1    2    0    0  0.30024236795E+02 -0.46458798924E+01 -0.10059516539E+03  0.13723516427E+03  0.88267004131E+02 0.  0.
         23    2    1    2    0    0 -0.11725265325E+03  0.91329011635E+01 -0.18164085525E+03  0.23541363050E+03  0.92706971428E+02 0.  0.
        -11    1    3    3    0    0 -0.11021238187E+01 -0.41437141020E+02 -0.65901967791E+02  0.77854484082E+02  0.00000000000E+00 0.  1.
         11    1    3    3    0    0  0.31126360614E+02  0.36791261127E+02 -0.34693197595E+02  0.59380680190E+02  0.00000000000E+00 0. -1.
        -11    1    4    4    0    0 -0.83889824461E+02  0.13692350228E+02 -0.48043275261E+02  0.97637796988E+02  0.00000000000E+00 0.  1.
         11    1    4    4    0    0 -0.33362828784E+02 -0.45594490648E+01 -0.13359757999E+03  0.13777583351E+03  0.00000000000E+00 0. -1.
         21    1    1    2  503  502  0.62241060242E+02 -0.42906146635E+02  0.16088206620E+03  0.17775805530E+03  0.00000000000E+00 0.  1.
          3    1    1    2  501    0  0.24987356209E+02  0.38419125364E+02  0.15090688868E+02  0.48250658592E+02  0.00000000000E+00 0. -1.
<scales pt_clust_5="13000.00000" pt_clust_6="13000.00000" pt_clust_7="13000.00000" pt_clust_8="13000.00000" pt_clust_9="75.59687" pt_clust_10="13000.00000"></scales>
<clustering>
<clus scale="   75.597">  1  9  2 -1</clus>
<clus scale="   88.267">  5  6 -1 -1</clus>
<clus scale="   92.707">  7  8 -1 -1</clus>
<clus scale="   54.713">  7 10 -1 -1</clus>
<clus scale="  100.121">  2  5  1 -1</clus>
<clus scale="   75.597">  1  5  2 -1</clus>
</clustering>
</event>
<event>
10    2  0.5921424E-006  0.2868795E+03  0.7546771E-02  0.1114802E+00
         21   -1    0    0  503  502  0.00000000000E+00  0.00000000000E+00  0.57618864520E+03  0.57618864520E+03  0.00000000000E+00 0. -1.
          2   -1    0    0  502    0 -0.00000000000E+00 -0.00000000000E+00 -0.13517009956E+03  0.13517009956E+03  0.00000000000E+00 0. -1.
         23    2    1    2    0    0 -0.10789960298E+03  0.35274096876E+02  0.15307360355E+03  0.21082306272E+03  0.90156804721E+02 0.  0.
         23    2    1    2    0    0  0.11132934406E+03  0.57587464616E+02  0.12177979914E+03  0.19646586563E+03  0.89766240575E+02 0.  0.
        -11    1    3    3    0    0 -0.91543739309E+02 -0.61455846858E+01  0.65998561611E+02  0.11302138980E+03  0.00000000000E+00 0.  1.
         11    1    3    3    0    0 -0.16355863671E+02  0.41419681562E+02  0.87075041943E+02  0.97801672923E+02  0.00000000000E+00 0. -1.
        -13    1    4    4    0    0  0.78686171292E+02 -0.72123677604E+01  0.81335899864E+02  0.11339779719E+03  0.00000000000E+00 0.  1.
         13    1    4    4    0    0  0.32643172767E+02  0.64799832377E+02  0.40443899280E+02  0.83068068434E+02  0.00000000000E+00 0. -1.
         21    1    1    2  503  501 -0.33154331902E+02  0.22023143349E+02  0.18022882982E+03  0.18457155703E+03  0.00000000000E+00 0. -1.
          2    1    1    2  501    0  0.29724590823E+02 -0.11488470484E+03 -0.14063686870E+02  0.11949825938E+03  0.00000000000E+00 0. -1.
<scales pt_clust_5="13000.00000" pt_clust_6="13000.00000" pt_clust_7="13000.00000" pt_clust_8="13000.00000" pt_clust_9="39.80237" pt_clust_10="13000.00000"></scales>
<clustering>
<clus scale="   39.802">  1  9  2 -1</clus>
<clus scale="   89.766">  7  8 -1 -1</clus>
<clus scale="   90.157">  5  6 -1 -1</clus>
<clus scale="  114.757">  7 10 -1 -1</clus>
<clus scale="  159.301">  2  5  1 -1</clus>
<clus scale="   39.802">  1  5  2 -1</clus>
</clustering>
</event>
<event>
10    2  0.5921424E-006  0.2497743E+03  0.7546771E-02  0.1124237E+00
         -1   -1    0    0    0  501 -0.00000000000E+00  0.00000000000E+00  0.11018990414E+03  0.11018990414E+03  0.00000000000E+00 0.  1.
         21   -1    0    0  501  502  0.00000000000E+00 -0.00000000000E+00 -0.72254909550E+03  0.72254909550E+03  0.00000000000E+00 0. -1.
         23    2    1    2    0    0 -0.19063582877E+03  0.58349262871E+02 -0.12021236939E+03  0.24889537347E+03  0.88041112505E+02 0.  0.
         23    2    1    2    0    0  0.43239258815E+01  0.29627634765E+02 -0.94305218610E+02  0.13294293133E+03  0.88791078698E+02 0.  0.
        -11    1    3    3    0    0 -0.67948478046E+02  0.55592368293E+02 -0.19002255722E+02  0.89825346110E+02  0.00000000000E+00 0.  1.
         11    1    3    3    0    0 -0.12268735072E+03  0.27568945781E+01 -0.10121011366E+03  0.15907002736E+03  0.00000000000E+00 0. -1.
        -11    1    4    4    0    0 -0.14469461829E+02  0.52979821374E+02 -0.85645742854E+02  0.10174192876E+03  0.00000000000E+00 0. -1.
         11    1    4    4    0    0  0.18793387711E+02 -0.23352186608E+02 -0.86594757559E+01  0.31201002571E+02  0.00000000000E+00 0.  1.
         21    1    1    2  503  502  0.74026695616E+02 -0.39009623523E+02 -0.21605618670E+03  0.23169371636E+03  0.00000000000E+00 0.  1.
         -1    1    1    2    0  503  0.11228520727E+03 -0.48967274114E+02 -0.18178541667E+03  0.21920697849E+03  0.00000000000E+00 0.  1.
<scales pt_clust_5="13000.00000" pt_clust_6="13000.00000" pt_clust_7="13000.00000" pt_clust_8="13000.00000" pt_clust_9="83.67618" pt_clust_10="13000.00000"></scales>
<clustering>
<clus scale="   83.676">  2  9  1 -1</clus>
<clus scale="   88.041">  5  6 -1 -1</clus>
<clus scale="   88.791">  7  8 -1 -1</clus>
<clus scale="  156.069">  7 10 -1 -1</clus>
<clus scale="  190.595">  1  5  2 -1</clus>
<clus scale="   83.676">  2  5  1 -1</clus>
</clustering>
</event>
<event>
10    2  0.5921424E-006  0.1385141E+03  0.7546771E-02  0.1230685E+00
         -3   -1    0    0    0  501 -0.00000000000E+00  0.00000000000E+00  0.57059348067E+03  0.57059348067E+03  0.00000000000E+00 0.  1.
         21   -1    0    0  503  502  0.00000000000E+00 -0.00000000000E+00 -0.47325465233E+02  0.47325465233E+02  0.00000000000E+00 0. -1.
         23    2    1    2    0    0 -0.14813559530E+02 -0.43199584379E+02  0.17333189149E+03  0.20114346776E+03  0.91263927036E+02 0.  0.
         23    2    1    2    0    0 -0.28380353653E+01 -0.78703260859E+00  0.25253665053E+03  0.26936546908E+03  0.93671352107E+02 0.  0.
        -11    1    3    3    0    0  0.36571671324E+02 -0.28257190082E+01  0.60275709484E+02  0.70559428747E+02  0.00000000000E+00 0.  1.
         11    1    3    3    0    0 -0.51385230853E+02 -0.40373865370E+02  0.11305618201E+03  0.13058403901E+03  0.00000000000E+00 0. -1.
        -11    1    4    4    0    0 -0.27715441526E+02  0.33762941096E+02  0.18030109436E+03  0.18551702488E+03  0.00000000000E+00 0.  1.
         11    1    4    4    0    0  0.24877406161E+02 -0.34549973705E+02  0.72235556170E+02  0.83848444204E+02  0.00000000000E+00 0. -1.
         21    1    1    2  503  501 -0.17268054624E+02  0.16144544710E+02 -0.13942549854E+02  0.27444976423E+02  0.00000000000E+00 0. -1.
         -3    1    1    2    0  502  0.34919649519E+02  0.27842072277E+02  0.11134202327E+03  0.11996503264E+03  0.00000000000E+00 0.  1.
<scales pt_clust_5="13000.00000" pt_clust_6="13000.00000" pt_clust_7="13000.00000" pt_clust_8="13000.00000" pt_clust_9="23.63963" pt_clust_10="13000.00000"></scales>
<clustering>
<clus scale="   23.640">  2  9  1 -1</clus>
<clus scale="   91.264">  5  6 -1 -1</clus>
<clus scale="   93.671">  7  8 -1 -1</clus>
<clus scale="   44.266">  7 10 -1 -1</clus>
<clus scale="  100.528">  1  5  2 -1</clus>
<clus scale="   23.640">  2  5  1 -1</clus>
</clustering>
</event>
<event>
10    2  0.5921424E-006  0.5812179E+03  0.7546771E-02  0.1050757E+00
         21   -1    0    0  501  502  0.00000000000E+00  0.00000000000E+00  0.43494926935E+03  0.43494926935E+03  0.00000000000E+00 0.  1.
         -1   -1    0    0    0  501 -0.00000000000E+00 -0.00000000000E+00 -0.67518222790E+03  0.67518222790E+03  0.00000000000E+00 0.  1.
         23    2    1    2    0    0  0.54430795432E+02  0.30948843429E+02 -0.54154694098E+02  0.12349770938E+03  0.91642844387E+02 0.  0.
         23    2    1    2    0    0 -0.27750266659E+02 -0.12339877017E+03 -0.51245824997E+03  0.53547550184E+03  0.90128915113E+02 0.  0.
        -11    1    3    3    0    0  0.43284596287E+02  0.61362478544E+02 -0.51378585783E+02  0.90987192098E+02  0.00000000000E+00 0.  1.
         11    1    3    3    0    0  0.11146199144E+02 -0.30413635115E+02 -0.27761083146E+01  0.32510517278E+02  0.00000000000E+00 0. -1.
        -13    1    4    4    0    0 -0.57973330465E+02 -0.84010223339E+02 -0.28685644335E+03  0.30447535822E+03  0.00000000000E+00 0. -1.
         13    1    4    4    0    0  0.30223063807E+02 -0.39388546829E+02 -0.22560180662E+03  0.23100014363E+03  0.00000000000E+00 0.  1.
         21    1    1    2  503  502 -0.10284663242E+02 -0.80382949355E+02  0.24757544964E+03  0.26050104820E+03  0.00000000000E+00 0.  1.
         -1    1    1    2    0  503 -0.16395865531E+02  0.17283287609E+03  0.78804535871E+02  0.19065723784E+03  0.00000000000E+00 0.  1.
<scales pt_clust_5="13000.00000" pt_clust_6="13000.00000" pt_clust_7="13000.00000" pt_clust_8="13000.00000" pt_clust_9="81.03822" pt_clust_10="13000.00000"></scales>
<clustering>
<clus scale="   81.038">  1  9  2 -1</clus>
<clus scale="   90.129">  7  8 -1 -1</clus>
<clus scale="   91.643">  5  6 -1 -1</clus>
<clus scale="  106.734">  2  5  1 -1</clus>
<clus scale="  115.814">  7 10 -1 -1</clus>
<clus scale="   81.038">  1  5  2 -1</clus>
</clustering>
</event>
<event>
10    2  0.5921424E-006  0.2067587E+03  0.7546771E-02  0.1170619E+00
          4   -1    0    0  502    0 -0.00000000000E+00  0.00000000000E+00  0.49984630888E+03  0.49984630888E+03  0.00000000000E+00 0. -1.
         21   -1    0    0  503  502  0.00000000000E+00 -0.00000000000E+00 -0.13102874040E+03  0.13102874040E+03  0.00000000000E+00 0. -1.
         23    2    1    2    0    0 -0.67991441607E+02  0.41357205551E+02 -0.55581718617E+02  0.13315998725E+03  0.91153717303E+02 0.  0.
         23    2    1    2    0    0  0.40210152340E+02 -0.88557126547E+02  0.23354085851E+03  0.26926060877E+03  0.92199359130E+02 0.  0.
        -11    1    4    4    0    0  0.32290914178E+02  0.67470884539E+01  0.97809027888E+02  0.10322224701E+03  0.00000000000E+00 0.  1.
         11    1    4    4    0    0  0.79192381621E+01 -0.95304215001E+02  0.13573183063E+03  0.16603836176E+03  0.00000000000E+00 0. -1.
        -13    1    3    3    0    0 -0.52091618036E+02 -0.16861924594E+02 -0.47084207776E+02  0.72213459913E+02  0.00000000000E+00 0. -1.
         13    1    3    3    0    0 -0.15899823571E+02  0.58219130145E+02 -0.84975108403E+01  0.60946527341E+02  0.00000000000E+00 0.  1.
         21    1    1    2  503  501  0.12636028134E+02 -0.17631083658E+02 -0.44213928224E+01  0.22137593195E+02  0.00000000000E+00 0. -1.
          4    1    1    2  501    0  0.15145261132E+02  0.64831004654E+02  0.19527982140E+03  0.20631686006E+03  0.00000000000E+00 0. -1.
<scales pt_clust_5="13000.00000" pt_clust_6="13000.00000" pt_clust_7="13000.00000" pt_clust_8="13000.00000" pt_clust_9="21.69157" pt_clust_10="13000.00000"></scales>
<clustering>
<clus scale="   21.692">  2  9  1 -1</clus>
<clus scale="   91.154">  7  8 -1 -1</clus>
<clus scale="   92.199">  5  6 -1 -1</clus>
<clus scale="   65.911">  5 10 -1 -1</clus>
<clus scale="  111.349">  1  7  2 -1</clus>
<clus scale="   21.692">  2  5  1 -1</clus>
</clustering>
</event>
<event>
10    2  0.5921424E-006  0.4295379E+03  0.7546771E-02  0.1082947E+00
         21   -1    0    0  501  502  0.00000000000E+00  0.00000000000E+00  0.91014948486E+02  0.91014948486E+02  0.00000000000E+00 0. -1.
          2   -1    0    0  503    0 -0.00000000000E+00 -0.00000000000E+00 -0.14120444418E+04  0.14120444418E+04  0.00000000000E+00 0. -1.
         23    2    1    2    0    0 -0.47054398331E+02  0.37880613507E+02 -0.47522311465E+03  0.48748929644E+03  0.90331324353E+02 0.  0.
         23    2    1    2    0    0  0.13212717037E+03 -0.19302604704E+03 -0.18236231304E+03  0.31065748468E+03  0.92387312910E+02 0.  0.
        -11    1    3    3    0    0 -0.33373082572E+02  0.66826493365E+02 -0.37159092208E+03  0.37902421589E+03  0.00000000000E+00 0.  1.
         11    1    3    3    0    0 -0.13681315759E+02 -0.28945879858E+02 -0.10363219257E+03  0.10846508055E+03  0.00000000000E+00 0. -1.
        -11    1    4    4    0    0  0.13316615438E+03 -0.14629412645E+03 -0.17339662880E+03  0.26306194515E+03  0.00000000000E+00 0. -1.
         11    1    4    4    0    0 -0.10389840069E+01 -0.46731920591E+02 -0.89656842386E+01  0.47595539536E+02  0.00000000000E+00 0.  1.
         21    1    1    2  503  502 -0.30744527882E+02  0.11393500716E+03 -0.17098764282E+03  0.20775751695E+03  0.00000000000E+00 0. -1.
          2    1    1    2  501    0 -0.54328244158E+02  0.41210426372E+02 -0.49245642278E+03  0.49715509219E+03  0.00000000000E+00 0. -1.
<scales pt_clust_5="13000.00000" pt_clust_6="13000.00000" pt_clust_7="13000.00000" pt_clust_8="13000.00000" pt_clust_9="128.15065" pt_clust_10="13000.00000"></scales>
<clustering>
<clus scale="   90.331">  5  6 -1 -1</clus>
<clus scale="   92.387">  7  8 -1 -1</clus>
<clus scale="   68.190">  7 10 -1 -1</clus>
<clus scale="  108.668">  2  5  1 -1</clus>
<clus scale="  128.151">  1  9  2 -1</clus>
<clus scale="  128.151">  1  5  2 -1</clus>
</clustering>
</event>
<event>
10    2  0.5921424E-006  0.2318193E+03  0.7546771E-02  0.1137732E+00
          1   -1    0    0  502    0 -0.00000000000E+00  0.00000000000E+00  0.51179939096E+03  0.51179939096E+03  0.00000000000E+00 0. -1.
         21   -1    0    0  503  502  0.00000000000E+00 -0.00000000000E+00 -0.15495681686E+03  0.15495681686E+03  0.00000000000E+00 0. -1.
         23    2    1    2    0    0  0.15137226180E+03  0.61941254064E+02  0.61181049182E+01  0.18660681237E+03  0.89634762332E+02 0.  0.
         23    2    1    2    0    0 -0.78939345504E+02 -0.81352730411E+02  0.31739973536E+03  0.34882980187E+03  0.89944158532E+02 0.  0.
        -11    1    4    4    0    0 -0.98450856140E+02 -0.70694995490E+02  0.28310511198E+03  0.30795918218E+03  0.00000000000E+00 0. -1.
         11    1    4    4    0    0  0.19511510637E+02 -0.10657734920E+02  0.34294623379E+02  0.40870619688E+02  0.00000000000E+00 0.  1.
        -13    1    3    3    0    0  0.17585278994E+02  0.36672046468E+02 -0.23915962871E+02  0.47181079995E+02  0.00000000000E+00 0.  1.
         13    1    3    3    0    0  0.13378698281E+03  0.25269207596E+02  0.30034067789E+02  0.13942573238E+03  0.00000000000E+00 0. -1.
         21    1    1    2  503  501 -0.16924395626E+02 -0.23137877940E+02 -0.26683715196E+02  0.39163978597E+02  0.00000000000E+00 0. -1.
          1    1    1    2  501    0 -0.55508520670E+02  0.42549354287E+02  0.60008449027E+02  0.92155614977E+02  0.00000000000E+00 0. -1.
<scales pt_clust_5="13000.00000" pt_clust_6="13000.00000" pt_clust_7="13000.00000" pt_clust_8="13000.00000" pt_clust_9="28.66699" pt_clust_10="13000.00000"></scales>
<clustering>
<clus scale="   28.667">  2  9  1 -1</clus>
<clus scale="   89.635">  7  8 -1 -1</clus>
<clus scale="   89.944">  5  6 -1 -1</clus>
<clus scale="   69.957">  5 10 -1 -1</clus>
<clus scale="  171.246">  1  7  2 -1</clus>
<clus scale="   28.667">  2  5  1 -1</clus>
</clustering>
</event>
<event>
10    2  0.5921424E-006  0.2902891E+03  0.7546771E-02  0.1126072E+00
         -3   -1    0    0    0  501 -0.00000000000E+00  0.00000000000E+00  0.23463346398E+03  0.23463346398E+03  0.00000000000E+00 0.  1.
         21   -1    0    0  501  502  0.00000000000E+00 -0.00000000000E+00 -0.11708208009E+04  0.11708208009E+04  0.00000000000E+00 0.  1.
         23    2    1    2    0    0 -0.24591558974E+02 -0.69859259181E+02  0.14417804838E+03  0.18505944957E+03  0.89300780375E+02 0.  0.
         23    2    1    2    0    0 -0.91450465657E+02  0.15372723049E+03 -0.29017296125E+03  0.35253688639E+03  0.89925857041E+02 0.  0.
        -11    1    3    3    0    0 -0.55335141997E+02 -0.53787991649E+02  0.12037745088E+03  0.14298900890E+03  0.00000000000E+00 0.  1.
         11    1    3    3    0    0  0.30743583023E+02 -0.16071267532E+02  0.23800597499E+02  0.42070440674E+02  0.00000000000E+00 0. -1.
        -13    1    4    4    0    0 -0.56146543131E+02  0.14098412346E+03 -0.27050069029E+03  0.31016057264E+03  0.00000000000E+00 0.  1.
         13    1    4    4    0    0 -0.35303922527E+02  0.12743107030E+02 -0.19672270958E+02  0.42376313752E+02  0.00000000000E+00 0. -1.
         21    1    1    2  503  502  0.20347851492E+02 -0.15458818362E+03 -0.70366538027E+03  0.72073331334E+03  0.00000000000E+00 0.  1.
         -3    1    1    2    0  503  0.95694173139E+02  0.70720212316E+02 -0.86527043788E+02  0.14712461558E+03  0.00000000000E+00 0.  1.
<scales pt_clust_5="13000.00000" pt_clust_6="13000.00000" pt_clust_7="13000.00000" pt_clust_8="13000.00000" pt_clust_9="164.02345" pt_clust_10="13000.00000"></scales>
<clustering>
<clus scale="   89.301">  5  6 -1 -1</clus>
<clus scale="   89.926">  7  8 -1 -1</clus>
<clus scale="  116.016">  1  5  2 -1</clus>
<clus scale="   94.198">  7 10 -1 -1</clus>
<clus scale="  164.023">  2  9  1 -1</clus>
<clus scale="  164.023">  2  5  1 -1</clus>
</clustering>
</event>
<event>
10    2  0.5921424E-006  0.1981416E+03  0.7546771E-02  0.1170475E+00
          1   -1    0    0  502    0 -0.00000000000E+00  0.00000000000E+00  0.32094052594E+03  0.32094052594E+03  0.00000000000E+00 0. -1.
         21   -1    0    0  503  502  0.00000000000E+00 -0.00000000000E+00 -0.15308741367E+03  0.15308741367E+03  0.00000000000E+00 0. -1.
         23    2    1    2    0    0 -0.86325426626E+01 -0.79723583432E+02  0.25217448163E+02  0.12312386551E+03  0.89962192161E+02 0.  0.
         23    2    1    2    0    0  0.44415193564E+02  0.60929108145E+02  0.18596217961E+03  0.22031065757E+03  0.90938374478E+02 0.  0.
        -11    1    4    4    0    0  0.68921508994E+02  0.41060923761E+02  0.16171361571E+03  0.18051999160E+03  0.00000000000E+00 0.  1.
         11    1    4    4    0    0 -0.24506315430E+02  0.19868184385E+02  0.24248563907E+02  0.39790665969E+02  0.00000000000E+00 0. -1.
        -11    1    3    3    0    0  0.38292134885E+02 -0.21969199321E+02 -0.11901496894E+01  0.44162764510E+02  0.00000000000E+00 0.  1.
         11    1    3    3    0    0 -0.46924677548E+02 -0.57754384111E+02  0.26407597853E+02  0.78961101002E+02  0.00000000000E+00 0. -1.
         21    1    1    2  503  501  0.16162988296E+02 -0.18220285998E+02 -0.59924284155E+02  0.64684935217E+02  0.00000000000E+00 0. -1.
          1    1    1    2  501    0 -0.51945639198E+02  0.37014761285E+02  0.16597768645E+02  0.65908481310E+02  0.00000000000E+00 0. -1.
<scales pt_clust_5="13000.00000" pt_clust_6="13000.00000" pt_clust_7="13000.00000" pt_clust_8="13000.00000" pt_clust_9="24.35613" pt_clust_10="13000.00000"></scales>
<clustering>
<clus scale="   24.356">  2  9  1 -1</clus>
<clus scale="   89.962">  7  8 -1 -1</clus>
<clus scale="   90.938">  5  6 -1 -1</clus>
<clus scale="   57.357">  5 10 -1 -1</clus>
<clus scale="  126.934">  1  7  2 -1</clus>
<clus scale="   24.356">  2  5  1 -1</clus>
</clustering>
</event>
<event>
10    2  0.5921424E-006  0.2912595E+03  0.7546771E-02  0.1114723E+00
         21   -1    0    0  501  502  0.00000000000E+00  0.00000000000E+00  0.49051728865E+03  0.49051728865E+03  0.00000000000E+00 0. -1.
          1   -1    0    0  503    0 -0.00000000000E+00 -0.00000000000E+00 -0.13715111850E+03  0.13715111850E+03  0.00000000000E+00 0. -1.
         23    2    1    2    0    0 -0.97775663796E+02 -0.85621513081E+02  0.12102940884E+03  0.20049642654E+03  0.93056839178E+02 0.  0.
         23    2    1    2    0    0 -0.26157435160E+02  0.13546809983E+02 -0.41055647284E+02  0.10301880477E+03  0.89775166323E+02 0.  0.
        -11    1    3    3    0    0  0.17908540776E+02 -0.15185874186E+02  0.26062285981E+02  0.35079472033E+02  0.00000000000E+00 0.  1.
         11    1    3    3    0    0 -0.11568420457E+03 -0.70435638895E+02  0.94967122859E+02  0.16541695451E+03  0.00000000000E+00 0. -1.
        -13    1    4    4    0    0 -0.27771921619E+02 -0.35402111633E+02 -0.25025733351E+02  0.51486663013E+02  0.00000000000E+00 0.  1.
         13    1    4    4    0    0  0.16144864588E+01  0.48948921615E+02 -0.16029913933E+02  0.51532141761E+02  0.00000000000E+00 0. -1.
         21    1    1    2  503  502 -0.70381618958E+00  0.35347022851E+02  0.10912163661E+03  0.11470588022E+03  0.00000000000E+00 0.  1.
          1    1    1    2  501    0  0.12463691515E+03  0.36727680248E+02  0.16427077199E+03  0.20944729562E+03  0.00000000000E+00 0. -1.
<scales pt_clust_5="13000.00000" pt_clust_6="13000.00000" pt_clust_7="13000.00000" pt_clust_8="13000.00000" pt_clust_9="35.35403" pt_clust_10="13000.00000"></scales>
<clustering>
<clus scale="   35.354">  1  9  2 -1</clus>
<clus scale="   89.775">  7  8 -1 -1</clus>
<clus scale="   93.057">  5  6 -1 -1</clus>
<clus scale="  135.583">  7 10 -1 -1</clus>
<clus scale="  152.526">  2  5  1 -1</clus>
<clus scale="   35.354">  1  5  2 -1</clus>
</clustering>
</event>
<event>
10    2  0.5921424E-006  0.2863155E+03  0.7546771E-02  0.1119130E+00
         21   -1    0    0  503  502  0.00000000000E+00  0.00000000000E+00  0.21086203525E+03  0.21086203525E+03  0.00000000000E+00 0.  1.
          1   -1    0    0  502    0 -0.00000000000E+00 -0.00000000000E+00 -0.38532946539E+03  0.38532946539E+03  0.00000000000E+00 0. -1.
         23    2    1    2    0    0 -0.61879133371E+02 -0.12539256112E+03  0.15660633632E+02  0.16733644575E+03  0.90575433201E+02 0.  0.
         23    2    1    2    0    0  0.61499246478E+02 -0.39711257414E+02 -0.15028261529E+03  0.18991036279E+03  0.90121807304E+02 0.  0.
        -11    1    4    4    0    0  0.12371749400E+02 -0.27731654147E+02  0.10180175673E+01  0.30383238549E+02  0.00000000000E+00 0.  1.
         11    1    4    4    0    0  0.49127497078E+02 -0.11979603267E+02 -0.15130063286E+03  0.15952712424E+03  0.00000000000E+00 0. -1.
        -11    1    3    3    0    0 -0.19835445319E+02  0.76559634637E+01 -0.12956885949E+02  0.24898585523E+02  0.00000000000E+00 0. -1.
         11    1    3    3    0    0 -0.42043688052E+02 -0.13304852458E+03  0.28617519581E+02  0.14243786023E+03  0.00000000000E+00 0.  1.
         21    1    1    2  503  501  0.64723994261E+02  0.29259816269E+02  0.24917558968E+02  0.75274278649E+02  0.00000000000E+00 0.  1.
          1    1    1    2  501    0 -0.64344107368E+02  0.13584400227E+03 -0.64763007454E+02  0.16367041345E+03  0.00000000000E+00 0. -1.
<scales pt_clust_5="13000.00000" pt_clust_6="13000.00000" pt_clust_7="13000.00000" pt_clust_8="13000.00000" pt_clust_9="71.03050" pt_clust_10="13000.00000"></scales>
<clustering>
<clus scale="   71.031">  1  9  2 -1</clus>
<clus scale="   90.122">  5  6 -1 -1</clus>
<clus scale="   90.575">  7  8 -1 -1</clus>
<clus scale="  143.720">  2  7  1 -1</clus>
<clus scale="  115.341">  5 10 -1 -1</clus>
<clus scale="   71.031">  1  5  2 -1</clus>
</clustering>
</event>
<event>
10    2  0.5921424E-006  0.3501578E+03  0.7546771E-02  0.1086627E+00
         21   -1    0    0  501  502  0.00000000000E+00  0.00000000000E+00  0.17587364110E+03  0.17587364110E+03  0.00000000000E+00 0. -1.
          1   -1    0    0  503    0 -0.00000000000E+00 -0.00000000000E+00 -0.48097303055E+03  0.48097303055E+03  0.00000000000E+00 0. -1.
         23    2    1    2    0    0  0.28895645091E+02 -0.14928761459E+03 -0.14413830468E+03  0.22853692740E+03  0.91277193932E+02 0.  0.
         23    2    1    2    0    0  0.48312123115E+00  0.13186950378E+03 -0.25660602440E+03  0.30228628429E+03  0.90224977026E+02 0.  0.
        -11    1    3    3    0    0 -0.28789416816E+02 -0.61029724798E+02 -0.81833598877E+02  0.10606693988E+03  0.00000000000E+00 0.  1.
         11    1    3    3    0    0  0.57685061907E+02 -0.88257889797E+02 -0.62304705801E+02  0.12246998752E+03  0.00000000000E+00 0. -1.
        -13    1    4    4    0    0  0.37364627552E+02  0.39871052064E+02 -0.13342241630E+03  0.14417821388E+03  0.00000000000E+00 0. -1.
         13    1    4    4    0    0 -0.36881506321E+02  0.91998451711E+02 -0.12318360810E+03  0.15810807041E+03  0.00000000000E+00 0.  1.
         21    1    1    2  503  502  0.17447671229E+02 -0.15552495651E+02  0.17787332240E+02  0.29371594109E+02  0.00000000000E+00 0. -1.
          1    1    1    2  501    0 -0.46826437551E+02  0.32970606470E+02  0.77857607383E+02  0.96651865849E+02  0.00000000000E+00 0. -1.
<scales pt_clust_5="13000.00000" pt_clust_6="13000.00000" pt_clust_7="13000.00000" pt_clust_8="13000.00000" pt_clust_9="23.37309" pt_clust_10="13000.00000"></scales>
<clustering>
<clus scale="   23.373">  1  9  2 -1</clus>
<clus scale="   90.225">  7  8 -1 -1</clus>
<clus scale="   43.992">  7 10 -1 -1</clus>
<clus scale="   91.277">  5  6 -1 -1</clus>
<clus scale="  181.828">  2  5  1 -1</clus>
<clus scale="   23.373">  1  5  2 -1</clus>
</clustering>
</event>
<event>
10    2  0.5921424E-006  0.6366463E+03  0.7546771E-02  0.1004705E+00
         21   -1    0    0  501  502  0.00000000000E+00  0.00000000000E+00  0.64329442408E+03  0.64329442408E+03  0.00000000000E+00 0.  1.
          2   -1    0    0  503    0 -0.00000000000E+00 -0.00000000000E+00 -0.25916111005E+04  0.25916111005E+04  0.00000000000E+00 0. -1.
         23    2    1    2    0    0  0.28465175584E+03 -0.12012576993E+03 -0.96094561992E+03  0.10130424029E+04  0.85916255723E+02 0.  0.
         23    2    1    2    0    0  0.63222018072E+02 -0.41402052413E+02 -0.25804447722E+03  0.28402475760E+03  0.91498399942E+02 0.  0.
        -13    1    4    4    0    0  0.24332926693E+02 -0.66911721516E+02 -0.17331870526E+03  0.18737300604E+03  0.00000000000E+00 0. -1.
         13    1    4    4    0    0  0.38889091378E+02  0.25509669103E+02 -0.84725771956E+02  0.96651751560E+02  0.00000000000E+00 0.  1.
        -13    1    3    3    0    0  0.64820767211E+02  0.94430151114E+01 -0.19393133632E+03  0.20469554368E+03  0.00000000000E+00 0.  1.
         13    1    3    3    0    0  0.21983098863E+03 -0.12956878505E+03 -0.76701428360E+03  0.80834685925E+03  0.00000000000E+00 0. -1.
         21    1    1    2  503  502 -0.61192825689E+03  0.96580201683E+02  0.42541841736E+03  0.75150832116E+03  0.00000000000E+00 0.  1.
          2    1    1    2  501    0  0.26405448298E+03  0.64947620665E+02 -0.11547449967E+04  0.11863300429E+04  0.00000000000E+00 0. -1.
<scales pt_clust_5="13000.00000" pt_clust_6="13000.00000" pt_clust_7="13000.00000" pt_clust_8="13000.00000" pt_clust_9="589.07864" pt_clust_10="13000.00000"></scales>
<clustering>
<clus scale="   85.916">  7  8 -1 -1</clus>
<clus scale="   91.498">  5  6 -1 -1</clus>
<clus scale="  271.925">  5 10 -1 -1</clus>
<clus scale="  320.684">  2  7  1 -1</clus>
<clus scale="  589.079">  1  9  2 -1</clus>
<clus scale="  589.079">  1  5  2 -1</clus>
</clustering>
</event>
<event>
10    2  0.5921424E-006  0.3531221E+03  0.7546771E-02  0.1110560E+00
          2   -1    0    0  503    0 -0.00000000000E+00  0.00000000000E+00  0.68487377116E+03  0.68487377116E+03  0.00000000000E+00 0. -1.
         21   -1    0    0  501  502  0.00000000000E+00 -0.00000000000E+00 -0.96244682683E+02  0.96244682683E+02  0.00000000000E+00 0. -1.
         23    2    1    2    0    0 -0.86064249911E+01 -0.22786874118E+02  0.16463482935E+03  0.18928862707E+03  0.90178961612E+02 0.  0.
         23    2    1    2    0    0 -0.13666964252E+03 -0.38842919477E+02  0.20763730513E+03  0.26782542904E+03  0.91814194880E+02 0.  0.
        -11    1    3    3    0    0 -0.87324502609E+01  0.31309635935E+02  0.30163872156E+02  0.44344201124E+02  0.00000000000E+00 0.  1.
         11    1    3    3    0    0  0.12602526974E+00 -0.54096510053E+02  0.13447095720E+03  0.14494442594E+03  0.00000000000E+00 0. -1.
        -13    1    4    4    0    0 -0.10158952289E+03  0.64023457916E+01  0.85497154043E+02  0.13293300772E+03  0.00000000000E+00 0. -1.
         13    1    4    4    0    0 -0.35080119627E+02 -0.45245265268E+02  0.12214015109E+03  0.13489242132E+03  0.00000000000E+00 0.  1.
         21    1    1    2  503  502 -0.17009613587E+02 -0.33039231984E+02 -0.39005177595E+00  0.37162749425E+02  0.00000000000E+00 0. -1.
          2    1    1    2  501    0  0.16228568110E+03  0.94669025579E+02  0.21674700577E+03  0.28684164830E+03  0.00000000000E+00 0. -1.
<scales pt_clust_5="13000.00000" pt_clust_6="13000.00000" pt_clust_7="13000.00000" pt_clust_8="13000.00000" pt_clust_9="37.16070" pt_clust_10="13000.00000"></scales>
<clustering>
<clus scale="   37.161">  2  9  1 -1</clus>
<clus scale="   90.179">  5  6 -1 -1</clus>
<clus scale="   91.814">  7  8 -1 -1</clus>
<clus scale="   95.114">  1  5  2 -1</clus>
<clus scale="  163.821">  7 10 -1 -1</clus>
<clus scale="   37.161">  2  5  1 -1</clus>
</clustering>
</event>
<event>
10    2  0.5921424E-006  0.4222696E+03  0.7546771E-02  0.1040214E+00
         21   -1    0    0  503  502  0.00000000000E+00  0.00000000000E+00  0.74016654562E+03  0.74016654562E+03  0.00000000000E+00 0. -1.
          3   -1    0    0  502    0 -0.00000000000E+00 -0.00000000000E+00 -0.87119419198E+03  0.87119419198E+03  0.00000000000E+00 0. -1.
         23    2    1    2    0    0  0.31358201592E+03  0.18600957373E+03 -0.36487707523E+03  0.52466198648E+03  0.95925376193E+02 0.  0.
         23    2    1    2    0    0 -0.45866265984E+01 -0.99219057889E+01 -0.20274281570E+03  0.22238634781E+03  0.90727928526E+02 0.  0.
        -13    1    4    4    0    0 -0.43518497647E+02  0.11729255687E+02 -0.12369098137E+03  0.13164685316E+03  0.00000000000E+00 0. -1.
         13    1    4    4    0    0  0.38931871048E+02 -0.21651161476E+02 -0.79051834338E+02  0.90739494647E+02  0.00000000000E+00 0.  1.
        -13    1    3    3    0    0  0.16423776382E+03  0.73657880353E+02 -0.11882408287E+03  0.21568191642E+03  0.00000000000E+00 0. -1.
         13    1    3    3    0    0  0.14934425210E+03  0.11235169338E+03 -0.24605299236E+03  0.30898007005E+03  0.00000000000E+00 0.  1.
         21    1    1    2  503  501 -0.38543983254E+03 -0.14043444133E+01  0.52730314245E+03  0.65315728636E+03  0.00000000000E+00 0. -1.
          3    1    1    2  501    0  0.76444443225E+02 -0.17468332353E+03 -0.90710897870E+02  0.21115511694E+03  0.00000000000E+00 0. -1.
<scales pt_clust_5="13000.00000" pt_clust_6="13000.00000" pt_clust_7="13000.00000" pt_clust_8="13000.00000" pt_clust_9="340.16338" pt_clust_10="13000.00000"></scales>
<clustering>
<clus scale="   90.728">  5  6 -1 -1</clus>
<clus scale="   95.925">  7  8 -1 -1</clus>
<clus scale="  190.678">  5 10 -1 -1</clus>
<clus scale="  377.008">  2  7  1 -1</clus>
<clus scale="  340.163">  1  9  2 -1</clus>
<clus scale="  340.163">  1  5  2 -1</clus>
</clustering>
</event>
<event>
10    2  0.5921424E-006  0.2413329E+03  0.7546771E-02  0.1143975E+00
         -1   -1    0    0    0  501 -0.00000000000E+00  0.00000000000E+00  0.56919068716E+02  0.56919068716E+02  0.00000000000E+00 0.  1.
         21   -1    0    0  503  502  0.00000000000E+00 -0.00000000000E+00 -0.92302471793E+03  0.92302471793E+03  0.00000000000E+00 0. -1.
         23    2    1    2    0    0 -0.81787539972E+02  0.30081401839E+02 -0.29366256829E+03  0.32049653814E+03  0.94266826182E+02 0.  0.
         23    2    1    2    0    0  0.11988624378E+03 -0.10664606527E+03 -0.26019555657E+03  0.31760499280E+03  0.86169072785E+02 0.  0.
        -11    1    4    4    0    0  0.33597834639E+02 -0.88404644625E+01 -0.11174253152E+02  0.36494276782E+02  0.00000000000E+00 0.  1.
         11    1    4    4    0    0  0.86288409137E+02 -0.97805600810E+02 -0.24902130342E+03  0.28111071602E+03  0.00000000000E+00 0. -1.
        -13    1    3    3    0    0 -0.42683632466E+02 -0.31435707683E+02 -0.93610101506E+02  0.10757763384E+03  0.00000000000E+00 0.  1.
         13    1    3    3    0    0 -0.39103907506E+02  0.61517109522E+02 -0.20005246678E+03  0.21291890431E+03  0.00000000000E+00 0. -1.
         21    1    1    2  503  501  0.25378659891E+02  0.60064975699E+02 -0.21400452640E+03  0.22371815976E+03  0.00000000000E+00 0. -1.
         -1    1    1    2    0  502 -0.63477363696E+02  0.16499687735E+02 -0.98242997950E+02  0.11812409595E+03  0.00000000000E+00 0.  1.
<scales pt_clust_5="13000.00000" pt_clust_6="13000.00000" pt_clust_7="13000.00000" pt_clust_8="13000.00000" pt_clust_9="65.20642" pt_clust_10="13000.00000"></scales>
<clustering>
<clus scale="   65.206">  2  9  1 -1</clus>
<clus scale="   86.169">  5  6 -1 -1</clus>
<clus scale="   64.896">  5 10 -1 -1</clus>
<clus scale="   94.267">  7  8 -1 -1</clus>
<clus scale="  130.593">  1  7  2 -1</clus>
<clus scale="   65.206">  2  5  1 -1</clus>
</clustering>
</event>
<event>
10    2  0.5921424E-006  0.1351052E+03  0.7546771E-02  0.1228911E+00
         21   -1    0    0  501  502  0.00000000000E+00  0.00000000000E+00  0.25686548091E+03  0.25686548091E+03  0.00000000000E+00 0. -1.
          4   -1    0    0  503    0 -0.00000000000E+00 -0.00000000000E+00 -0.97576488711E+02  0.97576488711E+02  0.00000000000E+00 0. -1.
         23    2    1    2    0    0 -0.46732040833E+02  0.13457206859E+02  0.67322071666E+02  0.12813520791E+03  0.97577610733E+02 0.  0.
         23    2    1    2    0    0  0.16783979881E+02 -0.40978440116E+02  0.90307537393E+00  0.10103964406E+03  0.90814423921E+02 0.  0.
        -11    1    4    4    0    0 -0.21259731317E+02  0.19781811647E+02 -0.33135677553E+01  0.29227999914E+02  0.00000000000E+00 0.  1.
         11    1    4    4    0    0  0.38043711197E+02 -0.60760251763E+02  0.42166431293E+01  0.71811644148E+02  0.00000000000E+00 0. -1.
        -13    1    3    3    0    0 -0.25646627435E+02  0.13239469216E+02 -0.22042376698E+02  0.36316654780E+02  0.00000000000E+00 0. -1.
         13    1    3    3    0    0 -0.21085413399E+02  0.21773764234E+00  0.89364448364E+02  0.91818553132E+02  0.00000000000E+00 0.  1.
         21    1    1    2  503  502 -0.56387805971E+01  0.19454797456E+02  0.86089169138E+02  0.88439979837E+02  0.00000000000E+00 0. -1.
          4    1    1    2  501    0  0.35586841550E+02  0.80664358011E+01  0.49746760258E+01  0.36827137814E+02  0.00000000000E+00 0. -1.
<scales pt_clust_5="13000.00000" pt_clust_6="13000.00000" pt_clust_7="13000.00000" pt_clust_8="13000.00000" pt_clust_9="20.25549" pt_clust_10="13000.00000"></scales>
<clustering>
<clus scale="   20.255">  1  9  2 -1</clus>
<clus scale="   90.814">  5  6 -1 -1</clus>
<clus scale="   36.427">  5 10 -1 -1</clus>
<clus scale="   97.578">  7  8 -1 -1</clus>
<clus scale="  112.374">  2  7  1 -1</clus>
<clus scale="   20.255">  1  5  2 -1</clus>
</clustering>
</event>
