<event>
 9    1  0.1234700E-005  0.1201145E+03  0.7546771E-02  0.1244504E+00
         -1   -1    0    0    0  501 -0.00000000000E+00  0.00000000000E+00  0.98639094296E+03  0.98639094296E+03  0.00000000000E+00 0.  1.
          1   -1    0    0  502    0  0.00000000000E+00 -0.00000000000E+00 -0.65916952368E+02  0.65916952368E+02  0.00000000000E+00 0. -1.
         23    2    1    2    0    0  0.98557004659E+02  0.10006532695E+03  0.67784825600E+03  0.69898047594E+03  0.96793051237E+02 0.  0.
         23    2    1    2    0    0 -0.30029663633E+02 -0.48303319056E+02  0.24304335249E+02  0.11872235690E+03  0.10133758428E+03 0.  0.
        -13    1    4    4    0    0 -0.19974563205E+02 -0.17793873773E+02  0.62991819740E+02  0.68436645690E+02  0.00000000000E+00 0.  1.
         13    1    4    4    0    0 -0.10055100428E+02 -0.30509445283E+02 -0.38687484492E+02  0.50285711215E+02  0.00000000000E+00 0. -1.
        -13    1    3    3    0    0  0.86624873163E+02  0.44812405715E+02  0.55814136229E+03  0.56659844745E+03  0.00000000000E+00 0.  1.
         13    1    3    3    0    0  0.11932131496E+02  0.55252921230E+02  0.11970689371E+03  0.13238202849E+03  0.00000000000E+00 0. -1.
         21    1    1    2  502  501 -0.68527341027E+02 -0.51762007889E+02  0.21832139935E+03  0.23460506248E+03  0.00000000000E+00 0. -1.
<scales pt_clust_5="13000.00000" pt_clust_6="13000.00000" pt_clust_7="13000.00000" pt_clust_8="13000.00000" pt_clust_9="85.87958"></scales>
<clustering>
<clus scale="   85.880">  1  9  2 -1</clus>
<clus scale="   96.793">  7  8 -1 -1</clus>
<clus scale="  101.338">  5  6 -1 -1</clus>
<clus scale="  116.306">  1  7  2 -1</clus>
<clus scale="  120.115">  2  5  1 -1</clus>
</clustering>
</event>
<event>
 9    1  0.1234700E-005  0.1010870E+03  0.7546771E-02  0.1279821E+00
         -1   -1    0    0    0  501 -0.00000000000E+00  0.00000000000E+00  0.31005553166E+03  0.31005553166E+03  0.00000000000E+00 0.  1.
          1   -1    0    0  502    0  0.00000000000E+00 -0.00000000000E+00 -0.70118984525E+02  0.70118984525E+02  0.00000000000E+00 0. -1.
         23    2    1    2    0    0  0.40380945514E+02  0.20440610069E+02  0.14280120697E+03  0.17479190464E+03  0.90064343194E+02 0.  0.
         23    2    1    2    0    0  0.13209195123E+02 -0.51200223112E+02  0.94998760733E+02  0.14355525563E+03  0.93741139298E+02 0.  0.
        -11    1    4    4    0    0 -0.33648368680E+02  0.29538639973E+01  0.17522320071E+02  0.38052197414E+02  0.00000000000E+00 0. -1.
         11    1    4    4    0    0  0.46857563803E+02 -0.54154087109E+02  0.77476440662E+02  0.10550305822E+03  0.00000000000E+00 0.  1.
        -11    1    3    3    0    0  0.99232190887E+01  0.31800175345E+02  0.13796163323E+03  0.14192650800E+03  0.00000000000E+00 0.  1.
         11    1    3    3    0    0  0.30457726426E+02 -0.11359565276E+02  0.48395737365E+01  0.32865396639E+02  0.00000000000E+00 0. -1.
         21    1    1    2  502  501 -0.53590140637E+02  0.30759613043E+02  0.21365794384E+01  0.61827355918E+02  0.00000000000E+00 0. -1.
<scales pt_clust_5="13000.00000" pt_clust_6="13000.00000" pt_clust_7="13000.00000" pt_clust_8="13000.00000" pt_clust_9="61.79043"></scales>
<clustering>
<clus scale="   61.790">  2  9  1 -1</clus>
<clus scale="   90.064">  7  8 -1 -1</clus>
<clus scale="   93.741">  5  6 -1 -1</clus>
<clus scale="   97.687">  1  7  2 -1</clus>
<clus scale="   61.790">  2  5  1 -1</clus>
</clustering>
</event>
<event>
 9    1  0.1234700E-005  0.1055098E+03  0.7546771E-02  0.1277005E+00
         -1   -1    0    0    0  501 -0.00000000000E+00  0.00000000000E+00  0.39013259386E+02  0.39013259386E+02  0.00000000000E+00 0.  1.
          1   -1    0    0  502    0  0.00000000000E+00 -0.00000000000E+00 -0.69824278574E+03  0.69824278574E+03  0.00000000000E+00 0. -1.
         23    2    1    2    0    0  0.17326162457E+02  0.49745265642E+02 -0.35979136350E+02  0.99460771813E+02  0.76309629260E+02 0.  0.
         23    2    1    2    0    0  0.92540154351E+01 -0.31142171428E+02 -0.39287664593E+03  0.40514823824E+03  0.93474939885E+02 0.  0.
        -11    1    3    3    0    0  0.39522498780E+02  0.10047031748E+02  0.10774423817E+01  0.40793769608E+02  0.00000000000E+00 0.  1.
         11    1    3    3    0    0 -0.22196336322E+02  0.39698233894E+02 -0.37056578731E+02  0.58667002205E+02  0.00000000000E+00 0. -1.
        -13    1    4    4    0    0 -0.35525485245E+02  0.10955631865E+02 -0.16423312832E+03  0.16838826090E+03  0.00000000000E+00 0.  1.
         13    1    4    4    0    0  0.44779500680E+02 -0.42097803293E+02 -0.22864351761E+03  0.23675997734E+03  0.00000000000E+00 0. -1.
         21    1    1    2  502  501 -0.26580177893E+02 -0.18603094214E+02 -0.23037374407E+03  0.23264703507E+03  0.00000000000E+00 0. -1.
<scales pt_clust_5="13000.00000" pt_clust_6="13000.00000" pt_clust_7="13000.00000" pt_clust_8="13000.00000" pt_clust_9="32.44350"></scales>
<clustering>
<clus scale="   32.444">  2  9  1 -1</clus>
<clus scale="   76.310">  5  6 -1 -1</clus>
<clus scale="   90.653">  1  5  2 -1</clus>
<clus scale="   93.475">  7  8 -1 -1</clus>
<clus scale="   32.444">  2  5  1 -1</clus>
</clustering>
</event>
<event>
 9    1  0.1234700E-005  0.1158590E+03  0.7546771E-02  0.1251076E+00
         -1   -1    0    0    0  501 -0.00000000000E+00  0.00000000000E+00  0.36928410265E+03  0.36928410265E+03  0.00000000000E+00 0.  1.
          1   -1    0    0  502    0  0.00000000000E+00 -0.00000000000E+00 -0.23565062078E+03  0.23565062078E+03  0.00000000000E+00 0. -1.
         23    2    1    2    0    0  0.56950500893E+02  0.20529053170E+02  0.31653728077E+03  0.33669818025E+03  0.97493655614E+02 0.  0.
         23    2    1    2    0    0 -0.86172716711E+02 -0.54415067754E+01 -0.61039543649E+02  0.14201266009E+03  0.94796743810E+02 0.  0.
        -11    1    3    3    0    0  0.48150939321E+02 -0.33789459400E+02  0.14232438067E+03  0.15400152550E+03  0.00000000000E+00 0.  1.
         11    1    3    3    0    0  0.87995615715E+01  0.54318512569E+02  0.17421290011E+03  0.18269665474E+03  0.00000000000E+00 0. -1.
        -13    1    4    4    0    0 -0.11865000259E+02 -0.31871120530E+02 -0.52679138884E+02  0.62702776881E+02  0.00000000000E+00 0.  1.
         13    1    4    4    0    0 -0.74307716452E+02  0.26429613755E+02 -0.83604047645E+01  0.79309883214E+02  0.00000000000E+00 0. -1.
         21    1    1    2  502  501  0.29222215818E+02 -0.15087546394E+02 -0.12186425526E+03  0.12622388309E+03  0.00000000000E+00 0. -1.
<scales pt_clust_5="13000.00000" pt_clust_6="13000.00000" pt_clust_7="13000.00000" pt_clust_8="13000.00000" pt_clust_9="32.88726"></scales>
<clustering>
<clus scale="   32.887">  2  9  1 -1</clus>
<clus scale="   94.797">  7  8 -1 -1</clus>
<clus scale="   97.494">  5  6 -1 -1</clus>
<clus scale="  113.599">  2  7  1 -1</clus>
<clus scale="   32.887">  2  5  1 -1</clus>
</clustering>
</event>
<event>
 9    1  0.1234700E-005  0.9382765E+02  0.7546771E-02  0.1293956E+00
         -1   -1    0    0    0  501 -0.00000000000E+00  0.00000000000E+00  0.21762802475E+03  0.21762802475E+03  0.00000000000E+00 0.  1.
          1   -1    0    0  502    0  0.00000000000E+00 -0.00000000000E+00 -0.11648005907E+03  0.11648005907E+03  0.00000000000E+00 0. -1.
         23    2    1    2    0    0 -0.28746024474E+02  0.28245062395E+02  0.10576130204E+03  0.14583604878E+03  0.91970553123E+02 0.  0.
         23    2    1    2    0    0 -0.73773119192E+01  0.55499947539E+01  0.57641674008E+02  0.10875670548E+03  0.91761817936E+02 0.  0.
        -11    1    4    4    0    0 -0.27901299002E+02 -0.34768301569E+02  0.16284356867E+02  0.47460484180E+02  0.00000000000E+00 0.  1.
         11    1    4    4    0    0  0.20523987083E+02  0.40318296323E+02  0.41357317141E+02  0.61296221297E+02  0.00000000000E+00 0. -1.
        -11    1    3    3    0    0 -0.35442559866E+02  0.58081882750E+02  0.84981298714E+02  0.10886460070E+03  0.00000000000E+00 0.  1.
         11    1    3    3    0    0  0.66965353925E+01 -0.29836820355E+02  0.20780003328E+02  0.36971448085E+02  0.00000000000E+00 0. -1.
         21    1    1    2  502  501  0.36123336393E+02 -0.33795057149E+02 -0.62255010362E+02  0.79515329560E+02  0.00000000000E+00 0. -1.
<scales pt_clust_5="13000.00000" pt_clust_6="13000.00000" pt_clust_7="13000.00000" pt_clust_8="13000.00000" pt_clust_9="49.46717"></scales>
<clustering>
<clus scale="   49.467">  2  9  1 -1</clus>
<clus scale="   91.762">  5  6 -1 -1</clus>
<clus scale="   91.971">  7  8 -1 -1</clus>
<clus scale="   93.623">  2  5  1 -1</clus>
<clus scale="   49.467">  2  5  1 -1</clus>
</clustering>
</event>
<event>
 9    1  0.1234700E-005  0.9511498E+02  0.7546771E-02  0.1293051E+00
         -1   -1    0    0    0  501 -0.00000000000E+00  0.00000000000E+00  0.61791321227E+03  0.61791321227E+03  0.00000000000E+00 0.  1.
          1   -1    0    0  502    0  0.00000000000E+00 -0.00000000000E+00 -0.22651451508E+02  0.22651451508E+02  0.00000000000E+00 0. -1.
         23    2    1    2    0    0 -0.18803527964E+02 -0.32775164119E+02  0.35826330912E+03  0.37222915144E+03  0.93670478137E+02 0.  0.
         23    2    1    2    0    0  0.83897233598E+01  0.29111663431E+01  0.14284246234E+03  0.16900950360E+03  0.89896501116E+02 0.  0.
        -11    1    4    4    0    0 -0.31684110169E+02  0.15655951245E+02  0.23412803529E+02  0.42392817973E+02  0.00000000000E+00 0. -1.
         11    1    4    4    0    0  0.40073833529E+02 -0.12744784902E+02  0.11942965881E+03  0.12661668563E+03  0.00000000000E+00 0.  1.
        -13    1    3    3    0    0  0.33108543519E+02 -0.35562604611E+02  0.15600564332E+03  0.16339717025E+03  0.00000000000E+00 0.  1.
         13    1    3    3    0    0 -0.51912071483E+02  0.27874404920E+01  0.20225766580E+03  0.20883198119E+03  0.00000000000E+00 0. -1.
         21    1    1    2  502  501  0.10413804605E+02  0.29863997776E+02  0.94155989305E+02  0.99326008736E+02  0.00000000000E+00 0. -1.
<scales pt_clust_5="13000.00000" pt_clust_6="13000.00000" pt_clust_7="13000.00000" pt_clust_8="13000.00000" pt_clust_9="31.62761"></scales>
<clustering>
<clus scale="   31.628">  1  9  2 -1</clus>
<clus scale="   89.897">  5  6 -1 -1</clus>
<clus scale="   91.401">  2  5  1 -1</clus>
<clus scale="   93.670">  7  8 -1 -1</clus>
<clus scale="   91.401">  2  5  1 -1</clus>
</clustering>
</event>
<event>
 9    1  0.1234700E-005  0.9287985E+02  0.7546771E-02  0.1296753E+00
         -1   -1    0    0    0  501 -0.00000000000E+00  0.00000000000E+00  0.73779315086E+02  0.73779315086E+02  0.00000000000E+00 0.  1.
          1   -1    0    0  502    0  0.00000000000E+00 -0.00000000000E+00 -0.42215829973E+03  0.42215829973E+03  0.00000000000E+00 0. -1.
         23    2    1    2    0    0 -0.20434186492E+02  0.99538341003E+01  0.32756418593E+02  0.97814018712E+02  0.89319452006E+02 0.  0.
         23    2    1    2    0    0 -0.29422787930E+01 -0.32052048873E+01 -0.30375765299E+03  0.31701059246E+03  0.90598419655E+02 0.  0.
        -13    1    3    3    0    0 -0.83654538591E+01  0.49047964392E+02  0.26657396788E+02  0.56447324408E+02  0.00000000000E+00 0. -1.
         13    1    3    3    0    0 -0.12068732633E+02 -0.39094130292E+02  0.60990218054E+01  0.41366694304E+02  0.00000000000E+00 0.  1.
        -13    1    4    4    0    0  0.36844113524E+02 -0.19996375862E+01 -0.63206990103E+02  0.73188871079E+02  0.00000000000E+00 0.  1.
         13    1    4    4    0    0 -0.39786392317E+02 -0.12055673011E+01 -0.24055066288E+03  0.24382172139E+03  0.00000000000E+00 0. -1.
         21    1    1    2  502  501  0.23376465285E+02 -0.67486292129E+01 -0.77377750247E+02  0.81113003635E+02  0.00000000000E+00 0. -1.
<scales pt_clust_5="13000.00000" pt_clust_6="13000.00000" pt_clust_7="13000.00000" pt_clust_8="13000.00000" pt_clust_9="24.33111"></scales>
<clustering>
<clus scale="   24.331">  2  9  1 -1</clus>
<clus scale="   89.319">  5  6 -1 -1</clus>
<clus scale="   90.598">  7  8 -1 -1</clus>
<clus scale="   91.633">  1  5  2 -1</clus>
<clus scale="   24.331">  2  5  1 -1</clus>
</clustering>
</event>
<event>
 9    1  0.1234700E-005  0.8861391E+02  0.7546771E-02  0.1317803E+00
         -4   -1    0    0    0  501 -0.00000000000E+00  0.00000000000E+00  0.58600517436E+02  0.58600517436E+02  0.00000000000E+00 0.  1.
          4   -1    0    0  502    0  0.00000000000E+00 -0.00000000000E+00 -0.33861805680E+03  0.33861805680E+03  0.00000000000E+00 0. -1.
         23    2    1    2    0    0 -0.83266985162E+01  0.13385084007E+01  0.13864790045E+02  0.73079053293E+02  0.71254404175E+02 0.  0.
         23    2    1    2    0    0 -0.25625117362E+00 -0.38540073925E+02 -0.18072121982E+03  0.20471146634E+03  0.88097799037E+02 0.  0.
        -11    1    4    4    0    0 -0.63646926958E+01  0.28116236651E+02 -0.46176959997E+02  0.54436602678E+02  0.00000000000E+00 0.  1.
         11    1    4    4    0    0  0.61084415222E+01 -0.66656310576E+02 -0.13454425982E+03  0.15027486366E+03  0.00000000000E+00 0. -1.
        -13    1    3    3    0    0  0.12952671171E+02  0.31508585939E+02  0.11978012611E+02  0.36111431216E+02  0.00000000000E+00 0.  1.
         13    1    3    3    0    0 -0.21279369688E+02 -0.30170077538E+02  0.18867774333E+01  0.36967622077E+02  0.00000000000E+00 0. -1.
         21    1    1    2  502  501  0.85829496898E+01  0.37201565524E+02 -0.11316110960E+03  0.11942805461E+03  0.00000000000E+00 0. -1.
<scales pt_clust_5="13000.00000" pt_clust_6="13000.00000" pt_clust_7="13000.00000" pt_clust_8="13000.00000" pt_clust_9="38.17884"></scales>
<clustering>
<clus scale="   38.179">  2  9  1 -1</clus>
<clus scale="   71.254">  7  8 -1 -1</clus>
<clus scale="   71.892">  1  7  2 -1</clus>
<clus scale="   88.098">  5  6 -1 -1</clus>
<clus scale="   38.179">  2  5  1 -1</clus>
</clustering>
</event>
<event>
 9    1  0.1234700E-005  0.9832053E+02  0.7546771E-02  0.1296603E+00
         -1   -1    0    0    0  501 -0.00000000000E+00  0.00000000000E+00  0.51494623729E+02  0.51494623729E+02  0.00000000000E+00 0.  1.
          1   -1    0    0  502    0  0.00000000000E+00 -0.00000000000E+00 -0.32332082190E+03  0.32332082190E+03  0.00000000000E+00 0. -1.
         23    2    1    2    0    0 -0.38541149553E+02 -0.17600758927E+02 -0.27977752616E+02  0.10522618371E+03  0.92166090144E+02 0.  0.
         23    2    1    2    0    0 -0.73221199849E+00  0.25630611686E+02 -0.17298342624E+03  0.18817227091E+03  0.69484339214E+02 0.  0.
        -13    1    3    3    0    0  0.20222845333E+02  0.13573776014E+01  0.18890656489E+02  0.27706729325E+02  0.00000000000E+00 0.  1.
         13    1    3    3    0    0 -0.58763994886E+02 -0.18958136529E+02 -0.46868409105E+02  0.77519454381E+02  0.00000000000E+00 0. -1.
        -13    1    4    4    0    0  0.24570272587E+02 -0.12994411027E+02 -0.69665821979E+02  0.75005864870E+02  0.00000000000E+00 0.  1.
         13    1    4    4    0    0 -0.25302484585E+02  0.38625022713E+02 -0.10331760426E+03  0.11316640604E+03  0.00000000000E+00 0. -1.
         21    1    1    2  502  501  0.39273361551E+02 -0.80298527589E+01 -0.70865019311E+02  0.81416991008E+02  0.00000000000E+00 0. -1.
<scales pt_clust_5="13000.00000" pt_clust_6="13000.00000" pt_clust_7="13000.00000" pt_clust_8="13000.00000" pt_clust_9="40.08585"></scales>
<clustering>
<clus scale="   40.086">  2  9  1 -1</clus>
<clus scale="   69.484">  7  8 -1 -1</clus>
<clus scale="   77.462">  2  7  1 -1</clus>
<clus scale="   92.166">  5  6 -1 -1</clus>
<clus scale="   40.086">  2  5  1 -1</clus>
</clustering>
</event>
<event>
 9    1  0.1234700E-005  0.2287327E+03  0.7546771E-02  0.1127693E+00
         -1   -1    0    0    0  501 -0.00000000000E+00  0.00000000000E+00  0.24796928599E+03  0.24796928599E+03  0.00000000000E+00 0.  1.
          1   -1    0    0  502    0  0.00000000000E+00 -0.00000000000E+00 -0.25596835963E+03  0.25596835963E+03  0.00000000000E+00 0. -1.
         23    2    1    2    0    0 -0.20770004695E+03 -0.64254124525E+02  0.62648999805E+02  0.24476000453E+03  0.93352346632E+02 0.  0.
         23    2    1    2    0    0  0.18449786190E+03  0.68215065658E+02 -0.39874801917E+02  0.22043458125E+03  0.91151788535E+02 0.  0.
        -11    1    4    4    0    0  0.95649202005E+02 -0.34675222696E+01  0.92414119019E+01  0.96157148714E+02  0.00000000000E+00 0. -1.
         11    1    4    4    0    0  0.88848659899E+02  0.71682587927E+02 -0.49116213819E+02  0.12427743254E+03  0.00000000000E+00 0.  1.
        -13    1    3    3    0    0 -0.85596358470E+02 -0.31689653817E+01  0.66086170246E+02  0.10818576996E+03  0.00000000000E+00 0.  1.
         13    1    3    3    0    0 -0.12210368848E+03 -0.61085159143E+02 -0.34371704409E+01  0.13657423457E+03  0.00000000000E+00 0. -1.
         21    1    1    2  502  501  0.23202185044E+02 -0.39609411329E+01 -0.30773271528E+02  0.38743059844E+02  0.00000000000E+00 0. -1.
<scales pt_clust_5="13000.00000" pt_clust_6="13000.00000" pt_clust_7="13000.00000" pt_clust_8="13000.00000" pt_clust_9="23.53785"></scales>
<clustering>
<clus scale="   23.538">  2  9  1 -1</clus>
<clus scale="   91.152">  5  6 -1 -1</clus>
<clus scale="   93.352">  7  8 -1 -1</clus>
<clus scale="  227.843">  2  5  1 -1</clus>
<clus scale="   23.538">  2  5  1 -1</clus>
</clustering>
</event>
<event>
 9    1  0.1234700E-005  0.9878858E+02  0.7546771E-02  0.1284010E+00
          1   -1    0    0  502    0  0.00000000000E+00  0.00000000000E+00  0.27979604396E+03  0.27979604396E+03  0.00000000000E+00 0. -1.
         -1   -1    0    0    0  501 -0.00000000000E+00 -0.00000000000E+00 -0.80992974570E+02  0.80992974570E+02  0.00000000000E+00 0.  1.
         23    2    1    2    0    0  0.30783016523E+02  0.53930272130E+01  0.34258331784E+02  0.99829782157E+02  0.88406296496E+02 0.  0.
         23    2    1    2    0    0 -0.31319099558E+02 -0.57046218357E+02  0.23019679785E+02  0.11030173894E+03  0.86031453146E+02 0.  0.
        -11    1    3    3    0    0 -0.27750456559E+02  0.12125462944E+01  0.30163056385E+02  0.41004488513E+02  0.00000000000E+00 0.  1.
         11    1    3    3    0    0  0.58533473082E+02  0.41804809186E+01  0.40952753990E+01  0.58825293644E+02  0.00000000000E+00 0. -1.
        -11    1    4    4    0    0 -0.89398005192E+00 -0.29767389663E+02  0.52194019555E+02  0.60092531691E+02  0.00000000000E+00 0. -1.
         11    1    4    4    0    0 -0.30425119506E+02 -0.27278828694E+02 -0.29174339770E+02  0.50209207252E+02  0.00000000000E+00 0.  1.
         21    1    1    2  502  501  0.53608303455E+00  0.51653191144E+02  0.14152505782E+03  0.15065749743E+03  0.00000000000E+00 0. -1.
<scales pt_clust_5="13000.00000" pt_clust_6="13000.00000" pt_clust_7="13000.00000" pt_clust_8="13000.00000" pt_clust_9="51.65597"></scales>
<clustering>
<clus scale="   51.656">  1  9  2 -1</clus>
<clus scale="   86.031">  7  8 -1 -1</clus>
<clus scale="   88.406">  5  6 -1 -1</clus>
<clus scale="   96.669">  1  7  2 -1</clus>
<clus scale="   51.656">  1  5  2 -1</clus>
</clustering>
</event>
<event>
 9    1  0.1234700E-005  0.9746643E+02  0.7546771E-02  0.1285741E+00
          2   -1    0    0  502    0  0.00000000000E+00  0.00000000000E+00  0.11398922300E+03  0.11398922300E+03  0.00000000000E+00 0. -1.
         -2   -1    0    0    0  501 -0.00000000000E+00 -0.00000000000E+00 -0.34042443987E+03  0.34042443987E+03  0.00000000000E+00 0.  1.
         23    2    1    2    0    0  0.49217680778E+00  0.35453080264E+02 -0.29797446646E+03  0.31365404267E+03  0.91284788882E+02 0.  0.
         23    2    1    2    0    0  0.16087623725E+02 -0.21974342984E+02  0.41423170633E+02  0.10383341872E+03  0.91234951591E+02 0.  0.
        -11    1    4    4    0    0  0.31667135866E+02  0.28020332622E+02  0.12926224919E+02  0.44215764438E+02  0.00000000000E+00 0.  1.
         11    1    4    4    0    0 -0.15579512141E+02 -0.49994675606E+02  0.28496945714E+02  0.59617654285E+02  0.00000000000E+00 0. -1.
        -13    1    3    3    0    0  0.90449409584E+01 -0.24739817998E+02 -0.35355444405E+02  0.44089420506E+02  0.00000000000E+00 0. -1.
         13    1    3    3    0    0 -0.85527641506E+01  0.60192898262E+02 -0.26261902205E+03  0.26956462216E+03  0.00000000000E+00 0.  1.
         21    1    1    2  502  501 -0.16579800533E+02 -0.13478737279E+02  0.30116078954E+02  0.36926201482E+02  0.00000000000E+00 0. -1.
<scales pt_clust_5="13000.00000" pt_clust_6="13000.00000" pt_clust_7="13000.00000" pt_clust_8="13000.00000" pt_clust_9="21.36741"></scales>
<clustering>
<clus scale="   21.367">  1  9  2 -1</clus>
<clus scale="   91.235">  5  6 -1 -1</clus>
<clus scale="   91.285">  7  8 -1 -1</clus>
<clus scale="   97.420">  1  5  2 -1</clus>
<clus scale="   21.367">  1  5  2 -1</clus>
</clustering>
</event>
<event>
 9    1  0.1234700E-005  0.1071233E+03  0.7546771E-02  0.1266343E+00
         -3   -1    0    0    0  501 -0.00000000000E+00  0.00000000000E+00  0.89555714044E+02  0.89555714044E+02  0.00000000000E+00 0.  1.
          3   -1    0    0  502    0  0.00000000000E+00 -0.00000000000E+00 -0.19865340155E+03  0.19865340155E+03  0.00000000000E+00 0. -1.
         23    2    1    2    0    0  0.41903766196E+02  0.37131937341E+02  0.13806772442E+02  0.10696874971E+03  0.90094284270E+02 0.  0.
         23    2    1    2    0    0 -0.57994392027E+02 -0.20498052071E+02 -0.10562249839E+03  0.15235679660E+03  0.90955822578E+02 0.  0.
        -11    1    4    4    0    0 -0.31224527153E+02 -0.33322664506E+02 -0.11290740425E+03  0.12179266398E+03  0.00000000000E+00 0. -1.
         11    1    4    4    0    0 -0.26769864873E+02  0.12824612435E+02  0.72849058631E+01  0.30564132621E+02  0.00000000000E+00 0.  1.
        -13    1    3    3    0    0  0.60426228689E+02 -0.41390344257E+01  0.41300483882E+01  0.60708467443E+02  0.00000000000E+00 0. -1.
         13    1    3    3    0    0 -0.18522462493E+02  0.41270971767E+02  0.96767240536E+01  0.46260282271E+02  0.00000000000E+00 0.  1.
         21    1    1    2  502  501  0.16090625831E+02 -0.16633885270E+02 -0.17281961566E+02  0.28883569281E+02  0.00000000000E+00 0.  1.
<scales pt_clust_5="13000.00000" pt_clust_6="13000.00000" pt_clust_7="13000.00000" pt_clust_8="13000.00000" pt_clust_9="23.14291"></scales>
<clustering>
<clus scale="   23.143">  2  9  1 -1</clus>
<clus scale="   90.094">  7  8 -1 -1</clus>
<clus scale="   90.956">  5  6 -1 -1</clus>
<clus scale="  106.393">  1  7  2 -1</clus>
<clus scale="   23.143">  2  5  1 -1</clus>
</clustering>
</event>
<event>
 9    1  0.1234700E-005  0.9434740E+02  0.7546771E-02  0.1294635E+00
          3   -1    0    0  502    0  0.00000000000E+00  0.00000000000E+00  0.42856948749E+02  0.42856948749E+02  0.00000000000E+00 0. -1.
         -3   -1    0    0    0  501 -0.00000000000E+00 -0.00000000000E+00 -0.39939365104E+03  0.39939365104E+03  0.00000000000E+00 0.  1.
         23    2    1    2    0    0 -0.12063451822E+01  0.62363849047E+01 -0.27518638898E+03  0.28982557157E+03  0.90724668562E+02 0.  0.
         23    2    1    2    0    0 -0.25525017578E+02  0.54635467126E+01 -0.73340452408E+02  0.12216594650E+03  0.94150515987E+02 0.  0.
        -13    1    3    3    0    0  0.40513360401E+02  0.53654611183E+01 -0.19706453536E+03  0.20125742630E+03  0.00000000000E+00 0.  1.
         13    1    3    3    0    0 -0.41719705583E+02  0.87092378637E+00 -0.78121853625E+02  0.88568145267E+02  0.00000000000E+00 0. -1.
        -13    1    4    4    0    0  0.31500522961E+02 -0.17354760170E+02 -0.22408570383E+02  0.42374693792E+02  0.00000000000E+00 0.  1.
         13    1    4    4    0    0 -0.57025540538E+02  0.22818306883E+02 -0.50931882025E+02  0.79791252711E+02  0.00000000000E+00 0. -1.
         21    1    1    2  502  501  0.26731362760E+02 -0.11699931617E+02 -0.80098608971E+01  0.30259081718E+02  0.00000000000E+00 0. -1.
<scales pt_clust_5="13000.00000" pt_clust_6="13000.00000" pt_clust_7="13000.00000" pt_clust_8="13000.00000" pt_clust_9="29.17969"></scales>
<clustering>
<clus scale="   29.180">  1  9  2 -1</clus>
<clus scale="   90.725">  5  6 -1 -1</clus>
<clus scale="   90.929">  2  5  1 -1</clus>
<clus scale="   94.151">  7  8 -1 -1</clus>
<clus scale="   29.180">  1  5  2 -1</clus>
</clustering>
</event>
<event>
 9    1  0.1234700E-005  0.1178396E+03  0.7546771E-02  0.1246946E+00
         -2   -1    0    0    0  501 -0.00000000000E+00  0.00000000000E+00  0.74744063251E+02  0.74744063251E+02  0.00000000000E+00 0.  1.
          2   -1    0    0  502    0  0.00000000000E+00 -0.00000000000E+00 -0.64583960788E+03  0.64583960788E+03  0.00000000000E+00 0. -1.
         23    2    1    2    0    0 -0.21889172779E+02 -0.90735971398E+01 -0.48672815334E+02  0.10526384840E+03  0.90277177504E+02 0.  0.
         23    2    1    2    0    0 -0.34633078269E+01  0.94055532543E+02 -0.50906923602E+03  0.52563708526E+03  0.91018792777E+02 0.  0.
        -11    1    4    4    0    0  0.39238812041E+02  0.18328958348E+02 -0.14484087485E+03  0.15117709520E+03  0.00000000000E+00 0.  1.
         11    1    4    4    0    0 -0.42702119868E+02  0.75726574195E+02 -0.36422836116E+03  0.37445999006E+03  0.00000000000E+00 0. -1.
        -13    1    3    3    0    0 -0.43744755811E+02  0.20505315596E+02 -0.56150422690E+01  0.48637437518E+02  0.00000000000E+00 0. -1.
         13    1    3    3    0    0  0.21855583032E+02 -0.29578912736E+02 -0.43057773065E+02  0.56626410884E+02  0.00000000000E+00 0.  1.
         21    1    1    2  502  501  0.25352480606E+02 -0.84981935403E+02 -0.13353493281E+02  0.89682737472E+02  0.00000000000E+00 0.  1.
<scales pt_clust_5="13000.00000" pt_clust_6="13000.00000" pt_clust_7="13000.00000" pt_clust_8="13000.00000" pt_clust_9="88.68302"></scales>
<clustering>
<clus scale="   88.683">  1  9  2 -1</clus>
<clus scale="   90.277">  7  8 -1 -1</clus>
<clus scale="   91.019">  5  6 -1 -1</clus>
<clus scale="  117.268">  1  7  2 -1</clus>
<clus scale="  117.840">  2  5  1 -1</clus>
</clustering>
</event>
<event>
 9    1  0.1234700E-005  0.1024470E+03  0.7546771E-02  0.1278756E+00
          2   -1    0    0  502    0  0.00000000000E+00  0.00000000000E+00  0.34377226134E+02  0.34377226134E+02  0.00000000000E+00 0. -1.
         -2   -1    0    0    0  501 -0.00000000000E+00 -0.00000000000E+00 -0.60132010042E+03  0.60132010042E+03  0.00000000000E+00 0.  1.
         23    2    1    2    0    0 -0.13774273401E+02 -0.12583753203E+02 -0.42129362612E+03  0.43175425721E+03  0.92603119571E+02 0.  0.
         23    2    1    2    0    0  0.26999099465E+02  0.39147977475E+02 -0.12974638978E+03  0.17027624680E+03  0.99490497293E+02 0.  0.
        -11    1    3    3    0    0  0.17386511749E+02  0.32921495868E+02 -0.12731497721E+03  0.13264697170E+03  0.00000000000E+00 0.  1.
         11    1    3    3    0    0 -0.31160785151E+02 -0.45505249070E+02 -0.29397864891E+03  0.29910728550E+03  0.00000000000E+00 0. -1.
        -11    1    4    4    0    0  0.22009631181E+01 -0.32963899886E+02 -0.50080884340E+02  0.59996315809E+02  0.00000000000E+00 0. -1.
         11    1    4    4    0    0  0.24798136346E+02  0.72111877361E+02 -0.79665505435E+02  0.11027993099E+03  0.00000000000E+00 0.  1.
         21    1    1    2  502  501 -0.13224826063E+02 -0.26564224272E+02 -0.15902858391E+02  0.33666822550E+02  0.00000000000E+00 0. -1.
<scales pt_clust_5="13000.00000" pt_clust_6="13000.00000" pt_clust_7="13000.00000" pt_clust_8="13000.00000" pt_clust_9="29.67413"></scales>
<clustering>
<clus scale="   29.674">  1  9  2 -1</clus>
<clus scale="   92.603">  5  6 -1 -1</clus>
<clus scale="   95.773">  2  5  1 -1</clus>
<clus scale="   99.490">  7  8 -1 -1</clus>
<clus scale="   29.674">  1  5  2 -1</clus>
</clustering>
</event>
<event>
 9    1  0.1234700E-005  0.1454225E+03  0.7546771E-02  0.1222162E+00
          2   -1    0    0  502    0  0.00000000000E+00  0.00000000000E+00  0.71899752433E+03  0.71899752433E+03  0.00000000000E+00 0. -1.
         -2   -1    0    0    0  501 -0.00000000000E+00 -0.00000000000E+00 -0.58257026739E+02  0.58257026739E+02  0.00000000000E+00 0.  1.
         23    2    1    2    0    0  0.15771933704E+02 -0.47689137506E+02  0.72001610567E+02  0.12624288996E+03  0.90719499629E+02 0.  0.
         23    2    1    2    0    0 -0.12304939897E+03  0.59025435769E+02  0.28086825839E+03  0.32478889950E+03  0.89306741144E+02 0.  0.
        -11    1    3    3    0    0  0.35620578272E+02 -0.50231854363E+02  0.11665465569E+02  0.62674938182E+02  0.00000000000E+00 0.  1.
         11    1    3    3    0    0 -0.19848644569E+02  0.25427168567E+01  0.60336144998E+02  0.63567951780E+02  0.00000000000E+00 0. -1.
        -13    1    4    4    0    0 -0.37388354605E+02  0.22934012282E+02  0.18927562870E+03  0.19429133177E+03  0.00000000000E+00 0.  1.
         13    1    4    4    0    0 -0.85661044367E+02  0.36091423487E+02  0.91592629684E+02  0.13049756773E+03  0.00000000000E+00 0. -1.
         21    1    1    2  502  501  0.10727746527E+03 -0.11336298263E+02  0.30787062864E+03  0.32622276161E+03  0.00000000000E+00 0.  1.
<scales pt_clust_5="13000.00000" pt_clust_6="13000.00000" pt_clust_7="13000.00000" pt_clust_8="13000.00000" pt_clust_9="114.76936"></scales>
<clustering>
<clus scale="   89.307">  7  8 -1 -1</clus>
<clus scale="   90.719">  5  6 -1 -1</clus>
<clus scale="  103.697">  2  5  1 -1</clus>
<clus scale="  114.769">  1  9  2 -1</clus>
<clus scale="  114.769">  1  5  2 -1</clus>
</clustering>
</event>
<event>
 9    1  0.1234700E-005  0.1422729E+03  0.7546771E-02  0.1217745E+00
         -1   -1    0    0    0  501 -0.00000000000E+00  0.00000000000E+00  0.21332010858E+03  0.21332010858E+03  0.00000000000E+00 0.  1.
          1   -1    0    0  502    0  0.00000000000E+00 -0.00000000000E+00 -0.20053182078E+03  0.20053182078E+03  0.00000000000E+00 0. -1.
         23    2    1    2    0    0  0.45964844634E+02  0.60021584983E+02  0.13883550328E+03  0.19768165141E+03  0.11869027225E+03 0.  0.
         23    2    1    2    0    0 -0.73951932833E+02 -0.53135431581E+02 -0.58160165635E+02  0.14241834407E+03  0.92779940737E+02 0.  0.
        -13    1    4    4    0    0 -0.92451500432E+02 -0.37824217048E+02 -0.62757934086E+02  0.11796825682E+03  0.00000000000E+00 0. -1.
         13    1    4    4    0    0  0.18499567599E+02 -0.15311214533E+02  0.45977684508E+01  0.24450087250E+02  0.00000000000E+00 0.  1.
        -13    1    3    3    0    0  0.73614579704E+02  0.75334249746E+02  0.85409709192E+02  0.13560668846E+03  0.00000000000E+00 0.  1.
         13    1    3    3    0    0 -0.27649735071E+02 -0.15312664764E+02  0.53425794085E+02  0.62074962950E+02  0.00000000000E+00 0. -1.
         21    1    1    2  502  501  0.27987088200E+02 -0.68861534017E+01 -0.67887049837E+02  0.73751933874E+02  0.00000000000E+00 0. -1.
<scales pt_clust_5="13000.00000" pt_clust_6="13000.00000" pt_clust_7="13000.00000" pt_clust_8="13000.00000" pt_clust_9="28.82180"></scales>
<clustering>
<clus scale="   28.822">  2  9  1 -1</clus>
<clus scale="   92.780">  5  6 -1 -1</clus>
<clus scale="  118.690">  7  8 -1 -1</clus>
<clus scale="  121.500">  2  5  1 -1</clus>
<clus scale="   28.822">  2  5  1 -1</clus>
</clustering>
</event>
<event>
 9    1  0.1234700E-005  0.1179773E+03  0.7546771E-02  0.1246495E+00
         -1   -1    0    0    0  501 -0.00000000000E+00  0.00000000000E+00  0.32037737457E+03  0.32037737457E+03  0.00000000000E+00 0.  1.
          1   -1    0    0  502    0  0.00000000000E+00 -0.00000000000E+00 -0.20054320397E+03  0.20054320397E+03  0.00000000000E+00 0. -1.
         23    2    1    2    0    0 -0.99604536373E+02 -0.51305527128E+02  0.18980921192E+03  0.23878601329E+03  0.91858055908E+02 0.  0.
         23    2    1    2    0    0  0.95152243199E+01  0.41614607937E+02  0.64463811254E+02  0.12001176258E+03  0.91787390799E+02 0.  0.
        -13    1    3    3    0    0 -0.41783731463E+02  0.25015960309E+02  0.55454630380E+02  0.73803079311E+02  0.00000000000E+00 0.  1.
         13    1    3    3    0    0 -0.57820804910E+02 -0.76321487437E+02  0.13435458154E+03  0.16498293398E+03  0.00000000000E+00 0. -1.
        -13    1    4    4    0    0  0.30077044593E+02 -0.96526074883E+01 -0.42239155588E+01  0.31869152882E+02  0.00000000000E+00 0. -1.
         13    1    4    4    0    0 -0.20561820273E+02  0.51267215425E+02  0.68687726813E+02  0.88142609702E+02  0.00000000000E+00 0.  1.
         21    1    1    2  502  501  0.90089312053E+02  0.96909191912E+01 -0.13443885257E+03  0.16212280266E+03  0.00000000000E+00 0. -1.
<scales pt_clust_5="13000.00000" pt_clust_6="13000.00000" pt_clust_7="13000.00000" pt_clust_8="13000.00000" pt_clust_9="90.60904"></scales>
<clustering>
<clus scale="   90.609">  2  9  1 -1</clus>
<clus scale="   91.787">  7  8 -1 -1</clus>
<clus scale="   91.858">  5  6 -1 -1</clus>
<clus scale="  117.922">  2  7  1 -1</clus>
<clus scale="   90.609">  2  5  1 -1</clus>
</clustering>
</event>
<event>
 9    1  0.1234700E-005  0.1125312E+03  0.7546771E-02  0.1256262E+00
         -1   -1    0    0    0  501 -0.00000000000E+00  0.00000000000E+00  0.17457090256E+03  0.17457090256E+03  0.00000000000E+00 0.  1.
          1   -1    0    0  502    0  0.00000000000E+00 -0.00000000000E+00 -0.17465235401E+03  0.17465235401E+03  0.00000000000E+00 0. -1.
         23    2    1    2    0    0 -0.62941289910E+02  0.26880510899E+02  0.11192918617E+03  0.15956212984E+03  0.90817193977E+02 0.  0.
         23    2    1    2    0    0  0.62410291263E+02  0.79874314379E+01 -0.10892671330E+03  0.15465304264E+03  0.89964944343E+02 0.  0.
        -11    1    4    4    0    0 -0.63372436869E+01 -0.23362656547E+02 -0.59838043346E+02  0.64548941200E+02  0.00000000000E+00 0.  1.
         11    1    4    4    0    0  0.68747534950E+02  0.31350087985E+02 -0.49088669955E+02  0.90104101440E+02  0.00000000000E+00 0. -1.
        -11    1    3    3    0    0 -0.81237604892E+01  0.31513279605E+02  0.97356631966E+02  0.10265181958E+03  0.00000000000E+00 0.  1.
         11    1    3    3    0    0 -0.54817529421E+02 -0.46327687058E+01  0.14572554199E+02  0.56910310257E+02  0.00000000000E+00 0. -1.
         21    1    1    2  502  501  0.53099864694E+00 -0.34867942337E+02 -0.30839243161E+01  0.35008084088E+02  0.00000000000E+00 0. -1.
<scales pt_clust_5="13000.00000" pt_clust_6="13000.00000" pt_clust_7="13000.00000" pt_clust_8="13000.00000" pt_clust_9="34.87199"></scales>
<clustering>
<clus scale="   34.872">  2  9  1 -1</clus>
<clus scale="   89.965">  5  6 -1 -1</clus>
<clus scale="   90.817">  7  8 -1 -1</clus>
<clus scale="  111.845">  2  5  1 -1</clus>
<clus scale="   34.872">  2  5  1 -1</clus>
</clustering>
</event>
<event>
 9    1  0.1234700E-005  0.1551966E+03  0.7546771E-02  0.1216035E+00
         -1   -1    0    0    0  501 -0.00000000000E+00  0.00000000000E+00  0.15275464880E+03  0.15275464880E+03  0.00000000000E+00 0.  1.
          1   -1    0    0  502    0  0.00000000000E+00 -0.00000000000E+00 -0.40167161700E+03  0.40167161700E+03  0.00000000000E+00 0. -1.
         23    2    1    2    0    0  0.50138016461E+01 -0.34804047567E+02 -0.18345203193E+02  0.98762141849E+02  0.90448627676E+02 0.  0.
         23    2    1    2    0    0  0.11014279654E+03  0.80826901543E+02  0.29781759968E+02  0.16728398738E+03  0.91828947316E+02 0.  0.
        -11    1    4    4    0    0  0.11864390657E+03  0.61675010075E+02  0.45330314714E+02  0.14119143340E+03  0.00000000000E+00 0. -1.
         11    1    4    4    0    0 -0.85011100295E+01  0.19151891467E+02 -0.15548554746E+02  0.26092553980E+02  0.00000000000E+00 0.  1.
        -13    1    3    3    0    0 -0.16643154134E+02  0.22024220427E+02  0.12808103892E+02  0.30432029020E+02  0.00000000000E+00 0.  1.
         13    1    3    3    0    0  0.21656955780E+02 -0.56828267994E+02 -0.31153307085E+02  0.68330112829E+02  0.00000000000E+00 0. -1.
         21    1    1    2  502  501 -0.11515659819E+03 -0.46022853976E+02 -0.26035352498E+03  0.28838013656E+03  0.00000000000E+00 0.  1.
<scales pt_clust_5="13000.00000" pt_clust_6="13000.00000" pt_clust_7="13000.00000" pt_clust_8="13000.00000" pt_clust_9="125.11361"></scales>
<clustering>
<clus scale="   90.449">  7  8 -1 -1</clus>
<clus scale="   91.829">  5  6 -1 -1</clus>
<clus scale="   97.043">  1  7  2 -1</clus>
<clus scale="  125.114">  2  9  1 -1</clus>
<clus scale="  125.114">  2  5  1 -1</clus>
</clustering>
</event>
<event>
 9    1  0.1234700E-005  0.1339846E+03  0.7546771E-02  0.1222056E+00
         -2   -1    0    0    0  501 -0.00000000000E+00  0.00000000000E+00  0.12429618024E+03  0.12429618024E+03  0.00000000000E+00 0.  1.
          2   -1    0    0  502    0  0.00000000000E+00 -0.00000000000E+00 -0.42486476223E+03  0.42486476223E+03  0.00000000000E+00 0. -1.
         23    2    1    2    0    0  0.71171586652E+02  0.66622045705E+02  0.64725008000E+02  0.14829173805E+03  0.91089083835E+02 0.  0.
         23    2    1    2    0    0 -0.92431689371E+02 -0.53666227984E+02 -0.32305741374E+03  0.35184125560E+03  0.89456667402E+02 0.  0.
        -11    1    3    3    0    0  0.66345333615E+01  0.30325526261E+02 -0.19099638601E+02  0.36447918605E+02  0.00000000000E+00 0. -1.
         11    1    3    3    0    0  0.64537053291E+02  0.36296519443E+02  0.83824646601E+02  0.11184381945E+03  0.00000000000E+00 0.  1.
        -13    1    4    4    0    0 -0.19546262841E+02 -0.62075097743E+02 -0.13174258068E+03  0.14694040192E+03  0.00000000000E+00 0.  1.
         13    1    4    4    0    0 -0.72885426531E+02  0.84088697594E+01 -0.19131483306E+03  0.20490085368E+03  0.00000000000E+00 0. -1.
         21    1    1    2  502  501  0.21260102719E+02 -0.12955817721E+02 -0.42236176247E+02  0.49027948809E+02  0.00000000000E+00 0. -1.
<scales pt_clust_5="13000.00000" pt_clust_6="13000.00000" pt_clust_7="13000.00000" pt_clust_8="13000.00000" pt_clust_9="24.89669"></scales>
<clustering>
<clus scale="   24.897">  2  9  1 -1</clus>
<clus scale="   89.457">  7  8 -1 -1</clus>
<clus scale="   91.089">  5  6 -1 -1</clus>
<clus scale="  132.880">  2  7  1 -1</clus>
<clus scale="   24.897">  2  5  1 -1</clus>
</clustering>
</event>
<event>
 9    1  0.1234700E-005  0.1038031E+03  0.7546771E-02  0.1283765E+00
         -2   -1    0    0    0  501 -0.00000000000E+00  0.00000000000E+00  0.27524271777E+03  0.27524271777E+03  0.00000000000E+00 0.  1.
          2   -1    0    0  502    0  0.00000000000E+00 -0.00000000000E+00 -0.10928584123E+03  0.10928584123E+03  0.00000000000E+00 0. -1.
         23    2    1    2    0    0 -0.31845059427E+02 -0.13003422315E+02  0.12278201673E+03  0.14426151100E+03  0.67474166337E+02 0.  0.
         23    2    1    2    0    0  0.19895268636E+02  0.51376380814E+02 -0.65031287359E+02  0.12483805800E+03  0.91214681774E+02 0.  0.
        -11    1    3    3    0    0 -0.17082320125E+02 -0.40730278770E+02  0.67138457696E+02  0.80363759066E+02  0.00000000000E+00 0.  1.
         11    1    3    3    0    0 -0.14762739302E+02  0.27726856455E+02  0.55643559031E+02  0.63897751934E+02  0.00000000000E+00 0. -1.
        -13    1    4    4    0    0 -0.34870099665E+02  0.21084366295E+02 -0.11130352310E+02  0.42241674864E+02  0.00000000000E+00 0.  1.
         13    1    4    4    0    0  0.54765368302E+02  0.30292014519E+02 -0.53900935049E+02  0.82596383141E+02  0.00000000000E+00 0. -1.
         21    1    1    2  502  501  0.11949790791E+02 -0.38372958499E+02  0.10820614717E+03  0.11542898999E+03  0.00000000000E+00 0.  1.
<scales pt_clust_5="13000.00000" pt_clust_6="13000.00000" pt_clust_7="13000.00000" pt_clust_8="13000.00000" pt_clust_9="40.19056"></scales>
<clustering>
<clus scale="   40.191">  1  9  2 -1</clus>
<clus scale="   67.474">  5  6 -1 -1</clus>
<clus scale="   83.712">  1  5  2 -1</clus>
<clus scale="   91.215">  7  8 -1 -1</clus>
<clus scale="  103.803">  2  5  1 -1</clus>
</clustering>
</event>
<event>
 9    1  0.1234700E-005  0.9457117E+02  0.7546771E-02  0.1292901E+00
         -1   -1    0    0    0  501 -0.00000000000E+00  0.00000000000E+00  0.35429817459E+03  0.35429817459E+03  0.00000000000E+00 0.  1.
          1   -1    0    0  502    0  0.00000000000E+00 -0.00000000000E+00 -0.44265499983E+03  0.44265499983E+03  0.00000000000E+00 0. -1.
         23    2    1    2    0    0 -0.14069233099E+02 -0.19824330646E+02  0.33171138159E+03  0.34458573988E+03  0.90088534483E+02 0.  0.
         23    2    1    2    0    0 -0.22743705116E+02  0.36089886213E+02 -0.15974798621E+03  0.18895449261E+03  0.91458324763E+02 0.  0.
        -11    1    3    3    0    0 -0.14203587245E+02 -0.52289266933E+02  0.13952920070E+03  0.14968068404E+03  0.00000000000E+00 0.  1.
         11    1    3    3    0    0  0.13435414629E+00  0.32464936287E+02  0.19218218089E+03  0.19490505583E+03  0.00000000000E+00 0. -1.
        -11    1    4    4    0    0  0.20966129934E+02 -0.15389122431E+02 -0.17092681508E+02  0.31121752115E+02  0.00000000000E+00 0.  1.
         11    1    4    4    0    0 -0.43709835050E+02  0.51479008645E+02 -0.14265530471E+03  0.15783274049E+03  0.00000000000E+00 0. -1.
         21    1    1    2  502  501  0.36812938215E+02 -0.16265555568E+02 -0.26032022062E+03  0.26341294194E+03  0.00000000000E+00 0.  1.
<scales pt_clust_5="13000.00000" pt_clust_6="13000.00000" pt_clust_7="13000.00000" pt_clust_8="13000.00000" pt_clust_9="40.24625"></scales>
<clustering>
<clus scale="   40.246">  2  9  1 -1</clus>
<clus scale="   90.089">  5  6 -1 -1</clus>
<clus scale="   91.458">  7  8 -1 -1</clus>
<clus scale="   93.247">  1  5  2 -1</clus>
<clus scale="   40.246">  2  5  1 -1</clus>
</clustering>
</event>
<event>
 9    1  0.1234700E-005  0.9849455E+02  0.7546771E-02  0.1287762E+00
         -2   -1    0    0    0  501 -0.00000000000E+00  0.00000000000E+00  0.46053013067E+02  0.46053013067E+02  0.00000000000E+00 0.  1.
          2   -1    0    0  502    0  0.00000000000E+00 -0.00000000000E+00 -0.34585730368E+03  0.34585730368E+03  0.00000000000E+00 0. -1.
         23    2    1    2    0    0  0.19477422165E+02 -0.13108720519E+02 -0.63918273645E+02  0.11238698464E+03  0.89409619629E+02 0.  0.
         23    2    1    2    0    0 -0.26457872460E+01 -0.27842036924E+02 -0.19306518386E+03  0.21792875266E+03  0.97142147435E+02 0.  0.
        -11    1    3    3    0    0 -0.31907410188E+02  0.11056275481E+02 -0.35110215883E+02  0.48713974502E+02  0.00000000000E+00 0. -1.
         11    1    3    3    0    0  0.51384832353E+02 -0.24164996000E+02 -0.28808057762E+02  0.63673010135E+02  0.00000000000E+00 0.  1.
        -11    1    4    4    0    0 -0.49510175639E+02 -0.18695586795E+02 -0.11132640608E+03  0.12326536881E+03  0.00000000000E+00 0. -1.
         11    1    4    4    0    0  0.46864388393E+02 -0.91464501292E+01 -0.81738777776E+02  0.94663383849E+02  0.00000000000E+00 0.  1.
         21    1    1    2  502  501 -0.16831634919E+02  0.40950757443E+02 -0.42820833114E+02  0.61594579451E+02  0.00000000000E+00 0.  1.
<scales pt_clust_5="13000.00000" pt_clust_6="13000.00000" pt_clust_7="13000.00000" pt_clust_8="13000.00000" pt_clust_9="44.27492"></scales>
<clustering>
<clus scale="   44.275">  1  9  2 -1</clus>
<clus scale="   89.410">  5  6 -1 -1</clus>
<clus scale="   90.877">  1  5  2 -1</clus>
<clus scale="   97.142">  7  8 -1 -1</clus>
<clus scale="   98.495">  2  5  1 -1</clus>
</clustering>
</event>
<event>
 9    1  0.1234700E-005  0.1856155E+03  0.7546771E-02  0.1162513E+00
         -1   -1    0    0    0  501 -0.00000000000E+00  0.00000000000E+00  0.24694146373E+03  0.24694146373E+03  0.00000000000E+00 0.  1.
          1   -1    0    0  502    0  0.00000000000E+00 -0.00000000000E+00 -0.23556219166E+03  0.23556219166E+03  0.00000000000E+00 0. -1.
         23    2    1    2    0    0  0.13054435036E+03 -0.11849613153E+03  0.12241769142E+03  0.23355005142E+03  0.92067229497E+02 0.  0.
         23    2    1    2    0    0 -0.90720712815E+02  0.97154559380E+02 -0.42761265916E+02  0.16708080939E+03  0.91750830305E+02 0.  0.
        -11    1    3    3    0    0  0.12726026834E+03 -0.79997730303E+02  0.63690695569E+02  0.16325231224E+03  0.00000000000E+00 0. -1.
         11    1    3    3    0    0  0.32840820249E+01 -0.38498401228E+02  0.58726995853E+02  0.70297739179E+02  0.00000000000E+00 0.  1.
        -13    1    4    4    0    0 -0.88850271755E+02  0.38165474706E+02 -0.47758205612E+02  0.10785091772E+03  0.00000000000E+00 0.  1.
         13    1    4    4    0    0 -0.18704410603E+01  0.58989084675E+02  0.49969396964E+01  0.59229891667E+02  0.00000000000E+00 0. -1.
         21    1    1    2  502  501 -0.39823637546E+02  0.21341572151E+02 -0.68277153445E+02  0.81872794576E+02  0.00000000000E+00 0. -1.
<scales pt_clust_5="13000.00000" pt_clust_6="13000.00000" pt_clust_7="13000.00000" pt_clust_8="13000.00000" pt_clust_9="45.18169"></scales>
<clustering>
<clus scale="   45.182">  2  9  1 -1</clus>
<clus scale="   91.751">  7  8 -1 -1</clus>
<clus scale="   92.067">  5  6 -1 -1</clus>
<clus scale="  185.459">  2  7  1 -1</clus>
<clus scale="   45.182">  2  5  1 -1</clus>
</clustering>
</event>
<event>
 9    1  0.1234700E-005  0.9828594E+02  0.7546771E-02  0.1284211E+00
          2   -1    0    0  502    0  0.00000000000E+00  0.00000000000E+00  0.21258081822E+03  0.21258081822E+03  0.00000000000E+00 0. -1.
         -2   -1    0    0    0  501 -0.00000000000E+00 -0.00000000000E+00 -0.24838821923E+03  0.24838821923E+03  0.00000000000E+00 0.  1.
         23    2    1    2    0    0  0.67435459725E+01  0.28378799801E+02 -0.20108566581E+03  0.22351960663E+03  0.93138272806E+02 0.  0.
         23    2    1    2    0    0 -0.28584303389E+02 -0.26975401395E+02  0.38229342670E+02  0.10852923525E+03  0.93660971500E+02 0.  0.
        -11    1    4    4    0    0 -0.60059453516E+02 -0.14584560990E+02  0.41652185200E+02  0.74530208022E+02  0.00000000000E+00 0.  1.
         11    1    4    4    0    0  0.31475150127E+02 -0.12390840405E+02 -0.34228425298E+01  0.33999027228E+02  0.00000000000E+00 0. -1.
        -13    1    3    3    0    0 -0.37284104184E+02  0.24797609610E+02 -0.14710402908E+03  0.15376807614E+03  0.00000000000E+00 0.  1.
         13    1    3    3    0    0  0.44027650156E+02  0.35811901917E+01 -0.53981636732E+02  0.69751530490E+02  0.00000000000E+00 0. -1.
         21    1    1    2  502  501  0.21840757416E+02 -0.14033984062E+01  0.12704892213E+03  0.12892019557E+03  0.00000000000E+00 0. -1.
<scales pt_clust_5="13000.00000" pt_clust_6="13000.00000" pt_clust_7="13000.00000" pt_clust_8="13000.00000" pt_clust_9="21.88580"></scales>
<clustering>
<clus scale="   21.886">  1  9  2 -1</clus>
<clus scale="   93.138">  7  8 -1 -1</clus>
<clus scale="   93.661">  5  6 -1 -1</clus>
<clus scale="   97.788">  2  7  1 -1</clus>
<clus scale="   21.886">  1  5  2 -1</clus>
</clustering>
</event>
<event>
 9    1  0.1234700E-005  0.2353910E+03  0.7546771E-02  0.1122909E+00
         -1   -1    0    0    0  501 -0.00000000000E+00  0.00000000000E+00  0.16186209384E+04  0.16186209384E+04  0.00000000000E+00 0.  1.
          1   -1    0    0  502    0  0.00000000000E+00 -0.00000000000E+00 -0.51321043664E+02  0.51321043664E+02  0.00000000000E+00 0. -1.
         23    2    1    2    0    0  0.18837959221E+03  0.89754347980E+02  0.95633683320E+03  0.98307525138E+03  0.91181673609E+02 0.  0.
         23    2    1    2    0    0 -0.18907671360E+03 -0.14656422944E+03  0.52056191504E+03  0.58009493714E+03  0.91073331571E+02 0.  0.
        -11    1    4    4    0    0 -0.56936185826E+02  0.12930520672E+01  0.13519602825E+03  0.14670162676E+03  0.00000000000E+00 0.  1.
         11    1    4    4    0    0 -0.13214052777E+03 -0.14785728151E+03  0.38536588680E+03  0.43339331038E+03  0.00000000000E+00 0. -1.
        -11    1    3    3    0    0  0.78496498501E+02  0.66623809858E+02  0.61994406611E+03  0.62843542025E+03  0.00000000000E+00 0. -1.
         11    1    3    3    0    0  0.10988309370E+03  0.23130538122E+02  0.33639276709E+03  0.35463983114E+03  0.00000000000E+00 0.  1.
         21    1    1    2  502  501  0.69712139077E+00  0.56809881463E+02  0.90401146505E+02  0.10677179356E+03  0.00000000000E+00 0. -1.
<scales pt_clust_5="13000.00000" pt_clust_6="13000.00000" pt_clust_7="13000.00000" pt_clust_8="13000.00000" pt_clust_9="56.81416"></scales>
<clustering>
<clus scale="   56.814">  2  9  1 -1</clus>
<clus scale="   91.073">  5  6 -1 -1</clus>
<clus scale="   91.182">  7  8 -1 -1</clus>
<clus scale="  235.349">  2  5  1 -1</clus>
<clus scale="   56.814">  2  5  1 -1</clus>
</clustering>
</event>
<event>
 9    1  0.1234700E-005  0.1095838E+03  0.7546771E-02  0.1261383E+00
          1   -1    0    0  502    0  0.00000000000E+00  0.00000000000E+00  0.44352792996E+02  0.44352792996E+02  0.00000000000E+00 0. -1.
         -1   -1    0    0    0  501 -0.00000000000E+00 -0.00000000000E+00 -0.53229192096E+03  0.53229192096E+03  0.00000000000E+00 0.  1.
         23    2    1    2    0    0  0.49971129321E+02  0.39879506617E+02 -0.40707863798E+03  0.42190733294E+03  0.90583062829E+02 0.  0.
         23    2    1    2    0    0 -0.53366334078E+02 -0.16075837198E+02 -0.74307380636E+02  0.12981579730E+03  0.90687133907E+02 0.  0.
        -11    1    4    4    0    0  0.23861803279E+02  0.84739558296E+01 -0.19958634429E+02  0.32241908619E+02  0.00000000000E+00 0.  1.
         11    1    4    4    0    0 -0.77228137357E+02 -0.24549793028E+02 -0.54348746208E+02  0.97573888678E+02  0.00000000000E+00 0. -1.
        -13    1    3    3    0    0  0.73063292159E+01  0.62189905907E+02 -0.22080105423E+03  0.22950832751E+03  0.00000000000E+00 0.  1.
         13    1    3    3    0    0  0.42664800105E+02 -0.22310399289E+02 -0.18627758375E+03  0.19239900543E+03  0.00000000000E+00 0. -1.
         21    1    1    2  502  501  0.33952047570E+01 -0.23803669419E+02 -0.65531093470E+01  0.24921583723E+02  0.00000000000E+00 0.  1.
<scales pt_clust_5="13000.00000" pt_clust_6="13000.00000" pt_clust_7="13000.00000" pt_clust_8="13000.00000" pt_clust_9="24.04459"></scales>
<clustering>
<clus scale="   24.045">  1  9  2 -1</clus>
<clus scale="   90.583">  7  8 -1 -1</clus>
<clus scale="   90.687">  5  6 -1 -1</clus>
<clus scale="  109.498">  2  7  1 -1</clus>
<clus scale="   24.045">  1  5  2 -1</clus>
</clustering>
</event>
<event>
 9    1  0.1272912E-005  0.9158932E+02  0.7546771E-02  0.1299478E+00
          2   -1    0    0  502    0  0.00000000000E+00  0.00000000000E+00  0.75792940008E+02  0.75792940008E+02  0.00000000000E+00 0. -1.
         -2   -1    0    0    0  501 -0.00000000000E+00 -0.00000000000E+00 -0.33314825631E+03  0.33314825631E+03  0.00000000000E+00 0.  1.
         23    2    1    2    0    0  0.20337865197E+02  0.24520905801E+01 -0.27237788338E+03  0.28757449899E+03  0.89942979750E+02 0.  0.
         23    2    1    2    0    0  0.54630510086E+00  0.13699965144E+02 -0.14194359368E+01  0.90264013582E+02  0.89205324142E+02 0.  0.
        -13    1    4    4    0    0  0.40735495955E+01  0.41597682945E+02 -0.29003183622E+02  0.50873821293E+02  0.00000000000E+00 0.  1.
         13    1    4    4    0    0 -0.35272444947E+01 -0.27897717800E+02  0.27583747686E+02  0.39390192289E+02  0.00000000000E+00 0. -1.
        -13    1    3    3    0    0  0.54616828467E+02 -0.97084534149E+01 -0.17737278638E+03  0.18584498209E+03  0.00000000000E+00 0. -1.
         13    1    3    3    0    0 -0.34278963270E+02  0.12160543995E+02 -0.95005097002E+02  0.10172951690E+03  0.00000000000E+00 0.  1.
         21    1    1    2  502  501 -0.20884170298E+02 -0.16152055724E+02  0.16442003014E+02  0.31102683747E+02  0.00000000000E+00 0. -1.
<scales pt_clust_5="13000.00000" pt_clust_6="13000.00000" pt_clust_7="13000.00000" pt_clust_8="13000.00000" pt_clust_9="26.40147"></scales>
<clustering>
<clus scale="   26.401">  1  9  2 -1</clus>
<clus scale="   89.205">  5  6 -1 -1</clus>
<clus scale="   89.943">  7  8 -1 -1</clus>
<clus scale="   90.865">  1  5  2 -1</clus>
<clus scale="   26.401">  1  5  2 -1</clus>
</clustering>
</event>
<event>
 9    1  0.1234700E-005  0.1376911E+03  0.7546771E-02  0.1216727E+00
          1   -1    0    0  502    0  0.00000000000E+00  0.00000000000E+00  0.26029590256E+03  0.26029590256E+03  0.00000000000E+00 0. -1.
         -1   -1    0    0    0  501 -0.00000000000E+00 -0.00000000000E+00 -0.13591048622E+03  0.13591048622E+03  0.00000000000E+00 0.  1.
         23    2    1    2    0    0  0.97926624827E+02 -0.51499627798E+02 -0.43183040585E+02  0.15173840979E+03  0.94434816129E+02 0.  0.
         23    2    1    2    0    0 -0.81179522841E+02  0.90383582933E+01  0.85794846747E+02  0.15081784202E+03  0.93345909886E+02 0.  0.
        -11    1    4    4    0    0 -0.83984692264E+02 -0.18311571769E+02  0.34506614557E+02  0.92625313190E+02  0.00000000000E+00 0.  1.
         11    1    4    4    0    0  0.28051694230E+01  0.27349930062E+02  0.51288232190E+02  0.58192528825E+02  0.00000000000E+00 0. -1.
        -13    1    3    3    0    0  0.10642205536E+03 -0.24985122858E+02 -0.53928944618E+02  0.12189438584E+03  0.00000000000E+00 0.  1.
         13    1    3    3    0    0 -0.84954305308E+01 -0.26514504939E+02  0.10745904033E+02  0.29844023951E+02  0.00000000000E+00 0. -1.
         21    1    1    2  502  501 -0.16747101986E+02  0.42461269504E+02  0.81773610179E+02  0.93650136970E+02  0.00000000000E+00 0. -1.
<scales pt_clust_5="13000.00000" pt_clust_6="13000.00000" pt_clust_7="13000.00000" pt_clust_8="13000.00000" pt_clust_9="45.64455"></scales>
<clustering>
<clus scale="   45.645">  1  9  2 -1</clus>
<clus scale="   93.346">  5  6 -1 -1</clus>
<clus scale="   94.435">  7  8 -1 -1</clus>
<clus scale="  136.947">  1  5  2 -1</clus>
<clus scale="   45.645">  1  5  2 -1</clus>
</clustering>
</event>
<event>
 9    1  0.1234700E-005  0.1490985E+03  0.7546771E-02  0.1202127E+00
         -1   -1    0    0    0  501 -0.00000000000E+00  0.00000000000E+00  0.11809083985E+03  0.11809083985E+03  0.00000000000E+00 0.  1.
          1   -1    0    0  502    0  0.00000000000E+00 -0.00000000000E+00 -0.42057071915E+03  0.42057071915E+03  0.00000000000E+00 0. -1.
         23    2    1    2    0    0 -0.17132750782E+03 -0.17776252241E+01 -0.55016311396E+02  0.20021140943E+03  0.87758413038E+02 0.  0.
         23    2    1    2    0    0  0.10222948142E+03 -0.22472680724E+02 -0.22058353134E+03  0.26044277201E+03  0.90650178932E+02 0.  0.
        -13    1    3    3    0    0 -0.16908910616E+02 -0.31009213743E+02 -0.88934033179E+01  0.36422180299E+02  0.00000000000E+00 0.  1.
         13    1    3    3    0    0 -0.15441859720E+03  0.29231588519E+02 -0.46122908078E+02  0.16378922913E+03  0.00000000000E+00 0. -1.
        -13    1    4    4    0    0  0.59625267615E+02 -0.56144951139E+02 -0.10892635111E+03  0.13628051234E+03  0.00000000000E+00 0.  1.
         13    1    4    4    0    0  0.42604213801E+02  0.33672270415E+02 -0.11165718023E+03  0.12416225967E+03  0.00000000000E+00 0. -1.
         21    1    1    2  502  501  0.69098026399E+02  0.24250305948E+02 -0.26880036560E+02  0.78007377576E+02  0.00000000000E+00 0.  1.
<scales pt_clust_5="13000.00000" pt_clust_6="13000.00000" pt_clust_7="13000.00000" pt_clust_8="13000.00000" pt_clust_9="73.22987"></scales>
<clustering>
<clus scale="   73.230">  1  9  2 -1</clus>
<clus scale="   87.758">  5  6 -1 -1</clus>
<clus scale="   90.650">  7  8 -1 -1</clus>
<clus scale="  147.358">  1  5  2 -1</clus>
<clus scale="  149.099">  2  5  1 -1</clus>
</clustering>
</event>
<event>
 9    1  0.1234700E-005  0.1030825E+03  0.7546771E-02  0.1274568E+00
         -1   -1    0    0    0  501 -0.00000000000E+00  0.00000000000E+00  0.15913360833E+03  0.15913360833E+03  0.00000000000E+00 0.  1.
          1   -1    0    0  502    0  0.00000000000E+00 -0.00000000000E+00 -0.12265101879E+03  0.12265101879E+03  0.00000000000E+00 0. -1.
         23    2    1    2    0    0 -0.39494842727E+02  0.12264507877E+02  0.73426240283E+02  0.12358837559E+03  0.90401399680E+02 0.  0.
         23    2    1    2    0    0  0.63978061779E+02 -0.21607035083E+02  0.14307959380E+01  0.11172788608E+03  0.89000095489E+02 0.  0.
        -11    1    4    4    0    0  0.24673170715E+02 -0.45853916842E+02 -0.25803697304E+02  0.58113491011E+02  0.00000000000E+00 0. -1.
         11    1    4    4    0    0  0.39304891064E+02  0.24246881759E+02  0.27234493242E+02  0.53614395071E+02  0.00000000000E+00 0.  1.
        -13    1    3    3    0    0  0.95209417385E+01 -0.31523042467E+02  0.31875051529E+02  0.45829787780E+02  0.00000000000E+00 0. -1.
         13    1    3    3    0    0 -0.49015784466E+02  0.43787550344E+02  0.41551188754E+02  0.77758587814E+02  0.00000000000E+00 0.  1.
         21    1    1    2  502  501 -0.24483219052E+02  0.93425272054E+01 -0.38374446672E+02  0.46468365445E+02  0.00000000000E+00 0. -1.
<scales pt_clust_5="13000.00000" pt_clust_6="13000.00000" pt_clust_7="13000.00000" pt_clust_8="13000.00000" pt_clust_9="26.20517"></scales>
<clustering>
<clus scale="   26.205">  2  9  1 -1</clus>
<clus scale="   89.000">  5  6 -1 -1</clus>
<clus scale="   90.401">  7  8 -1 -1</clus>
<clus scale="  101.856">  2  5  1 -1</clus>
<clus scale="   26.205">  2  5  1 -1</clus>
</clustering>
</event>
<event>
 9    1  0.1234700E-005  0.9911437E+02  0.7546771E-02  0.1283131E+00
          2   -1    0    0  502    0  0.00000000000E+00  0.00000000000E+00  0.30583631734E+03  0.30583631734E+03  0.00000000000E+00 0. -1.
         -2   -1    0    0    0  501 -0.00000000000E+00 -0.00000000000E+00 -0.60138488810E+02  0.60138488810E+02  0.00000000000E+00 0.  1.
         23    2    1    2    0    0 -0.38665098147E+02  0.87652873234E+01  0.26202732459E+02  0.10473343582E+03  0.93331073672E+02 0.  0.
         23    2    1    2    0    0  0.19362791034E+02 -0.14616969070E+02  0.91291254113E+02  0.13146060777E+03  0.91428796647E+02 0.  0.
        -11    1    4    4    0    0  0.42672277845E+02 -0.24271320222E+02  0.15346589252E+02  0.51434794483E+02  0.00000000000E+00 0. -1.
         11    1    4    4    0    0 -0.23309486811E+02  0.96543511514E+01  0.75944664860E+02  0.80025813287E+02  0.00000000000E+00 0.  1.
        -11    1    3    3    0    0 -0.41075606828E+02  0.29263471161E+02 -0.19902976176E+02  0.54218859092E+02  0.00000000000E+00 0.  1.
         11    1    3    3    0    0  0.24105086803E+01 -0.20498183837E+02  0.46105708635E+02  0.50514576723E+02  0.00000000000E+00 0. -1.
         21    1    1    2  502  501  0.19302307113E+02  0.58516817470E+01  0.12820384196E+03  0.12978076257E+03  0.00000000000E+00 0. -1.
<scales pt_clust_5="13000.00000" pt_clust_6="13000.00000" pt_clust_7="13000.00000" pt_clust_8="13000.00000" pt_clust_9="20.16981"></scales>
<clustering>
<clus scale="   20.170">  1  9  2 -1</clus>
<clus scale="   91.429">  5  6 -1 -1</clus>
<clus scale="   93.331">  7  8 -1 -1</clus>
<clus scale="   97.325">  1  5  2 -1</clus>
<clus scale="   20.170">  1  5  2 -1</clus>
</clustering>
</event>
<event>
 9    1  0.1234700E-005  0.1411033E+03  0.7546771E-02  0.1225242E+00
         -1   -1    0    0    0  501 -0.00000000000E+00  0.00000000000E+00  0.38953445494E+03  0.38953445494E+03  0.00000000000E+00 0.  1.
          1   -1    0    0  502    0  0.00000000000E+00 -0.00000000000E+00 -0.13391456701E+03  0.13391456701E+03  0.00000000000E+00 0. -1.
         23    2    1    2    0    0  0.37128000167E+02  0.43637844609E+02  0.20404979040E+03  0.23014604138E+03  0.89711390168E+02 0.  0.
         23    2    1    2    0    0  0.48894545835E+02  0.71998593526E+02 -0.23722633238E+02  0.13069713949E+03  0.94575392470E+02 0.  0.
        -11    1    4    4    0    0  0.59753483284E+02  0.51081397505E+01 -0.39316307511E+01  0.60100162867E+02  0.00000000000E+00 0. -1.
         11    1    4    4    0    0 -0.10858937449E+02  0.66890453775E+02 -0.19791002487E+02  0.70596976622E+02  0.00000000000E+00 0.  1.
        -13    1    3    3    0    0  0.56564048756E+02  0.35802800150E+02  0.19695671691E+03  0.20802230757E+03  0.00000000000E+00 0.  1.
         13    1    3    3    0    0 -0.19436048589E+02  0.78350444592E+01  0.70930734844E+01  0.22123733814E+02  0.00000000000E+00 0. -1.
         21    1    1    2  502  501 -0.86022546002E+02 -0.11563643813E+03  0.75292730768E+02  0.16260584107E+03  0.00000000000E+00 0. -1.
<scales pt_clust_5="13000.00000" pt_clust_6="13000.00000" pt_clust_7="13000.00000" pt_clust_8="13000.00000" pt_clust_9="104.71693"></scales>
<clustering>
<clus scale="   89.711">  7  8 -1 -1</clus>
<clus scale="   94.575">  5  6 -1 -1</clus>
<clus scale="  106.447">  1  7  2 -1</clus>
<clus scale="  104.717">  1  9  2 -1</clus>
<clus scale="  141.103">  2  5  1 -1</clus>
</clustering>
</event>
<event>
 9    1  0.1234700E-005  0.1027519E+03  0.7546771E-02  0.1275813E+00
          1   -1    0    0  502    0  0.00000000000E+00  0.00000000000E+00  0.23317000735E+03  0.23317000735E+03  0.00000000000E+00 0. -1.
         -1   -1    0    0    0  501 -0.00000000000E+00 -0.00000000000E+00 -0.64911166314E+02  0.64911166314E+02  0.00000000000E+00 0.  1.
         23    2    1    2    0    0  0.42434580128E+02 -0.33322860700E+02  0.27709530687E+02  0.10942443719E+03  0.91075697785E+02 0.  0.
         23    2    1    2    0    0 -0.39283489380E+02  0.78870953854E+01  0.91968698085E+02  0.13372966284E+03  0.88430664847E+02 0.  0.
        -11    1    4    4    0    0 -0.53190800267E+02 -0.77312191153E+01  0.17725079739E+02  0.56596920709E+02  0.00000000000E+00 0.  1.
         11    1    4    4    0    0  0.13907310886E+02  0.15618314501E+02  0.74243618347E+02  0.77132742134E+02  0.00000000000E+00 0. -1.
        -13    1    3    3    0    0 -0.26858456430E+02 -0.23669335959E+02  0.11592411201E+02  0.37629750783E+02  0.00000000000E+00 0.  1.
         13    1    3    3    0    0  0.69293036558E+02 -0.96535247411E+01  0.16117119486E+02  0.71794686404E+02  0.00000000000E+00 0. -1.
         21    1    1    2  502  501 -0.31510907474E+01  0.25435765314E+02  0.48580612263E+02  0.54927073633E+02  0.00000000000E+00 0. -1.
<scales pt_clust_5="13000.00000" pt_clust_6="13000.00000" pt_clust_7="13000.00000" pt_clust_8="13000.00000" pt_clust_9="25.63021"></scales>
<clustering>
<clus scale="   25.630">  1  9  2 -1</clus>
<clus scale="   88.431">  5  6 -1 -1</clus>
<clus scale="   91.076">  7  8 -1 -1</clus>
<clus scale="  100.415">  1  5  2 -1</clus>
<clus scale="   25.630">  1  5  2 -1</clus>
</clustering>
</event>
<event>
 9    1  0.1234700E-005  0.9494555E+02  0.7546771E-02  0.1291304E+00
          3   -1    0    0  502    0  0.00000000000E+00  0.00000000000E+00  0.11741485616E+03  0.11741485616E+03  0.00000000000E+00 0. -1.
         -3   -1    0    0    0  501 -0.00000000000E+00 -0.00000000000E+00 -0.29488240030E+03  0.29488240030E+03  0.00000000000E+00 0.  1.
         23    2    1    2    0    0 -0.19330923232E+02  0.21971113277E+02 -0.18389633709E+03  0.20762354827E+03  0.91832786033E+02 0.  0.
         23    2    1    2    0    0  0.39976901344E+02  0.62102041093E+02 -0.31268091851E+00  0.11784053959E+03  0.91823084536E+02 0.  0.
        -13    1    4    4    0    0  0.56214871117E+02  0.77196065364E+02  0.22595873808E+01  0.95521986880E+02  0.00000000000E+00 0. -1.
         13    1    4    4    0    0 -0.16237969773E+02 -0.15094024271E+02 -0.25722682993E+01  0.22318552714E+02  0.00000000000E+00 0.  1.
        -13    1    3    3    0    0 -0.47170839609E+02  0.12064295438E+02 -0.16618831110E+03  0.17317387240E+03  0.00000000000E+00 0.  1.
         13    1    3    3    0    0  0.27839916377E+02  0.99068178388E+01 -0.17708025987E+02  0.34449675875E+02  0.00000000000E+00 0. -1.
         21    1    1    2  502  501 -0.20645978112E+02 -0.84073154370E+02  0.67414738692E+01  0.86833168593E+02  0.00000000000E+00 0. -1.
<scales pt_clust_5="13000.00000" pt_clust_6="13000.00000" pt_clust_7="13000.00000" pt_clust_8="13000.00000" pt_clust_9="86.57108"></scales>
<clustering>
<clus scale="   86.571">  1  9  2 -1</clus>
<clus scale="   91.823">  5  6 -1 -1</clus>
<clus scale="   91.833">  7  8 -1 -1</clus>
<clus scale="   94.936">  1  5  2 -1</clus>
<clus scale="   86.571">  1  5  2 -1</clus>
</clustering>
</event>
<event>
 9    1  0.1234700E-005  0.1471613E+03  0.7546771E-02  0.1204695E+00
          1   -1    0    0  502    0  0.00000000000E+00  0.00000000000E+00  0.61722991353E+03  0.61722991353E+03  0.00000000000E+00 0. -1.
         -1   -1    0    0    0  501 -0.00000000000E+00 -0.00000000000E+00 -0.93717135143E+02  0.93717135143E+02  0.00000000000E+00 0.  1.
         23    2    1    2    0    0 -0.11735923524E+03 -0.16290246364E+02 -0.90000506924E+01  0.15077228953E+03  0.92804742093E+02 0.  0.
         23    2    1    2    0    0  0.85868620001E+02  0.42274386904E+02  0.36527840250E+03  0.38802892609E+03  0.89317369280E+02 0.  0.
        -11    1    3    3    0    0 -0.60528466267E+02  0.36589548160E+02 -0.16973665492E+02  0.72736480417E+02  0.00000000000E+00 0.  1.
         11    1    3    3    0    0 -0.56830768969E+02 -0.52879794524E+02  0.79736147996E+01  0.78035809110E+02  0.00000000000E+00 0. -1.
        -13    1    4    4    0    0  0.98633252071E+02  0.17720801927E+02  0.31602944268E+03  0.33153756028E+03  0.00000000000E+00 0. -1.
         13    1    4    4    0    0 -0.12764632069E+02  0.24553584977E+02  0.49248959822E+02  0.56491365806E+02  0.00000000000E+00 0.  1.
         21    1    1    2  502  501  0.31490615235E+02 -0.25984140540E+02  0.16723442657E+03  0.17214583306E+03  0.00000000000E+00 0.  1.
<scales pt_clust_5="13000.00000" pt_clust_6="13000.00000" pt_clust_7="13000.00000" pt_clust_8="13000.00000" pt_clust_9="40.82688"></scales>
<clustering>
<clus scale="   40.827">  1  9  2 -1</clus>
<clus scale="   89.317">  7  8 -1 -1</clus>
<clus scale="   92.805">  5  6 -1 -1</clus>
<clus scale="  144.987">  1  7  2 -1</clus>
<clus scale="   40.827">  1  5  2 -1</clus>
</clustering>
</event>
<event>
 9    1  0.1234700E-005  0.2047771E+03  0.7546771E-02  0.1145847E+00
          1   -1    0    0  502    0  0.00000000000E+00  0.00000000000E+00  0.20936333489E+03  0.20936333489E+03  0.00000000000E+00 0. -1.
         -1   -1    0    0    0  501 -0.00000000000E+00 -0.00000000000E+00 -0.47100842299E+03  0.47100842299E+03  0.00000000000E+00 0.  1.
         23    2    1    2    0    0 -0.17123212153E+03 -0.96883622335E+02 -0.22973828013E+03  0.31622892970E+03  0.92272330107E+02 0.  0.
         23    2    1    2    0    0  0.16084840093E+03  0.52763005025E+02 -0.14590527880E+03  0.24146397149E+03  0.91434984363E+02 0.  0.
        -11    1    4    4    0    0  0.11765327095E+03  0.53184724709E+01 -0.12988831725E+03  0.17533269311E+03  0.00000000000E+00 0. -1.
         11    1    4    4    0    0  0.43195129975E+02  0.47444532554E+02 -0.16016961552E+02  0.66131278380E+02  0.00000000000E+00 0.  1.
        -13    1    3    3    0    0 -0.69737586100E+02 -0.66900660487E+02 -0.52974749362E+02  0.11020595882E+03  0.00000000000E+00 0. -1.
         13    1    3    3    0    0 -0.10149453543E+03 -0.29982961848E+02 -0.17676353077E+03  0.20602297089E+03  0.00000000000E+00 0.  1.
         21    1    1    2  502  501  0.10383720604E+02  0.44120617309E+02  0.11399847083E+03  0.12267885668E+03  0.00000000000E+00 0. -1.
<scales pt_clust_5="13000.00000" pt_clust_6="13000.00000" pt_clust_7="13000.00000" pt_clust_8="13000.00000" pt_clust_9="45.32605"></scales>
<clustering>
<clus scale="   45.326">  1  9  2 -1</clus>
<clus scale="   91.435">  5  6 -1 -1</clus>
<clus scale="   92.272">  7  8 -1 -1</clus>
<clus scale="  204.401">  1  5  2 -1</clus>
<clus scale="   45.326">  1  5  2 -1</clus>
</clustering>
</event>
<event>
 9    1  0.1234700E-005  0.1129937E+03  0.7546771E-02  0.1255486E+00
         -2   -1    0    0    0  501 -0.00000000000E+00  0.00000000000E+00  0.86384993110E+02  0.86384993110E+02  0.00000000000E+00 0.  1.
          2   -1    0    0  502    0  0.00000000000E+00 -0.00000000000E+00 -0.34303220740E+03  0.34303220740E+03  0.00000000000E+00 0. -1.
         23    2    1    2    0    0  0.55479941437E+02  0.31751982012E+02  0.23776099726E+02  0.11461674790E+03  0.92116685336E+02 0.  0.
         23    2    1    2    0    0 -0.52375331171E+02 -0.55662360663E+02 -0.23340476921E+03  0.26196023717E+03  0.91125769450E+02 0.  0.
        -13    1    3    3    0    0  0.79267187549E+02  0.32400288293E+02  0.78702707783E+01  0.85994225769E+02  0.00000000000E+00 0.  1.
         13    1    3    3    0    0 -0.23787246112E+02 -0.64830628033E+00  0.15905828947E+02  0.28622522131E+02  0.00000000000E+00 0. -1.
        -13    1    4    4    0    0  0.92462256817E+01 -0.51010976135E+02 -0.68857338980E+02  0.86191330811E+02  0.00000000000E+00 0.  1.
         13    1    4    4    0    0 -0.61621556853E+02 -0.46513845284E+01 -0.16454743023E+03  0.17576890636E+03  0.00000000000E+00 0. -1.
         21    1    1    2  502  501 -0.31046102660E+01  0.23910378651E+02 -0.47018544800E+02  0.52840215435E+02  0.00000000000E+00 0. -1.
<scales pt_clust_5="13000.00000" pt_clust_6="13000.00000" pt_clust_7="13000.00000" pt_clust_8="13000.00000" pt_clust_9="24.11109"></scales>
<clustering>
<clus scale="   24.111">  2  9  1 -1</clus>
<clus scale="   91.126">  7  8 -1 -1</clus>
<clus scale="   92.117">  5  6 -1 -1</clus>
<clus scale="  112.187">  2  7  1 -1</clus>
<clus scale="   24.111">  2  5  1 -1</clus>
</clustering>
</event>
<event>
 9    1  0.1234700E-005  0.1125897E+03  0.7546771E-02  0.1257436E+00
          2   -1    0    0  502    0  0.00000000000E+00  0.00000000000E+00  0.15093587334E+03  0.15093587334E+03  0.00000000000E+00 0.  1.
         -2   -1    0    0    0  501 -0.00000000000E+00 -0.00000000000E+00 -0.11668877399E+03  0.11668877399E+03  0.00000000000E+00 0. -1.
         23    2    1    2    0    0 -0.64334688840E+01  0.60928179231E+02  0.57775868582E+01  0.10820407533E+03  0.89000611578E+02 0.  0.
         23    2    1    2    0    0 -0.33444201114E+02 -0.62050268788E+02  0.23501743718E+02  0.11921900019E+03  0.93231365990E+02 0.  0.
        -13    1    4    4    0    0 -0.45271877071E+02  0.75027451135E+01  0.14324421268E+02  0.48073101444E+02  0.00000000000E+00 0.  1.
         13    1    4    4    0    0  0.11827675958E+02 -0.69553013901E+02  0.91773224497E+01  0.71145898748E+02  0.00000000000E+00 0. -1.
        -13    1    3    3    0    0  0.28913056758E+02  0.45269371615E+02 -0.24558725821E+02  0.59062779070E+02  0.00000000000E+00 0.  1.
         13    1    3    3    0    0 -0.35346525642E+02  0.15658807617E+02  0.30336312679E+02  0.49141296258E+02  0.00000000000E+00 0. -1.
         21    1    1    2  502  501  0.39877669998E+02  0.11220895566E+01  0.49677687740E+01  0.40201571810E+02  0.00000000000E+00 0.  1.
<scales pt_clust_5="13000.00000" pt_clust_6="13000.00000" pt_clust_7="13000.00000" pt_clust_8="13000.00000" pt_clust_9="39.89345"></scales>
<clustering>
<clus scale="   39.893">  2  9  1 -1</clus>
<clus scale="   89.001">  7  8 -1 -1</clus>
<clus scale="   93.231">  5  6 -1 -1</clus>
<clus scale="  109.112">  2  7  1 -1</clus>
<clus scale="  112.590">  1  5  2 -1</clus>
</clustering>
</event>
<event>
 9    1  0.1234700E-005  0.1228545E+03  0.7546771E-02  0.1241962E+00
          1   -1    0    0  502    0  0.00000000000E+00  0.00000000000E+00  0.24790140570E+03  0.24790140570E+03  0.00000000000E+00 0. -1.
         -1   -1    0    0    0  501 -0.00000000000E+00 -0.00000000000E+00 -0.27057368451E+03  0.27057368451E+03  0.00000000000E+00 0.  1.
         23    2    1    2    0    0  0.43614740990E+02 -0.67793217917E+02 -0.21306695841E+03  0.24550318513E+03  0.91521140274E+02 0.  0.
         23    2    1    2    0    0  0.16333802769E+02  0.10004825649E+02  0.64653144454E+02  0.12215990342E+03  0.10186325769E+03 0.  0.
        -11    1    4    4    0    0  0.35002496956E+02 -0.32950141989E+02  0.81315279304E+01  0.48754573085E+02  0.00000000000E+00 0.  1.
         11    1    4    4    0    0 -0.18668694187E+02  0.42954967638E+02  0.56521616524E+02  0.73405330337E+02  0.00000000000E+00 0. -1.
        -13    1    3    3    0    0  0.45445017125E+02 -0.19771062587E+02 -0.34003550649E+02  0.60103127656E+02  0.00000000000E+00 0. -1.
         13    1    3    3    0    0 -0.18302761349E+01 -0.48022155329E+02 -0.17906340776E+03  0.18540005748E+03  0.00000000000E+00 0.  1.
         21    1    1    2  502  501 -0.59948543759E+02  0.57788392268E+02  0.12574153515E+03  0.15081200165E+03  0.00000000000E+00 0. -1.
<scales pt_clust_5="13000.00000" pt_clust_6="13000.00000" pt_clust_7="13000.00000" pt_clust_8="13000.00000" pt_clust_9="83.26660"></scales>
<clustering>
<clus scale="   83.267">  1  9  2 -1</clus>
<clus scale="   91.521">  7  8 -1 -1</clus>
<clus scale="  101.863">  5  6 -1 -1</clus>
<clus scale="  114.426">  2  7  1 -1</clus>
<clus scale="   83.267">  1  5  2 -1</clus>
</clustering>
</event>
<event>
 9    1  0.1234700E-005  0.1032316E+03  0.7546771E-02  0.1276362E+00
          2   -1    0    0  502    0  0.00000000000E+00  0.00000000000E+00  0.49855869795E+03  0.49855869795E+03  0.00000000000E+00 0. -1.
         -2   -1    0    0    0  501 -0.00000000000E+00 -0.00000000000E+00 -0.30790615430E+02  0.30790615430E+02  0.00000000000E+00 0.  1.
         23    2    1    2    0    0 -0.46178655259E+02 -0.74498692117E+01  0.14700274383E+03  0.17788669942E+03  0.88577098543E+02 0.  0.
         23    2    1    2    0    0  0.37184360819E+02 -0.10894313361E+02  0.16231409808E+03  0.19169965824E+03  0.94347918800E+02 0.  0.
        -11    1    3    3    0    0 -0.32208200669E+02 -0.46097419500E+02  0.10508092811E+03  0.11918196897E+03  0.00000000000E+00 0.  1.
         11    1    3    3    0    0 -0.13970454590E+02  0.38647550288E+02  0.41921815720E+02  0.58704730457E+02  0.00000000000E+00 0. -1.
        -11    1    4    4    0    0  0.12133434161E+02 -0.34627957808E+02  0.15098440229E+03  0.15537890919E+03  0.00000000000E+00 0. -1.
         11    1    4    4    0    0  0.25050926658E+02  0.23733644447E+02  0.11329695793E+02  0.36320749055E+02  0.00000000000E+00 0.  1.
         21    1    1    2  502  501  0.89942944396E+01  0.18344182573E+02  0.15845124062E+03  0.15976295572E+03  0.00000000000E+00 0.  1.
<scales pt_clust_5="13000.00000" pt_clust_6="13000.00000" pt_clust_7="13000.00000" pt_clust_8="13000.00000" pt_clust_9="20.43053"></scales>
<clustering>
<clus scale="   20.431">  1  9  2 -1</clus>
<clus scale="   88.577">  5  6 -1 -1</clus>
<clus scale="   94.348">  7  8 -1 -1</clus>
<clus scale="   97.985">  2  5  1 -1</clus>
<clus scale="   20.431">  1  5  2 -1</clus>
</clustering>
</event>
<event>
 9    1  0.1234700E-005  0.1032521E+03  0.7546771E-02  0.1273719E+00
          1   -1    0    0  502    0  0.00000000000E+00  0.00000000000E+00  0.23072465244E+03  0.23072465244E+03  0.00000000000E+00 0. -1.
         -1   -1    0    0    0  501 -0.00000000000E+00 -0.00000000000E+00 -0.11462088858E+03  0.11462088858E+03  0.00000000000E+00 0.  1.
         23    2    1    2    0    0 -0.11156310652E+02  0.41900225552E+02 -0.65447892965E+02  0.12232072248E+03  0.93802133696E+02 0.  0.
         23    2    1    2    0    0  0.33043713314E+02 -0.33626090449E+02  0.15981057452E+03  0.19108433692E+03  0.93547865495E+02 0.  0.
        -11    1    3    3    0    0  0.52762312420E+01 -0.20798584398E+02  0.92984335961E+01  0.23385478323E+02  0.00000000000E+00 0. -1.
         11    1    3    3    0    0 -0.16432541894E+02  0.62698809949E+02 -0.74746326561E+02  0.98935244157E+02  0.00000000000E+00 0.  1.
        -11    1    4    4    0    0  0.50523322723E+02  0.15578696040E+01  0.38409871078E+02  0.63485047790E+02  0.00000000000E+00 0.  1.
         11    1    4    4    0    0 -0.17479609408E+02 -0.35183960053E+02  0.12140070344E+03  0.12759928913E+03  0.00000000000E+00 0. -1.
         21    1    1    2  502  501 -0.21887402663E+02 -0.82741351032E+01  0.21741082306E+02  0.31940481632E+02  0.00000000000E+00 0. -1.
<scales pt_clust_5="13000.00000" pt_clust_6="13000.00000" pt_clust_7="13000.00000" pt_clust_8="13000.00000" pt_clust_9="23.39914"></scales>
<clustering>
<clus scale="   23.399">  1  9  2 -1</clus>
<clus scale="   93.548">  7  8 -1 -1</clus>
<clus scale="   93.802">  5  6 -1 -1</clus>
<clus scale="  103.021">  1  7  2 -1</clus>
<clus scale="   23.399">  1  5  2 -1</clus>
</clustering>
</event>
<event>
 9    1  0.1234700E-005  0.1256767E+03  0.7546771E-02  0.1237938E+00
          1   -1    0    0  502    0  0.00000000000E+00  0.00000000000E+00  0.13325703853E+03  0.13325703853E+03  0.00000000000E+00 0. -1.
         -1   -1    0    0    0  501 -0.00000000000E+00 -0.00000000000E+00 -0.50779523985E+03  0.50779523985E+03  0.00000000000E+00 0.  1.
         23    2    1    2    0    0 -0.93803744098E+02  0.97539415534E+01 -0.39998303733E+03  0.42388184460E+03  0.10389950068E+03 0.  0.
         23    2    1    2    0    0  0.63062580172E+02 -0.28952164624E+02  0.87941094681E+02  0.14492520365E+03  0.91948690399E+02 0.  0.
        -11    1    4    4    0    0  0.58853717813E+02  0.22722445049E+02  0.53099885195E+02  0.82460095908E+02  0.00000000000E+00 0. -1.
         11    1    4    4    0    0  0.42088623590E+01 -0.51674609673E+02  0.34841209486E+02  0.62465107746E+02  0.00000000000E+00 0.  1.
        -13    1    3    3    0    0 -0.87217555342E+02  0.29856450126E+02 -0.38952318106E+03  0.40028317246E+03  0.00000000000E+00 0.  1.
         13    1    3    3    0    0 -0.65861887558E+01 -0.20102508573E+02 -0.10459856275E+02  0.23598672135E+02  0.00000000000E+00 0. -1.
         21    1    1    2  502  501  0.30741163926E+02  0.19198223070E+02 -0.62496258667E+02  0.72245230126E+02  0.00000000000E+00 0.  1.
<scales pt_clust_5="13000.00000" pt_clust_6="13000.00000" pt_clust_7="13000.00000" pt_clust_8="13000.00000" pt_clust_9="36.24349"></scales>
<clustering>
<clus scale="   36.243">  2  9  1 -1</clus>
<clus scale="   91.949">  5  6 -1 -1</clus>
<clus scale="  103.900">  7  8 -1 -1</clus>
<clus scale="  115.992">  1  5  2 -1</clus>
<clus scale="  115.992">  1  5  2 -1</clus>
</clustering>
</event>
<event>
 9    1  0.1234700E-005  0.3466516E+03  0.7546771E-02  0.1064754E+00
         -2   -1    0    0    0  501 -0.00000000000E+00  0.00000000000E+00  0.10652612617E+03  0.10652612617E+03  0.00000000000E+00 0.  1.
          2   -1    0    0  502    0  0.00000000000E+00 -0.00000000000E+00 -0.13933641805E+04  0.13933641805E+04  0.00000000000E+00 0. -1.
         23    2    1    2    0    0  0.33140579727E+03 -0.44111048594E+02 -0.36141294709E+03  0.50548279863E+03  0.11453363834E+03 0.  0.
         23    2    1    2    0    0 -0.31346050575E+03  0.22910709717E+02 -0.77090068537E+03  0.83740660101E+03  0.90440916741E+02 0.  0.
        -11    1    4    4    0    0 -0.55922919718E+02  0.31811566070E+02 -0.22001628125E+03  0.22923026131E+03  0.00000000000E+00 0. -1.
         11    1    4    4    0    0 -0.25753758603E+03 -0.89008563531E+01 -0.55088440412E+03  0.60817633970E+03  0.00000000000E+00 0.  1.
        -13    1    3    3    0    0  0.26031562347E+03 -0.17979235713E+02 -0.33636021717E+03  0.42570608691E+03  0.00000000000E+00 0.  1.
         13    1    3    3    0    0  0.71090173804E+02 -0.26131812881E+02 -0.25052729919E+02  0.79776711716E+02  0.00000000000E+00 0. -1.
         21    1    1    2  502  501 -0.17945291520E+02  0.21200338877E+02 -0.15452442191E+03  0.15700090708E+03  0.00000000000E+00 0.  1.
<scales pt_clust_5="13000.00000" pt_clust_6="13000.00000" pt_clust_7="13000.00000" pt_clust_8="13000.00000" pt_clust_9="27.77567"></scales>
<clustering>
<clus scale="   27.776">  2  9  1 -1</clus>
<clus scale="   90.441">  5  6 -1 -1</clus>
<clus scale="  114.534">  7  8 -1 -1</clus>
<clus scale="  339.454">  2  5  1 -1</clus>
<clus scale="   27.776">  2  5  1 -1</clus>
</clustering>
</event>
<event>
 9    1  0.1234700E-005  0.1335176E+03  0.7546771E-02  0.1222408E+00
         -1   -1    0    0    0  501 -0.00000000000E+00  0.00000000000E+00  0.34469667382E+03  0.34469667382E+03  0.00000000000E+00 0.  1.
          1   -1    0    0  502    0  0.00000000000E+00 -0.00000000000E+00 -0.18045066649E+03  0.18045066649E+03  0.00000000000E+00 0. -1.
         23    2    1    2    0    0 -0.98995469352E+02  0.85000739764E+01  0.29307221101E+03  0.32264726179E+03  0.91310352425E+02 0.  0.
         23    2    1    2    0    0  0.72693854653E+02 -0.17880202667E+02 -0.12835025913E+03  0.17457180838E+03  0.91637487481E+02 0.  0.
        -11    1    4    4    0    0  0.63815562718E+01  0.27807045777E+02 -0.68607173048E+02  0.74302760708E+02  0.00000000000E+00 0.  1.
         11    1    4    4    0    0  0.66312298381E+02 -0.45687248444E+02 -0.59743086078E+02  0.10026904767E+03  0.00000000000E+00 0. -1.
        -13    1    3    3    0    0 -0.27896145490E+02  0.46560482714E+02  0.11512500024E+03  0.12727858879E+03  0.00000000000E+00 0. -1.
         13    1    3    3    0    0 -0.71099323862E+02 -0.38060408737E+02  0.17794721078E+03  0.19536867300E+03  0.00000000000E+00 0.  1.
         21    1    1    2  502  501  0.26301614699E+02  0.93801286903E+01 -0.47594456379E+00  0.27928270145E+02  0.00000000000E+00 0.  1.
<scales pt_clust_5="13000.00000" pt_clust_6="13000.00000" pt_clust_7="13000.00000" pt_clust_8="13000.00000" pt_clust_9="27.92421"></scales>
<clustering>
<clus scale="   27.924">  2  9  1 -1</clus>
<clus scale="   91.310">  7  8 -1 -1</clus>
<clus scale="   91.637">  5  6 -1 -1</clus>
<clus scale="  133.293">  1  7  2 -1</clus>
<clus scale="   27.924">  2  5  1 -1</clus>
</clustering>
</event>
<event>
 9    1  0.1234700E-005  0.1174143E+03  0.7546771E-02  0.1250657E+00
          1   -1    0    0  502    0  0.00000000000E+00  0.00000000000E+00  0.28032014238E+03  0.28032014238E+03  0.00000000000E+00 0. -1.
         -1   -1    0    0    0  501 -0.00000000000E+00 -0.00000000000E+00 -0.90787717727E+02  0.90787717727E+02  0.00000000000E+00 0.  1.
         23    2    1    2    0    0  0.35833514885E+01 -0.64135232152E+02 -0.54485128350E+01  0.11138664365E+03  0.90835729094E+02 0.  0.
         23    2    1    2    0    0 -0.48531865084E+02  0.48539119278E+02  0.16038558357E+03  0.20089565974E+03  0.99619991237E+02 0.  0.
        -13    1    4    4    0    0  0.13887075971E+02 -0.22399049094E+02  0.31189252021E+02  0.40833046923E+02  0.00000000000E+00 0.  1.
         13    1    4    4    0    0 -0.62418941054E+02  0.70938168372E+02  0.12919633155E+03  0.16006261281E+03  0.00000000000E+00 0. -1.
        -13    1    3    3    0    0 -0.41903516618E+02 -0.18078210278E+02 -0.91626581695E+01  0.46547617517E+02  0.00000000000E+00 0. -1.
         13    1    3    3    0    0  0.45486868106E+02 -0.46057021873E+02  0.37141453345E+01  0.64839026130E+02  0.00000000000E+00 0.  1.
         21    1    1    2  502  501  0.44948513595E+02  0.15596112873E+02  0.34595353912E+02  0.58825556720E+02  0.00000000000E+00 0.  1.
<scales pt_clust_5="13000.00000" pt_clust_6="13000.00000" pt_clust_7="13000.00000" pt_clust_8="13000.00000" pt_clust_9="47.57739"></scales>
<clustering>
<clus scale="   47.577">  1  9  2 -1</clus>
<clus scale="   90.836">  7  8 -1 -1</clus>
<clus scale="   99.620">  5  6 -1 -1</clus>
<clus scale="  110.060">  2  7  1 -1</clus>
<clus scale="   47.577">  1  5  2 -1</clus>
</clustering>
</event>
<event>
 9    1  0.1234700E-005  0.1050101E+03  0.7546771E-02  0.1270552E+00
          1   -1    0    0  502    0  0.00000000000E+00  0.00000000000E+00  0.15527503003E+03  0.15527503003E+03  0.00000000000E+00 0. -1.
         -1   -1    0    0    0  501 -0.00000000000E+00 -0.00000000000E+00 -0.93116962643E+02  0.93116962643E+02  0.00000000000E+00 0.  1.
         23    2    1    2    0    0  0.22044987787E+02  0.57637320545E+02 -0.28365216086E+01  0.10919744872E+03  0.90044404303E+02 0.  0.
         23    2    1    2    0    0 -0.17087668414E+02 -0.33672531986E+02  0.52375456010E+02  0.11166040835E+03  0.91099015244E+02 0.  0.
        -11    1    3    3    0    0  0.31932691474E+02  0.33328039407E+02  0.38586340114E+02  0.60161122320E+02  0.00000000000E+00 0. -1.
         11    1    3    3    0    0 -0.98877036867E+01  0.24309281138E+02 -0.41422861722E+02  0.49036326401E+02  0.00000000000E+00 0.  1.
        -11    1    4    4    0    0 -0.49903127606E+02 -0.41166509998E+02  0.30539902066E+02  0.71538027010E+02  0.00000000000E+00 0.  1.
         11    1    4    4    0    0  0.32815459191E+02  0.74939780118E+01  0.21835553944E+02  0.40122381341E+02  0.00000000000E+00 0. -1.
         21    1    1    2  502  501 -0.49573193727E+01 -0.23964788559E+02  0.12619132984E+02  0.27534135601E+02  0.00000000000E+00 0.  1.
<scales pt_clust_5="13000.00000" pt_clust_6="13000.00000" pt_clust_7="13000.00000" pt_clust_8="13000.00000" pt_clust_9="24.47215"></scales>
<clustering>
<clus scale="   24.472">  1  9  2 -1</clus>
<clus scale="   90.044">  5  6 -1 -1</clus>
<clus scale="   91.099">  7  8 -1 -1</clus>
<clus scale="  104.096">  2  5  1 -1</clus>
<clus scale="   24.472">  1  5  2 -1</clus>
</clustering>
</event>
<event>
 9    1  0.1234700E-005  0.1355275E+03  0.7546771E-02  0.1219894E+00
          1   -1    0    0  502    0  0.00000000000E+00  0.00000000000E+00  0.10317558306E+04  0.10317558306E+04  0.00000000000E+00 0. -1.
         -1   -1    0    0    0  501 -0.00000000000E+00 -0.00000000000E+00 -0.63454335221E+02  0.63454335221E+02  0.00000000000E+00 0.  1.
         23    2    1    2    0    0 -0.68623577221E+02  0.12275777215E+03  0.11260975917E+03  0.20158375766E+03  0.90423379269E+02 0.  0.
         23    2    1    2    0    0  0.25555977367E+02 -0.46970437844E+02  0.15839599929E+03  0.19090321733E+03  0.92170579835E+02 0.  0.
        -13    1    3    3    0    0 -0.19307425603E+02  0.36315357636E+02 -0.11303035113E+02  0.42653727697E+02  0.00000000000E+00 0.  1.
         13    1    3    3    0    0 -0.49316151618E+02  0.86442414512E+02  0.12391279428E+03  0.15893002996E+03  0.00000000000E+00 0. -1.
        -13    1    4    4    0    0 -0.30097648573E+02 -0.36442855555E+01  0.22362459165E+02  0.37672653832E+02  0.00000000000E+00 0.  1.
         13    1    4    4    0    0  0.55653625940E+02 -0.43326152288E+02  0.13603354012E+03  0.15323056350E+03  0.00000000000E+00 0. -1.
         21    1    1    2  502  501  0.43067599855E+02 -0.75787334305E+02  0.69729573692E+03  0.70272319082E+03  0.00000000000E+00 0.  1.
<scales pt_clust_5="13000.00000" pt_clust_6="13000.00000" pt_clust_7="13000.00000" pt_clust_8="13000.00000" pt_clust_9="87.16959"></scales>
<clustering>
<clus scale="   87.170">  1  9  2 -1</clus>
<clus scale="   90.423">  5  6 -1 -1</clus>
<clus scale="   92.171">  7  8 -1 -1</clus>
<clus scale="  134.345">  2  5  1 -1</clus>
<clus scale="   87.170">  1  5  2 -1</clus>
</clustering>
</event>
<event>
 9    1  0.1234700E-005  0.1478655E+03  0.7546771E-02  0.1204672E+00
         -2   -1    0    0    0  501 -0.00000000000E+00  0.00000000000E+00  0.66507154915E+03  0.66507154915E+03  0.00000000000E+00 0.  1.
          2   -1    0    0  502    0  0.00000000000E+00 -0.00000000000E+00 -0.54349420356E+02  0.54349420356E+02  0.00000000000E+00 0. -1.
         23    2    1    2    0    0  0.16887046010E+02 -0.10495477832E+03  0.36043390475E+03  0.38716753293E+03  0.93195606387E+02 0.  0.
         23    2    1    2    0    0  0.77866502896E+01  0.13045803048E+03  0.25236033378E+03  0.29670768017E+03  0.85263003514E+02 0.  0.
        -13    1    4    4    0    0  0.40241321586E+02  0.87367819743E+02  0.19797495097E+03  0.22010584068E+03  0.00000000000E+00 0. -1.
         13    1    4    4    0    0 -0.32454671296E+02  0.43090210732E+02  0.54385382805E+02  0.76601839487E+02  0.00000000000E+00 0.  1.
        -13    1    3    3    0    0 -0.20492171069E+02 -0.78861616636E+02  0.30341991024E+03  0.31416989923E+03  0.00000000000E+00 0.  1.
         13    1    3    3    0    0  0.37379217079E+02 -0.26093161685E+02  0.57013994509E+02  0.72997633701E+02  0.00000000000E+00 0. -1.
         21    1    1    2  502  501 -0.24673696299E+02 -0.25503252154E+02 -0.20721097329E+01  0.35545756403E+02  0.00000000000E+00 0. -1.
<scales pt_clust_5="13000.00000" pt_clust_6="13000.00000" pt_clust_7="13000.00000" pt_clust_8="13000.00000" pt_clust_9="35.48531"></scales>
<clustering>
<clus scale="   35.485">  2  9  1 -1</clus>
<clus scale="   85.263">  5  6 -1 -1</clus>
<clus scale="   93.196">  7  8 -1 -1</clus>
<clus scale="  142.998">  2  5  1 -1</clus>
<clus scale="   35.485">  2  5  1 -1</clus>
</clustering>
</event>
<event>
 9    1  0.1234700E-005  0.9424434E+02  0.7546771E-02  0.1303032E+00
         -2   -1    0    0    0  501 -0.00000000000E+00  0.00000000000E+00  0.31514274186E+02  0.31514274186E+02  0.00000000000E+00 0.  1.
          2   -1    0    0  502    0  0.00000000000E+00 -0.00000000000E+00 -0.42097490566E+03  0.42097490566E+03  0.00000000000E+00 0. -1.
         23    2    1    2    0    0  0.24849490774E+01  0.20312147913E+02 -0.74555807520E+02  0.12035452572E+03  0.92238197622E+02 0.  0.
         23    2    1    2    0    0 -0.25168333844E+02 -0.92159145746E+01 -0.24336110439E+03  0.25626525221E+03  0.75689327187E+02 0.  0.
        -11    1    4    4    0    0 -0.75549990471E+01  0.30525364833E+02 -0.59092560275E+02  0.66938827213E+02  0.00000000000E+00 0.  1.
         11    1    4    4    0    0 -0.17613334797E+02 -0.39741279407E+02 -0.18426854412E+03  0.18932642500E+03  0.00000000000E+00 0. -1.
        -13    1    3    3    0    0 -0.37422902375E+02  0.30010155975E+02 -0.19768989472E+02  0.51883485124E+02  0.00000000000E+00 0.  1.
         13    1    3    3    0    0  0.39907851453E+02 -0.96980080621E+01 -0.54786818048E+02  0.68471040592E+02  0.00000000000E+00 0. -1.
         21    1    1    2  502  501  0.22683384766E+02 -0.11096233338E+02 -0.71543719558E+02  0.75869401915E+02  0.00000000000E+00 0. -1.
<scales pt_clust_5="13000.00000" pt_clust_6="13000.00000" pt_clust_7="13000.00000" pt_clust_8="13000.00000" pt_clust_9="25.25198"></scales>
<clustering>
<clus scale="   25.252">  2  9  1 -1</clus>
<clus scale="   75.689">  5  6 -1 -1</clus>
<clus scale="   78.122">  2  5  1 -1</clus>
<clus scale="   92.238">  7  8 -1 -1</clus>
<clus scale="   25.252">  2  5  1 -1</clus>
</clustering>
</event>
<event>
 9    1  0.1234700E-005  0.9139412E+02  0.7546771E-02  0.1299624E+00
         -1   -1    0    0    0  501 -0.00000000000E+00  0.00000000000E+00  0.51350433229E+02  0.51350433229E+02  0.00000000000E+00 0.  1.
          1   -1    0    0  502    0  0.00000000000E+00 -0.00000000000E+00 -0.32391787076E+03  0.32391787076E+03  0.00000000000E+00 0. -1.
         23    2    1    2    0    0 -0.81495765971E+01  0.23410443281E+01 -0.30401529761E+02  0.95616707911E+02  0.90257441425E+02 0.  0.
         23    2    1    2    0    0  0.43802290897E+01 -0.35998831735E+02 -0.12854818625E+03  0.16109341932E+03  0.90063040509E+02 0.  0.
        -13    1    3    3    0    0 -0.13465446808E+01  0.26080514794E+02 -0.54922713632E+02  0.60815383803E+02  0.00000000000E+00 0. -1.
         13    1    3    3    0    0 -0.68030319163E+01 -0.23739470465E+02  0.24521183870E+02  0.34801324108E+02  0.00000000000E+00 0.  1.
        -13    1    4    4    0    0  0.27472643551E+02 -0.58212727620E+02 -0.76567235341E+02  0.10003004213E+03  0.00000000000E+00 0.  1.
         13    1    4    4    0    0 -0.23092414461E+02  0.22213895886E+02 -0.51980950909E+02  0.61063377186E+02  0.00000000000E+00 0. -1.
         21    1    1    2  502  501  0.37693475073E+01  0.33657787407E+02 -0.11361772152E+03  0.11855817676E+03  0.00000000000E+00 0. -1.
<scales pt_clust_5="13000.00000" pt_clust_6="13000.00000" pt_clust_7="13000.00000" pt_clust_8="13000.00000" pt_clust_9="33.86820"></scales>
<clustering>
<clus scale="   33.868">  2  9  1 -1</clus>
<clus scale="   90.063">  7  8 -1 -1</clus>
<clus scale="   90.257">  5  6 -1 -1</clus>
<clus scale="   91.202">  2  7  1 -1</clus>
<clus scale="   33.868">  2  5  1 -1</clus>
</clustering>
</event>
<event>
 9    1  0.1234700E-005  0.1070129E+03  0.7546771E-02  0.1266440E+00
         -3   -1    0    0    0  501 -0.00000000000E+00  0.00000000000E+00  0.22684191613E+03  0.22684191613E+03  0.00000000000E+00 0.  1.
          3   -1    0    0  502    0  0.00000000000E+00 -0.00000000000E+00 -0.94770610108E+02  0.94770610108E+02  0.00000000000E+00 0. -1.
         23    2    1    2    0    0  0.28941490604E+02 -0.52438335233E+02  0.12783259693E+03  0.16768854894E+03  0.90503523275E+02 0.  0.
         23    2    1    2    0    0 -0.56462437365E+02  0.16649277137E+02 -0.11778323142E+01  0.10845312828E+03  0.91079572251E+02 0.  0.
        -13    1    4    4    0    0 -0.20218622711E+02 -0.96162224480E+00  0.43687228348E+02  0.48148638012E+02  0.00000000000E+00 0.  1.
         13    1    4    4    0    0 -0.36243814653E+02  0.17610899381E+02 -0.44865060662E+02  0.60304490263E+02  0.00000000000E+00 0. -1.
        -13    1    3    3    0    0 -0.19774945186E+02 -0.46302447992E+02  0.31022740377E+02  0.59138613170E+02  0.00000000000E+00 0.  1.
         13    1    3    3    0    0  0.48716435790E+02 -0.61358872406E+01  0.96809856558E+02  0.10854993577E+03  0.00000000000E+00 0. -1.
         21    1    1    2  502  501  0.27520946760E+02  0.35789058096E+02  0.54165413966E+01  0.45470849021E+02  0.00000000000E+00 0.  1.
<scales pt_clust_5="13000.00000" pt_clust_6="13000.00000" pt_clust_7="13000.00000" pt_clust_8="13000.00000" pt_clust_9="45.14708"></scales>
<clustering>
<clus scale="   45.147">  2  9  1 -1</clus>
<clus scale="   90.504">  7  8 -1 -1</clus>
<clus scale="   91.080">  5  6 -1 -1</clus>
<clus scale="  106.523">  1  7  2 -1</clus>
<clus scale="   45.147">  2  5  1 -1</clus>
</clustering>
</event>
<event>
 9    1  0.1234700E-005  0.1533854E+03  0.7546771E-02  0.1196591E+00
         -1   -1    0    0    0  501 -0.00000000000E+00  0.00000000000E+00  0.84413753715E+02  0.84413753715E+02  0.00000000000E+00 0.  1.
          1   -1    0    0  502    0  0.00000000000E+00 -0.00000000000E+00 -0.35345834166E+03  0.35345834166E+03  0.00000000000E+00 0. -1.
         23    2    1    2    0    0  0.34504301335E+02  0.10699769643E+03 -0.85079585339E+02  0.16803069383E+03  0.91415121158E+02 0.  0.
         23    2    1    2    0    0 -0.60115856920E+02 -0.12301250587E+03 -0.14070051911E+03  0.21707548988E+03  0.92623643723E+02 0.  0.
        -11    1    3    3    0    0  0.18280577416E+02  0.52929710171E+02  0.10550288933E+02  0.56982824834E+02  0.00000000000E+00 0.  1.
         11    1    3    3    0    0  0.16223723919E+02  0.54067986260E+02 -0.95629874271E+02  0.11104786900E+03  0.00000000000E+00 0. -1.
        -11    1    4    4    0    0 -0.71694173405E+02 -0.45293941219E+02 -0.89467704867E+02  0.12327232384E+03  0.00000000000E+00 0.  1.
         11    1    4    4    0    0  0.11578316484E+02 -0.77718564651E+02 -0.51232814240E+02  0.93803166039E+02  0.00000000000E+00 0. -1.
         21    1    1    2  502  501  0.25611555585E+02  0.16014809439E+02 -0.43264483498E+02  0.52765911659E+02  0.00000000000E+00 0.  1.
<scales pt_clust_5="13000.00000" pt_clust_6="13000.00000" pt_clust_7="13000.00000" pt_clust_8="13000.00000" pt_clust_9="30.20639"></scales>
<clustering>
<clus scale="   30.206">  2  9  1 -1</clus>
<clus scale="   91.415">  5  6 -1 -1</clus>
<clus scale="   92.624">  7  8 -1 -1</clus>
<clus scale="  152.659">  1  5  2 -1</clus>
<clus scale="   30.206">  2  5  1 -1</clus>
</clustering>
</event>
<event>
 9    1  0.1234700E-005  0.2299714E+03  0.7546771E-02  0.1127136E+00
         -4   -1    0    0    0  501 -0.00000000000E+00  0.00000000000E+00  0.47671537768E+03  0.47671537768E+03  0.00000000000E+00 0.  1.
          4   -1    0    0  502    0  0.00000000000E+00 -0.00000000000E+00 -0.20448332449E+03  0.20448332449E+03  0.00000000000E+00 0. -1.
         23    2    1    2    0    0 -0.20061813044E+03 -0.76726666033E+02  0.33333922029E+03  0.40630777419E+03  0.88523194918E+02 0.  0.
         23    2    1    2    0    0  0.17883248627E+03  0.72209652928E+02 -0.56707960802E+01  0.21515644103E+03  0.95209474672E+02 0.  0.
        -13    1    4    4    0    0  0.67677604837E+02 -0.13987060569E+02 -0.24326730918E+02  0.73264492744E+02  0.00000000000E+00 0.  1.
         13    1    4    4    0    0  0.11115488144E+03  0.86196713497E+02  0.18655934838E+02  0.14189194829E+03  0.00000000000E+00 0. -1.
        -13    1    3    3    0    0 -0.84978367587E+02  0.12419390531E+02  0.11176973987E+03  0.14095403141E+03  0.00000000000E+00 0.  1.
         13    1    3    3    0    0 -0.11563976285E+03 -0.89146056564E+02  0.22156948042E+03  0.26535374278E+03  0.00000000000E+00 0. -1.
         21    1    1    2  502  501  0.21785644163E+02  0.45170131049E+01 -0.55436371026E+02  0.59734486953E+02  0.00000000000E+00 0. -1.
<scales pt_clust_5="13000.00000" pt_clust_6="13000.00000" pt_clust_7="13000.00000" pt_clust_8="13000.00000" pt_clust_9="22.24899"></scales>
<clustering>
<clus scale="   22.249">  2  9  1 -1</clus>
<clus scale="   88.523">  7  8 -1 -1</clus>
<clus scale="   95.209">  5  6 -1 -1</clus>
<clus scale="  227.285">  1  7  2 -1</clus>
<clus scale="   22.249">  2  5  1 -1</clus>
</clustering>
</event>
<event>
 9    1  0.1234700E-005  0.1747235E+03  0.7546771E-02  0.1173083E+00
          1   -1    0    0  502    0  0.00000000000E+00  0.00000000000E+00  0.21415512165E+03  0.21415512165E+03  0.00000000000E+00 0. -1.
         -1   -1    0    0    0  501 -0.00000000000E+00 -0.00000000000E+00 -0.29403228188E+03  0.29403228188E+03  0.00000000000E+00 0.  1.
         23    2    1    2    0    0 -0.11017225849E+03  0.10010130157E+03 -0.20230758009E+03  0.26711145972E+03  0.90895422531E+02 0.  0.
         23    2    1    2    0    0  0.13062260675E+03 -0.80168188844E+02  0.11402142131E+03  0.21130587522E+03  0.90333185990E+02 0.  0.
        -13    1    4    4    0    0  0.12569229325E+03 -0.32293471353E+02  0.83245496974E+02  0.15417922571E+03  0.00000000000E+00 0. -1.
         13    1    4    4    0    0  0.49303134982E+01 -0.47874717491E+02  0.30775924332E+02  0.57126649512E+02  0.00000000000E+00 0.  1.
        -13    1    3    3    0    0 -0.92960272260E+02  0.47402275978E+02 -0.75751278852E+02  0.12894512102E+03  0.00000000000E+00 0.  1.
         13    1    3    3    0    0 -0.17211986229E+02  0.52699025590E+02 -0.12655630124E+03  0.13816633870E+03  0.00000000000E+00 0. -1.
         21    1    1    2  502  501 -0.20450348259E+02 -0.19933112725E+02  0.84089985518E+01  0.29770068584E+02  0.00000000000E+00 0. -1.
<scales pt_clust_5="13000.00000" pt_clust_6="13000.00000" pt_clust_7="13000.00000" pt_clust_8="13000.00000" pt_clust_9="28.55776"></scales>
<clustering>
<clus scale="   28.558">  1  9  2 -1</clus>
<clus scale="   90.333">  5  6 -1 -1</clus>
<clus scale="   90.895">  7  8 -1 -1</clus>
<clus scale="  174.432">  1  5  2 -1</clus>
<clus scale="   28.558">  1  5  2 -1</clus>
</clustering>
</event>
<event>
 9    1  0.1234700E-005  0.2424231E+03  0.7546771E-02  0.1118291E+00
          1   -1    0    0  502    0  0.00000000000E+00  0.00000000000E+00  0.48579771827E+03  0.48579771827E+03  0.00000000000E+00 0. -1.
         -1   -1    0    0    0  501 -0.00000000000E+00 -0.00000000000E+00 -0.38822638611E+03  0.38822638611E+03  0.00000000000E+00 0.  1.
         23    2    1    2    0    0 -0.23187678588E+03 -0.72655088402E+02 -0.29225945051E+03  0.39044730796E+03  0.89375098213E+02 0.  0.
         23    2    1    2    0    0  0.11948050737E+03  0.12371786571E+02  0.26644949470E+03  0.30612274004E+03  0.91033762961E+02 0.  0.
        -11    1    4    4    0    0  0.36773721461E+02  0.47229316508E+02  0.12515086314E+03  0.13872870458E+03  0.00000000000E+00 0.  1.
         11    1    4    4    0    0  0.82706785908E+02 -0.34857529937E+02  0.14129863156E+03  0.16739403546E+03  0.00000000000E+00 0. -1.
        -13    1    3    3    0    0 -0.22406511801E+02 -0.46851785643E+01 -0.85017696282E+02  0.88045507269E+02  0.00000000000E+00 0. -1.
         13    1    3    3    0    0 -0.20947027408E+03 -0.67969909838E+02 -0.20724175423E+03  0.30240180069E+03  0.00000000000E+00 0.  1.
         21    1    1    2  502  501  0.11239627851E+03  0.60283301831E+02  0.12338128797E+03  0.17745405638E+03  0.00000000000E+00 0. -1.
<scales pt_clust_5="13000.00000" pt_clust_6="13000.00000" pt_clust_7="13000.00000" pt_clust_8="13000.00000" pt_clust_9="127.54215"></scales>
<clustering>
<clus scale="   89.375">  7  8 -1 -1</clus>
<clus scale="   91.034">  5  6 -1 -1</clus>
<clus scale="  127.542">  1  9  2 -1</clus>
<clus scale="  241.805">  2  7  1 -1</clus>
<clus scale="  127.542">  1  5  2 -1</clus>
</clustering>
</event>
<event>
 9    1  0.1234700E-005  0.1069010E+03  0.7546771E-02  0.1266915E+00
          1   -1    0    0  502    0  0.00000000000E+00  0.00000000000E+00  0.12661787344E+03  0.12661787344E+03  0.00000000000E+00 0. -1.
         -1   -1    0    0    0  501 -0.00000000000E+00 -0.00000000000E+00 -0.14300174362E+03  0.14300174362E+03  0.00000000000E+00 0.  1.
         23    2    1    2    0    0  0.58748252708E+02 -0.10248398651E+02 -0.56619526088E+02  0.12329537279E+03  0.91867248494E+02 0.  0.
         23    2    1    2    0    0 -0.41248490091E+02  0.27007541618E+02  0.47018342872E+01  0.10331537259E+03  0.90670357497E+02 0.  0.
        -11    1    3    3    0    0 -0.70098962386E+01 -0.36113374333E+02 -0.83581016424E+01  0.37724956118E+02  0.00000000000E+00 0. -1.
         11    1    3    3    0    0  0.65758148947E+02  0.25864975682E+02 -0.48261424446E+02  0.85570416673E+02  0.00000000000E+00 0.  1.
        -13    1    4    4    0    0 -0.26321808162E+02  0.54531028921E+02 -0.19638930328E+02  0.63656565133E+02  0.00000000000E+00 0.  1.
         13    1    4    4    0    0 -0.14926681929E+02 -0.27523487303E+02  0.24340764616E+02  0.39658807456E+02  0.00000000000E+00 0. -1.
         21    1    1    2  502  501 -0.17499762618E+02 -0.16759142967E+02  0.35533821616E+02  0.43008871682E+02  0.00000000000E+00 0. -1.
<scales pt_clust_5="13000.00000" pt_clust_6="13000.00000" pt_clust_7="13000.00000" pt_clust_8="13000.00000" pt_clust_9="24.23036"></scales>
<clustering>
<clus scale="   24.230">  1  9  2 -1</clus>
<clus scale="   90.670">  7  8 -1 -1</clus>
<clus scale="   91.867">  5  6 -1 -1</clus>
<clus scale="  105.874">  1  7  2 -1</clus>
<clus scale="   24.230">  1  5  2 -1</clus>
</clustering>
</event>
<event>
 9    1  0.1234700E-005  0.9182849E+02  0.7546771E-02  0.1299392E+00
          1   -1    0    0  502    0  0.00000000000E+00  0.00000000000E+00  0.18676598401E+03  0.18676598401E+03  0.00000000000E+00 0. -1.
         -1   -1    0    0    0  501 -0.00000000000E+00 -0.00000000000E+00 -0.74327489020E+02  0.74327489020E+02  0.00000000000E+00 0.  1.
         23    2    1    2    0    0  0.43203241808E+01 -0.56869278931E+01  0.12900137577E+02  0.91175177193E+02  0.89974957831E+02 0.  0.
         23    2    1    2    0    0  0.47788320749E+01 -0.12905071969E+02  0.11236661384E+03  0.14556626786E+03  0.91509039519E+02 0.  0.
        -11    1    3    3    0    0 -0.91360243650E+01  0.30462895566E+02 -0.22390096497E+02  0.38894361655E+02  0.00000000000E+00 0.  1.
         11    1    3    3    0    0  0.13456348546E+02 -0.36149823459E+02  0.35290234074E+02  0.52280815537E+02  0.00000000000E+00 0. -1.
        -13    1    4    4    0    0 -0.31902517224E+02 -0.93617950216E+01  0.70483741976E+01  0.33986664886E+02  0.00000000000E+00 0.  1.
         13    1    4    4    0    0  0.36681349299E+02 -0.35432769474E+01  0.10531823964E+03  0.11157960297E+03  0.00000000000E+00 0. -1.
         21    1    1    2  502  501 -0.90991562557E+01  0.18591999862E+02 -0.12828256432E+02  0.24352027976E+02  0.00000000000E+00 0. -1.
<scales pt_clust_5="13000.00000" pt_clust_6="13000.00000" pt_clust_7="13000.00000" pt_clust_8="13000.00000" pt_clust_9="20.69921"></scales>
<clustering>
<clus scale="   20.699">  2  9  1 -1</clus>
<clus scale="   89.975">  5  6 -1 -1</clus>
<clus scale="   90.300">  2  5  1 -1</clus>
<clus scale="   91.509">  7  8 -1 -1</clus>
<clus scale="   91.828">  1  5  2 -1</clus>
</clustering>
</event>
<event>
 9    1  0.1234700E-005  0.1019497E+03  0.7546771E-02  0.1276895E+00
         -1   -1    0    0    0  501 -0.00000000000E+00  0.00000000000E+00  0.50380010965E+03  0.50380010965E+03  0.00000000000E+00 0.  1.
          1   -1    0    0  502    0  0.00000000000E+00 -0.00000000000E+00 -0.28221748706E+02  0.28221748706E+02  0.00000000000E+00 0. -1.
         23    2    1    2    0    0 -0.15672060203E+02 -0.34720895193E+02  0.22069804528E+03  0.24199703113E+03  0.91672143266E+02 0.  0.
         23    2    1    2    0    0  0.43370941561E+02  0.33095066199E+02  0.22880683510E+03  0.25194993081E+03  0.90276673995E+02 0.  0.
        -11    1    3    3    0    0  0.21442523637E+02  0.11178614217E+02  0.13967274606E+03  0.14175055283E+03  0.00000000000E+00 0.  1.
         11    1    3    3    0    0 -0.37114583841E+02 -0.45899509410E+02  0.81025299223E+02  0.10024647830E+03  0.00000000000E+00 0. -1.
        -13    1    4    4    0    0 -0.25317738963E+02  0.25198845523E+02  0.91294633469E+02  0.98034074802E+02  0.00000000000E+00 0. -1.
         13    1    4    4    0    0  0.68688680525E+02  0.78962206755E+01  0.13751220163E+03  0.15391585601E+03  0.00000000000E+00 0.  1.
         21    1    1    2  502  501 -0.27698881358E+02  0.16258289943E+01  0.26073480557E+02  0.38074896412E+02  0.00000000000E+00 0. -1.
<scales pt_clust_5="13000.00000" pt_clust_6="13000.00000" pt_clust_7="13000.00000" pt_clust_8="13000.00000" pt_clust_9="27.74656"></scales>
<clustering>
<clus scale="   27.747">  2  9  1 -1</clus>
<clus scale="   90.277">  7  8 -1 -1</clus>
<clus scale="   91.672">  5  6 -1 -1</clus>
<clus scale="  100.697">  2  7  1 -1</clus>
<clus scale="   27.747">  2  5  1 -1</clus>
</clustering>
</event>
<event>
 9    1  0.1234700E-005  0.2493945E+03  0.7546771E-02  0.1113714E+00
          1   -1    0    0  502    0  0.00000000000E+00  0.00000000000E+00  0.25769553652E+03  0.25769553652E+03  0.00000000000E+00 0. -1.
         -1   -1    0    0    0  501 -0.00000000000E+00 -0.00000000000E+00 -0.43480959573E+03  0.43480959573E+03  0.00000000000E+00 0.  1.
         23    2    1    2    0    0  0.48262615423E+02 -0.26552048235E+03 -0.23124946402E+03  0.36686326158E+03  0.91005117950E+02 0.  0.
         23    2    1    2    0    0 -0.90600757487E+02  0.15294460912E+03  0.21809369690E+02  0.20109943591E+03  0.91459192017E+02 0.  0.
        -11    1    4    4    0    0  0.10055949872E+02  0.29184543384E+02 -0.19244798861E+02  0.36376118313E+02  0.00000000000E+00 0.  1.
         11    1    4    4    0    0 -0.10065670736E+03  0.12376006573E+03  0.41054168551E+02  0.16472331760E+03  0.00000000000E+00 0. -1.
        -13    1    3    3    0    0  0.57729649754E+02 -0.10623506569E+03 -0.68604870526E+02  0.13901521464E+03  0.00000000000E+00 0.  1.
         13    1    3    3    0    0 -0.94670343307E+01 -0.15928541666E+03 -0.16264459350E+03  0.22784804694E+03  0.00000000000E+00 0. -1.
         21    1    1    2  502  501  0.42338142064E+02  0.11257587323E+03  0.32326035129E+02  0.12454243476E+03  0.00000000000E+00 0. -1.
<scales pt_clust_5="13000.00000" pt_clust_6="13000.00000" pt_clust_7="13000.00000" pt_clust_8="13000.00000" pt_clust_9="120.27404"></scales>
<clustering>
<clus scale="   91.005">  7  8 -1 -1</clus>
<clus scale="   91.459">  5  6 -1 -1</clus>
<clus scale="  120.274">  1  9  2 -1</clus>
<clus scale="  249.228">  2  7  1 -1</clus>
<clus scale="  120.274">  1  5  2 -1</clus>
</clustering>
</event>
<event>
 9    1  0.1234700E-005  0.1090173E+03  0.7546771E-02  0.1264212E+00
          2   -1    0    0  502    0  0.00000000000E+00  0.00000000000E+00  0.44336367352E+03  0.44336367352E+03  0.00000000000E+00 0. -1.
         -2   -1    0    0    0  501 -0.00000000000E+00 -0.00000000000E+00 -0.36845455259E+02  0.36845455259E+02  0.00000000000E+00 0.  1.
         23    2    1    2    0    0  0.65159290046E+02 -0.24137174036E+01  0.14352176134E+03  0.18509844846E+03  0.97012269998E+02 0.  0.
         23    2    1    2    0    0 -0.31581020593E+02  0.81639517050E+01  0.17447389884E+03  0.20025917183E+03  0.92728547701E+02 0.  0.
        -11    1    3    3    0    0  0.71230482107E+01  0.22245457156E+02  0.11235799765E+03  0.11476026235E+03  0.00000000000E+00 0.  1.
         11    1    3    3    0    0  0.58036241835E+02 -0.24659174560E+02  0.31163763696E+02  0.70338186101E+02  0.00000000000E+00 0. -1.
        -13    1    4    4    0    0 -0.35362206840E+02 -0.32474543636E+02  0.50236553645E+02  0.69489517045E+02  0.00000000000E+00 0.  1.
         13    1    4    4    0    0  0.37811862476E+01  0.40638495341E+02  0.12423734519E+03  0.13076965479E+03  0.00000000000E+00 0. -1.
         21    1    1    2  502  501 -0.33578269453E+02 -0.57502343014E+01  0.88522558082E+02  0.94851508493E+02  0.00000000000E+00 0.  1.
<scales pt_clust_5="13000.00000" pt_clust_6="13000.00000" pt_clust_7="13000.00000" pt_clust_8="13000.00000" pt_clust_9="34.06707"></scales>
<clustering>
<clus scale="   34.067">  1  9  2 -1</clus>
<clus scale="   92.729">  7  8 -1 -1</clus>
<clus scale="   97.012">  5  6 -1 -1</clus>
<clus scale="  105.223">  1  7  2 -1</clus>
<clus scale="   34.067">  1  5  2 -1</clus>
</clustering>
</event>
<event>
 9    1  0.2505381E-005  0.4617295E+03  0.7546771E-02  0.1024282E+00
         -1   -1    0    0    0  501 -0.00000000000E+00  0.00000000000E+00  0.16589488020E+03  0.16589488020E+03  0.00000000000E+00 0.  1.
          1   -1    0    0  502    0  0.00000000000E+00 -0.00000000000E+00 -0.15530310969E+04  0.15530310969E+04  0.00000000000E+00 0. -1.
         23    2    1    2    0    0  0.45034053436E+03 -0.98876913779E+02 -0.37088007092E+03  0.59881191523E+03  0.91871877344E+02 0.  0.
         23    2    1    2    0    0 -0.42365241030E+03  0.97033983507E+02 -0.96314978673E+03  0.10606503105E+04  0.91785678289E+02 0.  0.
        -11    1    3    3    0    0  0.18013282273E+03 -0.53850647050E+02 -0.20683764416E+03  0.27951661320E+03  0.00000000000E+00 0. -1.
         11    1    3    3    0    0  0.27020771163E+03 -0.45026266729E+02 -0.16404242676E+03  0.31929530203E+03  0.00000000000E+00 0.  1.
        -13    1    4    4    0    0 -0.23556357543E+02  0.19586689959E+02 -0.12471966421E+03  0.12842715851E+03  0.00000000000E+00 0.  1.
         13    1    4    4    0    0 -0.40009605276E+03  0.77447293549E+02 -0.83843012252E+03  0.93222315197E+03  0.00000000000E+00 0. -1.
         21    1    1    2  502  501 -0.26688124064E+02  0.18429302718E+01 -0.53106359053E+02  0.59463751395E+02  0.00000000000E+00 0.  1.
<scales pt_clust_5="13000.00000" pt_clust_6="13000.00000" pt_clust_7="13000.00000" pt_clust_8="13000.00000" pt_clust_9="26.75168"></scales>
<clustering>
<clus scale="   26.752">  2  9  1 -1</clus>
<clus scale="   91.786">  7  8 -1 -1</clus>
<clus scale="   91.872">  5  6 -1 -1</clus>
<clus scale="  461.712">  2  7  1 -1</clus>
<clus scale="   26.752">  2  5  1 -1</clus>
</clustering>
</event>
<event>
 9    1  0.1234700E-005  0.9758251E+02  0.7546771E-02  0.1286815E+00
          1   -1    0    0  502    0  0.00000000000E+00  0.00000000000E+00  0.84858715698E+03  0.84858715698E+03  0.00000000000E+00 0. -1.
         -1   -1    0    0    0  501 -0.00000000000E+00 -0.00000000000E+00 -0.20899492717E+02  0.20899492717E+02  0.00000000000E+00 0.  1.
         23    2    1    2    0    0  0.21856648037E+02  0.23239656082E+02  0.28185717040E+03  0.29900542113E+03  0.94567344682E+02 0.  0.
         23    2    1    2    0    0  0.40017948126E+02 -0.18169949601E+02  0.37869662721E+03  0.39218962205E+03  0.92032499363E+02 0.  0.
        -11    1    4    4    0    0 -0.11752531169E+02  0.27419383694E+02  0.74104746845E+02  0.79884029042E+02  0.00000000000E+00 0.  1.
         11    1    4    4    0    0  0.51770479295E+02 -0.45589333295E+02  0.30459188037E+03  0.31230559301E+03  0.00000000000E+00 0. -1.
        -11    1    3    3    0    0 -0.36385386862E+02  0.22056301335E+01  0.12983786064E+03  0.13485781860E+03  0.00000000000E+00 0.  1.
         11    1    3    3    0    0  0.58242034898E+02  0.21034025949E+02  0.15201930976E+03  0.16414760253E+03  0.00000000000E+00 0. -1.
         21    1    1    2  502  501 -0.61874596162E+02 -0.50697064812E+01  0.16713386665E+03  0.17829160652E+03  0.00000000000E+00 0.  1.
<scales pt_clust_5="13000.00000" pt_clust_6="13000.00000" pt_clust_7="13000.00000" pt_clust_8="13000.00000" pt_clust_9="62.08194"></scales>
<clustering>
<clus scale="   62.082">  2  9  1 -1</clus>
<clus scale="   92.032">  5  6 -1 -1</clus>
<clus scale="   94.567">  7  8 -1 -1</clus>
<clus scale="   95.128">  1  5  2 -1</clus>
<clus scale="   95.128">  1  5  2 -1</clus>
</clustering>
</event>
<event>
 9    1  0.1234700E-005  0.1698850E+03  0.7546771E-02  0.1177973E+00
          1   -1    0    0  502    0  0.00000000000E+00  0.00000000000E+00  0.54507323372E+03  0.54507323372E+03  0.00000000000E+00 0. -1.
         -1   -1    0    0    0  501 -0.00000000000E+00 -0.00000000000E+00 -0.13873303985E+03  0.13873303985E+03  0.00000000000E+00 0.  1.
         23    2    1    2    0    0  0.11678145286E+03  0.30029794609E+02  0.48806903898E+02  0.15824045703E+03  0.90101232386E+02 0.  0.
         23    2    1    2    0    0 -0.16959807352E+03 -0.18117381663E+02  0.31948103593E+02  0.19550943561E+03  0.90063933011E+02 0.  0.
        -11    1    4    4    0    0 -0.14164381674E+03  0.15922597084E+02  0.25611792837E+01  0.14255896871E+03  0.00000000000E+00 0. -1.
         11    1    4    4    0    0 -0.27954256780E+02 -0.34039978747E+02  0.29386924310E+02  0.52950466906E+02  0.00000000000E+00 0.  1.
        -13    1    3    3    0    0  0.98209095466E+02  0.15469880497E+02 -0.49380105098E+01  0.99542591802E+02  0.00000000000E+00 0.  1.
         13    1    3    3    0    0  0.18572357397E+02  0.14559914112E+02  0.53744914407E+02  0.58697865233E+02  0.00000000000E+00 0. -1.
         21    1    1    2  502  501  0.52816620659E+02 -0.11912412946E+02  0.32558518638E+03  0.33005638093E+03  0.00000000000E+00 0. -1.
<scales pt_clust_5="13000.00000" pt_clust_6="13000.00000" pt_clust_7="13000.00000" pt_clust_8="13000.00000" pt_clust_9="54.14334"></scales>
<clustering>
<clus scale="   54.143">  1  9  2 -1</clus>
<clus scale="   90.064">  5  6 -1 -1</clus>
<clus scale="   90.101">  7  8 -1 -1</clus>
<clus scale="  169.865">  1  5  2 -1</clus>
<clus scale="   54.143">  1  5  2 -1</clus>
</clustering>
</event>
<event>
 9    1  0.1234700E-005  0.9136253E+02  0.7546771E-02  0.1299958E+00
          4   -1    0    0  502    0  0.00000000000E+00  0.00000000000E+00  0.22504127805E+02  0.22504127805E+02  0.00000000000E+00 0. -1.
         -4   -1    0    0    0  501 -0.00000000000E+00 -0.00000000000E+00 -0.48007343014E+03  0.48007343014E+03  0.00000000000E+00 0.  1.
         23    2    1    2    0    0 -0.21974235536E+02 -0.52408886937E+01 -0.20753739976E+03  0.22724352728E+03  0.89763658851E+02 0.  0.
         23    2    1    2    0    0  0.49168989488E+01 -0.10105707075E+02 -0.18175063366E+03  0.20330068826E+03  0.90396768751E+02 0.  0.
        -13    1    4    4    0    0 -0.39463207004E+02 -0.13652786192E+02 -0.55675022280E+02  0.69594909180E+02  0.00000000000E+00 0.  1.
         13    1    4    4    0    0  0.44380105953E+02  0.35470791170E+01 -0.12607561138E+03  0.13370577908E+03  0.00000000000E+00 0. -1.
        -13    1    3    3    0    0  0.75990886742E+01  0.28168268213E+02 -0.22336728061E+02  0.36744073036E+02  0.00000000000E+00 0. -1.
         13    1    3    3    0    0 -0.29573324210E+02 -0.33409156906E+02 -0.18520067170E+03  0.19049945425E+03  0.00000000000E+00 0.  1.
         21    1    1    2  502  501  0.17057336587E+02  0.15346595769E+02 -0.68281268909E+02  0.72033342397E+02  0.00000000000E+00 0. -1.
<scales pt_clust_5="13000.00000" pt_clust_6="13000.00000" pt_clust_7="13000.00000" pt_clust_8="13000.00000" pt_clust_9="22.94495"></scales>
<clustering>
<clus scale="   22.945">  2  9  1 -1</clus>
<clus scale="   89.764">  7  8 -1 -1</clus>
<clus scale="   90.397">  5  6 -1 -1</clus>
<clus scale="   90.736">  2  7  1 -1</clus>
<clus scale="   91.363">  1  5  2 -1</clus>
</clustering>
</event>
<event>
 9    1  0.1234700E-005  0.1240661E+03  0.7546771E-02  0.1236574E+00
          1   -1    0    0  502    0  0.00000000000E+00  0.00000000000E+00  0.30798058548E+03  0.30798058548E+03  0.00000000000E+00 0. -1.
         -1   -1    0    0    0  501 -0.00000000000E+00 -0.00000000000E+00 -0.11698379698E+03  0.11698379698E+03  0.00000000000E+00 0.  1.
         23    2    1    2    0    0 -0.46312824780E+02  0.63831022036E+02 -0.38414189971E+02  0.12605342640E+03  0.90523694152E+02 0.  0.
         23    2    1    2    0    0  0.81028380548E+02 -0.70354204911E+02  0.12274314251E+03  0.18654659803E+03  0.90655620900E+02 0.  0.
        -11    1    4    4    0    0  0.60622119825E+02 -0.20311438963E+02  0.14493993112E+02  0.65556630490E+02  0.00000000000E+00 0.  1.
         11    1    4    4    0    0  0.20406260723E+02 -0.50042765948E+02  0.10824914940E+03  0.12098996754E+03  0.00000000000E+00 0. -1.
        -13    1    3    3    0    0  0.53692609786E+01  0.64277089068E+02 -0.54034853065E+01  0.64726893916E+02  0.00000000000E+00 0.  1.
         13    1    3    3    0    0 -0.51682085758E+02 -0.44606703210E+00 -0.33010704664E+02  0.61326532484E+02  0.00000000000E+00 0. -1.
         21    1    1    2  502  501 -0.34715555768E+02  0.65231828742E+01  0.10666783596E+03  0.11236435803E+03  0.00000000000E+00 0. -1.
<scales pt_clust_5="13000.00000" pt_clust_6="13000.00000" pt_clust_7="13000.00000" pt_clust_8="13000.00000" pt_clust_9="35.32310"></scales>
<clustering>
<clus scale="   35.323">  1  9  2 -1</clus>
<clus scale="   90.524">  7  8 -1 -1</clus>
<clus scale="   90.656">  5  6 -1 -1</clus>
<clus scale="  123.970">  2  7  1 -1</clus>
<clus scale="   35.323">  1  5  2 -1</clus>
</clustering>
</event>
<event>
 9    1  0.1234700E-005  0.9289132E+02  0.7546771E-02  0.1297489E+00
          2   -1    0    0  502    0  0.00000000000E+00  0.00000000000E+00  0.12117107649E+03  0.12117107649E+03  0.00000000000E+00 0. -1.
         -2   -1    0    0    0  501 -0.00000000000E+00 -0.00000000000E+00 -0.92424874671E+02  0.92424874671E+02  0.00000000000E+00 0.  1.
         23    2    1    2    0    0 -0.66068604040E+01  0.34308959493E+01  0.65183525231E+01  0.92381064699E+02  0.91849608295E+02 0.  0.
         23    2    1    2    0    0 -0.28587504310E+01 -0.23889952967E+02  0.45784635837E+01  0.92584978700E+02  0.89286693551E+02 0.  0.
        -11    1    3    3    0    0  0.38140383437E+02 -0.13817334562E+02 -0.97843118087E+01  0.41729370241E+02  0.00000000000E+00 0.  1.
         11    1    3    3    0    0 -0.44747243841E+02  0.17248230511E+02  0.16302664332E+02  0.50651694458E+02  0.00000000000E+00 0. -1.
        -13    1    4    4    0    0  0.45744981816E+00 -0.56829110267E+02  0.13265274995E+02  0.58358585956E+02  0.00000000000E+00 0.  1.
         13    1    4    4    0    0 -0.33162002491E+01  0.32939157300E+02 -0.86868114116E+01  0.34226392744E+02  0.00000000000E+00 0. -1.
         21    1    1    2  502  501  0.94656108349E+01  0.20459057017E+02  0.17649385715E+02  0.28629907765E+02  0.00000000000E+00 0. -1.
<scales pt_clust_5="13000.00000" pt_clust_6="13000.00000" pt_clust_7="13000.00000" pt_clust_8="13000.00000" pt_clust_9="22.54264"></scales>
<clustering>
<clus scale="   22.543">  1  9  2 -1</clus>
<clus scale="   89.287">  7  8 -1 -1</clus>
<clus scale="   90.358">  1  7  2 -1</clus>
<clus scale="   91.850">  5  6 -1 -1</clus>
<clus scale="   22.543">  1  5  2 -1</clus>
</clustering>
</event>
<event>
 9    1  0.1234700E-005  0.1127762E+03  0.7546771E-02  0.1255871E+00
          2   -1    0    0  502    0  0.00000000000E+00  0.00000000000E+00  0.76234082478E+03  0.76234082478E+03  0.00000000000E+00 0. -1.
         -2   -1    0    0    0  501 -0.00000000000E+00 -0.00000000000E+00 -0.22763613849E+02  0.22763613849E+02  0.00000000000E+00 0.  1.
         23    2    1    2    0    0 -0.35356407714E+02 -0.38600544022E+02  0.26951057688E+03  0.28922358139E+03  0.90962912330E+02 0.  0.
         23    2    1    2    0    0  0.48950914734E+02  0.63566916806E+02  0.30712413868E+03  0.33047714751E+03  0.91939999476E+02 0.  0.
        -11    1    3    3    0    0  0.20105505258E+02 -0.32221667888E+02  0.50373147824E+02  0.63086617003E+02  0.00000000000E+00 0.  1.
         11    1    3    3    0    0 -0.55461912972E+02 -0.63788761332E+01  0.21913742905E+03  0.22613696439E+03  0.00000000000E+00 0. -1.
        -13    1    4    4    0    0  0.57112096008E+01  0.63669102923E+02  0.25430480434E+03  0.26221614384E+03  0.00000000000E+00 0. -1.
         13    1    4    4    0    0  0.43239705133E+02 -0.10218611741E+00  0.52819334344E+02  0.68261003674E+02  0.00000000000E+00 0.  1.
         21    1    1    2  502  501 -0.13594507020E+02 -0.24966372784E+02  0.16294249537E+03  0.16540370972E+03  0.00000000000E+00 0. -1.
<scales pt_clust_5="13000.00000" pt_clust_6="13000.00000" pt_clust_7="13000.00000" pt_clust_8="13000.00000" pt_clust_9="28.42763"></scales>
<clustering>
<clus scale="   28.428">  1  9  2 -1</clus>
<clus scale="   90.963">  5  6 -1 -1</clus>
<clus scale="   91.940">  7  8 -1 -1</clus>
<clus scale="  111.981">  2  5  1 -1</clus>
<clus scale="   28.428">  1  5  2 -1</clus>
</clustering>
</event>
<event>
 9    1  0.1234700E-005  0.1026851E+03  0.7546771E-02  0.1276325E+00
          1   -1    0    0  502    0  0.00000000000E+00  0.00000000000E+00  0.23982824235E+03  0.23982824235E+03  0.00000000000E+00 0. -1.
         -1   -1    0    0    0  501 -0.00000000000E+00 -0.00000000000E+00 -0.76293389478E+02  0.76293389478E+02  0.00000000000E+00 0.  1.
         23    2    1    2    0    0  0.59315304216E+01 -0.48321809328E+02  0.89625580136E+01  0.10573024993E+03  0.93425788695E+02 0.  0.
         23    2    1    2    0    0  0.70933311859E+01  0.45417091488E+01  0.10621540016E+03  0.14387271192E+03  0.96678350908E+02 0.  0.
        -11    1    4    4    0    0  0.34021023721E+02  0.21107005937E+02  0.81774709370E+01  0.40863269394E+02  0.00000000000E+00 0.  1.
         11    1    4    4    0    0 -0.26927692535E+02 -0.16565296788E+02  0.98037929220E+02  0.10300944252E+03  0.00000000000E+00 0. -1.
        -11    1    3    3    0    0  0.11160779199E+02  0.26988376959E+02  0.78043748978E+01  0.30229848672E+02  0.00000000000E+00 0.  1.
         11    1    3    3    0    0 -0.52292487776E+01 -0.75310186287E+02  0.11581831157E+01  0.75500401253E+02  0.00000000000E+00 0. -1.
         21    1    1    2  502  501 -0.13024861607E+02  0.43780100179E+02  0.48356894702E+02  0.66518669987E+02  0.00000000000E+00 0.  1.
<scales pt_clust_5="13000.00000" pt_clust_6="13000.00000" pt_clust_7="13000.00000" pt_clust_8="13000.00000" pt_clust_9="45.67652"></scales>
<clustering>
<clus scale="   45.677">  1  9  2 -1</clus>
<clus scale="   93.426">  7  8 -1 -1</clus>
<clus scale="   96.678">  5  6 -1 -1</clus>
<clus scale="   99.629">  2  7  1 -1</clus>
<clus scale="   45.677">  1  5  2 -1</clus>
</clustering>
</event>
<event>
 9    1  0.1234700E-005  0.1244601E+03  0.7546771E-02  0.1236092E+00
          1   -1    0    0  502    0  0.00000000000E+00  0.00000000000E+00  0.34588723887E+03  0.34588723887E+03  0.00000000000E+00 0. -1.
         -1   -1    0    0    0  501 -0.00000000000E+00 -0.00000000000E+00 -0.91547712145E+02  0.91547712145E+02  0.00000000000E+00 0.  1.
         23    2    1    2    0    0  0.16903716223E+02  0.87372828014E+02 -0.16423698854E+02  0.12848237501E+03  0.91204364510E+02 0.  0.
         23    2    1    2    0    0  0.62093427805E+01 -0.68503025738E+02  0.18037391971E+03  0.21376586711E+03  0.91814348332E+02 0.  0.
        -11    1    4    4    0    0  0.22705644672E+02  0.30147734733E+01  0.47083414135E+01  0.23383832832E+02  0.00000000000E+00 0.  1.
         11    1    4    4    0    0 -0.16496301892E+02 -0.71517799212E+02  0.17566557829E+03  0.19038203428E+03  0.00000000000E+00 0. -1.
        -11    1    3    3    0    0 -0.17251310871E+02  0.91418603677E+02 -0.11637010418E+02  0.93757073528E+02  0.00000000000E+00 0.  1.
         11    1    3    3    0    0  0.34155027094E+02 -0.40457756635E+01 -0.47866884359E+01  0.34725301477E+02  0.00000000000E+00 0. -1.
         21    1    1    2  502  501 -0.23113059004E+02 -0.18869802275E+02  0.90389305873E+02  0.95186708897E+02  0.00000000000E+00 0.  1.
<scales pt_clust_5="13000.00000" pt_clust_6="13000.00000" pt_clust_7="13000.00000" pt_clust_8="13000.00000" pt_clust_9="29.83761"></scales>
<clustering>
<clus scale="   29.838">  1  9  2 -1</clus>
<clus scale="   91.204">  7  8 -1 -1</clus>
<clus scale="   91.814">  5  6 -1 -1</clus>
<clus scale="  124.011">  2  7  1 -1</clus>
<clus scale="   29.838">  1  5  2 -1</clus>
</clustering>
</event>
<event>
 9    1  0.1234700E-005  0.1553587E+03  0.7546771E-02  0.1217372E+00
         -1   -1    0    0    0  501 -0.00000000000E+00  0.00000000000E+00  0.82551421535E+02  0.82551421535E+02  0.00000000000E+00 0.  1.
          1   -1    0    0  502    0  0.00000000000E+00 -0.00000000000E+00 -0.69473152302E+03  0.69473152302E+03  0.00000000000E+00 0. -1.
         23    2    1    2    0    0 -0.87530092814E+02  0.84753032515E+02 -0.42424947312E+02  0.15768423169E+03  0.90663372440E+02 0.  0.
         23    2    1    2    0    0 -0.28578213387E+02  0.20236443861E+01 -0.16857750336E+03  0.19303706675E+03  0.89577480888E+02 0.  0.
        -11    1    4    4    0    0 -0.14025840865E+02  0.37911374610E+02 -0.33444527608E+02  0.52464587711E+02  0.00000000000E+00 0.  1.
         11    1    4    4    0    0 -0.14552372522E+02 -0.35887730224E+02 -0.13513297575E+03  0.14057247904E+03  0.00000000000E+00 0. -1.
        -13    1    3    3    0    0 -0.96319693068E+02  0.46732497506E+02 -0.11077685393E+02  0.10762957172E+03  0.00000000000E+00 0.  1.
         13    1    3    3    0    0  0.87896002538E+01  0.38020535009E+02 -0.31347261919E+02  0.50054659971E+02  0.00000000000E+00 0. -1.
         21    1    1    2  502  501  0.11610830620E+03 -0.86776676902E+02 -0.40117765081E+03  0.42656164611E+03  0.00000000000E+00 0. -1.
<scales pt_clust_5="13000.00000" pt_clust_6="13000.00000" pt_clust_7="13000.00000" pt_clust_8="13000.00000" pt_clust_9="126.16057"></scales>
<clustering>
<clus scale="   89.577">  5  6 -1 -1</clus>
<clus scale="   90.663">  7  8 -1 -1</clus>
<clus scale="   94.048">  2  5  1 -1</clus>
<clus scale="  126.161">  2  9  1 -1</clus>
<clus scale="   94.048">  2  5  1 -1</clus>
</clustering>
</event>
<event>
 9    1  0.1234700E-005  0.1086038E+03  0.7546771E-02  0.1263817E+00
          3   -1    0    0  502    0  0.00000000000E+00  0.00000000000E+00  0.15751404470E+02  0.15751404470E+02  0.00000000000E+00 0. -1.
         -3   -1    0    0    0  501 -0.00000000000E+00 -0.00000000000E+00 -0.11967955830E+04  0.11967955830E+04  0.00000000000E+00 0.  1.
         23    2    1    2    0    0  0.13099157309E+02 -0.59329014231E+02 -0.53211737230E+03  0.54306807407E+03  0.89902810417E+02 0.  0.
         23    2    1    2    0    0  0.33442578200E+02  0.56041952937E+02 -0.52872240303E+03  0.54053692464E+03  0.91507818832E+02 0.  0.
        -11    1    4    4    0    0  0.36116025821E+02 -0.15344520997E+02 -0.23490144285E+03  0.23815648112E+03  0.00000000000E+00 0.  1.
         11    1    4    4    0    0 -0.26734476208E+01  0.71386473935E+02 -0.29382096018E+03  0.30238044352E+03  0.00000000000E+00 0. -1.
        -13    1    3    3    0    0  0.34817469975E+02  0.94773762674E+01 -0.15974389395E+03  0.16376870437E+03  0.00000000000E+00 0.  1.
         13    1    3    3    0    0 -0.21718312666E+02 -0.68806390498E+02 -0.37237347835E+03  0.37929936970E+03  0.00000000000E+00 0. -1.
         21    1    1    2  502  501 -0.46541735509E+02  0.32870612935E+01 -0.12020440320E+03  0.12894198876E+03  0.00000000000E+00 0. -1.
<scales pt_clust_5="13000.00000" pt_clust_6="13000.00000" pt_clust_7="13000.00000" pt_clust_8="13000.00000" pt_clust_9="46.65767"></scales>
<clustering>
<clus scale="   46.658">  1  9  2 -1</clus>
<clus scale="   89.903">  7  8 -1 -1</clus>
<clus scale="   91.508">  5  6 -1 -1</clus>
<clus scale="  107.255">  2  7  1 -1</clus>
<clus scale="   46.658">  1  5  2 -1</clus>
</clustering>
</event>
<event>
 9    1  0.1234700E-005  0.1996331E+03  0.7546771E-02  0.1150389E+00
          2   -1    0    0  502    0  0.00000000000E+00  0.00000000000E+00  0.15114367768E+04  0.15114367768E+04  0.00000000000E+00 0. -1.
         -2   -1    0    0    0  501 -0.00000000000E+00 -0.00000000000E+00 -0.30964994092E+02  0.30964994092E+02  0.00000000000E+00 0.  1.
         23    2    1    2    0    0 -0.94351970173E+02  0.14758023510E+03  0.58153822147E+03  0.61394960988E+03  0.89806460640E+02 0.  0.
         23    2    1    2    0    0  0.12034328501E+03 -0.13345160159E+03  0.79671201055E+03  0.82203593971E+03  0.93280342002E+02 0.  0.
        -11    1    3    3    0    0  0.67351335546E+01  0.26582313402E+02  0.31520135930E+02  0.41779185953E+02  0.00000000000E+00 0.  1.
         11    1    3    3    0    0 -0.10108710373E+03  0.12099792169E+03  0.55001808554E+03  0.57217042392E+03  0.00000000000E+00 0. -1.
        -13    1    4    4    0    0  0.56558638499E+02 -0.34833903612E+01  0.26306803445E+03  0.26910184754E+03  0.00000000000E+00 0. -1.
         13    1    4    4    0    0  0.63784646514E+02 -0.12996821123E+03  0.53364397610E+03  0.55293409217E+03  0.00000000000E+00 0.  1.
         21    1    1    2  502  501 -0.25991314840E+02 -0.14128633510E+02  0.10222155071E+03  0.10641622133E+03  0.00000000000E+00 0. -1.
<scales pt_clust_5="13000.00000" pt_clust_6="13000.00000" pt_clust_7="13000.00000" pt_clust_8="13000.00000" pt_clust_9="29.58322"></scales>
<clustering>
<clus scale="   29.583">  1  9  2 -1</clus>
<clus scale="   89.806">  5  6 -1 -1</clus>
<clus scale="   93.280">  7  8 -1 -1</clus>
<clus scale="  198.034">  2  5  1 -1</clus>
<clus scale="   29.583">  1  5  2 -1</clus>
</clustering>
</event>
<event>
 9    1  0.1234700E-005  0.9170604E+02  0.7546771E-02  0.1300069E+00
         -1   -1    0    0    0  501 -0.00000000000E+00  0.00000000000E+00  0.52238585668E+02  0.52238585668E+02  0.00000000000E+00 0.  1.
          1   -1    0    0  502    0  0.00000000000E+00 -0.00000000000E+00 -0.26762161170E+03  0.26762161170E+03  0.00000000000E+00 0. -1.
         23    2    1    2    0    0  0.13271344960E+01 -0.22154424101E+01 -0.27274627729E+02  0.95532062369E+02  0.91519397680E+02 0.  0.
         23    2    1    2    0    0 -0.11694339924E+02 -0.22631996439E+02 -0.16242416655E+03  0.18711854045E+03  0.89346367867E+02 0.  0.
        -11    1    3    3    0    0 -0.25980892651E+02 -0.27916479516E+02  0.13199759932E+02  0.40355548240E+02  0.00000000000E+00 0. -1.
         11    1    3    3    0    0  0.27308027147E+02  0.25701037105E+02 -0.40474387661E+02  0.55176514129E+02  0.00000000000E+00 0.  1.
        -11    1    4    4    0    0  0.30387186568E+02 -0.23366172278E+01 -0.12067069956E+03  0.12445986751E+03  0.00000000000E+00 0. -1.
         11    1    4    4    0    0 -0.42081526492E+02 -0.20295379211E+02 -0.41753466995E+02  0.62658672946E+02  0.00000000000E+00 0.  1.
         21    1    1    2  502  501  0.10367205428E+02  0.24847438849E+02 -0.25684231748E+02  0.37209594545E+02  0.00000000000E+00 0. -1.
<scales pt_clust_5="13000.00000" pt_clust_6="13000.00000" pt_clust_7="13000.00000" pt_clust_8="13000.00000" pt_clust_9="26.92349"></scales>
<clustering>
<clus scale="   26.923">  2  9  1 -1</clus>
<clus scale="   89.346">  7  8 -1 -1</clus>
<clus scale="   89.538">  2  7  1 -1</clus>
<clus scale="   91.519">  5  6 -1 -1</clus>
<clus scale="   26.923">  2  5  1 -1</clus>
</clustering>
</event>
<event>
 9    1  0.1234700E-005  0.9988211E+02  0.7546771E-02  0.1281106E+00
         -1   -1    0    0    0  501 -0.00000000000E+00  0.00000000000E+00  0.14876668140E+03  0.14876668140E+03  0.00000000000E+00 0.  1.
          1   -1    0    0  502    0  0.00000000000E+00 -0.00000000000E+00 -0.95601120371E+02  0.95601120371E+02  0.00000000000E+00 0. -1.
         23    2    1    2    0    0  0.27575103124E+02 -0.31886280176E+02  0.39859223503E+02  0.10702578824E+03  0.89936869378E+02 0.  0.
         23    2    1    2    0    0 -0.50952162556E+02  0.81318406695E+01  0.16008935925E+02  0.10390454440E+03  0.88755949750E+02 0.  0.
        -11    1    3    3    0    0  0.45285388055E+02  0.96729456713E+01 -0.70316557109E+00  0.46312273655E+02  0.00000000000E+00 0.  1.
         11    1    3    3    0    0 -0.17710284931E+02 -0.41559225847E+02  0.40562389074E+02  0.60713514581E+02  0.00000000000E+00 0. -1.
        -13    1    4    4    0    0 -0.54427001523E+02 -0.25885754693E+02 -0.98033855262E+01  0.61061257427E+02  0.00000000000E+00 0. -1.
         13    1    4    4    0    0  0.34748389668E+01  0.34017595362E+02  0.25812321451E+02  0.42843286974E+02  0.00000000000E+00 0.  1.
         21    1    1    2  502  501  0.23377059432E+02  0.23754439507E+02 -0.27025983986E+01  0.33437469134E+02  0.00000000000E+00 0.  1.
<scales pt_clust_5="13000.00000" pt_clust_6="13000.00000" pt_clust_7="13000.00000" pt_clust_8="13000.00000" pt_clust_9="33.32807"></scales>
<clustering>
<clus scale="   33.328">  2  9  1 -1</clus>
<clus scale="   88.756">  7  8 -1 -1</clus>
<clus scale="   89.937">  5  6 -1 -1</clus>
<clus scale="   98.820">  2  7  1 -1</clus>
<clus scale="   33.328">  2  5  1 -1</clus>
</clustering>
</event>
<event>
 9    1  0.1234700E-005  0.1345043E+03  0.7546771E-02  0.1221510E+00
          1   -1    0    0  502    0  0.00000000000E+00  0.00000000000E+00  0.59531600640E+02  0.59531600640E+02  0.00000000000E+00 0. -1.
         -1   -1    0    0    0  501 -0.00000000000E+00 -0.00000000000E+00 -0.52346913073E+03  0.52346913073E+03  0.00000000000E+00 0.  1.
         23    2    1    2    0    0 -0.85890421128E+01  0.11562725895E+03 -0.25009179702E+03  0.29028555374E+03  0.90974508048E+02 0.  0.
         23    2    1    2    0    0 -0.41287201283E+02 -0.82610067652E+02 -0.10353281239E+03  0.16722926191E+03  0.93367695322E+02 0.  0.
        -11    1    4    4    0    0 -0.59616945530E+02 -0.46126881881E+02 -0.10139547405E+03  0.12634441651E+03  0.00000000000E+00 0.  1.
         11    1    4    4    0    0  0.18329744246E+02 -0.36483185771E+02 -0.21373383478E+01  0.40884845400E+02  0.00000000000E+00 0. -1.
        -11    1    3    3    0    0 -0.27508521456E+02  0.57696159647E+00 -0.26929083342E+02  0.38499703467E+02  0.00000000000E+00 0.  1.
         11    1    3    3    0    0  0.18919479344E+02  0.11505029735E+03 -0.22316271368E+03  0.25178585027E+03  0.00000000000E+00 0. -1.
         21    1    1    2  502  501  0.49876243396E+02 -0.33017191299E+02 -0.11031292067E+03  0.12548591572E+03  0.00000000000E+00 0. -1.
<scales pt_clust_5="13000.00000" pt_clust_6="13000.00000" pt_clust_7="13000.00000" pt_clust_8="13000.00000" pt_clust_9="59.81450"></scales>
<clustering>
<clus scale="   59.815">  2  9  1 -1</clus>
<clus scale="   90.975">  7  8 -1 -1</clus>
<clus scale="   93.368">  5  6 -1 -1</clus>
<clus scale="  132.854">  2  7  1 -1</clus>
<clus scale="  134.504">  1  5  2 -1</clus>
</clustering>
</event>
<event>
 9    1  0.1582279E-005  0.1061387E+03  0.7546771E-02  0.1269082E+00
         -1   -1    0    0    0  501 -0.00000000000E+00  0.00000000000E+00  0.15330752650E+03  0.15330752650E+03  0.00000000000E+00 0.  1.
          1   -1    0    0  502    0  0.00000000000E+00 -0.00000000000E+00 -0.24397201001E+03  0.24397201001E+03  0.00000000000E+00 0. -1.
         23    2    1    2    0    0 -0.52378527026E+02  0.46854134945E+00  0.11184655645E+03  0.15425550011E+03  0.92419573146E+02 0.  0.
         23    2    1    2    0    0  0.49604965403E+02 -0.26368051324E+02 -0.17908441528E+03  0.20799142296E+03  0.89628552954E+02 0.  0.
        -11    1    3    3    0    0 -0.55308591940E+02 -0.32059347151E+02  0.10157639138E+03  0.12001918750E+03  0.00000000000E+00 0.  1.
         11    1    3    3    0    0  0.29300649146E+01  0.32527888500E+02  0.10270165068E+02  0.34236312611E+02  0.00000000000E+00 0. -1.
        -13    1    4    4    0    0 -0.13400436551E+02 -0.16309231701E+02 -0.11727197001E+03  0.11915652600E+03  0.00000000000E+00 0.  1.
         13    1    4    4    0    0  0.63005401954E+02 -0.10058819623E+02 -0.61812445279E+02  0.88834896965E+02  0.00000000000E+00 0. -1.
         21    1    1    2  502  501  0.27735616228E+01  0.25899509974E+02 -0.23426624669E+02  0.35032613439E+02  0.00000000000E+00 0.  1.
<scales pt_clust_5="13000.00000" pt_clust_6="13000.00000" pt_clust_7="13000.00000" pt_clust_8="13000.00000" pt_clust_9="26.04760"></scales>
<clustering>
<clus scale="   26.048">  2  9  1 -1</clus>
<clus scale="   89.629">  7  8 -1 -1</clus>
<clus scale="   92.420">  5  6 -1 -1</clus>
<clus scale="  103.718">  2  7  1 -1</clus>
<clus scale="   26.048">  2  5  1 -1</clus>
</clustering>
</event>
<event>
 9    1  0.1234700E-005  0.1190864E+03  0.7546771E-02  0.1247465E+00
         -1   -1    0    0    0  501 -0.00000000000E+00  0.00000000000E+00  0.49767674781E+03  0.49767674781E+03  0.00000000000E+00 0.  1.
          1   -1    0    0  502    0  0.00000000000E+00 -0.00000000000E+00 -0.46429001709E+02  0.46429001709E+02  0.00000000000E+00 0. -1.
         23    2    1    2    0    0 -0.50888748804E+02 -0.79041135348E+02  0.29471962978E+03  0.32029677080E+03  0.83025269518E+02 0.  0.
         23    2    1    2    0    0  0.43887565894E+02  0.27311927877E+02  0.12208999567E+03  0.16127169686E+03  0.91817935730E+02 0.  0.
        -11    1    4    4    0    0 -0.10102813073E+02  0.44825846690E+02  0.72844817826E+02  0.86126597794E+02  0.00000000000E+00 0.  1.
         11    1    4    4    0    0  0.53990378967E+02 -0.17513918812E+02  0.49245177844E+02  0.75145099069E+02  0.00000000000E+00 0. -1.
        -13    1    3    3    0    0 -0.17963543280E+02 -0.83134031187E+02  0.15615706286E+03  0.17781727787E+03  0.00000000000E+00 0. -1.
         13    1    3    3    0    0 -0.32925205524E+02  0.40928958385E+01  0.13856256692E+03  0.14247949293E+03  0.00000000000E+00 0.  1.
         21    1    1    2  502  501  0.70011829099E+01  0.51729207471E+02  0.34438120657E+02  0.62537281857E+02  0.00000000000E+00 0. -1.
<scales pt_clust_5="13000.00000" pt_clust_6="13000.00000" pt_clust_7="13000.00000" pt_clust_8="13000.00000" pt_clust_9="52.20084"></scales>
<clustering>
<clus scale="   52.201">  2  9  1 -1</clus>
<clus scale="   83.025">  7  8 -1 -1</clus>
<clus scale="   91.818">  5  6 -1 -1</clus>
<clus scale="  112.447">  1  7  2 -1</clus>
<clus scale="   52.201">  2  5  1 -1</clus>
</clustering>
</event>
<event>
 9    1  0.1234700E-005  0.9336644E+02  0.7546771E-02  0.1295024E+00
         -2   -1    0    0    0  501 -0.00000000000E+00  0.00000000000E+00  0.17548359900E+03  0.17548359900E+03  0.00000000000E+00 0.  1.
          2   -1    0    0  502    0  0.00000000000E+00 -0.00000000000E+00 -0.13248707882E+03  0.13248707882E+03  0.00000000000E+00 0. -1.
         23    2    1    2    0    0  0.16437851679E+02 -0.14112141518E+02  0.11595418417E+03  0.14798296946E+03  0.89354523765E+02 0.  0.
         23    2    1    2    0    0 -0.18010985457E+02  0.49908207154E+02 -0.40742224683E+02  0.11180402238E+03  0.89582285139E+02 0.  0.
        -11    1    3    3    0    0  0.42606543704E+02 -0.11793690516E+02  0.20045047368E+02  0.48540834628E+02  0.00000000000E+00 0. -1.
         11    1    3    3    0    0 -0.26168692025E+02 -0.23184510018E+01  0.95909136806E+02  0.99442134833E+02  0.00000000000E+00 0.  1.
        -13    1    4    4    0    0 -0.30858132622E+02 -0.16434390430E+02 -0.48741764393E+01  0.35299732771E+02  0.00000000000E+00 0. -1.
         13    1    4    4    0    0  0.12847147165E+02  0.66342597584E+02 -0.35868048244E+02  0.76504289614E+02  0.00000000000E+00 0.  1.
         21    1    1    2  502  501  0.15731337782E+01 -0.35796065636E+02 -0.32215439311E+02  0.48183685983E+02  0.00000000000E+00 0. -1.
<scales pt_clust_5="13000.00000" pt_clust_6="13000.00000" pt_clust_7="13000.00000" pt_clust_8="13000.00000" pt_clust_9="35.83062"></scales>
<clustering>
<clus scale="   35.831">  2  9  1 -1</clus>
<clus scale="   89.355">  5  6 -1 -1</clus>
<clus scale="   89.582">  7  8 -1 -1</clus>
<clus scale="   93.148">  1  5  2 -1</clus>
<clus scale="   35.831">  2  5  1 -1</clus>
</clustering>
</event>
<event>
 9    1  0.1234700E-005  0.9358475E+02  0.7546771E-02  0.1295503E+00
         -4   -1    0    0    0  501 -0.00000000000E+00  0.00000000000E+00  0.74533227014E+02  0.74533227014E+02  0.00000000000E+00 0.  1.
          4   -1    0    0  502    0  0.00000000000E+00 -0.00000000000E+00 -0.16673910541E+03  0.16673910541E+03  0.00000000000E+00 0. -1.
         23    2    1    2    0    0  0.89109607709E+00 -0.97407078599E+01 -0.18006475096E+02  0.95646295012E+02  0.93425398914E+02 0.  0.
         23    2    1    2    0    0  0.13342750302E+02 -0.16153623278E+02 -0.45101466981E+02  0.10415546151E+03  0.91516388190E+02 0.  0.
        -11    1    3    3    0    0  0.23055970281E+01 -0.40509804751E+02  0.21206184507E+02  0.45782773179E+02  0.00000000000E+00 0. -1.
         11    1    3    3    0    0 -0.14145009510E+01  0.30769096891E+02 -0.39212659603E+02  0.49863521833E+02  0.00000000000E+00 0.  1.
        -13    1    4    4    0    0  0.45158697118E+02  0.68218786839E+01 -0.46107669042E+02  0.64898097805E+02  0.00000000000E+00 0. -1.
         13    1    4    4    0    0 -0.31815946816E+02 -0.22975501962E+02  0.10062020610E+01  0.39257363702E+02  0.00000000000E+00 0.  1.
         21    1    1    2  502  501 -0.14233846379E+02  0.25894331138E+02 -0.29097936316E+02  0.41470575902E+02  0.00000000000E+00 0. -1.
<scales pt_clust_5="13000.00000" pt_clust_6="13000.00000" pt_clust_7="13000.00000" pt_clust_8="13000.00000" pt_clust_9="29.54858"></scales>
<clustering>
<clus scale="   29.549">  2  9  1 -1</clus>
<clus scale="   91.516">  7  8 -1 -1</clus>
<clus scale="   91.679">  2  7  1 -1</clus>
<clus scale="   93.425">  5  6 -1 -1</clus>
<clus scale="   29.549">  2  5  1 -1</clus>
</clustering>
</event>
<event>
 9    1  0.1234700E-005  0.9670695E+02  0.7546771E-02  0.1287914E+00
         -1   -1    0    0    0  501 -0.00000000000E+00  0.00000000000E+00  0.42187841081E+02  0.42187841081E+02  0.00000000000E+00 0.  1.
          1   -1    0    0  502    0  0.00000000000E+00 -0.00000000000E+00 -0.35251762528E+03  0.35251762528E+03  0.00000000000E+00 0. -1.
         23    2    1    2    0    0 -0.34404894782E+02 -0.22804827040E+02 -0.68374146029E+02  0.12173097831E+03  0.91867569435E+02 0.  0.
         23    2    1    2    0    0  0.12155319440E+02  0.25783633233E+01 -0.14587567365E+03  0.17229920300E+03  0.90845492150E+02 0.  0.
        -11    1    3    3    0    0  0.17021828499E+02 -0.11378791397E+02  0.13390483517E+02  0.24464762168E+02  0.00000000000E+00 0. -1.
         11    1    3    3    0    0 -0.51426723282E+02 -0.11426035643E+02 -0.81764629545E+02  0.97266216142E+02  0.00000000000E+00 0.  1.
        -13    1    4    4    0    0 -0.16252615881E+02  0.31373744543E+02 -0.11799474317E+03  0.12317150152E+03  0.00000000000E+00 0. -1.
         13    1    4    4    0    0  0.28407935321E+02 -0.28795381219E+02 -0.27880930475E+02  0.49127701483E+02  0.00000000000E+00 0.  1.
         21    1    1    2  502  501  0.22249575342E+02  0.20226463717E+02 -0.96079964518E+02  0.10067528505E+03  0.00000000000E+00 0. -1.
<scales pt_clust_5="13000.00000" pt_clust_6="13000.00000" pt_clust_7="13000.00000" pt_clust_8="13000.00000" pt_clust_9="30.06914"></scales>
<clustering>
<clus scale="   30.069">  2  9  1 -1</clus>
<clus scale="   90.845">  7  8 -1 -1</clus>
<clus scale="   91.868">  5  6 -1 -1</clus>
<clus scale="   95.737">  2  7  1 -1</clus>
<clus scale="   30.069">  2  5  1 -1</clus>
</clustering>
</event>
<event>
 9    1  0.1234700E-005  0.1986879E+03  0.7546771E-02  0.1151178E+00
         -1   -1    0    0    0  501 -0.00000000000E+00  0.00000000000E+00  0.86360217353E+03  0.86360217353E+03  0.00000000000E+00 0.  1.
          1   -1    0    0  502    0  0.00000000000E+00 -0.00000000000E+00 -0.17591464874E+03  0.17591464874E+03  0.00000000000E+00 0. -1.
         23    2    1    2    0    0  0.12923244164E+03  0.68601817848E+02  0.40974329988E+03  0.44435517068E+03  0.90303446948E+02 0.  0.
         23    2    1    2    0    0 -0.21150765124E+03 -0.15450288743E+03  0.35782799930E+03  0.45188003630E+03  0.86879579679E+02 0.  0.
        -11    1    3    3    0    0  0.24592373026E+02  0.68533476732E+01  0.11518850780E+02  0.28007804425E+02  0.00000000000E+00 0. -1.
         11    1    3    3    0    0  0.10464006861E+03  0.61748470175E+02  0.39822444910E+03  0.41634736625E+03  0.00000000000E+00 0.  1.
        -11    1    4    4    0    0 -0.13024757288E+03 -0.75908528978E+02  0.13657727274E+03  0.20342046712E+03  0.00000000000E+00 0. -1.
         11    1    4    4    0    0 -0.81260078360E+02 -0.78594358453E+02  0.22125072656E+03  0.24845956918E+03  0.00000000000E+00 0.  1.
         21    1    1    2  502  501  0.82275209602E+02  0.85901069583E+02 -0.79883774389E+02  0.14328161529E+03  0.00000000000E+00 0. -1.
<scales pt_clust_5="13000.00000" pt_clust_6="13000.00000" pt_clust_7="13000.00000" pt_clust_8="13000.00000" pt_clust_9="118.94622"></scales>
<clustering>
<clus scale="   86.880">  7  8 -1 -1</clus>
<clus scale="   90.303">  5  6 -1 -1</clus>
<clus scale="  118.946">  2  9  1 -1</clus>
<clus scale="  197.155">  2  7  1 -1</clus>
<clus scale="  118.946">  2  5  1 -1</clus>
</clustering>
</event>
<event>
 9    1  0.1234700E-005  0.1297167E+03  0.7546771E-02  0.1228383E+00
         -1   -1    0    0    0  501 -0.00000000000E+00  0.00000000000E+00  0.14358872155E+03  0.14358872155E+03  0.00000000000E+00 0.  1.
          1   -1    0    0  502    0  0.00000000000E+00 -0.00000000000E+00 -0.19243607720E+03  0.19243607720E+03  0.00000000000E+00 0. -1.
         23    2    1    2    0    0 -0.84303472821E+02 -0.27849724798E+02  0.61676237699E+02  0.14266135056E+03  0.93089311661E+02 0.  0.
         23    2    1    2    0    0  0.74909323017E+02  0.48958328274E+02 -0.73578835676E+02  0.14978893372E+03  0.94945010526E+02 0.  0.
        -11    1    4    4    0    0  0.21909913405E+02 -0.81966214595E+01  0.18009483921E+02  0.29522371515E+02  0.00000000000E+00 0.  1.
         11    1    4    4    0    0  0.52999409612E+02  0.57154949734E+02 -0.91588319598E+02  0.12026656221E+03  0.00000000000E+00 0. -1.
        -13    1    3    3    0    0 -0.26362885558E+02  0.34551498918E+02  0.19467052894E+02  0.47621150352E+02  0.00000000000E+00 0. -1.
         13    1    3    3    0    0 -0.57940587262E+02 -0.62401223715E+02  0.42209184804E+02  0.95040200207E+02  0.00000000000E+00 0.  1.
         21    1    1    2  502  501  0.93941498039E+01 -0.21108603477E+02 -0.36944757679E+02  0.43574514469E+02  0.00000000000E+00 0.  1.
<scales pt_clust_5="13000.00000" pt_clust_6="13000.00000" pt_clust_7="13000.00000" pt_clust_8="13000.00000" pt_clust_9="23.10461"></scales>
<clustering>
<clus scale="   23.105">  2  9  1 -1</clus>
<clus scale="   93.089">  7  8 -1 -1</clus>
<clus scale="   94.945">  5  6 -1 -1</clus>
<clus scale="  128.365">  1  7  2 -1</clus>
<clus scale="   23.105">  2  5  1 -1</clus>
</clustering>
</event>
<event>
 9    1  0.1234700E-005  0.1118787E+03  0.7546771E-02  0.1257232E+00
         -2   -1    0    0    0  501 -0.00000000000E+00  0.00000000000E+00  0.38072751412E+03  0.38072751412E+03  0.00000000000E+00 0.  1.
          2   -1    0    0  502    0  0.00000000000E+00 -0.00000000000E+00 -0.73669046263E+02  0.73669046263E+02  0.00000000000E+00 0. -1.
         23    2    1    2    0    0 -0.60022736407E+02 -0.38638557880E+02  0.26451848925E+03  0.28890027183E+03  0.91638795670E+02 0.  0.
         23    2    1    2    0    0  0.33297009241E+02  0.36362636964E+02  0.71473554995E+02  0.12604256690E+03  0.91363709518E+02 0.  0.
        -11    1    4    4    0    0 -0.77267631224E+01 -0.23588894307E+02  0.10162721020E+01  0.24842938875E+02  0.00000000000E+00 0.  1.
         11    1    4    4    0    0  0.41023772363E+02  0.59951531271E+02  0.70457282893E+02  0.10119962803E+03  0.00000000000E+00 0. -1.
        -13    1    3    3    0    0 -0.44320302796E+02 -0.55155672651E+02  0.25423531276E+03  0.26389776755E+03  0.00000000000E+00 0.  1.
         13    1    3    3    0    0 -0.15702433611E+02  0.16517114772E+02  0.10283176488E+02  0.25002504282E+02  0.00000000000E+00 0. -1.
         21    1    1    2  502  501  0.26725727166E+02  0.22759209156E+01 -0.28933576389E+02  0.39453721640E+02  0.00000000000E+00 0. -1.
<scales pt_clust_5="13000.00000" pt_clust_6="13000.00000" pt_clust_7="13000.00000" pt_clust_8="13000.00000" pt_clust_9="26.82246"></scales>
<clustering>
<clus scale="   26.822">  2  9  1 -1</clus>
<clus scale="   91.364">  5  6 -1 -1</clus>
<clus scale="   91.639">  7  8 -1 -1</clus>
<clus scale="  111.653">  2  5  1 -1</clus>
<clus scale="   26.822">  2  5  1 -1</clus>
</clustering>
</event>
<event>
 9    1  0.1234700E-005  0.1018218E+03  0.7546771E-02  0.1283617E+00
         -2   -1    0    0    0  501 -0.00000000000E+00  0.00000000000E+00  0.20258175985E+02  0.20258175985E+02  0.00000000000E+00 0.  1.
          2   -1    0    0  502    0  0.00000000000E+00 -0.00000000000E+00 -0.66640807971E+03  0.66640807971E+03  0.00000000000E+00 0. -1.
         23    2    1    2    0    0 -0.22885169056E+02 -0.10714294821E-01 -0.18181241244E+03  0.20848271753E+03  0.99426149039E+02 0.  0.
         23    2    1    2    0    0  0.15003575484E+02 -0.18708670958E+02 -0.41989045048E+03  0.42931561067E+03  0.86190379479E+02 0.  0.
        -11    1    3    3    0    0 -0.26642646965E+02 -0.46889611175E+02 -0.11198913544E+03  0.12429816061E+03  0.00000000000E+00 0. -1.
         11    1    3    3    0    0  0.37574779088E+01  0.46878896880E+02 -0.69823276997E+02  0.84184556918E+02  0.00000000000E+00 0.  1.
        -13    1    4    4    0    0 -0.19027400953E+02  0.26292961215E+02 -0.13039169191E+03  0.13437021662E+03  0.00000000000E+00 0.  1.
         13    1    4    4    0    0  0.34030976437E+02 -0.45001632173E+02 -0.28949875857E+03  0.29494539405E+03  0.00000000000E+00 0. -1.
         21    1    1    2  502  501  0.78815935717E+01  0.18719385253E+02 -0.44447040803E+02  0.48867927495E+02  0.00000000000E+00 0. -1.
<scales pt_clust_5="13000.00000" pt_clust_6="13000.00000" pt_clust_7="13000.00000" pt_clust_8="13000.00000" pt_clust_9="20.31096"></scales>
<clustering>
<clus scale="   20.311">  1  9  2 -1</clus>
<clus scale="   86.190">  7  8 -1 -1</clus>
<clus scale="   88.943">  2  7  1 -1</clus>
<clus scale="   99.426">  5  6 -1 -1</clus>
<clus scale="   88.943">  2  5  1 -1</clus>
</clustering>
</event>
<event>
 9    1  0.1234700E-005  0.9743167E+02  0.7546771E-02  0.1286284E+00
         -1   -1    0    0    0  501 -0.00000000000E+00  0.00000000000E+00  0.17545230723E+03  0.17545230723E+03  0.00000000000E+00 0.  1.
          1   -1    0    0  502    0  0.00000000000E+00 -0.00000000000E+00 -0.10384980963E+03  0.10384980963E+03  0.00000000000E+00 0. -1.
         23    2    1    2    0    0  0.10939184560E+02 -0.33794357381E+01  0.36540861508E+02  0.98460198905E+02  0.90708819108E+02 0.  0.
         23    2    1    2    0    0  0.23483448878E+02  0.57878356970E+02  0.89141558597E+01  0.11128085967E+03  0.91665647748E+02 0.  0.
        -13    1    3    3    0    0 -0.28011762662E+02  0.13959847157E+02 -0.12299920620E+02  0.33627730036E+02  0.00000000000E+00 0. -1.
         13    1    3    3    0    0  0.38950947222E+02 -0.17339282895E+02  0.48840782128E+02  0.64832468869E+02  0.00000000000E+00 0.  1.
        -13    1    4    4    0    0  0.41439617086E+02 -0.15911478584E+01 -0.15863237035E+02  0.44400629556E+02  0.00000000000E+00 0.  1.
         13    1    4    4    0    0 -0.17956168208E+02  0.59469504828E+02  0.24777392895E+02  0.66880230112E+02  0.00000000000E+00 0. -1.
         21    1    1    2  502  501 -0.34422633437E+02 -0.54498921232E+02  0.26147480231E+02  0.69561058291E+02  0.00000000000E+00 0. -1.
<scales pt_clust_5="13000.00000" pt_clust_6="13000.00000" pt_clust_7="13000.00000" pt_clust_8="13000.00000" pt_clust_9="64.45968"></scales>
<clustering>
<clus scale="   64.460">  1  9  2 -1</clus>
<clus scale="   90.709">  5  6 -1 -1</clus>
<clus scale="   91.666">  7  8 -1 -1</clus>
<clus scale="   96.532">  1  5  2 -1</clus>
<clus scale="   97.432">  2  5  1 -1</clus>
</clustering>
</event>
<event>
 9    1  0.1234700E-005  0.1795406E+03  0.7546771E-02  0.1168505E+00
          1   -1    0    0  502    0  0.00000000000E+00  0.00000000000E+00  0.11908945658E+04  0.11908945658E+04  0.00000000000E+00 0. -1.
         -1   -1    0    0    0  501 -0.00000000000E+00 -0.00000000000E+00 -0.42973193950E+02  0.42973193950E+02  0.00000000000E+00 0.  1.
         23    2    1    2    0    0 -0.61431876512E+02  0.13253190135E+03  0.24291807427E+03  0.29810069185E+03  0.92283537822E+02 0.  0.
         23    2    1    2    0    0  0.54396282662E+02 -0.16629366172E+03  0.67248150799E+03  0.70070167555E+03  0.90215974357E+02 0.  0.
        -11    1    4    4    0    0  0.77606173803E+02 -0.11071114500E+03  0.50217913493E+03  0.52006111122E+03  0.00000000000E+00 0. -1.
         11    1    4    4    0    0 -0.23209891142E+02 -0.55582516723E+02  0.17030237306E+03  0.18064056433E+03  0.00000000000E+00 0.  1.
        -11    1    3    3    0    0 -0.28019932644E+02  0.10001445151E+03  0.87403114471E+02  0.13574723406E+03  0.00000000000E+00 0.  1.
         11    1    3    3    0    0 -0.33411943867E+02  0.32517449835E+02  0.15551495979E+03  0.16235345779E+03  0.00000000000E+00 0. -1.
         21    1    1    2  502  501  0.70355938499E+01  0.33761760372E+02  0.23252178958E+03  0.23506539234E+03  0.00000000000E+00 0.  1.
<scales pt_clust_5="13000.00000" pt_clust_6="13000.00000" pt_clust_7="13000.00000" pt_clust_8="13000.00000" pt_clust_9="34.48704"></scales>
<clustering>
<clus scale="   34.487">  1  9  2 -1</clus>
<clus scale="   90.216">  5  6 -1 -1</clus>
<clus scale="   92.284">  7  8 -1 -1</clus>
<clus scale="  178.487">  1  5  2 -1</clus>
<clus scale="   34.487">  1  5  2 -1</clus>
</clustering>
</event>
<event>
 9    1  0.1234700E-005  0.9558181E+02  0.7546771E-02  0.1290663E+00
         -1   -1    0    0    0  501 -0.00000000000E+00  0.00000000000E+00  0.10056633196E+03  0.10056633196E+03  0.00000000000E+00 0.  1.
          1   -1    0    0  502    0  0.00000000000E+00 -0.00000000000E+00 -0.40035071502E+03  0.40035071502E+03  0.00000000000E+00 0. -1.
         23    2    1    2    0    0  0.41061630763E+02  0.22218152148E+02  0.34237408266E+02  0.10832932440E+03  0.91560573360E+02 0.  0.
         23    2    1    2    0    0  0.11909573113E+02  0.76180737294E+01 -0.53873520488E+02  0.10591857100E+03  0.90091700466E+02 0.  0.
        -11    1    3    3    0    0 -0.22486587781E+02  0.30489658760E+02  0.62366676891E+01  0.38394816645E+02  0.00000000000E+00 0. -1.
         11    1    3    3    0    0  0.63548218544E+02 -0.82715066124E+01  0.28000740577E+02  0.69934507753E+02  0.00000000000E+00 0.  1.
        -13    1    4    4    0    0 -0.25454270541E+02 -0.27720258859E+02 -0.34210786923E+02  0.50859714724E+02  0.00000000000E+00 0. -1.
         13    1    4    4    0    0  0.37363843653E+02  0.35338332588E+02 -0.19662733565E+02  0.55058856271E+02  0.00000000000E+00 0.  1.
         21    1    1    2  502  501 -0.52971203875E+02 -0.29836225877E+02 -0.28014827085E+03  0.28666915159E+03  0.00000000000E+00 0. -1.
<scales pt_clust_5="13000.00000" pt_clust_6="13000.00000" pt_clust_7="13000.00000" pt_clust_8="13000.00000" pt_clust_9="60.79596"></scales>
<clustering>
<clus scale="   60.796">  2  9  1 -1</clus>
<clus scale="   90.092">  7  8 -1 -1</clus>
<clus scale="   91.561">  5  6 -1 -1</clus>
<clus scale="   94.176">  2  7  1 -1</clus>
<clus scale="   60.796">  2  5  1 -1</clus>
</clustering>
</event>
<event>
 9    1  0.1234700E-005  0.2605000E+03  0.7546771E-02  0.1106893E+00
          1   -1    0    0  502    0  0.00000000000E+00  0.00000000000E+00  0.90513633697E+03  0.90513633697E+03  0.00000000000E+00 0. -1.
         -1   -1    0    0    0  501 -0.00000000000E+00 -0.00000000000E+00 -0.89457669814E+02  0.89457669814E+02  0.00000000000E+00 0.  1.
         23    2    1    2    0    0 -0.91816557150E+02  0.21281929912E+03  0.28079395017E+03  0.37549336609E+03  0.91802457924E+02 0.  0.
         23    2    1    2    0    0  0.11656253564E+03 -0.23492350954E+03  0.48698621017E+03  0.56083206834E+03  0.92742438643E+02 0.  0.
        -11    1    3    3    0    0 -0.33750492543E+02  0.10405901724E+03  0.65807851735E+02  0.12766380915E+03  0.00000000000E+00 0.  1.
         11    1    3    3    0    0 -0.58066064607E+02  0.10876028187E+03  0.21498609843E+03  0.24782955694E+03  0.00000000000E+00 0. -1.
        -13    1    4    4    0    0 -0.10850599677E+02 -0.16872773493E+02  0.13425654825E+02  0.24138645492E+02  0.00000000000E+00 0. -1.
         13    1    4    4    0    0  0.12741313531E+03 -0.21805073605E+03  0.47356055535E+03  0.53669342284E+03  0.00000000000E+00 0.  1.
         21    1    1    2  502  501 -0.24745978487E+02  0.22104210429E+02  0.47898506819E+02  0.58268572365E+02  0.00000000000E+00 0. -1.
<scales pt_clust_5="13000.00000" pt_clust_6="13000.00000" pt_clust_7="13000.00000" pt_clust_8="13000.00000" pt_clust_9="33.18071"></scales>
<clustering>
<clus scale="   33.181">  1  9  2 -1</clus>
<clus scale="   91.802">  5  6 -1 -1</clus>
<clus scale="   92.742">  7  8 -1 -1</clus>
<clus scale="  260.167">  2  5  1 -1</clus>
<clus scale="   33.181">  1  5  2 -1</clus>
</clustering>
</event>
<event>
 9    1  0.1234700E-005  0.1008197E+03  0.7546771E-02  0.1278998E+00
          2   -1    0    0  502    0  0.00000000000E+00  0.00000000000E+00  0.14431765723E+03  0.14431765723E+03  0.00000000000E+00 0. -1.
         -2   -1    0    0    0  501 -0.00000000000E+00 -0.00000000000E+00 -0.20243839683E+03  0.20243839683E+03  0.00000000000E+00 0.  1.
         23    2    1    2    0    0  0.95419744079E+01 -0.42909309703E+02 -0.14621024305E+03  0.17766587277E+03  0.90859611705E+02 0.  0.
         23    2    1    2    0    0  0.19728180402E+02  0.35978533611E+02  0.32040062955E+02  0.10547951080E+03  0.91737154865E+02 0.  0.
        -11    1    3    3    0    0  0.31126342256E+02 -0.56171692869E+02 -0.60276932144E+02  0.88076198889E+02  0.00000000000E+00 0.  1.
         11    1    3    3    0    0 -0.21584367849E+02  0.13262383165E+02 -0.85933310907E+02  0.89589673881E+02  0.00000000000E+00 0. -1.
        -11    1    4    4    0    0 -0.27692119365E+02  0.17831442539E+02 -0.15066457467E+02  0.36218944747E+02  0.00000000000E+00 0. -1.
         11    1    4    4    0    0  0.47420299767E+02  0.18147091073E+02  0.47106520422E+02  0.69260566058E+02  0.00000000000E+00 0.  1.
         21    1    1    2  502  501 -0.29270154810E+02  0.69307760920E+01  0.56049440497E+02  0.63610670487E+02  0.00000000000E+00 0. -1.
<scales pt_clust_5="13000.00000" pt_clust_6="13000.00000" pt_clust_7="13000.00000" pt_clust_8="13000.00000" pt_clust_9="30.07952"></scales>
<clustering>
<clus scale="   30.080">  1  9  2 -1</clus>
<clus scale="   90.860">  5  6 -1 -1</clus>
<clus scale="   91.737">  7  8 -1 -1</clus>
<clus scale="  100.022">  2  5  1 -1</clus>
<clus scale="   30.080">  1  5  2 -1</clus>
</clustering>
</event>
<event>
 9    1  0.1234700E-005  0.9794545E+02  0.7546771E-02  0.1287616E+00
         -1   -1    0    0    0  501 -0.00000000000E+00  0.00000000000E+00  0.21520735536E+03  0.21520735536E+03  0.00000000000E+00 0.  1.
          1   -1    0    0  502    0  0.00000000000E+00 -0.00000000000E+00 -0.32933594195E+03  0.32933594195E+03  0.00000000000E+00 0. -1.
         23    2    1    2    0    0  0.11270342468E+02  0.16678338270E+02  0.10703919829E+03  0.13975388609E+03  0.87570378097E+02 0.  0.
         23    2    1    2    0    0  0.50553801958E+01 -0.55927434685E+02  0.57415186745E+02  0.12298186541E+03  0.93137536642E+02 0.  0.
        -11    1    3    3    0    0 -0.37343061111E+02 -0.23155471910E+01  0.49849733967E+02  0.62328660731E+02  0.00000000000E+00 0.  1.
         11    1    3    3    0    0  0.48613403579E+02  0.18993885461E+02  0.57189464325E+02  0.77425225361E+02  0.00000000000E+00 0. -1.
        -13    1    4    4    0    0  0.28560408173E+02 -0.28472772997E+00  0.55651019465E+02  0.62552489577E+02  0.00000000000E+00 0.  1.
         13    1    4    4    0    0 -0.23505027977E+02 -0.55642706955E+02  0.17641672804E+01  0.60429375834E+02  0.00000000000E+00 0. -1.
         21    1    1    2  502  501 -0.16325722664E+02  0.39249096415E+02 -0.27858297163E+03  0.28180754581E+03  0.00000000000E+00 0. -1.
<scales pt_clust_5="13000.00000" pt_clust_6="13000.00000" pt_clust_7="13000.00000" pt_clust_8="13000.00000" pt_clust_9="42.50907"></scales>
<clustering>
<clus scale="   42.509">  2  9  1 -1</clus>
<clus scale="   87.570">  5  6 -1 -1</clus>
<clus scale="   92.668">  1  5  2 -1</clus>
<clus scale="   93.138">  7  8 -1 -1</clus>
<clus scale="   42.509">  2  5  1 -1</clus>
</clustering>
</event>
<event>
 9    1  0.1234700E-005  0.9695934E+02  0.7546771E-02  0.1287844E+00
          3   -1    0    0  502    0  0.00000000000E+00  0.00000000000E+00  0.22482210830E+03  0.22482210830E+03  0.00000000000E+00 0. -1.
         -3   -1    0    0    0  501 -0.00000000000E+00 -0.00000000000E+00 -0.22387014274E+03  0.22387014274E+03  0.00000000000E+00 0.  1.
         23    2    1    2    0    0 -0.16015874573E+02 -0.23453902377E+02 -0.18896403374E+03  0.21247430732E+03  0.92904959226E+02 0.  0.
         23    2    1    2    0    0  0.34333810600E+02  0.96776174354E+00  0.91164879877E+02  0.13329585237E+03  0.90978029348E+02 0.  0.
        -11    1    4    4    0    0  0.23183598123E+01 -0.40182116322E+02  0.60937433235E+02  0.73029774980E+02  0.00000000000E+00 0.  1.
         11    1    4    4    0    0  0.32015450788E+02  0.41149878066E+02  0.30227446642E+02  0.60266077394E+02  0.00000000000E+00 0. -1.
        -11    1    3    3    0    0 -0.38489719630E+02  0.14222513419E+02 -0.14368158516E+03  0.14942602290E+03  0.00000000000E+00 0.  1.
         11    1    3    3    0    0  0.22473845057E+02 -0.37676415797E+02 -0.45282448575E+02  0.63048284417E+02  0.00000000000E+00 0. -1.
         21    1    1    2  502  501 -0.18317936027E+02  0.22486140634E+02  0.98751119420E+02  0.10292209135E+03  0.00000000000E+00 0. -1.
<scales pt_clust_5="13000.00000" pt_clust_6="13000.00000" pt_clust_7="13000.00000" pt_clust_8="13000.00000" pt_clust_9="29.00299"></scales>
<clustering>
<clus scale="   29.003">  1  9  2 -1</clus>
<clus scale="   90.978">  5  6 -1 -1</clus>
<clus scale="   92.905">  7  8 -1 -1</clus>
<clus scale="   95.115">  1  5  2 -1</clus>
<clus scale="   29.003">  1  5  2 -1</clus>
</clustering>
</event>
<event>
 9    1  0.1234700E-005  0.9320327E+02  0.7546771E-02  0.1295972E+00
         -1   -1    0    0    0  501 -0.00000000000E+00  0.00000000000E+00  0.12346543367E+03  0.12346543367E+03  0.00000000000E+00 0.  1.
          1   -1    0    0  502    0  0.00000000000E+00 -0.00000000000E+00 -0.10261270148E+03  0.10261270148E+03  0.00000000000E+00 0. -1.
         23    2    1    2    0    0  0.16214716541E+02 -0.17364165873E+01  0.28926335429E+02  0.97708083750E+02  0.91892353184E+02 0.  0.
         23    2    1    2    0    0  0.20428597850E+01  0.29006464595E+02 -0.40983010402E+01  0.95312561487E+02  0.90676016903E+02 0.  0.
        -11    1    3    3    0    0 -0.20532350844E+02 -0.15570538604E+02  0.47677501188E+02  0.54195601511E+02  0.00000000000E+00 0.  1.
         11    1    3    3    0    0  0.36747067384E+02  0.13834122016E+02 -0.18751165759E+02  0.43512482240E+02  0.00000000000E+00 0. -1.
        -11    1    4    4    0    0 -0.47528671713E+00  0.57175844314E+02  0.17423122633E+02  0.59773474659E+02  0.00000000000E+00 0. -1.
         11    1    4    4    0    0  0.25181465022E+01 -0.28169379720E+02 -0.21521423674E+02  0.35539086828E+02  0.00000000000E+00 0.  1.
         21    1    1    2  502  501 -0.18257576326E+02 -0.27270048007E+02 -0.39753021938E+01  0.33057489910E+02  0.00000000000E+00 0.  1.
<scales pt_clust_5="13000.00000" pt_clust_6="13000.00000" pt_clust_7="13000.00000" pt_clust_8="13000.00000" pt_clust_9="32.81760"></scales>
<clustering>
<clus scale="   32.818">  2  9  1 -1</clus>
<clus scale="   90.676">  7  8 -1 -1</clus>
<clus scale="   91.892">  5  6 -1 -1</clus>
<clus scale="   92.004">  2  7  1 -1</clus>
<clus scale="   32.818">  2  5  1 -1</clus>
</clustering>
</event>
<event>
 9    1  0.1234700E-005  0.1281929E+03  0.7546771E-02  0.1243208E+00
         -1   -1    0    0    0  501 -0.00000000000E+00  0.00000000000E+00  0.26353561043E+02  0.26353561043E+02  0.00000000000E+00 0.  1.
          1   -1    0    0  502    0  0.00000000000E+00 -0.00000000000E+00 -0.65135615896E+03  0.65135615896E+03  0.00000000000E+00 0. -1.
         23    2    1    2    0    0  0.10494406085E+02  0.45346146753E+02 -0.16578049312E+03  0.19444883329E+03  0.90336987347E+02 0.  0.
         23    2    1    2    0    0 -0.10139462307E+02 -0.19059099710E+02 -0.38455293224E+03  0.40409889990E+03  0.12226571565E+03 0.  0.
        -13    1    3    3    0    0 -0.25695687732E+01  0.71195697398E+02 -0.10217961731E+03  0.12456365524E+03  0.00000000000E+00 0.  1.
         13    1    3    3    0    0  0.13063974858E+02 -0.25849550645E+02 -0.63600875809E+02  0.69885178051E+02  0.00000000000E+00 0. -1.
        -13    1    4    4    0    0  0.44604373759E+02 -0.56811404218E+01 -0.61596042174E+02  0.76262034633E+02  0.00000000000E+00 0.  1.
         13    1    4    4    0    0 -0.54743836067E+02 -0.13377959289E+02 -0.32295689007E+03  0.32783686526E+03  0.00000000000E+00 0. -1.
         21    1    1    2  502  501 -0.35494377758E+00 -0.26287047043E+02 -0.74669172553E+02  0.79161986819E+02  0.00000000000E+00 0.  1.
<scales pt_clust_5="13000.00000" pt_clust_6="13000.00000" pt_clust_7="13000.00000" pt_clust_8="13000.00000" pt_clust_9="26.28944"></scales>
<clustering>
<clus scale="   26.289">  2  9  1 -1</clus>
<clus scale="   90.337">  5  6 -1 -1</clus>
<clus scale="   98.210">  1  5  2 -1</clus>
<clus scale="  122.266">  7  8 -1 -1</clus>
<clus scale="   26.289">  2  5  1 -1</clus>
</clustering>
</event>
<event>
 9    1  0.1234700E-005  0.1481371E+03  0.7546771E-02  0.1203374E+00
         -2   -1    0    0    0  501 -0.00000000000E+00  0.00000000000E+00  0.14699461500E+03  0.14699461500E+03  0.00000000000E+00 0.  1.
          2   -1    0    0  502    0  0.00000000000E+00 -0.00000000000E+00 -0.18417337635E+03  0.18417337635E+03  0.00000000000E+00 0. -1.
         23    2    1    2    0    0  0.31963492314E+02  0.11053325214E+03  0.28132402448E+02  0.14805640341E+03  0.88825682395E+02 0.  0.
         23    2    1    2    0    0 -0.13515245450E+02 -0.11847335478E+03 -0.53262019304E+02  0.15969012503E+03  0.91899378012E+02 0.  0.
        -13    1    3    3    0    0 -0.50025264909E+01  0.10370831126E+03  0.35539404302E+02  0.10974282826E+03  0.00000000000E+00 0.  1.
         13    1    3    3    0    0  0.36966018805E+02  0.68249408780E+01 -0.74070018536E+01  0.38313575150E+02  0.00000000000E+00 0. -1.
        -13    1    4    4    0    0  0.31070930494E+02 -0.74446846597E+02 -0.53911771626E+02  0.97026876740E+02  0.00000000000E+00 0. -1.
         13    1    4    4    0    0 -0.44586175944E+02 -0.44026508183E+02  0.64975232204E+00  0.62663248289E+02  0.00000000000E+00 0.  1.
         21    1    1    2  502  501 -0.18448246865E+02  0.79401026436E+01 -0.12049144493E+02  0.23421462922E+02  0.00000000000E+00 0. -1.
<scales pt_clust_5="13000.00000" pt_clust_6="13000.00000" pt_clust_7="13000.00000" pt_clust_8="13000.00000" pt_clust_9="20.08440"></scales>
<clustering>
<clus scale="   20.084">  2  9  1 -1</clus>
<clus scale="   88.826">  5  6 -1 -1</clus>
<clus scale="   91.899">  7  8 -1 -1</clus>
<clus scale="  146.250">  1  5  2 -1</clus>
<clus scale="   20.084">  2  5  1 -1</clus>
</clustering>
</event>
<event>
 9    1  0.1234700E-005  0.9908914E+02  0.7546771E-02  0.1286024E+00
          1   -1    0    0  502    0  0.00000000000E+00  0.00000000000E+00  0.29997214698E+03  0.29997214698E+03  0.00000000000E+00 0. -1.
         -1   -1    0    0    0  501 -0.00000000000E+00 -0.00000000000E+00 -0.41032091748E+02  0.41032091748E+02  0.00000000000E+00 0.  1.
         23    2    1    2    0    0  0.19942845716E+02 -0.10440348515E+02  0.71761857019E+02  0.11764079365E+03  0.90459240735E+02 0.  0.
         23    2    1    2    0    0 -0.14067751689E+02 -0.11077382117E+02  0.14452136040E+03  0.17522681378E+03  0.97454618270E+02 0.  0.
        -11    1    4    4    0    0 -0.38122636438E+02 -0.24556906466E+02  0.23443433807E+02  0.51048718425E+02  0.00000000000E+00 0. -1.
         11    1    4    4    0    0  0.24054884749E+02  0.13479524349E+02  0.12107792660E+03  0.12417809535E+03  0.00000000000E+00 0.  1.
        -13    1    3    3    0    0 -0.32552840454E+02  0.58451887087E+01  0.91278721517E+01  0.34309935918E+02  0.00000000000E+00 0.  1.
         13    1    3    3    0    0  0.52495686171E+02 -0.16285537224E+02  0.62633984867E+02  0.83330857727E+02  0.00000000000E+00 0. -1.
         21    1    1    2  502  501 -0.58750940272E+01  0.21517730632E+02  0.42656837808E+02  0.48136631303E+02  0.00000000000E+00 0.  1.
<scales pt_clust_5="13000.00000" pt_clust_6="13000.00000" pt_clust_7="13000.00000" pt_clust_8="13000.00000" pt_clust_9="22.30537"></scales>
<clustering>
<clus scale="   22.305">  1  9  2 -1</clus>
<clus scale="   90.459">  7  8 -1 -1</clus>
<clus scale="   92.218">  2  7  1 -1</clus>
<clus scale="   97.455">  5  6 -1 -1</clus>
<clus scale="   22.305">  1  5  2 -1</clus>
</clustering>
</event>
<event>
 9    1  0.1234700E-005  0.1173908E+03  0.7546771E-02  0.1248388E+00
         -2   -1    0    0    0  501 -0.00000000000E+00  0.00000000000E+00  0.14068490424E+03  0.14068490424E+03  0.00000000000E+00 0.  1.
          2   -1    0    0  502    0  0.00000000000E+00 -0.00000000000E+00 -0.41308139068E+03  0.41308139068E+03  0.00000000000E+00 0. -1.
         23    2    1    2    0    0 -0.19871938539E+01  0.21626024415E+01  0.82173365270E+02  0.12321154205E+03  0.91760538066E+02 0.  0.
         23    2    1    2    0    0 -0.62683376931E+02 -0.45157444112E+02 -0.32552360241E+03  0.34764200515E+03  0.94450767680E+02 0.  0.
        -11    1    3    3    0    0  0.41899560838E+02 -0.38368273903E+01  0.19270983895E+02  0.46278129425E+02  0.00000000000E+00 0.  1.
         11    1    3    3    0    0 -0.43886754692E+02  0.59994298317E+01  0.62902381375E+02  0.76933412626E+02  0.00000000000E+00 0. -1.
        -13    1    4    4    0    0  0.41899464813E+01 -0.23296539828E+02 -0.12419593324E+02  0.26730707395E+02  0.00000000000E+00 0.  1.
         13    1    4    4    0    0 -0.66873323412E+02 -0.21860904284E+02 -0.31310400909E+03  0.32091129776E+03  0.00000000000E+00 0. -1.
         21    1    1    2  502  501  0.64670570785E+02  0.42994841671E+02 -0.29046249293E+02  0.82912747717E+02  0.00000000000E+00 0.  1.
<scales pt_clust_5="13000.00000" pt_clust_6="13000.00000" pt_clust_7="13000.00000" pt_clust_8="13000.00000" pt_clust_9="77.65848"></scales>
<clustering>
<clus scale="   77.658">  1  9  2 -1</clus>
<clus scale="   91.761">  5  6 -1 -1</clus>
<clus scale="   94.451">  7  8 -1 -1</clus>
<clus scale="  115.237">  1  5  2 -1</clus>
<clus scale="  117.391">  2  5  1 -1</clus>
</clustering>
</event>
<event>
 9    1  0.1234700E-005  0.1194414E+03  0.7546771E-02  0.1246570E+00
          1   -1    0    0  502    0  0.00000000000E+00  0.00000000000E+00  0.29110360476E+03  0.29110360476E+03  0.00000000000E+00 0. -1.
         -1   -1    0    0    0  501 -0.00000000000E+00 -0.00000000000E+00 -0.10436012444E+03  0.10436012444E+03  0.00000000000E+00 0.  1.
         23    2    1    2    0    0 -0.40116194343E+02 -0.20962483091E+02 -0.24269090549E+02  0.10981980210E+03  0.97070414805E+02 0.  0.
         23    2    1    2    0    0  0.74191443958E+02  0.12898146038E+02  0.22025543974E+03  0.24942809088E+03  0.89616858123E+02 0.  0.
        -11    1    3    3    0    0 -0.16489486517E+02 -0.13762470871E+02  0.37544668621E+02  0.43254027696E+02  0.00000000000E+00 0. -1.
         11    1    3    3    0    0 -0.23626707826E+02 -0.72000122206E+01 -0.61813759170E+02  0.66565774399E+02  0.00000000000E+00 0.  1.
        -13    1    4    4    0    0  0.47756739892E+01 -0.33237187795E+02  0.68628802220E+02  0.76403077220E+02  0.00000000000E+00 0. -1.
         13    1    4    4    0    0  0.69415769968E+02  0.46135333832E+02  0.15162663752E+03  0.17302501366E+03  0.00000000000E+00 0.  1.
         21    1    1    2  502  501 -0.34075249614E+02  0.80643370536E+01 -0.92428688725E+01  0.36215836224E+02  0.00000000000E+00 0. -1.
<scales pt_clust_5="13000.00000" pt_clust_6="13000.00000" pt_clust_7="13000.00000" pt_clust_8="13000.00000" pt_clust_9="35.01651"></scales>
<clustering>
<clus scale="   35.017">  2  9  1 -1</clus>
<clus scale="   89.617">  7  8 -1 -1</clus>
<clus scale="   97.070">  5  6 -1 -1</clus>
<clus scale="  113.467">  1  7  2 -1</clus>
<clus scale="  113.467">  1  5  2 -1</clus>
</clustering>
</event>
<event>
 9    1  0.1234700E-005  0.1484179E+03  0.7546771E-02  0.1202781E+00
         -2   -1    0    0    0  501 -0.00000000000E+00  0.00000000000E+00  0.18539619447E+03  0.18539619447E+03  0.00000000000E+00 0.  1.
          2   -1    0    0  502    0  0.00000000000E+00 -0.00000000000E+00 -0.20122438387E+03  0.20122438387E+03  0.00000000000E+00 0. -1.
         23    2    1    2    0    0 -0.62243785001E+02  0.92227169523E+02  0.67342355335E+02  0.15952450638E+03  0.92373891036E+02 0.  0.
         23    2    1    2    0    0  0.82666589525E+02 -0.94865955868E+02 -0.14852623465E+02  0.15574207764E+03  0.90563125589E+02 0.  0.
        -13    1    3    3    0    0 -0.59764199002E+02  0.82571086343E+01  0.23319344115E+02  0.64681768183E+02  0.00000000000E+00 0.  1.
         13    1    3    3    0    0 -0.24795859995E+01  0.83970060889E+02  0.44023011221E+02  0.94842738200E+02  0.00000000000E+00 0. -1.
        -13    1    4    4    0    0  0.22560420056E+02 -0.89791772821E+02 -0.21531857003E+02  0.95053436999E+02  0.00000000000E+00 0.  1.
         13    1    4    4    0    0  0.60106169469E+02 -0.50741830471E+01  0.66792335377E+01  0.60688640638E+02  0.00000000000E+00 0. -1.
         21    1    1    2  502  501 -0.20422804524E+02  0.26387863444E+01 -0.68317921276E+02  0.71353994320E+02  0.00000000000E+00 0. -1.
<scales pt_clust_5="13000.00000" pt_clust_6="13000.00000" pt_clust_7="13000.00000" pt_clust_8="13000.00000" pt_clust_9="20.59257"></scales>
<clustering>
<clus scale="   20.593">  2  9  1 -1</clus>
<clus scale="   90.563">  7  8 -1 -1</clus>
<clus scale="   92.374">  5  6 -1 -1</clus>
<clus scale="  147.298">  2  7  1 -1</clus>
<clus scale="   20.593">  2  5  1 -1</clus>
</clustering>
</event>
<event>
 9    1  0.1234700E-005  0.9762124E+02  0.7546771E-02  0.1285473E+00
         -2   -1    0    0    0  501 -0.00000000000E+00  0.00000000000E+00  0.21850684790E+02  0.21850684790E+02  0.00000000000E+00 0.  1.
          2   -1    0    0  502    0  0.00000000000E+00 -0.00000000000E+00 -0.66268545665E+03  0.66268545665E+03  0.00000000000E+00 0. -1.
         23    2    1    2    0    0  0.23624706922E+02 -0.40333261205E+02 -0.22807804196E+03  0.25002006994E+03  0.91134754136E+02 0.  0.
         23    2    1    2    0    0  0.11452419443E+02  0.26500937294E+02 -0.25716193865E+03  0.27441773596E+03  0.91320170449E+02 0.  0.
        -11    1    3    3    0    0 -0.19488842011E+02 -0.32224474539E+02 -0.33006701147E+02  0.50076681627E+02  0.00000000000E+00 0.  1.
         11    1    3    3    0    0  0.43113548933E+02 -0.81087866659E+01 -0.19507134081E+03  0.19994338831E+03  0.00000000000E+00 0. -1.
        -13    1    4    4    0    0 -0.68531334623E+01  0.54365719273E+02 -0.10275597108E+03  0.11645336604E+03  0.00000000000E+00 0.  1.
         13    1    4    4    0    0  0.18305552905E+02 -0.27864781979E+02 -0.15440596757E+03  0.15796436992E+03  0.00000000000E+00 0. -1.
         21    1    1    2  502  501 -0.35077126365E+02  0.13832323910E+02 -0.15559479125E+03  0.16009833554E+03  0.00000000000E+00 0. -1.
<scales pt_clust_5="13000.00000" pt_clust_6="13000.00000" pt_clust_7="13000.00000" pt_clust_8="13000.00000" pt_clust_9="37.70594"></scales>
<clustering>
<clus scale="   37.706">  2  9  1 -1</clus>
<clus scale="   91.135">  5  6 -1 -1</clus>
<clus scale="   91.320">  7  8 -1 -1</clus>
<clus scale="   97.448">  1  5  2 -1</clus>
<clus scale="   37.706">  2  5  1 -1</clus>
</clustering>
</event>
<event>
 9    1  0.1234700E-005  0.1029747E+03  0.7546771E-02  0.1280865E+00
         -1   -1    0    0    0  501 -0.00000000000E+00  0.00000000000E+00  0.10366293845E+03  0.10366293845E+03  0.00000000000E+00 0.  1.
          1   -1    0    0  502    0  0.00000000000E+00 -0.00000000000E+00 -0.18890376966E+03  0.18890376966E+03  0.00000000000E+00 0. -1.
         23    2    1    2    0    0 -0.26686169146E+02  0.49167225038E+02  0.44983962931E+02  0.11603233808E+03  0.91161279702E+02 0.  0.
         23    2    1    2    0    0  0.90710824866E+01 -0.18071431209E+02 -0.10915141476E+03  0.13504549213E+03  0.76905087194E+02 0.  0.
        -11    1    4    4    0    0  0.11137352776E+01 -0.40339695820E+02 -0.24628142995E+02  0.47276599840E+02  0.00000000000E+00 0. -1.
         11    1    4    4    0    0  0.79573472091E+01  0.22268264610E+02 -0.84523271767E+02  0.87768892288E+02  0.00000000000E+00 0.  1.
        -13    1    3    3    0    0 -0.32577025518E+01  0.65252842742E+02  0.55504982158E+02  0.85728345115E+02  0.00000000000E+00 0.  1.
         13    1    3    3    0    0 -0.23428466594E+02 -0.16085617704E+02 -0.10521019227E+02  0.30303992962E+02  0.00000000000E+00 0. -1.
         21    1    1    2  502  501  0.17615086659E+02 -0.31095793829E+02 -0.21073379380E+02  0.41488877912E+02  0.00000000000E+00 0. -1.
<scales pt_clust_5="13000.00000" pt_clust_6="13000.00000" pt_clust_7="13000.00000" pt_clust_8="13000.00000" pt_clust_9="35.73849"></scales>
<clustering>
<clus scale="   35.738">  2  9  1 -1</clus>
<clus scale="   76.905">  5  6 -1 -1</clus>
<clus scale="   90.597">  2  5  1 -1</clus>
<clus scale="   91.161">  7  8 -1 -1</clus>
<clus scale="   35.738">  2  5  1 -1</clus>
</clustering>
</event>
<event>
 9    1  0.1234700E-005  0.1407293E+03  0.7546771E-02  0.1213690E+00
         -1   -1    0    0    0  501 -0.00000000000E+00  0.00000000000E+00  0.54337143751E+02  0.54337143751E+02  0.00000000000E+00 0.  1.
          1   -1    0    0  502    0  0.00000000000E+00 -0.00000000000E+00 -0.54034407255E+03  0.54034407255E+03  0.00000000000E+00 0. -1.
         23    2    1    2    0    0 -0.13649886679E-01  0.11393925889E+03 -0.16240785922E+03  0.21832020256E+03  0.91133107101E+02 0.  0.
         23    2    1    2    0    0  0.37821900527E+02 -0.85961502701E+02 -0.17825106899E+03  0.22359236534E+03  0.96954763342E+02 0.  0.
        -11    1    3    3    0    0  0.45085363313E+02  0.60587281482E+02 -0.75134985330E+02  0.10653062791E+03  0.00000000000E+00 0. -1.
         11    1    3    3    0    0 -0.45099013200E+02  0.53351977408E+02 -0.87272873887E+02  0.11178957465E+03  0.00000000000E+00 0.  1.
        -13    1    4    4    0    0  0.63369482695E+02 -0.88332450983E+02 -0.13533047239E+03  0.17358758593E+03  0.00000000000E+00 0.  1.
         13    1    4    4    0    0 -0.25547582169E+02  0.23709482820E+01 -0.42920596601E+02  0.50004779401E+02  0.00000000000E+00 0. -1.
         21    1    1    2  502  501 -0.37808250640E+02 -0.27977756189E+02 -0.14534800059E+03  0.15276864840E+03  0.00000000000E+00 0.  1.
<scales pt_clust_5="13000.00000" pt_clust_6="13000.00000" pt_clust_7="13000.00000" pt_clust_8="13000.00000" pt_clust_9="47.03423"></scales>
<clustering>
<clus scale="   47.034">  2  9  1 -1</clus>
<clus scale="   91.133">  5  6 -1 -1</clus>
<clus scale="   96.955">  7  8 -1 -1</clus>
<clus scale="  136.784">  1  5  2 -1</clus>
<clus scale="   47.034">  2  5  1 -1</clus>
</clustering>
</event>
<event>
 9    1  0.1234700E-005  0.1657024E+03  0.7546771E-02  0.1198643E+00
         -2   -1    0    0    0  501 -0.00000000000E+00  0.00000000000E+00  0.11124134277E+03  0.11124134277E+03  0.00000000000E+00 0.  1.
          2   -1    0    0  502    0  0.00000000000E+00 -0.00000000000E+00 -0.59426717098E+03  0.59426717098E+03  0.00000000000E+00 0. -1.
         23    2    1    2    0    0  0.49739176011E+02  0.38013016817E+02 -0.15178158564E+00  0.11578548107E+03  0.97402666858E+02 0.  0.
         23    2    1    2    0    0 -0.90654975277E+02  0.95895007644E+02 -0.12468955033E+03  0.20514326849E+03  0.95509683337E+02 0.  0.
        -11    1    3    3    0    0  0.70467731480E+02  0.35613922268E+02  0.25265397070E+02  0.82899897035E+02  0.00000000000E+00 0. -1.
         11    1    3    3    0    0 -0.20728555469E+02  0.23990945488E+01 -0.25417178656E+02  0.32885584035E+02  0.00000000000E+00 0.  1.
        -13    1    4    4    0    0 -0.46941578274E+02  0.38505850275E+02 -0.11798611559E+03  0.13269112913E+03  0.00000000000E+00 0. -1.
         13    1    4    4    0    0 -0.43713397002E+02  0.57389157369E+02 -0.67034347408E+01  0.72452139364E+02  0.00000000000E+00 0.  1.
         21    1    1    2  502  501  0.40915799266E+02 -0.13390802446E+03 -0.35818449629E+03  0.38457976420E+03  0.00000000000E+00 0. -1.
<scales pt_clust_5="13000.00000" pt_clust_6="13000.00000" pt_clust_7="13000.00000" pt_clust_8="13000.00000" pt_clust_9="135.40746"></scales>
<clustering>
<clus scale="   95.510">  7  8 -1 -1</clus>
<clus scale="   97.403">  5  6 -1 -1</clus>
<clus scale="  115.785">  1  5  2 -1</clus>
<clus scale="  135.407">  2  9  1 -1</clus>
<clus scale="  135.407">  2  5  1 -1</clus>
</clustering>
</event>
<event>
 9    1  0.1234700E-005  0.9553158E+02  0.7546771E-02  0.1290361E+00
          1   -1    0    0  502    0  0.00000000000E+00  0.00000000000E+00  0.72208274581E+03  0.72208274581E+03  0.00000000000E+00 0. -1.
         -1   -1    0    0    0  501 -0.00000000000E+00 -0.00000000000E+00 -0.25439344131E+02  0.25439344131E+02  0.00000000000E+00 0.  1.
         23    2    1    2    0    0  0.12662554753E-02 -0.27495371703E+02  0.11245498123E+03  0.14778815342E+03  0.91865227493E+02 0.  0.
         23    2    1    2    0    0  0.30401097570E+02  0.57660141618E+01  0.44834961221E+03  0.45884869766E+03  0.92559596577E+02 0.  0.
        -11    1    4    4    0    0  0.38054472043E+02 -0.37628260677E+02  0.24977990484E+03  0.25544868312E+03  0.00000000000E+00 0.  1.
         11    1    4    4    0    0 -0.76533744723E+01  0.43394274838E+02  0.19856970737E+03  0.20340001454E+03  0.00000000000E+00 0. -1.
        -11    1    3    3    0    0  0.26697839233E+02 -0.18710791973E+02  0.75888652608E+00  0.32610493169E+02  0.00000000000E+00 0.  1.
         11    1    3    3    0    0 -0.26696572978E+02 -0.87845797297E+01  0.11169609470E+03  0.11517766025E+03  0.00000000000E+00 0. -1.
         21    1    1    2  502  501 -0.30402363826E+02  0.21729357541E+02  0.13583880824E+03  0.14088523886E+03  0.00000000000E+00 0. -1.
<scales pt_clust_5="13000.00000" pt_clust_6="13000.00000" pt_clust_7="13000.00000" pt_clust_8="13000.00000" pt_clust_9="37.36936"></scales>
<clustering>
<clus scale="   37.369">  1  9  2 -1</clus>
<clus scale="   91.865">  7  8 -1 -1</clus>
<clus scale="   92.560">  5  6 -1 -1</clus>
<clus scale="   94.859">  2  7  1 -1</clus>
<clus scale="   37.369">  1  5  2 -1</clus>
</clustering>
</event>
<event>
 9    1  0.1234700E-005  0.1015253E+03  0.7546771E-02  0.1278319E+00
          1   -1    0    0  502    0  0.00000000000E+00  0.00000000000E+00  0.40009279363E+03  0.40009279363E+03  0.00000000000E+00 0. -1.
         -1   -1    0    0    0  501 -0.00000000000E+00 -0.00000000000E+00 -0.79470380615E+02  0.79470380615E+02  0.00000000000E+00 0.  1.
         23    2    1    2    0    0 -0.37055800162E+02 -0.14492353781E+02 -0.30246112756E+02  0.10662295294E+03  0.94183151965E+02 0.  0.
         23    2    1    2    0    0  0.30794407567E+02 -0.12955747045E+02  0.25564197735E+03  0.27363916994E+03  0.91702932483E+02 0.  0.
        -11    1    3    3    0    0 -0.36190188107E+02  0.29898567632E+02 -0.39404081698E+02  0.61288952644E+02  0.00000000000E+00 0.  1.
         11    1    3    3    0    0 -0.86561205572E+00 -0.44390921413E+02  0.91579689423E+01  0.45334000301E+02  0.00000000000E+00 0. -1.
        -11    1    4    4    0    0  0.28121143828E+01  0.37416969291E+02  0.72326558529E+02  0.81480480159E+02  0.00000000000E+00 0.  1.
         11    1    4    4    0    0  0.27982293184E+02 -0.50372716336E+02  0.18331541882E+03  0.19215868978E+03  0.00000000000E+00 0. -1.
         21    1    1    2  502  501  0.62613925959E+01  0.27448100826E+02  0.95226548425E+02  0.99301051360E+02  0.00000000000E+00 0.  1.
<scales pt_clust_5="13000.00000" pt_clust_6="13000.00000" pt_clust_7="13000.00000" pt_clust_8="13000.00000" pt_clust_9="28.15321"></scales>
<clustering>
<clus scale="   28.153">  1  9  2 -1</clus>
<clus scale="   91.703">  7  8 -1 -1</clus>
<clus scale="   94.183">  5  6 -1 -1</clus>
<clus scale="   99.229">  1  7  2 -1</clus>
<clus scale="   28.153">  1  5  2 -1</clus>
</clustering>
</event>
<event>
 9    1  0.1234700E-005  0.1096069E+03  0.7546771E-02  0.1263987E+00
          1   -1    0    0  502    0  0.00000000000E+00  0.00000000000E+00  0.57434298279E+03  0.57434298279E+03  0.00000000000E+00 0. -1.
         -1   -1    0    0    0  501 -0.00000000000E+00 -0.00000000000E+00 -0.26464576687E+02  0.26464576687E+02  0.00000000000E+00 0.  1.
         23    2    1    2    0    0  0.58413528329E+02  0.12505452619E+02  0.17418094716E+03  0.20495195276E+03  0.89987632203E+02 0.  0.
         23    2    1    2    0    0 -0.69108480897E+02  0.69158414132E+01  0.31686029995E+03  0.33484715390E+03  0.83056341110E+02 0.  0.
        -13    1    3    3    0    0 -0.87416139372E+01 -0.28031910581E+02  0.53224486793E+02  0.60786921450E+02  0.00000000000E+00 0.  1.
         13    1    3    3    0    0  0.67155142266E+02  0.40537363200E+02  0.12095646037E+03  0.14416503131E+03  0.00000000000E+00 0. -1.
        -13    1    4    4    0    0 -0.45447103262E+02  0.30766915107E+02  0.27849311154E+03  0.28384935342E+03  0.00000000000E+00 0. -1.
         13    1    4    4    0    0 -0.23661377635E+02 -0.23851073694E+02  0.38367188407E+02  0.50997800484E+02  0.00000000000E+00 0.  1.
         21    1    1    2  502  501  0.10694952568E+02 -0.19421294032E+02  0.56837158994E+02  0.61008452815E+02  0.00000000000E+00 0.  1.
<scales pt_clust_5="13000.00000" pt_clust_6="13000.00000" pt_clust_7="13000.00000" pt_clust_8="13000.00000" pt_clust_9="22.17135"></scales>
<clustering>
<clus scale="   22.171">  1  9  2 -1</clus>
<clus scale="   83.056">  7  8 -1 -1</clus>
<clus scale="   89.988">  5  6 -1 -1</clus>
<clus scale="  103.992">  1  7  2 -1</clus>
<clus scale="   22.171">  1  5  2 -1</clus>
</clustering>
</event>
<event>
 9    1  0.1234700E-005  0.9443257E+02  0.7546771E-02  0.1292947E+00
         -1   -1    0    0    0  501 -0.00000000000E+00  0.00000000000E+00  0.24750040659E+03  0.24750040659E+03  0.00000000000E+00 0.  1.
          1   -1    0    0  502    0  0.00000000000E+00 -0.00000000000E+00 -0.88013431021E+02  0.88013431021E+02  0.00000000000E+00 0. -1.
         23    2    1    2    0    0  0.11067721275E+02 -0.16936424511E+02  0.17790652926E+03  0.20130231909E+03  0.91992138730E+02 0.  0.
         23    2    1    2    0    0  0.57228147582E+01  0.31128273815E+02  0.11440692271E+02  0.97130998352E+02  0.91114331264E+02 0.  0.
        -11    1    4    4    0    0 -0.12162791855E+02 -0.28316148837E+02 -0.84324740558E+01  0.31950655852E+02  0.00000000000E+00 0. -1.
         11    1    4    4    0    0  0.17885606613E+02  0.59444422653E+02  0.19873166327E+02  0.65180342499E+02  0.00000000000E+00 0.  1.
        -13    1    3    3    0    0 -0.35257076303E+02 -0.98895778471E+00  0.12185608595E+03  0.12685797235E+03  0.00000000000E+00 0. -1.
         13    1    3    3    0    0  0.46324797578E+02 -0.15947466727E+02  0.56050443311E+02  0.74444346736E+02  0.00000000000E+00 0.  1.
         21    1    1    2  502  501 -0.16790536033E+02 -0.14191849304E+02 -0.29860245963E+02  0.37080520168E+02  0.00000000000E+00 0. -1.
<scales pt_clust_5="13000.00000" pt_clust_6="13000.00000" pt_clust_7="13000.00000" pt_clust_8="13000.00000" pt_clust_9="21.98478"></scales>
<clustering>
<clus scale="   21.985">  2  9  1 -1</clus>
<clus scale="   91.114">  5  6 -1 -1</clus>
<clus scale="   91.992">  7  8 -1 -1</clus>
<clus scale="   93.578">  2  5  1 -1</clus>
<clus scale="   21.985">  2  5  1 -1</clus>
</clustering>
</event>
<event>
 9    1  0.1234700E-005  0.1117580E+03  0.7546771E-02  0.1258256E+00
         -3   -1    0    0    0  501 -0.00000000000E+00  0.00000000000E+00  0.31121011790E+03  0.31121011790E+03  0.00000000000E+00 0.  1.
          3   -1    0    0  502    0  0.00000000000E+00 -0.00000000000E+00 -0.66940600244E+02  0.66940600244E+02  0.00000000000E+00 0. -1.
         23    2    1    2    0    0 -0.69231174931E+01  0.54694561399E+02  0.12966135072E+03  0.16880136068E+03  0.92964557195E+02 0.  0.
         23    2    1    2    0    0  0.42613755692E+02 -0.60781289883E+02  0.12539260037E+03  0.17157140194E+03  0.90571211549E+02 0.  0.
        -11    1    4    4    0    0 -0.13142654130E+02 -0.31571273293E+02  0.34874530999E+01  0.34374947041E+02  0.00000000000E+00 0.  1.
         11    1    4    4    0    0  0.55756409822E+02 -0.29210016590E+02  0.12190514727E+03  0.13719645490E+03  0.00000000000E+00 0. -1.
        -13    1    3    3    0    0 -0.24589370635E+02  0.28658688857E+02  0.13195722988E+03  0.13725402767E+03  0.00000000000E+00 0.  1.
         13    1    3    3    0    0  0.17666253142E+02  0.26035872541E+02 -0.22958791533E+01  0.31547333012E+02  0.00000000000E+00 0. -1.
         21    1    1    2  502  501 -0.35690638199E+02  0.60867284841E+01 -0.10784433441E+02  0.37777955521E+02  0.00000000000E+00 0. -1.
<scales pt_clust_5="13000.00000" pt_clust_6="13000.00000" pt_clust_7="13000.00000" pt_clust_8="13000.00000" pt_clust_9="36.20594"></scales>
<clustering>
<clus scale="   36.206">  2  9  1 -1</clus>
<clus scale="   90.571">  5  6 -1 -1</clus>
<clus scale="   92.965">  7  8 -1 -1</clus>
<clus scale="  109.775">  2  5  1 -1</clus>
<clus scale="   36.206">  2  5  1 -1</clus>
</clustering>
</event>
<event>
 9    1  0.1234700E-005  0.1112286E+03  0.7546771E-02  0.1258596E+00
         -2   -1    0    0    0  501 -0.00000000000E+00  0.00000000000E+00  0.14378789978E+03  0.14378789978E+03  0.00000000000E+00 0.  1.
          2   -1    0    0  502    0  0.00000000000E+00 -0.00000000000E+00 -0.15198596430E+03  0.15198596430E+03  0.00000000000E+00 0. -1.
         23    2    1    2    0    0  0.64372328167E+02 -0.88498652698E+01  0.81768285100E+02  0.13966474403E+03  0.92725786745E+02 0.  0.
         23    2    1    2    0    0 -0.50633529629E+02 -0.80522305939E+01 -0.69137689677E+02  0.12597162671E+03  0.91979551321E+02 0.  0.
        -11    1    4    4    0    0 -0.99898187510E+01  0.38459911567E+02 -0.11201992056E+02  0.41284935539E+02  0.00000000000E+00 0.  1.
         11    1    4    4    0    0 -0.40643710878E+02 -0.46512142161E+02 -0.57935697621E+02  0.84686691169E+02  0.00000000000E+00 0. -1.
        -11    1    3    3    0    0  0.79076811104E+02  0.15984733505E+02  0.74703664476E+02  0.10995131307E+03  0.00000000000E+00 0.  1.
         11    1    3    3    0    0 -0.14704482938E+02 -0.24834598775E+02  0.70646206247E+01  0.29713430959E+02  0.00000000000E+00 0. -1.
         21    1    1    2  502  501 -0.13738798538E+02  0.16902095864E+02 -0.20828659947E+02  0.30137493344E+02  0.00000000000E+00 0.  1.
<scales pt_clust_5="13000.00000" pt_clust_6="13000.00000" pt_clust_7="13000.00000" pt_clust_8="13000.00000" pt_clust_9="21.78154"></scales>
<clustering>
<clus scale="   21.782">  2  9  1 -1</clus>
<clus scale="   91.980">  5  6 -1 -1</clus>
<clus scale="   92.726">  7  8 -1 -1</clus>
<clus scale="  110.607">  2  5  1 -1</clus>
<clus scale="   21.782">  2  5  1 -1</clus>
</clustering>
</event>
<event>
 9    1  0.1234700E-005  0.1533162E+03  0.7546771E-02  0.1216331E+00
          1   -1    0    0  502    0  0.00000000000E+00  0.00000000000E+00  0.20773176147E+03  0.20773176147E+03  0.00000000000E+00 0. -1.
         -1   -1    0    0    0  501 -0.00000000000E+00 -0.00000000000E+00 -0.19689232290E+03  0.19689232290E+03  0.00000000000E+00 0.  1.
         23    2    1    2    0    0 -0.67526494123E+02 -0.10617823447E+03 -0.65377050187E+02  0.17049195179E+03  0.94655702674E+02 0.  0.
         23    2    1    2    0    0 -0.23221922894E+02  0.31938124417E+02  0.57560613039E+02  0.11541014291E+03  0.91907428524E+02 0.  0.
        -13    1    3    3    0    0 -0.30210290931E+02 -0.11439493715E+03 -0.57193915573E+02  0.13141539979E+03  0.00000000000E+00 0.  1.
         13    1    3    3    0    0 -0.37316203192E+02  0.82167026797E+01 -0.81831346140E+01  0.39076551993E+02  0.00000000000E+00 0. -1.
        -13    1    4    4    0    0 -0.19610570373E+02  0.81813427401E+01  0.79853410061E+02  0.82632172534E+02  0.00000000000E+00 0. -1.
         13    1    4    4    0    0 -0.36113525219E+01  0.23756781677E+02 -0.22292797021E+02  0.32777970372E+02  0.00000000000E+00 0.  1.
         21    1    1    2  502  501  0.90748417017E+02  0.74240110057E+02  0.18655875719E+02  0.11872198967E+03  0.00000000000E+00 0.  1.
<scales pt_clust_5="13000.00000" pt_clust_6="13000.00000" pt_clust_7="13000.00000" pt_clust_8="13000.00000" pt_clust_9="120.60743"></scales>
<clustering>
<clus scale="   91.907">  7  8 -1 -1</clus>
<clus scale="   94.656">  5  6 -1 -1</clus>
<clus scale="  100.031">  1  7  2 -1</clus>
<clus scale="  120.607">  1  9  2 -1</clus>
<clus scale="  100.031">  1  5  2 -1</clus>
</clustering>
</event>
<event>
 9    1  0.1234700E-005  0.1490034E+03  0.7546771E-02  0.1202110E+00
         -2   -1    0    0    0  501 -0.00000000000E+00  0.00000000000E+00  0.11976196586E+04  0.11976196586E+04  0.00000000000E+00 0.  1.
          2   -1    0    0  502    0  0.00000000000E+00 -0.00000000000E+00 -0.31169332973E+02  0.31169332973E+02  0.00000000000E+00 0. -1.
         23    2    1    2    0    0 -0.83281474146E+02  0.75771114014E+02  0.72641419839E+03  0.74106802202E+03  0.93952966837E+02 0.  0.
         23    2    1    2    0    0  0.11241070029E+03 -0.54121624405E+02  0.41670341583E+03  0.44457438641E+03  0.91865839765E+02 0.  0.
        -11    1    3    3    0    0  0.91978338195E+01  0.48493920501E+02  0.20924398664E+03  0.21498675870E+03  0.00000000000E+00 0. -1.
         11    1    3    3    0    0 -0.92479307965E+02  0.27277193513E+02  0.51717021175E+03  0.52608126332E+03  0.00000000000E+00 0.  1.
        -11    1    4    4    0    0  0.54912264258E+02 -0.75430813131E+02  0.23745902825E+03  0.25513124942E+03  0.00000000000E+00 0.  1.
         11    1    4    4    0    0  0.57498436031E+02  0.21309188726E+02  0.17924438759E+03  0.18944313699E+03  0.00000000000E+00 0. -1.
         21    1    1    2  502  501 -0.29129226144E+02 -0.21649489609E+02  0.23332711407E+02  0.43146583152E+02  0.00000000000E+00 0. -1.
<scales pt_clust_5="13000.00000" pt_clust_6="13000.00000" pt_clust_7="13000.00000" pt_clust_8="13000.00000" pt_clust_9="36.29342"></scales>
<clustering>
<clus scale="   36.293">  2  9  1 -1</clus>
<clus scale="   91.866">  7  8 -1 -1</clus>
<clus scale="   93.953">  5  6 -1 -1</clus>
<clus scale="  147.696">  2  7  1 -1</clus>
<clus scale="   36.293">  2  5  1 -1</clus>
</clustering>
</event>
<event>
 9    1  0.1234700E-005  0.9946551E+02  0.7546771E-02  0.1283708E+00
          1   -1    0    0  502    0  0.00000000000E+00  0.00000000000E+00  0.28229609158E+02  0.28229609158E+02  0.00000000000E+00 0. -1.
         -1   -1    0    0    0  501 -0.00000000000E+00 -0.00000000000E+00 -0.58468999154E+03  0.58468999154E+03  0.00000000000E+00 0.  1.
         23    2    1    2    0    0 -0.18484984034E+02  0.35721886158E+02 -0.40988271773E+03  0.42065016794E+03  0.85586060271E+02 0.  0.
         23    2    1    2    0    0  0.35035963236E+01 -0.50141893023E+02 -0.12699947119E+03  0.16370924657E+03  0.90251687553E+02 0.  0.
        -13    1    3    3    0    0 -0.30647231573E+02 -0.19456298090E+02 -0.20145394632E+03  0.20469854134E+03  0.00000000000E+00 0.  1.
         13    1    3    3    0    0  0.12162247539E+02  0.55178184248E+02 -0.20842877141E+03  0.21595162660E+03  0.00000000000E+00 0. -1.
        -13    1    4    4    0    0 -0.68592478689E+00  0.25673363755E+02 -0.20230378573E+02  0.32693429257E+02  0.00000000000E+00 0.  1.
         13    1    4    4    0    0  0.41895211105E+01 -0.75815256778E+02 -0.10676909262E+03  0.13101581731E+03  0.00000000000E+00 0. -1.
         21    1    1    2  502  501  0.14981387710E+02  0.14420006865E+02 -0.19578193459E+02  0.28560186183E+02  0.00000000000E+00 0.  1.
<scales pt_clust_5="13000.00000" pt_clust_6="13000.00000" pt_clust_7="13000.00000" pt_clust_8="13000.00000" pt_clust_9="20.79371"></scales>
<clustering>
<clus scale="   20.794">  1  9  2 -1</clus>
<clus scale="   85.586">  5  6 -1 -1</clus>
<clus scale="   90.252">  7  8 -1 -1</clus>
<clus scale="   95.252">  2  5  1 -1</clus>
<clus scale="   20.794">  1  5  2 -1</clus>
</clustering>
</event>
<event>
 9    1  0.1234700E-005  0.9961530E+02  0.7546771E-02  0.1281469E+00
          1   -1    0    0  502    0  0.00000000000E+00  0.00000000000E+00  0.65079169636E+03  0.65079169636E+03  0.00000000000E+00 0. -1.
         -1   -1    0    0    0  501 -0.00000000000E+00 -0.00000000000E+00 -0.22642767204E+02  0.22642767204E+02  0.00000000000E+00 0.  1.
         23    2    1    2    0    0  0.28167357479E+02  0.61196388611E+01  0.18067950011E+03  0.20463824972E+03  0.91656322641E+02 0.  0.
         23    2    1    2    0    0 -0.50094605156E+02 -0.26866490181E+02  0.30900064870E+03  0.32707522330E+03  0.90914921989E+02 0.  0.
        -13    1    4    4    0    0  0.19716239643E+02  0.58782959225E+01  0.22985889787E+02  0.30848591507E+02  0.00000000000E+00 0.  1.
         13    1    4    4    0    0 -0.69810844800E+02 -0.32744786104E+02  0.28601475892E+03  0.29622663180E+03  0.00000000000E+00 0. -1.
        -13    1    3    3    0    0  0.44813156521E+02  0.25676238826E+02  0.16845678403E+03  0.17619641405E+03  0.00000000000E+00 0.  1.
         13    1    3    3    0    0 -0.16645799042E+02 -0.19556599965E+02  0.12222716082E+02  0.28441835671E+02  0.00000000000E+00 0. -1.
         21    1    1    2  502  501  0.21927247677E+02  0.20746851320E+02  0.13846878034E+03  0.14172099054E+03  0.00000000000E+00 0.  1.
<scales pt_clust_5="13000.00000" pt_clust_6="13000.00000" pt_clust_7="13000.00000" pt_clust_8="13000.00000" pt_clust_9="30.18669"></scales>
<clustering>
<clus scale="   30.187">  1  9  2 -1</clus>
<clus scale="   90.915">  5  6 -1 -1</clus>
<clus scale="   91.656">  7  8 -1 -1</clus>
<clus scale="   98.934">  1  5  2 -1</clus>
<clus scale="   30.187">  1  5  2 -1</clus>
</clustering>
</event>
<event>
 9    1  0.1234700E-005  0.1088489E+03  0.7546771E-02  0.1265367E+00
          2   -1    0    0  502    0  0.00000000000E+00  0.00000000000E+00  0.59810890542E+02  0.59810890542E+02  0.00000000000E+00 0. -1.
         -2   -1    0    0    0  501 -0.00000000000E+00 -0.00000000000E+00 -0.35423509315E+03  0.35423509315E+03  0.00000000000E+00 0.  1.
         23    2    1    2    0    0  0.20186208986E+02  0.63180511304E+02 -0.18512367832E+03  0.21455908287E+03  0.85822862485E+02 0.  0.
         23    2    1    2    0    0 -0.21564051206E+02 -0.42176169989E+02 -0.13239800237E+03  0.16823671206E+03  0.92360828463E+02 0.  0.
        -11    1    4    4    0    0  0.27248062693E+02  0.44498814161E+01 -0.73987125225E+02  0.78970583537E+02  0.00000000000E+00 0.  1.
         11    1    4    4    0    0 -0.48812113899E+02 -0.46626051405E+02 -0.58410877148E+02  0.89266128527E+02  0.00000000000E+00 0. -1.
        -11    1    3    3    0    0  0.49738036238E+02  0.40477320942E+02 -0.15090792193E+03  0.16396794400E+03  0.00000000000E+00 0.  1.
         11    1    3    3    0    0 -0.29551827252E+02  0.22703190362E+02 -0.34215756395E+02  0.50591138871E+02  0.00000000000E+00 0. -1.
         21    1    1    2  502  501  0.13778422195E+01 -0.21004341315E+02  0.23097478089E+02  0.31250188756E+02  0.00000000000E+00 0.  1.
<scales pt_clust_5="13000.00000" pt_clust_6="13000.00000" pt_clust_7="13000.00000" pt_clust_8="13000.00000" pt_clust_9="21.04948"></scales>
<clustering>
<clus scale="   21.049">  1  9  2 -1</clus>
<clus scale="   85.823">  7  8 -1 -1</clus>
<clus scale="   92.361">  5  6 -1 -1</clus>
<clus scale="  103.359">  2  7  1 -1</clus>
<clus scale="   21.049">  1  5  2 -1</clus>
</clustering>
</event>
<event>
 9    1  0.1234700E-005  0.1271868E+03  0.7546771E-02  0.1247915E+00
          1   -1    0    0  502    0  0.00000000000E+00  0.00000000000E+00  0.11883661689E+03  0.11883661689E+03  0.00000000000E+00 0. -1.
         -1   -1    0    0    0  501 -0.00000000000E+00 -0.00000000000E+00 -0.22301978186E+03  0.22301978186E+03  0.00000000000E+00 0.  1.
         23    2    1    2    0    0 -0.10207851800E+02 -0.60817170034E+00 -0.15622431719E+03  0.20131290781E+03  0.12655544025E+03 0.  0.
         23    2    1    2    0    0  0.13105253633E+02 -0.31309404645E+02  0.48739355437E+02  0.10832504158E+03  0.90591188165E+02 0.  0.
        -13    1    3    3    0    0  0.22643006804E+02 -0.48744050793E+02 -0.28305318934E+02  0.60744376899E+02  0.00000000000E+00 0. -1.
         13    1    3    3    0    0 -0.32850858604E+02  0.48135879093E+02 -0.12791899826E+03  0.14056853091E+03  0.00000000000E+00 0.  1.
        -13    1    4    4    0    0  0.26797686302E+02  0.68904025256E+01 -0.15967763770E+02  0.31946253582E+02  0.00000000000E+00 0.  1.
         13    1    4    4    0    0 -0.13692432669E+02 -0.38199807170E+02  0.64707119206E+02  0.76378787999E+02  0.00000000000E+00 0. -1.
         21    1    1    2  502  501 -0.28974018332E+01  0.31917576345E+02  0.33017967836E+01  0.32218449360E+02  0.00000000000E+00 0.  1.
<scales pt_clust_5="13000.00000" pt_clust_6="13000.00000" pt_clust_7="13000.00000" pt_clust_8="13000.00000" pt_clust_9="32.04882"></scales>
<clustering>
<clus scale="   32.049">  1  9  2 -1</clus>
<clus scale="   90.591">  7  8 -1 -1</clus>
<clus scale="   91.471">  1  7  2 -1</clus>
<clus scale="  126.555">  5  6 -1 -1</clus>
<clus scale="   32.049">  1  5  2 -1</clus>
</clustering>
</event>
<event>
 9    1  0.1234700E-005  0.1288828E+03  0.7546771E-02  0.1229943E+00
          1   -1    0    0  502    0  0.00000000000E+00  0.00000000000E+00  0.18822634218E+03  0.18822634218E+03  0.00000000000E+00 0. -1.
         -1   -1    0    0    0  501 -0.00000000000E+00 -0.00000000000E+00 -0.14222953967E+03  0.14222953967E+03  0.00000000000E+00 0.  1.
         23    2    1    2    0    0  0.30715217087E+02 -0.90773072299E+02 -0.39057477254E+02  0.13614751027E+03  0.88473062606E+02 0.  0.
         23    2    1    2    0    0  0.84535086706E+00  0.85616339246E+02  0.27292805841E+02  0.12828527551E+03  0.91549672304E+02 0.  0.
        -13    1    3    3    0    0  0.36684424004E+02 -0.69468548445E+02 -0.65062754374E+02  0.10200386362E+03  0.00000000000E+00 0.  1.
         13    1    3    3    0    0 -0.59692069174E+01 -0.21304523854E+02  0.26005277120E+02  0.34143646641E+02  0.00000000000E+00 0. -1.
        -13    1    4    4    0    0  0.42761970952E+02  0.26451165050E+02  0.23963581096E+02  0.55700121285E+02  0.00000000000E+00 0. -1.
         13    1    4    4    0    0 -0.41916620085E+02  0.59165174196E+02  0.33292247454E+01  0.72585154229E+02  0.00000000000E+00 0.  1.
         21    1    1    2  502  501 -0.31560567954E+02  0.51567330528E+01  0.57761473921E+02  0.66023096072E+02  0.00000000000E+00 0. -1.
<scales pt_clust_5="13000.00000" pt_clust_6="13000.00000" pt_clust_7="13000.00000" pt_clust_8="13000.00000" pt_clust_9="31.97908"></scales>
<clustering>
<clus scale="   31.979">  1  9  2 -1</clus>
<clus scale="   88.473">  5  6 -1 -1</clus>
<clus scale="   91.550">  7  8 -1 -1</clus>
<clus scale="  126.716">  2  5  1 -1</clus>
<clus scale="   31.979">  1  5  2 -1</clus>
</clustering>
</event>
<event>
 9    1  0.1234700E-005  0.1428329E+03  0.7546771E-02  0.1209781E+00
          2   -1    0    0  502    0  0.00000000000E+00  0.00000000000E+00  0.53309637265E+03  0.53309637265E+03  0.00000000000E+00 0. -1.
         -2   -1    0    0    0  501 -0.00000000000E+00 -0.00000000000E+00 -0.72304226277E+02  0.72304226277E+02  0.00000000000E+00 0.  1.
         23    2    1    2    0    0 -0.98918754863E+02 -0.52924412979E+01  0.57205619553E+02  0.14679566148E+03  0.91997572376E+02 0.  0.
         23    2    1    2    0    0  0.13542125249E+03 -0.23596173380E+02  0.26778194891E+03  0.31504356460E+03  0.93003120424E+02 0.  0.
        -11    1    3    3    0    0 -0.50482340323E+02 -0.47074364192E+02  0.42828302624E+02  0.81232542458E+02  0.00000000000E+00 0.  1.
         11    1    3    3    0    0 -0.48436414541E+02  0.41781922894E+02  0.14377316929E+02  0.65563119025E+02  0.00000000000E+00 0. -1.
        -11    1    4    4    0    0  0.99793295919E+02 -0.28153953147E+02  0.10212170882E+03  0.14553415544E+03  0.00000000000E+00 0. -1.
         11    1    4    4    0    0  0.35627956574E+02  0.45577797673E+01  0.16566024009E+03  0.16950940915E+03  0.00000000000E+00 0.  1.
         21    1    1    2  502  501 -0.36502497630E+02  0.28888614678E+02  0.13580457791E+03  0.14356137284E+03  0.00000000000E+00 0. -1.
<scales pt_clust_5="13000.00000" pt_clust_6="13000.00000" pt_clust_7="13000.00000" pt_clust_8="13000.00000" pt_clust_9="46.55088"></scales>
<clustering>
<clus scale="   46.551">  1  9  2 -1</clus>
<clus scale="   91.998">  5  6 -1 -1</clus>
<clus scale="   93.003">  7  8 -1 -1</clus>
<clus scale="  142.180">  2  5  1 -1</clus>
<clus scale="   46.551">  1  5  2 -1</clus>
</clustering>
</event>
<event>
 9    1  0.1234700E-005  0.1157135E+03  0.7546771E-02  0.1252512E+00
         -2   -1    0    0    0  501 -0.00000000000E+00  0.00000000000E+00  0.12703349258E+03  0.12703349258E+03  0.00000000000E+00 0.  1.
          2   -1    0    0  502    0  0.00000000000E+00 -0.00000000000E+00 -0.13361873147E+03  0.13361873147E+03  0.00000000000E+00 0. -1.
         23    2    1    2    0    0 -0.16836700356E+02 -0.76156822812E+02  0.17440582852E+02  0.12273236303E+03  0.93143560515E+02 0.  0.
         23    2    1    2    0    0  0.29446868924E+02  0.52474204844E+02 -0.66898166479E+01  0.10597585034E+03  0.86979692722E+02 0.  0.
        -13    1    3    3    0    0  0.33597883404E+02 -0.56838618384E+02  0.15652672999E+00  0.66026288777E+02  0.00000000000E+00 0. -1.
         13    1    3    3    0    0 -0.50434583760E+02 -0.19318204428E+02  0.17284056122E+02  0.56706074255E+02  0.00000000000E+00 0.  1.
        -13    1    4    4    0    0  0.25358834243E+02 -0.18892320726E+02 -0.13050860996E+02  0.34209870349E+02  0.00000000000E+00 0. -1.
         13    1    4    4    0    0  0.40880346810E+01  0.71366525570E+02  0.63610443479E+01  0.71765979996E+02  0.00000000000E+00 0.  1.
         21    1    1    2  502  501 -0.12610168568E+02  0.23682617968E+02 -0.17336005098E+02  0.31944010673E+02  0.00000000000E+00 0.  1.
<scales pt_clust_5="13000.00000" pt_clust_6="13000.00000" pt_clust_7="13000.00000" pt_clust_8="13000.00000" pt_clust_9="26.83063"></scales>
<clustering>
<clus scale="   26.831">  2  9  1 -1</clus>
<clus scale="   86.980">  7  8 -1 -1</clus>
<clus scale="   93.144">  5  6 -1 -1</clus>
<clus scale="  110.812">  2  7  1 -1</clus>
<clus scale="   26.831">  2  5  1 -1</clus>
</clustering>
</event>
<event>
 9    1  0.1234700E-005  0.2639370E+03  0.7546771E-02  0.1104928E+00
         -2   -1    0    0    0  501 -0.00000000000E+00  0.00000000000E+00  0.83404728633E+02  0.83404728633E+02  0.00000000000E+00 0.  1.
          2   -1    0    0  502    0  0.00000000000E+00 -0.00000000000E+00 -0.10522075540E+04  0.10522075540E+04  0.00000000000E+00 0. -1.
         23    2    1    2    0    0  0.16789924240E+03 -0.17611071387E+03 -0.26083032788E+03  0.36650793700E+03  0.84204921497E+02 0.  0.
         23    2    1    2    0    0 -0.17207974332E+03  0.19835205812E+03 -0.67080914089E+03  0.72559263392E+03  0.86860749935E+02 0.  0.
        -11    1    3    3    0    0  0.13327854696E+03 -0.17505970003E+03 -0.24206169507E+03  0.32711302920E+03  0.00000000000E+00 0. -1.
         11    1    3    3    0    0  0.34620695442E+02 -0.10510138414E+01 -0.18768632811E+02  0.39394907800E+02  0.00000000000E+00 0.  1.
        -13    1    4    4    0    0 -0.16004609053E+03  0.16632554031E+03 -0.49089544912E+03  0.54245486302E+03  0.00000000000E+00 0.  1.
         13    1    4    4    0    0 -0.12033652786E+02  0.32026517814E+02 -0.17991369177E+03  0.18313777090E+03  0.00000000000E+00 0. -1.
         21    1    1    2  502  501  0.41805009191E+01 -0.22241344255E+02 -0.37163356557E+02  0.43511711673E+02  0.00000000000E+00 0. -1.
<scales pt_clust_5="13000.00000" pt_clust_6="13000.00000" pt_clust_7="13000.00000" pt_clust_8="13000.00000" pt_clust_9="22.63082"></scales>
<clustering>
<clus scale="   22.631">  2  9  1 -1</clus>
<clus scale="   84.205">  5  6 -1 -1</clus>
<clus scale="   86.861">  7  8 -1 -1</clus>
<clus scale="  263.075">  1  5  2 -1</clus>
<clus scale="   22.631">  2  5  1 -1</clus>
</clustering>
</event>
<event>
 9    1  0.1234700E-005  0.1333619E+03  0.7546771E-02  0.1223093E+00
          1   -1    0    0  502    0  0.00000000000E+00  0.00000000000E+00  0.30798154174E+03  0.30798154174E+03  0.00000000000E+00 0. -1.
         -1   -1    0    0    0  501 -0.00000000000E+00 -0.00000000000E+00 -0.20684660272E+03  0.20684660272E+03  0.00000000000E+00 0.  1.
         23    2    1    2    0    0 -0.62612055789E+02  0.13096565072E+03 -0.82993886044E+02  0.19045920051E+03  0.91183610049E+02 0.  0.
         23    2    1    2    0    0  0.86567275549E+02 -0.32869457499E+02  0.18051939231E+03  0.22332566766E+03  0.93342425529E+02 0.  0.
        -11    1    3    3    0    0 -0.54170762167E+02  0.81953522070E+02 -0.97747115924E+02  0.13858336814E+03  0.00000000000E+00 0.  1.
         11    1    3    3    0    0 -0.84412936227E+01  0.49012128649E+02  0.14753229880E+02  0.51875832375E+02  0.00000000000E+00 0. -1.
        -13    1    4    4    0    0  0.54724945507E+02  0.28337303405E+02  0.97963553699E+02  0.11573538905E+03  0.00000000000E+00 0.  1.
         13    1    4    4    0    0  0.31842330042E+02 -0.61206760904E+02  0.82555838610E+02  0.10759027861E+03  0.00000000000E+00 0. -1.
         21    1    1    2  502  501 -0.23955219760E+02 -0.98096193220E+02  0.36094327598E+01  0.10104327629E+03  0.00000000000E+00 0. -1.
<scales pt_clust_5="13000.00000" pt_clust_6="13000.00000" pt_clust_7="13000.00000" pt_clust_8="13000.00000" pt_clust_9="100.97879"></scales>
<clustering>
<clus scale="   91.184">  5  6 -1 -1</clus>
<clus scale="   93.342">  7  8 -1 -1</clus>
<clus scale="  100.979">  2  9  1 -1</clus>
<clus scale="  131.860">  2  5  1 -1</clus>
<clus scale="  133.362">  1  5  2 -1</clus>
</clustering>
</event>
<event>
 9    1  0.1234700E-005  0.1001949E+03  0.7546771E-02  0.1281985E+00
         -3   -1    0    0    0  501 -0.00000000000E+00  0.00000000000E+00  0.27080756255E+03  0.27080756255E+03  0.00000000000E+00 0.  1.
          3   -1    0    0  502    0  0.00000000000E+00 -0.00000000000E+00 -0.71170273831E+02  0.71170273831E+02  0.00000000000E+00 0. -1.
         23    2    1    2    0    0 -0.24056970943E+02 -0.11111574154E+02  0.97005449243E+02  0.13743630404E+03  0.93682845574E+02 0.  0.
         23    2    1    2    0    0 -0.75562046206E+01  0.63776531015E+02  0.89038243226E+02  0.14163067152E+03  0.89481261840E+02 0.  0.
        -11    1    3    3    0    0 -0.45017043032E+02 -0.11838898481E+02  0.10510723647E+03  0.11495314192E+03  0.00000000000E+00 0.  1.
         11    1    3    3    0    0  0.20960072089E+02  0.72732432718E+00 -0.81017872226E+01  0.22483162119E+02  0.00000000000E+00 0. -1.
        -11    1    4    4    0    0 -0.42320102005E+02  0.72593101780E+01  0.26540102895E+02  0.50478368433E+02  0.00000000000E+00 0.  1.
         11    1    4    4    0    0  0.34763897384E+02  0.56517220837E+02  0.62498140331E+02  0.91152303083E+02  0.00000000000E+00 0. -1.
         21    1    1    2  502  501  0.31613175564E+02 -0.52664956861E+02  0.13593596248E+02  0.62910860822E+02  0.00000000000E+00 0.  1.
<scales pt_clust_5="13000.00000" pt_clust_6="13000.00000" pt_clust_7="13000.00000" pt_clust_8="13000.00000" pt_clust_9="61.42467"></scales>
<clustering>
<clus scale="   61.425">  2  9  1 -1</clus>
<clus scale="   89.481">  7  8 -1 -1</clus>
<clus scale="   93.683">  5  6 -1 -1</clus>
<clus scale="   96.278">  2  7  1 -1</clus>
<clus scale="   61.425">  2  5  1 -1</clus>
</clustering>
</event>
<event>
 9    1  0.1234700E-005  0.9801584E+02  0.7546771E-02  0.1285717E+00
          1   -1    0    0  502    0  0.00000000000E+00  0.00000000000E+00  0.33816491408E+03  0.33816491408E+03  0.00000000000E+00 0. -1.
         -1   -1    0    0    0  501 -0.00000000000E+00 -0.00000000000E+00 -0.76058641078E+02  0.76058641078E+02  0.00000000000E+00 0.  1.
         23    2    1    2    0    0 -0.58236940782E+01  0.24626816561E+02  0.10428616387E+02  0.94289491755E+02  0.90229466966E+02 0.  0.
         23    2    1    2    0    0  0.43698839451E+01  0.48282836478E+02  0.21333949760E+03  0.23754628818E+03  0.92542798785E+02 0.  0.
        -11    1    3    3    0    0 -0.29215693977E+02  0.48939199100E+02  0.17885535603E+02  0.59736876106E+02  0.00000000000E+00 0.  1.
         11    1    3    3    0    0  0.23391999899E+02 -0.24312382539E+02 -0.74569192158E+01  0.34552615649E+02  0.00000000000E+00 0. -1.
        -13    1    4    4    0    0  0.44376886386E+02  0.39697705726E+02  0.92874401806E+02  0.11032166784E+03  0.00000000000E+00 0. -1.
         13    1    4    4    0    0 -0.40007002441E+02  0.85851307518E+01  0.12046509579E+03  0.12722462033E+03  0.00000000000E+00 0.  1.
         21    1    1    2  502  501  0.14538101331E+01 -0.72909653039E+02  0.38338159019E+02  0.82387775228E+02  0.00000000000E+00 0.  1.
<scales pt_clust_5="13000.00000" pt_clust_6="13000.00000" pt_clust_7="13000.00000" pt_clust_8="13000.00000" pt_clust_9="72.92415"></scales>
<clustering>
<clus scale="   72.924">  2  9  1 -1</clus>
<clus scale="   90.229">  5  6 -1 -1</clus>
<clus scale="   92.543">  7  8 -1 -1</clus>
<clus scale="   95.835">  2  5  1 -1</clus>
<clus scale="   98.016">  1  5  2 -1</clus>
</clustering>
</event>
<event>
 9    1  0.2335703E-005  0.1023697E+03  0.7546771E-02  0.1276662E+00
         -2   -1    0    0    0  501 -0.00000000000E+00  0.00000000000E+00  0.28334234086E+03  0.28334234086E+03  0.00000000000E+00 0.  1.
          2   -1    0    0  502    0  0.00000000000E+00 -0.00000000000E+00 -0.15035298029E+03  0.15035298029E+03  0.00000000000E+00 0. -1.
         23    2    1    2    0    0 -0.32086457317E+01 -0.43714803671E+02  0.24955938045E+03  0.26998508134E+03  0.93224354697E+02 0.  0.
         23    2    1    2    0    0  0.10309527003E+02  0.24782978213E+02 -0.91157564888E+02  0.13123518171E+03  0.90512368914E+02 0.  0.
        -11    1    4    4    0    0  0.21833373862E+02  0.65624142460E+01 -0.10377882872E+03  0.10625350246E+03  0.00000000000E+00 0. -1.
         11    1    4    4    0    0 -0.11523846859E+02  0.18220563967E+02  0.12621263828E+02  0.24981679253E+02  0.00000000000E+00 0.  1.
        -13    1    3    3    0    0 -0.14082218113E+02 -0.71393175956E+02  0.18881600525E+03  0.20235310296E+03  0.00000000000E+00 0.  1.
         13    1    3    3    0    0  0.10873572381E+02  0.27678372285E+02  0.60743375196E+02  0.67631978375E+02  0.00000000000E+00 0. -1.
         21    1    1    2  502  501 -0.71008812712E+01  0.18931825459E+02 -0.25412454993E+02  0.32475058103E+02  0.00000000000E+00 0. -1.
<scales pt_clust_5="13000.00000" pt_clust_6="13000.00000" pt_clust_7="13000.00000" pt_clust_8="13000.00000" pt_clust_9="20.21971"></scales>
<clustering>
<clus scale="   20.220">  2  9  1 -1</clus>
<clus scale="   90.512">  5  6 -1 -1</clus>
<clus scale="   93.224">  7  8 -1 -1</clus>
<clus scale="   99.906">  2  5  1 -1</clus>
<clus scale="   20.220">  2  5  1 -1</clus>
</clustering>
</event>
<event>
 9    1  0.1234700E-005  0.1023908E+03  0.7546771E-02  0.1275480E+00
          2   -1    0    0  502    0  0.00000000000E+00  0.00000000000E+00  0.19698311640E+03  0.19698311640E+03  0.00000000000E+00 0. -1.
         -2   -1    0    0    0  501 -0.00000000000E+00 -0.00000000000E+00 -0.75377395883E+02  0.75377395883E+02  0.00000000000E+00 0.  1.
         23    2    1    2    0    0  0.21105235691E+02  0.30302986907E+02  0.14758348071E+02  0.10123596355E+03  0.93097849002E+02 0.  0.
         23    2    1    2    0    0 -0.44586082399E+02 -0.28740291645E+02  0.72840529342E+02  0.12976928841E+03  0.93383094787E+02 0.  0.
        -11    1    3    3    0    0  0.48157260882E+02 -0.73343872060E+01 -0.83844653322E+01  0.49428880932E+02  0.00000000000E+00 0.  1.
         11    1    3    3    0    0 -0.27052025191E+02  0.37637374113E+02  0.23142813403E+02  0.51807082616E+02  0.00000000000E+00 0. -1.
        -13    1    4    4    0    0 -0.65875014212E+02  0.41607265235E+01  0.32665654060E+02  0.73646955795E+02  0.00000000000E+00 0. -1.
         13    1    4    4    0    0  0.21288931813E+02 -0.32901018168E+02  0.40174875282E+02  0.56122332616E+02  0.00000000000E+00 0.  1.
         21    1    1    2  502  501  0.23480846708E+02 -0.15626952616E+01  0.34006843106E+02  0.41355260326E+02  0.00000000000E+00 0.  1.
<scales pt_clust_5="13000.00000" pt_clust_6="13000.00000" pt_clust_7="13000.00000" pt_clust_8="13000.00000" pt_clust_9="23.53279"></scales>
<clustering>
<clus scale="   23.533">  1  9  2 -1</clus>
<clus scale="   93.098">  5  6 -1 -1</clus>
<clus scale="   93.383">  7  8 -1 -1</clus>
<clus scale="  102.131">  2  5  1 -1</clus>
<clus scale="   23.533">  1  5  2 -1</clus>
</clustering>
</event>
<event>
 9    1  0.1234700E-005  0.1338360E+03  0.7546771E-02  0.1223041E+00
          2   -1    0    0  502    0  0.00000000000E+00  0.00000000000E+00  0.23333315455E+03  0.23333315455E+03  0.00000000000E+00 0. -1.
         -2   -1    0    0    0  501 -0.00000000000E+00 -0.00000000000E+00 -0.12903859004E+03  0.12903859004E+03  0.00000000000E+00 0.  1.
         23    2    1    2    0    0 -0.67067664899E+02 -0.76553424617E+02 -0.52348467407E+02  0.14736075714E+03  0.92824200555E+02 0.  0.
         23    2    1    2    0    0  0.55863557454E+02  0.59366359296E+02  0.10511621308E+03  0.15954982720E+03  0.88100098973E+02 0.  0.
        -11    1    4    4    0    0  0.33747967712E+02 -0.14639396052E+02  0.59183812979E+02  0.69684725444E+02  0.00000000000E+00 0.  1.
         11    1    4    4    0    0  0.22115589743E+02  0.74005755348E+02  0.45932400104E+02  0.89865101756E+02  0.00000000000E+00 0. -1.
        -13    1    3    3    0    0 -0.20410035204E+02 -0.87373611439E+02 -0.37135285331E+02  0.97106884048E+02  0.00000000000E+00 0.  1.
         13    1    3    3    0    0 -0.46657629696E+02  0.10820186822E+02 -0.15213182077E+02  0.50253873090E+02  0.00000000000E+00 0. -1.
         21    1    1    2  502  501  0.11204107445E+02  0.17187065321E+02  0.51526818835E+02  0.55461160259E+02  0.00000000000E+00 0. -1.
<scales pt_clust_5="13000.00000" pt_clust_6="13000.00000" pt_clust_7="13000.00000" pt_clust_8="13000.00000" pt_clust_9="20.51651"></scales>
<clustering>
<clus scale="   20.517">  1  9  2 -1</clus>
<clus scale="   88.100">  5  6 -1 -1</clus>
<clus scale="   92.824">  7  8 -1 -1</clus>
<clus scale="  130.604">  1  5  2 -1</clus>
<clus scale="   20.517">  1  5  2 -1</clus>
</clustering>
</event>
<event>
 9    1  0.1234700E-005  0.9701993E+02  0.7546771E-02  0.1287579E+00
         -1   -1    0    0    0  501 -0.00000000000E+00  0.00000000000E+00  0.21590999801E+02  0.21590999801E+02  0.00000000000E+00 0.  1.
          1   -1    0    0  502    0  0.00000000000E+00 -0.00000000000E+00 -0.69850164382E+03  0.69850164382E+03  0.00000000000E+00 0. -1.
         23    2    1    2    0    0 -0.35412884909E+02 -0.38681835471E+02 -0.21462703006E+03  0.23795465987E+03  0.88358934516E+02 0.  0.
         23    2    1    2    0    0  0.37973327936E+00  0.31616337265E+02 -0.38978567047E+03  0.40130980310E+03  0.90094129532E+02 0.  0.
        -13    1    4    4    0    0  0.44232641370E+02  0.98183267084E+01 -0.21920513002E+03  0.22383881507E+03  0.00000000000E+00 0.  1.
         13    1    4    4    0    0 -0.43852908091E+02  0.21798010556E+02 -0.17058054045E+03  0.17747098803E+03  0.00000000000E+00 0. -1.
        -13    1    3    3    0    0  0.24505734455E+02  0.59929605904E+01 -0.32905524653E+02  0.41463479720E+02  0.00000000000E+00 0.  1.
         13    1    3    3    0    0 -0.59918619364E+02 -0.44674796062E+02 -0.18172150541E+03  0.19649118015E+03  0.00000000000E+00 0. -1.
         21    1    1    2  502  501  0.35033151630E+02  0.70654982067E+01 -0.72497943487E+02  0.80828180654E+02  0.00000000000E+00 0.  1.
<scales pt_clust_5="13000.00000" pt_clust_6="13000.00000" pt_clust_7="13000.00000" pt_clust_8="13000.00000" pt_clust_9="35.73854"></scales>
<clustering>
<clus scale="   35.739">  1  9  2 -1</clus>
<clus scale="   88.359">  7  8 -1 -1</clus>
<clus scale="   90.094">  5  6 -1 -1</clus>
<clus scale="   95.411">  1  7  2 -1</clus>
<clus scale="   97.020">  2  5  1 -1</clus>
</clustering>
</event>
<event>
 9    1  0.1234700E-005  0.9489335E+02  0.7546771E-02  0.1293751E+00
         -2   -1    0    0    0  501 -0.00000000000E+00  0.00000000000E+00  0.80479662027E+02  0.80479662027E+02  0.00000000000E+00 0.  1.
          2   -1    0    0  502    0  0.00000000000E+00 -0.00000000000E+00 -0.16989375074E+03  0.16989375074E+03  0.00000000000E+00 0. -1.
         23    2    1    2    0    0 -0.36555713599E+01 -0.95177302942E+01  0.64816562286E+00  0.95395023302E+02  0.94846401936E+02 0.  0.
         23    2    1    2    0    0 -0.11007260833E+02 -0.92622411481E+01 -0.41460290078E+02  0.10085042160E+03  0.90801448124E+02 0.  0.
        -13    1    3    3    0    0  0.27914056014E+02  0.32197211705E+02 -0.43918971601E+01  0.42838577538E+02  0.00000000000E+00 0. -1.
         13    1    3    3    0    0 -0.31569627374E+02 -0.41714941999E+02  0.50400627830E+01  0.52556445765E+02  0.00000000000E+00 0.  1.
        -13    1    4    4    0    0  0.29373626051E+01 -0.49043871529E+02 -0.16335989277E+02  0.51776384378E+02  0.00000000000E+00 0.  1.
         13    1    4    4    0    0 -0.13944623438E+02  0.39781630381E+02 -0.25124300801E+02  0.49074037222E+02  0.00000000000E+00 0. -1.
         21    1    1    2  502  501  0.14662832193E+02  0.18779971442E+02 -0.48601964254E+02  0.54127967860E+02  0.00000000000E+00 0. -1.
<scales pt_clust_5="13000.00000" pt_clust_6="13000.00000" pt_clust_7="13000.00000" pt_clust_8="13000.00000" pt_clust_9="23.82616"></scales>
<clustering>
<clus scale="   23.826">  2  9  1 -1</clus>
<clus scale="   90.801">  7  8 -1 -1</clus>
<clus scale="   90.850">  2  7  1 -1</clus>
<clus scale="   94.846">  5  6 -1 -1</clus>
<clus scale="   23.826">  2  5  1 -1</clus>
</clustering>
</event>
<event>
 9    1  0.1234700E-005  0.1384658E+03  0.7546771E-02  0.1217520E+00
          1   -1    0    0  502    0  0.00000000000E+00  0.00000000000E+00  0.15969924456E+03  0.15969924456E+03  0.00000000000E+00 0. -1.
         -1   -1    0    0    0  501 -0.00000000000E+00 -0.00000000000E+00 -0.16887675454E+03  0.16887675454E+03  0.00000000000E+00 0.  1.
         23    2    1    2    0    0  0.10427723797E+03 -0.46408009571E+01 -0.54016085187E+02  0.14331670733E+03  0.82016228564E+02 0.  0.
         23    2    1    2    0    0 -0.99022451325E+02  0.42466274383E+02  0.31340183684E+02  0.14475514635E+03  0.91449521358E+02 0.  0.
        -11    1    4    4    0    0 -0.35369168564E+02 -0.18219894002E+02  0.39957782988E+02  0.56387649744E+02  0.00000000000E+00 0.  1.
         11    1    4    4    0    0 -0.63653282760E+02  0.60686168385E+02 -0.86175993039E+01  0.88367496611E+02  0.00000000000E+00 0. -1.
        -13    1    3    3    0    0  0.58315291498E+01 -0.30369613047E+02 -0.14586623291E+02  0.34191953847E+02  0.00000000000E+00 0.  1.
         13    1    3    3    0    0  0.98445708821E+02  0.25728812090E+02 -0.39429461896E+02  0.10912475348E+03  0.00000000000E+00 0. -1.
         21    1    1    2  502  501 -0.52547866460E+01 -0.37825473426E+02  0.13498391526E+02  0.40504145422E+02  0.00000000000E+00 0.  1.
<scales pt_clust_5="13000.00000" pt_clust_6="13000.00000" pt_clust_7="13000.00000" pt_clust_8="13000.00000" pt_clust_9="38.18873"></scales>
<clustering>
<clus scale="   38.189">  1  9  2 -1</clus>
<clus scale="   82.016">  7  8 -1 -1</clus>
<clus scale="   91.450">  5  6 -1 -1</clus>
<clus scale="  132.425">  2  7  1 -1</clus>
<clus scale="   38.189">  1  5  2 -1</clus>
</clustering>
</event>
<event>
 9    1  0.1234700E-005  0.1399260E+03  0.7546771E-02  0.1213957E+00
          2   -1    0    0  502    0  0.00000000000E+00  0.00000000000E+00  0.14613415251E+03  0.14613415251E+03  0.00000000000E+00 0. -1.
         -2   -1    0    0    0  501 -0.00000000000E+00 -0.00000000000E+00 -0.24886804640E+03  0.24886804640E+03  0.00000000000E+00 0.  1.
         23    2    1    2    0    0 -0.10823524907E+03 -0.72765340078E+02 -0.13312144409E+03  0.20726517048E+03  0.90707597031E+02 0.  0.
         23    2    1    2    0    0  0.38955261706E+02  0.44357213441E+02  0.22037709005E+02  0.11239475506E+03  0.93069036461E+02 0.  0.
        -13    1    3    3    0    0 -0.11709738838E+03 -0.45059242179E+02 -0.86794687944E+02  0.15256294284E+03  0.00000000000E+00 0.  1.
         13    1    3    3    0    0  0.88621393111E+01 -0.27706097899E+02 -0.46326756150E+02  0.54702227645E+02  0.00000000000E+00 0. -1.
        -13    1    4    4    0    0  0.13352588972E+02  0.44227604772E+02 -0.29523283375E+02  0.54826972535E+02  0.00000000000E+00 0.  1.
         13    1    4    4    0    0  0.25602672734E+02  0.12960866961E+00  0.51560992380E+02  0.57567782524E+02  0.00000000000E+00 0. -1.
         21    1    1    2  502  501  0.69279987367E+02  0.28408126636E+02  0.83498411954E+01  0.75342273370E+02  0.00000000000E+00 0.  1.
<scales pt_clust_5="13000.00000" pt_clust_6="13000.00000" pt_clust_7="13000.00000" pt_clust_8="13000.00000" pt_clust_9="74.87816"></scales>
<clustering>
<clus scale="   74.878">  1  9  2 -1</clus>
<clus scale="   90.708">  5  6 -1 -1</clus>
<clus scale="   93.069">  7  8 -1 -1</clus>
<clus scale="  138.367">  2  5  1 -1</clus>
<clus scale="   74.878">  1  5  2 -1</clus>
</clustering>
</event>
<event>
 9    1  0.1234700E-005  0.1032002E+03  0.7546771E-02  0.1276861E+00
          1   -1    0    0  502    0  0.00000000000E+00  0.00000000000E+00  0.37770173642E+03  0.37770173642E+03  0.00000000000E+00 0. -1.
         -1   -1    0    0    0  501 -0.00000000000E+00 -0.00000000000E+00 -0.58209078611E+02  0.58209078611E+02  0.00000000000E+00 0.  1.
         23    2    1    2    0    0 -0.20548443908E+02 -0.19474335067E+02  0.12343144280E+02  0.10422212244E+03  0.99540993169E+02 0.  0.
         23    2    1    2    0    0  0.29739235508E+02  0.90474680834E-01  0.20312640342E+03  0.22547658344E+03  0.93246574201E+02 0.  0.
        -11    1    4    4    0    0  0.44105453192E+02 -0.32742885994E+02  0.78577505694E+02  0.95873937989E+02  0.00000000000E+00 0.  1.
         11    1    4    4    0    0 -0.14366217683E+02  0.32833360675E+02  0.12454889773E+03  0.12960264545E+03  0.00000000000E+00 0. -1.
        -13    1    3    3    0    0 -0.53122041520E+02 -0.31217204842E+02  0.26163557950E+02  0.66940249013E+02  0.00000000000E+00 0. -1.
         13    1    3    3    0    0  0.32573597611E+02  0.11742869775E+02 -0.13820413671E+02  0.37281873423E+02  0.00000000000E+00 0.  1.
         21    1    1    2  502  501 -0.91907916000E+01  0.19383860386E+02  0.10402311011E+03  0.10621210915E+03  0.00000000000E+00 0. -1.
<scales pt_clust_5="13000.00000" pt_clust_6="13000.00000" pt_clust_7="13000.00000" pt_clust_8="13000.00000" pt_clust_9="21.45238"></scales>
<clustering>
<clus scale="   21.452">  1  9  2 -1</clus>
<clus scale="   93.247">  5  6 -1 -1</clus>
<clus scale="   97.143">  1  5  2 -1</clus>
<clus scale="   99.541">  7  8 -1 -1</clus>
<clus scale="   21.452">  1  5  2 -1</clus>
</clustering>
</event>
<event>
 9    1  0.1234700E-005  0.9074891E+02  0.7546771E-02  0.1307511E+00
          1   -1    0    0  502    0  0.00000000000E+00  0.00000000000E+00  0.14930265075E+03  0.14930265075E+03  0.00000000000E+00 0. -1.
         -1   -1    0    0    0  501 -0.00000000000E+00 -0.00000000000E+00 -0.99642648272E+02  0.99642648272E+02  0.00000000000E+00 0.  1.
         23    2    1    2    0    0 -0.71504066898E+00 -0.93941269009E+01 -0.42033366744E+02  0.91117174098E+02  0.80291808999E+02 0.  0.
         23    2    1    2    0    0  0.20458846037E+02 -0.98640756252E+01  0.44897815103E+02  0.10350943477E+03  0.90457309910E+02 0.  0.
        -11    1    3    3    0    0  0.16683351459E+02 -0.41197862930E+02 -0.25841211051E+02  0.51413678282E+02  0.00000000000E+00 0.  1.
         11    1    3    3    0    0 -0.17398392128E+02  0.31803736029E+02 -0.16192155693E+02  0.39703495816E+02  0.00000000000E+00 0. -1.
        -13    1    4    4    0    0  0.17935037961E+02 -0.49908417386E+02  0.23084268629E+02  0.57839425748E+02  0.00000000000E+00 0.  1.
         13    1    4    4    0    0  0.25238080761E+01  0.40044341761E+02  0.21813546474E+02  0.45670009022E+02  0.00000000000E+00 0. -1.
         21    1    1    2  502  501 -0.19743805368E+02  0.19258202526E+02  0.46795554123E+02  0.54318690159E+02  0.00000000000E+00 0. -1.
<scales pt_clust_5="13000.00000" pt_clust_6="13000.00000" pt_clust_7="13000.00000" pt_clust_8="13000.00000" pt_clust_9="27.58072"></scales>
<clustering>
<clus scale="   27.581">  1  9  2 -1</clus>
<clus scale="   80.292">  5  6 -1 -1</clus>
<clus scale="   80.620">  2  5  1 -1</clus>
<clus scale="   90.457">  7  8 -1 -1</clus>
<clus scale="   27.581">  1  5  2 -1</clus>
</clustering>
</event>
<event>
 9    1  0.1234700E-005  0.1833908E+03  0.7546771E-02  0.1185052E+00
          2   -1    0    0  502    0  0.00000000000E+00  0.00000000000E+00  0.34955292599E+03  0.34955292599E+03  0.00000000000E+00 0. -1.
         -2   -1    0    0    0  501 -0.00000000000E+00 -0.00000000000E+00 -0.37528563425E+03  0.37528563425E+03  0.00000000000E+00 0.  1.
         23    2    1    2    0    0  0.15753165138E+03 -0.30374442315E+02 -0.29098677630E+03  0.34501566047E+03  0.92863739175E+02 0.  0.
         23    2    1    2    0    0 -0.85298718036E+01  0.68896730197E+02  0.87319255583E+02  0.14456496799E+03  0.91950309572E+02 0.  0.
        -11    1    3    3    0    0  0.13493044219E+03 -0.36598316355E+02 -0.16230581298E+03  0.21421680120E+03  0.00000000000E+00 0.  1.
         11    1    3    3    0    0  0.22601209193E+02  0.62238740401E+01 -0.12868096332E+03  0.13079885927E+03  0.00000000000E+00 0. -1.
        -11    1    4    4    0    0 -0.22132899114E+02  0.12798439756E+02  0.82807892066E+02  0.86664942577E+02  0.00000000000E+00 0. -1.
         11    1    4    4    0    0  0.13603027311E+02  0.56098290441E+02  0.45113635166E+01  0.57900025416E+02  0.00000000000E+00 0.  1.
         21    1    1    2  502  501 -0.14900177958E+03 -0.38522287882E+02  0.17793481246E+03  0.23525793178E+03  0.00000000000E+00 0. -1.
<scales pt_clust_5="13000.00000" pt_clust_6="13000.00000" pt_clust_7="13000.00000" pt_clust_8="13000.00000" pt_clust_9="158.14079"></scales>
<clustering>
<clus scale="   91.950">  7  8 -1 -1</clus>
<clus scale="   92.864">  5  6 -1 -1</clus>
<clus scale="  115.214">  1  7  2 -1</clus>
<clus scale="  158.141">  1  9  2 -1</clus>
<clus scale="  115.214">  1  5  2 -1</clus>
</clustering>
</event>
<event>
 9    1  0.1234700E-005  0.1735524E+03  0.7546771E-02  0.1174473E+00
         -1   -1    0    0    0  501 -0.00000000000E+00  0.00000000000E+00  0.44945376857E+03  0.44945376857E+03  0.00000000000E+00 0.  1.
          1   -1    0    0  502    0  0.00000000000E+00 -0.00000000000E+00 -0.90107220448E+02  0.90107220448E+02  0.00000000000E+00 0. -1.
         23    2    1    2    0    0 -0.11534469796E+03 -0.10914668710E+03  0.25709782389E+03  0.31575550837E+03  0.91568834014E+02 0.  0.
         23    2    1    2    0    0  0.10594795563E+03  0.68626915552E+02  0.75522800154E+02  0.17436434726E+03  0.93619492697E+02 0.  0.
        -13    1    4    4    0    0  0.89678188500E+02  0.86247012134E+02  0.82618694560E+02  0.14935385260E+03  0.00000000000E+00 0.  1.
         13    1    4    4    0    0  0.16269767133E+02 -0.17620096582E+02 -0.70958944061E+01  0.25010494668E+02  0.00000000000E+00 0. -1.
        -13    1    3    3    0    0 -0.82593842423E+02 -0.42531258334E+02  0.20499653230E+03  0.22506494396E+03  0.00000000000E+00 0. -1.
         13    1    3    3    0    0 -0.32750855540E+02 -0.66615428765E+02  0.52101291584E+02  0.90690564409E+02  0.00000000000E+00 0.  1.
         21    1    1    2  502  501  0.93967423300E+01  0.40519771547E+02  0.26725924079E+02  0.49441133386E+02  0.00000000000E+00 0.  1.
<scales pt_clust_5="13000.00000" pt_clust_6="13000.00000" pt_clust_7="13000.00000" pt_clust_8="13000.00000" pt_clust_9="41.59508"></scales>
<clustering>
<clus scale="   41.595">  2  9  1 -1</clus>
<clus scale="   91.569">  7  8 -1 -1</clus>
<clus scale="   93.619">  5  6 -1 -1</clus>
<clus scale="  172.455">  1  7  2 -1</clus>
<clus scale="   41.595">  2  5  1 -1</clus>
</clustering>
</event>
<event>
 9    1  0.1234700E-005  0.1480192E+03  0.7546771E-02  0.1203438E+00
          2   -1    0    0  502    0  0.00000000000E+00  0.00000000000E+00  0.56484238504E+03  0.56484238504E+03  0.00000000000E+00 0. -1.
         -2   -1    0    0    0  501 -0.00000000000E+00 -0.00000000000E+00 -0.80017212509E+02  0.80017212509E+02  0.00000000000E+00 0.  1.
         23    2    1    2    0    0  0.97448594517E+01  0.13373468685E+03  0.82609675339E+02  0.18198944166E+03  0.91191390291E+02 0.  0.
         23    2    1    2    0    0 -0.60496823627E+02 -0.82911893096E+02  0.15732430529E+03  0.20766354527E+03  0.88537920202E+02 0.  0.
        -13    1    4    4    0    0 -0.38341630708E+02  0.92816366232E+01  0.59829739386E+02  0.71664685437E+02  0.00000000000E+00 0. -1.
         13    1    4    4    0    0 -0.22155192919E+02 -0.92193529719E+02  0.97494565906E+02  0.13599885984E+03  0.00000000000E+00 0.  1.
        -13    1    3    3    0    0  0.38550616286E+02  0.61571927431E+02  0.60298770353E+01  0.72894524353E+02  0.00000000000E+00 0.  1.
         13    1    3    3    0    0 -0.28805756834E+02  0.72162759419E+02  0.76579798303E+02  0.10909491731E+03  0.00000000000E+00 0. -1.
         21    1    1    2  502  501  0.50751964175E+02 -0.50822793754E+02  0.24489119190E+03  0.25520661062E+03  0.00000000000E+00 0. -1.
<scales pt_clust_5="13000.00000" pt_clust_6="13000.00000" pt_clust_7="13000.00000" pt_clust_8="13000.00000" pt_clust_9="71.82422"></scales>
<clustering>
<clus scale="   71.824">  1  9  2 -1</clus>
<clus scale="   88.538">  5  6 -1 -1</clus>
<clus scale="   91.191">  7  8 -1 -1</clus>
<clus scale="  146.399">  1  5  2 -1</clus>
<clus scale="   71.824">  1  5  2 -1</clus>
</clustering>
</event>
<event>
 9    1  0.1234700E-005  0.1067331E+03  0.7546771E-02  0.1266770E+00
          1   -1    0    0  502    0  0.00000000000E+00  0.00000000000E+00  0.15500040716E+03  0.15500040716E+03  0.00000000000E+00 0. -1.
         -1   -1    0    0    0  501 -0.00000000000E+00 -0.00000000000E+00 -0.13169976953E+03  0.13169976953E+03  0.00000000000E+00 0.  1.
         23    2    1    2    0    0 -0.40622410778E+02  0.15026260135E+02 -0.45500494542E+02  0.11186767927E+03  0.92564107035E+02 0.  0.
         23    2    1    2    0    0  0.71079966054E+02 -0.23047662323E+02  0.26217354773E+02  0.12186662479E+03  0.92631356640E+02 0.  0.
        -11    1    4    4    0    0  0.92596597421E+02 -0.97685168770E+01  0.25637625686E+02  0.96575574690E+02  0.00000000000E+00 0. -1.
         11    1    4    4    0    0 -0.21516631368E+02 -0.13279145446E+02  0.57972908702E+00  0.25291050097E+02  0.00000000000E+00 0.  1.
        -13    1    3    3    0    0 -0.34354382072E+02  0.49580365580E+02 -0.47375137005E+02  0.76699672912E+02  0.00000000000E+00 0.  1.
         13    1    3    3    0    0 -0.62680287058E+01 -0.34554105445E+02  0.18746424631E+01  0.35168006360E+02  0.00000000000E+00 0. -1.
         21    1    1    2  502  501 -0.30457555276E+02  0.80214021878E+01  0.42583777400E+02  0.52965872636E+02  0.00000000000E+00 0.  1.
<scales pt_clust_5="13000.00000" pt_clust_6="13000.00000" pt_clust_7="13000.00000" pt_clust_8="13000.00000" pt_clust_9="31.49612"></scales>
<clustering>
<clus scale="   31.496">  1  9  2 -1</clus>
<clus scale="   92.564">  7  8 -1 -1</clus>
<clus scale="   92.631">  5  6 -1 -1</clus>
<clus scale="  106.675">  2  7  1 -1</clus>
<clus scale="   31.496">  1  5  2 -1</clus>
</clustering>
</event>
<event>
 9    1  0.1234700E-005  0.1621653E+03  0.7546771E-02  0.1186601E+00
         -2   -1    0    0    0  501 -0.00000000000E+00  0.00000000000E+00  0.13123795077E+03  0.13123795077E+03  0.00000000000E+00 0.  1.
          2   -1    0    0  502    0  0.00000000000E+00 -0.00000000000E+00 -0.33606107247E+03  0.33606107247E+03  0.00000000000E+00 0. -1.
         23    2    1    2    0    0  0.10584166374E+03 -0.85813702994E+02  0.15492542193E+02  0.16381016286E+03  0.89595207398E+02 0.  0.
         23    2    1    2    0    0 -0.74542220244E+02  0.11483120921E+03 -0.19524371556E+03  0.25398862377E+03  0.87449204298E+02 0.  0.
        -11    1    4    4    0    0  0.18044703519E+02  0.14031483894E+02 -0.46755289333E+02  0.52043740699E+02  0.00000000000E+00 0. -1.
         11    1    4    4    0    0 -0.92586923763E+02  0.10079972532E+03 -0.14848842623E+03  0.20194488307E+03  0.00000000000E+00 0.  1.
        -13    1    3    3    0    0  0.66498124743E+02 -0.82178504693E+02  0.44598447183E+02  0.11473590859E+03  0.00000000000E+00 0. -1.
         13    1    3    3    0    0  0.39343538999E+02 -0.36351983011E+01 -0.29105904990E+02  0.49074254278E+02  0.00000000000E+00 0.  1.
         21    1    1    2  502  501 -0.31299443499E+02 -0.29017506218E+02 -0.25071948330E+02  0.49500236600E+02  0.00000000000E+00 0.  1.
<scales pt_clust_5="13000.00000" pt_clust_6="13000.00000" pt_clust_7="13000.00000" pt_clust_8="13000.00000" pt_clust_9="42.68104"></scales>
<clustering>
<clus scale="   42.681">  2  9  1 -1</clus>
<clus scale="   87.449">  5  6 -1 -1</clus>
<clus scale="   89.595">  7  8 -1 -1</clus>
<clus scale="  160.990">  2  5  1 -1</clus>
<clus scale="   42.681">  2  5  1 -1</clus>
</clustering>
</event>
<event>
 9    1  0.1234700E-005  0.9986837E+02  0.7546771E-02  0.1281155E+00
          1   -1    0    0  502    0  0.00000000000E+00  0.00000000000E+00  0.48232420883E+02  0.48232420883E+02  0.00000000000E+00 0. -1.
         -1   -1    0    0    0  501 -0.00000000000E+00 -0.00000000000E+00 -0.32645235528E+03  0.32645235528E+03  0.00000000000E+00 0.  1.
         23    2    1    2    0    0 -0.34131341436E+02 -0.15319136407E+02 -0.19956939391E+03  0.22163202953E+03  0.88843621722E+02 0.  0.
         23    2    1    2    0    0  0.57453196814E+02  0.14577765085E+02 -0.67367167608E+02  0.12713416115E+03  0.90063192269E+02 0.  0.
        -11    1    4    4    0    0  0.92497582753E+01 -0.35010973571E+02 -0.36453750465E+02  0.51382898142E+02  0.00000000000E+00 0.  1.
         11    1    4    4    0    0  0.48203438539E+02  0.49588738656E+02 -0.30913417143E+02  0.75751263012E+02  0.00000000000E+00 0. -1.
        -13    1    3    3    0    0 -0.60621991355E+02  0.70092481557E+01 -0.11381204769E+03  0.12914076659E+03  0.00000000000E+00 0.  1.
         13    1    3    3    0    0  0.26490649919E+02 -0.22328384563E+02 -0.85757346223E+02  0.92491262947E+02  0.00000000000E+00 0. -1.
         21    1    1    2  502  501 -0.23321855378E+02  0.74137132230E+00 -0.11283372882E+02  0.25918585480E+02  0.00000000000E+00 0. -1.
<scales pt_clust_5="13000.00000" pt_clust_6="13000.00000" pt_clust_7="13000.00000" pt_clust_8="13000.00000" pt_clust_9="23.33364"></scales>
<clustering>
<clus scale="   23.334">  1  9  2 -1</clus>
<clus scale="   88.844">  7  8 -1 -1</clus>
<clus scale="   90.063">  5  6 -1 -1</clus>
<clus scale="   98.770">  2  7  1 -1</clus>
<clus scale="   23.334">  1  5  2 -1</clus>
</clustering>
</event>
<event>
 9    1  0.1234700E-005  0.1233664E+03  0.7546771E-02  0.1239044E+00
         -1   -1    0    0    0  501 -0.00000000000E+00  0.00000000000E+00  0.27048767897E+02  0.27048767897E+02  0.00000000000E+00 0.  1.
          1   -1    0    0  502    0  0.00000000000E+00 -0.00000000000E+00 -0.90119051236E+03  0.90119051236E+03  0.00000000000E+00 0. -1.
         23    2    1    2    0    0 -0.47928957177E+02  0.29235697306E+02 -0.19482806789E+03  0.22259774994E+03  0.91868772202E+02 0.  0.
         23    2    1    2    0    0  0.97608282983E+02 -0.13702323304E+02 -0.56368733938E+03  0.57883943659E+03  0.87158167782E+02 0.  0.
        -11    1    3    3    0    0  0.27072199427E+02  0.14034791569E+02 -0.45016472163E+02  0.54372438994E+02  0.00000000000E+00 0.  1.
         11    1    3    3    0    0 -0.75001156604E+02  0.15200905737E+02 -0.14981159573E+03  0.16822531094E+03  0.00000000000E+00 0. -1.
        -13    1    4    4    0    0  0.61490382037E+02  0.30411987935E+02 -0.21975167395E+03  0.23021023934E+03  0.00000000000E+00 0.  1.
         13    1    4    4    0    0  0.36117900946E+02 -0.44114311239E+02 -0.34393566542E+03  0.34862919725E+03  0.00000000000E+00 0. -1.
         21    1    1    2  502  501 -0.49679325806E+02 -0.15533374002E+02 -0.11562633720E+03  0.12680209373E+03  0.00000000000E+00 0. -1.
<scales pt_clust_5="13000.00000" pt_clust_6="13000.00000" pt_clust_7="13000.00000" pt_clust_8="13000.00000" pt_clust_9="52.05114"></scales>
<clustering>
<clus scale="   52.051">  1  9  2 -1</clus>
<clus scale="   87.158">  7  8 -1 -1</clus>
<clus scale="   91.869">  5  6 -1 -1</clus>
<clus scale="  119.900">  2  7  1 -1</clus>
<clus scale="  119.900">  2  5  1 -1</clus>
</clustering>
</event>
<event>
 9    1  0.1234700E-005  0.1067704E+03  0.7546771E-02  0.1267866E+00
          1   -1    0    0  502    0  0.00000000000E+00  0.00000000000E+00  0.21898888096E+03  0.21898888096E+03  0.00000000000E+00 0. -1.
         -1   -1    0    0    0  501 -0.00000000000E+00 -0.00000000000E+00 -0.92089627984E+02  0.92089627984E+02  0.00000000000E+00 0.  1.
         23    2    1    2    0    0 -0.25306126368E+02 -0.23305069316E+01  0.46285284278E+01  0.98781684630E+02  0.95344463125E+02 0.  0.
         23    2    1    2    0    0  0.40485013119E+02 -0.51235671336E+02  0.10373647228E+03  0.15361758979E+03  0.92590376974E+02 0.  0.
        -13    1    3    3    0    0 -0.54211578502E+02  0.22846181134E+02 -0.56367324217E+01  0.59098358594E+02  0.00000000000E+00 0.  1.
         13    1    3    3    0    0  0.28905452134E+02 -0.25176688065E+02  0.10265260850E+02  0.39683326036E+02  0.00000000000E+00 0. -1.
        -13    1    4    4    0    0  0.23206176182E+01  0.25432399996E+02  0.37408203759E+02  0.45294215350E+02  0.00000000000E+00 0. -1.
         13    1    4    4    0    0  0.38164395500E+02 -0.76668071332E+02  0.66328268516E+02  0.10832337444E+03  0.00000000000E+00 0.  1.
         21    1    1    2  502  501 -0.15178886750E+02  0.53566178267E+02  0.18534252272E+02  0.58679234525E+02  0.00000000000E+00 0. -1.
<scales pt_clust_5="13000.00000" pt_clust_6="13000.00000" pt_clust_7="13000.00000" pt_clust_8="13000.00000" pt_clust_9="55.67526"></scales>
<clustering>
<clus scale="   55.675">  2  9  1 -1</clus>
<clus scale="   92.590">  7  8 -1 -1</clus>
<clus scale="   95.344">  5  6 -1 -1</clus>
<clus scale="  104.318">  1  7  2 -1</clus>
<clus scale="  104.318">  1  5  2 -1</clus>
</clustering>
</event>
<event>
 9    1  0.1234700E-005  0.2129757E+03  0.7546771E-02  0.1139263E+00
          1   -1    0    0  502    0  0.00000000000E+00  0.00000000000E+00  0.83758070738E+03  0.83758070738E+03  0.00000000000E+00 0. -1.
         -1   -1    0    0    0  501 -0.00000000000E+00 -0.00000000000E+00 -0.99290931782E+02  0.99290931782E+02  0.00000000000E+00 0.  1.
         23    2    1    2    0    0  0.18505575713E+03 -0.15608290966E+02  0.84849432560E+02  0.22324994736E+03  0.90287655838E+02 0.  0.
         23    2    1    2    0    0 -0.21369457716E+03  0.91681618407E+01  0.43437123933E+03  0.49259470368E+03  0.90673816740E+02 0.  0.
        -11    1    3    3    0    0  0.59559501990E+02  0.16945597215E+01 -0.15580643437E+02  0.61587029964E+02  0.00000000000E+00 0.  1.
         11    1    3    3    0    0  0.12549625514E+03 -0.17302850688E+02  0.10043007600E+03  0.16166291739E+03  0.00000000000E+00 0. -1.
        -13    1    4    4    0    0 -0.10794576484E+03 -0.40631516118E+02  0.22256902326E+03  0.25067943347E+03  0.00000000000E+00 0.  1.
         13    1    4    4    0    0 -0.10574881232E+03  0.49799677959E+02  0.21180221607E+03  0.24191527022E+03  0.00000000000E+00 0. -1.
         21    1    1    2  502  501  0.28638820034E+02  0.64401291254E+01  0.21906910371E+03  0.22102698812E+03  0.00000000000E+00 0. -1.
<scales pt_clust_5="13000.00000" pt_clust_6="13000.00000" pt_clust_7="13000.00000" pt_clust_8="13000.00000" pt_clust_9="29.35400"></scales>
<clustering>
<clus scale="   29.354">  1  9  2 -1</clus>
<clus scale="   90.288">  5  6 -1 -1</clus>
<clus scale="   90.674">  7  8 -1 -1</clus>
<clus scale="  212.812">  2  5  1 -1</clus>
<clus scale="   29.354">  1  5  2 -1</clus>
</clustering>
</event>
<event>
 9    1  0.1234700E-005  0.1428328E+03  0.7546771E-02  0.1209832E+00
          2   -1    0    0  502    0  0.00000000000E+00  0.00000000000E+00  0.81937826347E+02  0.81937826347E+02  0.00000000000E+00 0. -1.
         -2   -1    0    0    0  501 -0.00000000000E+00 -0.00000000000E+00 -0.35571126375E+03  0.35571126375E+03  0.00000000000E+00 0.  1.
         23    2    1    2    0    0  0.10917654732E+03  0.60826011764E+01 -0.20000687140E+03  0.24577078728E+03  0.91891320335E+02 0.  0.
         23    2    1    2    0    0 -0.10728265733E+03 -0.27042300939E+02 -0.86630533036E+02  0.16721299354E+03  0.90633776000E+02 0.  0.
        -13    1    3    3    0    0  0.40609939853E+02  0.39181186169E+02 -0.41893651298E+02  0.70280940400E+02  0.00000000000E+00 0.  1.
         13    1    3    3    0    0  0.68566607468E+02 -0.33098584992E+02 -0.15811322010E+03  0.17548984688E+03  0.00000000000E+00 0. -1.
        -13    1    4    4    0    0  0.21623140021E+01  0.22689185344E+02 -0.12895368785E+02  0.26187120298E+02  0.00000000000E+00 0. -1.
         13    1    4    4    0    0 -0.10944497133E+03 -0.49731486283E+02 -0.73735164251E+02  0.14102587325E+03  0.00000000000E+00 0.  1.
         21    1    1    2  502  501 -0.18938899918E+01  0.20959699763E+02  0.12863967034E+02  0.24665309269E+02  0.00000000000E+00 0. -1.
<scales pt_clust_5="13000.00000" pt_clust_6="13000.00000" pt_clust_7="13000.00000" pt_clust_8="13000.00000" pt_clust_9="21.04509"></scales>
<clustering>
<clus scale="   21.045">  1  9  2 -1</clus>
<clus scale="   90.634">  7  8 -1 -1</clus>
<clus scale="   91.891">  5  6 -1 -1</clus>
<clus scale="  142.027">  1  7  2 -1</clus>
<clus scale="   21.045">  1  5  2 -1</clus>
</clustering>
</event>
<event>
 9    1  0.1234700E-005  0.1149764E+03  0.7546771E-02  0.1252111E+00
         -1   -1    0    0    0  501 -0.00000000000E+00  0.00000000000E+00  0.11117882744E+03  0.11117882744E+03  0.00000000000E+00 0.  1.
          1   -1    0    0  502    0  0.00000000000E+00 -0.00000000000E+00 -0.36097619012E+03  0.36097619012E+03  0.00000000000E+00 0. -1.
         23    2    1    2    0    0 -0.25824444627E+02  0.61336706600E+02  0.47224694275E+02  0.12215360911E+03  0.90896858871E+02 0.  0.
         23    2    1    2    0    0  0.70470009335E+02 -0.74684633434E+02 -0.24376996010E+03  0.27923998239E+03  0.89483840061E+02 0.  0.
        -11    1    3    3    0    0 -0.45728163491E+02  0.71755012425E+02  0.51250760602E+02  0.99330192825E+02  0.00000000000E+00 0.  1.
         11    1    3    3    0    0  0.19903718864E+02 -0.10418305826E+02 -0.40260663267E+01  0.22823416286E+02  0.00000000000E+00 0. -1.
        -11    1    4    4    0    0  0.73496328692E+02 -0.13244487392E+02 -0.13216925451E+03  0.15180855910E+03  0.00000000000E+00 0. -1.
         11    1    4    4    0    0 -0.30263193575E+01 -0.61440146042E+02 -0.11160070559E+03  0.12743142329E+03  0.00000000000E+00 0.  1.
         21    1    1    2  502  501 -0.44645564708E+02  0.13347926835E+02 -0.53252096857E+02  0.70761426063E+02  0.00000000000E+00 0. -1.
<scales pt_clust_5="13000.00000" pt_clust_6="13000.00000" pt_clust_7="13000.00000" pt_clust_8="13000.00000" pt_clust_9="46.59821"></scales>
<clustering>
<clus scale="   46.598">  2  9  1 -1</clus>
<clus scale="   89.484">  7  8 -1 -1</clus>
<clus scale="   90.897">  5  6 -1 -1</clus>
<clus scale="  113.863">  2  7  1 -1</clus>
<clus scale="   46.598">  2  5  1 -1</clus>
</clustering>
</event>
<event>
 9    1  0.1234700E-005  0.1135488E+03  0.7546771E-02  0.1254420E+00
          1   -1    0    0  502    0  0.00000000000E+00  0.00000000000E+00  0.13221589495E+03  0.13221589495E+03  0.00000000000E+00 0. -1.
         -1   -1    0    0    0  501 -0.00000000000E+00 -0.00000000000E+00 -0.16435985027E+03  0.16435985027E+03  0.00000000000E+00 0.  1.
         23    2    1    2    0    0  0.60257837360E+02  0.16912045389E+02 -0.83429465831E+02  0.13867291893E+03  0.91392988973E+02 0.  0.
         23    2    1    2    0    0 -0.69879696104E+02 -0.39934245939E+02  0.51944823152E+02  0.13294212564E+03  0.92181495919E+02 0.  0.
        -11    1    4    4    0    0  0.25996463865E+01 -0.45287078806E+02  0.37474351976E+02  0.58838802878E+02  0.00000000000E+00 0.  1.
         11    1    4    4    0    0 -0.72479342491E+02  0.53528328674E+01  0.14470471176E+02  0.74103322757E+02  0.00000000000E+00 0. -1.
        -13    1    3    3    0    0  0.49691616499E+02 -0.93600191656E+00  0.29987169070E+01  0.49790813942E+02  0.00000000000E+00 0. -1.
         13    1    3    3    0    0  0.10566220861E+02  0.17848047305E+02 -0.86428182738E+02  0.88882104989E+02  0.00000000000E+00 0.  1.
         21    1    1    2  502  501  0.96218587443E+01  0.23022200550E+02 -0.65931264623E+00  0.24960700652E+02  0.00000000000E+00 0. -1.
<scales pt_clust_5="13000.00000" pt_clust_6="13000.00000" pt_clust_7="13000.00000" pt_clust_8="13000.00000" pt_clust_9="24.95199"></scales>
<clustering>
<clus scale="   24.952">  1  9  2 -1</clus>
<clus scale="   91.393">  7  8 -1 -1</clus>
<clus scale="   92.181">  5  6 -1 -1</clus>
<clus scale="  112.910">  2  7  1 -1</clus>
<clus scale="   24.952">  1  5  2 -1</clus>
</clustering>
</event>
<event>
 9    1  0.1234700E-005  0.1045119E+03  0.7546771E-02  0.1272184E+00
         -2   -1    0    0    0  501 -0.00000000000E+00  0.00000000000E+00  0.22910219427E+02  0.22910219427E+02  0.00000000000E+00 0.  1.
          2   -1    0    0  502    0  0.00000000000E+00 -0.00000000000E+00 -0.68111832128E+03  0.68111832128E+03  0.00000000000E+00 0. -1.
         23    2    1    2    0    0  0.35267060565E+02 -0.41163691633E+02 -0.19741126778E+03  0.22410302320E+03  0.91174235901E+02 0.  0.
         23    2    1    2    0    0 -0.37441814626E+02  0.10954801995E+02 -0.31187665397E+03  0.32795668317E+03  0.93630345364E+02 0.  0.
        -11    1    4    4    0    0  0.31294801160E+02  0.66681667931E+01 -0.83466764579E+02  0.89389763493E+02  0.00000000000E+00 0.  1.
         11    1    4    4    0    0 -0.68736615786E+02  0.42866352022E+01 -0.22840988939E+03  0.23856691967E+03  0.00000000000E+00 0. -1.
        -11    1    3    3    0    0  0.23803936920E+02  0.26812130868E+02 -0.84787500309E+02  0.92056710691E+02  0.00000000000E+00 0.  1.
         11    1    3    3    0    0  0.11463123645E+02 -0.67975822501E+02 -0.11262376747E+03  0.13204631251E+03  0.00000000000E+00 0. -1.
         21    1    1    2  502  501  0.21747540616E+01  0.30208889637E+02 -0.14892018011E+03  0.15196883434E+03  0.00000000000E+00 0.  1.
<scales pt_clust_5="13000.00000" pt_clust_6="13000.00000" pt_clust_7="13000.00000" pt_clust_8="13000.00000" pt_clust_9="30.28707"></scales>
<clustering>
<clus scale="   30.287">  2  9  1 -1</clus>
<clus scale="   91.174">  7  8 -1 -1</clus>
<clus scale="   93.630">  5  6 -1 -1</clus>
<clus scale="  102.317">  1  7  2 -1</clus>
<clus scale="   30.287">  2  5  1 -1</clus>
</clustering>
</event>
<event>
 9    1  0.1234700E-005  0.2093537E+03  0.7546771E-02  0.1142560E+00
         -3   -1    0    0    0  501 -0.00000000000E+00  0.00000000000E+00  0.53663465857E+03  0.53663465857E+03  0.00000000000E+00 0.  1.
          3   -1    0    0  502    0  0.00000000000E+00 -0.00000000000E+00 -0.97284707881E+02  0.97284707881E+02  0.00000000000E+00 0. -1.
         23    2    1    2    0    0 -0.10972762475E+03 -0.14969018829E+03  0.28296545131E+03  0.35068484808E+03  0.91995173435E+02 0.  0.
         23    2    1    2    0    0  0.13103814232E+03  0.14138510889E+03  0.15121327037E+03  0.25978555012E+03  0.86384808612E+02 0.  0.
        -11    1    3    3    0    0 -0.60839195051E+02 -0.10902128151E+03  0.24910280444E+03  0.27863821464E+03  0.00000000000E+00 0.  1.
         11    1    3    3    0    0 -0.48888429703E+02 -0.40668906776E+02  0.33862646863E+02  0.72046633438E+02  0.00000000000E+00 0. -1.
        -11    1    4    4    0    0  0.11456116017E+02  0.28172374852E+02 -0.72361410772E+01  0.31261590438E+02  0.00000000000E+00 0.  1.
         11    1    4    4    0    0  0.11958202630E+03  0.11321273403E+03  0.15844941144E+03  0.22852395968E+03  0.00000000000E+00 0. -1.
         21    1    1    2  502  501 -0.21310517561E+02  0.83050794033E+01  0.51712290173E+01  0.23448968254E+02  0.00000000000E+00 0.  1.
<scales pt_clust_5="13000.00000" pt_clust_6="13000.00000" pt_clust_7="13000.00000" pt_clust_8="13000.00000" pt_clust_9="22.87165"></scales>
<clustering>
<clus scale="   22.872">  2  9  1 -1</clus>
<clus scale="   86.385">  7  8 -1 -1</clus>
<clus scale="   91.995">  5  6 -1 -1</clus>
<clus scale="  206.950">  2  7  1 -1</clus>
<clus scale="   22.872">  2  5  1 -1</clus>
</clustering>
</event>
<event>
 9    1  0.1234700E-005  0.1046749E+03  0.7546771E-02  0.1275760E+00
          2   -1    0    0  502    0  0.00000000000E+00  0.00000000000E+00  0.26663804968E+03  0.26663804968E+03  0.00000000000E+00 0. -1.
         -2   -1    0    0    0  501 -0.00000000000E+00 -0.00000000000E+00 -0.49783100774E+02  0.49783100774E+02  0.00000000000E+00 0.  1.
         23    2    1    2    0    0 -0.32731744778E+00  0.14244402934E+02  0.50979912411E+02  0.10525485228E+03  0.90975943563E+02 0.  0.
         23    2    1    2    0    0  0.62945810910E+01 -0.35825234708E+02  0.14620099142E+03  0.18136011450E+03  0.10096381554E+03 0.  0.
        -11    1    4    4    0    0  0.39949946527E+02 -0.53748085913E+02  0.11000075351E+03  0.12878284334E+03  0.00000000000E+00 0.  1.
         11    1    4    4    0    0 -0.33655365436E+02  0.17922851205E+02  0.36200237904E+02  0.52577271157E+02  0.00000000000E+00 0. -1.
        -13    1    3    3    0    0  0.94642548009E+01 -0.23531007432E+02 -0.14361919776E+02  0.29146958149E+02  0.00000000000E+00 0.  1.
         13    1    3    3    0    0 -0.97915722487E+01  0.37775410366E+02  0.65341832186E+02  0.76107894130E+02  0.00000000000E+00 0. -1.
         21    1    1    2  502  501 -0.59672636432E+01  0.21580831774E+02  0.19674045083E+02  0.29806183676E+02  0.00000000000E+00 0. -1.
<scales pt_clust_5="13000.00000" pt_clust_6="13000.00000" pt_clust_7="13000.00000" pt_clust_8="13000.00000" pt_clust_9="22.39063"></scales>
<clustering>
<clus scale="   22.391">  2  9  1 -1</clus>
<clus scale="   90.976">  7  8 -1 -1</clus>
<clus scale="   95.078">  2  7  1 -1</clus>
<clus scale="  100.964">  5  6 -1 -1</clus>
<clus scale="  104.675">  1  5  2 -1</clus>
</clustering>
</event>
<event>
 9    1  0.1234700E-005  0.1559595E+03  0.7546771E-02  0.1193487E+00
          1   -1    0    0  502    0  0.00000000000E+00  0.00000000000E+00  0.18743606811E+04  0.18743606811E+04  0.00000000000E+00 0. -1.
         -1   -1    0    0    0  501 -0.00000000000E+00 -0.00000000000E+00 -0.46730273197E+02  0.46730273197E+02  0.00000000000E+00 0.  1.
         23    2    1    2    0    0  0.92569924781E+02 -0.49411068255E+02  0.20200658450E+03  0.24610208663E+03  0.93535726981E+02 0.  0.
         23    2    1    2    0    0 -0.88707989754E+02  0.18918262397E+03  0.64200095199E+03  0.68147744071E+03  0.92666645474E+02 0.  0.
        -13    1    4    4    0    0 -0.58075543422E+02  0.91401196094E+02  0.46038416960E+03  0.47294876150E+03  0.00000000000E+00 0. -1.
         13    1    4    4    0    0 -0.30632446332E+02  0.97781427874E+02  0.18161678239E+03  0.20852867921E+03  0.00000000000E+00 0.  1.
        -13    1    3    3    0    0  0.87625245775E+02 -0.70850847846E+02  0.19034649874E+03  0.22120084972E+03  0.00000000000E+00 0.  1.
         13    1    3    3    0    0  0.49446790060E+01  0.21439779591E+02  0.11660085764E+02  0.24901236905E+02  0.00000000000E+00 0. -1.
         21    1    1    2  502  501 -0.38619350265E+01 -0.13977155571E+03  0.98362287145E+03  0.99351142699E+03  0.00000000000E+00 0.  1.
<scales pt_clust_5="13000.00000" pt_clust_6="13000.00000" pt_clust_7="13000.00000" pt_clust_8="13000.00000" pt_clust_9="139.82490"></scales>
<clustering>
<clus scale="   92.667">  5  6 -1 -1</clus>
<clus scale="   93.536">  7  8 -1 -1</clus>
<clus scale="  139.825">  1  9  2 -1</clus>
<clus scale="  155.440">  1  5  2 -1</clus>
<clus scale="  139.825">  1  5  2 -1</clus>
</clustering>
</event>
<event>
 9    1  0.1234700E-005  0.1081800E+03  0.7546771E-02  0.1265722E+00
          2   -1    0    0  502    0  0.00000000000E+00  0.00000000000E+00  0.86003859033E+03  0.86003859033E+03  0.00000000000E+00 0. -1.
         -2   -1    0    0    0  501 -0.00000000000E+00 -0.00000000000E+00 -0.35653329488E+02  0.35653329488E+02  0.00000000000E+00 0.  1.
         23    2    1    2    0    0  0.66226230539E+02 -0.14054133028E+02  0.13110766430E+03  0.17299527944E+03  0.90303459533E+02 0.  0.
         23    2    1    2    0    0  0.12793562039E+02  0.52680337100E+02  0.47577738900E+03  0.48808536286E+03  0.94468536582E+02 0.  0.
        -11    1    4    4    0    0  0.22475247099E+02  0.78331832827E+02  0.35339693111E+03  0.36267120603E+03  0.00000000000E+00 0. -1.
         11    1    4    4    0    0 -0.96816850600E+01 -0.25651495728E+02  0.12238045789E+03  0.12541415682E+03  0.00000000000E+00 0.  1.
        -13    1    3    3    0    0  0.50662492189E+02  0.60270080853E+00  0.14071383495E+03  0.14955746290E+03  0.00000000000E+00 0. -1.
         13    1    3    3    0    0  0.15563738350E+02 -0.14656833837E+02 -0.96061706495E+01  0.23437816538E+02  0.00000000000E+00 0.  1.
         21    1    1    2  502  501 -0.79019792578E+02 -0.38626204071E+02  0.21750020754E+03  0.23461127752E+03  0.00000000000E+00 0.  1.
<scales pt_clust_5="13000.00000" pt_clust_6="13000.00000" pt_clust_7="13000.00000" pt_clust_8="13000.00000" pt_clust_9="87.95517"></scales>
<clustering>
<clus scale="   87.955">  1  9  2 -1</clus>
<clus scale="   90.303">  7  8 -1 -1</clus>
<clus scale="   94.469">  5  6 -1 -1</clus>
<clus scale="  104.563">  2  7  1 -1</clus>
<clus scale="   87.955">  1  5  2 -1</clus>
</clustering>
</event>
<event>
 9    1  0.1234700E-005  0.1243070E+03  0.7546771E-02  0.1236902E+00
          1   -1    0    0  502    0  0.00000000000E+00  0.00000000000E+00  0.61204870957E+03  0.61204870957E+03  0.00000000000E+00 0. -1.
         -1   -1    0    0    0  501 -0.00000000000E+00 -0.00000000000E+00 -0.37745882438E+02  0.37745882438E+02  0.00000000000E+00 0.  1.
         23    2    1    2    0    0 -0.83746671708E+02  0.11772177472E+02  0.16871868011E+03  0.20995555336E+03  0.91995935678E+02 0.  0.
         23    2    1    2    0    0  0.76694855015E+02 -0.35150216151E+02  0.21480870056E+03  0.24750721138E+03  0.89439383758E+02 0.  0.
        -13    1    4    4    0    0 -0.74897827613E+01 -0.29598173627E+02  0.23852760471E+02  0.38744069352E+02  0.00000000000E+00 0. -1.
         13    1    4    4    0    0  0.84184637777E+02 -0.55520425241E+01  0.19095594009E+03  0.20876314203E+03  0.00000000000E+00 0.  1.
        -13    1    3    3    0    0 -0.72167626185E+02 -0.13412438274E+02  0.16672112061E+03  0.18216473816E+03  0.00000000000E+00 0. -1.
         13    1    3    3    0    0 -0.11579045522E+02  0.25184615745E+02  0.19975595012E+01  0.27790815199E+02  0.00000000000E+00 0.  1.
         21    1    1    2  502  501  0.70518166922E+01  0.23378038679E+02  0.19077544645E+03  0.19233182727E+03  0.00000000000E+00 0. -1.
<scales pt_clust_5="13000.00000" pt_clust_6="13000.00000" pt_clust_7="13000.00000" pt_clust_8="13000.00000" pt_clust_9="24.41845"></scales>
<clustering>
<clus scale="   24.418">  1  9  2 -1</clus>
<clus scale="   89.439">  5  6 -1 -1</clus>
<clus scale="   91.996">  7  8 -1 -1</clus>
<clus scale="  122.427">  1  5  2 -1</clus>
<clus scale="   24.418">  1  5  2 -1</clus>
</clustering>
</event>
<event>
 9    1  0.1234700E-005  0.9376810E+02  0.7546771E-02  0.1296250E+00
          1   -1    0    0  502    0  0.00000000000E+00  0.00000000000E+00  0.62832785066E+02  0.62832785066E+02  0.00000000000E+00 0. -1.
         -1   -1    0    0    0  501 -0.00000000000E+00 -0.00000000000E+00 -0.40650901229E+03  0.40650901229E+03  0.00000000000E+00 0.  1.
         23    2    1    2    0    0  0.21790877799E+00 -0.23063967382E+02 -0.28079602751E+03  0.29541781281E+03  0.88844138724E+02 0.  0.
         23    2    1    2    0    0 -0.19846851833E+01 -0.12083126817E+02 -0.89742521189E+02  0.12965182575E+03  0.92768178177E+02 0.  0.
        -13    1    3    3    0    0  0.27637429890E+02  0.13349269769E+02 -0.40389577795E+02  0.50728182786E+02  0.00000000000E+00 0.  1.
         13    1    3    3    0    0 -0.27419521112E+02 -0.36413237151E+02 -0.24040644971E+03  0.24468963002E+03  0.00000000000E+00 0. -1.
        -13    1    4    4    0    0  0.41481714699E+02 -0.24474801393E+02 -0.50637062675E+02  0.69884624017E+02  0.00000000000E+00 0. -1.
         13    1    4    4    0    0 -0.43466399883E+02  0.12391674576E+02 -0.39105458514E+02  0.59767201734E+02  0.00000000000E+00 0.  1.
         21    1    1    2  502  501  0.17667764053E+01  0.35147094199E+02  0.26862321472E+02  0.44272158795E+02  0.00000000000E+00 0.  1.
<scales pt_clust_5="13000.00000" pt_clust_6="13000.00000" pt_clust_7="13000.00000" pt_clust_8="13000.00000" pt_clust_9="35.19147"></scales>
<clustering>
<clus scale="   35.191">  1  9  2 -1</clus>
<clus scale="   88.844">  5  6 -1 -1</clus>
<clus scale="   89.888">  2  5  1 -1</clus>
<clus scale="   92.768">  7  8 -1 -1</clus>
<clus scale="   35.191">  1  5  2 -1</clus>
</clustering>
</event>
<event>
 9    1  0.1234700E-005  0.1199509E+03  0.7546771E-02  0.1246608E+00
          1   -1    0    0  502    0  0.00000000000E+00  0.00000000000E+00  0.72538002277E+03  0.72538002277E+03  0.00000000000E+00 0. -1.
         -1   -1    0    0    0  501 -0.00000000000E+00 -0.00000000000E+00 -0.11711392899E+03  0.11711392899E+03  0.00000000000E+00 0.  1.
         23    2    1    2    0    0 -0.63095243884E+02 -0.78061809665E+01 -0.73146750402E+02  0.13982130859E+03  0.10078494421E+03 0.  0.
         23    2    1    2    0    0  0.93146800205E+02 -0.13772200194E+02  0.58286327295E+03  0.59740754659E+03  0.91105333979E+02 0.  0.
        -11    1    4    4    0    0 -0.23643202390E+01  0.26532831826E+02  0.14623132751E+03  0.14863775536E+03  0.00000000000E+00 0.  1.
         11    1    4    4    0    0  0.95511120444E+02 -0.40305032020E+02  0.43663194545E+03  0.44876979123E+03  0.00000000000E+00 0. -1.
        -13    1    3    3    0    0 -0.64465064183E+02 -0.41908988776E+02 -0.72506627776E+02  0.10568499852E+03  0.00000000000E+00 0.  1.
         13    1    3    3    0    0  0.13698202992E+01  0.34102807809E+02 -0.64012262539E+00  0.34136310069E+02  0.00000000000E+00 0. -1.
         21    1    1    2  502  501 -0.30051556321E+02  0.21578381161E+02  0.98549571231E+02  0.10526509659E+03  0.00000000000E+00 0.  1.
<scales pt_clust_5="13000.00000" pt_clust_6="13000.00000" pt_clust_7="13000.00000" pt_clust_8="13000.00000" pt_clust_9="36.99625"></scales>
<clustering>
<clus scale="   36.996">  1  9  2 -1</clus>
<clus scale="   91.105">  5  6 -1 -1</clus>
<clus scale="  100.785">  7  8 -1 -1</clus>
<clus scale="  111.941">  1  5  2 -1</clus>
<clus scale="   36.996">  1  5  2 -1</clus>
</clustering>
</event>
<event>
 9    1  0.1234700E-005  0.1029007E+03  0.7546771E-02  0.1275973E+00
         -1   -1    0    0    0  501 -0.00000000000E+00  0.00000000000E+00  0.25568896760E+02  0.25568896760E+02  0.00000000000E+00 0.  1.
          1   -1    0    0  502    0  0.00000000000E+00 -0.00000000000E+00 -0.60482412329E+03  0.60482412329E+03  0.00000000000E+00 0. -1.
         23    2    1    2    0    0  0.59626945953E+01 -0.51330731431E+02 -0.16887571867E+03  0.19750195179E+03  0.88417277102E+02 0.  0.
         23    2    1    2    0    0  0.15925715666E+02  0.38558405470E+02 -0.23664324074E+03  0.25731622573E+03  0.92039326299E+02 0.  0.
        -11    1    4    4    0    0 -0.20834034063E+02 -0.19503729085E+02 -0.40997730861E+02  0.49952641164E+02  0.00000000000E+00 0.  1.
         11    1    4    4    0    0  0.36759749728E+02  0.58062134556E+02 -0.19564550987E+03  0.20736358456E+03  0.00000000000E+00 0. -1.
        -13    1    3    3    0    0  0.29110235580E+02  0.14575299443E+02 -0.54383316531E+02  0.63382886383E+02  0.00000000000E+00 0.  1.
         13    1    3    3    0    0 -0.23147540985E+02 -0.65906030874E+02 -0.11449240214E+03  0.13411906541E+03  0.00000000000E+00 0. -1.
         21    1    1    2  502  501 -0.21888410261E+02  0.12772325961E+02 -0.17373626713E+03  0.17557484253E+03  0.00000000000E+00 0. -1.
<scales pt_clust_5="13000.00000" pt_clust_6="13000.00000" pt_clust_7="13000.00000" pt_clust_8="13000.00000" pt_clust_9="25.34235"></scales>
<clustering>
<clus scale="   25.342">  2  9  1 -1</clus>
<clus scale="   88.417">  7  8 -1 -1</clus>
<clus scale="   92.039">  5  6 -1 -1</clus>
<clus scale="   99.674">  1  7  2 -1</clus>
<clus scale="   25.342">  2  5  1 -1</clus>
</clustering>
</event>
<event>
 9    1  0.1234700E-005  0.1182363E+03  0.7546771E-02  0.1247159E+00
          1   -1    0    0  502    0  0.00000000000E+00  0.00000000000E+00  0.80464037627E+02  0.80464037627E+02  0.00000000000E+00 0. -1.
         -1   -1    0    0    0  501 -0.00000000000E+00 -0.00000000000E+00 -0.35878593349E+03  0.35878593349E+03  0.00000000000E+00 0.  1.
         23    2    1    2    0    0  0.88231555517E+02  0.92454436992E+01 -0.89302792127E+02  0.15319129456E+03  0.87305775455E+02 0.  0.
         23    2    1    2    0    0 -0.59847148494E+02 -0.38930398514E+02 -0.26576081822E+02  0.11850389008E+03  0.90772389678E+02 0.  0.
        -11    1    4    4    0    0 -0.14871113081E+02  0.25174353605E+02 -0.27572455704E+02  0.40188784471E+02  0.00000000000E+00 0.  1.
         11    1    4    4    0    0 -0.44976035413E+02 -0.64104752119E+02  0.99637388261E+00  0.78315105609E+02  0.00000000000E+00 0. -1.
        -11    1    3    3    0    0  0.52502167217E+02  0.45152250478E+02 -0.30748642267E+02  0.75767290350E+02  0.00000000000E+00 0.  1.
         11    1    3    3    0    0  0.35729388300E+02 -0.35906806779E+02 -0.58554149861E+02  0.77424004206E+02  0.00000000000E+00 0. -1.
         21    1    1    2  502  501 -0.28384407023E+02  0.29684954815E+02 -0.16244302192E+03  0.16755478648E+03  0.00000000000E+00 0.  1.
<scales pt_clust_5="13000.00000" pt_clust_6="13000.00000" pt_clust_7="13000.00000" pt_clust_8="13000.00000" pt_clust_9="41.07154"></scales>
<clustering>
<clus scale="   41.072">  2  9  1 -1</clus>
<clus scale="   87.306">  7  8 -1 -1</clus>
<clus scale="   90.772">  5  6 -1 -1</clus>
<clus scale="  115.596">  2  7  1 -1</clus>
<clus scale="  118.236">  1  5  2 -1</clus>
</clustering>
</event>
<event>
 9    1  0.1234700E-005  0.9710863E+02  0.7546771E-02  0.1288065E+00
          1   -1    0    0  502    0  0.00000000000E+00  0.00000000000E+00  0.19199465089E+03  0.19199465089E+03  0.00000000000E+00 0. -1.
         -1   -1    0    0    0  501 -0.00000000000E+00 -0.00000000000E+00 -0.64465235765E+02  0.64465235765E+02  0.00000000000E+00 0.  1.
         23    2    1    2    0    0  0.34259354566E+02 -0.33018580998E+01  0.30155327220E+02  0.10432913932E+03  0.93758305811E+02 0.  0.
         23    2    1    2    0    0 -0.11641581063E+02 -0.66342108969E+01  0.81485551905E+02  0.12275840113E+03  0.90830560469E+02 0.  0.
        -11    1    4    4    0    0 -0.23028908497E+02  0.38160251946E+02  0.30880243098E+02  0.54222918300E+02  0.00000000000E+00 0.  1.
         11    1    4    4    0    0  0.11387327433E+02 -0.44794462843E+02  0.50605308807E+02  0.68535482832E+02  0.00000000000E+00 0. -1.
        -13    1    3    3    0    0  0.30426719993E+01  0.35055868597E+02  0.40658964716E+02  0.53771025542E+02  0.00000000000E+00 0.  1.
         13    1    3    3    0    0  0.31216682567E+02 -0.38357726697E+02 -0.10503637496E+02  0.50558113775E+02  0.00000000000E+00 0. -1.
         21    1    1    2  502  501 -0.22617773503E+02  0.99360689968E+01  0.15888535997E+02  0.29372346203E+02  0.00000000000E+00 0. -1.
<scales pt_clust_5="13000.00000" pt_clust_6="13000.00000" pt_clust_7="13000.00000" pt_clust_8="13000.00000" pt_clust_9="24.70403"></scales>
<clustering>
<clus scale="   24.704">  1  9  2 -1</clus>
<clus scale="   90.831">  5  6 -1 -1</clus>
<clus scale="   93.758">  7  8 -1 -1</clus>
<clus scale="   94.285">  1  5  2 -1</clus>
<clus scale="   24.704">  1  5  2 -1</clus>
</clustering>
</event>
<event>
 9    1  0.1234700E-005  0.9949080E+02  0.7546771E-02  0.1282748E+00
         -2   -1    0    0    0  501 -0.00000000000E+00  0.00000000000E+00  0.28362439319E+03  0.28362439319E+03  0.00000000000E+00 0.  1.
          2   -1    0    0  502    0  0.00000000000E+00 -0.00000000000E+00 -0.57746623834E+02  0.57746623834E+02  0.00000000000E+00 0. -1.
         23    2    1    2    0    0  0.41131026295E+02 -0.58459406322E+01  0.18571112534E+03  0.21119124736E+03  0.91581573153E+02 0.  0.
         23    2    1    2    0    0 -0.32718769890E+02 -0.19862921744E+02  0.33439930464E+02  0.10230576138E+03  0.88787309334E+02 0.  0.
        -11    1    3    3    0    0  0.23215979861E+02  0.19223396502E+02  0.17646570492E+03  0.17902141131E+03  0.00000000000E+00 0.  1.
         11    1    3    3    0    0  0.17915046434E+02 -0.25069337134E+02  0.92454204231E+01  0.32169836056E+02  0.00000000000E+00 0. -1.
        -13    1    4    4    0    0 -0.47485866784E+01 -0.26653800326E+02  0.58295959317E+02  0.64275913218E+02  0.00000000000E+00 0. -1.
         13    1    4    4    0    0 -0.27970183212E+02  0.67908785821E+01 -0.24856028854E+02  0.38029848162E+02  0.00000000000E+00 0.  1.
         21    1    1    2  502  501 -0.84122564054E+01  0.25708862376E+02  0.67267135520E+01  0.27874008282E+02  0.00000000000E+00 0.  1.
<scales pt_clust_5="13000.00000" pt_clust_6="13000.00000" pt_clust_7="13000.00000" pt_clust_8="13000.00000" pt_clust_9="27.05017"></scales>
<clustering>
<clus scale="   27.050">  2  9  1 -1</clus>
<clus scale="   88.787">  7  8 -1 -1</clus>
<clus scale="   91.582">  5  6 -1 -1</clus>
<clus scale="   96.925">  2  7  1 -1</clus>
<clus scale="   27.050">  2  5  1 -1</clus>
</clustering>
</event>
<event>
 9    1  0.1234700E-005  0.9594971E+02  0.7546771E-02  0.1290251E+00
         -2   -1    0    0    0  501 -0.00000000000E+00  0.00000000000E+00  0.13239043881E+03  0.13239043881E+03  0.00000000000E+00 0.  1.
          2   -1    0    0  502    0  0.00000000000E+00 -0.00000000000E+00 -0.11184534670E+03  0.11184534670E+03  0.00000000000E+00 0. -1.
         23    2    1    2    0    0  0.36634536733E+01 -0.10139822112E+02  0.34549553558E+02  0.99692702669E+02  0.92890938359E+02 0.  0.
         23    2    1    2    0    0  0.75820243268E+01  0.43155292209E+02  0.11449516659E+02  0.10136453443E+03  0.90685230712E+02 0.  0.
        -11    1    4    4    0    0 -0.82797917790E+01  0.67019142547E+02 -0.60334562294E+01  0.67797662303E+02  0.00000000000E+00 0.  1.
         11    1    4    4    0    0  0.15861816106E+02 -0.23863850338E+02  0.17482972889E+02  0.33566872123E+02  0.00000000000E+00 0. -1.
        -13    1    3    3    0    0  0.11564258943E+02  0.22062754503E+02  0.55248676828E+02  0.60604566762E+02  0.00000000000E+00 0.  1.
         13    1    3    3    0    0 -0.79008052697E+01 -0.32202576615E+02 -0.20699123270E+02  0.39088135907E+02  0.00000000000E+00 0. -1.
         21    1    1    2  502  501 -0.11245478000E+02 -0.33015470097E+02 -0.25453978109E+02  0.43178548410E+02  0.00000000000E+00 0. -1.
<scales pt_clust_5="13000.00000" pt_clust_6="13000.00000" pt_clust_7="13000.00000" pt_clust_8="13000.00000" pt_clust_9="34.87810"></scales>
<clustering>
<clus scale="   34.878">  2  9  1 -1</clus>
<clus scale="   90.685">  5  6 -1 -1</clus>
<clus scale="   92.891">  7  8 -1 -1</clus>
<clus scale="   93.816">  2  5  1 -1</clus>
<clus scale="   34.878">  2  5  1 -1</clus>
</clustering>
</event>
<event>
 9    1  0.1234700E-005  0.9879444E+02  0.7546771E-02  0.1283320E+00
          1   -1    0    0  502    0  0.00000000000E+00  0.00000000000E+00  0.16559398282E+03  0.16559398282E+03  0.00000000000E+00 0. -1.
         -1   -1    0    0    0  501 -0.00000000000E+00 -0.00000000000E+00 -0.95405603819E+02  0.95405603819E+02  0.00000000000E+00 0.  1.
         23    2    1    2    0    0 -0.27503104393E+02  0.88411872068E+01 -0.21046545736E+02  0.98156386209E+02  0.91417349139E+02 0.  0.
         23    2    1    2    0    0  0.40985014720E+02 -0.33666287715E+02  0.69066968902E+02  0.12693406807E+03  0.92351616569E+02 0.  0.
        -11    1    4    4    0    0  0.10957595275E+02 -0.58082105896E+02  0.15963535736E+02  0.61224459105E+02  0.00000000000E+00 0.  1.
         11    1    4    4    0    0  0.30027419445E+02  0.24415818181E+02  0.53103433166E+02  0.65709608962E+02  0.00000000000E+00 0. -1.
        -13    1    3    3    0    0  0.19649705421E+02 -0.26623509845E+02 -0.20933325889E+02  0.39155157162E+02  0.00000000000E+00 0.  1.
         13    1    3    3    0    0 -0.47152809814E+02  0.35464697052E+02 -0.11321984685E+00  0.59001229047E+02  0.00000000000E+00 0. -1.
         21    1    1    2  502  501 -0.13481910327E+02  0.24825100508E+02  0.22167955839E+02  0.35909132367E+02  0.00000000000E+00 0. -1.
<scales pt_clust_5="13000.00000" pt_clust_6="13000.00000" pt_clust_7="13000.00000" pt_clust_8="13000.00000" pt_clust_9="28.24973"></scales>
<clustering>
<clus scale="   28.250">  1  9  2 -1</clus>
<clus scale="   91.417">  7  8 -1 -1</clus>
<clus scale="   92.352">  5  6 -1 -1</clus>
<clus scale="   97.922">  2  7  1 -1</clus>
<clus scale="   28.250">  1  5  2 -1</clus>
</clustering>
</event>
<event>
 9    1  0.1234700E-005  0.1017584E+03  0.7546771E-02  0.1280361E+00
         -3   -1    0    0    0  501 -0.00000000000E+00  0.00000000000E+00  0.45369774911E+03  0.45369774911E+03  0.00000000000E+00 0.  1.
          3   -1    0    0  502    0  0.00000000000E+00 -0.00000000000E+00 -0.74334793964E+02  0.74334793964E+02  0.00000000000E+00 0. -1.
         23    2    1    2    0    0  0.21396055210E+02  0.37274303151E+02  0.26420066591E+03  0.28161369076E+03  0.87504937579E+02 0.  0.
         23    2    1    2    0    0 -0.21468256435E+02 -0.17208520168E+02  0.16517644233E+03  0.19252955497E+03  0.95012384635E+02 0.  0.
        -11    1    4    4    0    0 -0.14303366441E+02  0.37276647781E+02  0.43654249055E+02  0.59159346023E+02  0.00000000000E+00 0.  1.
         11    1    4    4    0    0 -0.71648899944E+01 -0.54485167949E+02  0.12152219328E+03  0.13337020894E+03  0.00000000000E+00 0. -1.
        -13    1    3    3    0    0  0.96747761838E+01 -0.27284253674E+02  0.52179456111E+02  0.59671831150E+02  0.00000000000E+00 0. -1.
         13    1    3    3    0    0  0.11721279026E+02  0.64558556825E+02  0.21202120980E+03  0.22194185961E+03  0.00000000000E+00 0.  1.
         21    1    1    2  502  501  0.72201224973E-01 -0.20065782983E+02 -0.50014153091E+02  0.53889297353E+02  0.00000000000E+00 0. -1.
<scales pt_clust_5="13000.00000" pt_clust_6="13000.00000" pt_clust_7="13000.00000" pt_clust_8="13000.00000" pt_clust_9="20.06591"></scales>
<clustering>
<clus scale="   20.066">  2  9  1 -1</clus>
<clus scale="   87.505">  7  8 -1 -1</clus>
<clus scale="   94.787">  1  7  2 -1</clus>
<clus scale="   95.012">  5  6 -1 -1</clus>
<clus scale="   20.066">  2  5  1 -1</clus>
</clustering>
</event>
<event>
 9    1  0.1234700E-005  0.1427153E+03  0.7546771E-02  0.1210333E+00
         -2   -1    0    0    0  501 -0.00000000000E+00  0.00000000000E+00  0.84551979911E+02  0.84551979911E+02  0.00000000000E+00 0.  1.
          2   -1    0    0  502    0  0.00000000000E+00 -0.00000000000E+00 -0.37035470049E+03  0.37035470049E+03  0.00000000000E+00 0. -1.
         23    2    1    2    0    0 -0.26967469427E+02  0.10338987912E+03 -0.63737701162E+02  0.15515559077E+03  0.92704106085E+02 0.  0.
         23    2    1    2    0    0  0.31768638237E+01 -0.11211328523E+03 -0.99959460387E+02  0.17504399972E+03  0.89827762561E+02 0.  0.
        -11    1    4    4    0    0  0.13056891867E+01 -0.20944006451E+02  0.16809838077E+02  0.26887299728E+02  0.00000000000E+00 0.  1.
         11    1    4    4    0    0  0.18711746370E+01 -0.91169278783E+02 -0.11676929846E+03  0.14815669999E+03  0.00000000000E+00 0. -1.
        -13    1    3    3    0    0 -0.15094701002E+02  0.11997209692E+03 -0.56979681664E+02  0.13367063313E+03  0.00000000000E+00 0.  1.
         13    1    3    3    0    0 -0.11872768425E+02 -0.16582217801E+02 -0.67580194981E+01  0.21484957640E+02  0.00000000000E+00 0. -1.
         21    1    1    2  502  501  0.23790605603E+02  0.87234061131E+01 -0.12210555903E+03  0.12470708991E+03  0.00000000000E+00 0. -1.
<scales pt_clust_5="13000.00000" pt_clust_6="13000.00000" pt_clust_7="13000.00000" pt_clust_8="13000.00000" pt_clust_9="25.33951"></scales>
<clustering>
<clus scale="   25.340">  2  9  1 -1</clus>
<clus scale="   89.828">  5  6 -1 -1</clus>
<clus scale="   92.704">  7  8 -1 -1</clus>
<clus scale="  140.864">  2  5  1 -1</clus>
<clus scale="   25.340">  2  5  1 -1</clus>
</clustering>
</event>
<event>
 9    1  0.1234700E-005  0.1673146E+03  0.7546771E-02  0.1181690E+00
          3   -1    0    0  502    0  0.00000000000E+00  0.00000000000E+00  0.69982890358E+03  0.69982890358E+03  0.00000000000E+00 0. -1.
         -3   -1    0    0    0  501 -0.00000000000E+00 -0.00000000000E+00 -0.79962179683E+02  0.79962179683E+02  0.00000000000E+00 0.  1.
         23    2    1    2    0    0  0.78706119014E+02  0.12145034937E+03  0.61589612703E+02  0.17691674460E+03  0.81002553016E+02 0.  0.
         23    2    1    2    0    0 -0.11936073327E+03 -0.77429027891E+02  0.42115473804E+03  0.45323069655E+03  0.88343148669E+02 0.  0.
        -11    1    3    3    0    0  0.30790981454E+02  0.59341995432E+02 -0.13637781783E+02  0.68231561999E+02  0.00000000000E+00 0. -1.
         11    1    3    3    0    0  0.47915137560E+02  0.62108353937E+02  0.75227394486E+02  0.10868518260E+03  0.00000000000E+00 0.  1.
        -13    1    4    4    0    0 -0.70592532755E+02  0.49284780785E+01  0.20376693188E+03  0.21570479388E+03  0.00000000000E+00 0.  1.
         13    1    4    4    0    0 -0.48768200512E+02 -0.82357505970E+02  0.21738780616E+03  0.23752590267E+03  0.00000000000E+00 0. -1.
         21    1    1    2  502  501  0.40654614253E+02 -0.44021321479E+02  0.13712237316E+03  0.14964364211E+03  0.00000000000E+00 0. -1.
<scales pt_clust_5="13000.00000" pt_clust_6="13000.00000" pt_clust_7="13000.00000" pt_clust_8="13000.00000" pt_clust_9="59.92224"></scales>
<clustering>
<clus scale="   59.922">  1  9  2 -1</clus>
<clus scale="   81.003">  5  6 -1 -1</clus>
<clus scale="   88.343">  7  8 -1 -1</clus>
<clus scale="  163.558">  2  5  1 -1</clus>
<clus scale="   59.922">  1  5  2 -1</clus>
</clustering>
</event>
<event>
 9    1  0.1234700E-005  0.1985921E+03  0.7546771E-02  0.1176698E+00
          2   -1    0    0  502    0  0.00000000000E+00  0.00000000000E+00  0.54969111775E+03  0.54969111775E+03  0.00000000000E+00 0. -1.
         -2   -1    0    0    0  501 -0.00000000000E+00 -0.00000000000E+00 -0.12627255638E+03  0.12627255638E+03  0.00000000000E+00 0.  1.
         23    2    1    2    0    0  0.58403222895E+02 -0.13217275905E+02  0.12830888686E+02  0.11019289448E+03  0.91609003178E+02 0.  0.
         23    2    1    2    0    0 -0.20933795779E+03  0.47075520220E+02  0.22417932385E+03  0.32354000658E+03  0.91560261239E+02 0.  0.
        -11    1    3    3    0    0  0.65437185508E+02 -0.43091408326E+02  0.49561540748E+01  0.78507695049E+02  0.00000000000E+00 0. -1.
         11    1    3    3    0    0 -0.70339626135E+01  0.29874132421E+02  0.78747346107E+01  0.31685199433E+02  0.00000000000E+00 0.  1.
        -13    1    4    4    0    0 -0.19646853073E+03  0.30481739205E+02  0.15753554503E+03  0.25366605595E+03  0.00000000000E+00 0.  1.
         13    1    4    4    0    0 -0.12869427063E+02  0.16593781015E+02  0.66643778823E+02  0.69873950633E+02  0.00000000000E+00 0. -1.
         21    1    1    2  502  501  0.15093473490E+03 -0.33858244315E+02  0.18640834883E+03  0.24223077306E+03  0.00000000000E+00 0. -1.
<scales pt_clust_5="13000.00000" pt_clust_6="13000.00000" pt_clust_7="13000.00000" pt_clust_8="13000.00000" pt_clust_9="176.22577"></scales>
<clustering>
<clus scale="   91.560">  7  8 -1 -1</clus>
<clus scale="   91.609">  5  6 -1 -1</clus>
<clus scale="  109.443">  2  5  1 -1</clus>
<clus scale="  176.226">  1  9  2 -1</clus>
<clus scale="  176.226">  1  5  2 -1</clus>
</clustering>
</event>
<event>
 9    1  0.1234700E-005  0.9713811E+02  0.7546771E-02  0.1290801E+00
          1   -1    0    0  502    0  0.00000000000E+00  0.00000000000E+00  0.27979155140E+03  0.27979155140E+03  0.00000000000E+00 0. -1.
         -1   -1    0    0    0  501 -0.00000000000E+00 -0.00000000000E+00 -0.58480217603E+02  0.58480217603E+02  0.00000000000E+00 0.  1.
         23    2    1    2    0    0 -0.18771166964E+02 -0.16932221588E+02  0.69967307616E+01  0.90704208475E+02  0.86828810637E+02 0.  0.
         23    2    1    2    0    0  0.16000417568E+02 -0.90291071848E+01  0.18239276511E+03  0.20632836339E+03  0.94692843638E+02 0.  0.
        -13    1    3    3    0    0  0.28114949661E+02 -0.29664624930E+02 -0.34268767706E+01  0.41014434668E+02  0.00000000000E+00 0.  1.
         13    1    3    3    0    0 -0.46886116625E+02  0.12732403342E+02  0.10423607532E+02  0.49689773808E+02  0.00000000000E+00 0. -1.
        -13    1    4    4    0    0  0.46531087551E+01 -0.48436015466E+02  0.60014888095E+02  0.77262447595E+02  0.00000000000E+00 0.  1.
         13    1    4    4    0    0  0.11347308813E+02  0.39406908282E+02  0.12237787701E+03  0.12906591579E+03  0.00000000000E+00 0. -1.
         21    1    1    2  502  501  0.27707493960E+01  0.25961328773E+02  0.31921837926E+02  0.41239197137E+02  0.00000000000E+00 0.  1.
<scales pt_clust_5="13000.00000" pt_clust_6="13000.00000" pt_clust_7="13000.00000" pt_clust_8="13000.00000" pt_clust_9="26.10877"></scales>
<clustering>
<clus scale="   26.109">  1  9  2 -1</clus>
<clus scale="   86.829">  5  6 -1 -1</clus>
<clus scale="   89.489">  2  5  1 -1</clus>
<clus scale="   94.693">  7  8 -1 -1</clus>
<clus scale="   26.109">  1  5  2 -1</clus>
</clustering>
</event>
<event>
 9    1  0.1234700E-005  0.3386006E+03  0.7546771E-02  0.1099471E+00
          1   -1    0    0  502    0  0.00000000000E+00  0.00000000000E+00  0.13152327557E+04  0.13152327557E+04  0.00000000000E+00 0. -1.
         -1   -1    0    0    0  501 -0.00000000000E+00 -0.00000000000E+00 -0.21292857304E+03  0.21292857304E+03  0.00000000000E+00 0.  1.
         23    2    1    2    0    0  0.44877960703E+02  0.92426628253E+02  0.65290162961E+02  0.15762679873E+03  0.10013335773E+03 0.  0.
         23    2    1    2    0    0  0.79651755324E+02  0.22662039024E+03 -0.21418383363E+02  0.25806978809E+03  0.91869826291E+02 0.  0.
        -11    1    4    4    0    0 -0.13586676257E+02  0.42627361358E+02  0.17718239701E+02  0.48120948932E+02  0.00000000000E+00 0. -1.
         11    1    4    4    0    0  0.93238431581E+02  0.18399302888E+03 -0.39136623064E+02  0.20994883916E+03  0.00000000000E+00 0.  1.
        -11    1    3    3    0    0  0.46934844550E+02  0.18780961346E+02 -0.10821282626E+02  0.51698204028E+02  0.00000000000E+00 0.  1.
         11    1    3    3    0    0 -0.20568838468E+01  0.73645666907E+02  0.76111445587E+02  0.10592859470E+03  0.00000000000E+00 0. -1.
         21    1    1    2  502  501 -0.12452971603E+03 -0.31904701849E+03  0.10584324031E+04  0.11124647420E+04  0.00000000000E+00 0. -1.
<scales pt_clust_5="13000.00000" pt_clust_6="13000.00000" pt_clust_7="13000.00000" pt_clust_8="13000.00000" pt_clust_9="325.89925"></scales>
<clustering>
<clus scale="   91.870">  5  6 -1 -1</clus>
<clus scale="  100.133">  7  8 -1 -1</clus>
<clus scale="  143.469">  2  7  1 -1</clus>
<clus scale="  325.899">  1  9  2 -1</clus>
<clus scale="  325.899">  1  5  2 -1</clus>
</clustering>
</event>
<event>
 9    1  0.1234700E-005  0.9514254E+02  0.7546771E-02  0.1292534E+00
         -2   -1    0    0    0  501 -0.00000000000E+00  0.00000000000E+00  0.61150560045E+02  0.61150560045E+02  0.00000000000E+00 0.  1.
          2   -1    0    0  502    0  0.00000000000E+00 -0.00000000000E+00 -0.41230149416E+03  0.41230149416E+03  0.00000000000E+00 0. -1.
         23    2    1    2    0    0 -0.10113398296E+02 -0.29745933348E+01  0.64937361848E+01  0.95251528002E+02  0.94443400757E+02 0.  0.
         23    2    1    2    0    0  0.20683381731E+02 -0.21558936628E+02 -0.28360182043E+03  0.29948609132E+03  0.91484076833E+02 0.  0.
        -11    1    3    3    0    0 -0.49920235203E+02 -0.17048713586E+02  0.19657978167E+01  0.52787809945E+02  0.00000000000E+00 0.  1.
         11    1    3    3    0    0  0.39806836907E+02  0.14074120251E+02  0.45279383682E+01  0.42463718058E+02  0.00000000000E+00 0. -1.
        -13    1    4    4    0    0  0.48026112835E+02  0.34022917200E+00 -0.83381107248E+02  0.96223865625E+02  0.00000000000E+00 0.  1.
         13    1    4    4    0    0 -0.27342731104E+02 -0.21899165800E+02 -0.20022071319E+03  0.20326222570E+03  0.00000000000E+00 0. -1.
         21    1    1    2  502  501 -0.10569983435E+02  0.24533529963E+02 -0.74042849866E+02  0.78714434881E+02  0.00000000000E+00 0.  1.
<scales pt_clust_5="13000.00000" pt_clust_6="13000.00000" pt_clust_7="13000.00000" pt_clust_8="13000.00000" pt_clust_9="26.71364"></scales>
<clustering>
<clus scale="   26.714">  2  9  1 -1</clus>
<clus scale="   91.484">  7  8 -1 -1</clus>
<clus scale="   92.206">  2  7  1 -1</clus>
<clus scale="   94.443">  5  6 -1 -1</clus>
<clus scale="   26.714">  2  5  1 -1</clus>
</clustering>
</event>
<event>
 9    1  0.1234700E-005  0.1347195E+03  0.7546771E-02  0.1221166E+00
          1   -1    0    0  502    0  0.00000000000E+00  0.00000000000E+00  0.13942677695E+03  0.13942677695E+03  0.00000000000E+00 0. -1.
         -1   -1    0    0    0  501 -0.00000000000E+00 -0.00000000000E+00 -0.26746271914E+03  0.26746271914E+03  0.00000000000E+00 0.  1.
         23    2    1    2    0    0  0.84396461234E+02  0.69264546204E+02 -0.12610618104E+03  0.19119813082E+03  0.93453819083E+02 0.  0.
         23    2    1    2    0    0 -0.45167903138E+02 -0.72745442723E+02 -0.65265715877E+02  0.14110960094E+03  0.91215497018E+02 0.  0.
        -11    1    4    4    0    0 -0.70885872113E+02 -0.51000721917E+02 -0.62359122145E+02  0.10730582750E+03  0.00000000000E+00 0. -1.
         11    1    4    4    0    0  0.25717968975E+02 -0.21744720806E+02 -0.29065937314E+01  0.33803773432E+02  0.00000000000E+00 0.  1.
        -13    1    3    3    0    0  0.91407045628E+02  0.44597291364E+02 -0.13021442505E+03  0.16522700408E+03  0.00000000000E+00 0.  1.
         13    1    3    3    0    0 -0.70105843941E+01  0.24667254840E+02  0.41082440099E+01  0.25971126732E+02  0.00000000000E+00 0. -1.
         21    1    1    2  502  501 -0.39228558095E+02  0.34808965195E+01  0.63335954729E+02  0.74581764341E+02  0.00000000000E+00 0. -1.
<scales pt_clust_5="13000.00000" pt_clust_6="13000.00000" pt_clust_7="13000.00000" pt_clust_8="13000.00000" pt_clust_9="39.38269"></scales>
<clustering>
<clus scale="   39.383">  1  9  2 -1</clus>
<clus scale="   91.215">  5  6 -1 -1</clus>
<clus scale="   93.454">  7  8 -1 -1</clus>
<clus scale="  133.177">  1  5  2 -1</clus>
<clus scale="   39.383">  1  5  2 -1</clus>
</clustering>
</event>
<event>
 9    1  0.1234700E-005  0.1049890E+03  0.7546771E-02  0.1270889E+00
         -1   -1    0    0    0  501 -0.00000000000E+00  0.00000000000E+00  0.76014329396E+02  0.76014329396E+02  0.00000000000E+00 0.  1.
          1   -1    0    0  502    0  0.00000000000E+00 -0.00000000000E+00 -0.59786903326E+03  0.59786903326E+03  0.00000000000E+00 0. -1.
         23    2    1    2    0    0  0.37879596195E+02  0.37451361250E+02  0.20435504193E+02  0.10787612707E+03  0.91554249993E+02 0.  0.
         23    2    1    2    0    0 -0.56418897641E+02  0.48938855095E+01 -0.27574337044E+03  0.29548174277E+03  0.89822112218E+02 0.  0.
        -11    1    4    4    0    0 -0.25299436266E+02 -0.26914186204E+02 -0.35775970079E+02  0.51423291703E+02  0.00000000000E+00 0.  1.
         11    1    4    4    0    0 -0.31119461375E+02  0.31808071714E+02 -0.23996740036E+03  0.24405845106E+03  0.00000000000E+00 0. -1.
        -13    1    3    3    0    0  0.62104572906E+02  0.26332186664E+01  0.36767420987E+01  0.62269015158E+02  0.00000000000E+00 0.  1.
         13    1    3    3    0    0 -0.24224976711E+02  0.34818142584E+02  0.16758762094E+02  0.45607111908E+02  0.00000000000E+00 0. -1.
         21    1    1    2  502  501  0.18539301446E+02 -0.42345246760E+02 -0.26654683762E+03  0.27052549282E+03  0.00000000000E+00 0. -1.
<scales pt_clust_5="13000.00000" pt_clust_6="13000.00000" pt_clust_7="13000.00000" pt_clust_8="13000.00000" pt_clust_9="46.22581"></scales>
<clustering>
<clus scale="   46.226">  2  9  1 -1</clus>
<clus scale="   89.822">  5  6 -1 -1</clus>
<clus scale="   91.554">  7  8 -1 -1</clus>
<clus scale="  103.482">  2  5  1 -1</clus>
<clus scale="   46.226">  2  5  1 -1</clus>
</clustering>
</event>
<event>
 9    1  0.1234700E-005  0.1722742E+03  0.7546771E-02  0.1175547E+00
         -2   -1    0    0    0  501 -0.00000000000E+00  0.00000000000E+00  0.31418834753E+03  0.31418834753E+03  0.00000000000E+00 0.  1.
          2   -1    0    0  502    0  0.00000000000E+00 -0.00000000000E+00 -0.12945786982E+03  0.12945786982E+03  0.00000000000E+00 0. -1.
         23    2    1    2    0    0 -0.73211157698E+02 -0.13788757118E+03  0.12222845490E+03  0.21801578267E+03  0.90654456101E+02 0.  0.
         23    2    1    2    0    0  0.42622100135E+02  0.13033953353E+03  0.86580396969E+02  0.18597653933E+03  0.91027856291E+02 0.  0.
        -13    1    4    4    0    0 -0.14709878002E+02  0.52135668849E+02  0.68509945335E+02  0.87339115446E+02  0.00000000000E+00 0.  1.
         13    1    4    4    0    0  0.57331978137E+02  0.78203864678E+02  0.18070451635E+02  0.98637423881E+02  0.00000000000E+00 0. -1.
        -13    1    3    3    0    0 -0.45609752647E+02 -0.14118086769E+03  0.83204074233E+02  0.17010351233E+03  0.00000000000E+00 0. -1.
         13    1    3    3    0    0 -0.27601405051E+02  0.32932965165E+01  0.39024380665E+02  0.47912270339E+02  0.00000000000E+00 0.  1.
         21    1    1    2  502  501  0.30589057563E+02  0.75480376517E+01 -0.24078374158E+02  0.39653895358E+02  0.00000000000E+00 0. -1.
<scales pt_clust_5="13000.00000" pt_clust_6="13000.00000" pt_clust_7="13000.00000" pt_clust_8="13000.00000" pt_clust_9="31.50656"></scales>
<clustering>
<clus scale="   31.507">  2  9  1 -1</clus>
<clus scale="   90.654">  7  8 -1 -1</clus>
<clus scale="   91.028">  5  6 -1 -1</clus>
<clus scale="  172.077">  1  7  2 -1</clus>
<clus scale="   31.507">  2  5  1 -1</clus>
</clustering>
</event>
<event>
 9    1  0.1234700E-005  0.1702346E+03  0.7546771E-02  0.1177855E+00
          2   -1    0    0  502    0  0.00000000000E+00  0.00000000000E+00  0.19865618567E+03  0.19865618567E+03  0.00000000000E+00 0. -1.
         -2   -1    0    0    0  501 -0.00000000000E+00 -0.00000000000E+00 -0.17182936625E+03  0.17182936625E+03  0.00000000000E+00 0.  1.
         23    2    1    2    0    0  0.51032848616E+02 -0.12591764101E+03 -0.94690069482E+01  0.16443328799E+03  0.92135987273E+02 0.  0.
         23    2    1    2    0    0 -0.44405073118E+02  0.14613786074E+03  0.18691939728E+02  0.17843557479E+03  0.90342575117E+02 0.  0.
        -13    1    3    3    0    0  0.15519876362E+01 -0.83531994544E+02 -0.39828343322E+02  0.92554306814E+02  0.00000000000E+00 0.  1.
         13    1    3    3    0    0  0.49480860980E+02 -0.42385646468E+02  0.30359336374E+02  0.71878981176E+02  0.00000000000E+00 0. -1.
        -13    1    4    4    0    0  0.25039504532E+02  0.30945293542E+02  0.18579861588E+02  0.43929480263E+02  0.00000000000E+00 0. -1.
         13    1    4    4    0    0 -0.69444577650E+02  0.11519256720E+03  0.11207813996E+00  0.13450609453E+03  0.00000000000E+00 0.  1.
         21    1    1    2  502  501 -0.66277754983E+01 -0.20220219731E+02  0.17603886648E+02  0.27616689141E+02  0.00000000000E+00 0.  1.
<scales pt_clust_5="13000.00000" pt_clust_6="13000.00000" pt_clust_7="13000.00000" pt_clust_8="13000.00000" pt_clust_9="21.27874"></scales>
<clustering>
<clus scale="   21.279">  1  9  2 -1</clus>
<clus scale="   90.343">  7  8 -1 -1</clus>
<clus scale="   92.136">  5  6 -1 -1</clus>
<clus scale="  169.271">  1  7  2 -1</clus>
<clus scale="   21.279">  1  5  2 -1</clus>
</clustering>
</event>
<event>
 9    1  0.1234700E-005  0.1098155E+03  0.7546771E-02  0.1262392E+00
         -2   -1    0    0    0  501 -0.00000000000E+00  0.00000000000E+00  0.35577245095E+02  0.35577245095E+02  0.00000000000E+00 0.  1.
          2   -1    0    0  502    0  0.00000000000E+00 -0.00000000000E+00 -0.44425083362E+03  0.44425083362E+03  0.00000000000E+00 0. -1.
         23    2    1    2    0    0 -0.39963907144E+02 -0.50145461598E+02 -0.14956875300E+03  0.18395764830E+03  0.85778338183E+02 0.  0.
         23    2    1    2    0    0  0.58455811761E+02  0.30009981839E+02 -0.17391723313E+03  0.20640358917E+03  0.89652421615E+02 0.  0.
        -13    1    4    4    0    0  0.76720931425E+02  0.19974981511E+01 -0.13304682864E+03  0.15359540985E+03  0.00000000000E+00 0.  1.
         13    1    4    4    0    0 -0.18265119664E+02  0.28012483688E+02 -0.40870404498E+02  0.52808179315E+02  0.00000000000E+00 0. -1.
        -13    1    3    3    0    0 -0.57541925866E+02 -0.44567138295E+01 -0.72685772539E+02  0.92812483320E+02  0.00000000000E+00 0. -1.
         13    1    3    3    0    0  0.17578018722E+02 -0.45688747769E+02 -0.76882980461E+02  0.91145164981E+02  0.00000000000E+00 0.  1.
         21    1    1    2  502  501 -0.18491904617E+02  0.20135479759E+02 -0.85187602393E+02  0.89466841248E+02  0.00000000000E+00 0.  1.
<scales pt_clust_5="13000.00000" pt_clust_6="13000.00000" pt_clust_7="13000.00000" pt_clust_8="13000.00000" pt_clust_9="27.33840"></scales>
<clustering>
<clus scale="   27.338">  2  9  1 -1</clus>
<clus scale="   85.778">  7  8 -1 -1</clus>
<clus scale="   89.652">  5  6 -1 -1</clus>
<clus scale="  106.676">  1  7  2 -1</clus>
<clus scale="   27.338">  2  5  1 -1</clus>
</clustering>
</event>
<event>
 9    1  0.1234700E-005  0.1412582E+03  0.7546771E-02  0.1211936E+00
          2   -1    0    0  502    0  0.00000000000E+00  0.00000000000E+00  0.52488867275E+03  0.52488867275E+03  0.00000000000E+00 0. -1.
         -2   -1    0    0    0  501 -0.00000000000E+00 -0.00000000000E+00 -0.67597704629E+02  0.67597704629E+02  0.00000000000E+00 0.  1.
         23    2    1    2    0    0  0.54909598784E+02  0.10039526046E+03  0.11202146031E+03  0.18465481968E+03  0.91947389838E+02 0.  0.
         23    2    1    2    0    0 -0.46043995148E+01 -0.10492103672E+03  0.14247954253E+03  0.19884623347E+03  0.90607836786E+02 0.  0.
        -11    1    4    4    0    0 -0.42554140124E+02 -0.86668525815E+02  0.10147352249E+03  0.14006842605E+03  0.00000000000E+00 0. -1.
         11    1    4    4    0    0  0.37949740609E+02 -0.18252510900E+02  0.41006020032E+02  0.58777807422E+02  0.00000000000E+00 0.  1.
        -13    1    3    3    0    0  0.80532091281E+02  0.67703774708E+02  0.78171766150E+02  0.13107266633E+03  0.00000000000E+00 0.  1.
         13    1    3    3    0    0 -0.25622492497E+02  0.32691485755E+02  0.33849694164E+02  0.53582153350E+02  0.00000000000E+00 0. -1.
         21    1    1    2  502  501 -0.50305199269E+02  0.45257762524E+01  0.20278996528E+03  0.20898532423E+03  0.00000000000E+00 0. -1.
<scales pt_clust_5="13000.00000" pt_clust_6="13000.00000" pt_clust_7="13000.00000" pt_clust_8="13000.00000" pt_clust_9="50.50837"></scales>
<clustering>
<clus scale="   50.508">  1  9  2 -1</clus>
<clus scale="   90.608">  5  6 -1 -1</clus>
<clus scale="   91.947">  7  8 -1 -1</clus>
<clus scale="  140.390">  1  5  2 -1</clus>
<clus scale="   50.508">  1  5  2 -1</clus>
</clustering>
</event>
<event>
 9    1  0.1234700E-005  0.1005486E+03  0.7546771E-02  0.1279952E+00
          1   -1    0    0  502    0  0.00000000000E+00  0.00000000000E+00  0.10883361845E+03  0.10883361845E+03  0.00000000000E+00 0. -1.
         -1   -1    0    0    0  501 -0.00000000000E+00 -0.00000000000E+00 -0.16380229512E+03  0.16380229512E+03  0.00000000000E+00 0.  1.
         23    2    1    2    0    0 -0.11370464824E+02  0.20161186305E+02 -0.39782939626E+02  0.10076433886E+03  0.89638210581E+02 0.  0.
         23    2    1    2    0    0  0.54291257887E+02 -0.46661595139E+02 -0.28924442662E+02  0.11959138557E+03  0.91327055005E+02 0.  0.
        -11    1    4    4    0    0  0.55801920100E+02 -0.70550205022E+02 -0.13106874248E+02  0.90900912361E+02  0.00000000000E+00 0.  1.
         11    1    4    4    0    0 -0.15106622132E+01  0.23888609884E+02 -0.15817568414E+02  0.28690473210E+02  0.00000000000E+00 0. -1.
        -11    1    3    3    0    0 -0.16231182244E+02 -0.30883204385E+02 -0.34750837393E+02  0.49242707984E+02  0.00000000000E+00 0.  1.
         11    1    3    3    0    0  0.48607174201E+01  0.51044390690E+02 -0.50321022330E+01  0.51521630872E+02  0.00000000000E+00 0. -1.
         21    1    1    2  502  501 -0.42920793063E+02  0.26500408833E+02  0.13738705620E+02  0.52280189150E+02  0.00000000000E+00 0. -1.
<scales pt_clust_5="13000.00000" pt_clust_6="13000.00000" pt_clust_7="13000.00000" pt_clust_8="13000.00000" pt_clust_9="50.44270"></scales>
<clustering>
<clus scale="   50.443">  1  9  2 -1</clus>
<clus scale="   89.638">  7  8 -1 -1</clus>
<clus scale="   91.327">  5  6 -1 -1</clus>
<clus scale="   99.017">  2  7  1 -1</clus>
<clus scale="   50.443">  1  5  2 -1</clus>
</clustering>
</event>
<event>
 9    1  0.1234700E-005  0.9151863E+02  0.7546771E-02  0.1299768E+00
         -2   -1    0    0    0  501 -0.00000000000E+00  0.00000000000E+00  0.61611379130E+02  0.61611379130E+02  0.00000000000E+00 0.  1.
          2   -1    0    0  502    0  0.00000000000E+00 -0.00000000000E+00 -0.37466521017E+03  0.37466521017E+03  0.00000000000E+00 0. -1.
         23    2    1    2    0    0  0.10760168518E+02 -0.21061752918E+01 -0.18128836474E+02  0.93164518916E+02  0.90723512234E+02 0.  0.
         23    2    1    2    0    0  0.39452353985E+02  0.36834983095E+02 -0.12819966710E+03  0.16556004328E+03  0.89786797883E+02 0.  0.
        -11    1    3    3    0    0 -0.11006736556E+01  0.43756905194E+02 -0.12086079865E+02  0.45408716797E+02  0.00000000000E+00 0. -1.
         11    1    3    3    0    0  0.11860842173E+02 -0.45863080485E+02 -0.60427566096E+01  0.47755802120E+02  0.00000000000E+00 0.  1.
        -13    1    4    4    0    0  0.38296069163E+02 -0.20679720530E+02 -0.77480620277E+02  0.88867802230E+02  0.00000000000E+00 0.  1.
         13    1    4    4    0    0  0.11562848220E+01  0.57514703626E+02 -0.50719046818E+02  0.76692241054E+02  0.00000000000E+00 0. -1.
         21    1    1    2  502  501 -0.50212522503E+02 -0.34728807804E+02 -0.16672532747E+03  0.17755202710E+03  0.00000000000E+00 0. -1.
<scales pt_clust_5="13000.00000" pt_clust_6="13000.00000" pt_clust_7="13000.00000" pt_clust_8="13000.00000" pt_clust_9="61.05233"></scales>
<clustering>
<clus scale="   61.052">  2  9  1 -1</clus>
<clus scale="   89.787">  7  8 -1 -1</clus>
<clus scale="   90.590">  2  7  1 -1</clus>
<clus scale="   90.724">  5  6 -1 -1</clus>
<clus scale="   61.052">  2  5  1 -1</clus>
</clustering>
</event>
<event>
 9    1  0.1234700E-005  0.1238674E+03  0.7546771E-02  0.1237743E+00
          1   -1    0    0  502    0  0.00000000000E+00  0.00000000000E+00  0.36542243801E+02  0.36542243801E+02  0.00000000000E+00 0. -1.
         -1   -1    0    0    0  501 -0.00000000000E+00 -0.00000000000E+00 -0.50930213295E+03  0.50930213295E+03  0.00000000000E+00 0.  1.
         23    2    1    2    0    0  0.12826800543E+02  0.66431122940E+02 -0.22564941661E+03  0.25351936910E+03  0.93684525864E+02 0.  0.
         23    2    1    2    0    0 -0.14408092709E+02 -0.92015324095E+02 -0.19687192943E+03  0.23592498063E+03  0.90706267070E+02 0.  0.
        -13    1    3    3    0    0  0.38765408713E+02 -0.38650669727E+01 -0.57780796011E+02  0.69687273179E+02  0.00000000000E+00 0.  1.
         13    1    3    3    0    0 -0.25938608170E+02  0.70296189912E+02 -0.16786862060E+03  0.18383209592E+03  0.00000000000E+00 0. -1.
        -13    1    4    4    0    0  0.21498693396E+02 -0.22352970621E+02 -0.88938613853E+01  0.32263754953E+02  0.00000000000E+00 0. -1.
         13    1    4    4    0    0 -0.35906786105E+02 -0.69662353474E+02 -0.18797806805E+03  0.20366122568E+03  0.00000000000E+00 0.  1.
         21    1    1    2  502  501  0.15812921664E+01  0.25584201155E+02 -0.50238543108E+02  0.56400027015E+02  0.00000000000E+00 0. -1.
<scales pt_clust_5="13000.00000" pt_clust_6="13000.00000" pt_clust_7="13000.00000" pt_clust_8="13000.00000" pt_clust_9="25.63302"></scales>
<clustering>
<clus scale="   25.633">  2  9  1 -1</clus>
<clus scale="   90.706">  7  8 -1 -1</clus>
<clus scale="   93.685">  5  6 -1 -1</clus>
<clus scale="  121.630">  1  7  2 -1</clus>
<clus scale="  121.630">  1  5  2 -1</clus>
</clustering>
</event>
<event>
 9    1  0.1234700E-005  0.9178676E+02  0.7546771E-02  0.1300198E+00
          1   -1    0    0  502    0  0.00000000000E+00  0.00000000000E+00  0.11477005302E+03  0.11477005302E+03  0.00000000000E+00 0. -1.
         -1   -1    0    0    0  501 -0.00000000000E+00 -0.00000000000E+00 -0.10318469748E+03  0.10318469748E+03  0.00000000000E+00 0.  1.
         23    2    1    2    0    0  0.53904862481E+01  0.13248757533E+02 -0.71176343021E+01  0.90426555073E+02  0.89004012416E+02 0.  0.
         23    2    1    2    0    0  0.12074414542E+02  0.92202788536E+01 -0.92209573591E+00  0.92959071345E+02  0.91704599973E+02 0.  0.
        -11    1    4    4    0    0  0.48431686247E+02  0.23287735757E+02  0.26989996037E+01  0.53807355150E+02  0.00000000000E+00 0.  1.
         11    1    4    4    0    0 -0.36357271705E+02 -0.14067456904E+02 -0.36210953396E+01  0.39151716195E+02  0.00000000000E+00 0. -1.
        -13    1    3    3    0    0 -0.24343109538E+01 -0.28811232791E+02 -0.30204556908E+02  0.41813015471E+02  0.00000000000E+00 0. -1.
         13    1    3    3    0    0  0.78247972019E+01  0.42059990324E+02  0.23086922606E+02  0.48613539603E+02  0.00000000000E+00 0.  1.
         21    1    1    2  502  501 -0.17464900790E+02 -0.22469036387E+02  0.19625085575E+02  0.34569124079E+02  0.00000000000E+00 0. -1.
<scales pt_clust_5="13000.00000" pt_clust_6="13000.00000" pt_clust_7="13000.00000" pt_clust_8="13000.00000" pt_clust_9="28.45840"></scales>
<clustering>
<clus scale="   28.458">  1  9  2 -1</clus>
<clus scale="   89.004">  7  8 -1 -1</clus>
<clus scale="   89.089">  2  7  1 -1</clus>
<clus scale="   91.705">  5  6 -1 -1</clus>
<clus scale="   28.458">  1  5  2 -1</clus>
</clustering>
</event>
<event>
 9    1  0.1234700E-005  0.1033364E+03  0.7546771E-02  0.1278104E+00
         -2   -1    0    0    0  501 -0.00000000000E+00  0.00000000000E+00  0.43563556731E+02  0.43563556731E+02  0.00000000000E+00 0.  1.
          2   -1    0    0  502    0  0.00000000000E+00 -0.00000000000E+00 -0.87434221674E+03  0.87434221674E+03  0.00000000000E+00 0. -1.
         23    2    1    2    0    0 -0.20939295635E+02 -0.28386057877E+02 -0.63294200334E+02  0.12330077177E+03  0.99763230393E+02 0.  0.
         23    2    1    2    0    0  0.39167646372E+02 -0.56394315303E+02 -0.34252347115E+03  0.36088639914E+03  0.90566226990E+02 0.  0.
        -11    1    4    4    0    0 -0.22776965522E+01 -0.68323122519E+02 -0.17440365562E+03  0.18732290854E+03  0.00000000000E+00 0.  1.
         11    1    4    4    0    0  0.41445342924E+02  0.11928807216E+02 -0.16811981554E+03  0.17356349060E+03  0.00000000000E+00 0. -1.
        -11    1    3    3    0    0 -0.41419437296E+02  0.25107856537E+02 -0.31673713602E+02  0.57872259150E+02  0.00000000000E+00 0. -1.
         11    1    3    3    0    0  0.20480141661E+02 -0.53493914415E+02 -0.31620486732E+02  0.65428512615E+02  0.00000000000E+00 0.  1.
         21    1    1    2  502  501 -0.18228350737E+02  0.84780373180E+02 -0.42496098852E+03  0.43371860256E+03  0.00000000000E+00 0. -1.
<scales pt_clust_5="13000.00000" pt_clust_6="13000.00000" pt_clust_7="13000.00000" pt_clust_8="13000.00000" pt_clust_9="86.71784"></scales>
<clustering>
<clus scale="   86.718">  2  9  1 -1</clus>
<clus scale="   90.566">  5  6 -1 -1</clus>
<clus scale="   94.488">  2  5  1 -1</clus>
<clus scale="   99.763">  7  8 -1 -1</clus>
<clus scale="   86.718">  2  5  1 -1</clus>
</clustering>
</event>
<event>
 9    1  0.1234700E-005  0.1170553E+03  0.7546771E-02  0.1248375E+00
         -2   -1    0    0    0  501 -0.00000000000E+00  0.00000000000E+00  0.59615935583E+02  0.59615935583E+02  0.00000000000E+00 0.  1.
          2   -1    0    0  502    0  0.00000000000E+00 -0.00000000000E+00 -0.34760569433E+03  0.34760569433E+03  0.00000000000E+00 0. -1.
         23    2    1    2    0    0 -0.98144185854E+00  0.63705473320E+02 -0.61273980108E+02  0.12614368935E+03  0.89990994910E+02 0.  0.
         23    2    1    2    0    0  0.96871157502E+01 -0.91070988342E+02 -0.14345665722E+03  0.19300557560E+03  0.91014144968E+02 0.  0.
        -13    1    3    3    0    0 -0.32748346017E+02  0.64809180454E+02 -0.60228151713E+02  0.94340417090E+02  0.00000000000E+00 0.  1.
         13    1    3    3    0    0  0.31766904159E+02 -0.11037071339E+01 -0.10458283952E+01  0.31803272258E+02  0.00000000000E+00 0. -1.
        -13    1    4    4    0    0  0.11803569124E+02 -0.69924261297E+02 -0.15380652547E+03  0.16936697978E+03  0.00000000000E+00 0. -1.
         13    1    4    4    0    0 -0.21164533740E+01 -0.21146727046E+02  0.10349868253E+02  0.23638595823E+02  0.00000000000E+00 0.  1.
         21    1    1    2  502  501 -0.87056738917E+01  0.27365515022E+02 -0.83259121418E+02  0.88072364959E+02  0.00000000000E+00 0.  1.
<scales pt_clust_5="13000.00000" pt_clust_6="13000.00000" pt_clust_7="13000.00000" pt_clust_8="13000.00000" pt_clust_9="28.71690"></scales>
<clustering>
<clus scale="   28.717">  2  9  1 -1</clus>
<clus scale="   89.991">  5  6 -1 -1</clus>
<clus scale="   91.014">  7  8 -1 -1</clus>
<clus scale="  116.262">  1  5  2 -1</clus>
<clus scale="   28.717">  2  5  1 -1</clus>
</clustering>
</event>
<event>
 9    1  0.1234700E-005  0.9360699E+02  0.7546771E-02  0.1294384E+00
         -2   -1    0    0    0  501 -0.00000000000E+00  0.00000000000E+00  0.18718543033E+03  0.18718543033E+03  0.00000000000E+00 0.  1.
          2   -1    0    0  502    0  0.00000000000E+00 -0.00000000000E+00 -0.39040673046E+03  0.39040673046E+03  0.00000000000E+00 0. -1.
         23    2    1    2    0    0 -0.24763539784E+02  0.67788755233E+01  0.15995095082E+03  0.18571187927E+03  0.90804236555E+02 0.  0.
         23    2    1    2    0    0 -0.20481497712E+02  0.11328316327E+02 -0.18804203714E+03  0.21009586083E+03  0.90733899434E+02 0.  0.
        -11    1    4    4    0    0 -0.21422198907E+02  0.40307431870E+02 -0.16982727923E+03  0.17585478225E+03  0.00000000000E+00 0. -1.
         11    1    4    4    0    0  0.94070119485E+00 -0.28979115544E+02 -0.18214757910E+02  0.34241078577E+02  0.00000000000E+00 0.  1.
        -11    1    3    3    0    0 -0.53996523164E+02 -0.10331118293E+02  0.66326120472E+02  0.86148190787E+02  0.00000000000E+00 0.  1.
         11    1    3    3    0    0  0.29232983381E+02  0.17109993817E+02  0.93624830353E+02  0.99563688483E+02  0.00000000000E+00 0. -1.
         21    1    1    2  502  501  0.45245037496E+02 -0.18107191850E+02 -0.17513021381E+03  0.18178442069E+03  0.00000000000E+00 0.  1.
<scales pt_clust_5="13000.00000" pt_clust_6="13000.00000" pt_clust_7="13000.00000" pt_clust_8="13000.00000" pt_clust_9="48.73381"></scales>
<clustering>
<clus scale="   48.734">  2  9  1 -1</clus>
<clus scale="   90.734">  5  6 -1 -1</clus>
<clus scale="   90.804">  7  8 -1 -1</clus>
<clus scale="   93.539">  2  5  1 -1</clus>
<clus scale="   48.734">  2  5  1 -1</clus>
</clustering>
</event>
<event>
 9    1  0.1234700E-005  0.1119471E+03  0.7546771E-02  0.1257011E+00
         -1   -1    0    0    0  501 -0.00000000000E+00  0.00000000000E+00  0.43951916795E+03  0.43951916795E+03  0.00000000000E+00 0.  1.
          1   -1    0    0  502    0  0.00000000000E+00 -0.00000000000E+00 -0.48421084430E+02  0.48421084430E+02  0.00000000000E+00 0. -1.
         23    2    1    2    0    0 -0.28235573726E+02 -0.51290275667E+02  0.28862690894E+03  0.30867666571E+03  0.92454590941E+02 0.  0.
         23    2    1    2    0    0  0.25081287779E+02  0.72189466713E+02  0.10303600998E+03  0.15812015399E+03  0.92440108426E+02 0.  0.
        -11    1    3    3    0    0 -0.44043758660E+02 -0.65412015549E+02  0.26696757206E+03  0.27837074017E+03  0.00000000000E+00 0.  1.
         11    1    3    3    0    0  0.15808184934E+02  0.14121739883E+02  0.21659336885E+02  0.30305925535E+02  0.00000000000E+00 0. -1.
        -11    1    4    4    0    0  0.31374899877E+01  0.63259720097E+02  0.11521884573E+03  0.13148010664E+03  0.00000000000E+00 0. -1.
         11    1    4    4    0    0  0.21943797791E+02  0.89297466168E+01 -0.12182835752E+02  0.26640047356E+02  0.00000000000E+00 0.  1.
         21    1    1    2  502  501  0.31542859470E+01 -0.20899191047E+02 -0.56483540258E+00  0.21143432675E+02  0.00000000000E+00 0.  1.
<scales pt_clust_5="13000.00000" pt_clust_6="13000.00000" pt_clust_7="13000.00000" pt_clust_8="13000.00000" pt_clust_9="21.13589"></scales>
<clustering>
<clus scale="   21.136">  2  9  1 -1</clus>
<clus scale="   92.440">  7  8 -1 -1</clus>
<clus scale="   92.455">  5  6 -1 -1</clus>
<clus scale="  111.935">  2  7  1 -1</clus>
<clus scale="   21.136">  2  5  1 -1</clus>
</clustering>
</event>
<event>
 9    1  0.1234700E-005  0.1519884E+03  0.7546771E-02  0.1203281E+00
         -3   -1    0    0    0  501 -0.00000000000E+00  0.00000000000E+00  0.31020719275E+03  0.31020719275E+03  0.00000000000E+00 0.  1.
          3   -1    0    0  502    0  0.00000000000E+00 -0.00000000000E+00 -0.12483127930E+03  0.12483127930E+03  0.00000000000E+00 0. -1.
         23    2    1    2    0    0 -0.18828394439E+01 -0.10991821971E+03  0.13350695376E+03  0.19589975584E+03  0.92016561170E+02 0.  0.
         23    2    1    2    0    0  0.16514574950E+02  0.86846926865E+02  0.10534947777E+03  0.17908425717E+03  0.11470631547E+03 0.  0.
        -13    1    4    4    0    0  0.10676430823E+02  0.33159139760E+02  0.11848968918E+03  0.12350433663E+03  0.00000000000E+00 0.  1.
         13    1    4    4    0    0  0.58381441266E+01  0.53687787105E+02 -0.13140211412E+02  0.55579920538E+02  0.00000000000E+00 0. -1.
        -13    1    3    3    0    0  0.31762869121E+02 -0.44545645833E+02  0.10233540201E+03  0.11604192743E+03  0.00000000000E+00 0.  1.
         13    1    3    3    0    0 -0.33645708565E+02 -0.65372573875E+02  0.31171551742E+02  0.79857828407E+02  0.00000000000E+00 0. -1.
         21    1    1    2  502  501 -0.14631735506E+02  0.23071292842E+02 -0.53480518075E+02  0.60054459043E+02  0.00000000000E+00 0. -1.
<scales pt_clust_5="13000.00000" pt_clust_6="13000.00000" pt_clust_7="13000.00000" pt_clust_8="13000.00000" pt_clust_9="27.31981"></scales>
<clustering>
<clus scale="   27.320">  2  9  1 -1</clus>
<clus scale="   92.017">  7  8 -1 -1</clus>
<clus scale="  114.706">  5  6 -1 -1</clus>
<clus scale="  135.683">  1  7  2 -1</clus>
<clus scale="   27.320">  2  5  1 -1</clus>
</clustering>
</event>
<event>
 9    1  0.1234700E-005  0.1063993E+03  0.7546771E-02  0.1269478E+00
          1   -1    0    0  502    0  0.00000000000E+00  0.00000000000E+00  0.66639107468E+02  0.66639107468E+02  0.00000000000E+00 0. -1.
         -1   -1    0    0    0  501 -0.00000000000E+00 -0.00000000000E+00 -0.72864765865E+03  0.72864765865E+03  0.00000000000E+00 0.  1.
         23    2    1    2    0    0  0.12547584629E+02 -0.43857753482E+02 -0.31036730371E+03  0.32759983833E+03  0.94407872757E+02 0.  0.
         23    2    1    2    0    0 -0.79790322124E+02 -0.43329754954E+01 -0.36468003988E+03  0.38393764593E+03  0.89617600354E+02 0.  0.
        -11    1    4    4    0    0 -0.56262915312E+02  0.36974066363E+02 -0.15593083622E+03  0.16984411355E+03  0.00000000000E+00 0.  1.
         11    1    4    4    0    0 -0.23527406812E+02 -0.41307041858E+02 -0.20874920366E+03  0.21409353238E+03  0.00000000000E+00 0. -1.
        -13    1    3    3    0    0 -0.26735445998E+00  0.29784184816E+02 -0.77335169713E+02  0.82872779718E+02  0.00000000000E+00 0.  1.
         13    1    3    3    0    0  0.12814939089E+02 -0.73641938297E+02 -0.23303213400E+03  0.24472705861E+03  0.00000000000E+00 0. -1.
         21    1    1    2  502  501  0.67242737495E+02  0.48190728977E+02  0.13038792408E+02  0.83749281863E+02  0.00000000000E+00 0. -1.
<scales pt_clust_5="13000.00000" pt_clust_6="13000.00000" pt_clust_7="13000.00000" pt_clust_8="13000.00000" pt_clust_9="82.72806"></scales>
<clustering>
<clus scale="   82.728">  1  9  2 -1</clus>
<clus scale="   89.618">  5  6 -1 -1</clus>
<clus scale="   94.408">  7  8 -1 -1</clus>
<clus scale="  102.173">  1  5  2 -1</clus>
<clus scale="   82.728">  1  5  2 -1</clus>
</clustering>
</event>
<event>
 9    1  0.1234700E-005  0.1359009E+03  0.7546771E-02  0.1220086E+00
         -1   -1    0    0    0  501 -0.00000000000E+00  0.00000000000E+00  0.11234386391E+03  0.11234386391E+03  0.00000000000E+00 0.  1.
          1   -1    0    0  502    0  0.00000000000E+00 -0.00000000000E+00 -0.24750178550E+03  0.24750178550E+03  0.00000000000E+00 0. -1.
         23    2    1    2    0    0 -0.91147379989E+01 -0.10323565916E+03  0.11707938205E+02  0.14229153498E+03  0.96794242283E+02 0.  0.
         23    2    1    2    0    0  0.26759248066E+02  0.77284174116E+02 -0.90136293186E+02  0.15272316472E+03  0.92254608384E+02 0.  0.
        -13    1    3    3    0    0  0.24956062028E+02 -0.95410123190E+02 -0.13014484394E+02  0.99474989033E+02  0.00000000000E+00 0.  1.
         13    1    3    3    0    0 -0.34070800027E+02 -0.78255359696E+01  0.24722422599E+02  0.42816545947E+02  0.00000000000E+00 0. -1.
        -13    1    4    4    0    0 -0.33582609108E+02  0.40414268061E+02 -0.36850890997E+02  0.64180159432E+02  0.00000000000E+00 0.  1.
         13    1    4    4    0    0  0.60341857174E+02  0.36869906055E+02 -0.53285402189E+02  0.88543005292E+02  0.00000000000E+00 0. -1.
         21    1    1    2  502  501 -0.17644510067E+02  0.25951485044E+02 -0.56729566614E+02  0.64830949705E+02  0.00000000000E+00 0. -1.
<scales pt_clust_5="13000.00000" pt_clust_6="13000.00000" pt_clust_7="13000.00000" pt_clust_8="13000.00000" pt_clust_9="31.38166"></scales>
<clustering>
<clus scale="   31.382">  2  9  1 -1</clus>
<clus scale="   92.255">  7  8 -1 -1</clus>
<clus scale="   96.794">  5  6 -1 -1</clus>
<clus scale="  132.706">  2  7  1 -1</clus>
<clus scale="   31.382">  2  5  1 -1</clus>
</clustering>
</event>
<event>
 9    1  0.1234700E-005  0.9185138E+02  0.7546771E-02  0.1299723E+00
          1   -1    0    0  502    0  0.00000000000E+00  0.00000000000E+00  0.29704283484E+03  0.29704283484E+03  0.00000000000E+00 0. -1.
         -1   -1    0    0    0  501 -0.00000000000E+00 -0.00000000000E+00 -0.86608209929E+02  0.86608209929E+02  0.00000000000E+00 0.  1.
         23    2    1    2    0    0 -0.42183908406E+01 -0.41812829712E+01 -0.40520553503E+02  0.10027123473E+03  0.91526648089E+02 0.  0.
         23    2    1    2    0    0  0.22462162141E+02 -0.77265620109E+01  0.12457152685E+03  0.15513216154E+03  0.89351405988E+02 0.  0.
        -13    1    3    3    0    0  0.26368191644E+02  0.29335906157E+02 -0.38085347830E+02  0.54830380629E+02  0.00000000000E+00 0.  1.
         13    1    3    3    0    0 -0.30586582485E+02 -0.33517189129E+02 -0.24352056736E+01  0.45440854106E+02  0.00000000000E+00 0. -1.
        -13    1    4    4    0    0  0.21230983826E+02 -0.45572770456E+02  0.47052564227E+02  0.68859101661E+02  0.00000000000E+00 0.  1.
         13    1    4    4    0    0  0.12311783147E+01  0.37846208445E+02  0.77518962625E+02  0.86273059875E+02  0.00000000000E+00 0. -1.
         21    1    1    2  502  501 -0.18243771300E+02  0.11907844982E+02  0.12638365156E+03  0.12824764850E+03  0.00000000000E+00 0. -1.
<scales pt_clust_5="13000.00000" pt_clust_6="13000.00000" pt_clust_7="13000.00000" pt_clust_8="13000.00000" pt_clust_9="21.78605"></scales>
<clustering>
<clus scale="   21.786">  1  9  2 -1</clus>
<clus scale="   89.351">  7  8 -1 -1</clus>
<clus scale="   89.684">  1  7  2 -1</clus>
<clus scale="   91.527">  5  6 -1 -1</clus>
<clus scale="   21.786">  1  5  2 -1</clus>
</clustering>
</event>
<event>
 9    1  0.1234700E-005  0.9952220E+02  0.7546771E-02  0.1287505E+00
          1   -1    0    0  502    0  0.00000000000E+00  0.00000000000E+00  0.40281871462E+03  0.40281871462E+03  0.00000000000E+00 0. -1.
         -1   -1    0    0    0  501 -0.00000000000E+00 -0.00000000000E+00 -0.18029820539E+03  0.18029820539E+03  0.00000000000E+00 0.  1.
         23    2    1    2    0    0  0.13932576608E+02  0.55896047752E+01 -0.15418378454E+03  0.18368608485E+03  0.98704498271E+02 0.  0.
         23    2    1    2    0    0  0.21113191151E+02  0.14354265430E+02  0.23467856913E+03  0.25179184894E+03  0.87597332194E+02 0.  0.
        -11    1    3    3    0    0  0.51386347966E+01  0.36648590688E+02 -0.14567699149E+03  0.15030406054E+03  0.00000000000E+00 0.  1.
         11    1    3    3    0    0  0.87939418112E+01 -0.31058985912E+02 -0.85067930497E+01  0.33382024302E+02  0.00000000000E+00 0. -1.
        -13    1    4    4    0    0  0.48436004797E+02 -0.63456798347E+01  0.83179322194E+02  0.96463018063E+02  0.00000000000E+00 0.  1.
         13    1    4    4    0    0 -0.27322813646E+02  0.20699945264E+02  0.15149924694E+03  0.15532883088E+03  0.00000000000E+00 0. -1.
         21    1    1    2  502  501 -0.35045767759E+02 -0.19943870205E+02  0.14202572463E+03  0.14763898623E+03  0.00000000000E+00 0. -1.
<scales pt_clust_5="13000.00000" pt_clust_6="13000.00000" pt_clust_7="13000.00000" pt_clust_8="13000.00000" pt_clust_9="40.32324"></scales>
<clustering>
<clus scale="   40.323">  1  9  2 -1</clus>
<clus scale="   87.597">  7  8 -1 -1</clus>
<clus scale="   88.518">  1  7  2 -1</clus>
<clus scale="   98.704">  5  6 -1 -1</clus>
<clus scale="   40.323">  1  5  2 -1</clus>
</clustering>
</event>
<event>
 9    1  0.1234700E-005  0.1030144E+03  0.7546771E-02  0.1274634E+00
         -1   -1    0    0    0  501 -0.00000000000E+00  0.00000000000E+00  0.70439266965E+02  0.70439266965E+02  0.00000000000E+00 0.  1.
          1   -1    0    0  502    0  0.00000000000E+00 -0.00000000000E+00 -0.19337871207E+03  0.19337871207E+03  0.00000000000E+00 0. -1.
         23    2    1    2    0    0  0.45730028388E+02  0.90598492547E+01 -0.27096470402E+02  0.10561211817E+03  0.90809605387E+02 0.  0.
         23    2    1    2    0    0 -0.38807462817E+02 -0.29616511247E+02 -0.79826224510E+02  0.13124228260E+03  0.92028005050E+02 0.  0.
        -11    1    3    3    0    0  0.64677395954E+02  0.15950263409E+02  0.59719316929E+01  0.66882287778E+02  0.00000000000E+00 0.  1.
         11    1    3    3    0    0 -0.18947367566E+02 -0.68904141538E+01 -0.33068402095E+02  0.38729830390E+02  0.00000000000E+00 0. -1.
        -13    1    4    4    0    0 -0.30422487368E+01 -0.50421464905E+02 -0.73796791502E+02  0.89428998857E+02  0.00000000000E+00 0.  1.
         13    1    4    4    0    0 -0.35765214080E+02  0.20804953658E+02 -0.60294330080E+01  0.41813283742E+02  0.00000000000E+00 0. -1.
         21    1    1    2  502  501 -0.69225655718E+01  0.20556661992E+02 -0.16016750197E+02  0.26963578272E+02  0.00000000000E+00 0.  1.
<scales pt_clust_5="13000.00000" pt_clust_6="13000.00000" pt_clust_7="13000.00000" pt_clust_8="13000.00000" pt_clust_9="21.69097"></scales>
<clustering>
<clus scale="   21.691">  2  9  1 -1</clus>
<clus scale="   90.810">  5  6 -1 -1</clus>
<clus scale="   92.028">  7  8 -1 -1</clus>
<clus scale="  101.927">  1  5  2 -1</clus>
<clus scale="   21.691">  2  5  1 -1</clus>
</clustering>
</event>
<event>
 9    1  0.1234700E-005  0.1040478E+03  0.7546771E-02  0.1275307E+00
         -1   -1    0    0    0  501 -0.00000000000E+00  0.00000000000E+00  0.23563880042E+03  0.23563880042E+03  0.00000000000E+00 0.  1.
          1   -1    0    0  502    0  0.00000000000E+00 -0.00000000000E+00 -0.13753289715E+03  0.13753289715E+03  0.00000000000E+00 0. -1.
         23    2    1    2    0    0 -0.36897986745E+02 -0.23562759955E+02  0.17507708794E+03  0.20292670764E+03  0.92793301874E+02 0.  0.
         23    2    1    2    0    0  0.40753558622E+02  0.61974964662E+02 -0.58250619337E+02  0.12734018283E+03  0.85560731213E+02 0.  0.
        -13    1    4    4    0    0  0.43693021581E+01  0.24151278559E+02  0.20990356715E+02  0.32295048110E+02  0.00000000000E+00 0.  1.
         13    1    4    4    0    0  0.36384256464E+02  0.37823686104E+02 -0.79240976053E+02  0.95045134724E+02  0.00000000000E+00 0. -1.
        -13    1    3    3    0    0 -0.38164972457E+02  0.89409712651E+01  0.16391454570E+03  0.16853629990E+03  0.00000000000E+00 0.  1.
         13    1    3    3    0    0  0.12669857122E+01 -0.32503731220E+02  0.11162542235E+02  0.34390407750E+02  0.00000000000E+00 0. -1.
         21    1    1    2  502  501 -0.38555718769E+01 -0.38412204707E+02 -0.18720565337E+02  0.42904807091E+02  0.00000000000E+00 0.  1.
<scales pt_clust_5="13000.00000" pt_clust_6="13000.00000" pt_clust_7="13000.00000" pt_clust_8="13000.00000" pt_clust_9="38.60522"></scales>
<clustering>
<clus scale="   38.605">  2  9  1 -1</clus>
<clus scale="   85.561">  5  6 -1 -1</clus>
<clus scale="   92.793">  7  8 -1 -1</clus>
<clus scale="   97.652">  2  5  1 -1</clus>
<clus scale="   38.605">  2  5  1 -1</clus>
</clustering>
</event>
<event>
 9    1  0.1234700E-005  0.1398451E+03  0.7546771E-02  0.1214388E+00
          1   -1    0    0  502    0  0.00000000000E+00  0.00000000000E+00  0.13772395662E+03  0.13772395662E+03  0.00000000000E+00 0. -1.
         -1   -1    0    0    0  501 -0.00000000000E+00 -0.00000000000E+00 -0.38748915419E+03  0.38748915419E+03  0.00000000000E+00 0.  1.
         23    2    1    2    0    0  0.19079205108E+02 -0.10209290416E+03 -0.29108177342E+03  0.32303598348E+03  0.94003567284E+02 0.  0.
         23    2    1    2    0    0  0.22993850481E+02  0.10656107791E+03 -0.21279651352E+01  0.14153444661E+03  0.90241292411E+02 0.  0.
        -11    1    3    3    0    0 -0.34204007295E+02 -0.35962680780E+02 -0.66841370899E+02  0.83252611897E+02  0.00000000000E+00 0. -1.
         11    1    3    3    0    0  0.53283212403E+02 -0.66130223385E+02 -0.22424040252E+03  0.23978337159E+03  0.00000000000E+00 0.  1.
        -11    1    4    4    0    0 -0.16009460734E+02  0.17225963846E+02  0.30704273549E+02  0.38675432481E+02  0.00000000000E+00 0. -1.
         11    1    4    4    0    0  0.39003311215E+02  0.89335114060E+02 -0.32832238684E+02  0.10285901412E+03  0.00000000000E+00 0.  1.
         21    1    1    2  502  501 -0.42073055589E+02 -0.44681737408E+01  0.43444540980E+02  0.60642680713E+02  0.00000000000E+00 0. -1.
<scales pt_clust_5="13000.00000" pt_clust_6="13000.00000" pt_clust_7="13000.00000" pt_clust_8="13000.00000" pt_clust_9="42.30965"></scales>
<clustering>
<clus scale="   42.310">  1  9  2 -1</clus>
<clus scale="   90.241">  7  8 -1 -1</clus>
<clus scale="   94.004">  5  6 -1 -1</clus>
<clus scale="  137.344">  1  7  2 -1</clus>
<clus scale="   42.310">  1  5  2 -1</clus>
</clustering>
</event>
<event>
 9    1  0.1234700E-005  0.1142549E+03  0.7546771E-02  0.1256146E+00
         -2   -1    0    0    0  501 -0.00000000000E+00  0.00000000000E+00  0.26871100008E+03  0.26871100008E+03  0.00000000000E+00 0.  1.
          2   -1    0    0  502    0  0.00000000000E+00 -0.00000000000E+00 -0.31420309580E+03  0.31420309580E+03  0.00000000000E+00 0. -1.
         23    2    1    2    0    0 -0.23745379592E+02 -0.54956983285E+02  0.24152537821E+03  0.26738293339E+03  0.97851988657E+02 0.  0.
         23    2    1    2    0    0  0.13655658789E+02  0.37266858775E+02 -0.27501518142E+03  0.29189225395E+03  0.89400459324E+02 0.  0.
        -13    1    4    4    0    0  0.48353535139E+02  0.13674777803E+02 -0.99971359752E+02  0.11188984172E+03  0.00000000000E+00 0. -1.
         13    1    4    4    0    0 -0.34697876350E+02  0.23592080972E+02 -0.17504382167E+03  0.18000241224E+03  0.00000000000E+00 0.  1.
        -13    1    3    3    0    0  0.31475363236E+02  0.18368274015E+01  0.40587357882E+02  0.51394611056E+02  0.00000000000E+00 0.  1.
         13    1    3    3    0    0 -0.55220742827E+02 -0.56793810687E+02  0.20093802033E+03  0.21598832234E+03  0.00000000000E+00 0. -1.
         21    1    1    2  502  501  0.10089720803E+02  0.17690124510E+02 -0.12002292515E+02  0.23638908534E+02  0.00000000000E+00 0. -1.
<scales pt_clust_5="13000.00000" pt_clust_6="13000.00000" pt_clust_7="13000.00000" pt_clust_8="13000.00000" pt_clust_9="20.36524"></scales>
<clustering>
<clus scale="   20.365">  2  9  1 -1</clus>
<clus scale="   89.400">  5  6 -1 -1</clus>
<clus scale="   97.852">  7  8 -1 -1</clus>
<clus scale="  107.106">  2  5  1 -1</clus>
<clus scale="   20.365">  2  5  1 -1</clus>
</clustering>
</event>
<event>
 9    1  0.1234700E-005  0.1759629E+03  0.7546771E-02  0.1171817E+00
         -1   -1    0    0    0  501 -0.00000000000E+00  0.00000000000E+00  0.77037009058E+02  0.77037009058E+02  0.00000000000E+00 0.  1.
          1   -1    0    0  502    0  0.00000000000E+00 -0.00000000000E+00 -0.66587701810E+03  0.66587701810E+03  0.00000000000E+00 0. -1.
         23    2    1    2    0    0  0.10393021733E+03  0.93881022298E+02 -0.15956583854E+03  0.23159859113E+03  0.92528450567E+02 0.  0.
         23    2    1    2    0    0 -0.96379948791E+02 -0.13023727797E+03 -0.17942829448E+03  0.25872536170E+03  0.92159952389E+02 0.  0.
        -11    1    4    4    0    0 -0.42400447131E+02 -0.11316782563E+03 -0.15629485893E+03  0.19756729892E+03  0.00000000000E+00 0. -1.
         11    1    4    4    0    0 -0.53979501660E+02 -0.17069452343E+02 -0.23133435552E+02  0.61158062782E+02  0.00000000000E+00 0.  1.
        -11    1    3    3    0    0  0.23097242301E+02  0.61229318596E+01  0.86094551265E+01  0.25398732528E+02  0.00000000000E+00 0.  1.
         11    1    3    3    0    0  0.80832975026E+02  0.87758090439E+02 -0.16817529366E+03  0.20619985860E+03  0.00000000000E+00 0. -1.
         21    1    1    2  502  501 -0.75502685363E+01  0.36356255673E+02 -0.24984587602E+03  0.25259007433E+03  0.00000000000E+00 0. -1.
<scales pt_clust_5="13000.00000" pt_clust_6="13000.00000" pt_clust_7="13000.00000" pt_clust_8="13000.00000" pt_clust_9="37.13198"></scales>
<clustering>
<clus scale="   37.132">  2  9  1 -1</clus>
<clus scale="   92.160">  5  6 -1 -1</clus>
<clus scale="   92.528">  7  8 -1 -1</clus>
<clus scale="  175.769">  2  5  1 -1</clus>
<clus scale="   37.132">  2  5  1 -1</clus>
</clustering>
</event>
<event>
 9    1  0.1234700E-005  0.1230307E+03  0.7546771E-02  0.1238400E+00
         -2   -1    0    0    0  501 -0.00000000000E+00  0.00000000000E+00  0.41051531005E+03  0.41051531005E+03  0.00000000000E+00 0. -1.
          2   -1    0    0  502    0  0.00000000000E+00 -0.00000000000E+00 -0.67456935746E+02  0.67456935746E+02  0.00000000000E+00 0.  1.
         23    2    1    2    0    0 -0.93411225741E+02  0.15109527204E+02  0.28524848667E+03  0.31429466492E+03  0.91980880328E+02 0.  0.
         23    2    1    2    0    0  0.46723716988E+02 -0.24227350239E+02  0.43896982823E+02  0.11411522529E+03  0.91242913772E+02 0.  0.
        -11    1    4    4    0    0  0.15545442861E+02  0.33232552883E+02  0.29734437404E+02  0.47224994787E+02  0.00000000000E+00 0. -1.
         11    1    4    4    0    0  0.31178274127E+02 -0.57459903122E+02  0.14162545419E+02  0.66890230506E+02  0.00000000000E+00 0.  1.
        -11    1    3    3    0    0 -0.15950976234E+01 -0.26460730827E+02  0.30946680262E+02  0.40748148811E+02  0.00000000000E+00 0.  1.
         11    1    3    3    0    0 -0.91816128117E+02  0.41570258031E+02  0.25430180641E+03  0.27354651611E+03  0.00000000000E+00 0. -1.
         21    1    1    2  502  501  0.46687508752E+02  0.91178230358E+01  0.13912904812E+02  0.49562355581E+02  0.00000000000E+00 0.  1.
<scales pt_clust_5="13000.00000" pt_clust_6="13000.00000" pt_clust_7="13000.00000" pt_clust_8="13000.00000" pt_clust_9="47.56951"></scales>
<clustering>
<clus scale="   47.570">  2  9  1 -1</clus>
<clus scale="   91.243">  5  6 -1 -1</clus>
<clus scale="   91.981">  7  8 -1 -1</clus>
<clus scale="  122.480">  2  5  1 -1</clus>
<clus scale="   47.570">  2  5  1 -1</clus>
</clustering>
</event>
<event>
 9    1  0.1234700E-005  0.1076932E+03  0.7546771E-02  0.1270979E+00
          1   -1    0    0  502    0  0.00000000000E+00  0.00000000000E+00  0.31578996424E+03  0.31578996424E+03  0.00000000000E+00 0. -1.
         -1   -1    0    0    0  501 -0.00000000000E+00 -0.00000000000E+00 -0.95324578802E+02  0.95324578802E+02  0.00000000000E+00 0.  1.
         23    2    1    2    0    0  0.93022958703E+01 -0.29347215086E+02 -0.36916640669E+02  0.11465547050E+03  0.10409249163E+03 0.  0.
         23    2    1    2    0    0  0.21136425288E+02  0.21388347418E+02  0.11243471847E+03  0.14813651421E+03  0.91644154454E+02 0.  0.
        -11    1    3    3    0    0 -0.38880672675E+02 -0.19910498764E+02  0.12049186625E+02  0.45313547279E+02  0.00000000000E+00 0.  1.
         11    1    3    3    0    0  0.48182968545E+02 -0.94367163218E+01 -0.48965827294E+02  0.69341923216E+02  0.00000000000E+00 0. -1.
        -13    1    4    4    0    0  0.26681872648E+02 -0.77257297784E+01 -0.39321193391E+01  0.28054781965E+02  0.00000000000E+00 0.  1.
         13    1    4    4    0    0 -0.55454473593E+01  0.29114077196E+02  0.11636683781E+03  0.12008173224E+03  0.00000000000E+00 0. -1.
         21    1    1    2  502  501 -0.30438721159E+02  0.79588676683E+01  0.14494730764E+03  0.14832255834E+03  0.00000000000E+00 0. -1.
<scales pt_clust_5="13000.00000" pt_clust_6="13000.00000" pt_clust_7="13000.00000" pt_clust_8="13000.00000" pt_clust_9="31.46203"></scales>
<clustering>
<clus scale="   31.462">  1  9  2 -1</clus>
<clus scale="   91.644">  7  8 -1 -1</clus>
<clus scale="   95.714">  1  7  2 -1</clus>
<clus scale="  104.092">  5  6 -1 -1</clus>
<clus scale="   31.462">  1  5  2 -1</clus>
</clustering>
</event>
<event>
 9    1  0.1234700E-005  0.9836472E+02  0.7546771E-02  0.1286736E+00
         -1   -1    0    0    0  501 -0.00000000000E+00  0.00000000000E+00  0.13033075806E+03  0.13033075806E+03  0.00000000000E+00 0.  1.
          1   -1    0    0  502    0  0.00000000000E+00 -0.00000000000E+00 -0.12479951316E+03  0.12479951316E+03  0.00000000000E+00 0. -1.
         23    2    1    2    0    0 -0.11203705591E+02  0.57173883063E+01  0.40375981389E+02  0.10387209218E+03  0.94873495307E+02 0.  0.
         23    2    1    2    0    0  0.35187521426E+02 -0.32618407117E+02 -0.37501223696E+00  0.10138784592E+03  0.89315354335E+02 0.  0.
        -13    1    3    3    0    0  0.38405049713E+02 -0.10042114128E+02  0.32342927676E+02  0.51204070837E+02  0.00000000000E+00 0.  1.
         13    1    3    3    0    0 -0.49608755304E+02  0.15759502434E+02  0.80330537126E+01  0.52668021339E+02  0.00000000000E+00 0. -1.
        -13    1    4    4    0    0  0.38272727543E+02 -0.55261609583E+02  0.20664140906E+02  0.70325343132E+02  0.00000000000E+00 0. -1.
         13    1    4    4    0    0 -0.30852061172E+01  0.22643202467E+02 -0.21039153142E+02  0.31062502792E+02  0.00000000000E+00 0.  1.
         21    1    1    2  502  501 -0.23983815834E+02  0.26901018810E+02 -0.34469724253E+02  0.49870333116E+02  0.00000000000E+00 0. -1.
<scales pt_clust_5="13000.00000" pt_clust_6="13000.00000" pt_clust_7="13000.00000" pt_clust_8="13000.00000" pt_clust_9="36.04009"></scales>
<clustering>
<clus scale="   36.040">  2  9  1 -1</clus>
<clus scale="   89.315">  7  8 -1 -1</clus>
<clus scale="   93.015">  2  7  1 -1</clus>
<clus scale="   94.873">  5  6 -1 -1</clus>
<clus scale="   36.040">  2  5  1 -1</clus>
</clustering>
</event>
<event>
 9    1  0.1234700E-005  0.1043348E+03  0.7546771E-02  0.1271854E+00
          2   -1    0    0  502    0  0.00000000000E+00  0.00000000000E+00  0.44183355465E+03  0.44183355465E+03  0.00000000000E+00 0. -1.
         -2   -1    0    0    0  501 -0.00000000000E+00 -0.00000000000E+00 -0.41206455288E+02  0.41206455288E+02  0.00000000000E+00 0.  1.
         23    2    1    2    0    0  0.59713261107E+02 -0.49866622298E+01  0.10684245755E+03  0.15394206839E+03  0.93232555115E+02 0.  0.
         23    2    1    2    0    0 -0.30066629952E+02  0.14500087370E+02  0.13280267339E+03  0.16513263377E+03  0.92292913629E+02 0.  0.
        -11    1    3    3    0    0  0.38746158976E+02 -0.33709003706E+02  0.12125129421E+02  0.52769124777E+02  0.00000000000E+00 0.  1.
         11    1    3    3    0    0  0.20967102130E+02  0.28722341476E+02  0.94717328132E+02  0.10117294362E+03  0.00000000000E+00 0. -1.
        -11    1    4    4    0    0 -0.31768530484E+01 -0.36669961854E+02  0.74147220576E+02  0.82780364923E+02  0.00000000000E+00 0.  1.
         11    1    4    4    0    0 -0.26889776904E+02  0.51170049224E+02  0.58655452810E+02  0.82352268845E+02  0.00000000000E+00 0. -1.
         21    1    1    2  502  501 -0.29646631155E+02 -0.95134251398E+01  0.16098196842E+03  0.16396530778E+03  0.00000000000E+00 0. -1.
<scales pt_clust_5="13000.00000" pt_clust_6="13000.00000" pt_clust_7="13000.00000" pt_clust_8="13000.00000" pt_clust_9="31.13564"></scales>
<clustering>
<clus scale="   31.136">  1  9  2 -1</clus>
<clus scale="   92.293">  7  8 -1 -1</clus>
<clus scale="   93.233">  5  6 -1 -1</clus>
<clus scale="  103.496">  1  7  2 -1</clus>
<clus scale="   31.136">  1  5  2 -1</clus>
</clustering>
</event>
<event>
 9    1  0.1234700E-005  0.1247263E+03  0.7546771E-02  0.1236345E+00
         -2   -1    0    0    0  501 -0.00000000000E+00  0.00000000000E+00  0.49589648293E+02  0.49589648293E+02  0.00000000000E+00 0.  1.
          2   -1    0    0  502    0  0.00000000000E+00 -0.00000000000E+00 -0.46256930940E+03  0.46256930940E+03  0.00000000000E+00 0. -1.
         23    2    1    2    0    0  0.35519516894E+02 -0.78858426555E+02 -0.76496673598E+02  0.14876455753E+03  0.93802265364E+02 0.  0.
         23    2    1    2    0    0 -0.16271356405E+02  0.70306721956E+02 -0.27995957032E+03  0.30307425407E+03  0.90933218759E+02 0.  0.
        -11    1    4    4    0    0 -0.45997530534E+02  0.75137896097E+01 -0.11415727035E+03  0.12330495620E+03  0.00000000000E+00 0.  1.
         11    1    4    4    0    0  0.29726174129E+02  0.62792932347E+02 -0.16580229996E+03  0.17976929786E+03  0.00000000000E+00 0. -1.
        -13    1    3    3    0    0  0.59299450439E+02 -0.40526925030E+02 -0.16489674978E+02  0.73693730097E+02  0.00000000000E+00 0.  1.
         13    1    3    3    0    0 -0.23779933545E+02 -0.38331501525E+02 -0.60006998621E+02  0.75070827436E+02  0.00000000000E+00 0. -1.
         21    1    1    2  502  501 -0.19248160489E+02  0.85517045988E+01 -0.56523417190E+02  0.60320146092E+02  0.00000000000E+00 0. -1.
<scales pt_clust_5="13000.00000" pt_clust_6="13000.00000" pt_clust_7="13000.00000" pt_clust_8="13000.00000" pt_clust_9="21.06237"></scales>
<clustering>
<clus scale="   21.062">  2  9  1 -1</clus>
<clus scale="   90.933">  5  6 -1 -1</clus>
<clus scale="   93.802">  7  8 -1 -1</clus>
<clus scale="  122.583">  2  5  1 -1</clus>
<clus scale="   21.062">  2  5  1 -1</clus>
</clustering>
</event>
<event>
 9    1  0.1234700E-005  0.9389111E+02  0.7546771E-02  0.1296036E+00
          2   -1    0    0  502    0  0.00000000000E+00  0.00000000000E+00  0.19743257162E+03  0.19743257162E+03  0.00000000000E+00 0. -1.
         -2   -1    0    0    0  501 -0.00000000000E+00 -0.00000000000E+00 -0.22264711375E+03  0.22264711375E+03  0.00000000000E+00 0.  1.
         23    2    1    2    0    0 -0.22107220175E+02 -0.43702812061E+02 -0.10804664937E+03  0.14595061454E+03  0.85022576280E+02 0.  0.
         23    2    1    2    0    0 -0.15438256368E+02  0.34954655895E+02 -0.71968041707E+02  0.11460076877E+03  0.80583927964E+02 0.  0.
        -11    1    3    3    0    0  0.14784719807E+02 -0.40640603909E+02 -0.98716975985E+02  0.10777424541E+03  0.00000000000E+00 0. -1.
         11    1    3    3    0    0 -0.36891939982E+02 -0.30622081523E+01 -0.93296733894E+01  0.38176369130E+02  0.00000000000E+00 0.  1.
        -13    1    4    4    0    0  0.30142829626E+02  0.16279201932E+02 -0.10500444782E+02  0.35831019160E+02  0.00000000000E+00 0. -1.
         13    1    4    4    0    0 -0.45581085995E+02  0.18675453963E+02 -0.61467596925E+02  0.78769749606E+02  0.00000000000E+00 0.  1.
         21    1    1    2  502  501  0.37545476543E+02  0.87481561656E+01  0.15480014896E+03  0.15952830207E+03  0.00000000000E+00 0. -1.
<scales pt_clust_5="13000.00000" pt_clust_6="13000.00000" pt_clust_7="13000.00000" pt_clust_8="13000.00000" pt_clust_9="38.55117"></scales>
<clustering>
<clus scale="   38.551">  1  9  2 -1</clus>
<clus scale="   80.584">  7  8 -1 -1</clus>
<clus scale="   85.023">  5  6 -1 -1</clus>
<clus scale="   89.891">  1  7  2 -1</clus>
<clus scale="   38.551">  1  5  2 -1</clus>
</clustering>
</event>
<event>
 9    1  0.1234700E-005  0.1162582E+03  0.7546771E-02  0.1249708E+00
         -2   -1    0    0    0  501 -0.00000000000E+00  0.00000000000E+00  0.41840814250E+02  0.41840814250E+02  0.00000000000E+00 0.  1.
          2   -1    0    0  502    0  0.00000000000E+00 -0.00000000000E+00 -0.68000543141E+03  0.68000543141E+03  0.00000000000E+00 0. -1.
         23    2    1    2    0    0  0.72805113421E+01 -0.66433680751E+02 -0.82207824070E+02  0.14089447818E+03  0.92879964793E+02 0.  0.
         23    2    1    2    0    0 -0.47168553695E+02  0.69832885619E+02 -0.46039195171E+03  0.47734071872E+03  0.93765175726E+02 0.  0.
        -11    1    4    4    0    0 -0.24673054160E+02 -0.40479822030E+01 -0.25753171738E+02  0.35893893855E+02  0.00000000000E+00 0.  1.
         11    1    4    4    0    0 -0.22495499535E+02  0.73880867822E+02 -0.43463877997E+03  0.44144682486E+03  0.00000000000E+00 0. -1.
        -11    1    3    3    0    0 -0.25678341233E+02 -0.75883274314E+02 -0.56126678214E+02  0.97815400303E+02  0.00000000000E+00 0.  1.
         11    1    3    3    0    0  0.32958852576E+02  0.94495935633E+01 -0.26081145856E+02  0.43079077878E+02  0.00000000000E+00 0. -1.
         21    1    1    2  502  501  0.39888042353E+02 -0.33992048681E+01 -0.95564841385E+02  0.10361104876E+03  0.00000000000E+00 0. -1.
<scales pt_clust_5="13000.00000" pt_clust_6="13000.00000" pt_clust_7="13000.00000" pt_clust_8="13000.00000" pt_clust_9="40.03262"></scales>
<clustering>
<clus scale="   40.033">  2  9  1 -1</clus>
<clus scale="   92.880">  7  8 -1 -1</clus>
<clus scale="   93.765">  5  6 -1 -1</clus>
<clus scale="  115.545">  1  7  2 -1</clus>
<clus scale="   40.033">  2  5  1 -1</clus>
</clustering>
</event>
<event>
 9    1  0.1234700E-005  0.1158501E+03  0.7546771E-02  0.1250501E+00
         -1   -1    0    0    0  501 -0.00000000000E+00  0.00000000000E+00  0.20283628959E+03  0.20283628959E+03  0.00000000000E+00 0.  1.
          1   -1    0    0  502    0  0.00000000000E+00 -0.00000000000E+00 -0.91124309889E+02  0.91124309889E+02  0.00000000000E+00 0. -1.
         23    2    1    2    0    0  0.46045678840E+02  0.66424256627E+02  0.92480847880E+02  0.15367165138E+03  0.92357364653E+02 0.  0.
         23    2    1    2    0    0 -0.43442541727E+02 -0.34542978411E+02  0.18016067931E+02  0.10827850287E+03  0.91209559203E+02 0.  0.
        -11    1    3    3    0    0 -0.27363279333E+02  0.79381121142E+01  0.26787940261E+02  0.39106986885E+02  0.00000000000E+00 0.  1.
         11    1    3    3    0    0  0.73408958173E+02  0.58486144513E+02  0.65692907618E+02  0.11456466450E+03  0.00000000000E+00 0. -1.
        -13    1    4    4    0    0  0.17297865621E+02 -0.33266028882E+02 -0.13482127006E+02  0.39844856396E+02  0.00000000000E+00 0. -1.
         13    1    4    4    0    0 -0.60740407348E+02 -0.12769495291E+01  0.31498194937E+02  0.68433646470E+02  0.00000000000E+00 0.  1.
         21    1    1    2  502  501 -0.26031371131E+01 -0.31881278216E+02  0.12150638906E+01  0.32010445229E+02  0.00000000000E+00 0. -1.
<scales pt_clust_5="13000.00000" pt_clust_6="13000.00000" pt_clust_7="13000.00000" pt_clust_8="13000.00000" pt_clust_9="31.98738"></scales>
<clustering>
<clus scale="   31.987">  2  9  1 -1</clus>
<clus scale="   91.210">  7  8 -1 -1</clus>
<clus scale="   92.357">  5  6 -1 -1</clus>
<clus scale="  114.937">  2  7  1 -1</clus>
<clus scale="   31.987">  2  5  1 -1</clus>
</clustering>
</event>
<event>
 9    1  0.1234700E-005  0.1084003E+03  0.7546771E-02  0.1264152E+00
          1   -1    0    0  502    0  0.00000000000E+00  0.00000000000E+00  0.31087185548E+03  0.31087185548E+03  0.00000000000E+00 0. -1.
         -1   -1    0    0    0  501 -0.00000000000E+00 -0.00000000000E+00 -0.59339294225E+02  0.59339294225E+02  0.00000000000E+00 0.  1.
         23    2    1    2    0    0 -0.52306039128E+02  0.17973755943E+02  0.47866738051E+02  0.11795611792E+03  0.92538875679E+02 0.  0.
         23    2    1    2    0    0  0.61680224123E+02  0.77196361760E+01  0.11439775545E+03  0.15889115406E+03  0.91079687942E+02 0.  0.
        -11    1    4    4    0    0 -0.15865254713E+02  0.25343811773E+02  0.40434284582E+02  0.50288631637E+02  0.00000000000E+00 0. -1.
         11    1    4    4    0    0  0.77545478837E+02 -0.17624175597E+02  0.73963470864E+02  0.10860252242E+03  0.00000000000E+00 0.  1.
        -13    1    3    3    0    0  0.16857176493E+02  0.23444265456E+02  0.38231831673E+02  0.47911073200E+02  0.00000000000E+00 0.  1.
         13    1    3    3    0    0 -0.69163215621E+02 -0.54705095130E+01  0.96349063780E+01  0.70045044723E+02  0.00000000000E+00 0. -1.
         21    1    1    2  502  501 -0.93741849952E+01 -0.25693392119E+02  0.89268067757E+02  0.93363877725E+02  0.00000000000E+00 0.  1.
<scales pt_clust_5="13000.00000" pt_clust_6="13000.00000" pt_clust_7="13000.00000" pt_clust_8="13000.00000" pt_clust_9="27.35006"></scales>
<clustering>
<clus scale="   27.350">  1  9  2 -1</clus>
<clus scale="   91.080">  5  6 -1 -1</clus>
<clus scale="   92.539">  7  8 -1 -1</clus>
<clus scale="  107.157">  1  5  2 -1</clus>
<clus scale="   27.350">  1  5  2 -1</clus>
</clustering>
</event>
<event>
 9    1  0.1234700E-005  0.9319672E+02  0.7546771E-02  0.1296298E+00
         -1   -1    0    0    0  501 -0.00000000000E+00  0.00000000000E+00  0.30367929578E+02  0.30367929578E+02  0.00000000000E+00 0.  1.
          1   -1    0    0  502    0  0.00000000000E+00 -0.00000000000E+00 -0.49195848017E+03  0.49195848017E+03  0.00000000000E+00 0. -1.
         23    2    1    2    0    0 -0.23652080264E+02 -0.62344354137E+01 -0.13136495593E+03  0.16056845567E+03  0.89034758515E+02 0.  0.
         23    2    1    2    0    0  0.79787644042E+01 -0.37719887283E+02 -0.19191245102E+03  0.21578480238E+03  0.90808818413E+02 0.  0.
        -11    1    4    4    0    0 -0.11365622082E+02 -0.56019039994E+02 -0.67019692978E+02  0.88084899126E+02  0.00000000000E+00 0.  1.
         11    1    4    4    0    0  0.19344386486E+02  0.18299152711E+02 -0.12489275804E+03  0.12769990325E+03  0.00000000000E+00 0. -1.
        -13    1    3    3    0    0  0.24970253285E+02  0.23207849306E+02 -0.36235897705E+02  0.49750960805E+02  0.00000000000E+00 0. -1.
         13    1    3    3    0    0 -0.48622333549E+02 -0.29442284720E+02 -0.95129058224E+02  0.11081749486E+03  0.00000000000E+00 0.  1.
         21    1    1    2  502  501  0.15673315860E+02  0.43954322697E+02 -0.13831314364E+03  0.14597315170E+03  0.00000000000E+00 0.  1.
<scales pt_clust_5="13000.00000" pt_clust_6="13000.00000" pt_clust_7="13000.00000" pt_clust_8="13000.00000" pt_clust_9="46.66514"></scales>
<clustering>
<clus scale="   46.665">  2  9  1 -1</clus>
<clus scale="   89.035">  7  8 -1 -1</clus>
<clus scale="   90.809">  5  6 -1 -1</clus>
<clus scale="   91.469">  1  7  2 -1</clus>
<clus scale="   46.665">  2  5  1 -1</clus>
</clustering>
</event>
<event>
 9    1  0.1234700E-005  0.1183971E+03  0.7546771E-02  0.1256181E+00
         -1   -1    0    0    0  501 -0.00000000000E+00  0.00000000000E+00  0.53817430101E+02  0.53817430101E+02  0.00000000000E+00 0.  1.
          1   -1    0    0  502    0  0.00000000000E+00 -0.00000000000E+00 -0.42206430097E+03  0.42206430097E+03  0.00000000000E+00 0. -1.
         23    2    1    2    0    0 -0.15953775976E+01  0.49130685550E+02 -0.69223755852E+02  0.12416740211E+03  0.90604888826E+02 0.  0.
         23    2    1    2    0    0 -0.33108342077E+02  0.52169091694E+01 -0.16852038111E+03  0.20615000378E+03  0.11390929177E+03 0.  0.
        -11    1    3    3    0    0 -0.16896245631E+02  0.66559013161E+02 -0.22943925919E+02  0.72401720187E+02  0.00000000000E+00 0.  1.
         11    1    3    3    0    0  0.15300868034E+02 -0.17428327611E+02 -0.46279829933E+02  0.51765681919E+02  0.00000000000E+00 0. -1.
        -13    1    4    4    0    0 -0.37799581726E+02 -0.20577449100E+02 -0.17410404180E+03  0.17934452086E+03  0.00000000000E+00 0. -1.
         13    1    4    4    0    0  0.46912396484E+01  0.25794358269E+02  0.55836606871E+01  0.26805482921E+02  0.00000000000E+00 0.  1.
         21    1    1    2  502  501  0.34703719675E+02 -0.54347594720E+02 -0.13050273390E+03  0.14556432519E+03  0.00000000000E+00 0. -1.
<scales pt_clust_5="13000.00000" pt_clust_6="13000.00000" pt_clust_7="13000.00000" pt_clust_8="13000.00000" pt_clust_9="64.48263"></scales>
<clustering>
<clus scale="   64.483">  2  9  1 -1</clus>
<clus scale="   90.605">  5  6 -1 -1</clus>
<clus scale="   96.186">  1  5  2 -1</clus>
<clus scale="  113.909">  7  8 -1 -1</clus>
<clus scale="   64.483">  2  5  1 -1</clus>
</clustering>
</event>
<event>
 9    1  0.1234700E-005  0.9585527E+02  0.7546771E-02  0.1289827E+00
         -2   -1    0    0    0  501 -0.00000000000E+00  0.00000000000E+00  0.26028137045E+02  0.26028137045E+02  0.00000000000E+00 0.  1.
          2   -1    0    0  502    0  0.00000000000E+00 -0.00000000000E+00 -0.44573869180E+03  0.44573869180E+03  0.00000000000E+00 0. -1.
         23    2    1    2    0    0 -0.19833751378E+02  0.15354151649E+02 -0.15654504352E+03  0.18265287606E+03  0.90700577803E+02 0.  0.
         23    2    1    2    0    0  0.34968736359E+02 -0.93518761553E-01 -0.21810604249E+03  0.23919090791E+03  0.91756326147E+02 0.  0.
        -11    1    4    4    0    0  0.33078957103E+02 -0.40925047574E+02 -0.15775723459E+03  0.16630220079E+03  0.00000000000E+00 0.  1.
         11    1    4    4    0    0  0.18897792558E+01  0.40831528812E+02 -0.60348807900E+02  0.72888707121E+02  0.00000000000E+00 0. -1.
        -13    1    3    3    0    0  0.24724780562E+02 -0.23218233702E+02 -0.43424271033E+02  0.55100530532E+02  0.00000000000E+00 0.  1.
         13    1    3    3    0    0 -0.44558531940E+02  0.38572385351E+02 -0.11312077249E+03  0.12755234553E+03  0.00000000000E+00 0. -1.
         21    1    1    2  502  501 -0.15134984981E+02 -0.15260632887E+02 -0.45059468739E+02  0.49923044875E+02  0.00000000000E+00 0.  1.
<scales pt_clust_5="13000.00000" pt_clust_6="13000.00000" pt_clust_7="13000.00000" pt_clust_8="13000.00000" pt_clust_9="21.49313"></scales>
<clustering>
<clus scale="   21.493">  2  9  1 -1</clus>
<clus scale="   90.701">  7  8 -1 -1</clus>
<clus scale="   91.756">  5  6 -1 -1</clus>
<clus scale="   94.845">  1  7  2 -1</clus>
<clus scale="   21.493">  2  5  1 -1</clus>
</clustering>
</event>
<event>
 9    1  0.1234700E-005  0.1244258E+03  0.7546771E-02  0.1236229E+00
          2   -1    0    0  502    0  0.00000000000E+00  0.00000000000E+00  0.31934538586E+03  0.31934538586E+03  0.00000000000E+00 0. -1.
         -2   -1    0    0    0  501 -0.00000000000E+00 -0.00000000000E+00 -0.30211172736E+03  0.30211172736E+03  0.00000000000E+00 0.  1.
         23    2    1    2    0    0  0.47401915914E+02  0.59794856591E+02 -0.20112597519E+03  0.23375690858E+03  0.91478237330E+02 0.  0.
         23    2    1    2    0    0 -0.14356134810E+02 -0.14045968928E+03  0.18592958262E+02  0.16974249430E+03  0.92367707307E+02 0.  0.
        -11    1    3    3    0    0  0.39493240119E+02  0.38199848022E+02 -0.20335914009E+03  0.21065109604E+03  0.00000000000E+00 0.  1.
         11    1    3    3    0    0  0.79086757948E+01  0.21595008569E+02  0.22331648945E+01  0.23105812545E+02  0.00000000000E+00 0. -1.
        -11    1    4    4    0    0  0.18063964861E+02 -0.12607541056E+03 -0.44601528305E+01  0.12744100179E+03  0.00000000000E+00 0.  1.
         11    1    4    4    0    0 -0.32420099672E+02 -0.14384278722E+02  0.23053111092E+02  0.42301492504E+02  0.00000000000E+00 0. -1.
         21    1    1    2  502  501 -0.33045781103E+02  0.80664832691E+02  0.19976667544E+03  0.21795771034E+03  0.00000000000E+00 0. -1.
<scales pt_clust_5="13000.00000" pt_clust_6="13000.00000" pt_clust_7="13000.00000" pt_clust_8="13000.00000" pt_clust_9="87.17132"></scales>
<clustering>
<clus scale="   87.171">  1  9  2 -1</clus>
<clus scale="   91.478">  5  6 -1 -1</clus>
<clus scale="   92.368">  7  8 -1 -1</clus>
<clus scale="  123.767">  2  5  1 -1</clus>
<clus scale="   87.171">  1  5  2 -1</clus>
</clustering>
</event>
<event>
 9    1  0.1234700E-005  0.1122191E+03  0.7546771E-02  0.1256674E+00
          3   -1    0    0  502    0  0.00000000000E+00  0.00000000000E+00  0.37833774744E+03  0.37833774744E+03  0.00000000000E+00 0. -1.
         -3   -1    0    0    0  501 -0.00000000000E+00 -0.00000000000E+00 -0.12102325808E+03  0.12102325808E+03  0.00000000000E+00 0.  1.
         23    2    1    2    0    0 -0.41877810106E+02 -0.37382255378E+02 -0.47367938259E+02  0.11752973513E+03  0.91751474478E+02 0.  0.
         23    2    1    2    0    0  0.76118717274E+02  0.52882883909E+02  0.77261715446E+02  0.15132554478E+03  0.91320256784E+02 0.  0.
        -13    1    3    3    0    0 -0.21796881522E+02  0.30094560442E+02 -0.16089526291E+02  0.40492708831E+02  0.00000000000E+00 0. -1.
         13    1    3    3    0    0 -0.20080928584E+02 -0.67476815819E+02 -0.31278411969E+02  0.77037026300E+02  0.00000000000E+00 0.  1.
        -13    1    4    4    0    0  0.83591719016E+02  0.20994609866E+02  0.25161110521E+02  0.89785469950E+02  0.00000000000E+00 0. -1.
         13    1    4    4    0    0 -0.74730017420E+01  0.31888274043E+02  0.52100604925E+02  0.61540074829E+02  0.00000000000E+00 0.  1.
         21    1    1    2  502  501 -0.34240907169E+02 -0.15500628531E+02  0.22742071217E+03  0.23050572560E+03  0.00000000000E+00 0. -1.
<scales pt_clust_5="13000.00000" pt_clust_6="13000.00000" pt_clust_7="13000.00000" pt_clust_8="13000.00000" pt_clust_9="37.58602"></scales>
<clustering>
<clus scale="   37.586">  1  9  2 -1</clus>
<clus scale="   91.320">  7  8 -1 -1</clus>
<clus scale="   91.751">  5  6 -1 -1</clus>
<clus scale="  111.867">  1  7  2 -1</clus>
<clus scale="   37.586">  1  5  2 -1</clus>
</clustering>
</event>
<event>
 9    1  0.1234700E-005  0.9298375E+02  0.7546771E-02  0.1296401E+00
          1   -1    0    0  502    0  0.00000000000E+00  0.00000000000E+00  0.11375164301E+03  0.11375164301E+03  0.00000000000E+00 0. -1.
         -1   -1    0    0    0  501 -0.00000000000E+00 -0.00000000000E+00 -0.23478021788E+03  0.23478021788E+03  0.00000000000E+00 0.  1.
         23    2    1    2    0    0  0.28253054047E+02  0.75786030199E+01 -0.16541469321E+03  0.19031386279E+03  0.89452084129E+02 0.  0.
         23    2    1    2    0    0  0.27215355448E+02 -0.15593521135E+02  0.28159798543E+02  0.99871817261E+02  0.90540444860E+02 0.  0.
        -13    1    4    4    0    0  0.52140541652E+02 -0.50423308539E+01  0.44086954697E+02  0.68466931863E+02  0.00000000000E+00 0.  1.
         13    1    4    4    0    0 -0.24925186204E+02 -0.10551190281E+02 -0.15927156155E+02  0.31404885398E+02  0.00000000000E+00 0. -1.
        -13    1    3    3    0    0 -0.54359833728E+01 -0.29173558408E+02 -0.18026889918E+02  0.34721969781E+02  0.00000000000E+00 0. -1.
         13    1    3    3    0    0  0.33689037420E+02  0.36752161428E+02 -0.14738780329E+03  0.15559189301E+03  0.00000000000E+00 0.  1.
         21    1    1    2  502  501 -0.55468409496E+02  0.80149181146E+01  0.16226319790E+02  0.58346180837E+02  0.00000000000E+00 0. -1.
<scales pt_clust_5="13000.00000" pt_clust_6="13000.00000" pt_clust_7="13000.00000" pt_clust_8="13000.00000" pt_clust_9="56.04448"></scales>
<clustering>
<clus scale="   56.044">  1  9  2 -1</clus>
<clus scale="   89.452">  7  8 -1 -1</clus>
<clus scale="   90.540">  5  6 -1 -1</clus>
<clus scale="   91.924">  2  7  1 -1</clus>
<clus scale="   56.044">  1  5  2 -1</clus>
</clustering>
</event>
<event>
 9    1  0.1234700E-005  0.9314563E+02  0.7546771E-02  0.1297628E+00
         -1   -1    0    0    0  501 -0.00000000000E+00  0.00000000000E+00  0.36652579108E+02  0.36652579108E+02  0.00000000000E+00 0.  1.
          1   -1    0    0  502    0  0.00000000000E+00 -0.00000000000E+00 -0.30745182055E+03  0.30745182055E+03  0.00000000000E+00 0. -1.
         23    2    1    2    0    0  0.77316630459E+00  0.32344058060E+02 -0.91956128819E+02  0.13299085461E+03  0.90464920856E+02 0.  0.
         23    2    1    2    0    0 -0.60538022842E+01 -0.88590264724E+01 -0.12868027623E+03  0.15547415270E+03  0.86593693743E+02 0.  0.
        -13    1    3    3    0    0 -0.18612794526E+02  0.21183619944E+02 -0.10388202899E+03  0.10764133881E+03  0.00000000000E+00 0. -1.
         13    1    3    3    0    0  0.19385960830E+02  0.11160438115E+02  0.11925900175E+02  0.25349515798E+02  0.00000000000E+00 0.  1.
        -13    1    4    4    0    0 -0.31714095412E+02 -0.36951121176E+02 -0.63784614113E+02  0.80247406198E+02  0.00000000000E+00 0.  1.
         13    1    4    4    0    0  0.25660293127E+02  0.28092094703E+02 -0.64895662118E+02  0.75226746506E+02  0.00000000000E+00 0. -1.
         21    1    1    2  502  501  0.52806359796E+01 -0.23485031587E+02 -0.50162836394E+02  0.55639392341E+02  0.00000000000E+00 0. -1.
<scales pt_clust_5="13000.00000" pt_clust_6="13000.00000" pt_clust_7="13000.00000" pt_clust_8="13000.00000" pt_clust_9="24.07139"></scales>
<clustering>
<clus scale="   24.071">  2  9  1 -1</clus>
<clus scale="   86.594">  7  8 -1 -1</clus>
<clus scale="   89.391">  2  7  1 -1</clus>
<clus scale="   90.465">  5  6 -1 -1</clus>
<clus scale="   24.071">  2  5  1 -1</clus>
</clustering>
</event>
<event>
 9    1  0.1234700E-005  0.1316161E+03  0.7546771E-02  0.1239037E+00
          2   -1    0    0  502    0  0.00000000000E+00  0.00000000000E+00  0.52381745719E+03  0.52381745719E+03  0.00000000000E+00 0. -1.
         -2   -1    0    0    0  501 -0.00000000000E+00 -0.00000000000E+00 -0.47491688976E+02  0.47491688976E+02  0.00000000000E+00 0.  1.
         23    2    1    2    0    0  0.18601184089E+02 -0.43184827135E+02  0.12883558553E+03  0.18327957756E+03  0.12158068148E+03 0.  0.
         23    2    1    2    0    0  0.38539839900E+02  0.61893219348E+02  0.24143198475E+03  0.26611385218E+03  0.84918132345E+02 0.  0.
        -11    1    4    4    0    0 -0.22565292067E+02  0.15168704623E+01  0.81407556441E+02  0.84490730543E+02  0.00000000000E+00 0.  1.
         11    1    4    4    0    0  0.61105131967E+02  0.60376348886E+02  0.16002442831E+03  0.18162312164E+03  0.00000000000E+00 0. -1.
        -11    1    3    3    0    0 -0.46444473044E+02 -0.19100122541E+02  0.19651492584E+02  0.53926662406E+02  0.00000000000E+00 0.  1.
         11    1    3    3    0    0  0.65045657133E+02 -0.24084704594E+02  0.10918409294E+03  0.12935291516E+03  0.00000000000E+00 0. -1.
         21    1    1    2  502  501 -0.57141023989E+02 -0.18708392213E+02  0.10605819793E+03  0.12191571642E+03  0.00000000000E+00 0.  1.
<scales pt_clust_5="13000.00000" pt_clust_6="13000.00000" pt_clust_7="13000.00000" pt_clust_8="13000.00000" pt_clust_9="60.12571"></scales>
<clustering>
<clus scale="   60.126">  1  9  2 -1</clus>
<clus scale="   84.918">  5  6 -1 -1</clus>
<clus scale="   98.752">  1  5  2 -1</clus>
<clus scale="  121.581">  7  8 -1 -1</clus>
<clus scale="   60.126">  1  5  2 -1</clus>
</clustering>
</event>
<event>
 9    1  0.1234700E-005  0.3260763E+03  0.7546771E-02  0.1072892E+00
         -1   -1    0    0    0  501 -0.00000000000E+00  0.00000000000E+00  0.27929115753E+03  0.27929115753E+03  0.00000000000E+00 0.  1.
          1   -1    0    0  502    0  0.00000000000E+00 -0.00000000000E+00 -0.58192859165E+03  0.58192859165E+03  0.00000000000E+00 0. -1.
         23    2    1    2    0    0 -0.26511875457E+03  0.17882599466E+03  0.87509631710E+02  0.34384857048E+03  0.91143915802E+02 0.  0.
         23    2    1    2    0    0  0.23150624671E+03 -0.17812643840E+03 -0.34716584893E+03  0.46280310131E+03  0.91314914430E+02 0.  0.
        -11    1    3    3    0    0 -0.21372881815E+03  0.17889889421E+03  0.58350670926E+02  0.28476239719E+03  0.00000000000E+00 0.  1.
         11    1    3    3    0    0 -0.51389936419E+02 -0.72899550812E-01  0.29158960784E+02  0.59086173285E+02  0.00000000000E+00 0. -1.
        -13    1    4    4    0    0  0.82767276418E+02 -0.40087762432E+02 -0.55247738282E+02  0.10728356504E+03  0.00000000000E+00 0. -1.
         13    1    4    4    0    0  0.14873897029E+03 -0.13803867597E+03 -0.29191811064E+03  0.35551953627E+03  0.00000000000E+00 0.  1.
         21    1    1    2  502  501  0.33612507859E+02 -0.69955625961E+00 -0.42981216902E+02  0.54568077389E+02  0.00000000000E+00 0. -1.
<scales pt_clust_5="13000.00000" pt_clust_6="13000.00000" pt_clust_7="13000.00000" pt_clust_8="13000.00000" pt_clust_9="33.61979"></scales>
<clustering>
<clus scale="   33.620">  2  9  1 -1</clus>
<clus scale="   91.144">  5  6 -1 -1</clus>
<clus scale="   91.315">  7  8 -1 -1</clus>
<clus scale="  326.028">  1  5  2 -1</clus>
<clus scale="   33.620">  2  5  1 -1</clus>
</clustering>
</event>
<event>
 9    1  0.1234700E-005  0.1234988E+03  0.7546771E-02  0.1244234E+00
         -3   -1    0    0    0  501 -0.00000000000E+00  0.00000000000E+00  0.89466789719E+02  0.89466789719E+02  0.00000000000E+00 0.  1.
          3   -1    0    0  502    0  0.00000000000E+00 -0.00000000000E+00 -0.23127439423E+03  0.23127439423E+03  0.00000000000E+00 0. -1.
         23    2    1    2    0    0 -0.32448879337E+02 -0.89292489663E+02 -0.28595352742E+02  0.13441660196E+03  0.90686549186E+02 0.  0.
         23    2    1    2    0    0  0.19942447214E+02  0.71389225747E+02 -0.36636430735E+02  0.10669547883E+03  0.67435705615E+02 0.  0.
        -11    1    3    3    0    0 -0.15705677936E+02 -0.28987378366E+02 -0.56873537849E+02  0.65738388567E+02  0.00000000000E+00 0. -1.
         11    1    3    3    0    0 -0.16743201400E+02 -0.60305111297E+02  0.28278185107E+02  0.68678213392E+02  0.00000000000E+00 0.  1.
        -13    1    4    4    0    0  0.40716327806E+02  0.55999148857E+02 -0.10671750615E+02  0.70054338080E+02  0.00000000000E+00 0.  1.
         13    1    4    4    0    0 -0.20773880592E+02  0.15390076890E+02 -0.25964680121E+02  0.36641140748E+02  0.00000000000E+00 0. -1.
         21    1    1    2  502  501  0.12506432123E+02  0.17903263916E+02 -0.76575821036E+02  0.79629103164E+02  0.00000000000E+00 0. -1.
<scales pt_clust_5="13000.00000" pt_clust_6="13000.00000" pt_clust_7="13000.00000" pt_clust_8="13000.00000" pt_clust_9="21.83890"></scales>
<clustering>
<clus scale="   21.839">  2  9  1 -1</clus>
<clus scale="   67.436">  7  8 -1 -1</clus>
<clus scale="   90.687">  5  6 -1 -1</clus>
<clus scale="  107.589">  2  7  1 -1</clus>
<clus scale="   21.839">  2  5  1 -1</clus>
</clustering>
</event>
<event>
 9    1  0.1234700E-005  0.1409407E+03  0.7546771E-02  0.1229285E+00
          1   -1    0    0  502    0  0.00000000000E+00  0.00000000000E+00  0.13248265563E+04  0.13248265563E+04  0.00000000000E+00 0. -1.
         -1   -1    0    0    0  501 -0.00000000000E+00 -0.00000000000E+00 -0.30783498184E+02  0.30783498184E+02  0.00000000000E+00 0.  1.
         23    2    1    2    0    0  0.22084256753E+01 -0.19058882578E+02  0.13886023725E+03  0.17008798540E+03  0.96330883618E+02 0.  0.
         23    2    1    2    0    0 -0.69965311454E+01 -0.93580092527E+02  0.37225391787E+03  0.39451756100E+03  0.90911723128E+02 0.  0.
        -11    1    3    3    0    0  0.25909208701E+02  0.30443824537E+02  0.81059715275E+02  0.90381364165E+02  0.00000000000E+00 0. -1.
         11    1    3    3    0    0 -0.23700783025E+02 -0.49502707116E+02  0.57800521976E+02  0.79706621234E+02  0.00000000000E+00 0.  1.
        -11    1    4    4    0    0  0.33574339041E+02 -0.24169993641E+02  0.20256451566E+03  0.20674575652E+03  0.00000000000E+00 0.  1.
         11    1    4    4    0    0 -0.40570870186E+02 -0.69410098886E+02  0.16968940221E+03  0.18777180448E+03  0.00000000000E+00 0. -1.
         21    1    1    2  502  501  0.47881054701E+01  0.11263897511E+03  0.78292890295E+03  0.79100450804E+03  0.00000000000E+00 0. -1.
<scales pt_clust_5="13000.00000" pt_clust_6="13000.00000" pt_clust_7="13000.00000" pt_clust_8="13000.00000" pt_clust_9="107.70020"></scales>
<clustering>
<clus scale="   90.912">  7  8 -1 -1</clus>
<clus scale="   96.331">  5  6 -1 -1</clus>
<clus scale="   98.223">  2  5  1 -1</clus>
<clus scale="  107.700">  1  9  2 -1</clus>
<clus scale="  107.700">  1  5  2 -1</clus>
</clustering>
</event>
<event>
 9    1  0.1234700E-005  0.9979745E+02  0.7546771E-02  0.1284066E+00
          1   -1    0    0  502    0  0.00000000000E+00  0.00000000000E+00  0.31309269974E+03  0.31309269974E+03  0.00000000000E+00 0. -1.
         -1   -1    0    0    0  501 -0.00000000000E+00 -0.00000000000E+00 -0.69399098728E+02  0.69399098728E+02  0.00000000000E+00 0.  1.
         23    2    1    2    0    0  0.20810852863E+02 -0.22433927080E+02  0.14295711760E+02  0.97027946927E+02  0.90959784680E+02 0.  0.
         23    2    1    2    0    0  0.35257422672E+02  0.16633142544E+01  0.18122006964E+03  0.20867731509E+03  0.97260761473E+02 0.  0.
        -13    1    4    4    0    0  0.62816742179E+02  0.94765383638E+00  0.16531443184E+03  0.17684937806E+03  0.00000000000E+00 0. -1.
         13    1    4    4    0    0 -0.27559319507E+02  0.71566041805E+00  0.15905637807E+02  0.31827937030E+02  0.00000000000E+00 0.  1.
        -13    1    3    3    0    0 -0.31995970137E+02 -0.28450785695E+02  0.68592397361E+01  0.43361716772E+02  0.00000000000E+00 0.  1.
         13    1    3    3    0    0  0.52806823000E+02  0.60168586152E+01  0.74364720237E+01  0.53666230155E+02  0.00000000000E+00 0. -1.
         21    1    1    2  502  501 -0.56068275535E+02  0.20770612825E+02  0.48177819610E+02  0.76786536456E+02  0.00000000000E+00 0.  1.
<scales pt_clust_5="13000.00000" pt_clust_6="13000.00000" pt_clust_7="13000.00000" pt_clust_8="13000.00000" pt_clust_9="59.79189"></scales>
<clustering>
<clus scale="   59.792">  2  9  1 -1</clus>
<clus scale="   90.960">  7  8 -1 -1</clus>
<clus scale="   93.667">  2  7  1 -1</clus>
<clus scale="   97.261">  5  6 -1 -1</clus>
<clus scale="   99.797">  1  5  2 -1</clus>
</clustering>
</event>
<event>
 9    1  0.1234700E-005  0.9694886E+02  0.7546771E-02  0.1287058E+00
         -2   -1    0    0    0  501 -0.00000000000E+00  0.00000000000E+00  0.43683519618E+02  0.43683519618E+02  0.00000000000E+00 0.  1.
          2   -1    0    0  502    0  0.00000000000E+00 -0.00000000000E+00 -0.33678804071E+03  0.33678804071E+03  0.00000000000E+00 0. -1.
         23    2    1    2    0    0  0.53356297264E+01  0.42337322590E+02 -0.87489420320E+02  0.13346077611E+03  0.91304229169E+02 0.  0.
         23    2    1    2    0    0 -0.40059408545E+01 -0.19600418425E+02 -0.93081895573E+02  0.13219590210E+03  0.91713103114E+02 0.  0.
        -11    1    3    3    0    0  0.18462931280E+02 -0.11608364593E+02 -0.72848267203E+02  0.76042777399E+02  0.00000000000E+00 0. -1.
         11    1    3    3    0    0 -0.13127301554E+02  0.53945687183E+02 -0.14641153116E+02  0.57417998714E+02  0.00000000000E+00 0.  1.
        -13    1    4    4    0    0 -0.25345763950E+02  0.29636357761E+02 -0.49815894678E+02  0.63264087871E+02  0.00000000000E+00 0.  1.
         13    1    4    4    0    0  0.21339823096E+02 -0.49236776185E+02 -0.43266000895E+02  0.68931814225E+02  0.00000000000E+00 0. -1.
         21    1    1    2  502  501 -0.13296888719E+01 -0.22736904165E+02 -0.11253320520E+03  0.11481488212E+03  0.00000000000E+00 0. -1.
<scales pt_clust_5="13000.00000" pt_clust_6="13000.00000" pt_clust_7="13000.00000" pt_clust_8="13000.00000" pt_clust_9="22.77575"></scales>
<clustering>
<clus scale="   22.776">  2  9  1 -1</clus>
<clus scale="   91.304">  5  6 -1 -1</clus>
<clus scale="   91.713">  7  8 -1 -1</clus>
<clus scale="   96.562">  1  5  2 -1</clus>
<clus scale="   22.776">  2  5  1 -1</clus>
</clustering>
</event>
<event>
 9    1  0.1234700E-005  0.1771809E+03  0.7546771E-02  0.1170612E+00
          1   -1    0    0  502    0  0.00000000000E+00  0.00000000000E+00  0.29247573019E+03  0.29247573019E+03  0.00000000000E+00 0. -1.
         -1   -1    0    0    0  501 -0.00000000000E+00 -0.00000000000E+00 -0.78273735047E+03  0.78273735047E+03  0.00000000000E+00 0.  1.
         23    2    1    2    0    0 -0.83725557972E+02 -0.12775121808E+03 -0.71745343861E+03  0.73879355975E+03  0.88012184254E+02 0.  0.
         23    2    1    2    0    0  0.12968155428E+03  0.12278180500E+03  0.16214378146E+03  0.25662042466E+03  0.87582871175E+02 0.  0.
        -11    1    3    3    0    0 -0.97973122717E+02 -0.10552478904E+03 -0.66057006569E+03  0.67608211452E+03  0.00000000000E+00 0.  1.
         11    1    3    3    0    0  0.14247564746E+02 -0.22226429045E+02 -0.56883372918E+02  0.62711445238E+02  0.00000000000E+00 0. -1.
        -13    1    4    4    0    0  0.85972253608E+02  0.56970352094E+02  0.38898151339E+02  0.11022665551E+03  0.00000000000E+00 0.  1.
         13    1    4    4    0    0  0.43709300673E+02  0.65811452910E+02  0.12324563012E+03  0.14639376914E+03  0.00000000000E+00 0. -1.
         21    1    1    2  502  501 -0.45955996309E+02  0.49694130772E+01  0.65048036870E+02  0.79799096259E+02  0.00000000000E+00 0. -1.
<scales pt_clust_5="13000.00000" pt_clust_6="13000.00000" pt_clust_7="13000.00000" pt_clust_8="13000.00000" pt_clust_9="46.22390"></scales>
<clustering>
<clus scale="   46.224">  1  9  2 -1</clus>
<clus scale="   87.583">  7  8 -1 -1</clus>
<clus scale="   88.012">  5  6 -1 -1</clus>
<clus scale="  176.968">  1  7  2 -1</clus>
<clus scale="   46.224">  1  5  2 -1</clus>
</clustering>
</event>
<event>
 9    1  0.1234700E-005  0.3520943E+03  0.7546771E-02  0.1061880E+00
          2   -1    0    0  502    0  0.00000000000E+00  0.00000000000E+00  0.11652606254E+04  0.11652606254E+04  0.00000000000E+00 0. -1.
         -2   -1    0    0    0  501 -0.00000000000E+00 -0.00000000000E+00 -0.11797922200E+03  0.11797922200E+03  0.00000000000E+00 0.  1.
         23    2    1    2    0    0  0.24360249218E+03 -0.21692835627E+03  0.42133733165E+03  0.54126069507E+03  0.95067907525E+02 0.  0.
         23    2    1    2    0    0 -0.27200787169E+03  0.22958345378E+03  0.57931855293E+03  0.68593491906E+03  0.90553204845E+02 0.  0.
        -11    1    3    3    0    0  0.23057535573E+03 -0.18612280652E+03  0.32759262142E+03  0.44172799253E+03  0.00000000000E+00 0.  1.
         11    1    3    3    0    0  0.13027136447E+02 -0.30805549753E+02  0.93744710230E+02  0.99532702544E+02  0.00000000000E+00 0. -1.
        -13    1    4    4    0    0 -0.98630896259E+02  0.12626142343E+03  0.31463940797E+03  0.35308349974E+03  0.00000000000E+00 0.  1.
         13    1    4    4    0    0 -0.17337697543E+03  0.10332203035E+03  0.26467914496E+03  0.33285141932E+03  0.00000000000E+00 0. -1.
         21    1    1    2  502  501  0.28405379512E+02 -0.12655097508E+02  0.46625518828E+02  0.56044233281E+02  0.00000000000E+00 0.  1.
<scales pt_clust_5="13000.00000" pt_clust_6="13000.00000" pt_clust_7="13000.00000" pt_clust_8="13000.00000" pt_clust_9="31.09690"></scales>
<clustering>
<clus scale="   31.097">  1  9  2 -1</clus>
<clus scale="   90.553">  7  8 -1 -1</clus>
<clus scale="   95.068">  5  6 -1 -1</clus>
<clus scale="  350.902">  1  7  2 -1</clus>
<clus scale="   31.097">  1  5  2 -1</clus>
</clustering>
</event>
<event>
 9    1  0.1234700E-005  0.1269310E+03  0.7546771E-02  0.1232135E+00
         -1   -1    0    0    0  501 -0.00000000000E+00  0.00000000000E+00  0.51308256882E+03  0.51308256882E+03  0.00000000000E+00 0.  1.
          1   -1    0    0  502    0  0.00000000000E+00 -0.00000000000E+00 -0.52281597060E+02  0.52281597060E+02  0.00000000000E+00 0. -1.
         23    2    1    2    0    0 -0.33256375648E+02  0.70053420943E+02  0.22799858405E+03  0.25817629099E+03  0.93049312688E+02 0.  0.
         23    2    1    2    0    0  0.54760812229E+02 -0.79906890614E+02  0.24591301806E+03  0.28014309192E+03  0.92860550152E+02 0.  0.
        -13    1    4    4    0    0  0.11194615273E+02 -0.86328111626E+02  0.18982267776E+03  0.20883129856E+03  0.00000000000E+00 0.  1.
         13    1    4    4    0    0  0.43566196956E+02  0.64212210115E+01  0.56090340305E+02  0.71311793358E+02  0.00000000000E+00 0. -1.
        -13    1    3    3    0    0  0.12357693368E+02  0.21782071604E+02  0.50519039760E+01  0.25547856320E+02  0.00000000000E+00 0. -1.
         13    1    3    3    0    0 -0.45614069016E+02  0.48271349339E+02  0.22294668008E+03  0.23262843467E+03  0.00000000000E+00 0.  1.
         21    1    1    2  502  501 -0.21504436582E+02  0.98534696715E+01 -0.13110630360E+02  0.27044782966E+02  0.00000000000E+00 0. -1.
<scales pt_clust_5="13000.00000" pt_clust_6="13000.00000" pt_clust_7="13000.00000" pt_clust_8="13000.00000" pt_clust_9="23.65442"></scales>
<clustering>
<clus scale="   23.654">  2  9  1 -1</clus>
<clus scale="   92.861">  5  6 -1 -1</clus>
<clus scale="   93.049">  7  8 -1 -1</clus>
<clus scale="  126.793">  2  5  1 -1</clus>
<clus scale="   23.654">  2  5  1 -1</clus>
</clustering>
</event>
<event>
 9    1  0.1234700E-005  0.1382639E+03  0.7546771E-02  0.1217485E+00
         -1   -1    0    0    0  501 -0.00000000000E+00  0.00000000000E+00  0.79101729564E+03  0.79101729564E+03  0.00000000000E+00 0.  1.
          1   -1    0    0  502    0  0.00000000000E+00 -0.00000000000E+00 -0.95628731794E+02  0.95628731794E+02  0.00000000000E+00 0. -1.
         23    2    1    2    0    0 -0.12342586326E+02  0.10481667637E+03  0.68226077352E+03  0.69562468034E+03  0.85293948918E+02 0.  0.
         23    2    1    2    0    0  0.88962936492E+01 -0.82141963078E+02  0.60472756292E+02  0.13841369216E+03  0.93139410475E+02 0.  0.
        -13    1    3    3    0    0  0.79466745494E+01  0.10965133719E+03  0.62686457809E+03  0.63643205816E+03  0.00000000000E+00 0.  1.
         13    1    3    3    0    0 -0.20289260875E+02 -0.48346608220E+01  0.55396195431E+02  0.59192622178E+02  0.00000000000E+00 0. -1.
        -13    1    4    4    0    0  0.18069570081E+02 -0.23007642792E+02  0.71780382694E+02  0.77513123595E+02  0.00000000000E+00 0.  1.
         13    1    4    4    0    0 -0.91732764316E+01 -0.59134320286E+02 -0.11307626402E+02  0.60900568561E+02  0.00000000000E+00 0. -1.
         21    1    1    2  502  501  0.34462926764E+01 -0.22674713294E+02 -0.47344965967E+02  0.52607654943E+02  0.00000000000E+00 0. -1.
<scales pt_clust_5="13000.00000" pt_clust_6="13000.00000" pt_clust_7="13000.00000" pt_clust_8="13000.00000" pt_clust_9="22.93512"></scales>
<clustering>
<clus scale="   22.935">  2  9  1 -1</clus>
<clus scale="   85.294">  5  6 -1 -1</clus>
<clus scale="   93.139">  7  8 -1 -1</clus>
<clus scale="  133.105">  1  5  2 -1</clus>
<clus scale="   22.935">  2  5  1 -1</clus>
</clustering>
</event>
<event>
 9    1  0.1234700E-005  0.1056545E+03  0.7546771E-02  0.1268886E+00
          1   -1    0    0  502    0  0.00000000000E+00  0.00000000000E+00  0.58065056122E+02  0.58065056122E+02  0.00000000000E+00 0. -1.
         -1   -1    0    0    0  501 -0.00000000000E+00 -0.00000000000E+00 -0.24153939425E+03  0.24153939425E+03  0.00000000000E+00 0.  1.
         23    2    1    2    0    0  0.58751322757E+02  0.23386520323E+02 -0.10776958757E+03  0.15469575531E+03  0.91202222831E+02 0.  0.
         23    2    1    2    0    0 -0.40327229209E+02 -0.90988082284E+01 -0.61081375573E+02  0.11738726639E+03  0.91322298160E+02 0.  0.
        -11    1    4    4    0    0 -0.21744908053E+02  0.38517399878E+02 -0.10465596572E+02  0.45452830838E+02  0.00000000000E+00 0.  1.
         11    1    4    4    0    0 -0.18582321155E+02 -0.47616208106E+02 -0.50615779002E+02  0.71934435550E+02  0.00000000000E+00 0. -1.
        -13    1    3    3    0    0  0.28688226762E+02  0.29196136158E+02 -0.11598312895E+03  0.12299396295E+03  0.00000000000E+00 0.  1.
         13    1    3    3    0    0  0.30063095994E+02 -0.58096158354E+01  0.82135413836E+01  0.31701792362E+02  0.00000000000E+00 0. -1.
         21    1    1    2  502  501 -0.18424093548E+02 -0.14287712094E+02 -0.14623374986E+02  0.27521428668E+02  0.00000000000E+00 0. -1.
<scales pt_clust_5="13000.00000" pt_clust_6="13000.00000" pt_clust_7="13000.00000" pt_clust_8="13000.00000" pt_clust_9="23.31493"></scales>
<clustering>
<clus scale="   23.315">  1  9  2 -1</clus>
<clus scale="   91.202">  7  8 -1 -1</clus>
<clus scale="   91.322">  5  6 -1 -1</clus>
<clus scale="  105.551">  2  7  1 -1</clus>
<clus scale="   23.315">  1  5  2 -1</clus>
</clustering>
</event>
<event>
 9    1  0.1234700E-005  0.2646746E+03  0.7546771E-02  0.1139601E+00
          2   -1    0    0  502    0  0.00000000000E+00  0.00000000000E+00  0.33023939430E+03  0.33023939430E+03  0.00000000000E+00 0. -1.
         -2   -1    0    0    0  501 -0.00000000000E+00 -0.00000000000E+00 -0.35937902472E+03  0.35937902472E+03  0.00000000000E+00 0.  1.
         23    2    1    2    0    0  0.41631799481E+02  0.46136914668E+02 -0.26042147483E+02  0.11301971383E+03  0.90738308593E+02 0.  0.
         23    2    1    2    0    0 -0.24645549358E+03  0.86212147298E+02 -0.12411409375E+03  0.30435976610E+03  0.95172024758E+02 0.  0.
        -11    1    4    4    0    0 -0.13577219280E+03  0.84318651617E+01 -0.95166729638E+02  0.16601774338E+03  0.00000000000E+00 0. -1.
         11    1    4    4    0    0 -0.11068330078E+03  0.77780282136E+02 -0.28947364108E+02  0.13834202271E+03  0.00000000000E+00 0.  1.
        -13    1    3    3    0    0 -0.68807719397E-01  0.29076445477E+02 -0.53045433930E+02  0.60491838102E+02  0.00000000000E+00 0.  1.
         13    1    3    3    0    0  0.41700607201E+02  0.17060469191E+02  0.27003286447E+02  0.52527875732E+02  0.00000000000E+00 0. -1.
         21    1    1    2  502  501  0.20482369409E+03 -0.13234906197E+03  0.12101661081E+03  0.27223893909E+03  0.00000000000E+00 0. -1.
<scales pt_clust_5="13000.00000" pt_clust_6="13000.00000" pt_clust_7="13000.00000" pt_clust_8="13000.00000" pt_clust_9="246.97151"></scales>
<clustering>
<clus scale="   90.738">  7  8 -1 -1</clus>
<clus scale="   95.172">  5  6 -1 -1</clus>
<clus scale="  109.978">  2  7  1 -1</clus>
<clus scale="  246.972">  1  9  2 -1</clus>
<clus scale="  246.972">  1  5  2 -1</clus>
</clustering>
</event>
<event>
 9    1  0.1234700E-005  0.9654424E+02  0.7546771E-02  0.1288422E+00
         -2   -1    0    0    0  501 -0.00000000000E+00  0.00000000000E+00  0.33071384232E+02  0.33071384232E+02  0.00000000000E+00 0.  1.
          2   -1    0    0  502    0  0.00000000000E+00 -0.00000000000E+00 -0.39968025046E+03  0.39968025046E+03  0.00000000000E+00 0. -1.
         23    2    1    2    0    0 -0.16385317922E+02 -0.31630864264E+02 -0.92250207939E+02  0.13450332092E+03  0.91170457154E+02 0.  0.
         23    2    1    2    0    0  0.46562108848E+01  0.11009122894E+02 -0.21943594434E+03  0.23842078936E+03  0.92463279436E+02 0.  0.
        -11    1    4    4    0    0  0.26736527468E+02  0.33490718322E+02 -0.19173208381E+03  0.19646287710E+03  0.00000000000E+00 0. -1.
         11    1    4    4    0    0 -0.22080316583E+02 -0.22481595428E+02 -0.27703860535E+02  0.41957912269E+02  0.00000000000E+00 0.  1.
        -13    1    3    3    0    0  0.11712727109E+01 -0.51800933357E+02 -0.94390896487E+02  0.10767706309E+03  0.00000000000E+00 0. -1.
         13    1    3    3    0    0 -0.17556590633E+02  0.20170069093E+02  0.21406885482E+01  0.26826257833E+02  0.00000000000E+00 0.  1.
         21    1    1    2  502  501  0.11729107037E+02  0.20621741370E+02 -0.54922713941E+02  0.59827524398E+02  0.00000000000E+00 0. -1.
<scales pt_clust_5="13000.00000" pt_clust_6="13000.00000" pt_clust_7="13000.00000" pt_clust_8="13000.00000" pt_clust_9="23.72400"></scales>
<clustering>
<clus scale="   23.724">  2  9  1 -1</clus>
<clus scale="   91.170">  7  8 -1 -1</clus>
<clus scale="   92.463">  5  6 -1 -1</clus>
<clus scale="   95.307">  1  7  2 -1</clus>
<clus scale="   23.724">  2  5  1 -1</clus>
</clustering>
</event>
<event>
 9    1  0.1234700E-005  0.2563804E+03  0.7546771E-02  0.1109350E+00
          2   -1    0    0  502    0  0.00000000000E+00  0.00000000000E+00  0.52887732749E+03  0.52887732749E+03  0.00000000000E+00 0. -1.
         -2   -1    0    0    0  501 -0.00000000000E+00 -0.00000000000E+00 -0.19976487860E+03  0.19976487860E+03  0.00000000000E+00 0.  1.
         23    2    1    2    0    0  0.24035488289E+03 -0.44374393045E+02 -0.49274404496E+02  0.26572100792E+03  0.91870183552E+02 0.  0.
         23    2    1    2    0    0 -0.21572473565E+03  0.47978161991E+02  0.35879725886E+03  0.43124496864E+03  0.91638880451E+02 0.  0.
        -11    1    4    4    0    0 -0.21184213977E+03  0.25019205955E+02  0.33973726797E+03  0.40115391572E+03  0.00000000000E+00 0. -1.
         11    1    4    4    0    0 -0.38825958774E+01  0.22958956035E+02  0.19059990895E+02  0.30091052921E+02  0.00000000000E+00 0.  1.
        -11    1    3    3    0    0  0.16241180768E+03  0.11244770768E+02 -0.12968749370E+02  0.16331634519E+03  0.00000000000E+00 0. -1.
         11    1    3    3    0    0  0.77943075201E+02 -0.55619163813E+02 -0.36305655127E+02  0.10240466273E+03  0.00000000000E+00 0.  1.
         21    1    1    2  502  501 -0.24630147235E+02 -0.36037689451E+01  0.19589594529E+02  0.31676229529E+02  0.00000000000E+00 0. -1.
<scales pt_clust_5="13000.00000" pt_clust_6="13000.00000" pt_clust_7="13000.00000" pt_clust_8="13000.00000" pt_clust_9="24.89239"></scales>
<clustering>
<clus scale="   24.892">  1  9  2 -1</clus>
<clus scale="   91.639">  5  6 -1 -1</clus>
<clus scale="   91.870">  7  8 -1 -1</clus>
<clus scale="  256.298">  1  5  2 -1</clus>
<clus scale="   24.892">  1  5  2 -1</clus>
</clustering>
</event>
<event>
 9    1  0.1234700E-005  0.1256613E+03  0.7546771E-02  0.1234459E+00
          1   -1    0    0  502    0  0.00000000000E+00  0.00000000000E+00  0.53738828277E+03  0.53738828277E+03  0.00000000000E+00 0. -1.
         -1   -1    0    0    0  501 -0.00000000000E+00 -0.00000000000E+00 -0.47294600462E+03  0.47294600462E+03  0.00000000000E+00 0.  1.
         23    2    1    2    0    0 -0.73764702831E+02 -0.44005065829E+02 -0.45282851974E+03  0.46996541897E+03  0.91848514028E+02 0.  0.
         23    2    1    2    0    0  0.52585373501E+02  0.66880141157E+02  0.38680161626E+03  0.40622700165E+03  0.90369860830E+02 0.  0.
        -13    1    3    3    0    0 -0.66115155439E+02  0.46545942959E+01 -0.34649572075E+03  0.35277778207E+03  0.00000000000E+00 0.  1.
         13    1    3    3    0    0 -0.76495473925E+01 -0.48659660125E+02 -0.10633279899E+03  0.11718763689E+03  0.00000000000E+00 0. -1.
        -13    1    4    4    0    0  0.45710156878E+02  0.89476945374E+02  0.31025873047E+03  0.32612271007E+03  0.00000000000E+00 0. -1.
         13    1    4    4    0    0  0.68752166232E+01 -0.22596804217E+02  0.76542885791E+02  0.80104291581E+02  0.00000000000E+00 0.  1.
         21    1    1    2  502  501  0.21179329330E+02 -0.22875075328E+02  0.13046918163E+03  0.13414186676E+03  0.00000000000E+00 0.  1.
<scales pt_clust_5="13000.00000" pt_clust_6="13000.00000" pt_clust_7="13000.00000" pt_clust_8="13000.00000" pt_clust_9="31.17424"></scales>
<clustering>
<clus scale="   31.174">  1  9  2 -1</clus>
<clus scale="   90.370">  7  8 -1 -1</clus>
<clus scale="   91.849">  5  6 -1 -1</clus>
<clus scale="  124.585">  1  7  2 -1</clus>
<clus scale="   31.174">  1  5  2 -1</clus>
</clustering>
</event>
<event>
 9    1  0.1234700E-005  0.1086007E+03  0.7546771E-02  0.1274246E+00
         -2   -1    0    0    0  501 -0.00000000000E+00  0.00000000000E+00  0.46629756198E+02  0.46629756198E+02  0.00000000000E+00 0.  1.
          2   -1    0    0  502    0  0.00000000000E+00 -0.00000000000E+00 -0.31380856241E+03  0.31380856241E+03  0.00000000000E+00 0. -1.
         23    2    1    2    0    0  0.32604765624E+01 -0.18826310426E+02 -0.45608349817E+02  0.10015369011E+03  0.87095231773E+02 0.  0.
         23    2    1    2    0    0 -0.10399740481E+02 -0.86404237620E+00 -0.20977573466E+03  0.23624727125E+03  0.10815735365E+03 0.  0.
        -11    1    4    4    0    0  0.30559773596E+02  0.10198061546E+02 -0.12655791464E+02  0.34613137378E+02  0.00000000000E+00 0.  1.
         11    1    4    4    0    0 -0.40959514078E+02 -0.11062103922E+02 -0.19711994320E+03  0.20163413387E+03  0.00000000000E+00 0. -1.
        -13    1    3    3    0    0  0.38610805370E+02 -0.14424308374E+02  0.13172325789E+01  0.41238211225E+02  0.00000000000E+00 0.  1.
         13    1    3    3    0    0 -0.35350328807E+02 -0.44020020522E+01 -0.46925582396E+02  0.58915478883E+02  0.00000000000E+00 0. -1.
         21    1    1    2  502  501  0.71392639189E+01  0.19690352802E+02 -0.11794721733E+02  0.24037357249E+02  0.00000000000E+00 0.  1.
<scales pt_clust_5="13000.00000" pt_clust_6="13000.00000" pt_clust_7="13000.00000" pt_clust_8="13000.00000" pt_clust_9="20.94467"></scales>
<clustering>
<clus scale="   20.945">  1  9  2 -1</clus>
<clus scale="   87.095">  7  8 -1 -1</clus>
<clus scale="   87.645">  1  7  2 -1</clus>
<clus scale="  108.157">  5  6 -1 -1</clus>
<clus scale="  108.601">  2  5  1 -1</clus>
</clustering>
</event>
<event>
 9    1  0.1234700E-005  0.9589312E+02  0.7546771E-02  0.1296349E+00
         -2   -1    0    0    0  501 -0.00000000000E+00  0.00000000000E+00  0.48409368973E+02  0.48409368973E+02  0.00000000000E+00 0.  1.
          2   -1    0    0  502    0  0.00000000000E+00 -0.00000000000E+00 -0.22926594420E+03  0.22926594420E+03  0.00000000000E+00 0. -1.
         23    2    1    2    0    0 -0.23794639826E+01  0.11030970792E+02 -0.58952870890E+02  0.10211042972E+03  0.82606021003E+02 0.  0.
         23    2    1    2    0    0 -0.24580018425E+02 -0.12134633768E+02 -0.87720966794E+02  0.13201616006E+03  0.94772737947E+02 0.  0.
        -11    1    3    3    0    0 -0.14520731412E+01 -0.21818883966E+02  0.11253742407E+02  0.24593066748E+02  0.00000000000E+00 0.  1.
         11    1    3    3    0    0 -0.92739084132E+00  0.32849854758E+02 -0.70206613297E+02  0.77517362971E+02  0.00000000000E+00 0. -1.
        -13    1    4    4    0    0 -0.19570960036E+02  0.27996770504E+02 -0.84854378470E+02  0.91471892847E+02  0.00000000000E+00 0.  1.
         13    1    4    4    0    0 -0.50090583886E+01 -0.40131404273E+02 -0.28665883232E+01  0.40544267208E+02  0.00000000000E+00 0. -1.
         21    1    1    2  502  501  0.26959482407E+02  0.11036629763E+01 -0.34182737547E+02  0.43548723401E+02  0.00000000000E+00 0. -1.
<scales pt_clust_5="13000.00000" pt_clust_6="13000.00000" pt_clust_7="13000.00000" pt_clust_8="13000.00000" pt_clust_9="26.98206"></scales>
<clustering>
<clus scale="   26.982">  2  9  1 -1</clus>
<clus scale="   82.606">  5  6 -1 -1</clus>
<clus scale="   83.889">  1  5  2 -1</clus>
<clus scale="   94.773">  7  8 -1 -1</clus>
<clus scale="   26.982">  2  5  1 -1</clus>
</clustering>
</event>
<event>
 9    1  0.1234700E-005  0.1108344E+03  0.7546771E-02  0.1262312E+00
         -1   -1    0    0    0  501 -0.00000000000E+00  0.00000000000E+00  0.64099827171E+02  0.64099827171E+02  0.00000000000E+00 0.  1.
          1   -1    0    0  502    0  0.00000000000E+00 -0.00000000000E+00 -0.44448190330E+03  0.44448190330E+03  0.00000000000E+00 0. -1.
         23    2    1    2    0    0 -0.39587016414E+02  0.83287238054E+02 -0.23626503993E+03  0.26794073535E+03  0.86412803886E+02 0.  0.
         23    2    1    2    0    0 -0.30882945526E+01 -0.26503486120E+02 -0.13788113561E+03  0.16933557383E+03  0.94611609576E+02 0.  0.
        -11    1    4    4    0    0 -0.13559359690E+02 -0.58847595809E+02 -0.63922415775E+02  0.87937312935E+02  0.00000000000E+00 0.  1.
         11    1    4    4    0    0  0.10471065137E+02  0.32344109689E+02 -0.73958719835E+02  0.81398260893E+02  0.00000000000E+00 0. -1.
        -11    1    3    3    0    0 -0.25113755547E+02 -0.13288364205E+02 -0.61410577171E+02  0.67664912100E+02  0.00000000000E+00 0.  1.
         11    1    3    3    0    0 -0.14473260867E+02  0.96575602259E+02 -0.17485446276E+03  0.20027582325E+03  0.00000000000E+00 0. -1.
         21    1    1    2  502  501  0.42675310966E+02 -0.56783751934E+02 -0.62359005887E+01  0.71305421294E+02  0.00000000000E+00 0.  1.
<scales pt_clust_5="13000.00000" pt_clust_6="13000.00000" pt_clust_7="13000.00000" pt_clust_8="13000.00000" pt_clust_9="71.03222"></scales>
<clustering>
<clus scale="   71.032">  1  9  2 -1</clus>
<clus scale="   86.413">  7  8 -1 -1</clus>
<clus scale="   94.612">  5  6 -1 -1</clus>
<clus scale="  103.923">  1  7  2 -1</clus>
<clus scale="  110.834">  2  5  1 -1</clus>
</clustering>
</event>
<event>
 9    1  0.1234700E-005  0.9324431E+02  0.7546771E-02  0.1295545E+00
         -1   -1    0    0    0  501 -0.00000000000E+00  0.00000000000E+00  0.61561461894E+03  0.61561461894E+03  0.00000000000E+00 0.  1.
          1   -1    0    0  502    0  0.00000000000E+00 -0.00000000000E+00 -0.56576813185E+02  0.56576813185E+02  0.00000000000E+00 0. -1.
         23    2    1    2    0    0  0.15540966044E+02  0.15892033900E+02  0.52585361853E+03  0.53382609807E+03  0.89186302150E+02 0.  0.
         23    2    1    2    0    0 -0.29710885759E+02 -0.41904779200E+02  0.33393348985E+02  0.10874282080E+03  0.89839512842E+02 0.  0.
        -11    1    3    3    0    0  0.17597851788E+02 -0.35874939000E+02  0.21407160192E+03  0.21776902071E+03  0.00000000000E+00 0. -1.
         11    1    3    3    0    0 -0.20568857443E+01  0.51766972900E+02  0.31178201661E+03  0.31605707735E+03  0.00000000000E+00 0.  1.
        -13    1    4    4    0    0 -0.88145663637E+01  0.26700615479E+02  0.22897295242E+02  0.36261626778E+02  0.00000000000E+00 0.  1.
         13    1    4    4    0    0 -0.20896319395E+02 -0.68605394680E+02  0.10496053742E+02  0.72481194027E+02  0.00000000000E+00 0. -1.
         21    1    1    2  502  501  0.14169919715E+02  0.26012745300E+02 -0.20916175848E+00  0.29622513253E+02  0.00000000000E+00 0. -1.
<scales pt_clust_5="13000.00000" pt_clust_6="13000.00000" pt_clust_7="13000.00000" pt_clust_8="13000.00000" pt_clust_9="29.62177"></scales>
<clustering>
<clus scale="   29.622">  2  9  1 -1</clus>
<clus scale="   89.186">  5  6 -1 -1</clus>
<clus scale="   89.840">  7  8 -1 -1</clus>
<clus scale="   92.615">  1  5  2 -1</clus>
<clus scale="   29.622">  2  5  1 -1</clus>
</clustering>
</event>
<event>
 9    1  0.1234700E-005  0.9325636E+02  0.7546771E-02  0.1296166E+00
          1   -1    0    0  502    0  0.00000000000E+00  0.00000000000E+00  0.29261503535E+03  0.29261503535E+03  0.00000000000E+00 0. -1.
         -1   -1    0    0    0  501 -0.00000000000E+00 -0.00000000000E+00 -0.64439884518E+02  0.64439884518E+02  0.00000000000E+00 0.  1.
         23    2    1    2    0    0 -0.12832114316E+02  0.25694045365E+01  0.48596977841E+01  0.91823188372E+02  0.90755805670E+02 0.  0.
         23    2    1    2    0    0 -0.14743373991E+02 -0.35173652765E+02  0.16465366659E+03  0.19267382532E+03  0.92508486730E+02 0.  0.
        -13    1    4    4    0    0 -0.29374032945E+02  0.21080886582E+02  0.96775805045E+02  0.10330921562E+03  0.00000000000E+00 0. -1.
         13    1    4    4    0    0  0.14630658954E+02 -0.56254539347E+02  0.67877861541E+02  0.89364609695E+02  0.00000000000E+00 0.  1.
        -13    1    3    3    0    0 -0.19494031302E+02 -0.17182948272E+02 -0.36910477815E+02  0.45140384804E+02  0.00000000000E+00 0.  1.
         13    1    3    3    0    0  0.66619169860E+01  0.19752352809E+02  0.41770175599E+02  0.46682803568E+02  0.00000000000E+00 0. -1.
         21    1    1    2  502  501  0.27575488307E+02  0.32604248229E+02  0.58661786459E+02  0.72557906175E+02  0.00000000000E+00 0. -1.
<scales pt_clust_5="13000.00000" pt_clust_6="13000.00000" pt_clust_7="13000.00000" pt_clust_8="13000.00000" pt_clust_9="42.70181"></scales>
<clustering>
<clus scale="   42.702">  1  9  2 -1</clus>
<clus scale="   90.756">  7  8 -1 -1</clus>
<clus scale="   91.518">  2  7  1 -1</clus>
<clus scale="   92.508">  5  6 -1 -1</clus>
<clus scale="   42.702">  1  5  2 -1</clus>
</clustering>
</event>
<event>
 9    1  0.1234700E-005  0.1095990E+03  0.7546771E-02  0.1261668E+00
         -4   -1    0    0    0  501 -0.00000000000E+00  0.00000000000E+00  0.47548655529E+02  0.47548655529E+02  0.00000000000E+00 0.  1.
          4   -1    0    0  502    0  0.00000000000E+00 -0.00000000000E+00 -0.34531735766E+03  0.34531735766E+03  0.00000000000E+00 0. -1.
         23    2    1    2    0    0 -0.54502776995E+02  0.16058427256E+02 -0.84095260425E+02  0.13678446271E+03  0.91703602043E+02 0.  0.
         23    2    1    2    0    0  0.61001683828E+02  0.10420770971E+02 -0.18865043756E+03  0.21907432867E+03  0.92600086370E+02 0.  0.
        -11    1    3    3    0    0  0.17413841650E+02  0.13948961360E+02 -0.54678426531E+02  0.59055446252E+02  0.00000000000E+00 0. -1.
         11    1    3    3    0    0 -0.71916618645E+02  0.21094658963E+01 -0.29416833893E+02  0.77729016461E+02  0.00000000000E+00 0.  1.
        -13    1    4    4    0    0 -0.18202668015E+01  0.35644229664E+02 -0.10818184364E+03  0.11391723212E+03  0.00000000000E+00 0.  1.
         13    1    4    4    0    0  0.62821950629E+02 -0.25223458693E+02 -0.80468593914E+02  0.10515709655E+03  0.00000000000E+00 0. -1.
         21    1    1    2  502  501 -0.64989068329E+01 -0.26479198227E+02 -0.25023004146E+02  0.37007221798E+02  0.00000000000E+00 0. -1.
<scales pt_clust_5="13000.00000" pt_clust_6="13000.00000" pt_clust_7="13000.00000" pt_clust_8="13000.00000" pt_clust_9="27.26506"></scales>
<clustering>
<clus scale="   27.265">  1  9  2 -1</clus>
<clus scale="   91.704">  5  6 -1 -1</clus>
<clus scale="   92.600">  7  8 -1 -1</clus>
<clus scale="  108.843">  1  5  2 -1</clus>
<clus scale="  109.599">  2  5  1 -1</clus>
</clustering>
</event>
<event>
 9    1  0.1234700E-005  0.1297343E+03  0.7546771E-02  0.1230221E+00
         -1   -1    0    0    0  501 -0.00000000000E+00  0.00000000000E+00  0.50318252711E+03  0.50318252711E+03  0.00000000000E+00 0.  1.
          1   -1    0    0  502    0  0.00000000000E+00 -0.00000000000E+00 -0.47987445335E+02  0.47987445335E+02  0.00000000000E+00 0. -1.
         23    2    1    2    0    0  0.77145654497E+02  0.51119388589E+02  0.34461329910E+03  0.36773926435E+03  0.88933664764E+02 0.  0.
         23    2    1    2    0    0 -0.60588562783E+02 -0.30200062039E+02  0.81106365047E+02  0.14367450413E+03  0.97370955627E+02 0.  0.
        -11    1    4    4    0    0 -0.19980344150E+02  0.56517447293E+01  0.86760178401E+02  0.89210340920E+02  0.00000000000E+00 0.  1.
         11    1    4    4    0    0 -0.40608218633E+02 -0.35851806768E+02 -0.56538133548E+01  0.54464163213E+02  0.00000000000E+00 0. -1.
        -11    1    3    3    0    0  0.39481428940E+02 -0.22468652101E+02  0.11129308971E+03  0.12020721849E+03  0.00000000000E+00 0.  1.
         11    1    3    3    0    0  0.37664225557E+02  0.73588040691E+02  0.23332020939E+03  0.24753204586E+03  0.00000000000E+00 0. -1.
         21    1    1    2  502  501 -0.16557091714E+02 -0.20919326551E+02  0.29475417630E+02  0.39756203966E+02  0.00000000000E+00 0. -1.
<scales pt_clust_5="13000.00000" pt_clust_6="13000.00000" pt_clust_7="13000.00000" pt_clust_8="13000.00000" pt_clust_9="26.67875"></scales>
<clustering>
<clus scale="   26.679">  2  9  1 -1</clus>
<clus scale="   88.934">  7  8 -1 -1</clus>
<clus scale="   97.371">  5  6 -1 -1</clus>
<clus scale="  123.528">  1  7  2 -1</clus>
<clus scale="   26.679">  2  5  1 -1</clus>
</clustering>
</event>
<event>
 9    1  0.1234700E-005  0.9550851E+02  0.7546771E-02  0.1290927E+00
          1   -1    0    0  502    0  0.00000000000E+00  0.00000000000E+00  0.23823568209E+03  0.23823568209E+03  0.00000000000E+00 0. -1.
         -1   -1    0    0    0  501 -0.00000000000E+00 -0.00000000000E+00 -0.61317946079E+02  0.61317946079E+02  0.00000000000E+00 0.  1.
         23    2    1    2    0    0  0.20715840121E+02 -0.21917676814E+02  0.22967926005E+02  0.10017154519E+03  0.92721530686E+02 0.  0.
         23    2    1    2    0    0 -0.69354843713E+00  0.13711592957E+02  0.78949215725E+02  0.12132235508E+03  0.91091417751E+02 0.  0.
        -13    1    4    4    0    0 -0.38964321624E+02  0.82048761727E+01  0.71654924690E+02  0.81975402316E+02  0.00000000000E+00 0.  1.
         13    1    4    4    0    0  0.38270773187E+02  0.55067167844E+01  0.72942910351E+01  0.39346952764E+02  0.00000000000E+00 0. -1.
        -13    1    3    3    0    0  0.55196351419E+02 -0.96734409384E+01  0.28985258152E+02  0.63090077347E+02  0.00000000000E+00 0. -1.
         13    1    3    3    0    0 -0.34480511298E+02 -0.12244235876E+02 -0.60173321469E+01  0.37081467847E+02  0.00000000000E+00 0.  1.
         21    1    1    2  502  501 -0.20022291684E+02  0.82060838569E+01  0.75000594279E+02  0.78059727894E+02  0.00000000000E+00 0. -1.
<scales pt_clust_5="13000.00000" pt_clust_6="13000.00000" pt_clust_7="13000.00000" pt_clust_8="13000.00000" pt_clust_9="21.63867"></scales>
<clustering>
<clus scale="   21.639">  1  9  2 -1</clus>
<clus scale="   91.091">  5  6 -1 -1</clus>
<clus scale="   92.722">  7  8 -1 -1</clus>
<clus scale="   93.927">  1  5  2 -1</clus>
<clus scale="   21.639">  1  5  2 -1</clus>
</clustering>
</event>
<event>
 9    1  0.1234700E-005  0.3659729E+03  0.7546771E-02  0.1056252E+00
         -1   -1    0    0    0  501 -0.00000000000E+00  0.00000000000E+00  0.45566400026E+03  0.45566400026E+03  0.00000000000E+00 0.  1.
          1   -1    0    0  502    0  0.00000000000E+00 -0.00000000000E+00 -0.52356329155E+03  0.52356329155E+03  0.00000000000E+00 0. -1.
         23    2    1    2    0    0 -0.14520175551E+03  0.32906476541E+03  0.20877381122E+03  0.42550102459E+03  0.89985821312E+02 0.  0.
         23    2    1    2    0    0  0.16953381817E+03 -0.30045628937E+03 -0.96174563272E+02  0.36936190828E+03  0.90349185625E+02 0.  0.
        -11    1    4    4    0    0  0.53326504519E+01 -0.78250827575E+02 -0.37375765776E+02  0.86882547409E+02  0.00000000000E+00 0.  1.
         11    1    4    4    0    0  0.16420116772E+03 -0.22220546180E+03 -0.58798797496E+02  0.28247936087E+03  0.00000000000E+00 0. -1.
        -13    1    3    3    0    0 -0.85506062651E+02  0.93165059763E+02  0.56963443617E+02  0.13869336329E+03  0.00000000000E+00 0. -1.
         13    1    3    3    0    0 -0.59695692858E+02  0.23589970565E+03  0.15181036761E+03  0.28680766131E+03  0.00000000000E+00 0.  1.
         21    1    1    2  502  501 -0.24332062661E+02 -0.28608476038E+02 -0.18049853924E+03  0.18436435893E+03  0.00000000000E+00 0. -1.
<scales pt_clust_5="13000.00000" pt_clust_6="13000.00000" pt_clust_7="13000.00000" pt_clust_8="13000.00000" pt_clust_9="37.55655"></scales>
<clustering>
<clus scale="   37.557">  2  9  1 -1</clus>
<clus scale="   89.986">  7  8 -1 -1</clus>
<clus scale="   90.349">  5  6 -1 -1</clus>
<clus scale="  365.883">  1  7  2 -1</clus>
<clus scale="   37.557">  2  5  1 -1</clus>
</clustering>
</event>
<event>
 9    1  0.1234700E-005  0.1024210E+03  0.7546771E-02  0.1276566E+00
          2   -1    0    0  502    0  0.00000000000E+00  0.00000000000E+00  0.50687137967E+02  0.50687137967E+02  0.00000000000E+00 0. -1.
         -2   -1    0    0    0  501 -0.00000000000E+00 -0.00000000000E+00 -0.42078177189E+03  0.42078177189E+03  0.00000000000E+00 0.  1.
         23    2    1    2    0    0 -0.29063036826E+02  0.10902494170E+02 -0.27777443859E+03  0.29495257774E+03  0.94206474778E+02 0.  0.
         23    2    1    2    0    0  0.48793249944E+02  0.22348122159E+02 -0.58869657269E+02  0.12539076814E+03  0.96834851075E+02 0.  0.
        -11    1    3    3    0    0  0.19523816162E+02 -0.29868452738E+02 -0.10570276143E+03  0.11156333466E+03  0.00000000000E+00 0. -1.
         11    1    3    3    0    0 -0.48586852989E+02  0.40770946908E+02 -0.17207167716E+03  0.18338924308E+03  0.00000000000E+00 0.  1.
        -11    1    4    4    0    0 -0.79602635597E+01 -0.28056339091E+02  0.27274491582E+00  0.29165019269E+02  0.00000000000E+00 0. -1.
         11    1    4    4    0    0  0.56753513504E+02  0.50404461251E+02 -0.59142402184E+02  0.96225748868E+02  0.00000000000E+00 0.  1.
         21    1    1    2  502  501 -0.19730213118E+02 -0.33250616329E+02 -0.33450538063E+02  0.51125563984E+02  0.00000000000E+00 0. -1.
<scales pt_clust_5="13000.00000" pt_clust_6="13000.00000" pt_clust_7="13000.00000" pt_clust_8="13000.00000" pt_clust_9="38.66374"></scales>
<clustering>
<clus scale="   38.664">  1  9  2 -1</clus>
<clus scale="   94.206">  5  6 -1 -1</clus>
<clus scale="   96.835">  7  8 -1 -1</clus>
<clus scale="   99.940">  2  5  1 -1</clus>
<clus scale="   38.664">  1  5  2 -1</clus>
</clustering>
</event>
<event>
 9    1  0.1234700E-005  0.1275969E+03  0.7546771E-02  0.1244447E+00
          1   -1    0    0  502    0  0.00000000000E+00  0.00000000000E+00  0.23621260477E+03  0.23621260477E+03  0.00000000000E+00 0. -1.
         -1   -1    0    0    0  501 -0.00000000000E+00 -0.00000000000E+00 -0.80107557352E+02  0.80107557352E+02  0.00000000000E+00 0.  1.
         23    2    1    2    0    0  0.73186737075E+01  0.54708888979E+02  0.51693587886E+02  0.14429614149E+03  0.12289232646E+03 0.  0.
         23    2    1    2    0    0 -0.10945184075E+02 -0.11040727867E+02  0.78764220003E+02  0.12125157960E+03  0.90865001383E+02 0.  0.
        -11    1    4    4    0    0 -0.44019388803E+02  0.18199731407E+02  0.46541845903E+02  0.66596398055E+02  0.00000000000E+00 0. -1.
         11    1    4    4    0    0  0.33074204728E+02 -0.29240459274E+02  0.32222374100E+02  0.54655181544E+02  0.00000000000E+00 0.  1.
        -11    1    3    3    0    0 -0.52457608700E+02  0.24330945759E+02 -0.27989293279E+01  0.57893260726E+02  0.00000000000E+00 0. -1.
         11    1    3    3    0    0  0.59776282408E+02  0.30377943220E+02  0.54492517214E+02  0.86402880768E+02  0.00000000000E+00 0.  1.
         21    1    1    2  502  501  0.36265103671E+01 -0.43668161112E+02  0.25647239525E+02  0.50772441025E+02  0.00000000000E+00 0. -1.
<scales pt_clust_5="13000.00000" pt_clust_6="13000.00000" pt_clust_7="13000.00000" pt_clust_8="13000.00000" pt_clust_9="43.81849"></scales>
<clustering>
<clus scale="   43.818">  1  9  2 -1</clus>
<clus scale="   90.865">  5  6 -1 -1</clus>
<clus scale="   97.133">  1  5  2 -1</clus>
<clus scale="  122.892">  7  8 -1 -1</clus>
<clus scale="   43.818">  1  5  2 -1</clus>
</clustering>
</event>
<event>
 9    1  0.1234700E-005  0.1140735E+03  0.7546771E-02  0.1253536E+00
         -2   -1    0    0    0  501 -0.00000000000E+00  0.00000000000E+00  0.55821584999E+03  0.55821584999E+03  0.00000000000E+00 0.  1.
          2   -1    0    0  502    0  0.00000000000E+00 -0.00000000000E+00 -0.77039120535E+02  0.77039120535E+02  0.00000000000E+00 0. -1.
         23    2    1    2    0    0 -0.49740888802E+02 -0.41791613267E+02  0.45630517214E+03  0.47008348458E+03  0.92430392191E+02 0.  0.
         23    2    1    2    0    0  0.47126453532E+02  0.64575461584E+02  0.49778823191E+02  0.13131427239E+03  0.91512917303E+02 0.  0.
        -11    1    3    3    0    0 -0.69019954317E+02 -0.34810245501E+02  0.42915107960E+03  0.43605751503E+03  0.00000000000E+00 0.  1.
         11    1    3    3    0    0  0.19279065515E+02 -0.69813677663E+01  0.27154092534E+02  0.34025969558E+02  0.00000000000E+00 0. -1.
        -11    1    4    4    0    0  0.39910549623E+02  0.24063795134E+02 -0.19674145545E+02  0.50586462719E+02  0.00000000000E+00 0. -1.
         11    1    4    4    0    0  0.72159039098E+01  0.40511666450E+02  0.69452968736E+02  0.80727809670E+02  0.00000000000E+00 0.  1.
         21    1    1    2  502  501  0.26144352696E+01 -0.22783848317E+02 -0.24907265877E+02  0.33857213550E+02  0.00000000000E+00 0. -1.
<scales pt_clust_5="13000.00000" pt_clust_6="13000.00000" pt_clust_7="13000.00000" pt_clust_8="13000.00000" pt_clust_9="22.93336"></scales>
<clustering>
<clus scale="   22.933">  2  9  1 -1</clus>
<clus scale="   91.513">  7  8 -1 -1</clus>
<clus scale="   92.430">  5  6 -1 -1</clus>
<clus scale="  113.331">  2  7  1 -1</clus>
<clus scale="   22.933">  2  5  1 -1</clus>
</clustering>
</event>
<event>
 9    1  0.1234700E-005  0.1071843E+03  0.7546771E-02  0.1266605E+00
          1   -1    0    0  502    0  0.00000000000E+00  0.00000000000E+00  0.29538873707E+03  0.29538873707E+03  0.00000000000E+00 0. -1.
         -1   -1    0    0    0  501 -0.00000000000E+00 -0.00000000000E+00 -0.67887854680E+02  0.67887854680E+02  0.00000000000E+00 0.  1.
         23    2    1    2    0    0 -0.55794787798E+02 -0.24363263207E+01  0.47341735778E+01  0.10887193911E+03  0.93336448903E+02 0.  0.
         23    2    1    2    0    0  0.41694117325E+02 -0.13449778504E+02  0.18785963557E+03  0.21354267770E+03  0.91596596880E+02 0.  0.
        -11    1    4    4    0    0  0.50545774119E+01 -0.41718730714E+02  0.37847570711E+02  0.56554750940E+02  0.00000000000E+00 0.  1.
         11    1    4    4    0    0  0.36639539913E+02  0.28268952209E+02  0.15001206486E+03  0.15698792676E+03  0.00000000000E+00 0. -1.
        -13    1    3    3    0    0 -0.81432577194E+02 -0.84631500737E+01  0.83177176245E+01  0.82292611844E+02  0.00000000000E+00 0.  1.
         13    1    3    3    0    0  0.25637789397E+02  0.60268237531E+01 -0.35835440467E+01  0.26579327261E+02  0.00000000000E+00 0. -1.
         21    1    1    2  502  501  0.14100670473E+02  0.15886104825E+02  0.34907073239E+02  0.40861974945E+02  0.00000000000E+00 0. -1.
<scales pt_clust_5="13000.00000" pt_clust_6="13000.00000" pt_clust_7="13000.00000" pt_clust_8="13000.00000" pt_clust_9="21.24140"></scales>
<clustering>
<clus scale="   21.241">  1  9  2 -1</clus>
<clus scale="   91.597">  5  6 -1 -1</clus>
<clus scale="   93.336">  7  8 -1 -1</clus>
<clus scale="  105.673">  1  5  2 -1</clus>
<clus scale="   21.241">  1  5  2 -1</clus>
</clustering>
</event>
<event>
 9    1  0.1234700E-005  0.1788804E+03  0.7546771E-02  0.1169663E+00
         -2   -1    0    0    0  501 -0.00000000000E+00  0.00000000000E+00  0.19047857240E+03  0.19047857240E+03  0.00000000000E+00 0.  1.
          2   -1    0    0  502    0  0.00000000000E+00 -0.00000000000E+00 -0.10573599706E+04  0.10573599706E+04  0.00000000000E+00 0. -1.
         23    2    1    2    0    0  0.86004245215E+02 -0.11833858910E+03  0.11000454310E+03  0.20224378160E+03  0.86027878215E+02 0.  0.
         23    2    1    2    0    0 -0.15576187665E+03  0.16958252242E+03 -0.47070759176E+03  0.53206911511E+03  0.92260024847E+02 0.  0.
        -11    1    3    3    0    0 -0.65858645150E+01 -0.31265372260E+02  0.55306814154E+02  0.63872848737E+02  0.00000000000E+00 0.  1.
         11    1    3    3    0    0  0.92590109730E+02 -0.87073216842E+02  0.54697728943E+02  0.13837093287E+03  0.00000000000E+00 0. -1.
        -13    1    4    4    0    0 -0.25238375261E+02  0.40565842136E+02 -0.19569846017E+03  0.20144589955E+03  0.00000000000E+00 0.  1.
         13    1    4    4    0    0 -0.13052350139E+03  0.12901668029E+03 -0.27500913159E+03  0.33062321556E+03  0.00000000000E+00 0. -1.
         21    1    1    2  502  501  0.69757631437E+02 -0.51243933320E+02 -0.50617834955E+03  0.51352564630E+03  0.00000000000E+00 0.  1.
<scales pt_clust_5="13000.00000" pt_clust_6="13000.00000" pt_clust_7="13000.00000" pt_clust_8="13000.00000" pt_clust_9="86.55673"></scales>
<clustering>
<clus scale="   86.028">  5  6 -1 -1</clus>
<clus scale="   86.557">  2  9  1 -1</clus>
<clus scale="   92.260">  7  8 -1 -1</clus>
<clus scale="  175.747">  1  5  2 -1</clus>
<clus scale="   86.557">  2  5  1 -1</clus>
</clustering>
</event>
<event>
 9    1  0.1234700E-005  0.1077467E+03  0.7546771E-02  0.1267082E+00
          1   -1    0    0  502    0  0.00000000000E+00  0.00000000000E+00  0.18658301863E+03  0.18658301863E+03  0.00000000000E+00 0. -1.
         -1   -1    0    0    0  501 -0.00000000000E+00 -0.00000000000E+00 -0.22641191937E+03  0.22641191937E+03  0.00000000000E+00 0.  1.
         23    2    1    2    0    0  0.16417473214E+02 -0.53101940873E+02 -0.17158153105E+03  0.19962995706E+03  0.85571890271E+02 0.  0.
         23    2    1    2    0    0  0.22771904206E+01  0.72302568047E+02  0.48796415060E+02  0.12618764339E+03  0.91155824163E+02 0.  0.
        -11    1    4    4    0    0 -0.99449630934E+01  0.19602934102E+02  0.65884503530E+02  0.69454626352E+02  0.00000000000E+00 0. -1.
         11    1    4    4    0    0  0.12222153514E+02  0.52699633945E+02 -0.17088088470E+02  0.56733017036E+02  0.00000000000E+00 0.  1.
        -11    1    3    3    0    0  0.36899228538E+02 -0.32811051623E+01 -0.11789557139E+03  0.12357865702E+03  0.00000000000E+00 0.  1.
         11    1    3    3    0    0 -0.20481755325E+02 -0.49820835711E+02 -0.53685959664E+02  0.76051300035E+02  0.00000000000E+00 0. -1.
         21    1    1    2  502  501 -0.18694663634E+02 -0.19200627174E+02  0.82956215261E+02  0.87177337552E+02  0.00000000000E+00 0. -1.
<scales pt_clust_5="13000.00000" pt_clust_6="13000.00000" pt_clust_7="13000.00000" pt_clust_8="13000.00000" pt_clust_9="26.79841"></scales>
<clustering>
<clus scale="   26.798">  1  9  2 -1</clus>
<clus scale="   85.572">  7  8 -1 -1</clus>
<clus scale="   91.156">  5  6 -1 -1</clus>
<clus scale="  103.066">  2  7  1 -1</clus>
<clus scale="   26.798">  1  5  2 -1</clus>
</clustering>
</event>
<event>
 9    1  0.1234700E-005  0.1053110E+03  0.7546771E-02  0.1273712E+00
          2   -1    0    0  502    0  0.00000000000E+00  0.00000000000E+00  0.52096889528E+03  0.52096889528E+03  0.00000000000E+00 0. -1.
         -2   -1    0    0    0  501 -0.00000000000E+00 -0.00000000000E+00 -0.24447198564E+03  0.24447198564E+03  0.00000000000E+00 0.  1.
         23    2    1    2    0    0  0.49729732168E+02 -0.16579174410E+01 -0.22238554833E+03  0.24282315816E+03  0.83856777196E+02 0.  0.
         23    2    1    2    0    0 -0.14098286511E+02 -0.12465257694E+02  0.45278715314E+03  0.46266906871E+03  0.93232594923E+02 0.  0.
        -11    1    3    3    0    0  0.14557381428E+02  0.32358776703E+02 -0.15810776054E+03  0.16204033981E+03  0.00000000000E+00 0.  1.
         11    1    3    3    0    0  0.35172350740E+02 -0.34016694144E+02 -0.64277787788E+02  0.80782818347E+02  0.00000000000E+00 0. -1.
        -11    1    4    4    0    0  0.37854642442E+02  0.38329199225E+01  0.13535964146E+03  0.14060546847E+03  0.00000000000E+00 0.  1.
         11    1    4    4    0    0 -0.51952928953E+02 -0.16298177617E+02  0.31742751169E+03  0.32206360024E+03  0.00000000000E+00 0. -1.
         21    1    1    2  502  501 -0.35631445657E+02  0.14123175135E+02  0.46095304825E+02  0.59948654050E+02  0.00000000000E+00 0. -1.
<scales pt_clust_5="13000.00000" pt_clust_6="13000.00000" pt_clust_7="13000.00000" pt_clust_8="13000.00000" pt_clust_9="38.32837"></scales>
<clustering>
<clus scale="   38.328">  1  9  2 -1</clus>
<clus scale="   83.857">  5  6 -1 -1</clus>
<clus scale="   93.233">  7  8 -1 -1</clus>
<clus scale="   97.108">  2  5  1 -1</clus>
<clus scale="   38.328">  1  5  2 -1</clus>
</clustering>
</event>
<event>
 9    1  0.1234700E-005  0.1128644E+03  0.7546771E-02  0.1255929E+00
          2   -1    0    0  502    0  0.00000000000E+00  0.00000000000E+00  0.15190281155E+03  0.15190281155E+03  0.00000000000E+00 0. -1.
         -2   -1    0    0    0  501 -0.00000000000E+00 -0.00000000000E+00 -0.11394809648E+03  0.11394809648E+03  0.00000000000E+00 0.  1.
         23    2    1    2    0    0 -0.61583541367E+02  0.27109335524E+02 -0.14522512795E+02  0.11525622759E+03  0.92442663209E+02 0.  0.
         23    2    1    2    0    0  0.64752777459E+02  0.22291788821E+01  0.40161830004E+02  0.11861872839E+03  0.90882004317E+02 0.  0.
        -13    1    4    4    0    0  0.32848107246E+02 -0.40914341886E+02  0.38240542708E+02  0.64925500601E+02  0.00000000000E+00 0. -1.
         13    1    4    4    0    0  0.31904670213E+02  0.43143520768E+02  0.19212872958E+01  0.53693227790E+02  0.00000000000E+00 0.  1.
        -13    1    3    3    0    0 -0.42952778352E+02  0.43705257456E+02  0.26881402255E+02  0.66915622127E+02  0.00000000000E+00 0.  1.
         13    1    3    3    0    0 -0.18630763015E+02 -0.16595921932E+02 -0.41403915050E+02  0.48340605465E+02  0.00000000000E+00 0. -1.
         21    1    1    2  502  501 -0.31692360921E+01 -0.29338514406E+02  0.12315397865E+02  0.31975952051E+02  0.00000000000E+00 0.  1.
<scales pt_clust_5="13000.00000" pt_clust_6="13000.00000" pt_clust_7="13000.00000" pt_clust_8="13000.00000" pt_clust_9="29.50919"></scales>
<clustering>
<clus scale="   29.509">  1  9  2 -1</clus>
<clus scale="   90.882">  5  6 -1 -1</clus>
<clus scale="   92.443">  7  8 -1 -1</clus>
<clus scale="  111.590">  1  5  2 -1</clus>
<clus scale="   29.509">  1  5  2 -1</clus>
</clustering>
</event>
<event>
 9    1  0.1234700E-005  0.1113141E+03  0.7546771E-02  0.1265585E+00
         -3   -1    0    0    0  501 -0.00000000000E+00  0.00000000000E+00  0.87092532186E+02  0.87092532186E+02  0.00000000000E+00 0.  1.
          3   -1    0    0  502    0  0.00000000000E+00 -0.00000000000E+00 -0.25105416931E+03  0.25105416931E+03  0.00000000000E+00 0. -1.
         23    2    1    2    0    0  0.41599552059E+02 -0.47354947756E+02  0.25626303017E+02  0.97788068181E+02  0.70233788619E+02 0.  0.
         23    2    1    2    0    0 -0.66326034317E+02  0.44843719316E+02 -0.13786885344E+03  0.18297772079E+03  0.89793783562E+02 0.  0.
        -11    1    3    3    0    0  0.19659667258E+02 -0.51233119812E+02 -0.99895799701E+01  0.55777475654E+02  0.00000000000E+00 0. -1.
         11    1    3    3    0    0  0.21939884801E+02  0.38781720556E+01  0.35615882987E+02  0.42010592527E+02  0.00000000000E+00 0.  1.
        -11    1    4    4    0    0 -0.47202999314E+02  0.69251925883E+02 -0.12235464983E+03  0.14830580811E+03  0.00000000000E+00 0. -1.
         11    1    4    4    0    0 -0.19123035003E+02 -0.24408206567E+02 -0.15514203610E+02  0.34671912685E+02  0.00000000000E+00 0.  1.
         21    1    1    2  502  501  0.24726482258E+02  0.25112284406E+01 -0.51719086700E+02  0.57380912525E+02  0.00000000000E+00 0.  1.
<scales pt_clust_5="13000.00000" pt_clust_6="13000.00000" pt_clust_7="13000.00000" pt_clust_8="13000.00000" pt_clust_9="24.85368"></scales>
<clustering>
<clus scale="   24.854">  2  9  1 -1</clus>
<clus scale="   70.234">  5  6 -1 -1</clus>
<clus scale="   89.794">  7  8 -1 -1</clus>
<clus scale="   96.232">  1  5  2 -1</clus>
<clus scale="   24.854">  2  5  1 -1</clus>
</clustering>
</event>
<event>
 9    1  0.1234700E-005  0.9665665E+02  0.7546771E-02  0.1288073E+00
          1   -1    0    0  502    0  0.00000000000E+00  0.00000000000E+00  0.12680873071E+03  0.12680873071E+03  0.00000000000E+00 0. -1.
         -1   -1    0    0    0  501 -0.00000000000E+00 -0.00000000000E+00 -0.10656077854E+03  0.10656077854E+03  0.00000000000E+00 0.  1.
         23    2    1    2    0    0 -0.41626526513E+02  0.27879991332E+01 -0.32102578992E+02  0.10398513000E+03  0.89676033784E+02 0.  0.
         23    2    1    2    0    0  0.17191961208E+02  0.34833982478E+01  0.35566313049E+02  0.99084405910E+02  0.90802308765E+02 0.  0.
        -11    1    3    3    0    0 -0.59606938905E+02  0.20519679099E+02 -0.43178988044E+02  0.76409877663E+02  0.00000000000E+00 0.  1.
         11    1    3    3    0    0  0.17980412392E+02 -0.17731679966E+02  0.11076409052E+02  0.27575252341E+02  0.00000000000E+00 0. -1.
        -11    1    4    4    0    0 -0.35798229235E+02  0.86818500573E+01  0.36731273986E+01  0.37018638571E+02  0.00000000000E+00 0.  1.
         11    1    4    4    0    0  0.52990190443E+02 -0.51984518095E+01  0.31893185650E+02  0.62065767339E+02  0.00000000000E+00 0. -1.
         21    1    1    2  502  501  0.24434565305E+02 -0.62713973810E+01  0.16784218107E+02  0.30299973337E+02  0.00000000000E+00 0.  1.
<scales pt_clust_5="13000.00000" pt_clust_6="13000.00000" pt_clust_7="13000.00000" pt_clust_8="13000.00000" pt_clust_9="25.22654"></scales>
<clustering>
<clus scale="   25.227">  1  9  2 -1</clus>
<clus scale="   89.676">  5  6 -1 -1</clus>
<clus scale="   90.802">  7  8 -1 -1</clus>
<clus scale="   95.599">  2  5  1 -1</clus>
<clus scale="   25.227">  1  5  2 -1</clus>
</clustering>
</event>
<event>
 9    1  0.1234700E-005  0.9148093E+02  0.7546771E-02  0.1300674E+00
          1   -1    0    0  502    0  0.00000000000E+00  0.00000000000E+00  0.36043260343E+03  0.36043260343E+03  0.00000000000E+00 0. -1.
         -1   -1    0    0    0  501 -0.00000000000E+00 -0.00000000000E+00 -0.11087157307E+03  0.11087157307E+03  0.00000000000E+00 0.  1.
         23    2    1    2    0    0  0.22010074172E+02 -0.95521143236E+01 -0.61091052617E+02  0.10919334932E+03  0.87266170840E+02 0.  0.
         23    2    1    2    0    0  0.36662799788E+02  0.34204552542E+02  0.10508030847E+03  0.14691323583E+03  0.89596402448E+02 0.  0.
        -11    1    3    3    0    0 -0.19106725994E+02 -0.24110377530E+02  0.38085767042E+01  0.30998105415E+02  0.00000000000E+00 0. -1.
         11    1    3    3    0    0  0.41116800166E+02  0.14558263206E+02 -0.64899629321E+02  0.78195243906E+02  0.00000000000E+00 0.  1.
        -11    1    4    4    0    0  0.26670306197E+02  0.62764203708E+02  0.51789432306E+02  0.85631745272E+02  0.00000000000E+00 0.  1.
         11    1    4    4    0    0  0.99924935913E+01 -0.28559651167E+02  0.53290876164E+02  0.61281490560E+02  0.00000000000E+00 0. -1.
         21    1    1    2  502  501 -0.58672873961E+02 -0.24652438218E+02  0.20557177451E+03  0.21519759135E+03  0.00000000000E+00 0. -1.
<scales pt_clust_5="13000.00000" pt_clust_6="13000.00000" pt_clust_7="13000.00000" pt_clust_8="13000.00000" pt_clust_9="63.64157"></scales>
<clustering>
<clus scale="   63.642">  1  9  2 -1</clus>
<clus scale="   87.266">  5  6 -1 -1</clus>
<clus scale="   89.200">  2  5  1 -1</clus>
<clus scale="   89.596">  7  8 -1 -1</clus>
<clus scale="   63.642">  1  5  2 -1</clus>
</clustering>
</event>
<event>
 9    1  0.1234700E-005  0.1225151E+03  0.7546771E-02  0.1239023E+00
         -2   -1    0    0    0  501 -0.00000000000E+00  0.00000000000E+00  0.26508965662E+02  0.26508965662E+02  0.00000000000E+00 0.  1.
          2   -1    0    0  502    0  0.00000000000E+00 -0.00000000000E+00 -0.70604942310E+03  0.70604942310E+03  0.00000000000E+00 0. -1.
         23    2    1    2    0    0 -0.87949571091E+02 -0.21082663006E+02 -0.28279767853E+03  0.31062681134E+03  0.91295581521E+02 0.  0.
         23    2    1    2    0    0  0.73264339189E+02  0.40740937154E+01 -0.28864602877E+03  0.31152390172E+03  0.91358359106E+02 0.  0.
        -11    1    4    4    0    0 -0.21906448180E+02  0.46089848467E-01 -0.55949938734E+02  0.60085690813E+02  0.00000000000E+00 0. -1.
         11    1    4    4    0    0  0.95170787369E+02  0.40280038670E+01 -0.23269609004E+03  0.25143821091E+03  0.00000000000E+00 0.  1.
        -13    1    3    3    0    0 -0.58362579864E+02 -0.44645090475E+02 -0.10079603246E+03  0.12473658241E+03  0.00000000000E+00 0.  1.
         13    1    3    3    0    0 -0.29586991227E+02  0.23562427469E+02 -0.18200164607E+03  0.18589022893E+03  0.00000000000E+00 0. -1.
         21    1    1    2  502  501  0.14685231902E+02  0.17008569290E+02 -0.10809675014E+03  0.11040767571E+03  0.00000000000E+00 0.  1.
<scales pt_clust_5="13000.00000" pt_clust_6="13000.00000" pt_clust_7="13000.00000" pt_clust_8="13000.00000" pt_clust_9="22.47104"></scales>
<clustering>
<clus scale="   22.471">  2  9  1 -1</clus>
<clus scale="   91.296">  7  8 -1 -1</clus>
<clus scale="   91.358">  5  6 -1 -1</clus>
<clus scale="  122.468">  1  7  2 -1</clus>
<clus scale="   22.471">  2  5  1 -1</clus>
</clustering>
</event>
<event>
 9    1  0.1234700E-005  0.1060377E+03  0.7546771E-02  0.1268112E+00
         -2   -1    0    0    0  501 -0.00000000000E+00  0.00000000000E+00  0.45584932250E+02  0.45584932250E+02  0.00000000000E+00 0.  1.
          2   -1    0    0  502    0  0.00000000000E+00 -0.00000000000E+00 -0.68700060753E+03  0.68700060753E+03  0.00000000000E+00 0. -1.
         23    2    1    2    0    0 -0.37013179804E+02 -0.20882548844E+02 -0.64835629667E+02  0.11919781376E+03  0.90545036336E+02 0.  0.
         23    2    1    2    0    0  0.94356998492E+02  0.55653964980E+02 -0.38129975335E+03  0.40691313323E+03  0.90488613140E+02 0.  0.
        -13    1    3    3    0    0  0.28466415274E+02  0.56344901332E+01 -0.14390606778E+02  0.32390953074E+02  0.00000000000E+00 0.  1.
         13    1    3    3    0    0 -0.65479595078E+02 -0.26517038977E+02 -0.50445022888E+02  0.86806860684E+02  0.00000000000E+00 0. -1.
        -13    1    4    4    0    0 -0.17600462124E+02  0.10016302764E+02 -0.40044277756E+02  0.44873675680E+02  0.00000000000E+00 0. -1.
         13    1    4    4    0    0  0.11195746062E+03  0.45637662216E+02 -0.34125547560E+03  0.36203945755E+03  0.00000000000E+00 0.  1.
         21    1    1    2  502  501 -0.57343818689E+02 -0.34771416136E+02 -0.19528029226E+03  0.20647459279E+03  0.00000000000E+00 0. -1.
<scales pt_clust_5="13000.00000" pt_clust_6="13000.00000" pt_clust_7="13000.00000" pt_clust_8="13000.00000" pt_clust_9="67.06240"></scales>
<clustering>
<clus scale="   67.062">  2  9  1 -1</clus>
<clus scale="   90.489">  7  8 -1 -1</clus>
<clus scale="   90.545">  5  6 -1 -1</clus>
<clus scale="  105.990">  2  7  1 -1</clus>
<clus scale="   67.062">  2  5  1 -1</clus>
</clustering>
</event>
<event>
 9    1  0.1234700E-005  0.1379290E+03  0.7546771E-02  0.1216324E+00
         -2   -1    0    0    0  501 -0.00000000000E+00  0.00000000000E+00  0.90114028990E+02  0.90114028990E+02  0.00000000000E+00 0.  1.
          2   -1    0    0  502    0  0.00000000000E+00 -0.00000000000E+00 -0.49416118170E+03  0.49416118170E+03  0.00000000000E+00 0. -1.
         23    2    1    2    0    0 -0.27669661994E+02  0.12114138942E+03 -0.44213637142E+02  0.16054512639E+03  0.91537126206E+02 0.  0.
         23    2    1    2    0    0  0.69504106047E+02 -0.50305842115E+02 -0.13300386768E+03  0.18244294285E+03  0.90740840127E+02 0.  0.
        -11    1    4    4    0    0 -0.27928943046E+01 -0.38250666110E+02 -0.89101820623E+02  0.97005402709E+02  0.00000000000E+00 0.  1.
         11    1    4    4    0    0  0.72297000352E+02 -0.12055176005E+02 -0.43902047060E+02  0.85437540136E+02  0.00000000000E+00 0. -1.
        -13    1    3    3    0    0 -0.14442568840E+02  0.24413751361E+02 -0.55438663432E+02  0.62274107407E+02  0.00000000000E+00 0. -1.
         13    1    3    3    0    0 -0.13227093155E+02  0.96727638057E+02  0.11225026289E+02  0.98271018986E+02  0.00000000000E+00 0.  1.
         21    1    1    2  502  501 -0.41834444053E+02 -0.70835547303E+02 -0.22682964788E+03  0.24128714145E+03  0.00000000000E+00 0. -1.
<scales pt_clust_5="13000.00000" pt_clust_6="13000.00000" pt_clust_7="13000.00000" pt_clust_8="13000.00000" pt_clust_9="82.26661"></scales>
<clustering>
<clus scale="   82.267">  2  9  1 -1</clus>
<clus scale="   90.741">  5  6 -1 -1</clus>
<clus scale="   91.537">  7  8 -1 -1</clus>
<clus scale="  137.402">  2  5  1 -1</clus>
<clus scale="   82.267">  2  5  1 -1</clus>
</clustering>
</event>
<event>
 9    1  0.1234700E-005  0.9486650E+02  0.7546771E-02  0.1291731E+00
          1   -1    0    0  502    0  0.00000000000E+00  0.00000000000E+00  0.13165672629E+03  0.13165672629E+03  0.00000000000E+00 0. -1.
         -1   -1    0    0    0  501 -0.00000000000E+00 -0.00000000000E+00 -0.13248608212E+03  0.13248608212E+03  0.00000000000E+00 0.  1.
         23    2    1    2    0    0  0.15757924782E+02 -0.14484354248E+02 -0.65504540886E+02  0.11435024667E+03  0.91252535996E+02 0.  0.
         23    2    1    2    0    0 -0.71568154434E+01  0.46092040517E+02  0.44709500266E+02  0.11143042569E+03  0.90786034994E+02 0.  0.
        -11    1    3    3    0    0  0.45550552125E+02 -0.20913002815E+02 -0.10120014530E+02  0.51133366599E+02  0.00000000000E+00 0.  1.
         11    1    3    3    0    0 -0.29792627343E+02  0.64286485667E+01 -0.55384526355E+02  0.63216880072E+02  0.00000000000E+00 0. -1.
        -13    1    4    4    0    0 -0.46711501529E+02  0.89787061044E+01  0.24870778507E+02  0.53676225295E+02  0.00000000000E+00 0. -1.
         13    1    4    4    0    0  0.39554686086E+02  0.37113334413E+02  0.19838721759E+02  0.57754200398E+02  0.00000000000E+00 0.  1.
         21    1    1    2  502  501 -0.86011093384E+01 -0.31607686269E+02  0.19965684793E+02  0.38362136051E+02  0.00000000000E+00 0.  1.
<scales pt_clust_5="13000.00000" pt_clust_6="13000.00000" pt_clust_7="13000.00000" pt_clust_8="13000.00000" pt_clust_9="32.75706"></scales>
<clustering>
<clus scale="   32.757">  1  9  2 -1</clus>
<clus scale="   90.786">  7  8 -1 -1</clus>
<clus scale="   91.253">  5  6 -1 -1</clus>
<clus scale="   94.418">  1  7  2 -1</clus>
<clus scale="   32.757">  1  5  2 -1</clus>
</clustering>
</event>
<event>
 9    1  0.1234700E-005  0.1250104E+03  0.7546771E-02  0.1235381E+00
         -2   -1    0    0    0  501 -0.00000000000E+00  0.00000000000E+00  0.52368691830E+02  0.52368691830E+02  0.00000000000E+00 0.  1.
          2   -1    0    0  502    0  0.00000000000E+00 -0.00000000000E+00 -0.44956197071E+03  0.44956197071E+03  0.00000000000E+00 0. -1.
         23    2    1    2    0    0  0.47185189843E+02 -0.31346424175E+02 -0.10234330875E+03  0.14845514453E+03  0.91409718540E+02 0.  0.
         23    2    1    2    0    0 -0.90376233509E+02  0.55583367883E+02 -0.24867242802E+03  0.28576096204E+03  0.92541756004E+02 0.  0.
        -11    1    4    4    0    0 -0.17949446078E+02 -0.24200723748E+02 -0.81276295516E+02  0.86681565844E+02  0.00000000000E+00 0. -1.
         11    1    4    4    0    0 -0.72426787431E+02  0.79784091631E+02 -0.16739613250E+03  0.19907939620E+03  0.00000000000E+00 0.  1.
        -13    1    3    3    0    0  0.72090526045E+02 -0.38302219660E+02 -0.79581321378E+02  0.11400566077E+03  0.00000000000E+00 0. -1.
         13    1    3    3    0    0 -0.24905336202E+02  0.69557954852E+01 -0.22761987373E+02  0.34449483760E+02  0.00000000000E+00 0.  1.
         21    1    1    2  502  501  0.43191043666E+02 -0.24236943708E+02 -0.46177542110E+02  0.67714555958E+02  0.00000000000E+00 0.  1.
<scales pt_clust_5="13000.00000" pt_clust_6="13000.00000" pt_clust_7="13000.00000" pt_clust_8="13000.00000" pt_clust_9="49.52672"></scales>
<clustering>
<clus scale="   49.527">  1  9  2 -1</clus>
<clus scale="   91.410">  7  8 -1 -1</clus>
<clus scale="   92.542">  5  6 -1 -1</clus>
<clus scale="  124.175">  1  7  2 -1</clus>
<clus scale="  125.010">  2  5  1 -1</clus>
</clustering>
</event>
<event>
 9    1  0.1234700E-005  0.1061454E+03  0.7546771E-02  0.1269329E+00
         -1   -1    0    0    0  501 -0.00000000000E+00  0.00000000000E+00  0.56532449915E+02  0.56532449915E+02  0.00000000000E+00 0.  1.
          1   -1    0    0  502    0  0.00000000000E+00 -0.00000000000E+00 -0.53934281422E+03  0.53934281422E+03  0.00000000000E+00 0. -1.
         23    2    1    2    0    0  0.10880036859E+02  0.83190348407E+02 -0.64425291083E+02  0.13736423808E+03  0.87631652395E+02 0.  0.
         23    2    1    2    0    0  0.25045530597E+02  0.12369874567E+01 -0.18462302543E+03  0.20738692043E+03  0.91076146744E+02 0.  0.
        -11    1    4    4    0    0 -0.34223033909E+02  0.23703101998E+01 -0.81758378416E+02  0.88663785514E+02  0.00000000000E+00 0.  1.
         11    1    4    4    0    0  0.59268564507E+02 -0.11333227431E+01 -0.10286464702E+03  0.11872313492E+03  0.00000000000E+00 0. -1.
        -13    1    3    3    0    0  0.35474286902E+02  0.70297812618E+02 -0.14254287770E+02  0.80021198503E+02  0.00000000000E+00 0.  1.
         13    1    3    3    0    0 -0.24594250043E+02  0.12892535790E+02 -0.50171003313E+02  0.57343039575E+02  0.00000000000E+00 0. -1.
         21    1    1    2  502  501 -0.35925567457E+02 -0.84427335864E+02 -0.23376204779E+03  0.25112410562E+03  0.00000000000E+00 0. -1.
<scales pt_clust_5="13000.00000" pt_clust_6="13000.00000" pt_clust_7="13000.00000" pt_clust_8="13000.00000" pt_clust_9="91.75305"></scales>
<clustering>
<clus scale="   87.632">  7  8 -1 -1</clus>
<clus scale="   91.076">  5  6 -1 -1</clus>
<clus scale="   91.753">  2  9  1 -1</clus>
<clus scale="  103.205">  1  7  2 -1</clus>
<clus scale="   91.753">  2  5  1 -1</clus>
</clustering>
</event>
<event>
 9    1  0.1234700E-005  0.9437595E+02  0.7546771E-02  0.1293519E+00
         -1   -1    0    0    0  501 -0.00000000000E+00  0.00000000000E+00  0.31288823007E+03  0.31288823007E+03  0.00000000000E+00 0.  1.
          1   -1    0    0  502    0  0.00000000000E+00 -0.00000000000E+00 -0.40813936247E+02  0.40813936247E+02  0.00000000000E+00 0. -1.
         23    2    1    2    0    0 -0.28871267111E+00  0.17155574918E+02  0.14202927735E+03  0.17020022565E+03  0.92203058957E+02 0.  0.
         23    2    1    2    0    0 -0.26792032624E+02 -0.14682598520E+02  0.12234503527E+03  0.15523938437E+03  0.90540416897E+02 0.  0.
        -11    1    3    3    0    0  0.38934384453E+02 -0.16414630469E+01  0.10848883224E+03  0.11527535476E+03  0.00000000000E+00 0. -1.
         11    1    3    3    0    0 -0.39223097124E+02  0.18797037965E+02  0.33540445106E+02  0.54924870889E+02  0.00000000000E+00 0.  1.
        -13    1    4    4    0    0  0.31699858143E+02 -0.11384268057E+02  0.26287120009E+02  0.42725814724E+02  0.00000000000E+00 0. -1.
         13    1    4    4    0    0 -0.58491890767E+02 -0.32983304634E+01  0.96057915262E+02  0.11251356964E+03  0.00000000000E+00 0.  1.
         21    1    1    2  502  501  0.27080745295E+02 -0.24729763975E+01  0.76999811990E+01  0.28262556297E+02  0.00000000000E+00 0. -1.
<scales pt_clust_5="13000.00000" pt_clust_6="13000.00000" pt_clust_7="13000.00000" pt_clust_8="13000.00000" pt_clust_9="27.19343"></scales>
<clustering>
<clus scale="   27.193">  2  9  1 -1</clus>
<clus scale="   90.540">  7  8 -1 -1</clus>
<clus scale="   92.203">  5  6 -1 -1</clus>
<clus scale="   92.752">  2  7  1 -1</clus>
<clus scale="   27.193">  2  5  1 -1</clus>
</clustering>
</event>
<event>
 9    1  0.1234700E-005  0.1168546E+03  0.7546771E-02  0.1251294E+00
         -2   -1    0    0    0  501 -0.00000000000E+00  0.00000000000E+00  0.62626212562E+02  0.62626212562E+02  0.00000000000E+00 0.  1.
          2   -1    0    0  502    0  0.00000000000E+00 -0.00000000000E+00 -0.44112935008E+03  0.44112935008E+03  0.00000000000E+00 0. -1.
         23    2    1    2    0    0  0.64018610588E+02  0.92331344464E+01 -0.21334021257E+02  0.11928506355E+03  0.97929324770E+02 0.  0.
         23    2    1    2    0    0 -0.62394850061E+02  0.18453507397E+02 -0.24583800655E+03  0.26973688273E+03  0.89933370828E+02 0.  0.
        -11    1    3    3    0    0  0.73275950983E+02 -0.26112820475E+02 -0.17055883878E+01  0.77808440527E+02  0.00000000000E+00 0.  1.
         11    1    3    3    0    0 -0.92573403949E+01  0.35345954921E+02 -0.19628432869E+02  0.41476623023E+02  0.00000000000E+00 0. -1.
        -13    1    4    4    0    0  0.83018269124E+01 -0.25663854654E+02 -0.73900796651E+02  0.78669444586E+02  0.00000000000E+00 0.  1.
         13    1    4    4    0    0 -0.70696676974E+02  0.44117362051E+02 -0.17193720990E+03  0.19106743814E+03  0.00000000000E+00 0. -1.
         21    1    1    2  502  501 -0.16237605265E+01 -0.27686641844E+02 -0.11133110971E+03  0.11473361636E+03  0.00000000000E+00 0.  1.
<scales pt_clust_5="13000.00000" pt_clust_6="13000.00000" pt_clust_7="13000.00000" pt_clust_8="13000.00000" pt_clust_9="27.73422"></scales>
<clustering>
<clus scale="   27.734">  2  9  1 -1</clus>
<clus scale="   89.933">  7  8 -1 -1</clus>
<clus scale="   97.929">  5  6 -1 -1</clus>
<clus scale="  110.240">  2  7  1 -1</clus>
<clus scale="   27.734">  2  5  1 -1</clus>
</clustering>
</event>
<event>
 9    1  0.1234700E-005  0.9692214E+02  0.7546771E-02  0.1288809E+00
          1   -1    0    0  502    0  0.00000000000E+00  0.00000000000E+00  0.35985427378E+03  0.35985427378E+03  0.00000000000E+00 0. -1.
         -1   -1    0    0    0  501 -0.00000000000E+00 -0.00000000000E+00 -0.39202621106E+02  0.39202621106E+02  0.00000000000E+00 0.  1.
         23    2    1    2    0    0 -0.16013228816E+00  0.10722713903E+02  0.56963293444E+02  0.10994971711E+03  0.93429766435E+02 0.  0.
         23    2    1    2    0    0  0.71766671184E+01 -0.30256601280E+02  0.23643250335E+03  0.25484807392E+03  0.89890186739E+02 0.  0.
        -11    1    3    3    0    0 -0.29917035701E+02 -0.30003347086E+02  0.17225795318E+02  0.45737926121E+02  0.00000000000E+00 0.  1.
         11    1    3    3    0    0  0.29756903413E+02  0.40726060989E+02  0.39737498127E+02  0.64211790987E+02  0.00000000000E+00 0. -1.
        -13    1    4    4    0    0 -0.38663486363E+02 -0.12988073702E+02  0.15055744142E+03  0.15598428896E+03  0.00000000000E+00 0. -1.
         13    1    4    4    0    0  0.45840153482E+02 -0.17268527578E+02  0.85875061927E+02  0.98863784962E+02  0.00000000000E+00 0.  1.
         21    1    1    2  502  501 -0.70165348303E+01  0.19533887377E+02  0.27255855883E+02  0.34259103856E+02  0.00000000000E+00 0.  1.
<scales pt_clust_5="13000.00000" pt_clust_6="13000.00000" pt_clust_7="13000.00000" pt_clust_8="13000.00000" pt_clust_9="20.75583"></scales>
<clustering>
<clus scale="   20.756">  2  9  1 -1</clus>
<clus scale="   89.890">  7  8 -1 -1</clus>
<clus scale="   93.430">  5  6 -1 -1</clus>
<clus scale="   93.515">  1  7  2 -1</clus>
<clus scale="   93.515">  1  5  2 -1</clus>
</clustering>
</event>
<event>
 9    1  0.1234700E-005  0.1200459E+03  0.7546771E-02  0.1253032E+00
         -1   -1    0    0    0  501 -0.00000000000E+00  0.00000000000E+00  0.11209386977E+03  0.11209386977E+03  0.00000000000E+00 0.  1.
          1   -1    0    0  502    0  0.00000000000E+00 -0.00000000000E+00 -0.48717958594E+03  0.48717958594E+03  0.00000000000E+00 0. -1.
         23    2    1    2    0    0  0.51388369794E-01  0.22829005697E+02  0.67368320124E+02  0.13739262015E+03  0.11754605640E+03 0.  0.
         23    2    1    2    0    0 -0.21241909463E+02 -0.39736295329E+02 -0.36064160711E+03  0.37569401407E+03  0.95149522064E+02 0.  0.
        -13    1    3    3    0    0 -0.11248341599E+01  0.56536209782E+02  0.82828465979E+02  0.10029039358E+03  0.00000000000E+00 0.  1.
         13    1    3    3    0    0  0.11762225297E+01 -0.33707204084E+02 -0.15460145855E+02  0.37102226570E+02  0.00000000000E+00 0. -1.
        -13    1    4    4    0    0 -0.73343931772E+01  0.30769995544E+02 -0.80774002596E+02  0.86746904523E+02  0.00000000000E+00 0.  1.
         13    1    4    4    0    0 -0.13907516286E+02 -0.70506290873E+02 -0.27986760451E+03  0.28894710955E+03  0.00000000000E+00 0. -1.
         21    1    1    2  502  501  0.21190521093E+02  0.16907289631E+02 -0.81812429191E+02  0.86186821481E+02  0.00000000000E+00 0.  1.
<scales pt_clust_5="13000.00000" pt_clust_6="13000.00000" pt_clust_7="13000.00000" pt_clust_8="13000.00000" pt_clust_9="27.10894"></scales>
<clustering>
<clus scale="   27.109">  2  9  1 -1</clus>
<clus scale="   95.150">  7  8 -1 -1</clus>
<clus scale="   98.221">  2  7  1 -1</clus>
<clus scale="  117.546">  5  6 -1 -1</clus>
<clus scale="   27.109">  2  5  1 -1</clus>
</clustering>
</event>
<event>
 9    1  0.1234700E-005  0.9208255E+02  0.7546771E-02  0.1298318E+00
          1   -1    0    0  502    0  0.00000000000E+00  0.00000000000E+00  0.20179288942E+03  0.20179288942E+03  0.00000000000E+00 0. -1.
         -1   -1    0    0    0  501 -0.00000000000E+00 -0.00000000000E+00 -0.85379761187E+02  0.85379761187E+02  0.00000000000E+00 0.  1.
         23    2    1    2    0    0  0.29723764812E+01 -0.91653496438E+01 -0.87025379369E+01  0.91108382217E+02  0.90178514557E+02 0.  0.
         23    2    1    2    0    0  0.49121171669E+01  0.34363765377E+02  0.34926875605E+02  0.10209010524E+03  0.89428774358E+02 0.  0.
        -11    1    3    3    0    0  0.16044175301E+02  0.27933185858E+02 -0.31989093183E+02  0.45398023260E+02  0.00000000000E+00 0.  1.
         11    1    3    3    0    0 -0.13071798819E+02 -0.37098535502E+02  0.23286555246E+02  0.45710358957E+02  0.00000000000E+00 0. -1.
        -13    1    4    4    0    0  0.34852407239E+02 -0.26954224327E+00  0.43263683682E+02  0.55556361194E+02  0.00000000000E+00 0. -1.
         13    1    4    4    0    0 -0.29940290072E+02  0.34633307621E+02 -0.83368080772E+01  0.46533744049E+02  0.00000000000E+00 0.  1.
         21    1    1    2  502  501 -0.78844936482E+01 -0.25198415734E+02  0.90188790562E+02  0.93974163144E+02  0.00000000000E+00 0.  1.
<scales pt_clust_5="13000.00000" pt_clust_6="13000.00000" pt_clust_7="13000.00000" pt_clust_8="13000.00000" pt_clust_9="26.40313"></scales>
<clustering>
<clus scale="   26.403">  1  9  2 -1</clus>
<clus scale="   89.429">  7  8 -1 -1</clus>
<clus scale="   90.179">  5  6 -1 -1</clus>
<clus scale="   91.348">  1  7  2 -1</clus>
<clus scale="   26.403">  1  5  2 -1</clus>
</clustering>
</event>
<event>
 9    1  0.1234700E-005  0.9933466E+02  0.7546771E-02  0.1281997E+00
          1   -1    0    0  502    0  0.00000000000E+00  0.00000000000E+00  0.76982528876E+03  0.76982528876E+03  0.00000000000E+00 0. -1.
         -1   -1    0    0    0  501 -0.00000000000E+00 -0.00000000000E+00 -0.46023900466E+02  0.46023900466E+02  0.00000000000E+00 0.  1.
         23    2    1    2    0    0  0.32934125866E+02 -0.40672626329E+02  0.66446645989E+02  0.12320550449E+03  0.89585268847E+02 0.  0.
         23    2    1    2    0    0 -0.34630501551E+02 -0.53546528358E+02  0.47146542788E+03  0.48423311874E+03  0.90197346212E+02 0.  0.
        -11    1    3    3    0    0  0.56202893902E+02 -0.13864238348E+02  0.65884758473E+02  0.87702815160E+02  0.00000000000E+00 0. -1.
         11    1    3    3    0    0 -0.23268768036E+02 -0.26808387981E+02  0.56188751586E+00  0.35502689330E+02  0.00000000000E+00 0.  1.
        -11    1    4    4    0    0 -0.58749435808E+02 -0.14917065456E+02  0.33297885243E+03  0.33845078108E+03  0.00000000000E+00 0.  1.
         11    1    4    4    0    0  0.24118934256E+02 -0.38629462901E+02  0.13848657545E+03  0.14578233766E+03  0.00000000000E+00 0. -1.
         21    1    1    2  502  501  0.16963756852E+01  0.94219154687E+02  0.18588931442E+03  0.20841056599E+03  0.00000000000E+00 0.  1.
<scales pt_clust_5="13000.00000" pt_clust_6="13000.00000" pt_clust_7="13000.00000" pt_clust_8="13000.00000" pt_clust_9="94.23442"></scales>
<clustering>
<clus scale="   89.585">  5  6 -1 -1</clus>
<clus scale="   90.197">  7  8 -1 -1</clus>
<clus scale="   94.234">  1  9  2 -1</clus>
<clus scale="   98.779">  2  5  1 -1</clus>
<clus scale="   94.234">  1  5  2 -1</clus>
</clustering>
</event>
<event>
 9    1  0.1234700E-005  0.1001050E+03  0.7546771E-02  0.1280350E+00
          1   -1    0    0  502    0  0.00000000000E+00  0.00000000000E+00  0.11510203747E+03  0.11510203747E+03  0.00000000000E+00 0. -1.
         -1   -1    0    0    0  501 -0.00000000000E+00 -0.00000000000E+00 -0.11453819380E+03  0.11453819380E+03  0.00000000000E+00 0.  1.
         23    2    1    2    0    0  0.29690855472E+02  0.39024671951E+02 -0.25970777848E+02  0.10752096746E+03  0.92096716678E+02 0.  0.
         23    2    1    2    0    0 -0.18122454170E+02 -0.18085851058E+02  0.18075273063E+02  0.96745602154E+02  0.91528545745E+02 0.  0.
        -13    1    4    4    0    0  0.33724021471E+02 -0.25394424780E+02  0.12840197582E+02  0.44125470060E+02  0.00000000000E+00 0. -1.
         13    1    4    4    0    0 -0.51846475641E+02  0.73085737219E+01  0.52350754806E+01  0.52620132094E+02  0.00000000000E+00 0.  1.
        -13    1    3    3    0    0 -0.13857731230E+02  0.54040239146E+02 -0.25776962062E+02  0.61455967448E+02  0.00000000000E+00 0.  1.
         13    1    3    3    0    0  0.43548586702E+02 -0.15015567196E+02 -0.19381578564E+00  0.46065000016E+02  0.00000000000E+00 0. -1.
         21    1    1    2  502  501 -0.11568401301E+02 -0.20938820892E+02  0.84593484587E+01  0.25373661647E+02  0.00000000000E+00 0.  1.
<scales pt_clust_5="13000.00000" pt_clust_6="13000.00000" pt_clust_7="13000.00000" pt_clust_8="13000.00000" pt_clust_9="23.92200"></scales>
<clustering>
<clus scale="   23.922">  1  9  2 -1</clus>
<clus scale="   91.529">  5  6 -1 -1</clus>
<clus scale="   92.097">  7  8 -1 -1</clus>
<clus scale="   99.582">  1  5  2 -1</clus>
<clus scale="   23.922">  1  5  2 -1</clus>
</clustering>
</event>
<event>
 9    1  0.1234700E-005  0.1084543E+03  0.7546771E-02  0.1263548E+00
          1   -1    0    0  502    0  0.00000000000E+00  0.00000000000E+00  0.97289632031E+03  0.97289632031E+03  0.00000000000E+00 0. -1.
         -1   -1    0    0    0  501 -0.00000000000E+00 -0.00000000000E+00 -0.20858706685E+02  0.20858706685E+02  0.00000000000E+00 0.  1.
         23    2    1    2    0    0  0.11073862818E+02 -0.59264012143E+02  0.27700997047E+03  0.29792710382E+03  0.91603394478E+02 0.  0.
         23    2    1    2    0    0  0.38698026700E+02  0.54335097359E+02  0.37623016900E+03  0.39287336263E+03  0.91381064388E+02 0.  0.
        -11    1    3    3    0    0  0.12874522469E+02  0.21761886081E+02  0.10159921060E+03  0.10469829325E+03  0.00000000000E+00 0.  1.
         11    1    3    3    0    0 -0.18006596510E+01 -0.81025898224E+02  0.17541075987E+03  0.19322881058E+03  0.00000000000E+00 0. -1.
        -11    1    4    4    0    0  0.34932567373E+02 -0.13884168114E+02  0.20675405314E+03  0.21014350544E+03  0.00000000000E+00 0. -1.
         11    1    4    4    0    0  0.37654593275E+01  0.68219265473E+02  0.16947611586E+03  0.18272985720E+03  0.00000000000E+00 0.  1.
         21    1    1    2  502  501 -0.49771889519E+02  0.49289147840E+01  0.29879747416E+03  0.30295456054E+03  0.00000000000E+00 0. -1.
<scales pt_clust_5="13000.00000" pt_clust_6="13000.00000" pt_clust_7="13000.00000" pt_clust_8="13000.00000" pt_clust_9="50.01535"></scales>
<clustering>
<clus scale="   50.015">  1  9  2 -1</clus>
<clus scale="   91.381">  7  8 -1 -1</clus>
<clus scale="   91.603">  5  6 -1 -1</clus>
<clus scale="  108.267">  1  7  2 -1</clus>
<clus scale="   50.015">  1  5  2 -1</clus>
</clustering>
</event>
<event>
 9    1  0.1234700E-005  0.9406764E+02  0.7546771E-02  0.1293370E+00
         -1   -1    0    0    0  501 -0.00000000000E+00  0.00000000000E+00  0.27595841350E+03  0.27595841350E+03  0.00000000000E+00 0.  1.
          1   -1    0    0  502    0  0.00000000000E+00 -0.00000000000E+00 -0.59457922614E+02  0.59457922614E+02  0.00000000000E+00 0. -1.
         23    2    1    2    0    0 -0.14476908381E+02 -0.10735371099E+02  0.18753358225E+03  0.20930166308E+03  0.91178465815E+02 0.  0.
         23    2    1    2    0    0  0.23752888247E+02  0.31846743984E+02  0.25433525172E+02  0.10278617830E+03  0.91322064395E+02 0.  0.
        -11    1    4    4    0    0 -0.10011596427E+02 -0.23223959796E+02 -0.12143386171E+02  0.28054343681E+02  0.00000000000E+00 0. -1.
         11    1    4    4    0    0  0.33764484674E+02  0.55070703780E+02  0.37576911344E+02  0.74731834624E+02  0.00000000000E+00 0.  1.
        -13    1    3    3    0    0 -0.44606095667E+01 -0.47042840452E+02  0.14491888727E+03  0.15242837585E+03  0.00000000000E+00 0.  1.
         13    1    3    3    0    0 -0.10016298814E+02  0.36307469353E+02  0.42614694978E+02  0.56873287234E+02  0.00000000000E+00 0. -1.
         21    1    1    2  502  501 -0.92759798663E+01 -0.21111372884E+02  0.35333834637E+01  0.23328494727E+02  0.00000000000E+00 0. -1.
<scales pt_clust_5="13000.00000" pt_clust_6="13000.00000" pt_clust_7="13000.00000" pt_clust_8="13000.00000" pt_clust_9="23.05936"></scales>
<clustering>
<clus scale="   23.059">  2  9  1 -1</clus>
<clus scale="   91.178">  7  8 -1 -1</clus>
<clus scale="   91.322">  5  6 -1 -1</clus>
<clus scale="   93.928">  1  7  2 -1</clus>
<clus scale="   23.059">  2  5  1 -1</clus>
</clustering>
</event>
<event>
 9    1  0.1234700E-005  0.1007056E+03  0.7546771E-02  0.1279728E+00
         -2   -1    0    0    0  501 -0.00000000000E+00  0.00000000000E+00  0.77352814520E+02  0.77352814520E+02  0.00000000000E+00 0.  1.
          2   -1    0    0  502    0  0.00000000000E+00 -0.00000000000E+00 -0.37178901612E+03  0.37178901612E+03  0.00000000000E+00 0. -1.
         23    2    1    2    0    0  0.16615652180E+02  0.31920831194E+02  0.26250651965E+02  0.10156313263E+03  0.91274058848E+02 0.  0.
         23    2    1    2    0    0 -0.27207642601E+02 -0.49908047193E+02 -0.29465396149E+03  0.31421042460E+03  0.93145933452E+02 0.  0.
        -11    1    4    4    0    0 -0.17316320889E+02  0.20297029690E+02 -0.29651402672E+02  0.39887718207E+02  0.00000000000E+00 0.  1.
         11    1    4    4    0    0 -0.98913217117E+01 -0.70205076883E+02 -0.26500255882E+03  0.27432270640E+03  0.00000000000E+00 0. -1.
        -13    1    3    3    0    0  0.46812679127E+02  0.32331560445E+02  0.38795859621E+02  0.68861276866E+02  0.00000000000E+00 0. -1.
         13    1    3    3    0    0 -0.30197026947E+02 -0.41072925038E+00 -0.12545207656E+02  0.32701855759E+02  0.00000000000E+00 0.  1.
         21    1    1    2  502  501  0.10591990421E+02  0.17987215999E+02 -0.26032892072E+02  0.33368273406E+02  0.00000000000E+00 0.  1.
<scales pt_clust_5="13000.00000" pt_clust_6="13000.00000" pt_clust_7="13000.00000" pt_clust_8="13000.00000" pt_clust_9="20.87415"></scales>
<clustering>
<clus scale="   20.874">  2  9  1 -1</clus>
<clus scale="   91.274">  7  8 -1 -1</clus>
<clus scale="   93.146">  5  6 -1 -1</clus>
<clus scale="   98.977">  1  7  2 -1</clus>
<clus scale="   20.874">  2  5  1 -1</clus>
</clustering>
</event>
<event>
 9    1  0.1234700E-005  0.9584433E+02  0.7546771E-02  0.1291172E+00
         -1   -1    0    0    0  501 -0.00000000000E+00  0.00000000000E+00  0.47373941021E+02  0.47373941021E+02  0.00000000000E+00 0.  1.
          1   -1    0    0  502    0  0.00000000000E+00 -0.00000000000E+00 -0.72052680350E+03  0.72052680350E+03  0.00000000000E+00 0. -1.
         23    2    1    2    0    0 -0.25371873658E+02 -0.50595443883E+02 -0.16546132329E+03  0.19718716186E+03  0.91113645433E+02 0.  0.
         23    2    1    2    0    0 -0.19553391768E+01 -0.41270544734E+02 -0.44538390386E+03  0.45639657672E+03  0.90685898631E+02 0.  0.
        -11    1    4    4    0    0  0.44234510817E+02 -0.17855024678E+02 -0.22674968948E+03  0.23171300251E+03  0.00000000000E+00 0.  1.
         11    1    4    4    0    0 -0.46189849993E+02 -0.23415520056E+02 -0.21863421438E+03  0.22468357421E+03  0.00000000000E+00 0. -1.
        -13    1    3    3    0    0 -0.38738120286E+02  0.64352750599E+01 -0.10888542273E+03  0.11575011884E+03  0.00000000000E+00 0.  1.
         13    1    3    3    0    0  0.13366246628E+02 -0.57030718943E+02 -0.56575900558E+02  0.81437043021E+02  0.00000000000E+00 0. -1.
         21    1    1    2  502  501  0.27327212835E+02  0.91865988617E+02 -0.62307635324E+02  0.11431700593E+03  0.00000000000E+00 0.  1.
<scales pt_clust_5="13000.00000" pt_clust_6="13000.00000" pt_clust_7="13000.00000" pt_clust_8="13000.00000" pt_clust_9="95.84433"></scales>
<clustering>
<clus scale="   90.686">  5  6 -1 -1</clus>
<clus scale="   91.114">  7  8 -1 -1</clus>
<clus scale="   95.844">  1  9  2 -1</clus>
<clus scale="   92.518">  2  5  1 -1</clus>
<clus scale="   92.518">  2  5  1 -1</clus>
</clustering>
</event>
<event>
 9    1  0.1234700E-005  0.9356277E+02  0.7546771E-02  0.1295916E+00
          2   -1    0    0  502    0  0.00000000000E+00  0.00000000000E+00  0.28784484426E+03  0.28784484426E+03  0.00000000000E+00 0. -1.
         -2   -1    0    0    0  501 -0.00000000000E+00 -0.00000000000E+00 -0.44534218393E+02  0.44534218393E+02  0.00000000000E+00 0.  1.
         23    2    1    2    0    0  0.48985256426E+01 -0.57004358718E+01  0.78201554537E+02  0.12121736640E+03  0.92312925759E+02 0.  0.
         23    2    1    2    0    0 -0.25715780076E+02 -0.12747597579E+02  0.87027112413E+02  0.12827333562E+03  0.89758162566E+02 0.  0.
        -11    1    3    3    0    0  0.18711056274E+02 -0.39672419821E+02  0.11899325839E+02  0.45448855616E+02  0.00000000000E+00 0.  1.
         11    1    3    3    0    0 -0.13812530632E+02  0.33971983950E+02  0.66302228698E+02  0.75768510783E+02  0.00000000000E+00 0. -1.
        -13    1    4    4    0    0  0.90235110082E+01  0.26575172664E+02  0.17156489887E+01  0.28117734697E+02  0.00000000000E+00 0. -1.
         13    1    4    4    0    0 -0.34739291084E+02 -0.39322770244E+02  0.85311463424E+02  0.10015560092E+03  0.00000000000E+00 0.  1.
         21    1    1    2  502  501  0.20817254433E+02  0.18448033451E+02  0.78081958915E+02  0.82888360632E+02  0.00000000000E+00 0.  1.
<scales pt_clust_5="13000.00000" pt_clust_6="13000.00000" pt_clust_7="13000.00000" pt_clust_8="13000.00000" pt_clust_9="27.81525"></scales>
<clustering>
<clus scale="   27.815">  1  9  2 -1</clus>
<clus scale="   89.758">  7  8 -1 -1</clus>
<clus scale="   91.043">  1  7  2 -1</clus>
<clus scale="   92.313">  5  6 -1 -1</clus>
<clus scale="   27.815">  1  5  2 -1</clus>
</clustering>
</event>
<event>
 9    1  0.1234700E-005  0.9297536E+02  0.7546771E-02  0.1295813E+00
         -2   -1    0    0    0  501 -0.00000000000E+00  0.00000000000E+00  0.22684113759E+02  0.22684113759E+02  0.00000000000E+00 0.  1.
          2   -1    0    0  502    0  0.00000000000E+00 -0.00000000000E+00 -0.76042633829E+03  0.76042633829E+03  0.00000000000E+00 0. -1.
         23    2    1    2    0    0  0.24525864402E+02  0.13309034079E+02 -0.15480118396E+03  0.18147214091E+03  0.90499077110E+02 0.  0.
         23    2    1    2    0    0 -0.14711400794E+02  0.31532040632E+02 -0.30842747594E+03  0.32331342393E+03  0.90517220874E+02 0.  0.
        -13    1    3    3    0    0  0.15791203473E+02  0.50858691878E+02 -0.67046107156E+02  0.85622129917E+02  0.00000000000E+00 0.  1.
         13    1    3    3    0    0  0.87346609294E+01 -0.37549657799E+02 -0.87755076800E+02  0.95850010988E+02  0.00000000000E+00 0. -1.
        -13    1    4    4    0    0 -0.51644523018E+02  0.29649263793E+02 -0.17492682484E+03  0.18478536103E+03  0.00000000000E+00 0.  1.
         13    1    4    4    0    0  0.36933122224E+02  0.18827768392E+01 -0.13350065110E+03  0.13852806290E+03  0.00000000000E+00 0. -1.
         21    1    1    2  502  501 -0.98144636084E+01 -0.44841074711E+02 -0.27451356463E+03  0.27832488721E+03  0.00000000000E+00 0. -1.
<scales pt_clust_5="13000.00000" pt_clust_6="13000.00000" pt_clust_7="13000.00000" pt_clust_8="13000.00000" pt_clust_9="45.90257"></scales>
<clustering>
<clus scale="   45.903">  2  9  1 -1</clus>
<clus scale="   90.499">  5  6 -1 -1</clus>
<clus scale="   90.517">  7  8 -1 -1</clus>
<clus scale="   92.958">  1  5  2 -1</clus>
<clus scale="   45.903">  2  5  1 -1</clus>
</clustering>
</event>
<event>
 9    1  0.1234700E-005  0.1592819E+03  0.7546771E-02  0.1205711E+00
          2   -1    0    0  502    0  0.00000000000E+00  0.00000000000E+00  0.10680993082E+04  0.10680993082E+04  0.00000000000E+00 0. -1.
         -2   -1    0    0    0  501 -0.00000000000E+00 -0.00000000000E+00 -0.50028445869E+02  0.50028445869E+02  0.00000000000E+00 0.  1.
         23    2    1    2    0    0  0.16446071960E+02  0.60972758594E+02  0.11986353305E+03  0.16395868195E+03  0.92341931200E+02 0.  0.
         23    2    1    2    0    0 -0.58206636818E+02 -0.17042841236E+03  0.47357688589E+03  0.51367446561E+03  0.84572651926E+02 0.  0.
        -11    1    4    4    0    0  0.60406890562E+01 -0.27342138758E+02  0.16671893241E+03  0.16905408868E+03  0.00000000000E+00 0. -1.
         11    1    4    4    0    0 -0.64247325874E+02 -0.14308627360E+03  0.30685795348E+03  0.34462037692E+03  0.00000000000E+00 0.  1.
        -11    1    3    3    0    0 -0.38257364406E+02  0.21579662662E+02  0.55246810755E+02  0.70579868734E+02  0.00000000000E+00 0.  1.
         11    1    3    3    0    0  0.54703436366E+02  0.39393095933E+02  0.64616722299E+02  0.93378813218E+02  0.00000000000E+00 0. -1.
         21    1    1    2  502  501  0.41760564858E+02  0.10945565376E+03  0.42463044337E+03  0.44049460650E+03  0.00000000000E+00 0. -1.
<scales pt_clust_5="13000.00000" pt_clust_6="13000.00000" pt_clust_7="13000.00000" pt_clust_8="13000.00000" pt_clust_9="134.97476"></scales>
<clustering>
<clus scale="   84.573">  5  6 -1 -1</clus>
<clus scale="   92.342">  7  8 -1 -1</clus>
<clus scale="  111.871">  2  7  1 -1</clus>
<clus scale="  134.975">  1  9  2 -1</clus>
<clus scale="  134.975">  1  5  2 -1</clus>
</clustering>
</event>
<event>
 9    1  0.1234700E-005  0.1183417E+03  0.7546771E-02  0.1246590E+00
          1   -1    0    0  502    0  0.00000000000E+00  0.00000000000E+00  0.38082271120E+03  0.38082271120E+03  0.00000000000E+00 0. -1.
         -1   -1    0    0    0  501 -0.00000000000E+00 -0.00000000000E+00 -0.57107124771E+02  0.57107124771E+02  0.00000000000E+00 0.  1.
         23    2    1    2    0    0 -0.49915193966E+02  0.50986036281E+02  0.50939817205E+02  0.12725185088E+03  0.92233757869E+02 0.  0.
         23    2    1    2    0    0  0.28926964226E+02 -0.69437845091E+02  0.21829933877E+03  0.24945171205E+03  0.94409595623E+02 0.  0.
        -11    1    3    3    0    0 -0.53276481949E+02  0.27334792035E+02 -0.10985010100E+02  0.60878935859E+02  0.00000000000E+00 0. -1.
         11    1    3    3    0    0  0.33612879826E+01  0.23651244247E+02  0.61924827306E+02  0.66372915019E+02  0.00000000000E+00 0.  1.
        -13    1    4    4    0    0  0.47990541673E+02 -0.83009607190E+02  0.18920907965E+03  0.21211733262E+03  0.00000000000E+00 0.  1.
         13    1    4    4    0    0 -0.19063577447E+02  0.13571762099E+02  0.29090259121E+02  0.37334379428E+02  0.00000000000E+00 0. -1.
         21    1    1    2  502  501  0.20988229740E+02  0.18451808810E+02  0.54476430453E+02  0.61226273044E+02  0.00000000000E+00 0.  1.
<scales pt_clust_5="13000.00000" pt_clust_6="13000.00000" pt_clust_7="13000.00000" pt_clust_8="13000.00000" pt_clust_9="27.94593"></scales>
<clustering>
<clus scale="   27.946">  1  9  2 -1</clus>
<clus scale="   92.234">  5  6 -1 -1</clus>
<clus scale="   94.410">  7  8 -1 -1</clus>
<clus scale="  116.613">  2  5  1 -1</clus>
<clus scale="   27.946">  1  5  2 -1</clus>
</clustering>
</event>
<event>
 9    1  0.1234700E-005  0.9953727E+02  0.7546771E-02  0.1281492E+00
          2   -1    0    0  502    0  0.00000000000E+00  0.00000000000E+00  0.11215699835E+03  0.11215699835E+03  0.00000000000E+00 0. -1.
         -2   -1    0    0    0  501 -0.00000000000E+00 -0.00000000000E+00 -0.18613102633E+03  0.18613102633E+03  0.00000000000E+00 0.  1.
         23    2    1    2    0    0 -0.18941835423E+02 -0.40297820620E+02 -0.10459566741E+03  0.14612616666E+03  0.91814462184E+02 0.  0.
         23    2    1    2    0    0  0.19734652292E+02  0.20187637365E+02 -0.19990700625E+02  0.97694831342E+02  0.91365500907E+02 0.  0.
        -11    1    4    4    0    0 -0.32797581696E+02  0.20123923212E+02  0.62331905389E+01  0.38980845486E+02  0.00000000000E+00 0. -1.
         11    1    4    4    0    0  0.52532233988E+02  0.63714153204E-01 -0.26223891164E+02  0.58713985855E+02  0.00000000000E+00 0.  1.
        -11    1    3    3    0    0 -0.49746132672E+02 -0.41328459423E+02 -0.44244086350E+02  0.78359801244E+02  0.00000000000E+00 0.  1.
         11    1    3    3    0    0  0.30804297249E+02  0.10306388033E+01 -0.60351581057E+02  0.67766365414E+02  0.00000000000E+00 0. -1.
         21    1    1    2  502  501 -0.79281686876E+00  0.20110183255E+02  0.50612340054E+02  0.54467026675E+02  0.00000000000E+00 0. -1.
<scales pt_clust_5="13000.00000" pt_clust_6="13000.00000" pt_clust_7="13000.00000" pt_clust_8="13000.00000" pt_clust_9="20.12581"></scales>
<clustering>
<clus scale="   20.126">  1  9  2 -1</clus>
<clus scale="   91.366">  5  6 -1 -1</clus>
<clus scale="   91.814">  7  8 -1 -1</clus>
<clus scale="   99.123">  1  5  2 -1</clus>
<clus scale="   20.126">  1  5  2 -1</clus>
</clustering>
</event>
<event>
 9    1  0.1234700E-005  0.9221311E+02  0.7546771E-02  0.1297848E+00
          1   -1    0    0  502    0  0.00000000000E+00  0.00000000000E+00  0.96426208440E+02  0.96426208440E+02  0.00000000000E+00 0. -1.
         -1   -1    0    0    0  501 -0.00000000000E+00 -0.00000000000E+00 -0.18639322748E+03  0.18639322748E+03  0.00000000000E+00 0.  1.
         23    2    1    2    0    0 -0.71929749289E+01 -0.23888524826E+02 -0.72275260580E+02  0.11809011620E+03  0.89995342911E+02 0.  0.
         23    2    1    2    0    0 -0.25567417759E+02 -0.11069230493E+01  0.32789119701E+02  0.99565412504E+02  0.90461189838E+02 0.  0.
        -11    1    3    3    0    0 -0.36875838479E+02  0.13911050930E+02 -0.53594540824E+02  0.66526082161E+02  0.00000000000E+00 0.  1.
         11    1    3    3    0    0  0.29682863550E+02 -0.37799575756E+02 -0.18680719756E+02  0.51564034040E+02  0.00000000000E+00 0. -1.
        -11    1    4    4    0    0  0.59772934370E+01 -0.41933056682E+02  0.12994121717E+02  0.44305264684E+02  0.00000000000E+00 0.  1.
         11    1    4    4    0    0 -0.31544711196E+02  0.40826133633E+02  0.19794997984E+02  0.55260147820E+02  0.00000000000E+00 0. -1.
         21    1    1    2  502  501  0.32760392688E+02  0.24995447875E+02 -0.50480878159E+02  0.65163907213E+02  0.00000000000E+00 0.  1.
<scales pt_clust_5="13000.00000" pt_clust_6="13000.00000" pt_clust_7="13000.00000" pt_clust_8="13000.00000" pt_clust_9="41.20699"></scales>
<clustering>
<clus scale="   41.207">  2  9  1 -1</clus>
<clus scale="   89.995">  5  6 -1 -1</clus>
<clus scale="   90.461">  7  8 -1 -1</clus>
<clus scale="   91.756">  2  5  1 -1</clus>
<clus scale="   92.213">  1  5  2 -1</clus>
</clustering>
</event>
<event>
 9    1  0.1234700E-005  0.1216127E+03  0.7546771E-02  0.1244011E+00
          2   -1    0    0  502    0  0.00000000000E+00  0.00000000000E+00  0.10626696808E+03  0.10626696808E+03  0.00000000000E+00 0. -1.
         -2   -1    0    0    0  501 -0.00000000000E+00 -0.00000000000E+00 -0.17892337564E+03  0.17892337564E+03  0.00000000000E+00 0.  1.
         23    2    1    2    0    0 -0.76486542791E+01 -0.74156812432E+02 -0.86415159881E+02  0.15235669045E+03  0.10093189052E+03 0.  0.
         23    2    1    2    0    0  0.16909735041E+02  0.55157533578E+02 -0.37848113659E+00  0.10740529147E+03  0.90595037052E+02 0.  0.
        -13    1    3    3    0    0  0.16190554449E+02 -0.51447604744E+02  0.59847923355E+01  0.54266083575E+02  0.00000000000E+00 0. -1.
         13    1    3    3    0    0 -0.23839208728E+02 -0.22709207688E+02 -0.92399952216E+02  0.98090606870E+02  0.00000000000E+00 0.  1.
        -13    1    4    4    0    0  0.49674240358E+02  0.34875262647E+02 -0.20334614963E+02  0.64010238756E+02  0.00000000000E+00 0. -1.
         13    1    4    4    0    0 -0.32764505318E+02  0.20282270931E+02  0.19956133827E+02  0.43395052715E+02  0.00000000000E+00 0.  1.
         21    1    1    2  502  501 -0.92610807618E+01  0.18999278853E+02  0.14137233458E+02  0.25428361797E+02  0.00000000000E+00 0. -1.
<scales pt_clust_5="13000.00000" pt_clust_6="13000.00000" pt_clust_7="13000.00000" pt_clust_8="13000.00000" pt_clust_9="21.13623"></scales>
<clustering>
<clus scale="   21.136">  1  9  2 -1</clus>
<clus scale="   90.595">  7  8 -1 -1</clus>
<clus scale="  100.932">  5  6 -1 -1</clus>
<clus scale="  113.181">  1  7  2 -1</clus>
<clus scale="   21.136">  1  5  2 -1</clus>
</clustering>
</event>
<event>
 9    1  0.1234700E-005  0.9573488E+02  0.7546771E-02  0.1290514E+00
         -1   -1    0    0    0  501 -0.00000000000E+00  0.00000000000E+00  0.20269664518E+03  0.20269664518E+03  0.00000000000E+00 0.  1.
          1   -1    0    0  502    0  0.00000000000E+00 -0.00000000000E+00 -0.14745420307E+03  0.14745420307E+03  0.00000000000E+00 0. -1.
         23    2    1    2    0    0  0.29410638829E+02  0.14907994991E+02  0.14184188464E+03  0.17074243600E+03  0.89143845690E+02 0.  0.
         23    2    1    2    0    0 -0.25305420544E+02  0.39472586681E+02 -0.61095302882E+02  0.11920408002E+03  0.90986412458E+02 0.  0.
        -11    1    4    4    0    0  0.63457036644E+01  0.59762923694E+02 -0.54304879320E+02  0.80999351364E+02  0.00000000000E+00 0.  1.
         11    1    4    4    0    0 -0.31651124209E+02 -0.20290337014E+02 -0.67904235621E+01  0.38204728660E+02  0.00000000000E+00 0. -1.
        -13    1    3    3    0    0  0.49474929170E+02  0.13507263955E+02  0.14162850556E+03  0.15062817925E+03  0.00000000000E+00 0.  1.
         13    1    3    3    0    0 -0.20064290341E+02  0.14007310362E+01  0.21337907706E+00  0.20114256758E+02  0.00000000000E+00 0. -1.
         21    1    1    2  502  501 -0.41052182850E+01 -0.54380581672E+02 -0.25504139641E+02  0.60204332228E+02  0.00000000000E+00 0. -1.
<scales pt_clust_5="13000.00000" pt_clust_6="13000.00000" pt_clust_7="13000.00000" pt_clust_8="13000.00000" pt_clust_9="54.53531"></scales>
<clustering>
<clus scale="   54.535">  2  9  1 -1</clus>
<clus scale="   89.144">  7  8 -1 -1</clus>
<clus scale="   90.986">  5  6 -1 -1</clus>
<clus scale="   93.985">  1  7  2 -1</clus>
<clus scale="   54.535">  2  5  1 -1</clus>
</clustering>
</event>
<event>
 9    1  0.1234700E-005  0.1252328E+03  0.7546771E-02  0.1235053E+00
          2   -1    0    0  502    0  0.00000000000E+00  0.00000000000E+00  0.57498167510E+03  0.57498167510E+03  0.00000000000E+00 0. -1.
         -2   -1    0    0    0  501 -0.00000000000E+00 -0.00000000000E+00 -0.53702407565E+02  0.53702407565E+02  0.00000000000E+00 0.  1.
         23    2    1    2    0    0  0.16633429619E+02 -0.90320461120E+02  0.53823839494E+02  0.13912170624E+03  0.89573359722E+02 0.  0.
         23    2    1    2    0    0 -0.33049632210E+02  0.64479506526E+02  0.38564813389E+03  0.40221433685E+03  0.88328956979E+02 0.  0.
        -13    1    4    4    0    0  0.22227464772E+02  0.50850156040E+02  0.15472215845E+03  0.16437379619E+03  0.00000000000E+00 0.  1.
         13    1    4    4    0    0 -0.55277096982E+02  0.13629350486E+02  0.23092597544E+03  0.23784054066E+03  0.00000000000E+00 0. -1.
        -13    1    3    3    0    0  0.35385423161E+02 -0.71146210130E+00  0.62205870941E+01  0.35935081111E+02  0.00000000000E+00 0.  1.
         13    1    3    3    0    0 -0.18751993542E+02 -0.89608999018E+02  0.47603252400E+02  0.10318662513E+03  0.00000000000E+00 0. -1.
         21    1    1    2  502  501  0.16416202591E+02  0.25840954593E+02  0.81807294157E+02  0.87348039583E+02  0.00000000000E+00 0.  1.
<scales pt_clust_5="13000.00000" pt_clust_6="13000.00000" pt_clust_7="13000.00000" pt_clust_8="13000.00000" pt_clust_9="30.61448"></scales>
<clustering>
<clus scale="   30.614">  1  9  2 -1</clus>
<clus scale="   88.329">  5  6 -1 -1</clus>
<clus scale="   89.573">  7  8 -1 -1</clus>
<clus scale="  124.346">  1  5  2 -1</clus>
<clus scale="   30.614">  1  5  2 -1</clus>
</clustering>
</event>
<event>
 9    1  0.1234700E-005  0.2767071E+03  0.7546771E-02  0.1098180E+00
         -2   -1    0    0    0  501 -0.00000000000E+00  0.00000000000E+00  0.27380586992E+03  0.27380586992E+03  0.00000000000E+00 0.  1.
          2   -1    0    0  502    0  0.00000000000E+00 -0.00000000000E+00 -0.55232103122E+03  0.55232103122E+03  0.00000000000E+00 0. -1.
         23    2    1    2    0    0  0.25914370853E+03 -0.17966867883E+01  0.14400416320E+03  0.31433805332E+03  0.10446302211E+03 0.  0.
         23    2    1    2    0    0 -0.24140086613E+03 -0.20766731644E+02 -0.39362862292E+03  0.47106307040E+03  0.90836601691E+02 0.  0.
        -11    1    3    3    0    0  0.95736043649E+02 -0.96294067747E+01  0.11197577695E+03  0.14763702161E+03  0.00000000000E+00 0.  1.
         11    1    3    3    0    0  0.16340766488E+03  0.78327199865E+01  0.32028386258E+02  0.16670103170E+03  0.00000000000E+00 0. -1.
        -13    1    4    4    0    0 -0.18465894412E+03  0.15593416776E+02 -0.23933258835E+03  0.30269153958E+03  0.00000000000E+00 0. -1.
         13    1    4    4    0    0 -0.56741922008E+02 -0.36360148419E+02 -0.15429603457E+03  0.16837153082E+03  0.00000000000E+00 0.  1.
         21    1    1    2  502  501 -0.17742842401E+02  0.22563418432E+02 -0.28890701589E+02  0.40725777415E+02  0.00000000000E+00 0. -1.
<scales pt_clust_5="13000.00000" pt_clust_6="13000.00000" pt_clust_7="13000.00000" pt_clust_8="13000.00000" pt_clust_9="28.70394"></scales>
<clustering>
<clus scale="   28.704">  2  9  1 -1</clus>
<clus scale="   90.837">  7  8 -1 -1</clus>
<clus scale="  104.463">  5  6 -1 -1</clus>
<clus scale="  271.856">  2  7  1 -1</clus>
<clus scale="   28.704">  2  5  1 -1</clus>
</clustering>
</event>
<event>
 9    1  0.1234700E-005  0.1319271E+03  0.7546771E-02  0.1224837E+00
          1   -1    0    0  502    0  0.00000000000E+00  0.00000000000E+00  0.71477777454E+02  0.71477777454E+02  0.00000000000E+00 0. -1.
         -1   -1    0    0    0  501 -0.00000000000E+00 -0.00000000000E+00 -0.34081272462E+03  0.34081272462E+03  0.00000000000E+00 0.  1.
         23    2    1    2    0    0  0.20201293421E+02  0.96817174107E+02 -0.21031516008E+03  0.24996668615E+03  0.92028366113E+02 0.  0.
         23    2    1    2    0    0 -0.19402566064E+01 -0.84464824254E+02 -0.62101528125E+02  0.14006301763E+03  0.92859991282E+02 0.  0.
        -13    1    3    3    0    0 -0.54783096419E+01  0.10654656020E+03 -0.17836350858E+03  0.20783580673E+03  0.00000000000E+00 0.  1.
         13    1    3    3    0    0  0.25679603063E+02 -0.97293860943E+01 -0.31951651501E+02  0.42130879422E+02  0.00000000000E+00 0. -1.
        -13    1    4    4    0    0 -0.30141115537E+02 -0.91034215729E+02 -0.53731010878E+02  0.10992150294E+03  0.00000000000E+00 0. -1.
         13    1    4    4    0    0  0.28200858931E+02  0.65693914752E+01 -0.83705172465E+01  0.30141514689E+02  0.00000000000E+00 0.  1.
         21    1    1    2  502  501 -0.18261036815E+02 -0.12352349853E+02  0.30817410402E+01  0.22260798285E+02  0.00000000000E+00 0.  1.
<scales pt_clust_5="13000.00000" pt_clust_6="13000.00000" pt_clust_7="13000.00000" pt_clust_8="13000.00000" pt_clust_9="22.04645"></scales>
<clustering>
<clus scale="   22.046">  1  9  2 -1</clus>
<clus scale="   92.028">  5  6 -1 -1</clus>
<clus scale="   92.860">  7  8 -1 -1</clus>
<clus scale="  131.343">  2  5  1 -1</clus>
<clus scale="   22.046">  1  5  2 -1</clus>
</clustering>
</event>
<event>
 9    1  0.1234700E-005  0.9786327E+02  0.7546771E-02  0.1285498E+00
          1   -1    0    0  502    0  0.00000000000E+00  0.00000000000E+00  0.22477357645E+03  0.22477357645E+03  0.00000000000E+00 0. -1.
         -1   -1    0    0    0  501 -0.00000000000E+00 -0.00000000000E+00 -0.10093897331E+03  0.10093897331E+03  0.00000000000E+00 0.  1.
         23    2    1    2    0    0 -0.30272762795E+02  0.13694108635E+02 -0.45400087787E+02  0.10628392465E+03  0.90172811248E+02 0.  0.
         23    2    1    2    0    0  0.48631092520E+02  0.12700539688E+02  0.10743027783E+03  0.14976162282E+03  0.91438461317E+02 0.  0.
        -11    1    3    3    0    0 -0.26782037071E+02  0.34086783962E+02 -0.64772898837E+02  0.77940456596E+02  0.00000000000E+00 0.  1.
         11    1    3    3    0    0 -0.34907257237E+01 -0.20392675327E+02  0.19372811050E+02  0.28343468049E+02  0.00000000000E+00 0. -1.
        -11    1    4    4    0    0  0.69235841499E+01 -0.20785251007E+02  0.91305853472E+02  0.93897399087E+02  0.00000000000E+00 0.  1.
         11    1    4    4    0    0  0.41707508370E+02  0.33485790695E+02  0.16124424358E+02  0.55864223737E+02  0.00000000000E+00 0. -1.
         21    1    1    2  502  501 -0.18358329725E+02 -0.26394648323E+02  0.61804413096E+02  0.69667002293E+02  0.00000000000E+00 0. -1.
<scales pt_clust_5="13000.00000" pt_clust_6="13000.00000" pt_clust_7="13000.00000" pt_clust_8="13000.00000" pt_clust_9="32.15129"></scales>
<clustering>
<clus scale="   32.151">  1  9  2 -1</clus>
<clus scale="   90.173">  5  6 -1 -1</clus>
<clus scale="   91.438">  7  8 -1 -1</clus>
<clus scale="   96.682">  2  5  1 -1</clus>
<clus scale="   32.151">  1  5  2 -1</clus>
</clustering>
</event>
<event>
 9    1  0.1234700E-005  0.3492646E+03  0.7546771E-02  0.1062922E+00
         -1   -1    0    0    0  501 -0.00000000000E+00  0.00000000000E+00  0.10375661150E+03  0.10375661150E+03  0.00000000000E+00 0.  1.
          1   -1    0    0  502    0  0.00000000000E+00 -0.00000000000E+00 -0.15235479846E+04  0.15235479846E+04  0.00000000000E+00 0. -1.
         23    2    1    2    0    0  0.28835603612E+03  0.14429967755E+03 -0.39642048300E+03  0.51879522981E+03  0.89597380674E+02 0.  0.
         23    2    1    2    0    0 -0.33180123027E+03 -0.16087994993E+03 -0.90395884956E+03  0.98036247497E+03  0.89412336552E+02 0.  0.
        -13    1    3    3    0    0  0.38594549530E+02  0.31379968900E+01 -0.95394403132E+02  0.10295376840E+03  0.00000000000E+00 0.  1.
         13    1    3    3    0    0  0.24976148659E+03  0.14116168066E+03 -0.30102607987E+03  0.41584146141E+03  0.00000000000E+00 0. -1.
        -13    1    4    4    0    0 -0.19282038071E+03 -0.13746564943E+03 -0.52097493306E+03  0.57226862998E+03  0.00000000000E+00 0.  1.
         13    1    4    4    0    0 -0.13898084957E+03 -0.23414300495E+02 -0.38298391650E+03  0.40809384498E+03  0.00000000000E+00 0. -1.
         21    1    1    2  502  501  0.43445194154E+02  0.16580272373E+02 -0.11941204055E+03  0.12814689132E+03  0.00000000000E+00 0.  1.
<scales pt_clust_5="13000.00000" pt_clust_6="13000.00000" pt_clust_7="13000.00000" pt_clust_8="13000.00000" pt_clust_9="46.50151"></scales>
<clustering>
<clus scale="   46.502">  2  9  1 -1</clus>
<clus scale="   89.412">  7  8 -1 -1</clus>
<clus scale="   89.597">  5  6 -1 -1</clus>
<clus scale="  349.217">  2  7  1 -1</clus>
<clus scale="   46.502">  2  5  1 -1</clus>
</clustering>
</event>
<event>
 9    1  0.1234700E-005  0.1076680E+03  0.7546771E-02  0.1266904E+00
         -1   -1    0    0    0  501 -0.00000000000E+00  0.00000000000E+00  0.69964549700E+03  0.69964549700E+03  0.00000000000E+00 0.  1.
          1   -1    0    0  502    0  0.00000000000E+00 -0.00000000000E+00 -0.24556261558E+02  0.24556261558E+02  0.00000000000E+00 0. -1.
         23    2    1    2    0    0 -0.59023302387E+02  0.96649267842E+01  0.47081541978E+03  0.48253920317E+03  0.87176614179E+02 0.  0.
         23    2    1    2    0    0  0.42007855633E+02 -0.26789385258E+02  0.17324603518E+03  0.20234976271E+03  0.91917934413E+02 0.  0.
        -13    1    4    4    0    0 -0.26043487541E+02 -0.21957276840E+02  0.78733717472E+02  0.85786849322E+02  0.00000000000E+00 0.  1.
         13    1    4    4    0    0  0.68051343174E+02 -0.48321084181E+01  0.94512317707E+02  0.11656291339E+03  0.00000000000E+00 0. -1.
        -13    1    3    3    0    0 -0.72274584485E+01  0.43338592363E+02  0.19355813642E+03  0.19848229623E+03  0.00000000000E+00 0. -1.
         13    1    3    3    0    0 -0.51795843938E+02 -0.33673665579E+02  0.27725728336E+03  0.28405690694E+03  0.00000000000E+00 0.  1.
         21    1    1    2  502  501  0.17015446753E+02  0.17124458474E+02  0.31027780484E+02  0.39312792676E+02  0.00000000000E+00 0. -1.
<scales pt_clust_5="13000.00000" pt_clust_6="13000.00000" pt_clust_7="13000.00000" pt_clust_8="13000.00000" pt_clust_9="24.14068"></scales>
<clustering>
<clus scale="   24.141">  2  9  1 -1</clus>
<clus scale="   87.177">  7  8 -1 -1</clus>
<clus scale="   91.918">  5  6 -1 -1</clus>
<clus scale="  103.650">  1  7  2 -1</clus>
<clus scale="   24.141">  2  5  1 -1</clus>
</clustering>
</event>
<event>
 9    1  0.1234700E-005  0.9585758E+02  0.7546771E-02  0.1291759E+00
         -1   -1    0    0    0  501 -0.00000000000E+00  0.00000000000E+00  0.74479229781E+02  0.74479229781E+02  0.00000000000E+00 0.  1.
          1   -1    0    0  502    0  0.00000000000E+00 -0.00000000000E+00 -0.17923879912E+03  0.17923879912E+03  0.00000000000E+00 0. -1.
         23    2    1    2    0    0  0.48777975730E-01 -0.23692664965E+02 -0.10101566517E+02  0.94138337874E+02  0.90546343157E+02 0.  0.
         23    2    1    2    0    0  0.78140582506E+00 -0.31703262206E+01 -0.49805026916E+02  0.10729107900E+03  0.94974593248E+02 0.  0.
        -11    1    4    4    0    0 -0.18471047323E+02  0.33050658601E+02 -0.54115471907E+02  0.66045514025E+02  0.00000000000E+00 0. -1.
         11    1    4    4    0    0  0.19252453148E+02 -0.36220984822E+02  0.43104449905E+01  0.41245564970E+02  0.00000000000E+00 0.  1.
        -13    1    3    3    0    0  0.43423167478E+02 -0.23310347680E+02  0.12547963062E+01  0.49300286982E+02  0.00000000000E+00 0.  1.
         13    1    3    3    0    0 -0.43374389502E+02 -0.38231728499E+00 -0.11356362823E+02  0.44838050892E+02  0.00000000000E+00 0. -1.
         21    1    1    2  502  501 -0.83018380079E+00  0.26862991185E+02 -0.44852975901E+02  0.52288612027E+02  0.00000000000E+00 0. -1.
<scales pt_clust_5="13000.00000" pt_clust_6="13000.00000" pt_clust_7="13000.00000" pt_clust_8="13000.00000" pt_clust_9="26.87582"></scales>
<clustering>
<clus scale="   26.876">  2  9  1 -1</clus>
<clus scale="   90.546">  7  8 -1 -1</clus>
<clus scale="   91.472">  1  7  2 -1</clus>
<clus scale="   94.975">  5  6 -1 -1</clus>
<clus scale="   26.876">  2  5  1 -1</clus>
</clustering>
</event>
<event>
 9    1  0.1234700E-005  0.1059134E+03  0.7546771E-02  0.1270175E+00
         -2   -1    0    0    0  501 -0.00000000000E+00  0.00000000000E+00  0.66886076458E+02  0.66886076458E+02  0.00000000000E+00 0.  1.
          2   -1    0    0  502    0  0.00000000000E+00 -0.00000000000E+00 -0.36736353607E+03  0.36736353607E+03  0.00000000000E+00 0. -1.
         23    2    1    2    0    0  0.29357595800E+02 -0.51060602807E+02  0.27176967139E+01  0.10526141478E+03  0.87198199380E+02 0.  0.
         23    2    1    2    0    0 -0.84339460487E+01  0.27039799312E+02 -0.22441995596E+03  0.24401567094E+03  0.91526219415E+02 0.  0.
        -11    1    3    3    0    0  0.10958260314E+02 -0.32722845202E+02 -0.41502726748E+02  0.53975405462E+02  0.00000000000E+00 0. -1.
         11    1    3    3    0    0  0.18399335486E+02 -0.18337757605E+02  0.44220423462E+02  0.51286009315E+02  0.00000000000E+00 0.  1.
        -13    1    4    4    0    0 -0.32218579078E+02  0.48557013079E+02 -0.18020421887E+03  0.18939213515E+03  0.00000000000E+00 0. -1.
         13    1    4    4    0    0  0.23784633029E+02 -0.21517213767E+02 -0.44215737090E+02  0.54623535797E+02  0.00000000000E+00 0.  1.
         21    1    1    2  502  501 -0.20923649751E+02  0.24020803495E+02 -0.78775200365E+02  0.84972526807E+02  0.00000000000E+00 0.  1.
<scales pt_clust_5="13000.00000" pt_clust_6="13000.00000" pt_clust_7="13000.00000" pt_clust_8="13000.00000" pt_clust_9="31.85590"></scales>
<clustering>
<clus scale="   31.856">  2  9  1 -1</clus>
<clus scale="   87.198">  5  6 -1 -1</clus>
<clus scale="   91.526">  7  8 -1 -1</clus>
<clus scale="  102.197">  1  5  2 -1</clus>
<clus scale="   31.856">  2  5  1 -1</clus>
</clustering>
</event>
<event>
 9    1  0.1234700E-005  0.1127521E+03  0.7546771E-02  0.1255732E+00
         -2   -1    0    0    0  501 -0.00000000000E+00  0.00000000000E+00  0.33517765388E+03  0.33517765388E+03  0.00000000000E+00 0.  1.
          2   -1    0    0  502    0  0.00000000000E+00 -0.00000000000E+00 -0.52851355145E+02  0.52851355145E+02  0.00000000000E+00 0. -1.
         23    2    1    2    0    0 -0.17744325820E+02  0.59823933950E+02  0.17595063719E+03  0.20777409166E+03  0.91201328205E+02 0.  0.
         23    2    1    2    0    0 -0.27926673893E+01 -0.75422190372E+02  0.97191732560E+02  0.15287941289E+03  0.90717011721E+02 0.  0.
        -13    1    3    3    0    0  0.31735750899E+02  0.48763285162E+01  0.83038294703E+02  0.89029741390E+02  0.00000000000E+00 0. -1.
         13    1    3    3    0    0 -0.49480076719E+02  0.54947605434E+02  0.92912342488E+02  0.11874435027E+03  0.00000000000E+00 0.  1.
        -13    1    4    4    0    0 -0.37677558684E+02 -0.13088477688E+02  0.11893002628E+02  0.41621511122E+02  0.00000000000E+00 0.  1.
         13    1    4    4    0    0  0.34884891295E+02 -0.62333712684E+02  0.85298729932E+02  0.11125790177E+03  0.00000000000E+00 0. -1.
         21    1    1    2  502  501  0.20536993210E+02  0.15598256421E+02  0.91839289824E+01  0.27375504471E+02  0.00000000000E+00 0. -1.
<scales pt_clust_5="13000.00000" pt_clust_6="13000.00000" pt_clust_7="13000.00000" pt_clust_8="13000.00000" pt_clust_9="25.78902"></scales>
<clustering>
<clus scale="   25.789">  2  9  1 -1</clus>
<clus scale="   90.717">  7  8 -1 -1</clus>
<clus scale="   91.201">  5  6 -1 -1</clus>
<clus scale="  112.361">  2  7  1 -1</clus>
<clus scale="   25.789">  2  5  1 -1</clus>
</clustering>
</event>
<event>
 9    1  0.1234700E-005  0.1818001E+03  0.7546771E-02  0.1166870E+00
         -2   -1    0    0    0  501 -0.00000000000E+00  0.00000000000E+00  0.67152145849E+03  0.67152145849E+03  0.00000000000E+00 0.  1.
          2   -1    0    0  502    0  0.00000000000E+00 -0.00000000000E+00 -0.59167873060E+02  0.59167873060E+02  0.00000000000E+00 0. -1.
         23    2    1    2    0    0 -0.15021333670E+03 -0.41602742791E+02  0.35545718540E+03  0.39682037435E+03  0.82593971394E+02 0.  0.
         23    2    1    2    0    0  0.16069473825E+03  0.23791445174E+02  0.25152337125E+03  0.31251546710E+03  0.89515803795E+02 0.  0.
        -11    1    3    3    0    0 -0.23071690161E+02 -0.36404718769E+02  0.50572735027E+02  0.66447031263E+02  0.00000000000E+00 0. -1.
         11    1    3    3    0    0 -0.12714164654E+03 -0.51980240219E+01  0.30488445038E+03  0.33037334308E+03  0.00000000000E+00 0.  1.
        -11    1    4    4    0    0  0.15785595618E+03 -0.17599714156E+01  0.23011603138E+03  0.27906090428E+03  0.00000000000E+00 0. -1.
         11    1    4    4    0    0  0.28387820746E+01  0.25551416590E+02  0.21407339872E+02  0.33454562825E+02  0.00000000000E+00 0.  1.
         21    1    1    2  502  501 -0.10481401555E+02  0.17811297617E+02  0.53730287796E+01  0.21353490104E+02  0.00000000000E+00 0.  1.
<scales pt_clust_5="13000.00000" pt_clust_6="13000.00000" pt_clust_7="13000.00000" pt_clust_8="13000.00000" pt_clust_9="20.66645"></scales>
<clustering>
<clus scale="   20.666">  2  9  1 -1</clus>
<clus scale="   82.594">  5  6 -1 -1</clus>
<clus scale="   89.516">  7  8 -1 -1</clus>
<clus scale="  178.494">  1  5  2 -1</clus>
<clus scale="   20.666">  2  5  1 -1</clus>
</clustering>
</event>
<event>
 9    1  0.1234700E-005  0.1125583E+03  0.7546771E-02  0.1256691E+00
         -1   -1    0    0    0  501 -0.00000000000E+00  0.00000000000E+00  0.11070562156E+03  0.11070562156E+03  0.00000000000E+00 0.  1.
          1   -1    0    0  502    0  0.00000000000E+00 -0.00000000000E+00 -0.28998934762E+03  0.28998934762E+03  0.00000000000E+00 0. -1.
         23    2    1    2    0    0  0.31178694595E+02 -0.15261944740E+02 -0.34399334395E+02  0.10089939992E+03  0.88274213354E+02 0.  0.
         23    2    1    2    0    0 -0.10788604817E+03 -0.18856357323E+02 -0.11911289228E+02  0.14253806515E+03  0.90444787600E+02 0.  0.
        -13    1    4    4    0    0 -0.55635064827E+02 -0.43607554009E+02 -0.36680657226E+02  0.79638871285E+02  0.00000000000E+00 0. -1.
         13    1    4    4    0    0 -0.52250983339E+02  0.24751196686E+02  0.24769367999E+02  0.62899193860E+02  0.00000000000E+00 0.  1.
        -13    1    3    3    0    0 -0.26087502675E+02  0.12278025771E+02 -0.40864859610E+00  0.28835303126E+02  0.00000000000E+00 0.  1.
         13    1    3    3    0    0  0.57266197270E+02 -0.27539970511E+02 -0.33990685799E+02  0.72064096793E+02  0.00000000000E+00 0. -1.
         21    1    1    2  502  501  0.76707353571E+02  0.34118302063E+02 -0.13297310244E+03  0.15725750411E+03  0.00000000000E+00 0. -1.
<scales pt_clust_5="13000.00000" pt_clust_6="13000.00000" pt_clust_7="13000.00000" pt_clust_8="13000.00000" pt_clust_9="83.95282"></scales>
<clustering>
<clus scale="   83.953">  2  9  1 -1</clus>
<clus scale="   88.274">  7  8 -1 -1</clus>
<clus scale="   90.445">  5  6 -1 -1</clus>
<clus scale="  110.822">  1  7  2 -1</clus>
<clus scale="   83.953">  2  5  1 -1</clus>
</clustering>
</event>
<event>
 9    1  0.1234700E-005  0.1077444E+03  0.7546771E-02  0.1266821E+00
         -1   -1    0    0    0  501 -0.00000000000E+00  0.00000000000E+00  0.72046226924E+02  0.72046226924E+02  0.00000000000E+00 0.  1.
          1   -1    0    0  502    0  0.00000000000E+00 -0.00000000000E+00 -0.68632165924E+03  0.68632165924E+03  0.00000000000E+00 0. -1.
         23    2    1    2    0    0 -0.23832974905E+02 -0.31090916707E+02 -0.55977150621E+02  0.11368337474E+03  0.90861501777E+02 0.  0.
         23    2    1    2    0    0  0.88427252100E+02  0.63188351848E+01 -0.52446355898E+02  0.13412379271E+03  0.85902647988E+02 0.  0.
        -11    1    3    3    0    0 -0.42043042518E+02 -0.45976655237E+02 -0.63529885289E+02  0.88980428049E+02  0.00000000000E+00 0. -1.
         11    1    3    3    0    0  0.18210067612E+02  0.14885738530E+02  0.75527346677E+01  0.24702946687E+02  0.00000000000E+00 0.  1.
        -13    1    4    4    0    0 -0.10278776308E+02  0.21221212080E+02 -0.11381935144E+02  0.26182848053E+02  0.00000000000E+00 0. -1.
         13    1    4    4    0    0  0.98706028408E+02 -0.14902376895E+02 -0.41064420755E+02  0.10794094466E+03  0.00000000000E+00 0.  1.
         21    1    1    2  502  501 -0.64594277195E+02  0.24772081522E+02 -0.50585192579E+03  0.51056071872E+03  0.00000000000E+00 0. -1.
<scales pt_clust_5="13000.00000" pt_clust_6="13000.00000" pt_clust_7="13000.00000" pt_clust_8="13000.00000" pt_clust_9="69.18148"></scales>
<clustering>
<clus scale="   69.181">  2  9  1 -1</clus>
<clus scale="   85.903">  7  8 -1 -1</clus>
<clus scale="   90.862">  5  6 -1 -1</clus>
<clus scale="  103.597">  2  7  1 -1</clus>
<clus scale="   69.181">  2  5  1 -1</clus>
</clustering>
</event>
<event>
 9    1  0.1234700E-005  0.1115936E+03  0.7546771E-02  0.1257953E+00
         -1   -1    0    0    0  501 -0.00000000000E+00  0.00000000000E+00  0.10870056049E+03  0.10870056049E+03  0.00000000000E+00 0.  1.
          1   -1    0    0  502    0  0.00000000000E+00 -0.00000000000E+00 -0.15216413147E+03  0.15216413147E+03  0.00000000000E+00 0. -1.
         23    2    1    2    0    0 -0.39088697701E+02 -0.35029441390E+02 -0.25884329492E+01  0.10555264624E+03  0.91540554353E+02 0.  0.
         23    2    1    2    0    0  0.60570580166E+02  0.50302490887E+02 -0.20191641149E+02  0.12180765259E+03  0.90720813968E+02 0.  0.
        -11    1    3    3    0    0 -0.31048201487E+02 -0.62405270987E+02  0.15979753298E+02  0.71510566898E+02  0.00000000000E+00 0. -1.
         11    1    3    3    0    0 -0.80404962136E+01  0.27375829597E+02 -0.18568186247E+02  0.34042079343E+02  0.00000000000E+00 0.  1.
        -13    1    4    4    0    0  0.25814513465E+02  0.12713242209E+02 -0.53488245219E+02  0.60737204492E+02  0.00000000000E+00 0. -1.
         13    1    4    4    0    0  0.34756066701E+02  0.37589248679E+02  0.33296604070E+02  0.61070448102E+02  0.00000000000E+00 0.  1.
         21    1    1    2  502  501 -0.21481882465E+02 -0.15273049497E+02 -0.20683496883E+02  0.33504393123E+02  0.00000000000E+00 0. -1.
<scales pt_clust_5="13000.00000" pt_clust_6="13000.00000" pt_clust_7="13000.00000" pt_clust_8="13000.00000" pt_clust_9="26.35787"></scales>
<clustering>
<clus scale="   26.358">  2  9  1 -1</clus>
<clus scale="   90.721">  7  8 -1 -1</clus>
<clus scale="   91.541">  5  6 -1 -1</clus>
<clus scale="  110.922">  2  7  1 -1</clus>
<clus scale="   26.358">  2  5  1 -1</clus>
</clustering>
</event>
<event>
 9    1  0.1234700E-005  0.1033230E+03  0.7546771E-02  0.1273939E+00
         -2   -1    0    0    0  501 -0.00000000000E+00  0.00000000000E+00  0.10863083002E+03  0.10863083002E+03  0.00000000000E+00 0.  1.
          2   -1    0    0  502    0  0.00000000000E+00 -0.00000000000E+00 -0.71645200023E+03  0.71645200023E+03  0.00000000000E+00 0. -1.
         23    2    1    2    0    0  0.10148596432E+02 -0.48148070623E+02  0.70329561493E+02  0.12433917119E+03  0.89959721861E+02 0.  0.
         23    2    1    2    0    0 -0.66775169406E+02  0.27843260194E+02 -0.45564831962E+03  0.47025249334E+03  0.91037607278E+02 0.  0.
        -13    1    4    4    0    0 -0.83540707548E+02  0.23786387056E+00 -0.34629257514E+03  0.35622696977E+03  0.00000000000E+00 0.  1.
         13    1    4    4    0    0  0.16765538142E+02  0.27605396324E+02 -0.10935574447E+03  0.11402552357E+03  0.00000000000E+00 0. -1.
        -13    1    3    3    0    0  0.35989730810E+02  0.53225857010E+01  0.61481481413E+01  0.36897023835E+02  0.00000000000E+00 0. -1.
         13    1    3    3    0    0 -0.25841134378E+02 -0.53470656324E+02  0.64181413351E+02  0.87442147352E+02  0.00000000000E+00 0.  1.
         21    1    1    2  502  501  0.56626572974E+02  0.20304810429E+02 -0.22250241208E+03  0.23049116572E+03  0.00000000000E+00 0. -1.
<scales pt_clust_5="13000.00000" pt_clust_6="13000.00000" pt_clust_7="13000.00000" pt_clust_8="13000.00000" pt_clust_9="60.15691"></scales>
<clustering>
<clus scale="   60.157">  2  9  1 -1</clus>
<clus scale="   89.960">  7  8 -1 -1</clus>
<clus scale="   91.038">  5  6 -1 -1</clus>
<clus scale="  102.375">  1  7  2 -1</clus>
<clus scale="   60.157">  2  5  1 -1</clus>
</clustering>
</event>
<event>
 9    1  0.1234700E-005  0.1373818E+03  0.7546771E-02  0.1217342E+00
          2   -1    0    0  502    0  0.00000000000E+00  0.00000000000E+00  0.96598154187E+03  0.96598154187E+03  0.00000000000E+00 0. -1.
         -2   -1    0    0    0  501 -0.00000000000E+00 -0.00000000000E+00 -0.28823842174E+02  0.28823842174E+02  0.00000000000E+00 0.  1.
         23    2    1    2    0    0 -0.56839670220E+02 -0.93340571946E+02  0.25716815414E+03  0.29481177812E+03  0.93996353833E+02 0.  0.
         23    2    1    2    0    0  0.23911512257E+02  0.83789706912E+02  0.45222502499E+03  0.46966306205E+03  0.92105609094E+02 0.  0.
        -11    1    4    4    0    0 -0.33234632341E+02  0.13051536750E+02  0.11751445025E+03  0.12281909222E+03  0.00000000000E+00 0.  1.
         11    1    4    4    0    0  0.57146144598E+02  0.70738170162E+02  0.33471057474E+03  0.34684396983E+03  0.00000000000E+00 0. -1.
        -11    1    3    3    0    0 -0.46337188361E+02 -0.11788764754E+02  0.39127918367E+02  0.61782715992E+02  0.00000000000E+00 0. -1.
         11    1    3    3    0    0 -0.10502481859E+02 -0.81551807192E+02  0.21804023577E+03  0.23302906213E+03  0.00000000000E+00 0.  1.
         21    1    1    2  502  501  0.32928157964E+02  0.95508650346E+01  0.22776452057E+03  0.23033054387E+03  0.00000000000E+00 0. -1.
<scales pt_clust_5="13000.00000" pt_clust_6="13000.00000" pt_clust_7="13000.00000" pt_clust_8="13000.00000" pt_clust_9="34.28531"></scales>
<clustering>
<clus scale="   34.285">  1  9  2 -1</clus>
<clus scale="   92.106">  5  6 -1 -1</clus>
<clus scale="   93.996">  7  8 -1 -1</clus>
<clus scale="  136.095">  1  5  2 -1</clus>
<clus scale="   34.285">  1  5  2 -1</clus>
</clustering>
</event>
<event>
 9    1  0.1234700E-005  0.1513590E+03  0.7546771E-02  0.1203248E+00
         -2   -1    0    0    0  501 -0.00000000000E+00  0.00000000000E+00  0.12337521780E+03  0.12337521780E+03  0.00000000000E+00 0.  1.
          2   -1    0    0  502    0  0.00000000000E+00 -0.00000000000E+00 -0.21029525473E+03  0.21029525473E+03  0.00000000000E+00 0. -1.
         23    2    1    2    0    0 -0.43235632822E+02 -0.10445195340E+03 -0.24354456728E+01  0.15636591477E+03  0.10800387674E+03 0.  0.
         23    2    1    2    0    0  0.51053483654E+02  0.83314782502E+02 -0.60674972255E+02  0.14452046494E+03  0.87503721935E+02 0.  0.
        -11    1    3    3    0    0  0.12893421461E+02 -0.96553912961E+02  0.11240633844E+02  0.98057382559E+02  0.00000000000E+00 0.  1.
         11    1    3    3    0    0 -0.56129054283E+02 -0.78980404411E+01 -0.13676079517E+02  0.58308532209E+02  0.00000000000E+00 0. -1.
        -13    1    4    4    0    0  0.50225087136E+01  0.46755143792E+02 -0.70678314165E+02  0.84892244392E+02  0.00000000000E+00 0. -1.
         13    1    4    4    0    0  0.46030974940E+02  0.36559638711E+02  0.10003341910E+02  0.59628220550E+02  0.00000000000E+00 0.  1.
         21    1    1    2  502  501 -0.78178508322E+01  0.21137170900E+02 -0.23809619004E+02  0.32784092825E+02  0.00000000000E+00 0. -1.
<scales pt_clust_5="13000.00000" pt_clust_6="13000.00000" pt_clust_7="13000.00000" pt_clust_8="13000.00000" pt_clust_9="22.53661"></scales>
<clustering>
<clus scale="   22.537">  2  9  1 -1</clus>
<clus scale="   87.504">  7  8 -1 -1</clus>
<clus scale="  108.004">  5  6 -1 -1</clus>
<clus scale="  137.483">  2  7  1 -1</clus>
<clus scale="   22.537">  2  5  1 -1</clus>
</clustering>
</event>
<event>
 9    1  0.1234700E-005  0.1019272E+03  0.7546771E-02  0.1278202E+00
         -3   -1    0    0    0  501 -0.00000000000E+00  0.00000000000E+00  0.16580779099E+03  0.16580779099E+03  0.00000000000E+00 0.  1.
          3   -1    0    0  502    0  0.00000000000E+00 -0.00000000000E+00 -0.46222406481E+03  0.46222406481E+03  0.00000000000E+00 0. -1.
         23    2    1    2    0    0 -0.24809709150E+02 -0.18894643496E+02  0.13714247648E+03  0.17095079722E+03  0.97178119945E+02 0.  0.
         23    2    1    2    0    0  0.40932133041E+02 -0.17597702737E+02 -0.28237821378E+03  0.30072512326E+03  0.93343588340E+02 0.  0.
        -11    1    3    3    0    0  0.28650059929E+02 -0.14958620761E+02  0.11421322176E+02  0.34278752446E+02  0.00000000000E+00 0.  1.
         11    1    3    3    0    0 -0.53459769078E+02 -0.39360227351E+01  0.12572115430E+03  0.13667204478E+03  0.00000000000E+00 0. -1.
        -13    1    4    4    0    0  0.20911643051E+02  0.35997420864E+02 -0.16464752893E+03  0.16982909028E+03  0.00000000000E+00 0. -1.
         13    1    4    4    0    0  0.20020489990E+02 -0.53595123600E+02 -0.11773068486E+03  0.13089603298E+03  0.00000000000E+00 0.  1.
         21    1    1    2  502  501 -0.16122423892E+02  0.36492346232E+02 -0.15118053651E+03  0.15635593531E+03  0.00000000000E+00 0. -1.
<scales pt_clust_5="13000.00000" pt_clust_6="13000.00000" pt_clust_7="13000.00000" pt_clust_8="13000.00000" pt_clust_9="39.89516"></scales>
<clustering>
<clus scale="   39.895">  2  9  1 -1</clus>
<clus scale="   93.344">  7  8 -1 -1</clus>
<clus scale="   97.178">  5  6 -1 -1</clus>
<clus scale="   98.278">  2  7  1 -1</clus>
<clus scale="   39.895">  2  5  1 -1</clus>
</clustering>
</event>
<event>
 9    1  0.1234700E-005  0.1125804E+03  0.7546771E-02  0.1257510E+00
         -2   -1    0    0    0  501 -0.00000000000E+00  0.00000000000E+00  0.12213067363E+03  0.12213067363E+03  0.00000000000E+00 0.  1.
          2   -1    0    0  502    0  0.00000000000E+00 -0.00000000000E+00 -0.44040384463E+03  0.44040384463E+03  0.00000000000E+00 0. -1.
         23    2    1    2    0    0  0.61019316122E+02  0.41774606818E+02  0.74425875725E+02  0.13832669096E+03  0.90147588647E+02 0.  0.
         23    2    1    2    0    0 -0.39659828529E+02 -0.16528194002E+01 -0.14943706032E+03  0.17673584997E+03  0.85606611056E+02 0.  0.
        -13    1    3    3    0    0 -0.62782231198E+01  0.30569480216E+02  0.61392286440E+02  0.68868875703E+02  0.00000000000E+00 0.  1.
         13    1    3    3    0    0  0.67297539241E+02  0.11205126602E+02  0.13033589284E+02  0.69457815253E+02  0.00000000000E+00 0. -1.
        -13    1    4    4    0    0 -0.15735294038E+02 -0.43225753910E+02 -0.81249010846E+02  0.93367376759E+02  0.00000000000E+00 0. -1.
         13    1    4    4    0    0 -0.23924534491E+02  0.41572934509E+02 -0.68188049476E+02  0.83368473212E+02  0.00000000000E+00 0.  1.
         21    1    1    2  502  501 -0.21359487593E+02 -0.40121787418E+02 -0.24326198641E+03  0.24747197733E+03  0.00000000000E+00 0. -1.
<scales pt_clust_5="13000.00000" pt_clust_6="13000.00000" pt_clust_7="13000.00000" pt_clust_8="13000.00000" pt_clust_9="45.45311"></scales>
<clustering>
<clus scale="   45.453">  2  9  1 -1</clus>
<clus scale="   85.607">  7  8 -1 -1</clus>
<clus scale="   90.148">  5  6 -1 -1</clus>
<clus scale="  108.978">  2  7  1 -1</clus>
<clus scale="   45.453">  2  5  1 -1</clus>
</clustering>
</event>
<event>
 9    1  0.1234700E-005  0.1201849E+03  0.7546771E-02  0.1244556E+00
          1   -1    0    0  502    0  0.00000000000E+00  0.00000000000E+00  0.70698401038E+02  0.70698401038E+02  0.00000000000E+00 0. -1.
         -1   -1    0    0    0  501 -0.00000000000E+00 -0.00000000000E+00 -0.55486956894E+03  0.55486956894E+03  0.00000000000E+00 0.  1.
         23    2    1    2    0    0 -0.57474773407E+02 -0.45682256896E+02 -0.45504362174E+03  0.47086215372E+03  0.96209417173E+02 0.  0.
         23    2    1    2    0    0  0.69614119118E+02  0.12091823410E+02 -0.14244140965E+02  0.11601219034E+03  0.90904317726E+02 0.  0.
        -11    1    3    3    0    0 -0.54338339130E+02 -0.69389434037E+02 -0.41471486585E+03  0.42397637742E+03  0.00000000000E+00 0.  1.
         11    1    3    3    0    0 -0.31364342769E+01  0.23707177141E+02 -0.40328755885E+02  0.46885776299E+02  0.00000000000E+00 0. -1.
        -13    1    4    4    0    0  0.50916478676E+02 -0.23476836980E+02 -0.39469082380E+02  0.68567179753E+02  0.00000000000E+00 0.  1.
         13    1    4    4    0    0  0.18697640442E+02  0.35568660390E+02  0.25224941415E+02  0.47445010585E+02  0.00000000000E+00 0. -1.
         21    1    1    2  502  501 -0.12139345711E+02  0.33590433486E+02 -0.14883405200E+02  0.38693625914E+02  0.00000000000E+00 0. -1.
<scales pt_clust_5="13000.00000" pt_clust_6="13000.00000" pt_clust_7="13000.00000" pt_clust_8="13000.00000" pt_clust_9="35.71668"></scales>
<clustering>
<clus scale="   35.717">  1  9  2 -1</clus>
<clus scale="   90.904">  7  8 -1 -1</clus>
<clus scale="   96.209">  5  6 -1 -1</clus>
<clus scale="  115.982">  1  7  2 -1</clus>
<clus scale="   35.717">  1  5  2 -1</clus>
</clustering>
</event>
<event>
 9    1  0.1234700E-005  0.9740581E+02  0.7546771E-02  0.1291085E+00
         -1   -1    0    0    0  501 -0.00000000000E+00  0.00000000000E+00  0.57085178191E+03  0.57085178191E+03  0.00000000000E+00 0.  1.
          1   -1    0    0  502    0  0.00000000000E+00 -0.00000000000E+00 -0.41777690769E+02  0.41777690769E+02  0.00000000000E+00 0. -1.
         23    2    1    2    0    0 -0.22548882623E+02 -0.15805632947E+02  0.30523039647E+03  0.32142221029E+03  0.96893612782E+02 0.  0.
         23    2    1    2    0    0 -0.20709040693E+02  0.35631203654E+01  0.22883864991E+03  0.24597368392E+03  0.87717531294E+02 0.  0.
        -13    1    4    4    0    0 -0.57458657493E+01  0.45394679424E+02  0.11384166029E+03  0.12269317630E+03  0.00000000000E+00 0. -1.
         13    1    4    4    0    0 -0.14963174943E+02 -0.41831559058E+02  0.11499698961E+03  0.12328050762E+03  0.00000000000E+00 0.  1.
        -13    1    3    3    0    0 -0.36622942356E+02 -0.48868312073E+02  0.23123739485E+03  0.23916539174E+03  0.00000000000E+00 0.  1.
         13    1    3    3    0    0  0.14074059733E+02  0.33062679126E+02  0.73993001620E+02  0.82256818545E+02  0.00000000000E+00 0. -1.
         21    1    1    2  502  501  0.43257923315E+02  0.12242512582E+02 -0.49949552309E+01  0.45233578475E+02  0.00000000000E+00 0. -1.
<scales pt_clust_5="13000.00000" pt_clust_6="13000.00000" pt_clust_7="13000.00000" pt_clust_8="13000.00000" pt_clust_9="44.95695"></scales>
<clustering>
<clus scale="   44.957">  2  9  1 -1</clus>
<clus scale="   87.718">  5  6 -1 -1</clus>
<clus scale="   88.283">  2  5  1 -1</clus>
<clus scale="   96.894">  7  8 -1 -1</clus>
<clus scale="   44.957">  2  5  1 -1</clus>
</clustering>
</event>
<event>
 9    1  0.1234700E-005  0.3300016E+03  0.7546771E-02  0.1071234E+00
         -1   -1    0    0    0  501 -0.00000000000E+00  0.00000000000E+00  0.61434086935E+03  0.61434086935E+03  0.00000000000E+00 0.  1.
          1   -1    0    0  502    0  0.00000000000E+00 -0.00000000000E+00 -0.13456221518E+04  0.13456221518E+04  0.00000000000E+00 0. -1.
         23    2    1    2    0    0  0.27182693000E+03 -0.13494606808E+03  0.43641032125E+03  0.53889808921E+03  0.88638935557E+02 0.  0.
         23    2    1    2    0    0 -0.41271013903E+03  0.11261986358E+03 -0.27444039593E+03  0.51649638385E+03  0.91859082759E+02 0.  0.
        -11    1    4    4    0    0 -0.84391620521E+02  0.44954787270E+02 -0.25522998036E+02  0.98966165640E+02  0.00000000000E+00 0.  1.
         11    1    4    4    0    0 -0.32831851851E+03  0.67665076313E+02 -0.24891739790E+03  0.41753021822E+03  0.00000000000E+00 0. -1.
        -11    1    3    3    0    0  0.19636143995E+03 -0.92187156395E+02  0.37286144761E+03  0.43137216649E+03  0.00000000000E+00 0.  1.
         11    1    3    3    0    0  0.75465490047E+02 -0.42758911684E+02  0.63548873638E+02  0.10752592272E+03  0.00000000000E+00 0. -1.
         21    1    1    2  502  501  0.14088320903E+03  0.22326204496E+02 -0.89325120773E+03  0.90456854804E+03  0.00000000000E+00 0. -1.
<scales pt_clust_5="13000.00000" pt_clust_6="13000.00000" pt_clust_7="13000.00000" pt_clust_8="13000.00000" pt_clust_9="142.64129"></scales>
<clustering>
<clus scale="   88.639">  7  8 -1 -1</clus>
<clus scale="   91.859">  5  6 -1 -1</clus>
<clus scale="  142.641">  2  9  1 -1</clus>
<clus scale="  329.120">  1  7  2 -1</clus>
<clus scale="  142.641">  2  5  1 -1</clus>
</clustering>
</event>
<event>
 9    1  0.1234700E-005  0.1056653E+03  0.7546771E-02  0.1271249E+00
          1   -1    0    0  502    0  0.00000000000E+00  0.00000000000E+00  0.34930292843E+03  0.34930292843E+03  0.00000000000E+00 0. -1.
         -1   -1    0    0    0  501 -0.00000000000E+00 -0.00000000000E+00 -0.68829377017E+02  0.68829377017E+02  0.00000000000E+00 0.  1.
         23    2    1    2    0    0 -0.51362611302E+01  0.54601090765E+01  0.38725446127E+02  0.96537377374E+02  0.88111356152E+02 0.  0.
         23    2    1    2    0    0  0.68318948071E+02  0.26947574173E+02  0.21496130098E+03  0.24570130022E+03  0.93632887350E+02 0.  0.
        -11    1    4    4    0    0  0.55736808552E+02  0.64365262004E+01  0.21441287354E+03  0.22163235557E+03  0.00000000000E+00 0. -1.
         11    1    4    4    0    0  0.12582139519E+02  0.20511047973E+02  0.54842743667E+00  0.24068944648E+02  0.00000000000E+00 0.  1.
        -13    1    3    3    0    0 -0.13255439672E+02  0.45352408829E+02  0.15832477056E+02  0.49831867286E+02  0.00000000000E+00 0. -1.
         13    1    3    3    0    0  0.81191785421E+01 -0.39892299752E+02  0.22892969071E+02  0.46705510088E+02  0.00000000000E+00 0.  1.
         21    1    1    2  502  501 -0.63182686941E+02 -0.32407683250E+02  0.26786804303E+02  0.75893627845E+02  0.00000000000E+00 0.  1.
<scales pt_clust_5="13000.00000" pt_clust_6="13000.00000" pt_clust_7="13000.00000" pt_clust_8="13000.00000" pt_clust_9="71.00922"></scales>
<clustering>
<clus scale="   71.009">  2  9  1 -1</clus>
<clus scale="   88.111">  7  8 -1 -1</clus>
<clus scale="   93.633">  5  6 -1 -1</clus>
<clus scale="  100.805">  2  7  1 -1</clus>
<clus scale="  105.665">  1  5  2 -1</clus>
</clustering>
</event>
<event>
 9    1  0.1234700E-005  0.1778581E+03  0.7546771E-02  0.1170644E+00
          1   -1    0    0  502    0  0.00000000000E+00  0.00000000000E+00  0.41620830186E+03  0.41620830186E+03  0.00000000000E+00 0. -1.
         -1   -1    0    0    0  501 -0.00000000000E+00 -0.00000000000E+00 -0.19202822974E+03  0.19202822974E+03  0.00000000000E+00 0.  1.
         23    2    1    2    0    0  0.18305474620E+02  0.15926119278E+03 -0.10985337752E+03  0.21839808474E+03  0.99653103004E+02 0.  0.
         23    2    1    2    0    0 -0.17889051477E+02 -0.92415927301E+02  0.20336096433E+03  0.24306051478E+03  0.94138250735E+02 0.  0.
        -11    1    3    3    0    0  0.46447616648E+02  0.15061461698E+03 -0.81137894544E+02  0.17727239455E+03  0.00000000000E+00 0.  1.
         11    1    3    3    0    0 -0.28142142027E+02  0.86465758090E+01 -0.28715482977E+02  0.41125690192E+02  0.00000000000E+00 0. -1.
        -11    1    4    4    0    0 -0.40149391426E+02 -0.22116888156E+01  0.60356227478E+02  0.72524060798E+02  0.00000000000E+00 0.  1.
         11    1    4    4    0    0  0.22260339949E+02 -0.90204238485E+02  0.14300473685E+03  0.17053645398E+03  0.00000000000E+00 0. -1.
         21    1    1    2  502  501 -0.41642314348E+00 -0.66845265484E+02  0.13067248531E+03  0.14677793207E+03  0.00000000000E+00 0. -1.
<scales pt_clust_5="13000.00000" pt_clust_6="13000.00000" pt_clust_7="13000.00000" pt_clust_8="13000.00000" pt_clust_9="66.84656"></scales>
<clustering>
<clus scale="   66.847">  1  9  2 -1</clus>
<clus scale="   94.138">  7  8 -1 -1</clus>
<clus scale="   99.653">  5  6 -1 -1</clus>
<clus scale="  174.828">  1  7  2 -1</clus>
<clus scale="   66.847">  1  5  2 -1</clus>
</clustering>
</event>
<event>
 9    1  0.1234700E-005  0.1225611E+03  0.7546771E-02  0.1239230E+00
         -1   -1    0    0    0  501 -0.00000000000E+00  0.00000000000E+00  0.85741695393E+02  0.85741695393E+02  0.00000000000E+00 0.  1.
          1   -1    0    0  502    0  0.00000000000E+00 -0.00000000000E+00 -0.26587550213E+03  0.26587550213E+03  0.00000000000E+00 0. -1.
         23    2    1    2    0    0 -0.70918692431E+02  0.66964275871E+00 -0.19214707873E+02  0.11797999280E+03  0.92304736310E+02 0.  0.
         23    2    1    2    0    0  0.10239241904E+03 -0.40037441844E+01 -0.12360004941E+03  0.18470436145E+03  0.91315340875E+02 0.  0.
        -11    1    3    3    0    0 -0.41730006676E+02 -0.41759406387E+02 -0.28654288483E+02  0.65622478827E+02  0.00000000000E+00 0. -1.
         11    1    3    3    0    0 -0.29188685755E+02  0.42429049145E+02  0.94395806097E+01  0.52357513975E+02  0.00000000000E+00 0.  1.
        -11    1    4    4    0    0 -0.21996300647E+00 -0.28962242297E+02 -0.12881721281E+02  0.31698558417E+02  0.00000000000E+00 0.  1.
         11    1    4    4    0    0  0.10261238204E+03  0.24958498112E+02 -0.11071832813E+03  0.15300580303E+03  0.00000000000E+00 0. -1.
         21    1    1    2  502  501 -0.31473726606E+02  0.33341014257E+01 -0.37319049451E+02  0.48932843272E+02  0.00000000000E+00 0.  1.
<scales pt_clust_5="13000.00000" pt_clust_6="13000.00000" pt_clust_7="13000.00000" pt_clust_8="13000.00000" pt_clust_9="31.64983"></scales>
<clustering>
<clus scale="   31.650">  2  9  1 -1</clus>
<clus scale="   91.315">  7  8 -1 -1</clus>
<clus scale="   92.305">  5  6 -1 -1</clus>
<clus scale="  121.818">  2  7  1 -1</clus>
<clus scale="   31.650">  2  5  1 -1</clus>
</clustering>
</event>
<event>
 9    1  0.1234700E-005  0.1104533E+03  0.7546771E-02  0.1260466E+00
         -1   -1    0    0    0  501 -0.00000000000E+00  0.00000000000E+00  0.17669322685E+03  0.17669322685E+03  0.00000000000E+00 0.  1.
          1   -1    0    0  502    0  0.00000000000E+00 -0.00000000000E+00 -0.99954194467E+02  0.99954194467E+02  0.00000000000E+00 0. -1.
         23    2    1    2    0    0  0.50227969509E+01 -0.63477674633E+02  0.78673150976E+02  0.13700838495E+03  0.92342780964E+02 0.  0.
         23    2    1    2    0    0  0.14277169720E+02  0.56076051519E+02  0.20305107144E+02  0.10927695640E+03  0.90447745660E+02 0.  0.
        -11    1    3    3    0    0 -0.20883794393E+02  0.24056877121E+01  0.60314270442E+02  0.63872775269E+02  0.00000000000E+00 0.  1.
         11    1    3    3    0    0  0.25906591344E+02 -0.65883362345E+02  0.18358880534E+02  0.73135609681E+02  0.00000000000E+00 0. -1.
        -13    1    4    4    0    0 -0.16423979833E+02  0.12735618288E+02 -0.29752479236E+02  0.36292604032E+02  0.00000000000E+00 0. -1.
         13    1    4    4    0    0  0.30701149553E+02  0.43340433231E+02  0.50057586380E+02  0.72984352369E+02  0.00000000000E+00 0.  1.
         21    1    1    2  502  501 -0.19299966671E+02  0.74016231134E+01 -0.22239225740E+02  0.30362079964E+02  0.00000000000E+00 0. -1.
<scales pt_clust_5="13000.00000" pt_clust_6="13000.00000" pt_clust_7="13000.00000" pt_clust_8="13000.00000" pt_clust_9="20.67058"></scales>
<clustering>
<clus scale="   20.671">  2  9  1 -1</clus>
<clus scale="   90.448">  7  8 -1 -1</clus>
<clus scale="   92.343">  5  6 -1 -1</clus>
<clus scale="  108.874">  2  7  1 -1</clus>
<clus scale="   20.671">  2  5  1 -1</clus>
</clustering>
</event>
<event>
 9    1  0.1234700E-005  0.1277437E+03  0.7546771E-02  0.1231565E+00
          1   -1    0    0  502    0  0.00000000000E+00  0.00000000000E+00  0.49622545017E+02  0.49622545017E+02  0.00000000000E+00 0. -1.
         -1   -1    0    0    0  501 -0.00000000000E+00 -0.00000000000E+00 -0.73168551043E+03  0.73168551043E+03  0.00000000000E+00 0.  1.
         23    2    1    2    0    0 -0.31306194094E+02  0.70621251182E+02 -0.37178591567E+03  0.39012881815E+03  0.89489042617E+02 0.  0.
         23    2    1    2    0    0  0.27757114754E+02 -0.10354304237E+03 -0.32540305423E+03  0.35477544201E+03  0.92124087584E+02 0.  0.
        -11    1    3    3    0    0 -0.83025423945E+01  0.87723040117E+02 -0.25200485075E+03  0.26696574458E+03  0.00000000000E+00 0.  1.
         11    1    3    3    0    0 -0.23003651700E+02 -0.17101788935E+02 -0.11978106492E+03  0.12316307356E+03  0.00000000000E+00 0. -1.
        -11    1    4    4    0    0  0.34782019476E+02 -0.79314117148E+01 -0.15694068606E+03  0.16094432302E+03  0.00000000000E+00 0.  1.
         11    1    4    4    0    0 -0.70249047223E+01 -0.95611630656E+02 -0.16846236817E+03  0.19383111900E+03  0.00000000000E+00 0. -1.
         21    1    1    2  502  501  0.35490793406E+01  0.32921791189E+02  0.15126004489E+02  0.36403795284E+02  0.00000000000E+00 0.  1.
<scales pt_clust_5="13000.00000" pt_clust_6="13000.00000" pt_clust_7="13000.00000" pt_clust_8="13000.00000" pt_clust_9="33.11254"></scales>
<clustering>
<clus scale="   33.113">  1  9  2 -1</clus>
<clus scale="   89.489">  5  6 -1 -1</clus>
<clus scale="   92.124">  7  8 -1 -1</clus>
<clus scale="  125.857">  2  5  1 -1</clus>
<clus scale="   33.113">  1  5  2 -1</clus>
</clustering>
</event>
<event>
 9    1  0.1234700E-005  0.1425552E+03  0.7546771E-02  0.1210191E+00
          2   -1    0    0  502    0  0.00000000000E+00  0.00000000000E+00  0.61579590642E+03  0.61579590642E+03  0.00000000000E+00 0. -1.
         -2   -1    0    0    0  501 -0.00000000000E+00 -0.00000000000E+00 -0.28503382373E+03  0.28503382373E+03  0.00000000000E+00 0.  1.
         23    2    1    2    0    0 -0.39461342070E+02  0.10380989810E+03 -0.24876932337E+03  0.28747180531E+03  0.91761485038E+02 0.  0.
         23    2    1    2    0    0 -0.23767452472E+02 -0.74865234797E+02  0.45713634097E+03  0.47258780744E+03  0.90531245039E+02 0.  0.
        -11    1    4    4    0    0  0.24224669465E+02 -0.66473693062E+02  0.25181398664E+03  0.26156427574E+03  0.00000000000E+00 0. -1.
         11    1    4    4    0    0 -0.47992121936E+02 -0.83915417354E+01  0.20532235433E+03  0.21102353170E+03  0.00000000000E+00 0.  1.
        -13    1    3    3    0    0 -0.50689766525E+02  0.81465636374E+02 -0.24376589385E+03  0.26196929847E+03  0.00000000000E+00 0.  1.
         13    1    3    3    0    0  0.11228424456E+02  0.22344261729E+02 -0.50034295247E+01  0.25502506837E+02  0.00000000000E+00 0. -1.
         21    1    1    2  502  501  0.63228794541E+02 -0.28944663306E+02  0.12239506510E+03  0.14077011740E+03  0.00000000000E+00 0.  1.
<scales pt_clust_5="13000.00000" pt_clust_6="13000.00000" pt_clust_7="13000.00000" pt_clust_8="13000.00000" pt_clust_9="69.53901"></scales>
<clustering>
<clus scale="   69.539">  1  9  2 -1</clus>
<clus scale="   90.531">  5  6 -1 -1</clus>
<clus scale="   91.761">  7  8 -1 -1</clus>
<clus scale="  141.766">  1  5  2 -1</clus>
<clus scale="   69.539">  1  5  2 -1</clus>
</clustering>
</event>
<event>
 9    1  0.1234700E-005  0.1664403E+03  0.7546771E-02  0.1206330E+00
         -1   -1    0    0    0  501 -0.00000000000E+00  0.00000000000E+00  0.23265237698E+03  0.23265237698E+03  0.00000000000E+00 0.  1.
          1   -1    0    0  502    0  0.00000000000E+00 -0.00000000000E+00 -0.82949650038E+03  0.82949650038E+03  0.00000000000E+00 0. -1.
         23    2    1    2    0    0  0.91116061980E+01  0.28946660396E+02  0.12569980162E+03  0.15862312814E+03  0.91869070617E+02 0.  0.
         23    2    1    2    0    0  0.38986031814E+02 -0.15897914510E+03 -0.20124200637E+02  0.18755417222E+03  0.89315759051E+02 0.  0.
        -11    1    3    3    0    0 -0.13295408980E+02 -0.27724190205E+02  0.68322534365E+02  0.74922408694E+02  0.00000000000E+00 0.  1.
         11    1    3    3    0    0  0.22407015178E+02  0.56670850602E+02  0.57377267258E+02  0.83700719442E+02  0.00000000000E+00 0. -1.
        -11    1    4    4    0    0 -0.22085933774E+02 -0.43757314057E+02  0.17143819218E+02  0.51926886500E+02  0.00000000000E+00 0.  1.
         11    1    4    4    0    0  0.61071965588E+02 -0.11522183104E+03 -0.37268019855E+02  0.13562728572E+03  0.00000000000E+00 0. -1.
         21    1    1    2  502  501 -0.48097638012E+02  0.13003248470E+03 -0.70241972439E+03  0.71597157700E+03  0.00000000000E+00 0. -1.
<scales pt_clust_5="13000.00000" pt_clust_6="13000.00000" pt_clust_7="13000.00000" pt_clust_8="13000.00000" pt_clust_9="140.44592"></scales>
<clustering>
<clus scale="   89.316">  7  8 -1 -1</clus>
<clus scale="   91.869">  5  6 -1 -1</clus>
<clus scale="   96.752">  1  5  2 -1</clus>
<clus scale="  140.446">  2  9  1 -1</clus>
<clus scale="  140.446">  2  5  1 -1</clus>
</clustering>
</event>
<event>
 9    1  0.1234700E-005  0.1669694E+03  0.7546771E-02  0.1181759E+00
          1   -1    0    0  502    0  0.00000000000E+00  0.00000000000E+00  0.23864712647E+03  0.23864712647E+03  0.00000000000E+00 0. -1.
         -1   -1    0    0    0  501 -0.00000000000E+00 -0.00000000000E+00 -0.17958361217E+03  0.17958361217E+03  0.00000000000E+00 0.  1.
         23    2    1    2    0    0  0.13737201157E+03 -0.20412475774E+02 -0.54768036746E+02  0.17501034729E+03  0.91330964520E+02 0.  0.
         23    2    1    2    0    0 -0.13433959455E+03 -0.13694832163E+02  0.53976178406E+02  0.17426265326E+03  0.96017547321E+02 0.  0.
        -11    1    3    3    0    0  0.24124330987E+02  0.30725856790E+02 -0.27559632710E+02  0.47807896588E+02  0.00000000000E+00 0.  1.
         11    1    3    3    0    0  0.11324768059E+03 -0.51138332564E+02 -0.27208404036E+02  0.12720245071E+03  0.00000000000E+00 0. -1.
        -13    1    4    4    0    0 -0.82133924690E+02 -0.28605798050E+02  0.76166389127E+02  0.11560965401E+03  0.00000000000E+00 0. -1.
         13    1    4    4    0    0 -0.52205669862E+02  0.14910965888E+02 -0.22190210721E+02  0.58652999253E+02  0.00000000000E+00 0.  1.
         21    1    1    2  502  501 -0.30324170202E+01  0.34107307937E+02  0.59855372638E+02  0.68957738081E+02  0.00000000000E+00 0. -1.
<scales pt_clust_5="13000.00000" pt_clust_6="13000.00000" pt_clust_7="13000.00000" pt_clust_8="13000.00000" pt_clust_9="34.24185"></scales>
<clustering>
<clus scale="   34.242">  1  9  2 -1</clus>
<clus scale="   91.331">  5  6 -1 -1</clus>
<clus scale="   96.018">  7  8 -1 -1</clus>
<clus scale="  164.319">  2  5  1 -1</clus>
<clus scale="   34.242">  1  5  2 -1</clus>
</clustering>
</event>
<event>
 9    1  0.1234700E-005  0.1481281E+03  0.7546771E-02  0.1202950E+00
         -2   -1    0    0    0  501 -0.00000000000E+00  0.00000000000E+00  0.89677719480E+02  0.89677719480E+02  0.00000000000E+00 0.  1.
          2   -1    0    0  502    0  0.00000000000E+00 -0.00000000000E+00 -0.39445099167E+03  0.39445099167E+03  0.00000000000E+00 0. -1.
         23    2    1    2    0    0 -0.36937432692E+02 -0.14474151817E+03 -0.91096496010E+02  0.19708577774E+03  0.90717976091E+02 0.  0.
         23    2    1    2    0    0  0.65224801234E+01  0.83422319707E+02 -0.12811009357E+03  0.17746752278E+03  0.89892710477E+02 0.  0.
        -11    1    3    3    0    0  0.11961002909E+02 -0.41071206212E+02  0.10356121993E+02  0.44013166587E+02  0.00000000000E+00 0. -1.
         11    1    3    3    0    0 -0.48898435601E+02 -0.10367031196E+03 -0.10145261800E+03  0.15307261116E+03  0.00000000000E+00 0.  1.
        -13    1    4    4    0    0  0.13553573614E+02  0.15814035694E+02 -0.10287397128E+03  0.10496112161E+03  0.00000000000E+00 0.  1.
         13    1    4    4    0    0 -0.70310934911E+01  0.67608284013E+02 -0.25236122284E+02  0.72506401171E+02  0.00000000000E+00 0. -1.
         21    1    1    2  502  501  0.30414952569E+02  0.61319198465E+02 -0.85566682617E+02  0.10957541063E+03  0.00000000000E+00 0. -1.
<scales pt_clust_5="13000.00000" pt_clust_6="13000.00000" pt_clust_7="13000.00000" pt_clust_8="13000.00000" pt_clust_9="68.44789"></scales>
<clustering>
<clus scale="   68.448">  2  9  1 -1</clus>
<clus scale="   89.893">  7  8 -1 -1</clus>
<clus scale="   90.718">  5  6 -1 -1</clus>
<clus scale="  147.624">  2  7  1 -1</clus>
<clus scale="   68.448">  2  5  1 -1</clus>
</clustering>
</event>
<event>
 9    1  0.1234700E-005  0.1125297E+03  0.7546771E-02  0.1258134E+00
          3   -1    0    0  502    0  0.00000000000E+00  0.00000000000E+00  0.76037520963E+02  0.76037520963E+02  0.00000000000E+00 0. -1.
         -3   -1    0    0    0  501 -0.00000000000E+00 -0.00000000000E+00 -0.23201696865E+03  0.23201696865E+03  0.00000000000E+00 0.  1.
         23    2    1    2    0    0 -0.28376786669E+02  0.55717499204E+02 -0.11923306476E+03  0.16276129707E+03  0.91460561727E+02 0.  0.
         23    2    1    2    0    0  0.36365428786E+02 -0.34421989933E+02 -0.48774845719E+02  0.11956381177E+03  0.97001039725E+02 0.  0.
        -11    1    3    3    0    0 -0.12483091308E+02  0.68053614641E+02 -0.12407958956E+03  0.14206641609E+03  0.00000000000E+00 0.  1.
         11    1    3    3    0    0 -0.15893695361E+02 -0.12336115437E+02  0.48465247960E+01  0.20694880983E+02  0.00000000000E+00 0. -1.
        -11    1    4    4    0    0  0.22646950689E+02  0.33038262600E+02 -0.13943619146E+02  0.42412683080E+02  0.00000000000E+00 0.  1.
         11    1    4    4    0    0  0.13718478097E+02 -0.67460252534E+02 -0.34831226573E+02  0.77151128688E+02  0.00000000000E+00 0. -1.
         21    1    1    2  502  501 -0.79886421169E+01 -0.21295509271E+02  0.12028462794E+02  0.25729380777E+02  0.00000000000E+00 0. -1.
<scales pt_clust_5="13000.00000" pt_clust_6="13000.00000" pt_clust_7="13000.00000" pt_clust_8="13000.00000" pt_clust_9="22.74461"></scales>
<clustering>
<clus scale="   22.745">  1  9  2 -1</clus>
<clus scale="   91.461">  5  6 -1 -1</clus>
<clus scale="   97.001">  7  8 -1 -1</clus>
<clus scale="  107.790">  2  5  1 -1</clus>
<clus scale="   22.745">  1  5  2 -1</clus>
</clustering>
</event>
<event>
 9    1  0.1234700E-005  0.9504492E+02  0.7546771E-02  0.1291551E+00
          1   -1    0    0  502    0  0.00000000000E+00  0.00000000000E+00  0.39517530448E+03  0.39517530448E+03  0.00000000000E+00 0. -1.
         -1   -1    0    0    0  501 -0.00000000000E+00 -0.00000000000E+00 -0.10733088131E+03  0.10733088131E+03  0.00000000000E+00 0.  1.
         23    2    1    2    0    0  0.54677195841E+01  0.13285061909E+02 -0.54057194684E+02  0.10848882344E+03  0.92958354586E+02 0.  0.
         23    2    1    2    0    0 -0.75793526731E+02 -0.31097182507E+02  0.21854321237E+03  0.25090800908E+03  0.92097773550E+02 0.  0.
        -13    1    3    3    0    0 -0.23460963752E+02  0.30806849749E+02 -0.62596893429E+02  0.73606045122E+02  0.00000000000E+00 0.  1.
         13    1    3    3    0    0  0.28928683336E+02 -0.17521787840E+02  0.85396987445E+01  0.34882778320E+02  0.00000000000E+00 0. -1.
        -13    1    4    4    0    0 -0.63524832732E+02  0.22267125146E+02  0.10298346590E+03  0.12303179868E+03  0.00000000000E+00 0. -1.
         13    1    4    4    0    0 -0.12268693999E+02 -0.53364307653E+02  0.11555974646E+03  0.12787621040E+03  0.00000000000E+00 0.  1.
         21    1    1    2  502  501  0.70325807147E+02  0.17812120598E+02  0.12335840548E+03  0.14310935327E+03  0.00000000000E+00 0. -1.
<scales pt_clust_5="13000.00000" pt_clust_6="13000.00000" pt_clust_7="13000.00000" pt_clust_8="13000.00000" pt_clust_9="72.54647"></scales>
<clustering>
<clus scale="   72.546">  1  9  2 -1</clus>
<clus scale="   92.098">  7  8 -1 -1</clus>
<clus scale="   92.958">  5  6 -1 -1</clus>
<clus scale="   94.203">  1  7  2 -1</clus>
<clus scale="   72.546">  1  5  2 -1</clus>
</clustering>
</event>
<event>
 9    1  0.1234700E-005  0.1497487E+03  0.7546771E-02  0.1200784E+00
          1   -1    0    0  502    0  0.00000000000E+00  0.00000000000E+00  0.46318623841E+02  0.46318623841E+02  0.00000000000E+00 0. -1.
         -1   -1    0    0    0  501 -0.00000000000E+00 -0.00000000000E+00 -0.68995025737E+03  0.68995025737E+03  0.00000000000E+00 0.  1.
         23    2    1    2    0    0  0.12785437784E+03 -0.22411593530E+02 -0.43921402720E+03  0.46699444894E+03  0.91245998227E+02 0.  0.
         23    2    1    2    0    0 -0.10132904597E+03 -0.43850075764E+01 -0.17206625989E+03  0.21959283933E+03  0.91254662566E+02 0.  0.
        -11    1    3    3    0    0  0.28852025973E+02 -0.38556637005E+02 -0.74273727457E+02  0.88519151884E+02  0.00000000000E+00 0. -1.
         11    1    3    3    0    0  0.99002351871E+02  0.16145043475E+02 -0.36494029974E+03  0.37847529705E+03  0.00000000000E+00 0.  1.
        -13    1    4    4    0    0 -0.10189533954E+03  0.19676511371E+02 -0.16424836709E+03  0.19428677621E+03  0.00000000000E+00 0.  1.
         13    1    4    4    0    0  0.56629356268E+00 -0.24061518948E+02 -0.78178928041E+01  0.25306063115E+02  0.00000000000E+00 0. -1.
         21    1    1    2  502  501 -0.26525331870E+02  0.26796601107E+02 -0.32351346445E+02  0.49681592954E+02  0.00000000000E+00 0. -1.
<scales pt_clust_5="13000.00000" pt_clust_6="13000.00000" pt_clust_7="13000.00000" pt_clust_8="13000.00000" pt_clust_9="37.70479"></scales>
<clustering>
<clus scale="   37.705">  1  9  2 -1</clus>
<clus scale="   91.246">  5  6 -1 -1</clus>
<clus scale="   91.255">  7  8 -1 -1</clus>
<clus scale="  149.743">  2  5  1 -1</clus>
<clus scale="   37.705">  1  5  2 -1</clus>
</clustering>
</event>
<event>
 9    1  0.1234700E-005  0.1048112E+03  0.7546771E-02  0.1272221E+00
          1   -1    0    0  502    0  0.00000000000E+00  0.00000000000E+00  0.12503543377E+03  0.12503543377E+03  0.00000000000E+00 0. -1.
         -1   -1    0    0    0  501 -0.00000000000E+00 -0.00000000000E+00 -0.15089079764E+03  0.15089079764E+03  0.00000000000E+00 0.  1.
         23    2    1    2    0    0  0.65620759420E+01 -0.49617994577E+02 -0.92731620569E+02  0.13871913228E+03  0.90215508531E+02 0.  0.
         23    2    1    2    0    0 -0.12329348556E+02  0.30368985641E+02  0.57707943896E+02  0.11511991420E+03  0.94064338264E+02 0.  0.
        -13    1    3    3    0    0  0.44255872275E+01  0.22707988486E+02 -0.48963340894E+02  0.54153922433E+02  0.00000000000E+00 0. -1.
         13    1    3    3    0    0  0.21364887145E+01 -0.72325983063E+02 -0.43768279675E+02  0.84565209842E+02  0.00000000000E+00 0.  1.
        -13    1    4    4    0    0 -0.26957601654E+02  0.48445140086E+02  0.28231942114E+01  0.55512289725E+02  0.00000000000E+00 0. -1.
         13    1    4    4    0    0  0.14628253097E+02 -0.18076154445E+02  0.54884749684E+02  0.59607624480E+02  0.00000000000E+00 0.  1.
         21    1    1    2  502  501  0.57672726142E+01  0.19249008936E+02  0.91683128068E+01  0.22087184930E+02  0.00000000000E+00 0.  1.
<scales pt_clust_5="13000.00000" pt_clust_6="13000.00000" pt_clust_7="13000.00000" pt_clust_8="13000.00000" pt_clust_9="20.09442"></scales>
<clustering>
<clus scale="   20.094">  1  9  2 -1</clus>
<clus scale="   90.216">  5  6 -1 -1</clus>
<clus scale="   94.064">  7  8 -1 -1</clus>
<clus scale="  101.371">  2  5  1 -1</clus>
<clus scale="   20.094">  1  5  2 -1</clus>
</clustering>
</event>
<event>
 9    1  0.1234700E-005  0.3337847E+03  0.7546771E-02  0.1069519E+00
         -1   -1    0    0    0  501 -0.00000000000E+00  0.00000000000E+00  0.72279602535E+03  0.72279602535E+03  0.00000000000E+00 0.  1.
          1   -1    0    0  502    0  0.00000000000E+00 -0.00000000000E+00 -0.16850040776E+03  0.16850040776E+03  0.00000000000E+00 0. -1.
         23    2    1    2    0    0 -0.17170072483E+03  0.27585537873E+03  0.31553179188E+03  0.46177120446E+03  0.89972244095E+02 0.  0.
         23    2    1    2    0    0  0.18576963803E+03 -0.25670784171E+03  0.23610745132E+03  0.40561667752E+03  0.91481616202E+02 0.  0.
        -11    1    3    3    0    0 -0.14002395052E+03  0.16543324730E+03  0.16490961300E+03  0.27234178249E+03  0.00000000000E+00 0.  1.
         11    1    3    3    0    0 -0.31676774312E+02  0.11042213143E+03  0.15062217887E+03  0.18942942197E+03  0.00000000000E+00 0. -1.
        -13    1    4    4    0    0  0.58274229399E+02 -0.23043203402E+02  0.57624758704E+02  0.85132178703E+02  0.00000000000E+00 0. -1.
         13    1    4    4    0    0  0.12749540863E+03 -0.23366463830E+03  0.17848269262E+03  0.32048449881E+03  0.00000000000E+00 0.  1.
         21    1    1    2  502  501 -0.14068913198E+02 -0.19147537023E+02  0.26563743897E+01  0.23908551138E+02  0.00000000000E+00 0.  1.
<scales pt_clust_5="13000.00000" pt_clust_6="13000.00000" pt_clust_7="13000.00000" pt_clust_8="13000.00000" pt_clust_9="23.76052"></scales>
<clustering>
<clus scale="   23.761">  2  9  1 -1</clus>
<clus scale="   89.972">  5  6 -1 -1</clus>
<clus scale="   91.482">  7  8 -1 -1</clus>
<clus scale="  333.374">  1  5  2 -1</clus>
<clus scale="   23.761">  2  5  1 -1</clus>
</clustering>
</event>
<event>
 9    1  0.1234700E-005  0.9932905E+02  0.7546771E-02  0.1283474E+00
          1   -1    0    0  502    0  0.00000000000E+00  0.00000000000E+00  0.55870975491E+03  0.55870975491E+03  0.00000000000E+00 0. -1.
         -1   -1    0    0    0  501 -0.00000000000E+00 -0.00000000000E+00 -0.84765787407E+02  0.84765787407E+02  0.00000000000E+00 0.  1.
         23    2    1    2    0    0  0.24487768904E+02 -0.20509398437E+02 -0.19095317326E+02  0.10170803698E+03  0.94655202665E+02 0.  0.
         23    2    1    2    0    0  0.21107273965E+02  0.46864056513E+02  0.98599584316E+02  0.14382761883E+03  0.91229102282E+02 0.  0.
        -11    1    4    4    0    0  0.25103215612E+02 -0.12584163363E+02  0.74391905217E+02  0.79515332883E+02  0.00000000000E+00 0.  1.
         11    1    4    4    0    0 -0.39959416467E+01  0.59448219876E+02  0.24207679099E+02  0.64312285945E+02  0.00000000000E+00 0. -1.
        -11    1    3    3    0    0 -0.30332817704E+02  0.12831453865E+02  0.47118981619E+01  0.33270527835E+02  0.00000000000E+00 0. -1.
         11    1    3    3    0    0  0.54820586607E+02 -0.33340852301E+02 -0.23807215488E+02  0.68437509141E+02  0.00000000000E+00 0.  1.
         21    1    1    2  502  501 -0.45595042869E+02 -0.26354658077E+02  0.39443970051E+03  0.39793988651E+03  0.00000000000E+00 0. -1.
<scales pt_clust_5="13000.00000" pt_clust_6="13000.00000" pt_clust_7="13000.00000" pt_clust_8="13000.00000" pt_clust_9="52.66380"></scales>
<clustering>
<clus scale="   52.664">  1  9  2 -1</clus>
<clus scale="   91.229">  5  6 -1 -1</clus>
<clus scale="   94.655">  7  8 -1 -1</clus>
<clus scale="   96.070">  1  5  2 -1</clus>
<clus scale="   52.664">  1  5  2 -1</clus>
</clustering>
</event>
<event>
 9    1  0.1234700E-005  0.9981116E+02  0.7546771E-02  0.1280778E+00
          1   -1    0    0  502    0  0.00000000000E+00  0.00000000000E+00  0.45677036776E+03  0.45677036776E+03  0.00000000000E+00 0. -1.
         -1   -1    0    0    0  501 -0.00000000000E+00 -0.00000000000E+00 -0.32652520881E+02  0.32652520881E+02  0.00000000000E+00 0.  1.
         23    2    1    2    0    0  0.28084358942E+02 -0.21326980559E+01  0.11950506733E+03  0.15312642269E+03  0.91503882931E+02 0.  0.
         23    2    1    2    0    0 -0.57797113351E+02  0.80837724190E+01  0.20119681581E+03  0.22853225752E+03  0.91328967742E+02 0.  0.
        -11    1    3    3    0    0 -0.81079637349E+01  0.24991311331E+02  0.10098868924E+01  0.26293052114E+02  0.00000000000E+00 0.  1.
         11    1    3    3    0    0  0.36192322677E+02 -0.27124009386E+02  0.11849518043E+03  0.12683337058E+03  0.00000000000E+00 0. -1.
        -13    1    4    4    0    0  0.19831734581E+02  0.18711830823E+02  0.77003175139E+02  0.81687938465E+02  0.00000000000E+00 0.  1.
         13    1    4    4    0    0 -0.77628847932E+02 -0.10628058404E+02  0.12419364067E+03  0.14684431906E+03  0.00000000000E+00 0. -1.
         21    1    1    2  502  501  0.29712754409E+02 -0.59510743632E+01  0.10341596375E+03  0.10776420843E+03  0.00000000000E+00 0. -1.
<scales pt_clust_5="13000.00000" pt_clust_6="13000.00000" pt_clust_7="13000.00000" pt_clust_8="13000.00000" pt_clust_9="30.30286"></scales>
<clustering>
<clus scale="   30.303">  1  9  2 -1</clus>
<clus scale="   91.329">  7  8 -1 -1</clus>
<clus scale="   91.504">  5  6 -1 -1</clus>
<clus scale="   99.651">  1  7  2 -1</clus>
<clus scale="   30.303">  1  5  2 -1</clus>
</clustering>
</event>
<event>
 9    1  0.1234700E-005  0.1136415E+03  0.7546771E-02  0.1254625E+00
          2   -1    0    0  502    0  0.00000000000E+00  0.00000000000E+00  0.87115648963E+03  0.87115648963E+03  0.00000000000E+00 0. -1.
         -2   -1    0    0    0  501 -0.00000000000E+00 -0.00000000000E+00 -0.28195961286E+02  0.28195961286E+02  0.00000000000E+00 0.  1.
         23    2    1    2    0    0 -0.39779534788E+02  0.81884639799E+02  0.20493787043E+03  0.24146135167E+03  0.89535177384E+02 0.  0.
         23    2    1    2    0    0  0.12304636404E+02 -0.22570351426E+02  0.39310263703E+03  0.40439776309E+03  0.91362151432E+02 0.  0.
        -11    1    3    3    0    0 -0.38404348209E+02  0.40500556444E+00  0.10909064305E+03  0.11565390781E+03  0.00000000000E+00 0. -1.
         11    1    3    3    0    0 -0.13751865783E+01  0.81479634235E+02  0.95847227383E+02  0.12580744386E+03  0.00000000000E+00 0.  1.
        -11    1    4    4    0    0  0.90796113405E+01  0.35391626840E+02  0.13597939562E+03  0.14080270816E+03  0.00000000000E+00 0.  1.
         11    1    4    4    0    0  0.32250250639E+01 -0.57961978266E+02  0.25712324141E+03  0.26359505494E+03  0.00000000000E+00 0. -1.
         21    1    1    2  502  501  0.27474898383E+02 -0.59314288373E+02  0.24492002089E+03  0.25349333616E+03  0.00000000000E+00 0. -1.
<scales pt_clust_5="13000.00000" pt_clust_6="13000.00000" pt_clust_7="13000.00000" pt_clust_8="13000.00000" pt_clust_9="65.36861"></scales>
<clustering>
<clus scale="   65.369">  1  9  2 -1</clus>
<clus scale="   89.535">  5  6 -1 -1</clus>
<clus scale="   91.362">  7  8 -1 -1</clus>
<clus scale="  112.178">  2  5  1 -1</clus>
<clus scale="   65.369">  1  5  2 -1</clus>
</clustering>
</event>
<event>
 9    1  0.1234700E-005  0.9922354E+02  0.7546771E-02  0.1283361E+00
         -1   -1    0    0    0  501 -0.00000000000E+00  0.00000000000E+00  0.90146609317E+02  0.90146609317E+02  0.00000000000E+00 0.  1.
          1   -1    0    0  502    0  0.00000000000E+00 -0.00000000000E+00 -0.36670159890E+03  0.36670159890E+03  0.00000000000E+00 0. -1.
         23    2    1    2    0    0  0.58296498035E+00 -0.26792738451E+02  0.21285444640E+02  0.99471814404E+02  0.93399041887E+02 0.  0.
         23    2    1    2    0    0 -0.40365703122E+02  0.44611491786E+02 -0.79450088033E+02  0.13467812814E+03  0.90588666636E+02 0.  0.
        -11    1    3    3    0    0 -0.23472724193E+02 -0.54898143749E+02  0.17856554092E+02  0.62318789238E+02  0.00000000000E+00 0.  1.
         11    1    3    3    0    0  0.24055689173E+02  0.28105405298E+02  0.34288905487E+01  0.37153025166E+02  0.00000000000E+00 0. -1.
        -13    1    4    4    0    0 -0.67846481205E+02  0.44162982407E+02 -0.63616618079E+02  0.10295915755E+03  0.00000000000E+00 0.  1.
         13    1    4    4    0    0  0.27480778083E+02  0.44850937877E+00 -0.15833469953E+02  0.31718970593E+02  0.00000000000E+00 0. -1.
         21    1    1    2  502  501  0.39782738142E+02 -0.17818753335E+02 -0.21839034619E+03  0.22269826567E+03  0.00000000000E+00 0. -1.
<scales pt_clust_5="13000.00000" pt_clust_6="13000.00000" pt_clust_7="13000.00000" pt_clust_8="13000.00000" pt_clust_9="43.59099"></scales>
<clustering>
<clus scale="   43.591">  2  9  1 -1</clus>
<clus scale="   90.589">  7  8 -1 -1</clus>
<clus scale="   93.399">  5  6 -1 -1</clus>
<clus scale="   96.583">  2  7  1 -1</clus>
<clus scale="   43.591">  2  5  1 -1</clus>
</clustering>
</event>
<event>
 9    1  0.1234700E-005  0.3183981E+03  0.7546771E-02  0.1076425E+00
         -2   -1    0    0    0  501 -0.00000000000E+00  0.00000000000E+00  0.33129550864E+03  0.33129550864E+03  0.00000000000E+00 0.  1.
          2   -1    0    0  502    0  0.00000000000E+00 -0.00000000000E+00 -0.46781858411E+03  0.46781858411E+03  0.00000000000E+00 0. -1.
         23    2    1    2    0    0  0.26293613340E+03  0.33106648250E+02 -0.13183438883E+02  0.27967873407E+03  0.88402097379E+02 0.  0.
         23    2    1    2    0    0 -0.35125663749E+03 -0.10551109085E+03 -0.43362197821E+02  0.38001044893E+03  0.89520083936E+02 0.  0.
        -11    1    3    3    0    0  0.15722840453E+03  0.45243349398E+02  0.27232237728E+02  0.16585935797E+03  0.00000000000E+00 0.  1.
         11    1    3    3    0    0  0.10570772888E+03 -0.12136701148E+02 -0.40415676611E+02  0.11381937610E+03  0.00000000000E+00 0. -1.
        -13    1    4    4    0    0 -0.21069759918E+03 -0.19039838300E+02 -0.37676607850E+02  0.21488490063E+03  0.00000000000E+00 0. -1.
         13    1    4    4    0    0 -0.14055903831E+03 -0.86471252546E+02 -0.56855899711E+01  0.16512554830E+03  0.00000000000E+00 0.  1.
         21    1    1    2  502  501  0.88320504083E+02  0.72404442596E+02 -0.79977438769E+02  0.13942490976E+03  0.00000000000E+00 0. -1.
<scales pt_clust_5="13000.00000" pt_clust_6="13000.00000" pt_clust_7="13000.00000" pt_clust_8="13000.00000" pt_clust_9="114.20558"></scales>
<clustering>
<clus scale="   88.402">  5  6 -1 -1</clus>
<clus scale="   89.520">  7  8 -1 -1</clus>
<clus scale="  114.206">  2  9  1 -1</clus>
<clus scale="  318.086">  1  5  2 -1</clus>
<clus scale="  114.206">  2  5  1 -1</clus>
</clustering>
</event>
<event>
 9    1  0.1234700E-005  0.9827699E+02  0.7546771E-02  0.1284664E+00
          2   -1    0    0  502    0  0.00000000000E+00  0.00000000000E+00  0.33810064216E+03  0.33810064216E+03  0.00000000000E+00 0. -1.
         -2   -1    0    0    0  501 -0.00000000000E+00 -0.00000000000E+00 -0.97975875499E+02  0.97975875499E+02  0.00000000000E+00 0.  1.
         23    2    1    2    0    0  0.32579778012E+02 -0.21504115910E+01 -0.52013206938E+02  0.11181435052E+03  0.93439868802E+02 0.  0.
         23    2    1    2    0    0 -0.19348020687E+02 -0.19367476757E+02  0.13844265845E+03  0.16850482759E+03  0.92076393198E+02 0.  0.
        -11    1    3    3    0    0  0.63660050329E+02 -0.89349067876E+01 -0.46945768593E+02  0.79601129112E+02  0.00000000000E+00 0.  1.
         11    1    3    3    0    0 -0.31080272317E+02  0.67844951965E+01 -0.50674383454E+01  0.32213221412E+02  0.00000000000E+00 0. -1.
        -13    1    4    4    0    0 -0.97997309455E+01 -0.56585823515E+02  0.88320362592E+02  0.10534930753E+03  0.00000000000E+00 0. -1.
         13    1    4    4    0    0 -0.95482897414E+01  0.37218346758E+02  0.50122295855E+02  0.63155520061E+02  0.00000000000E+00 0.  1.
         21    1    1    2  502  501 -0.13231757325E+02  0.21517888348E+02  0.15369531515E+03  0.15575733954E+03  0.00000000000E+00 0. -1.
<scales pt_clust_5="13000.00000" pt_clust_6="13000.00000" pt_clust_7="13000.00000" pt_clust_8="13000.00000" pt_clust_9="25.26062"></scales>
<clustering>
<clus scale="   25.261">  1  9  2 -1</clus>
<clus scale="   92.076">  7  8 -1 -1</clus>
<clus scale="   93.440">  5  6 -1 -1</clus>
<clus scale="   96.982">  1  7  2 -1</clus>
<clus scale="   25.261">  1  5  2 -1</clus>
</clustering>
</event>
<event>
 9    1  0.1234700E-005  0.1264560E+03  0.7546771E-02  0.1234879E+00
          1   -1    0    0  502    0  0.00000000000E+00  0.00000000000E+00  0.49524344991E+03  0.49524344991E+03  0.00000000000E+00 0. -1.
         -1   -1    0    0    0  501 -0.00000000000E+00 -0.00000000000E+00 -0.27517786715E+03  0.27517786715E+03  0.00000000000E+00 0.  1.
         23    2    1    2    0    0  0.49584463854E+02 -0.11591791711E+02 -0.68291462591E+02  0.12374803393E+03  0.89760032015E+02 0.  0.
         23    2    1    2    0    0 -0.11717037097E+03  0.13879423978E+02 -0.14355896829E+03  0.20949536634E+03  0.96734672675E+02 0.  0.
        -11    1    3    3    0    0  0.51541226710E+02 -0.41941398026E+02 -0.25335442302E+02  0.71115846025E+02  0.00000000000E+00 0. -1.
         11    1    3    3    0    0 -0.19567628567E+01  0.30349606315E+02 -0.42956020289E+02  0.52632187903E+02  0.00000000000E+00 0.  1.
        -13    1    4    4    0    0 -0.10929022801E+03 -0.25218576878E+02 -0.11333810936E+03  0.15945487635E+03  0.00000000000E+00 0.  1.
         13    1    4    4    0    0 -0.78801429638E+01  0.39098000856E+02 -0.30220858925E+02  0.50040489988E+02  0.00000000000E+00 0. -1.
         21    1    1    2  502  501  0.67585907117E+02 -0.22876322667E+01  0.43191601364E+03  0.43717791680E+03  0.00000000000E+00 0. -1.
<scales pt_clust_5="13000.00000" pt_clust_6="13000.00000" pt_clust_7="13000.00000" pt_clust_8="13000.00000" pt_clust_9="67.62461"></scales>
<clustering>
<clus scale="   67.625">  1  9  2 -1</clus>
<clus scale="   89.760">  5  6 -1 -1</clus>
<clus scale="   96.735">  7  8 -1 -1</clus>
<clus scale="  121.204">  2  5  1 -1</clus>
<clus scale="   67.625">  1  5  2 -1</clus>
</clustering>
</event>
<event>
 9    1  0.1234700E-005  0.9864844E+02  0.7546771E-02  0.1283338E+00
          3   -1    0    0  502    0  0.00000000000E+00  0.00000000000E+00  0.44270832458E+02  0.44270832458E+02  0.00000000000E+00 0. -1.
         -3   -1    0    0    0  501 -0.00000000000E+00 -0.00000000000E+00 -0.30330363485E+03  0.30330363485E+03  0.00000000000E+00 0.  1.
         23    2    1    2    0    0 -0.36726716744E+01  0.26284270849E+02 -0.12816792165E+03  0.15916741963E+03  0.90569862091E+02 0.  0.
         23    2    1    2    0    0  0.12116022902E+02 -0.52268149063E+02 -0.11759868155E+03  0.15803528204E+03  0.90922731211E+02 0.  0.
        -11    1    3    3    0    0 -0.43711478835E+02  0.10732081670E+02 -0.94219245250E+02  0.10441808816E+03  0.00000000000E+00 0. -1.
         11    1    3    3    0    0  0.40038807161E+02  0.15552189179E+02 -0.33948676403E+02  0.54749331472E+02  0.00000000000E+00 0.  1.
        -13    1    4    4    0    0  0.66142098936E+01  0.25879399868E+02 -0.37024624864E+02  0.45654287382E+02  0.00000000000E+00 0.  1.
         13    1    4    4    0    0  0.55018130083E+01 -0.78147548931E+02 -0.80574056685E+02  0.11238099466E+03  0.00000000000E+00 0. -1.
         21    1    1    2  502  501 -0.84433512274E+01  0.25983878214E+02 -0.13266199193E+02  0.30371765639E+02  0.00000000000E+00 0.  1.
<scales pt_clust_5="13000.00000" pt_clust_6="13000.00000" pt_clust_7="13000.00000" pt_clust_8="13000.00000" pt_clust_9="27.32128"></scales>
<clustering>
<clus scale="   27.321">  1  9  2 -1</clus>
<clus scale="   90.570">  5  6 -1 -1</clus>
<clus scale="   90.923">  7  8 -1 -1</clus>
<clus scale="   98.323">  2  5  1 -1</clus>
<clus scale="   27.321">  1  5  2 -1</clus>
</clustering>
</event>
<event>
 9    1  0.1234700E-005  0.9855960E+02  0.7546771E-02  0.1292853E+00
         -1   -1    0    0    0  501 -0.00000000000E+00  0.00000000000E+00  0.70617080721E+02  0.70617080721E+02  0.00000000000E+00 0.  1.
          1   -1    0    0  502    0  0.00000000000E+00 -0.00000000000E+00 -0.32460509944E+03  0.32460509944E+03  0.00000000000E+00 0. -1.
         23    2    1    2    0    0 -0.20219603658E+01  0.40920199391E+02  0.19518424154E+02  0.10101486711E+03  0.90246791934E+02 0.  0.
         23    2    1    2    0    0  0.23573781308E+02 -0.31074902918E+02 -0.18204160211E+03  0.19972330411E+03  0.72310998822E+02 0.  0.
        -13    1    4    4    0    0 -0.24690017645E+02 -0.23466813986E+01 -0.72441054152E+02  0.76568989882E+02  0.00000000000E+00 0.  1.
         13    1    4    4    0    0  0.48263798954E+02 -0.28728221519E+02 -0.10960054796E+03  0.12315431423E+03  0.00000000000E+00 0. -1.
        -13    1    3    3    0    0  0.24350471630E+01 -0.26893855939E+02  0.19060144719E+02  0.33052958395E+02  0.00000000000E+00 0.  1.
         13    1    3    3    0    0 -0.44570075288E+01  0.67814055330E+02  0.45827943508E+00  0.67961908717E+02  0.00000000000E+00 0. -1.
         21    1    1    2  502  501 -0.21551820942E+02 -0.98452964728E+01 -0.91464840763E+02  0.94484008935E+02  0.00000000000E+00 0.  1.
<scales pt_clust_5="13000.00000" pt_clust_6="13000.00000" pt_clust_7="13000.00000" pt_clust_8="13000.00000" pt_clust_9="23.69411"></scales>
<clustering>
<clus scale="   23.694">  2  9  1 -1</clus>
<clus scale="   72.311">  5  6 -1 -1</clus>
<clus scale="   82.452">  2  5  1 -1</clus>
<clus scale="   90.247">  7  8 -1 -1</clus>
<clus scale="   23.694">  2  5  1 -1</clus>
</clustering>
</event>
<event>
 9    1  0.1234700E-005  0.1150307E+03  0.7546771E-02  0.1254026E+00
         -2   -1    0    0    0  501 -0.00000000000E+00  0.00000000000E+00  0.83554058245E+02  0.83554058245E+02  0.00000000000E+00 0.  1.
          2   -1    0    0  502    0  0.00000000000E+00 -0.00000000000E+00 -0.50434234564E+03  0.50434234564E+03  0.00000000000E+00 0. -1.
         23    2    1    2    0    0  0.23154130822E+02 -0.54801614915E+02  0.22220136224E+02  0.11029153704E+03  0.90172933394E+02 0.  0.
         23    2    1    2    0    0 -0.69253720811E+02  0.56970193288E+02 -0.31547005013E+03  0.34197333791E+03  0.96864495787E+02 0.  0.
        -11    1    4    4    0    0 -0.31945950184E+01 -0.22079014969E+02 -0.10865150272E+03  0.11091815624E+03  0.00000000000E+00 0.  1.
         11    1    4    4    0    0 -0.66059125793E+02  0.79049208257E+02 -0.20681854740E+03  0.23105518167E+03  0.00000000000E+00 0. -1.
        -13    1    3    3    0    0 -0.18150637169E+02 -0.34869148334E+02 -0.23280981262E+02  0.45687057508E+02  0.00000000000E+00 0. -1.
         13    1    3    3    0    0  0.41304767991E+02 -0.19932466581E+02  0.45501117486E+02  0.64604479529E+02  0.00000000000E+00 0.  1.
         21    1    1    2  502  501  0.46099589989E+02 -0.21685783730E+01 -0.12753837350E+03  0.13563152894E+03  0.00000000000E+00 0.  1.
<scales pt_clust_5="13000.00000" pt_clust_6="13000.00000" pt_clust_7="13000.00000" pt_clust_8="13000.00000" pt_clust_9="46.15057"></scales>
<clustering>
<clus scale="   46.151">  2  9  1 -1</clus>
<clus scale="   90.173">  7  8 -1 -1</clus>
<clus scale="   96.864">  5  6 -1 -1</clus>
<clus scale="  109.455">  1  7  2 -1</clus>
<clus scale="   46.151">  2  5  1 -1</clus>
</clustering>
</event>
<event>
 9    1  0.1234700E-005  0.2741980E+03  0.7546771E-02  0.1099254E+00
          1   -1    0    0  502    0  0.00000000000E+00  0.00000000000E+00  0.12125140571E+04  0.12125140571E+04  0.00000000000E+00 0. -1.
         -1   -1    0    0    0  501 -0.00000000000E+00 -0.00000000000E+00 -0.69742831365E+02  0.69742831365E+02  0.00000000000E+00 0.  1.
         23    2    1    2    0    0 -0.15874581525E+02 -0.24355619320E+03  0.43832214256E+03  0.51369171319E+03  0.11036871821E+03 0.  0.
         23    2    1    2    0    0 -0.15266290096E+01  0.26083782901E+03  0.61997762849E+03  0.68060561797E+03  0.10398578626E+03 0.  0.
        -11    1    3    3    0    0 -0.17434728885E+02 -0.18950396577E+03  0.41140548708E+03  0.45328820590E+03  0.00000000000E+00 0. -1.
         11    1    3    3    0    0  0.15601473596E+01 -0.54052227435E+02  0.26916655480E+02  0.60403507289E+02  0.00000000000E+00 0.  1.
        -13    1    4    4    0    0 -0.49775117208E+02  0.16601037610E+03  0.35437963201E+03  0.39448945594E+03  0.00000000000E+00 0.  1.
         13    1    4    4    0    0  0.48248488198E+02  0.94827452914E+02  0.26559799648E+03  0.28611616203E+03  0.00000000000E+00 0. -1.
         21    1    1    2  502  501  0.17401210535E+02 -0.17281635807E+02  0.84471454700E+02  0.87959557317E+02  0.00000000000E+00 0. -1.
<scales pt_clust_5="13000.00000" pt_clust_6="13000.00000" pt_clust_7="13000.00000" pt_clust_8="13000.00000" pt_clust_9="24.52462"></scales>
<clustering>
<clus scale="   24.525">  1  9  2 -1</clus>
<clus scale="  103.986">  7  8 -1 -1</clus>
<clus scale="  110.369">  5  6 -1 -1</clus>
<clus scale="  271.692">  1  7  2 -1</clus>
<clus scale="   24.525">  1  5  2 -1</clus>
</clustering>
</event>
<event>
 9    1  0.1234700E-005  0.1519117E+03  0.7546771E-02  0.1198801E+00
         -2   -1    0    0    0  501 -0.00000000000E+00  0.00000000000E+00  0.71488904367E+03  0.71488904367E+03  0.00000000000E+00 0.  1.
          2   -1    0    0  502    0  0.00000000000E+00 -0.00000000000E+00 -0.19996063811E+03  0.19996063811E+03  0.00000000000E+00 0. -1.
         23    2    1    2    0    0 -0.25890481396E+02  0.11781599595E+03  0.64746026576E+03  0.66517424101E+03  0.93279414861E+02 0.  0.
         23    2    1    2    0    0 -0.33496773375E+02 -0.11801999501E+03 -0.90093621275E+02  0.17668303179E+03  0.89717780166E+02 0.  0.
        -11    1    4    4    0    0 -0.20624802963E+02 -0.33427412300E+02 -0.81768016736E+02  0.90712639424E+02  0.00000000000E+00 0. -1.
         11    1    4    4    0    0 -0.12871970412E+02 -0.84592582713E+02 -0.83256045397E+01  0.85970392364E+02  0.00000000000E+00 0.  1.
        -13    1    3    3    0    0 -0.51255766504E+02  0.11546096802E+03  0.56049878778E+03  0.57455833458E+03  0.00000000000E+00 0.  1.
         13    1    3    3    0    0  0.25365285108E+02  0.23550279302E+01  0.86961477982E+02  0.90615906429E+02  0.00000000000E+00 0. -1.
         21    1    1    2  502  501  0.59387254771E+02  0.20399906652E+00 -0.42438238936E+02  0.72992408981E+02  0.00000000000E+00 0.  1.
<scales pt_clust_5="13000.00000" pt_clust_6="13000.00000" pt_clust_7="13000.00000" pt_clust_8="13000.00000" pt_clust_9="59.38761"></scales>
<clustering>
<clus scale="   59.388">  2  9  1 -1</clus>
<clus scale="   89.718">  5  6 -1 -1</clus>
<clus scale="   93.279">  7  8 -1 -1</clus>
<clus scale="  149.751">  2  5  1 -1</clus>
<clus scale="   59.388">  2  5  1 -1</clus>
</clustering>
</event>
<event>
 9    1  0.1234700E-005  0.1065715E+03  0.7546771E-02  0.1277369E+00
          2   -1    0    0  502    0  0.00000000000E+00  0.00000000000E+00  0.52150822656E+03  0.52150822656E+03  0.00000000000E+00 0. -1.
         -2   -1    0    0    0  501 -0.00000000000E+00 -0.00000000000E+00 -0.34676897464E+02  0.34676897464E+02  0.00000000000E+00 0.  1.
         23    2    1    2    0    0 -0.38768322951E+02 -0.27577565570E+02  0.85815815306E+02  0.13435298955E+03  0.91776176956E+02 0.  0.
         23    2    1    2    0    0  0.62248227026E+02  0.31307935604E+02  0.24106319904E+03  0.26012262780E+03  0.68536756286E+02 0.  0.
        -13    1    3    3    0    0 -0.41524320890E+02 -0.27319017818E+01 -0.33505535155E+01  0.41748757126E+02  0.00000000000E+00 0.  1.
         13    1    3    3    0    0  0.27559979385E+01 -0.24845663788E+02  0.89166368821E+02  0.92604232422E+02  0.00000000000E+00 0. -1.
        -13    1    4    4    0    0  0.69395667559E+02  0.11982752572E+02  0.21849398812E+03  0.22956255766E+03  0.00000000000E+00 0. -1.
         13    1    4    4    0    0 -0.71474405328E+01  0.19325183031E+02  0.22569210923E+02  0.30560070142E+02  0.00000000000E+00 0.  1.
         21    1    1    2  502  501 -0.23479904074E+02 -0.37303700338E+01  0.15995231475E+03  0.16170950667E+03  0.00000000000E+00 0. -1.
<scales pt_clust_5="13000.00000" pt_clust_6="13000.00000" pt_clust_7="13000.00000" pt_clust_8="13000.00000" pt_clust_9="23.77439"></scales>
<clustering>
<clus scale="   23.774">  1  9  2 -1</clus>
<clus scale="   68.537">  7  8 -1 -1</clus>
<clus scale="   87.361">  1  7  2 -1</clus>
<clus scale="   91.776">  5  6 -1 -1</clus>
<clus scale="   23.774">  1  5  2 -1</clus>
</clustering>
</event>
<event>
 9    1  0.1234700E-005  0.9764384E+02  0.7546771E-02  0.1285875E+00
          2   -1    0    0  502    0  0.00000000000E+00  0.00000000000E+00  0.61016933245E+03  0.61016933245E+03  0.00000000000E+00 0. -1.
         -2   -1    0    0    0  501 -0.00000000000E+00 -0.00000000000E+00 -0.12442897266E+03  0.12442897266E+03  0.00000000000E+00 0.  1.
         23    2    1    2    0    0 -0.10359751517E+02 -0.35764039514E+02 -0.90162929103E+02  0.13284806363E+03  0.90182388813E+02 0.  0.
         23    2    1    2    0    0 -0.43218799967E+02  0.16078949885E+02  0.23758174357E+03  0.25864729488E+03  0.91252073790E+02 0.  0.
        -13    1    4    4    0    0 -0.60098339804E+02 -0.16616172050E+02  0.11701942193E+03  0.13259507053E+03  0.00000000000E+00 0.  1.
         13    1    4    4    0    0  0.16879539838E+02  0.32695121935E+02  0.12056232164E+03  0.12605222435E+03  0.00000000000E+00 0. -1.
        -13    1    3    3    0    0  0.23897670195E+02  0.17347068542E+02 -0.10910987513E+02  0.31481249598E+02  0.00000000000E+00 0. -1.
         13    1    3    3    0    0 -0.34257421712E+02 -0.53111108056E+02 -0.79251941590E+02  0.10136681403E+03  0.00000000000E+00 0.  1.
         21    1    1    2  502  501  0.53578551484E+02  0.19685089629E+02  0.33832154533E+03  0.34310294660E+03  0.00000000000E+00 0. -1.
<scales pt_clust_5="13000.00000" pt_clust_6="13000.00000" pt_clust_7="13000.00000" pt_clust_8="13000.00000" pt_clust_9="57.08033"></scales>
<clustering>
<clus scale="   57.080">  1  9  2 -1</clus>
<clus scale="   90.182">  7  8 -1 -1</clus>
<clus scale="   91.252">  5  6 -1 -1</clus>
<clus scale="   96.645">  2  7  1 -1</clus>
<clus scale="   57.080">  1  5  2 -1</clus>
</clustering>
</event>
<event>
 9    1  0.1234700E-005  0.9619103E+02  0.7546771E-02  0.1289411E+00
         -3   -1    0    0    0  501 -0.00000000000E+00  0.00000000000E+00  0.28083878036E+03  0.28083878036E+03  0.00000000000E+00 0.  1.
          3   -1    0    0  502    0  0.00000000000E+00 -0.00000000000E+00 -0.60556989939E+02  0.60556989939E+02  0.00000000000E+00 0. -1.
         23    2    1    2    0    0 -0.35384937921E+02  0.68489628109E+01  0.16819766924E+03  0.19488262871E+03  0.91595747238E+02 0.  0.
         23    2    1    2    0    0 -0.50509958686E+00  0.13919746441E+01  0.57093798093E+02  0.10934992449E+03  0.93249726473E+02 0.  0.
        -13    1    3    3    0    0 -0.29017866728E+02 -0.34334660770E+02  0.13280882168E+03  0.14021087203E+03  0.00000000000E+00 0.  1.
         13    1    3    3    0    0 -0.63670711924E+01  0.41183623581E+02  0.35388847562E+02  0.54671756681E+02  0.00000000000E+00 0. -1.
        -13    1    4    4    0    0  0.20760624845E+02  0.31625066122E+02 -0.38990639367E+01  0.38030922297E+02  0.00000000000E+00 0. -1.
         13    1    4    4    0    0 -0.21265724432E+02 -0.30233091478E+02  0.60992862029E+02  0.71319002197E+02  0.00000000000E+00 0.  1.
         21    1    1    2  502  501  0.35890037508E+02 -0.82409374550E+01 -0.50096769075E+01  0.37163217099E+02  0.00000000000E+00 0. -1.
<scales pt_clust_5="13000.00000" pt_clust_6="13000.00000" pt_clust_7="13000.00000" pt_clust_8="13000.00000" pt_clust_9="36.82401"></scales>
<clustering>
<clus scale="   36.824">  2  9  1 -1</clus>
<clus scale="   91.596">  5  6 -1 -1</clus>
<clus scale="   93.250">  7  8 -1 -1</clus>
<clus scale="   94.588">  1  5  2 -1</clus>
<clus scale="   36.824">  2  5  1 -1</clus>
</clustering>
</event>
<event>
 9    1  0.1234700E-005  0.9925644E+02  0.7546771E-02  0.1282755E+00
         -2   -1    0    0    0  501 -0.00000000000E+00  0.00000000000E+00  0.13797106179E+03  0.13797106179E+03  0.00000000000E+00 0.  1.
          2   -1    0    0  502    0  0.00000000000E+00 -0.00000000000E+00 -0.11841612378E+03  0.11841612378E+03  0.00000000000E+00 0. -1.
         23    2    1    2    0    0 -0.44789017189E+02 -0.15993348723E+02  0.67380254439E+02  0.12128898116E+03  0.88932980380E+02 0.  0.
         23    2    1    2    0    0  0.26249261927E+02 -0.74563787283E+01 -0.26565710927E+02  0.98416014327E+02  0.90748848717E+02 0.  0.
        -11    1    4    4    0    0  0.42390126355E+02 -0.26676204238E+02 -0.44955211295E+02  0.67301661997E+02  0.00000000000E+00 0. -1.
         11    1    4    4    0    0 -0.16140864428E+02  0.19219825510E+02  0.18389500368E+02  0.31114352330E+02  0.00000000000E+00 0.  1.
        -13    1    3    3    0    0 -0.58311680522E+02 -0.36518730580E+02  0.26786164952E+02  0.73833382703E+02  0.00000000000E+00 0.  1.
         13    1    3    3    0    0  0.13522663333E+02  0.20525381857E+02  0.40594089486E+02  0.47455598460E+02  0.00000000000E+00 0. -1.
         21    1    1    2  502  501  0.18539755262E+02  0.23449727451E+02 -0.21259605503E+02  0.36682190077E+02  0.00000000000E+00 0. -1.
<scales pt_clust_5="13000.00000" pt_clust_6="13000.00000" pt_clust_7="13000.00000" pt_clust_8="13000.00000" pt_clust_9="29.89335"></scales>
<clustering>
<clus scale="   29.893">  2  9  1 -1</clus>
<clus scale="   88.933">  7  8 -1 -1</clus>
<clus scale="   90.749">  5  6 -1 -1</clus>
<clus scale="   97.599">  1  7  2 -1</clus>
<clus scale="   29.893">  2  5  1 -1</clus>
</clustering>
</event>
<event>
 9    1  0.1234700E-005  0.9562661E+02  0.7546771E-02  0.1290853E+00
         -2   -1    0    0    0  501 -0.00000000000E+00  0.00000000000E+00  0.12371193500E+03  0.12371193500E+03  0.00000000000E+00 0.  1.
          2   -1    0    0  502    0  0.00000000000E+00 -0.00000000000E+00 -0.13221846659E+03  0.13221846659E+03  0.00000000000E+00 0. -1.
         23    2    1    2    0    0 -0.83778857943E+01  0.35147599348E+01  0.61810781981E+02  0.11207071585E+03  0.93041550255E+02 0.  0.
         23    2    1    2    0    0  0.21444744868E+02  0.16561548741E+02 -0.67753759305E+02  0.11976875827E+03  0.94972741235E+02 0.  0.
        -13    1    3    3    0    0  0.13708712501E+02  0.17642385878E+02 -0.17601129341E+02  0.28442614717E+02  0.00000000000E+00 0. -1.
         13    1    3    3    0    0 -0.22086598295E+02 -0.14127625943E+02  0.79411911322E+02  0.83628101131E+02  0.00000000000E+00 0.  1.
        -13    1    4    4    0    0 -0.23804215465E+02 -0.46699125380E+01  0.10886370024E+02  0.26588753436E+02  0.00000000000E+00 0.  1.
         13    1    4    4    0    0  0.45248960333E+02  0.21231461279E+02 -0.78640129330E+02  0.93180004830E+02  0.00000000000E+00 0. -1.
         21    1    1    2  502  501 -0.13066859074E+02 -0.20076308675E+02 -0.25635542607E+01  0.24090927474E+02  0.00000000000E+00 0.  1.
<scales pt_clust_5="13000.00000" pt_clust_6="13000.00000" pt_clust_7="13000.00000" pt_clust_8="13000.00000" pt_clust_9="23.95414"></scales>
<clustering>
<clus scale="   23.954">  2  9  1 -1</clus>
<clus scale="   93.042">  5  6 -1 -1</clus>
<clus scale="   93.709">  1  5  2 -1</clus>
<clus scale="   94.973">  7  8 -1 -1</clus>
<clus scale="   23.954">  2  5  1 -1</clus>
</clustering>
</event>
<event>
 9    1  0.1234700E-005  0.9233582E+02  0.7546771E-02  0.1297346E+00
         -1   -1    0    0    0  501 -0.00000000000E+00  0.00000000000E+00  0.19081155631E+02  0.19081155631E+02  0.00000000000E+00 0.  1.
          1   -1    0    0  502    0  0.00000000000E+00 -0.00000000000E+00 -0.11070877488E+04  0.11070877488E+04  0.00000000000E+00 0. -1.
         23    2    1    2    0    0 -0.23903388878E+01 -0.13318354000E+02 -0.21133217146E+03  0.23061977508E+03  0.91329632036E+02 0.  0.
         23    2    1    2    0    0 -0.36378367275E+02 -0.41538522314E+02 -0.39386148569E+03  0.40808567366E+03  0.91423261215E+02 0.  0.
        -13    1    4    4    0    0  0.22677201950E+02 -0.34778796213E+02 -0.10006905024E+03  0.10834036630E+03  0.00000000000E+00 0.  1.
         13    1    4    4    0    0 -0.59055569225E+02 -0.67597261016E+01 -0.29379243545E+03  0.29974530735E+03  0.00000000000E+00 0. -1.
        -13    1    3    3    0    0  0.21248268206E+02  0.12530197872E+02 -0.10590444845E+02  0.26844967545E+02  0.00000000000E+00 0.  1.
         13    1    3    3    0    0 -0.23638607094E+02 -0.25848551872E+02 -0.20074172662E+03  0.20377480753E+03  0.00000000000E+00 0. -1.
         21    1    1    2  502  501  0.38768706163E+02  0.54856876315E+02 -0.48281293598E+03  0.48746345566E+03  0.00000000000E+00 0.  1.
<scales pt_clust_5="13000.00000" pt_clust_6="13000.00000" pt_clust_7="13000.00000" pt_clust_8="13000.00000" pt_clust_9="67.17358"></scales>
<clustering>
<clus scale="   67.174">  2  9  1 -1</clus>
<clus scale="   91.330">  7  8 -1 -1</clus>
<clus scale="   91.423">  5  6 -1 -1</clus>
<clus scale="   92.243">  1  7  2 -1</clus>
<clus scale="   67.174">  2  5  1 -1</clus>
</clustering>
</event>
<event>
 9    1  0.1234700E-005  0.1010760E+03  0.7546771E-02  0.1281655E+00
          1   -1    0    0  502    0  0.00000000000E+00  0.00000000000E+00  0.35224358867E+02  0.35224358867E+02  0.00000000000E+00 0. -1.
         -1   -1    0    0    0  501 -0.00000000000E+00 -0.00000000000E+00 -0.58648846606E+03  0.58648846606E+03  0.00000000000E+00 0.  1.
         23    2    1    2    0    0 -0.19234079983E+00  0.34985453321E+02 -0.38127550842E+03  0.39347230836E+03  0.90694129835E+02 0.  0.
         23    2    1    2    0    0  0.29008600421E+02  0.61551610269E+01 -0.11581544237E+03  0.15436455402E+03  0.97651492261E+02 0.  0.
        -11    1    4    4    0    0  0.89503353333E+01  0.44755484078E+02 -0.96538083724E+02  0.10678372285E+03  0.00000000000E+00 0.  1.
         11    1    4    4    0    0  0.20058265088E+02 -0.38600323051E+02 -0.19277358643E+02  0.47580831163E+02  0.00000000000E+00 0. -1.
        -11    1    3    3    0    0  0.33481561926E+02  0.48442296261E+02 -0.19490296953E+03  0.20360461337E+03  0.00000000000E+00 0.  1.
         11    1    3    3    0    0 -0.33673902726E+02 -0.13456842939E+02 -0.18637253889E+03  0.18986769499E+03  0.00000000000E+00 0. -1.
         21    1    1    2  502  501 -0.28816259621E+02 -0.41140614348E+02 -0.54173156406E+02  0.73875962549E+02  0.00000000000E+00 0.  1.
<scales pt_clust_5="13000.00000" pt_clust_6="13000.00000" pt_clust_7="13000.00000" pt_clust_8="13000.00000" pt_clust_9="50.22875"></scales>
<clustering>
<clus scale="   50.229">  1  9  2 -1</clus>
<clus scale="   90.694">  7  8 -1 -1</clus>
<clus scale="   94.371">  2  7  1 -1</clus>
<clus scale="   97.651">  5  6 -1 -1</clus>
<clus scale="   50.229">  1  5  2 -1</clus>
</clustering>
</event>
<event>
 9    1  0.1234700E-005  0.9423202E+02  0.7546771E-02  0.1294754E+00
         -3   -1    0    0    0  501 -0.00000000000E+00  0.00000000000E+00  0.51336086671E+02  0.51336086671E+02  0.00000000000E+00 0.  1.
          3   -1    0    0  502    0  0.00000000000E+00 -0.00000000000E+00 -0.26977740141E+03  0.26977740141E+03  0.00000000000E+00 0. -1.
         23    2    1    2    0    0  0.99939954600E+01 -0.83142382095E+01 -0.80344422862E+02  0.12171003494E+03  0.90493645177E+02 0.  0.
         23    2    1    2    0    0  0.31507537261E+02 -0.61530256073E+01 -0.85264130368E+02  0.13067951533E+03  0.93683398582E+02 0.  0.
        -11    1    3    3    0    0 -0.26071225738E+02 -0.18248470481E+02 -0.77984043679E+02  0.84227231671E+02  0.00000000000E+00 0.  1.
         11    1    3    3    0    0  0.36065221198E+02  0.99342322717E+01 -0.23603791829E+01  0.37482803267E+02  0.00000000000E+00 0. -1.
        -11    1    4    4    0    0  0.57164103664E+02 -0.23676563796E+02 -0.76514625165E+02  0.98401231116E+02  0.00000000000E+00 0. -1.
         11    1    4    4    0    0 -0.25656566403E+02  0.17523538189E+02 -0.87495052029E+01  0.32278284210E+02  0.00000000000E+00 0.  1.
         21    1    1    2  502  501 -0.41501532721E+02  0.14467263817E+02 -0.52832761514E+02  0.68723937822E+02  0.00000000000E+00 0.  1.
<scales pt_clust_5="13000.00000" pt_clust_6="13000.00000" pt_clust_7="13000.00000" pt_clust_8="13000.00000" pt_clust_9="43.95087"></scales>
<clustering>
<clus scale="   43.951">  2  9  1 -1</clus>
<clus scale="   90.494">  5  6 -1 -1</clus>
<clus scale="   91.061">  1  5  2 -1</clus>
<clus scale="   93.683">  7  8 -1 -1</clus>
<clus scale="   43.951">  2  5  1 -1</clus>
</clustering>
</event>
<event>
 9    1  0.1234700E-005  0.1342530E+03  0.7546771E-02  0.1222021E+00
          1   -1    0    0  502    0  0.00000000000E+00  0.00000000000E+00  0.18655477582E+03  0.18655477582E+03  0.00000000000E+00 0. -1.
         -1   -1    0    0    0  501 -0.00000000000E+00 -0.00000000000E+00 -0.15606253746E+03  0.15606253746E+03  0.00000000000E+00 0.  1.
         23    2    1    2    0    0 -0.64806699729E+01 -0.93685031636E+02 -0.54975837797E+02  0.14169281808E+03  0.90750359321E+02 0.  0.
         23    2    1    2    0    0  0.43156327180E+02  0.96304667984E+02  0.49760542560E+02  0.14967028287E+03  0.93744462913E+02 0.  0.
        -11    1    3    3    0    0  0.39438452046E+02 -0.52024420475E+02 -0.44001236826E+02  0.78727635985E+02  0.00000000000E+00 0.  1.
         11    1    3    3    0    0 -0.45919122019E+02 -0.41660611162E+02 -0.10974600971E+02  0.62965182092E+02  0.00000000000E+00 0. -1.
        -13    1    4    4    0    0 -0.29684811785E+02  0.33091396824E+02  0.19920124916E+02  0.48713858102E+02  0.00000000000E+00 0.  1.
         13    1    4    4    0    0  0.72841138965E+02  0.63213271160E+02  0.29840417644E+02  0.10095642477E+03  0.00000000000E+00 0. -1.
         21    1    1    2  502  501 -0.36675657207E+02 -0.26196363475E+01  0.35707533598E+02  0.51254212332E+02  0.00000000000E+00 0. -1.
<scales pt_clust_5="13000.00000" pt_clust_6="13000.00000" pt_clust_7="13000.00000" pt_clust_8="13000.00000" pt_clust_9="36.76909"></scales>
<clustering>
<clus scale="   36.769">  1  9  2 -1</clus>
<clus scale="   90.750">  5  6 -1 -1</clus>
<clus scale="   93.744">  7  8 -1 -1</clus>
<clus scale="  132.180">  2  5  1 -1</clus>
<clus scale="   36.769">  1  5  2 -1</clus>
</clustering>
</event>
<event>
 9    1  0.1234700E-005  0.1172983E+03  0.7546771E-02  0.1247849E+00
          1   -1    0    0  502    0  0.00000000000E+00  0.00000000000E+00  0.94903277271E+03  0.94903277271E+03  0.00000000000E+00 0. -1.
         -1   -1    0    0    0  501 -0.00000000000E+00 -0.00000000000E+00 -0.29388736545E+02  0.29388736545E+02  0.00000000000E+00 0.  1.
         23    2    1    2    0    0 -0.61054553027E+01 -0.61914408809E+02  0.16343539247E+03  0.19614704218E+03  0.88836164041E+02 0.  0.
         23    2    1    2    0    0 -0.21973641680E+01  0.11119810408E+03  0.45283970373E+03  0.47481628591E+03  0.89536927185E+02 0.  0.
        -11    1    4    4    0    0  0.38770423120E+02  0.22010388049E+02  0.13553626510E+03  0.14268034920E+03  0.00000000000E+00 0. -1.
         11    1    4    4    0    0 -0.40967787289E+02  0.89187716027E+02  0.31730343863E+03  0.33213593670E+03  0.00000000000E+00 0.  1.
        -13    1    3    3    0    0 -0.30504423244E+02 -0.23847325542E+02  0.15932339923E+02  0.41869490425E+02  0.00000000000E+00 0.  1.
         13    1    3    3    0    0  0.24398967942E+02 -0.38067083267E+02  0.14750305254E+03  0.15427755175E+03  0.00000000000E+00 0. -1.
         21    1    1    2  502  501  0.83028194708E+01 -0.49283695267E+02  0.30336893997E+03  0.30745818117E+03  0.00000000000E+00 0. -1.
<scales pt_clust_5="13000.00000" pt_clust_6="13000.00000" pt_clust_7="13000.00000" pt_clust_8="13000.00000" pt_clust_9="49.97819"></scales>
<clustering>
<clus scale="   49.978">  1  9  2 -1</clus>
<clus scale="   88.836">  7  8 -1 -1</clus>
<clus scale="   89.537">  5  6 -1 -1</clus>
<clus scale="  116.764">  2  7  1 -1</clus>
<clus scale="   49.978">  1  5  2 -1</clus>
</clustering>
</event>
<event>
 9    1  0.1234700E-005  0.1187505E+03  0.7546771E-02  0.1251782E+00
         -2   -1    0    0    0  501 -0.00000000000E+00  0.00000000000E+00  0.39991361296E+02  0.39991361296E+02  0.00000000000E+00 0.  1.
          2   -1    0    0  502    0  0.00000000000E+00 -0.00000000000E+00 -0.43376063076E+03  0.43376063076E+03  0.00000000000E+00 0. -1.
         23    2    1    2    0    0 -0.52793571035E+02  0.35337880913E+02 -0.13739357562E+03  0.18651343196E+03  0.10896943934E+03 0.  0.
         23    2    1    2    0    0  0.38263724978E+02 -0.13012316229E+02 -0.22020534688E+03  0.24231817203E+03  0.92705278577E+02 0.  0.
        -11    1    4    4    0    0 -0.10504668447E+02  0.31170857972E+02 -0.10010557602E+03  0.10537123325E+03  0.00000000000E+00 0. -1.
         11    1    4    4    0    0  0.48768393424E+02 -0.44183174201E+02 -0.12009977086E+03  0.13694693878E+03  0.00000000000E+00 0.  1.
        -11    1    3    3    0    0  0.46974161386E+01 -0.34964441726E+02 -0.40590347368E+02  0.53778752338E+02  0.00000000000E+00 0.  1.
         11    1    3    3    0    0 -0.57490987173E+02  0.70302322639E+02 -0.96803228252E+02  0.13273467962E+03  0.00000000000E+00 0. -1.
         21    1    1    2  502  501  0.14529846057E+02 -0.22325564684E+02 -0.36170346957E+02  0.44920388065E+02  0.00000000000E+00 0.  1.
<scales pt_clust_5="13000.00000" pt_clust_6="13000.00000" pt_clust_7="13000.00000" pt_clust_8="13000.00000" pt_clust_9="26.63733"></scales>
<clustering>
<clus scale="   26.637">  1  9  2 -1</clus>
<clus scale="   92.705">  5  6 -1 -1</clus>
<clus scale="  104.027">  2  5  1 -1</clus>
<clus scale="  108.969">  7  8 -1 -1</clus>
<clus scale="  104.027">  2  5  1 -1</clus>
</clustering>
</event>
<event>
 9    1  0.1234700E-005  0.1700019E+03  0.7546771E-02  0.1180621E+00
         -1   -1    0    0    0  501 -0.00000000000E+00  0.00000000000E+00  0.54475751847E+03  0.54475751847E+03  0.00000000000E+00 0.  1.
          1   -1    0    0  502    0  0.00000000000E+00 -0.00000000000E+00 -0.13076599370E+03  0.13076599370E+03  0.00000000000E+00 0. -1.
         23    2    1    2    0    0  0.37520365374E+02  0.11320002526E+03  0.32509521942E+03  0.35811973689E+03  0.91328093819E+02 0.  0.
         23    2    1    2    0    0 -0.63260712455E+01 -0.18206888514E+03  0.11015457747E+03  0.23886768179E+03  0.10832654499E+03 0.  0.
        -11    1    3    3    0    0 -0.21403322715E+02  0.12181298588E+02  0.21187057550E+02  0.32486576707E+02  0.00000000000E+00 0. -1.
         11    1    3    3    0    0  0.58923688089E+02  0.10101872667E+03  0.30390816187E+03  0.32563316018E+03  0.00000000000E+00 0.  1.
        -13    1    4    4    0    0 -0.30892295136E+02 -0.12541627353E+03  0.21674586625E+02  0.13097084894E+03  0.00000000000E+00 0. -1.
         13    1    4    4    0    0  0.24566223891E+02 -0.56652611610E+02  0.88479990849E+02  0.10789683285E+03  0.00000000000E+00 0.  1.
         21    1    1    2  502  501 -0.31194294129E+02  0.68868859884E+02 -0.21258272129E+02  0.78536093497E+02  0.00000000000E+00 0. -1.
<scales pt_clust_5="13000.00000" pt_clust_6="13000.00000" pt_clust_7="13000.00000" pt_clust_8="13000.00000" pt_clust_9="75.60426"></scales>
<clustering>
<clus scale="   75.604">  2  9  1 -1</clus>
<clus scale="   91.328">  5  6 -1 -1</clus>
<clus scale="  108.327">  7  8 -1 -1</clus>
<clus scale="  159.709">  1  5  2 -1</clus>
<clus scale="   75.604">  2  5  1 -1</clus>
</clustering>
</event>
<event>
 9    1  0.1234700E-005  0.1972536E+03  0.7546771E-02  0.1152307E+00
         -1   -1    0    0    0  501 -0.00000000000E+00  0.00000000000E+00  0.17673054980E+03  0.17673054980E+03  0.00000000000E+00 0.  1.
          1   -1    0    0  502    0  0.00000000000E+00 -0.00000000000E+00 -0.46989829436E+03  0.46989829436E+03  0.00000000000E+00 0. -1.
         23    2    1    2    0    0  0.16953930529E+03 -0.76496578918E+02  0.73158493064E+02  0.21867481696E+03  0.88719827763E+02 0.  0.
         23    2    1    2    0    0 -0.11134782369E+03  0.75387691258E+02 -0.25475416758E+03  0.30211363236E+03  0.91056680824E+02 0.  0.
        -13    1    4    4    0    0 -0.77145410001E+02  0.76959845344E+02 -0.24230836109E+03  0.26568322103E+03  0.00000000000E+00 0. -1.
         13    1    4    4    0    0 -0.34202413690E+02 -0.15721540866E+01 -0.12445806490E+02  0.36430411333E+02  0.00000000000E+00 0.  1.
        -13    1    3    3    0    0 -0.37056306743E+01 -0.20252264055E+02  0.20536329423E+02  0.29079661694E+02  0.00000000000E+00 0. -1.
         13    1    3    3    0    0  0.17324493597E+03 -0.56244314862E+02  0.52622163641E+02  0.18959515526E+03  0.00000000000E+00 0.  1.
         21    1    1    2  502  501 -0.58191481604E+02  0.11088876599E+01 -0.11157207003E+03  0.12584039485E+03  0.00000000000E+00 0. -1.
<scales pt_clust_5="13000.00000" pt_clust_6="13000.00000" pt_clust_7="13000.00000" pt_clust_8="13000.00000" pt_clust_9="58.20205"></scales>
<clustering>
<clus scale="   58.202">  2  9  1 -1</clus>
<clus scale="   88.720">  7  8 -1 -1</clus>
<clus scale="   91.057">  5  6 -1 -1</clus>
<clus scale="  196.186">  1  7  2 -1</clus>
<clus scale="   58.202">  2  5  1 -1</clus>
</clustering>
</event>
<event>
 9    1  0.1234700E-005  0.1338651E+03  0.7546771E-02  0.1222360E+00
         -1   -1    0    0    0  501 -0.00000000000E+00  0.00000000000E+00  0.25871263601E+02  0.25871263601E+02  0.00000000000E+00 0.  1.
          1   -1    0    0  502    0  0.00000000000E+00 -0.00000000000E+00 -0.11913628722E+04  0.11913628722E+04  0.00000000000E+00 0. -1.
         23    2    1    2    0    0 -0.55827317654E+01  0.11859956077E+03 -0.31550139441E+03  0.34911400160E+03  0.90787849006E+02 0.  0.
         23    2    1    2    0    0  0.33085090106E+02 -0.63719295632E+02 -0.50550023082E+03  0.51820361294E+03  0.88598697950E+02 0.  0.
        -13    1    4    4    0    0  0.53997003005E+02 -0.93612268819E+01 -0.21109028847E+03  0.21808809868E+03  0.00000000000E+00 0.  1.
         13    1    4    4    0    0 -0.20911912899E+02 -0.54358068750E+02 -0.29440994236E+03  0.30011551426E+03  0.00000000000E+00 0. -1.
        -13    1    3    3    0    0 -0.47524117244E+02  0.68985941816E+02 -0.16044630853E+03  0.18099894975E+03  0.00000000000E+00 0.  1.
         13    1    3    3    0    0  0.41941385478E+02  0.49613618951E+02 -0.15505508588E+03  0.16811505185E+03  0.00000000000E+00 0. -1.
         21    1    1    2  502  501 -0.27502358341E+02 -0.54880265135E+02 -0.34448998341E+03  0.34991652131E+03  0.00000000000E+00 0.  1.
<scales pt_clust_5="13000.00000" pt_clust_6="13000.00000" pt_clust_7="13000.00000" pt_clust_8="13000.00000" pt_clust_9="61.38586"></scales>
<clustering>
<clus scale="   61.386">  2  9  1 -1</clus>
<clus scale="   88.599">  5  6 -1 -1</clus>
<clus scale="   90.788">  7  8 -1 -1</clus>
<clus scale="  132.390">  2  5  1 -1</clus>
<clus scale="   61.386">  2  5  1 -1</clus>
</clustering>
</event>
<event>
 9    1  0.1234700E-005  0.1948509E+03  0.7546771E-02  0.1154305E+00
         -1   -1    0    0    0  501 -0.00000000000E+00  0.00000000000E+00  0.19140482845E+03  0.19140482845E+03  0.00000000000E+00 0.  1.
          1   -1    0    0  502    0  0.00000000000E+00 -0.00000000000E+00 -0.52250289760E+03  0.52250289760E+03  0.00000000000E+00 0. -1.
         23    2    1    2    0    0  0.18532717722E+03  0.31997513565E+01  0.94890436265E+02  0.22699198496E+03  0.90359090945E+02 0.  0.
         23    2    1    2    0    0 -0.10004951287E+03 -0.61025453796E+01 -0.33820745990E+03  0.36449753084E+03  0.91798790669E+02 0.  0.
        -11    1    4    4    0    0 -0.63995848608E+02 -0.40456616449E+02 -0.13021164378E+03  0.15062296846E+03  0.00000000000E+00 0.  1.
         11    1    4    4    0    0 -0.36053664262E+02  0.34354071069E+02 -0.20799581612E+03  0.21387456237E+03  0.00000000000E+00 0. -1.
        -11    1    3    3    0    0  0.13972474608E+03  0.40432433209E+02  0.53315965228E+02  0.15492055535E+03  0.00000000000E+00 0.  1.
         11    1    3    3    0    0  0.45602431143E+02 -0.37232681853E+02  0.41574471037E+02  0.72071429610E+02  0.00000000000E+00 0. -1.
         21    1    1    2  502  501 -0.85277664349E+02  0.29027940231E+01 -0.87781045512E+02  0.12241821025E+03  0.00000000000E+00 0. -1.
<scales pt_clust_5="13000.00000" pt_clust_6="13000.00000" pt_clust_7="13000.00000" pt_clust_8="13000.00000" pt_clust_9="85.32705"></scales>
<clustering>
<clus scale="   85.327">  2  9  1 -1</clus>
<clus scale="   90.359">  7  8 -1 -1</clus>
<clus scale="   91.799">  5  6 -1 -1</clus>
<clus scale="  194.177">  1  7  2 -1</clus>
<clus scale="   85.327">  2  5  1 -1</clus>
</clustering>
</event>
<event>
 9    1  0.1234700E-005  0.1023401E+03  0.7546771E-02  0.1276344E+00
         -2   -1    0    0    0  501 -0.00000000000E+00  0.00000000000E+00  0.71875909785E+02  0.71875909785E+02  0.00000000000E+00 0.  1.
          2   -1    0    0  502    0  0.00000000000E+00 -0.00000000000E+00 -0.29414634878E+03  0.29414634878E+03  0.00000000000E+00 0. -1.
         23    2    1    2    0    0 -0.41111800253E+02  0.10580125464E+02  0.11407921566E+02  0.10438975533E+03  0.94683478856E+02 0.  0.
         23    2    1    2    0    0  0.25082450927E+02  0.30647936699E+01 -0.18250915500E+03  0.20630248014E+03  0.92804091229E+02 0.  0.
        -11    1    3    3    0    0 -0.54264796394E+02  0.28974965673E+02 -0.20886536513E+02  0.64965099637E+02  0.00000000000E+00 0.  1.
         11    1    3    3    0    0  0.13152996141E+02 -0.18394840209E+02  0.32294458079E+02  0.39424655691E+02  0.00000000000E+00 0. -1.
        -11    1    4    4    0    0  0.12471451222E+02  0.38308804956E+02 -0.32701995462E+02  0.51889518594E+02  0.00000000000E+00 0.  1.
         11    1    4    4    0    0  0.12610999705E+02 -0.35244011286E+02 -0.14980715954E+03  0.15441296155E+03  0.00000000000E+00 0. -1.
         21    1    1    2  502  501  0.16029349326E+02 -0.13644919134E+02 -0.51169205560E+02  0.55330023094E+02  0.00000000000E+00 0. -1.
<scales pt_clust_5="13000.00000" pt_clust_6="13000.00000" pt_clust_7="13000.00000" pt_clust_8="13000.00000" pt_clust_9="21.05051"></scales>
<clustering>
<clus scale="   21.051">  2  9  1 -1</clus>
<clus scale="   92.804">  7  8 -1 -1</clus>
<clus scale="   94.683">  5  6 -1 -1</clus>
<clus scale="  100.604">  2  7  1 -1</clus>
<clus scale="   21.051">  2  5  1 -1</clus>
</clustering>
</event>
<event>
 9    1  0.1234700E-005  0.1559479E+03  0.7546771E-02  0.1193951E+00
          1   -1    0    0  502    0  0.00000000000E+00  0.00000000000E+00  0.48206931173E+03  0.48206931173E+03  0.00000000000E+00 0. -1.
         -1   -1    0    0    0  501 -0.00000000000E+00 -0.00000000000E+00 -0.35731003638E+03  0.35731003638E+03  0.00000000000E+00 0.  1.
         23    2    1    2    0    0 -0.12289147371E+03  0.25111952038E+02 -0.31261487966E+03  0.34893751501E+03  0.91084586801E+02 0.  0.
         23    2    1    2    0    0  0.13712462460E+03 -0.52678099104E+02  0.26557400122E+03  0.31586300307E+03  0.87531376039E+02 0.  0.
        -11    1    3    3    0    0 -0.74064627712E+02  0.59481198222E+02 -0.20257302619E+03  0.22373960973E+03  0.00000000000E+00 0.  1.
         11    1    3    3    0    0 -0.48826845993E+02 -0.34369246184E+02 -0.11004185347E+03  0.12519790528E+03  0.00000000000E+00 0. -1.
        -11    1    4    4    0    0 -0.31694731998E+01 -0.27112290529E+02  0.30640025248E+02  0.41035752769E+02  0.00000000000E+00 0.  1.
         11    1    4    4    0    0  0.14029409780E+03 -0.25565808575E+02  0.23493397597E+03  0.27482725030E+03  0.00000000000E+00 0. -1.
         21    1    1    2  502  501 -0.14233150895E+02  0.27566147066E+02  0.17180015380E+03  0.17457883003E+03  0.00000000000E+00 0. -1.
<scales pt_clust_5="13000.00000" pt_clust_6="13000.00000" pt_clust_7="13000.00000" pt_clust_8="13000.00000" pt_clust_9="31.02378"></scales>
<clustering>
<clus scale="   31.024">  1  9  2 -1</clus>
<clus scale="   87.531">  7  8 -1 -1</clus>
<clus scale="   91.085">  5  6 -1 -1</clus>
<clus scale="  153.900">  1  7  2 -1</clus>
<clus scale="   31.024">  1  5  2 -1</clus>
</clustering>
</event>
<event>
 9    1  0.1234700E-005  0.9783943E+02  0.7546771E-02  0.1285990E+00
         -1   -1    0    0    0  501 -0.00000000000E+00  0.00000000000E+00  0.49271838654E+02  0.49271838654E+02  0.00000000000E+00 0.  1.
          1   -1    0    0  502    0  0.00000000000E+00 -0.00000000000E+00 -0.76712903719E+03  0.76712903719E+03  0.00000000000E+00 0. -1.
         23    2    1    2    0    0 -0.30455760548E+02 -0.38555863085E+02 -0.40418616789E+02  0.11136925292E+03  0.91407537892E+02 0.  0.
         23    2    1    2    0    0  0.20520687514E+02 -0.45389261179E+02 -0.26540902847E+03  0.28442035068E+03  0.89284376257E+02 0.  0.
        -11    1    3    3    0    0 -0.31772554170E+02 -0.61354733653E+02 -0.51316312401E+02  0.86065454502E+02  0.00000000000E+00 0.  1.
         11    1    3    3    0    0  0.13167936227E+01  0.22798870568E+02  0.10897695612E+02  0.25303798416E+02  0.00000000000E+00 0. -1.
        -11    1    4    4    0    0  0.53479569802E+01 -0.71013845797E+02 -0.16560269947E+03  0.18026597297E+03  0.00000000000E+00 0.  1.
         11    1    4    4    0    0  0.15172730534E+02  0.25624584619E+02 -0.99806329002E+02  0.10415437772E+03  0.00000000000E+00 0. -1.
         21    1    1    2  502  501  0.99350730332E+01  0.83945124264E+02 -0.41202955327E+03  0.42061127224E+03  0.00000000000E+00 0. -1.
<scales pt_clust_5="13000.00000" pt_clust_6="13000.00000" pt_clust_7="13000.00000" pt_clust_8="13000.00000" pt_clust_9="84.53100"></scales>
<clustering>
<clus scale="   84.531">  2  9  1 -1</clus>
<clus scale="   89.284">  7  8 -1 -1</clus>
<clus scale="   91.408">  5  6 -1 -1</clus>
<clus scale="   95.859">  2  7  1 -1</clus>
<clus scale="   84.531">  2  5  1 -1</clus>
</clustering>
</event>
<event>
 9    1  0.1234700E-005  0.1027139E+03  0.7546771E-02  0.1279749E+00
         -2   -1    0    0    0  501 -0.00000000000E+00  0.00000000000E+00  0.22258087002E+03  0.22258087002E+03  0.00000000000E+00 0.  1.
          2   -1    0    0  502    0  0.00000000000E+00 -0.00000000000E+00 -0.10809282100E+03  0.10809282100E+03  0.00000000000E+00 0. -1.
         23    2    1    2    0    0  0.18674953879E+01 -0.13519605971E+02  0.15235686680E+03  0.17558894838E+03  0.86212508646E+02 0.  0.
         23    2    1    2    0    0  0.11599804125E+02  0.38074268002E+02 -0.59180519675E+02  0.11989258128E+03  0.96372671423E+02 0.  0.
        -11    1    4    4    0    0 -0.29890495212E+02  0.13202060220E+02  0.11154928775E+02  0.34527793646E+02  0.00000000000E+00 0.  1.
         11    1    4    4    0    0  0.41490299337E+02  0.24872207782E+02 -0.70335448450E+02  0.85364787634E+02  0.00000000000E+00 0. -1.
        -13    1    3    3    0    0  0.59352394167E+01 -0.50112418112E+02  0.87137378177E+02  0.10069460855E+03  0.00000000000E+00 0.  1.
         13    1    3    3    0    0 -0.40677440288E+01  0.36592812141E+02  0.65219488620E+02  0.74894339824E+02  0.00000000000E+00 0. -1.
         21    1    1    2  502  501 -0.13467299513E+02 -0.24554662031E+02  0.21311701897E+02  0.35192161363E+02  0.00000000000E+00 0. -1.
<scales pt_clust_5="13000.00000" pt_clust_6="13000.00000" pt_clust_7="13000.00000" pt_clust_8="13000.00000" pt_clust_9="28.00535"></scales>
<clustering>
<clus scale="   28.005">  1  9  2 -1</clus>
<clus scale="   86.213">  7  8 -1 -1</clus>
<clus scale="   93.247">  1  7  2 -1</clus>
<clus scale="   96.373">  5  6 -1 -1</clus>
<clus scale="  102.714">  2  5  1 -1</clus>
</clustering>
</event>
<event>
 9    1  0.1234700E-005  0.1004412E+03  0.7546771E-02  0.1281844E+00
         -1   -1    0    0    0  501 -0.00000000000E+00  0.00000000000E+00  0.18361488307E+03  0.18361488307E+03  0.00000000000E+00 0.  1.
          1   -1    0    0  502    0  0.00000000000E+00 -0.00000000000E+00 -0.79535729887E+02  0.79535729887E+02  0.00000000000E+00 0. -1.
         23    2    1    2    0    0 -0.35019460028E+02 -0.34253217908E+01  0.85631064824E+02  0.13226597222E+03  0.94464346368E+02 0.  0.
         23    2    1    2    0    0  0.30280265804E+02 -0.27102753811E+02  0.99057473044E+01  0.98831638495E+02  0.89543928753E+02 0.  0.
        -11    1    4    4    0    0 -0.21826987821E+02  0.70155655609E+01  0.25837464954E+02  0.34542874124E+02  0.00000000000E+00 0.  1.
         11    1    4    4    0    0  0.52107253625E+02 -0.34118319372E+02 -0.15931717649E+02  0.64288764371E+02  0.00000000000E+00 0. -1.
        -13    1    3    3    0    0 -0.63593684488E+02 -0.12124570680E+02  0.78135420277E+02  0.10147071411E+03  0.00000000000E+00 0. -1.
         13    1    3    3    0    0  0.28574224460E+02  0.86992488892E+01  0.74956445471E+01  0.30795258108E+02  0.00000000000E+00 0.  1.
         21    1    1    2  502  501  0.47391942241E+01  0.30528075602E+02  0.85423410517E+01  0.32053002238E+02  0.00000000000E+00 0.  1.
<scales pt_clust_5="13000.00000" pt_clust_6="13000.00000" pt_clust_7="13000.00000" pt_clust_8="13000.00000" pt_clust_9="30.89374"></scales>
<clustering>
<clus scale="   30.894">  2  9  1 -1</clus>
<clus scale="   89.544">  5  6 -1 -1</clus>
<clus scale="   94.464">  7  8 -1 -1</clus>
<clus scale="   95.828">  2  5  1 -1</clus>
<clus scale="   30.894">  2  5  1 -1</clus>
</clustering>
</event>
<event>
 9    1  0.1234700E-005  0.9099412E+02  0.7546771E-02  0.1302399E+00
          2   -1    0    0  502    0  0.00000000000E+00  0.00000000000E+00  0.80514797272E+02  0.80514797272E+02  0.00000000000E+00 0. -1.
         -2   -1    0    0    0  501 -0.00000000000E+00 -0.00000000000E+00 -0.15433230690E+03  0.15433230690E+03  0.00000000000E+00 0.  1.
         23    2    1    2    0    0  0.13239230298E+02  0.21032663975E+01 -0.69870837703E+02  0.11285607386E+03  0.87606269737E+02 0.  0.
         23    2    1    2    0    0  0.65628973451E+01  0.67664429254E+01 -0.21844717335E+02  0.93863889818E+02  0.90798577990E+02 0.  0.
        -11    1    4    4    0    0 -0.13178078938E+02  0.41047720885E+02 -0.31196392329E+02  0.53214584924E+02  0.00000000000E+00 0.  1.
         11    1    4    4    0    0  0.19740976283E+02 -0.34281277959E+02  0.93516749944E+01  0.40649304894E+02  0.00000000000E+00 0. -1.
        -13    1    3    3    0    0 -0.27319669049E+02 -0.20525290166E+02 -0.73170677890E+01  0.34945548134E+02  0.00000000000E+00 0. -1.
         13    1    3    3    0    0  0.40558899347E+02  0.22628556564E+02 -0.62553769914E+02  0.77910525725E+02  0.00000000000E+00 0.  1.
         21    1    1    2  502  501 -0.19802127643E+02 -0.88697093229E+01  0.17898045412E+02  0.28127140492E+02  0.00000000000E+00 0.  1.
<scales pt_clust_5="13000.00000" pt_clust_6="13000.00000" pt_clust_7="13000.00000" pt_clust_8="13000.00000" pt_clust_9="21.69783"></scales>
<clustering>
<clus scale="   21.698">  1  9  2 -1</clus>
<clus scale="   87.606">  7  8 -1 -1</clus>
<clus scale="   87.809">  2  7  1 -1</clus>
<clus scale="   90.799">  5  6 -1 -1</clus>
<clus scale="   21.698">  1  5  2 -1</clus>
</clustering>
</event>
<event>
 9    1  0.1234700E-005  0.1036248E+03  0.7546771E-02  0.1274727E+00
          1   -1    0    0  502    0  0.00000000000E+00  0.00000000000E+00  0.67291882720E+03  0.67291882720E+03  0.00000000000E+00 0. -1.
         -1   -1    0    0    0  501 -0.00000000000E+00 -0.00000000000E+00 -0.20163436916E+02  0.20163436916E+02  0.00000000000E+00 0.  1.
         23    2    1    2    0    0 -0.32711998982E+02  0.36425318930E+02  0.22118041052E+03  0.24270109998E+03  0.87098629139E+02 0.  0.
         23    2    1    2    0    0  0.14387515763E+02 -0.50266139200E+02  0.33580388817E+03  0.35189534294E+03  0.91281957224E+02 0.  0.
        -11    1    3    3    0    0 -0.48333357076E+02 -0.10980346874E+02  0.98867641866E+02  0.11059607602E+03  0.00000000000E+00 0.  1.
         11    1    3    3    0    0  0.15621358094E+02  0.47405665804E+02  0.12231276866E+03  0.13210502396E+03  0.00000000000E+00 0. -1.
        -13    1    4    4    0    0  0.22337667052E+02 -0.75233328443E+02  0.26600283714E+03  0.27733830324E+03  0.00000000000E+00 0. -1.
         13    1    4    4    0    0 -0.79501512883E+01  0.24967189243E+02  0.69801051025E+02  0.74557039697E+02  0.00000000000E+00 0.  1.
         21    1    1    2  502  501  0.18324483219E+02  0.13840820270E+02  0.95771091595E+02  0.98485821194E+02  0.00000000000E+00 0.  1.
<scales pt_clust_5="13000.00000" pt_clust_6="13000.00000" pt_clust_7="13000.00000" pt_clust_8="13000.00000" pt_clust_9="22.96421"></scales>
<clustering>
<clus scale="   22.964">  1  9  2 -1</clus>
<clus scale="   87.099">  5  6 -1 -1</clus>
<clus scale="   91.282">  7  8 -1 -1</clus>
<clus scale="   99.959">  2  5  1 -1</clus>
<clus scale="   22.964">  1  5  2 -1</clus>
</clustering>
</event>
<event>
 9    1  0.1234700E-005  0.1096440E+03  0.7546771E-02  0.1266249E+00
          1   -1    0    0  502    0  0.00000000000E+00  0.00000000000E+00  0.13675039745E+03  0.13675039745E+03  0.00000000000E+00 0. -1.
         -1   -1    0    0    0  501 -0.00000000000E+00 -0.00000000000E+00 -0.13057056587E+03  0.13057056587E+03  0.00000000000E+00 0.  1.
         23    2    1    2    0    0  0.53314127820E+01  0.31844895878E+02 -0.16025308252E+02  0.10860449042E+03  0.10244805259E+03 0.  0.
         23    2    1    2    0    0  0.29318249519E+02 -0.42215664071E+02 -0.16031307946E+02  0.10608399368E+03  0.91406175030E+02 0.  0.
        -11    1    3    3    0    0 -0.35717342549E+02 -0.18758644068E+02  0.37315776869E+01  0.40515922278E+02  0.00000000000E+00 0.  1.
         11    1    3    3    0    0  0.41048755331E+02  0.50603539946E+02 -0.19756885939E+02  0.68088568139E+02  0.00000000000E+00 0. -1.
        -13    1    4    4    0    0  0.41489429521E+02  0.13192378348E+02  0.83630366119E+01  0.44332290600E+02  0.00000000000E+00 0. -1.
         13    1    4    4    0    0 -0.12171180002E+02 -0.55408042420E+02 -0.24394344558E+02  0.61751703084E+02  0.00000000000E+00 0.  1.
         21    1    1    2  502  501 -0.34649662301E+02  0.10370768193E+02  0.38236447775E+02  0.52632479221E+02  0.00000000000E+00 0.  1.
<scales pt_clust_5="13000.00000" pt_clust_6="13000.00000" pt_clust_7="13000.00000" pt_clust_8="13000.00000" pt_clust_9="36.16838"></scales>
<clustering>
<clus scale="   36.168">  1  9  2 -1</clus>
<clus scale="   91.406">  7  8 -1 -1</clus>
<clus scale="   99.405">  1  7  2 -1</clus>
<clus scale="  102.448">  5  6 -1 -1</clus>
<clus scale="   36.168">  1  5  2 -1</clus>
</clustering>
</event>
<event>
 9    1  0.1234700E-005  0.9900964E+02  0.7546771E-02  0.1283623E+00
          1   -1    0    0  502    0  0.00000000000E+00  0.00000000000E+00  0.46591491104E+03  0.46591491104E+03  0.00000000000E+00 0. -1.
         -1   -1    0    0    0  501 -0.00000000000E+00 -0.00000000000E+00 -0.53813952422E+02  0.53813952422E+02  0.00000000000E+00 0.  1.
         23    2    1    2    0    0 -0.93347304994E+01  0.35492917847E+02  0.14059678996E+02  0.98190525373E+02  0.89982333203E+02 0.  0.
         23    2    1    2    0    0  0.28396684391E+02 -0.22882600507E+02  0.21237284241E+03  0.23446844001E+03  0.92429649347E+02 0.  0.
        -11    1    4    4    0    0 -0.26345543607E+02 -0.19423493917E+02  0.31369756482E+02  0.45336755570E+02  0.00000000000E+00 0.  1.
         11    1    4    4    0    0  0.54742227998E+02 -0.34591065908E+01  0.18100308592E+03  0.18913168444E+03  0.00000000000E+00 0. -1.
        -13    1    3    3    0    0 -0.40132917438E+01  0.65845524363E+02  0.54373818660E+01  0.66191424753E+02  0.00000000000E+00 0.  1.
         13    1    3    3    0    0 -0.53214387556E+01 -0.30352606515E+02  0.86222971298E+01  0.31999100620E+02  0.00000000000E+00 0. -1.
         21    1    1    2  502  501 -0.19061953891E+02 -0.12610317340E+02  0.18566843721E+03  0.18706989808E+03  0.00000000000E+00 0.  1.
<scales pt_clust_5="13000.00000" pt_clust_6="13000.00000" pt_clust_7="13000.00000" pt_clust_8="13000.00000" pt_clust_9="22.85559"></scales>
<clustering>
<clus scale="   22.856">  1  9  2 -1</clus>
<clus scale="   89.982">  7  8 -1 -1</clus>
<clus scale="   92.430">  5  6 -1 -1</clus>
<clus scale="   96.729">  2  7  1 -1</clus>
<clus scale="   22.856">  1  5  2 -1</clus>
</clustering>
</event>
<event>
 9    1  0.1234700E-005  0.1022415E+03  0.7546771E-02  0.1278419E+00
          1   -1    0    0  502    0  0.00000000000E+00  0.00000000000E+00  0.71353644266E+03  0.71353644266E+03  0.00000000000E+00 0. -1.
         -1   -1    0    0    0  501 -0.00000000000E+00 -0.00000000000E+00 -0.18038803816E+02  0.18038803816E+02  0.00000000000E+00 0.  1.
         23    2    1    2    0    0  0.52045662283E+02 -0.15557367901E+02  0.27878722540E+03  0.29655375501E+03  0.85270334279E+02 0.  0.
         23    2    1    2    0    0 -0.60431422730E+02 -0.48274673878E+01  0.29475192279E+03  0.31108708974E+03  0.78874711530E+02 0.  0.
        -11    1    3    3    0    0  0.67701883890E+02 -0.34430776223E+02  0.19566976257E+03  0.20989444827E+03  0.00000000000E+00 0. -1.
         11    1    3    3    0    0 -0.15656221607E+02  0.18873408322E+02  0.83117462829E+02  0.86659306735E+02  0.00000000000E+00 0.  1.
        -13    1    4    4    0    0 -0.25041866205E+02  0.35052285844E+02  0.94448806528E+02  0.10380912706E+03  0.00000000000E+00 0.  1.
         13    1    4    4    0    0 -0.35389556525E+02 -0.39879753232E+02  0.20030311626E+03  0.20727796268E+03  0.00000000000E+00 0. -1.
         21    1    1    2  502  501  0.83857604470E+01  0.20384835289E+02  0.12195849065E+03  0.12393440172E+03  0.00000000000E+00 0. -1.
<scales pt_clust_5="13000.00000" pt_clust_6="13000.00000" pt_clust_7="13000.00000" pt_clust_8="13000.00000" pt_clust_9="22.04229"></scales>
<clustering>
<clus scale="   22.042">  1  9  2 -1</clus>
<clus scale="   78.875">  7  8 -1 -1</clus>
<clus scale="   85.270">  5  6 -1 -1</clus>
<clus scale="   96.972">  1  7  2 -1</clus>
<clus scale="   22.042">  1  5  2 -1</clus>
</clustering>
</event>
<event>
 9    1  0.1234700E-005  0.1360613E+03  0.7546771E-02  0.1220666E+00
          2   -1    0    0  502    0  0.00000000000E+00  0.00000000000E+00  0.56781433099E+03  0.56781433099E+03  0.00000000000E+00 0. -1.
         -2   -1    0    0    0  501 -0.00000000000E+00 -0.00000000000E+00 -0.59354562199E+02  0.59354562199E+02  0.00000000000E+00 0.  1.
         23    2    1    2    0    0  0.86298119439E+02  0.10011711831E+02  0.74223217212E+02  0.15156415061E+03  0.99574123064E+02 0.  0.
         23    2    1    2    0    0 -0.10146448238E+03 -0.52755603417E+02  0.30151468531E+03  0.33534729138E+03  0.92024483143E+02 0.  0.
        -11    1    4    4    0    0 -0.57467990414E+02 -0.41564360658E+02  0.70818915828E+02  0.10022716617E+03  0.00000000000E+00 0.  1.
         11    1    4    4    0    0 -0.43996491968E+02 -0.11191242759E+02  0.23069576948E+03  0.23512012521E+03  0.00000000000E+00 0. -1.
        -11    1    3    3    0    0  0.53759125891E+02  0.52368090072E+02  0.60549008910E+02  0.96429471400E+02  0.00000000000E+00 0.  1.
         11    1    3    3    0    0  0.32538993548E+02 -0.42356378241E+02  0.13674208302E+02  0.55134679209E+02  0.00000000000E+00 0. -1.
         21    1    1    2  502  501  0.15166362942E+02  0.42743891586E+02  0.13272186627E+03  0.14025745121E+03  0.00000000000E+00 0. -1.
<scales pt_clust_5="13000.00000" pt_clust_6="13000.00000" pt_clust_7="13000.00000" pt_clust_8="13000.00000" pt_clust_9="45.35481"></scales>
<clustering>
<clus scale="   45.355">  1  9  2 -1</clus>
<clus scale="   92.024">  5  6 -1 -1</clus>
<clus scale="   99.574">  7  8 -1 -1</clus>
<clus scale="  130.638">  1  5  2 -1</clus>
<clus scale="   45.355">  1  5  2 -1</clus>
</clustering>
</event>
<event>
 9    1  0.1234700E-005  0.9241350E+02  0.7546771E-02  0.1301571E+00
         -1   -1    0    0    0  501 -0.00000000000E+00  0.00000000000E+00  0.73783961097E+02  0.73783961097E+02  0.00000000000E+00 0.  1.
          1   -1    0    0  502    0  0.00000000000E+00 -0.00000000000E+00 -0.26308408383E+03  0.26308408383E+03  0.00000000000E+00 0. -1.
         23    2    1    2    0    0 -0.92798949335E+00  0.16139173148E+02  0.15063441263E+02  0.93373931596E+02  0.90721826286E+02 0.  0.
         23    2    1    2    0    0  0.38567263454E+02 -0.14130834765E+02 -0.16254962642E+03  0.18719887603E+03  0.83270185754E+02 0.  0.
        -13    1    3    3    0    0  0.44680336513E+02  0.69905252575E+01  0.30270390843E+01  0.45325080032E+02  0.00000000000E+00 0.  1.
         13    1    3    3    0    0 -0.45608326006E+02  0.91486478901E+01  0.12036402178E+02  0.48048851565E+02  0.00000000000E+00 0. -1.
        -13    1    4    4    0    0 -0.54501942345E+01 -0.35808158300E+02 -0.10759298671E+03  0.11352611862E+03  0.00000000000E+00 0. -1.
         13    1    4    4    0    0  0.44017457688E+02  0.21677323534E+02 -0.54956639707E+02  0.73672757413E+02  0.00000000000E+00 0.  1.
         21    1    1    2  502  501 -0.37639273960E+02 -0.20083383823E+01 -0.41813937577E+02  0.56295237303E+02  0.00000000000E+00 0. -1.
<scales pt_clust_5="13000.00000" pt_clust_6="13000.00000" pt_clust_7="13000.00000" pt_clust_8="13000.00000" pt_clust_9="37.69282"></scales>
<clustering>
<clus scale="   37.693">  2  9  1 -1</clus>
<clus scale="   83.270">  7  8 -1 -1</clus>
<clus scale="   85.110">  2  7  1 -1</clus>
<clus scale="   90.722">  5  6 -1 -1</clus>
<clus scale="   37.693">  2  5  1 -1</clus>
</clustering>
</event>
<event>
 9    1  0.1251849E-005  0.1095545E+03  0.7546771E-02  0.1262383E+00
          3   -1    0    0  502    0  0.00000000000E+00  0.00000000000E+00  0.27512384314E+03  0.27512384314E+03  0.00000000000E+00 0. -1.
         -3   -1    0    0    0  501 -0.00000000000E+00 -0.00000000000E+00 -0.16200450492E+03  0.16200450492E+03  0.00000000000E+00 0.  1.
         23    2    1    2    0    0  0.23454872500E+02 -0.67901149746E+02 -0.10794789531E+03  0.15937480296E+03  0.92665433337E+02 0.  0.
         23    2    1    2    0    0 -0.14650829273E+02 -0.11880671358E+01  0.84505138426E+02  0.12445632762E+03  0.90178715690E+02 0.  0.
        -11    1    4    4    0    0 -0.28734967125E+00 -0.44990273016E+02  0.36870623201E+02  0.58169150682E+02  0.00000000000E+00 0.  1.
         11    1    4    4    0    0 -0.14363479601E+02  0.43802205880E+02  0.47634515225E+02  0.66287176942E+02  0.00000000000E+00 0. -1.
        -11    1    3    3    0    0  0.95464535519E+01 -0.22959092475E+02  0.14092556514E+02  0.28580672697E+02  0.00000000000E+00 0. -1.
         11    1    3    3    0    0  0.13908418948E+02 -0.44942057271E+02 -0.12204045183E+03  0.13079413026E+03  0.00000000000E+00 0.  1.
         21    1    1    2  502  501 -0.88040432279E+01  0.69089216882E+02  0.13656209511E+03  0.15329721748E+03  0.00000000000E+00 0. -1.
<scales pt_clust_5="13000.00000" pt_clust_6="13000.00000" pt_clust_7="13000.00000" pt_clust_8="13000.00000" pt_clust_9="69.64791"></scales>
<clustering>
<clus scale="   69.648">  1  9  2 -1</clus>
<clus scale="   90.179">  5  6 -1 -1</clus>
<clus scale="   92.665">  7  8 -1 -1</clus>
<clus scale="  107.459">  1  5  2 -1</clus>
<clus scale="   69.648">  1  5  2 -1</clus>
</clustering>
</event>
<event>
 9    1  0.1234700E-005  0.1119596E+03  0.7546771E-02  0.1261182E+00
          1   -1    0    0  502    0  0.00000000000E+00  0.00000000000E+00  0.85656978244E+03  0.85656978244E+03  0.00000000000E+00 0. -1.
         -1   -1    0    0    0  501 -0.00000000000E+00 -0.00000000000E+00 -0.34888207844E+02  0.34888207844E+02  0.00000000000E+00 0.  1.
         23    2    1    2    0    0  0.67808440911E+02 -0.20946125968E+02  0.90782320015E+02  0.14836768915E+03  0.93460241300E+02 0.  0.
         23    2    1    2    0    0 -0.21222967859E+02  0.17922409680E+02  0.45598435024E+03  0.46423988642E+03  0.82615478846E+02 0.  0.
        -11    1    3    3    0    0  0.39103783667E+02  0.32584480329E+02  0.64549385546E+02  0.82203877219E+02  0.00000000000E+00 0.  1.
         11    1    3    3    0    0  0.28704657244E+02 -0.53530606298E+02  0.26232934469E+02  0.66163811929E+02  0.00000000000E+00 0. -1.
        -13    1    4    4    0    0  0.26855671363E+02 -0.13162301839E+02  0.15721413289E+03  0.16003361164E+03  0.00000000000E+00 0. -1.
         13    1    4    4    0    0 -0.48078639222E+02  0.31084711519E+02  0.29877021735E+03  0.30420627478E+03  0.00000000000E+00 0.  1.
         21    1    1    2  502  501 -0.46585473053E+02  0.30237162882E+01  0.27491490434E+03  0.27885041472E+03  0.00000000000E+00 0.  1.
<scales pt_clust_5="13000.00000" pt_clust_6="13000.00000" pt_clust_7="13000.00000" pt_clust_8="13000.00000" pt_clust_9="46.68350"></scales>
<clustering>
<clus scale="   46.683">  1  9  2 -1</clus>
<clus scale="   82.615">  7  8 -1 -1</clus>
<clus scale="   93.460">  5  6 -1 -1</clus>
<clus scale="  103.080">  1  7  2 -1</clus>
<clus scale="   46.683">  1  5  2 -1</clus>
</clustering>
</event>
<event>
 9    1  0.1234700E-005  0.1491120E+03  0.7546771E-02  0.1202169E+00
          2   -1    0    0  502    0  0.00000000000E+00  0.00000000000E+00  0.37444387649E+03  0.37444387649E+03  0.00000000000E+00 0. -1.
         -2   -1    0    0    0  501 -0.00000000000E+00 -0.00000000000E+00 -0.16537147019E+03  0.16537147019E+03  0.00000000000E+00 0.  1.
         23    2    1    2    0    0 -0.15016957594E+02 -0.95033674155E+02 -0.15061793629E+02  0.13101568660E+03  0.87643278517E+02 0.  0.
         23    2    1    2    0    0 -0.61281868454E+02  0.18498435083E+03  0.98563786142E+02  0.23651917973E+03  0.90839556288E+02 0.  0.
        -11    1    3    3    0    0  0.27315795940E+02 -0.81085154415E+02 -0.10778321433E+02  0.86238780066E+02  0.00000000000E+00 0.  1.
         11    1    3    3    0    0 -0.42332753534E+02 -0.13948519740E+02 -0.42834721962E+01  0.44776906534E+02  0.00000000000E+00 0. -1.
        -13    1    4    4    0    0 -0.53655975612E+02  0.47829657636E+02  0.87803459353E+01  0.72413633683E+02  0.00000000000E+00 0.  1.
         13    1    4    4    0    0 -0.76258928421E+01  0.13715469320E+03  0.89783440206E+02  0.16410554604E+03  0.00000000000E+00 0. -1.
         21    1    1    2  502  501  0.76298826048E+02 -0.89950676677E+02  0.12557041378E+03  0.17228048035E+03  0.00000000000E+00 0.  1.
<scales pt_clust_5="13000.00000" pt_clust_6="13000.00000" pt_clust_7="13000.00000" pt_clust_8="13000.00000" pt_clust_9="117.95183"></scales>
<clustering>
<clus scale="   87.643">  5  6 -1 -1</clus>
<clus scale="   90.840">  7  8 -1 -1</clus>
<clus scale="  117.952">  1  9  2 -1</clus>
<clus scale="  147.187">  2  5  1 -1</clus>
<clus scale="  117.952">  1  5  2 -1</clus>
</clustering>
</event>
<event>
 9    1  0.1234700E-005  0.1802198E+03  0.7546771E-02  0.1169937E+00
          1   -1    0    0  502    0  0.00000000000E+00  0.00000000000E+00  0.11023055920E+04  0.11023055920E+04  0.00000000000E+00 0. -1.
         -1   -1    0    0    0  501 -0.00000000000E+00 -0.00000000000E+00 -0.50530947685E+02  0.50530947685E+02  0.00000000000E+00 0.  1.
         23    2    1    2    0    0  0.10117483885E+03 -0.94771731123E+02  0.28668569477E+03  0.32657734994E+03  0.72429613224E+02 0.  0.
         23    2    1    2    0    0 -0.16480601693E+03  0.69845162471E+02  0.33615636403E+03  0.39191667102E+03  0.92510572446E+02 0.  0.
        -11    1    3    3    0    0  0.36736839478E+02 -0.21410918962E+01  0.11820406965E+03  0.12379976467E+03  0.00000000000E+00 0.  1.
         11    1    3    3    0    0  0.64437999373E+02 -0.92630639227E+02  0.16848162512E+03  0.20277758527E+03  0.00000000000E+00 0. -1.
        -13    1    4    4    0    0 -0.13693350774E+03  0.14488849499E+02  0.25498111195E+03  0.28978626564E+03  0.00000000000E+00 0.  1.
         13    1    4    4    0    0 -0.27872509191E+02  0.55356312972E+02  0.81175252072E+02  0.10213040538E+03  0.00000000000E+00 0. -1.
         21    1    1    2  502  501  0.63631178078E+02  0.24926568652E+02  0.42893258550E+03  0.43434251871E+03  0.00000000000E+00 0. -1.
<scales pt_clust_5="13000.00000" pt_clust_6="13000.00000" pt_clust_7="13000.00000" pt_clust_8="13000.00000" pt_clust_9="68.33931"></scales>
<clustering>
<clus scale="   68.339">  1  9  2 -1</clus>
<clus scale="   72.430">  5  6 -1 -1</clus>
<clus scale="   92.511">  7  8 -1 -1</clus>
<clus scale="  170.784">  2  5  1 -1</clus>
<clus scale="   68.339">  1  5  2 -1</clus>
</clustering>
</event>
<event>
 9    1  0.1234700E-005  0.9794901E+02  0.7546771E-02  0.1285322E+00
         -1   -1    0    0    0  501 -0.00000000000E+00  0.00000000000E+00  0.11826740628E+03  0.11826740628E+03  0.00000000000E+00 0.  1.
          1   -1    0    0  502    0  0.00000000000E+00 -0.00000000000E+00 -0.25889460823E+03  0.25889460823E+03  0.00000000000E+00 0. -1.
         23    2    1    2    0    0 -0.47097454778E+01 -0.38722772661E+02  0.60892859481E+02  0.11870050311E+03  0.94128817471E+02 0.  0.
         23    2    1    2    0    0 -0.15510948622E+02 -0.20923697517E+02 -0.99615948699E+02  0.13866574324E+03  0.92878740672E+02 0.  0.
        -11    1    4    4    0    0  0.25732700606E+02  0.11139654325E+02 -0.76616039672E+02  0.81586036268E+02  0.00000000000E+00 0.  1.
         11    1    4    4    0    0 -0.41243649228E+02 -0.32063351842E+02 -0.22999909027E+02  0.57079706974E+02  0.00000000000E+00 0. -1.
        -13    1    3    3    0    0  0.44160772307E+02 -0.21558880237E+02  0.21568139718E+02  0.53666971023E+02  0.00000000000E+00 0.  1.
         13    1    3    3    0    0 -0.48870517785E+02 -0.17163892423E+02  0.39324719763E+02  0.65033532090E+02  0.00000000000E+00 0. -1.
         21    1    1    2  502  501  0.20220694100E+02  0.59646470177E+02 -0.10190411274E+03  0.11979576816E+03  0.00000000000E+00 0.  1.
<scales pt_clust_5="13000.00000" pt_clust_6="13000.00000" pt_clust_7="13000.00000" pt_clust_8="13000.00000" pt_clust_9="62.98077"></scales>
<clustering>
<clus scale="   62.981">  2  9  1 -1</clus>
<clus scale="   92.879">  5  6 -1 -1</clus>
<clus scale="   94.129">  7  8 -1 -1</clus>
<clus scale="   96.748">  2  5  1 -1</clus>
<clus scale="   62.981">  2  5  1 -1</clus>
</clustering>
</event>
<event>
 9    1  0.1234700E-005  0.1319667E+03  0.7546771E-02  0.1227686E+00
         -1   -1    0    0    0  501 -0.00000000000E+00  0.00000000000E+00  0.97472167644E+02  0.97472167644E+02  0.00000000000E+00 0.  1.
          1   -1    0    0  502    0  0.00000000000E+00 -0.00000000000E+00 -0.74661217521E+03  0.74661217521E+03  0.00000000000E+00 0. -1.
         23    2    1    2    0    0  0.60482532889E+02 -0.63800670110E+02  0.38383094882E+02  0.14024118069E+03  0.10230183037E+03 0.  0.
         23    2    1    2    0    0 -0.42338904018E+02  0.22480015746E+02 -0.41658500097E+03  0.42917237272E+03  0.91366999339E+02 0.  0.
        -11    1    3    3    0    0 -0.12482762032E+02 -0.56946708166E+02  0.32433912490E+02  0.66713608794E+02  0.00000000000E+00 0. -1.
         11    1    3    3    0    0  0.72965294921E+02 -0.68539619439E+01  0.59491823916E+01  0.73527571892E+02  0.00000000000E+00 0.  1.
        -13    1    4    4    0    0 -0.54134342694E+02 -0.17381758732E+02 -0.17406771946E+03  0.18311805905E+03  0.00000000000E+00 0.  1.
         13    1    4    4    0    0  0.11795438676E+02  0.39861774478E+02 -0.24251728152E+03  0.24605431366E+03  0.00000000000E+00 0. -1.
         21    1    1    2  502  501 -0.18143628872E+02  0.41320654364E+02 -0.27093810147E+03  0.27467078945E+03  0.00000000000E+00 0. -1.
<scales pt_clust_5="13000.00000" pt_clust_6="13000.00000" pt_clust_7="13000.00000" pt_clust_8="13000.00000" pt_clust_9="45.12857"></scales>
<clustering>
<clus scale="   45.129">  2  9  1 -1</clus>
<clus scale="   91.367">  7  8 -1 -1</clus>
<clus scale="  102.302">  5  6 -1 -1</clus>
<clus scale="  123.683">  2  7  1 -1</clus>
<clus scale="   45.129">  2  5  1 -1</clus>
</clustering>
</event>
<event>
 9    1  0.1234700E-005  0.1079512E+03  0.7546771E-02  0.1264542E+00
          2   -1    0    0  502    0  0.00000000000E+00  0.00000000000E+00  0.20110625168E+03  0.20110625168E+03  0.00000000000E+00 0. -1.
         -2   -1    0    0    0  501 -0.00000000000E+00 -0.00000000000E+00 -0.22320543730E+03  0.22320543730E+03  0.00000000000E+00 0.  1.
         23    2    1    2    0    0  0.37700756063E+02  0.23132026758E+02 -0.96232454865E+02  0.13924705637E+03  0.90402542378E+02 0.  0.
         23    2    1    2    0    0 -0.82345949170E+02 -0.22547017283E+02 -0.63882680853E+02  0.14000623753E+03  0.90727759264E+02 0.  0.
        -11    1    3    3    0    0  0.12260832054E+02  0.53998852115E+02 -0.77055783746E+02  0.94888344074E+02  0.00000000000E+00 0.  1.
         11    1    3    3    0    0  0.25439924010E+02 -0.30866825358E+02 -0.19176671119E+02  0.44358712295E+02  0.00000000000E+00 0. -1.
        -13    1    4    4    0    0 -0.56348509442E+02  0.30158838595E+02 -0.45414154889E+02  0.78403797906E+02  0.00000000000E+00 0.  1.
         13    1    4    4    0    0 -0.25997439728E+02 -0.52705855879E+02 -0.18468525964E+02  0.61602439624E+02  0.00000000000E+00 0. -1.
         21    1    1    2  502  501  0.44645193107E+02 -0.58500947418E+00  0.13801595009E+03  0.14505839508E+03  0.00000000000E+00 0. -1.
<scales pt_clust_5="13000.00000" pt_clust_6="13000.00000" pt_clust_7="13000.00000" pt_clust_8="13000.00000" pt_clust_9="44.64903"></scales>
<clustering>
<clus scale="   44.649">  1  9  2 -1</clus>
<clus scale="   90.403">  5  6 -1 -1</clus>
<clus scale="   90.728">  7  8 -1 -1</clus>
<clus scale="  107.678">  2  5  1 -1</clus>
<clus scale="   44.649">  1  5  2 -1</clus>
</clustering>
</event>
<event>
 9    1  0.1234700E-005  0.1037913E+03  0.7546771E-02  0.1274177E+00
         -1   -1    0    0    0  501 -0.00000000000E+00  0.00000000000E+00  0.57965136985E+02  0.57965136985E+02  0.00000000000E+00 0.  1.
          1   -1    0    0  502    0  0.00000000000E+00 -0.00000000000E+00 -0.25494905405E+03  0.25494905405E+03  0.00000000000E+00 0. -1.
         23    2    1    2    0    0  0.29933833489E+02 -0.45351564157E+02 -0.39254324769E+02  0.10920903143E+03  0.86214336243E+02 0.  0.
         23    2    1    2    0    0 -0.48511584528E+01  0.50305925747E+02 -0.12995043101E+03  0.16595111231E+03  0.89991317650E+02 0.  0.
        -13    1    3    3    0    0  0.41445411259E+02 -0.16778032094E+02 -0.57934735869E+02  0.73182361916E+02  0.00000000000E+00 0. -1.
         13    1    3    3    0    0 -0.11511577771E+02 -0.28573532063E+02  0.18680411100E+02  0.36026669513E+02  0.00000000000E+00 0.  1.
        -13    1    4    4    0    0 -0.27529408297E+02  0.65169722173E+02 -0.11491581016E+03  0.13494667255E+03  0.00000000000E+00 0.  1.
         13    1    4    4    0    0  0.22678249844E+02 -0.14863796426E+02 -0.15034620855E+02  0.31004439754E+02  0.00000000000E+00 0. -1.
         21    1    1    2  502  501 -0.25082675036E+02 -0.49543615904E+01 -0.27779161280E+02  0.37754047295E+02  0.00000000000E+00 0. -1.
<scales pt_clust_5="13000.00000" pt_clust_6="13000.00000" pt_clust_7="13000.00000" pt_clust_8="13000.00000" pt_clust_9="25.56729"></scales>
<clustering>
<clus scale="   25.567">  2  9  1 -1</clus>
<clus scale="   86.214">  5  6 -1 -1</clus>
<clus scale="   89.991">  7  8 -1 -1</clus>
<clus scale="  100.534">  1  5  2 -1</clus>
<clus scale="   25.567">  2  5  1 -1</clus>
</clustering>
</event>
<event>
 9    1  0.1234700E-005  0.1694663E+03  0.7546771E-02  0.1196181E+00
         -1   -1    0    0    0  501 -0.00000000000E+00  0.00000000000E+00  0.16327623666E+03  0.16327623666E+03  0.00000000000E+00 0.  1.
          1   -1    0    0  502    0  0.00000000000E+00 -0.00000000000E+00 -0.46313185799E+03  0.46313185799E+03  0.00000000000E+00 0. -1.
         23    2    1    2    0    0  0.43556076828E+02  0.56391523737E+02  0.23723096984E+02  0.11665156884E+03  0.89261791398E+02 0.  0.
         23    2    1    2    0    0  0.48406693891E+02  0.11782702255E+03 -0.25907899722E+03  0.30246574674E+03  0.90206351741E+02 0.  0.
        -11    1    4    4    0    0 -0.20252242800E+02  0.23190492272E+02 -0.21125886442E+02  0.37339728818E+02  0.00000000000E+00 0.  1.
         11    1    4    4    0    0  0.68658936691E+02  0.94636530276E+02 -0.23795311078E+03  0.26512601792E+03  0.00000000000E+00 0. -1.
        -13    1    3    3    0    0  0.48294305221E+02  0.47368379531E+01  0.39351794982E+02  0.62476726217E+02  0.00000000000E+00 0. -1.
         13    1    3    3    0    0 -0.47382283932E+01  0.51654685784E+02 -0.15628697997E+02  0.54174842620E+02  0.00000000000E+00 0.  1.
         21    1    1    2  502  501 -0.91962770719E+02 -0.17421854629E+03 -0.64499721086E+02  0.20729077907E+03  0.00000000000E+00 0.  1.
<scales pt_clust_5="13000.00000" pt_clust_6="13000.00000" pt_clust_7="13000.00000" pt_clust_8="13000.00000" pt_clust_9="143.46309"></scales>
<clustering>
<clus scale="   89.262">  7  8 -1 -1</clus>
<clus scale="   90.206">  5  6 -1 -1</clus>
<clus scale="  114.214">  1  7  2 -1</clus>
<clus scale="  143.463">  1  9  2 -1</clus>
<clus scale="  169.466">  2  5  1 -1</clus>
</clustering>
</event>
<event>
 9    1  0.1234700E-005  0.9403303E+02  0.7546771E-02  0.1294274E+00
          1   -1    0    0  502    0  0.00000000000E+00  0.00000000000E+00  0.12021009869E+03  0.12021009869E+03  0.00000000000E+00 0. -1.
         -1   -1    0    0    0  501 -0.00000000000E+00 -0.00000000000E+00 -0.20825071126E+03  0.20825071126E+03  0.00000000000E+00 0.  1.
         23    2    1    2    0    0  0.20543509420E+01  0.20506632136E+02 -0.10037498931E+03  0.13821691208E+03  0.92757932203E+02 0.  0.
         23    2    1    2    0    0 -0.24040175851E+02  0.32617837575E+01 -0.59441716132E+02  0.11150304698E+03  0.91164919688E+02 0.  0.
        -13    1    3    3    0    0 -0.24430027991E+02  0.28621051173E+02 -0.38849195594E+01  0.37829663465E+02  0.00000000000E+00 0. -1.
         13    1    3    3    0    0  0.26484378933E+02 -0.81144190371E+01 -0.96490069754E+02  0.10038724862E+03  0.00000000000E+00 0.  1.
        -13    1    4    4    0    0  0.30379394659E+02 -0.17601629430E+02 -0.30127159257E+02  0.46264140577E+02  0.00000000000E+00 0.  1.
         13    1    4    4    0    0 -0.54419570510E+02  0.20863413188E+02 -0.29314556874E+02  0.65238906407E+02  0.00000000000E+00 0. -1.
         21    1    1    2  502  501  0.21985824909E+02 -0.23768415894E+02  0.71776092870E+02  0.78740850889E+02  0.00000000000E+00 0. -1.
<scales pt_clust_5="13000.00000" pt_clust_6="13000.00000" pt_clust_7="13000.00000" pt_clust_8="13000.00000" pt_clust_9="32.37768"></scales>
<clustering>
<clus scale="   32.378">  1  9  2 -1</clus>
<clus scale="   91.165">  7  8 -1 -1</clus>
<clus scale="   92.462">  1  7  2 -1</clus>
<clus scale="   92.758">  5  6 -1 -1</clus>
<clus scale="   32.378">  1  5  2 -1</clus>
</clustering>
</event>
<event>
 9    1  0.1234700E-005  0.1391384E+03  0.7546771E-02  0.1233785E+00
         -1   -1    0    0    0  501 -0.00000000000E+00  0.00000000000E+00  0.74251786557E+02  0.74251786557E+02  0.00000000000E+00 0.  1.
          1   -1    0    0  502    0  0.00000000000E+00 -0.00000000000E+00 -0.43080384006E+03  0.43080384006E+03  0.00000000000E+00 0. -1.
         23    2    1    2    0    0 -0.79563796697E+02  0.68939185113E+02 -0.72592991493E+02  0.15596527741E+03  0.89288388689E+02 0.  0.
         23    2    1    2    0    0  0.11300645711E+02  0.17222523418E+02 -0.13493322116E+03  0.16390827923E+03  0.90744861680E+02 0.  0.
        -11    1    4    4    0    0  0.23195795921E+02  0.37399048312E+02 -0.13335986033E+03  0.14043356476E+03  0.00000000000E+00 0.  1.
         11    1    4    4    0    0 -0.11895150211E+02 -0.20176524894E+02 -0.15733608307E+01  0.23474714474E+02  0.00000000000E+00 0. -1.
        -13    1    3    3    0    0  0.18609008192E+02  0.23172153735E+02 -0.16187882481E+02  0.33842154686E+02  0.00000000000E+00 0. -1.
         13    1    3    3    0    0 -0.98172804890E+02  0.45767031378E+02 -0.56405109012E+02  0.12212312272E+03  0.00000000000E+00 0.  1.
         21    1    1    2  502  501  0.68263150986E+02 -0.86161708531E+02 -0.14902584084E+03  0.18518206997E+03  0.00000000000E+00 0. -1.
<scales pt_clust_5="13000.00000" pt_clust_6="13000.00000" pt_clust_7="13000.00000" pt_clust_8="13000.00000" pt_clust_9="106.71027"></scales>
<clustering>
<clus scale="   89.288">  7  8 -1 -1</clus>
<clus scale="   90.745">  5  6 -1 -1</clus>
<clus scale="   93.053">  2  5  1 -1</clus>
<clus scale="  106.710">  2  9  1 -1</clus>
<clus scale="   93.053">  2  5  1 -1</clus>
</clustering>
</event>
<event>
 9    1  0.1234700E-005  0.1011638E+03  0.7546771E-02  0.1279401E+00
          1   -1    0    0  502    0  0.00000000000E+00  0.00000000000E+00  0.63022382218E+02  0.63022382218E+02  0.00000000000E+00 0. -1.
         -1   -1    0    0    0  501 -0.00000000000E+00 -0.00000000000E+00 -0.28226259074E+03  0.28226259074E+03  0.00000000000E+00 0.  1.
         23    2    1    2    0    0 -0.30188990087E+02  0.23516576447E+02 -0.19942044828E+03  0.22405024057E+03  0.94686802741E+02 0.  0.
         23    2    1    2    0    0  0.91363480800E+01 -0.30551017568E+02 -0.20177860280E+02  0.99035062729E+02  0.91563967114E+02 0.  0.
        -11    1    3    3    0    0 -0.58992168228E+02  0.17765284725E+02 -0.17603865591E+03  0.18650814896E+03  0.00000000000E+00 0. -1.
         11    1    3    3    0    0  0.28803178141E+02  0.57512917228E+01 -0.23381792371E+02  0.37542091603E+02  0.00000000000E+00 0.  1.
        -13    1    4    4    0    0 -0.11016275423E+02  0.26308387279E+02  0.11672753740E+02  0.30817896510E+02  0.00000000000E+00 0. -1.
         13    1    4    4    0    0  0.20152623503E+02 -0.56859404847E+02 -0.31850614020E+02  0.68217166220E+02  0.00000000000E+00 0.  1.
         21    1    1    2  502  501  0.21052642007E+02  0.70344411204E+01  0.35810004592E+00  0.22199669660E+02  0.00000000000E+00 0.  1.
<scales pt_clust_5="13000.00000" pt_clust_6="13000.00000" pt_clust_7="13000.00000" pt_clust_8="13000.00000" pt_clust_9="22.19678"></scales>
<clustering>
<clus scale="   22.197">  1  9  2 -1</clus>
<clus scale="   91.564">  7  8 -1 -1</clus>
<clus scale="   94.687">  5  6 -1 -1</clus>
<clus scale="   98.247">  1  7  2 -1</clus>
<clus scale="   22.197">  1  5  2 -1</clus>
</clustering>
</event>
<event>
 9    1  0.1234700E-005  0.1107708E+03  0.7546771E-02  0.1259434E+00
         -1   -1    0    0    0  501 -0.00000000000E+00  0.00000000000E+00  0.35476694684E+02  0.35476694684E+02  0.00000000000E+00 0.  1.
          1   -1    0    0  502    0  0.00000000000E+00 -0.00000000000E+00 -0.84040710225E+03  0.84040710225E+03  0.00000000000E+00 0. -1.
         23    2    1    2    0    0  0.23488354265E+02 -0.33550407878E+02 -0.19132658603E+03  0.21540771643E+03  0.90095999469E+02 0.  0.
         23    2    1    2    0    0  0.12127608749E+02  0.93187660902E+02 -0.18640269582E+03  0.22766445800E+03  0.90852195272E+02 0.  0.
        -13    1    4    4    0    0 -0.31103333840E+02  0.87037792661E+01 -0.72761465969E+02  0.79607814185E+02  0.00000000000E+00 0.  1.
         13    1    4    4    0    0  0.43230942589E+02  0.84483881636E+02 -0.11364122986E+03  0.14805664381E+03  0.00000000000E+00 0. -1.
        -13    1    3    3    0    0  0.38879815683E+02 -0.12497818634E+02 -0.18377421852E+03  0.18825726794E+03  0.00000000000E+00 0. -1.
         13    1    3    3    0    0 -0.15391461418E+02 -0.21052589244E+02 -0.75523675125E+01  0.27150448495E+02  0.00000000000E+00 0.  1.
         21    1    1    2  502  501 -0.35615963015E+02 -0.59637253024E+02 -0.42720112571E+03  0.43281162251E+03  0.00000000000E+00 0. -1.
<scales pt_clust_5="13000.00000" pt_clust_6="13000.00000" pt_clust_7="13000.00000" pt_clust_8="13000.00000" pt_clust_9="69.46293"></scales>
<clustering>
<clus scale="   69.463">  2  9  1 -1</clus>
<clus scale="   90.096">  7  8 -1 -1</clus>
<clus scale="   90.852">  5  6 -1 -1</clus>
<clus scale="  110.151">  1  7  2 -1</clus>
<clus scale="   69.463">  2  5  1 -1</clus>
</clustering>
</event>
<event>
 9    1  0.1234700E-005  0.1183915E+03  0.7546771E-02  0.1257843E+00
          3   -1    0    0  502    0  0.00000000000E+00  0.00000000000E+00  0.37765511888E+03  0.37765511888E+03  0.00000000000E+00 0. -1.
         -3   -1    0    0    0  501 -0.00000000000E+00 -0.00000000000E+00 -0.43859930499E+02  0.43859930499E+02  0.00000000000E+00 0.  1.
         23    2    1    2    0    0 -0.25865067227E+02 -0.13354538591E+02  0.91792049044E+02  0.15119082372E+03  0.11655702254E+03 0.  0.
         23    2    1    2    0    0  0.27180910409E+01  0.12837588356E+02  0.15311622688E+03  0.17847144699E+03  0.90748480773E+02 0.  0.
        -13    1    4    4    0    0  0.46073286410E+02  0.10516348981E+02  0.66488854174E+02  0.81572722438E+02  0.00000000000E+00 0. -1.
         13    1    4    4    0    0 -0.43355195369E+02  0.23212393747E+01  0.86627372705E+02  0.96898724550E+02  0.00000000000E+00 0.  1.
        -13    1    3    3    0    0 -0.54263079547E+02 -0.35551957484E+02  0.15330009144E+02  0.66659077875E+02  0.00000000000E+00 0.  1.
         13    1    3    3    0    0  0.28398012320E+02  0.22197418893E+02  0.76462039900E+02  0.84531745840E+02  0.00000000000E+00 0. -1.
         21    1    1    2  502  501  0.23146976186E+02  0.51695023478E+00  0.88886912458E+02  0.91852778675E+02  0.00000000000E+00 0. -1.
<scales pt_clust_5="13000.00000" pt_clust_6="13000.00000" pt_clust_7="13000.00000" pt_clust_8="13000.00000" pt_clust_9="23.15275"></scales>
<clustering>
<clus scale="   23.153">  1  9  2 -1</clus>
<clus scale="   90.748">  5  6 -1 -1</clus>
<clus scale="   93.093">  1  5  2 -1</clus>
<clus scale="  116.557">  7  8 -1 -1</clus>
<clus scale="   23.153">  1  5  2 -1</clus>
</clustering>
</event>
<event>
 9    1  0.1234700E-005  0.9957621E+02  0.7546771E-02  0.1283271E+00
         -1   -1    0    0    0  501 -0.00000000000E+00  0.00000000000E+00  0.37530930300E+03  0.37530930300E+03  0.00000000000E+00 0.  1.
          1   -1    0    0  502    0  0.00000000000E+00 -0.00000000000E+00 -0.73743941194E+02  0.73743941194E+02  0.00000000000E+00 0. -1.
         23    2    1    2    0    0  0.13686255804E+02  0.30519776056E+02  0.29895624196E+03  0.31470235975E+03  0.92433599384E+02 0.  0.
         23    2    1    2    0    0 -0.22910421935E+02 -0.52919487728E+02  0.16044409823E+02  0.10664999383E+03  0.88269125313E+02 0.  0.
        -11    1    4    4    0    0 -0.53360271612E+02 -0.51939363535E+02  0.66131236323E+01  0.74757939211E+02  0.00000000000E+00 0.  1.
         11    1    4    4    0    0  0.30449849678E+02 -0.98012419277E+00  0.94312861906E+01  0.31892054622E+02  0.00000000000E+00 0. -1.
        -13    1    3    3    0    0 -0.31436150404E+02 -0.70120089811E+00  0.45072459612E+02  0.54956799856E+02  0.00000000000E+00 0. -1.
         13    1    3    3    0    0  0.45122406208E+02  0.31220976954E+02  0.25388378235E+03  0.25974555989E+03  0.00000000000E+00 0.  1.
         21    1    1    2  502  501  0.92241661305E+01  0.22399711671E+02 -0.13435289980E+02  0.27700890610E+02  0.00000000000E+00 0.  1.
<scales pt_clust_5="13000.00000" pt_clust_6="13000.00000" pt_clust_7="13000.00000" pt_clust_8="13000.00000" pt_clust_9="24.22462"></scales>
<clustering>
<clus scale="   24.225">  2  9  1 -1</clus>
<clus scale="   88.269">  5  6 -1 -1</clus>
<clus scale="   92.434">  7  8 -1 -1</clus>
<clus scale="   95.723">  2  5  1 -1</clus>
<clus scale="   24.225">  2  5  1 -1</clus>
</clustering>
</event>
<event>
 9    1  0.1234700E-005  0.1241869E+03  0.7546771E-02  0.1249051E+00
         -1   -1    0    0    0  501 -0.00000000000E+00  0.00000000000E+00  0.19486551331E+03  0.19486551331E+03  0.00000000000E+00 0.  1.
          1   -1    0    0  502    0  0.00000000000E+00 -0.00000000000E+00 -0.29838873709E+03  0.29838873709E+03  0.00000000000E+00 0. -1.
         23    2    1    2    0    0 -0.23410170190E+02  0.13780630485E+02  0.13559101183E+03  0.18486943305E+03  0.12269410314E+03 0.  0.
         23    2    1    2    0    0 -0.99260578536E+01 -0.91085325825E+01 -0.34684661574E+02  0.10120232934E+03  0.94113727615E+02 0.  0.
        -11    1    3    3    0    0 -0.58707802554E+02  0.24504673050E+02  0.13354324807E+03  0.14792188542E+03  0.00000000000E+00 0.  1.
         11    1    3    3    0    0  0.35297632364E+02 -0.10724042565E+02  0.20477637565E+01  0.36947547630E+02  0.00000000000E+00 0. -1.
        -11    1    4    4    0    0 -0.16748455270E+02 -0.36324049113E+02 -0.53954878521E+02  0.67164545812E+02  0.00000000000E+00 0.  1.
         11    1    4    4    0    0  0.68223974168E+01  0.27215516530E+02  0.19270216947E+02  0.34037783531E+02  0.00000000000E+00 0. -1.
         21    1    1    2  502  501  0.33336228043E+02 -0.46720979022E+01 -0.20442957403E+03  0.20718248801E+03  0.00000000000E+00 0. -1.
<scales pt_clust_5="13000.00000" pt_clust_6="13000.00000" pt_clust_7="13000.00000" pt_clust_8="13000.00000" pt_clust_9="33.66203"></scales>
<clustering>
<clus scale="   33.662">  2  9  1 -1</clus>
<clus scale="   94.114">  7  8 -1 -1</clus>
<clus scale="   96.052">  2  7  1 -1</clus>
<clus scale="  122.694">  5  6 -1 -1</clus>
<clus scale="   33.662">  2  5  1 -1</clus>
</clustering>
</event>
<event>
 9    1  0.1234700E-005  0.1020530E+03  0.7546771E-02  0.1276618E+00
         -1   -1    0    0    0  501 -0.00000000000E+00  0.00000000000E+00  0.28452792141E+02  0.28452792141E+02  0.00000000000E+00 0.  1.
          1   -1    0    0  502    0  0.00000000000E+00 -0.00000000000E+00 -0.51196192205E+03  0.51196192205E+03  0.00000000000E+00 0. -1.
         23    2    1    2    0    0  0.28555916544E+02  0.44665243852E+02 -0.13856243388E+03  0.17361722362E+03  0.90182968882E+02 0.  0.
         23    2    1    2    0    0 -0.52235778013E+01 -0.32227957921E+02 -0.28993466630E+03  0.30576137399E+03  0.91443862917E+02 0.  0.
        -11    1    3    3    0    0 -0.30558145419E+02  0.18940022072E+02 -0.74552125308E+02  0.82768013601E+02  0.00000000000E+00 0.  1.
         11    1    3    3    0    0  0.59114061963E+02  0.25725221779E+02 -0.64010308569E+02  0.90849210016E+02  0.00000000000E+00 0. -1.
        -11    1    4    4    0    0 -0.44366951458E+02 -0.13862932482E+02 -0.91022874994E+02  0.10220455494E+03  0.00000000000E+00 0.  1.
         11    1    4    4    0    0  0.39143373657E+02 -0.18365025438E+02 -0.19891179131E+03  0.20355681905E+03  0.00000000000E+00 0. -1.
         21    1    1    2  502  501 -0.23332338742E+02 -0.12437285931E+02 -0.55012029730E+02  0.61036116583E+02  0.00000000000E+00 0.  1.
<scales pt_clust_5="13000.00000" pt_clust_6="13000.00000" pt_clust_7="13000.00000" pt_clust_8="13000.00000" pt_clust_9="26.44020"></scales>
<clustering>
<clus scale="   26.440">  2  9  1 -1</clus>
<clus scale="   90.183">  5  6 -1 -1</clus>
<clus scale="   91.444">  7  8 -1 -1</clus>
<clus scale="  100.925">  1  5  2 -1</clus>
<clus scale="   26.440">  2  5  1 -1</clus>
</clustering>
</event>
<event>
 9    1  0.1234700E-005  0.1496608E+03  0.7546771E-02  0.1201547E+00
         -1   -1    0    0    0  501 -0.00000000000E+00  0.00000000000E+00  0.82585730620E+03  0.82585730620E+03  0.00000000000E+00 0.  1.
          1   -1    0    0  502    0  0.00000000000E+00 -0.00000000000E+00 -0.38117761853E+02  0.38117761853E+02  0.00000000000E+00 0. -1.
         23    2    1    2    0    0  0.51690238427E+02  0.93439137927E+02  0.47055956542E+03  0.49172005234E+03  0.94654910133E+02 0.  0.
         23    2    1    2    0    0 -0.51879614931E+02 -0.11354073369E+03  0.31413125355E+03  0.35192265869E+03  0.97918949082E+02 0.  0.
        -11    1    3    3    0    0  0.77957092437E+02  0.52622902906E+02  0.30142056985E+03  0.31575439522E+03  0.00000000000E+00 0.  1.
         11    1    3    3    0    0 -0.26266854010E+02  0.40816235021E+02  0.16913899557E+03  0.17596565712E+03  0.00000000000E+00 0. -1.
        -13    1    4    4    0    0  0.21744758249E+02 -0.36396245094E+02  0.15249023312E+03  0.15827442107E+03  0.00000000000E+00 0. -1.
         13    1    4    4    0    0 -0.73624373179E+02 -0.77144488601E+02  0.16164102043E+03  0.19364823762E+03  0.00000000000E+00 0.  1.
         21    1    1    2  502  501  0.18937650430E+00  0.20101595768E+02  0.30487253748E+01  0.20332357027E+02  0.00000000000E+00 0. -1.
<scales pt_clust_5="13000.00000" pt_clust_6="13000.00000" pt_clust_7="13000.00000" pt_clust_8="13000.00000" pt_clust_9="20.10249"></scales>
<clustering>
<clus scale="   20.102">  2  9  1 -1</clus>
<clus scale="   94.655">  5  6 -1 -1</clus>
<clus scale="   97.919">  7  8 -1 -1</clus>
<clus scale="  147.546">  1  5  2 -1</clus>
<clus scale="   20.102">  2  5  1 -1</clus>
</clustering>
</event>
<event>
 9    1  0.1234700E-005  0.1015485E+03  0.7546771E-02  0.1277279E+00
          1   -1    0    0  502    0  0.00000000000E+00  0.00000000000E+00  0.64597509785E+02  0.64597509785E+02  0.00000000000E+00 0. -1.
         -1   -1    0    0    0  501 -0.00000000000E+00 -0.00000000000E+00 -0.21174182889E+03  0.21174182889E+03  0.00000000000E+00 0.  1.
         23    2    1    2    0    0 -0.43598812908E+02  0.20468061532E+01 -0.83803925027E+02  0.13127517616E+03  0.91131927031E+02 0.  0.
         23    2    1    2    0    0  0.40203068222E+02 -0.25178705362E+02 -0.64526264722E+02  0.12165428998E+03  0.91574415276E+02 0.  0.
        -11    1    3    3    0    0 -0.63468150476E+02 -0.16208275823E+02 -0.80963125130E+02  0.10414385225E+03  0.00000000000E+00 0.  1.
         11    1    3    3    0    0  0.19869337569E+02  0.18255081976E+02 -0.28407998963E+01  0.27131323916E+02  0.00000000000E+00 0. -1.
        -11    1    4    4    0    0 -0.23002584293E+02 -0.17732244609E+02 -0.47663503325E+02  0.55815418409E+02  0.00000000000E+00 0.  1.
         11    1    4    4    0    0  0.63205652515E+02 -0.74464607523E+01 -0.16862761397E+02  0.65838871570E+02  0.00000000000E+00 0. -1.
         21    1    1    2  502  501  0.33957446859E+01  0.23131899208E+02  0.11858706411E+01  0.23409872536E+02  0.00000000000E+00 0. -1.
<scales pt_clust_5="13000.00000" pt_clust_6="13000.00000" pt_clust_7="13000.00000" pt_clust_8="13000.00000" pt_clust_9="23.37982"></scales>
<clustering>
<clus scale="   23.380">  1  9  2 -1</clus>
<clus scale="   91.132">  5  6 -1 -1</clus>
<clus scale="   91.574">  7  8 -1 -1</clus>
<clus scale="  101.150">  2  5  1 -1</clus>
<clus scale="   23.380">  1  5  2 -1</clus>
</clustering>
</event>
<event>
 9    1  0.1234700E-005  0.9493609E+02  0.7546771E-02  0.1292006E+00
          1   -1    0    0  502    0  0.00000000000E+00  0.00000000000E+00  0.54838346533E+03  0.54838346533E+03  0.00000000000E+00 0. -1.
         -1   -1    0    0    0  501 -0.00000000000E+00 -0.00000000000E+00 -0.60310072124E+02  0.60310072124E+02  0.00000000000E+00 0.  1.
         23    2    1    2    0    0 -0.81170934898E+01 -0.22071646968E+02  0.25040059849E+02  0.10042133661E+03  0.94363104241E+02 0.  0.
         23    2    1    2    0    0 -0.57183172289E+02 -0.45164398843E+02  0.26413616155E+03  0.28839747397E+03  0.89974735548E+02 0.  0.
        -11    1    4    4    0    0  0.26393692283E+01  0.23589709491E+02  0.70439710909E+02  0.74331645595E+02  0.00000000000E+00 0. -1.
         11    1    4    4    0    0 -0.59822541517E+02 -0.68754108334E+02  0.19369645064E+03  0.21406582837E+03  0.00000000000E+00 0.  1.
        -13    1    3    3    0    0  0.39442816128E+02  0.75499395165E+01  0.32039887188E+01  0.40286509833E+02  0.00000000000E+00 0. -1.
         13    1    3    3    0    0 -0.47559909618E+02 -0.29621586485E+02  0.21836071130E+02  0.60134826774E+02  0.00000000000E+00 0.  1.
         21    1    1    2  502  501  0.65300265779E+02  0.67236045811E+02  0.19889717181E+03  0.21987472688E+03  0.00000000000E+00 0. -1.
<scales pt_clust_5="13000.00000" pt_clust_6="13000.00000" pt_clust_7="13000.00000" pt_clust_8="13000.00000" pt_clust_9="93.72732"></scales>
<clustering>
<clus scale="   89.975">  5  6 -1 -1</clus>
<clus scale="   93.727">  1  9  2 -1</clus>
<clus scale="   93.727">  1  5  2 -1</clus>
<clus scale="   94.363">  7  8 -1 -1</clus>
<clus scale="   93.727">  1  5  2 -1</clus>
</clustering>
</event>
<event>
 9    1  0.1234700E-005  0.1175134E+03  0.7546771E-02  0.1256216E+00
         -2   -1    0    0    0  501 -0.00000000000E+00  0.00000000000E+00  0.62559620585E+02  0.62559620585E+02  0.00000000000E+00 0.  1.
          2   -1    0    0  502    0  0.00000000000E+00 -0.00000000000E+00 -0.27794263967E+03  0.27794263967E+03  0.00000000000E+00 0. -1.
         23    2    1    2    0    0  0.21414345865E+02  0.17818706475E+02 -0.43391326840E+02  0.12303187140E+03  0.11170476099E+03 0.  0.
         23    2    1    2    0    0 -0.34544933094E+02 -0.36518801753E+02 -0.11057389334E+03  0.15193984706E+03  0.91280643916E+02 0.  0.
        -11    1    4    4    0    0 -0.29623560280E+02  0.27007483038E+02 -0.36292777948E+02  0.54075180951E+02  0.00000000000E+00 0. -1.
         11    1    4    4    0    0 -0.49213728143E+01 -0.63526284791E+02 -0.74281115390E+02  0.97864666113E+02  0.00000000000E+00 0.  1.
        -13    1    3    3    0    0 -0.34365576825E+02 -0.26659364642E+02 -0.12225439033E+02  0.45179375307E+02  0.00000000000E+00 0.  1.
         13    1    3    3    0    0  0.55779922690E+02  0.44478071117E+02 -0.31165887807E+02  0.77852496096E+02  0.00000000000E+00 0. -1.
         21    1    1    2  502  501  0.13130587229E+02  0.18700095278E+02 -0.61417798907E+02  0.65530541787E+02  0.00000000000E+00 0.  1.
<scales pt_clust_5="13000.00000" pt_clust_6="13000.00000" pt_clust_7="13000.00000" pt_clust_8="13000.00000" pt_clust_9="22.84964"></scales>
<clustering>
<clus scale="   22.850">  2  9  1 -1</clus>
<clus scale="   91.281">  5  6 -1 -1</clus>
<clus scale="   98.304">  2  5  1 -1</clus>
<clus scale="  111.705">  7  8 -1 -1</clus>
<clus scale="   22.850">  2  5  1 -1</clus>
</clustering>
</event>
<event>
 9    1  0.1234700E-005  0.1046524E+03  0.7546771E-02  0.1273045E+00
         -1   -1    0    0    0  501 -0.00000000000E+00  0.00000000000E+00  0.49324531149E+03  0.49324531149E+03  0.00000000000E+00 0.  1.
          1   -1    0    0  502    0  0.00000000000E+00 -0.00000000000E+00 -0.66231356115E+02  0.66231356115E+02  0.00000000000E+00 0. -1.
         23    2    1    2    0    0 -0.38537984135E+02 -0.32527668557E+02  0.40659372181E+03  0.41912878133E+03  0.88358674058E+02 0.  0.
         23    2    1    2    0    0  0.86135196713E+01  0.35014252032E+02  0.36216583147E+02  0.10641882305E+03  0.93344171955E+02 0.  0.
        -11    1    4    4    0    0 -0.15957521692E+02  0.57651551449E+02  0.41207380019E+02  0.72638777875E+02  0.00000000000E+00 0.  1.
         11    1    4    4    0    0  0.24571041363E+02 -0.22637299418E+02 -0.49907968729E+01  0.33780045175E+02  0.00000000000E+00 0. -1.
        -11    1    3    3    0    0  0.17348410275E+02 -0.31094373733E+02  0.77084994317E+02  0.84911269958E+02  0.00000000000E+00 0. -1.
         11    1    3    3    0    0 -0.55886394410E+02 -0.14332948232E+01  0.32950872749E+03  0.33421751137E+03  0.00000000000E+00 0.  1.
         21    1    1    2  502  501  0.29924464464E+02 -0.24865834752E+01 -0.15796349585E+02  0.33929063221E+02  0.00000000000E+00 0. -1.
<scales pt_clust_5="13000.00000" pt_clust_6="13000.00000" pt_clust_7="13000.00000" pt_clust_8="13000.00000" pt_clust_9="30.02760"></scales>
<clustering>
<clus scale="   30.028">  2  9  1 -1</clus>
<clus scale="   88.359">  7  8 -1 -1</clus>
<clus scale="   93.344">  5  6 -1 -1</clus>
<clus scale="  100.231">  1  7  2 -1</clus>
<clus scale="   30.028">  2  5  1 -1</clus>
</clustering>
</event>
<event>
 9    1  0.1234700E-005  0.1070685E+03  0.7546771E-02  0.1266383E+00
         -2   -1    0    0    0  501 -0.00000000000E+00  0.00000000000E+00  0.28085874164E+02  0.28085874164E+02  0.00000000000E+00 0.  1.
          2   -1    0    0  502    0  0.00000000000E+00 -0.00000000000E+00 -0.92610927636E+03  0.92610927636E+03  0.00000000000E+00 0. -1.
         23    2    1    2    0    0  0.62908185480E+01  0.55698864515E+02 -0.12169229314E+03  0.16191889824E+03  0.90921820764E+02 0.  0.
         23    2    1    2    0    0 -0.46567930706E+02 -0.51236308232E+02 -0.64091659277E+03  0.65092827248E+03  0.90220871085E+02 0.  0.
        -11    1    4    4    0    0  0.27006806940E+02 -0.16772851177E+02 -0.14975968782E+03  0.15309689825E+03  0.00000000000E+00 0.  1.
         11    1    4    4    0    0 -0.73574737646E+02 -0.34463457054E+02 -0.49115690495E+03  0.49783137424E+03  0.00000000000E+00 0. -1.
        -13    1    3    3    0    0 -0.33166257038E+02  0.29217258986E+02 -0.17753348699E+02  0.47632239278E+02  0.00000000000E+00 0.  1.
         13    1    3    3    0    0  0.39457075586E+02  0.26481605529E+02 -0.10393894444E+03  0.11428665896E+03  0.00000000000E+00 0. -1.
         21    1    1    2  502  501  0.40277112158E+02 -0.44625562839E+01 -0.13541451629E+03  0.14134797980E+03  0.00000000000E+00 0. -1.
<scales pt_clust_5="13000.00000" pt_clust_6="13000.00000" pt_clust_7="13000.00000" pt_clust_8="13000.00000" pt_clust_9="40.52358"></scales>
<clustering>
<clus scale="   40.524">  2  9  1 -1</clus>
<clus scale="   90.221">  5  6 -1 -1</clus>
<clus scale="   90.922">  7  8 -1 -1</clus>
<clus scale="  106.474">  2  5  1 -1</clus>
<clus scale="   40.524">  2  5  1 -1</clus>
</clustering>
</event>
<event>
 9    1  0.1234700E-005  0.1043143E+03  0.7546771E-02  0.1272701E+00
          3   -1    0    0  502    0  0.00000000000E+00  0.00000000000E+00  0.28587098117E+03  0.28587098117E+03  0.00000000000E+00 0. -1.
         -3   -1    0    0    0  501 -0.00000000000E+00 -0.00000000000E+00 -0.10522093181E+03  0.10522093181E+03  0.00000000000E+00 0.  1.
         23    2    1    2    0    0 -0.33741852161E+02  0.29561241502E+02 -0.58939736552E+02  0.12047207034E+03  0.95011828738E+02 0.  0.
         23    2    1    2    0    0  0.31466706932E+02 -0.82977968089E+01  0.22303437027E+03  0.24357557979E+03  0.92334856228E+02 0.  0.
        -13    1    4    4    0    0 -0.92358968860E+01  0.36338259864E+02  0.85765550614E+02  0.93602887740E+02  0.00000000000E+00 0.  1.
         13    1    4    4    0    0  0.40702603818E+02 -0.44636056673E+02  0.13726881965E+03  0.14997269205E+03  0.00000000000E+00 0. -1.
        -13    1    3    3    0    0 -0.66586977230E+02  0.11575097842E+02 -0.36394558518E+02  0.76761789429E+02  0.00000000000E+00 0.  1.
         13    1    3    3    0    0  0.32845125068E+02  0.17986143660E+02 -0.22545178035E+02  0.43710280909E+02  0.00000000000E+00 0. -1.
         21    1    1    2  502  501  0.22751452293E+01 -0.21263444693E+02  0.16555415638E+02  0.27044262848E+02  0.00000000000E+00 0. -1.
<scales pt_clust_5="13000.00000" pt_clust_6="13000.00000" pt_clust_7="13000.00000" pt_clust_8="13000.00000" pt_clust_9="21.38482"></scales>
<clustering>
<clus scale="   21.385">  1  9  2 -1</clus>
<clus scale="   92.335">  5  6 -1 -1</clus>
<clus scale="   95.012">  7  8 -1 -1</clus>
<clus scale="  101.882">  1  5  2 -1</clus>
<clus scale="   21.385">  1  5  2 -1</clus>
</clustering>
</event>
<event>
 9    1  0.1234700E-005  0.9585602E+02  0.7546771E-02  0.1293047E+00
          1   -1    0    0  502    0  0.00000000000E+00  0.00000000000E+00  0.11125707405E+03  0.11125707405E+03  0.00000000000E+00 0. -1.
         -1   -1    0    0    0  501 -0.00000000000E+00 -0.00000000000E+00 -0.16207183145E+03  0.16207183145E+03  0.00000000000E+00 0.  1.
         23    2    1    2    0    0 -0.25996338832E+02 -0.16918387248E+00 -0.42975630145E+02  0.10015478730E+03  0.86650091610E+02 0.  0.
         23    2    1    2    0    0 -0.31709384500E+02  0.32351459728E+02  0.11236685948E+02  0.10440249590E+03  0.93389057324E+02 0.  0.
        -11    1    3    3    0    0  0.11009976000E+02  0.29439172622E+02  0.60047493837E+01  0.31999085476E+02  0.00000000000E+00 0. -1.
         11    1    3    3    0    0 -0.37006314832E+02 -0.29608356494E+02 -0.48980379529E+02  0.68155701819E+02  0.00000000000E+00 0.  1.
        -13    1    4    4    0    0  0.20472072362E+02 -0.87949313620E+01 -0.20933748321E+02  0.30572510254E+02  0.00000000000E+00 0. -1.
         13    1    4    4    0    0 -0.52181456862E+02  0.41146391090E+02  0.32170434269E+02  0.73829985650E+02  0.00000000000E+00 0.  1.
         21    1    1    2  502  501  0.57705723332E+02 -0.32182275856E+02 -0.19075813201E+02  0.68771622300E+02  0.00000000000E+00 0. -1.
<scales pt_clust_5="13000.00000" pt_clust_6="13000.00000" pt_clust_7="13000.00000" pt_clust_8="13000.00000" pt_clust_9="66.07306"></scales>
<clustering>
<clus scale="   66.073">  2  9  1 -1</clus>
<clus scale="   86.650">  5  6 -1 -1</clus>
<clus scale="   89.303">  2  5  1 -1</clus>
<clus scale="   93.389">  7  8 -1 -1</clus>
<clus scale="   95.856">  1  5  2 -1</clus>
</clustering>
</event>
<event>
 9    1  0.1234700E-005  0.1111950E+03  0.7546771E-02  0.1258551E+00
          1   -1    0    0  502    0  0.00000000000E+00  0.00000000000E+00  0.22142087698E+03  0.22142087698E+03  0.00000000000E+00 0. -1.
         -1   -1    0    0    0  501 -0.00000000000E+00 -0.00000000000E+00 -0.97527982875E+02  0.97527982875E+02  0.00000000000E+00 0.  1.
         23    2    1    2    0    0  0.23474013533E+02 -0.32886549223E+02 -0.29660053244E+02  0.10500582652E+03  0.92271070298E+02 0.  0.
         23    2    1    2    0    0 -0.41840086489E+02  0.54196509404E+02  0.14452483865E+03  0.18439758046E+03  0.91799696217E+02 0.  0.
        -11    1    3    3    0    0  0.20021152756E+02 -0.63794314422E+02 -0.31376872113E+02  0.73858440369E+02  0.00000000000E+00 0.  1.
         11    1    3    3    0    0  0.34528607772E+01  0.30907765198E+02  0.17168188691E+01  0.31147386152E+02  0.00000000000E+00 0. -1.
        -11    1    4    4    0    0 -0.62681815472E+02  0.94662364221E+01  0.64913037146E+02  0.90732144328E+02  0.00000000000E+00 0.  1.
         11    1    4    4    0    0  0.20841728983E+02  0.44730272982E+02  0.79611801501E+02  0.93665436134E+02  0.00000000000E+00 0. -1.
         21    1    1    2  502  501  0.18366072956E+02 -0.21309960181E+02  0.90281087053E+01  0.29545452874E+02  0.00000000000E+00 0. -1.
<scales pt_clust_5="13000.00000" pt_clust_6="13000.00000" pt_clust_7="13000.00000" pt_clust_8="13000.00000" pt_clust_9="28.13231"></scales>
<clustering>
<clus scale="   28.132">  2  9  1 -1</clus>
<clus scale="   91.800">  7  8 -1 -1</clus>
<clus scale="   92.271">  5  6 -1 -1</clus>
<clus scale="  110.804">  1  7  2 -1</clus>
<clus scale="  110.804">  1  5  2 -1</clus>
</clustering>
</event>
<event>
 9    1  0.1234700E-005  0.1330408E+03  0.7546771E-02  0.1231732E+00
         -1   -1    0    0    0  501 -0.00000000000E+00  0.00000000000E+00  0.70848971029E+02  0.70848971029E+02  0.00000000000E+00 0.  1.
          1   -1    0    0  502    0  0.00000000000E+00 -0.00000000000E+00 -0.34484339782E+03  0.34484339782E+03  0.00000000000E+00 0. -1.
         23    2    1    2    0    0 -0.41362795544E+02 -0.39849991239E+02 -0.29525900684E+02  0.13415379915E+03  0.11758639529E+03 0.  0.
         23    2    1    2    0    0  0.61301093358E+02  0.44381187942E+02 -0.20467055458E+03  0.23679545849E+03  0.91948569096E+02 0.  0.
        -11    1    3    3    0    0 -0.42778417778E+02 -0.46043147084E+01  0.38365004470E+02  0.57646043312E+02  0.00000000000E+00 0.  1.
         11    1    3    3    0    0  0.14156222341E+01 -0.35245676530E+02 -0.67890905154E+02  0.76507755836E+02  0.00000000000E+00 0. -1.
        -13    1    4    4    0    0 -0.13450976716E+02  0.27770736863E+02 -0.19721645732E+02  0.36620839844E+02  0.00000000000E+00 0.  1.
         13    1    4    4    0    0  0.74752070074E+02  0.16610451080E+02 -0.18494890885E+03  0.20017461864E+03  0.00000000000E+00 0. -1.
         21    1    1    2  502  501 -0.19938297814E+02 -0.45311967037E+01 -0.39797971524E+02  0.44743111210E+02  0.00000000000E+00 0. -1.
<scales pt_clust_5="13000.00000" pt_clust_6="13000.00000" pt_clust_7="13000.00000" pt_clust_8="13000.00000" pt_clust_9="20.44670"></scales>
<clustering>
<clus scale="   20.447">  2  9  1 -1</clus>
<clus scale="   91.949">  7  8 -1 -1</clus>
<clus scale="  111.031">  2  7  1 -1</clus>
<clus scale="  117.586">  5  6 -1 -1</clus>
<clus scale="   20.447">  2  5  1 -1</clus>
</clustering>
</event>
<event>
 9    1  0.1234700E-005  0.2843785E+03  0.7546771E-02  0.1093354E+00
          1   -1    0    0  502    0  0.00000000000E+00  0.00000000000E+00  0.76626516176E+03  0.76626516176E+03  0.00000000000E+00 0. -1.
         -1   -1    0    0    0  501 -0.00000000000E+00 -0.00000000000E+00 -0.29235121401E+03  0.29235121401E+03  0.00000000000E+00 0.  1.
         23    2    1    2    0    0  0.13288710411E+03  0.23104771748E+03 -0.17151827339E+03  0.32955702741E+03  0.90262317836E+02 0.  0.
         23    2    1    2    0    0 -0.15803667384E+03 -0.24436730355E+03  0.54309577733E+03  0.62283948223E+03  0.91022128863E+02 0.  0.
        -13    1    4    4    0    0 -0.52479467524E+02 -0.11813387501E+03  0.15855909936E+03  0.20457442393E+03  0.00000000000E+00 0.  1.
         13    1    4    4    0    0 -0.10555720632E+03 -0.12623342854E+03  0.38453667797E+03  0.41826505830E+03  0.00000000000E+00 0. -1.
        -13    1    3    3    0    0  0.62205227791E+02  0.50336518068E+02 -0.17727575212E+02  0.81960492548E+02  0.00000000000E+00 0. -1.
         13    1    3    3    0    0  0.70681876317E+02  0.18071119941E+03 -0.15379069817E+03  0.24759653486E+03  0.00000000000E+00 0.  1.
         21    1    1    2  502  501  0.25149569737E+02  0.13319586073E+02  0.10233644380E+03  0.10621986613E+03  0.00000000000E+00 0. -1.
<scales pt_clust_5="13000.00000" pt_clust_6="13000.00000" pt_clust_7="13000.00000" pt_clust_8="13000.00000" pt_clust_9="28.45896"></scales>
<clustering>
<clus scale="   28.459">  1  9  2 -1</clus>
<clus scale="   90.262">  7  8 -1 -1</clus>
<clus scale="   91.022">  5  6 -1 -1</clus>
<clus scale="  284.136">  2  7  1 -1</clus>
<clus scale="   28.459">  1  5  2 -1</clus>
</clustering>
</event>
<event>
 9    1  0.1234700E-005  0.3084975E+03  0.7546771E-02  0.1081118E+00
         -1   -1    0    0    0  501 -0.00000000000E+00  0.00000000000E+00  0.49122508993E+03  0.49122508993E+03  0.00000000000E+00 0.  1.
          1   -1    0    0  502    0  0.00000000000E+00 -0.00000000000E+00 -0.52031990477E+03  0.52031990477E+03  0.00000000000E+00 0. -1.
         23    2    1    2    0    0 -0.18507019188E+03 -0.23746168999E+03  0.33863004369E+03  0.46254520863E+03  0.92944786858E+02 0.  0.
         23    2    1    2    0    0  0.17389971333E+03  0.20544900123E+03 -0.13664092437E+03  0.31544170666E+03  0.91555041839E+02 0.  0.
        -11    1    4    4    0    0  0.11812667712E+03  0.16537219447E+03 -0.13983362354E+03  0.24668870429E+03  0.00000000000E+00 0.  1.
         11    1    4    4    0    0  0.55773036204E+02  0.40076806762E+02  0.31926991619E+01  0.68753002375E+02  0.00000000000E+00 0. -1.
        -11    1    3    3    0    0 -0.74667035987E+02 -0.12755845946E+03  0.22707311967E+03  0.27094008290E+03  0.00000000000E+00 0.  1.
         11    1    3    3    0    0 -0.11040315589E+03 -0.10990323053E+03  0.11155692402E+03  0.19160512574E+03  0.00000000000E+00 0. -1.
         21    1    1    2  502  501  0.11170478550E+02  0.32012688758E+02 -0.23108393416E+03  0.23355807941E+03  0.00000000000E+00 0. -1.
<scales pt_clust_5="13000.00000" pt_clust_6="13000.00000" pt_clust_7="13000.00000" pt_clust_8="13000.00000" pt_clust_9="33.90563"></scales>
<clustering>
<clus scale="   33.906">  2  9  1 -1</clus>
<clus scale="   91.555">  5  6 -1 -1</clus>
<clus scale="   92.945">  7  8 -1 -1</clus>
<clus scale="  308.082">  2  5  1 -1</clus>
<clus scale="   33.906">  2  5  1 -1</clus>
</clustering>
</event>
<event>
 9    1  0.1234700E-005  0.9498232E+02  0.7546771E-02  0.1292782E+00
         -2   -1    0    0    0  501 -0.00000000000E+00  0.00000000000E+00  0.17284894105E+03  0.17284894105E+03  0.00000000000E+00 0.  1.
          2   -1    0    0  502    0  0.00000000000E+00 -0.00000000000E+00 -0.89566899773E+02  0.89566899773E+02  0.00000000000E+00 0. -1.
         23    2    1    2    0    0  0.11350596660E+02  0.13963822497E+02  0.98833928444E+02  0.13590905150E+03  0.91538519130E+02 0.  0.
         23    2    1    2    0    0  0.11568384609E+02 -0.11862731315E+01  0.18371090439E+01  0.95027865267E+02  0.94295733950E+02 0.  0.
        -11    1    4    4    0    0 -0.33529820769E+02  0.17605983773E+02  0.20093385282E+02  0.42871478602E+02  0.00000000000E+00 0.  1.
         11    1    4    4    0    0  0.45098205377E+02 -0.18792256905E+02 -0.18256276238E+02  0.52156386665E+02  0.00000000000E+00 0. -1.
        -13    1    3    3    0    0  0.35798811909E+02  0.14579282837E+02  0.10396717511E+03  0.11092016914E+03  0.00000000000E+00 0. -1.
         13    1    3    3    0    0 -0.24448215248E+02 -0.61546033972E+00 -0.51332466642E+01  0.24988882359E+02  0.00000000000E+00 0.  1.
         21    1    1    2  502  501 -0.22918981269E+02 -0.12777549366E+02 -0.17388996215E+02  0.31478924053E+02  0.00000000000E+00 0.  1.
<scales pt_clust_5="13000.00000" pt_clust_6="13000.00000" pt_clust_7="13000.00000" pt_clust_8="13000.00000" pt_clust_9="26.24015"></scales>
<clustering>
<clus scale="   26.240">  2  9  1 -1</clus>
<clus scale="   91.539">  7  8 -1 -1</clus>
<clus scale="   92.246">  1  7  2 -1</clus>
<clus scale="   94.296">  5  6 -1 -1</clus>
<clus scale="   26.240">  2  5  1 -1</clus>
</clustering>
</event>
<event>
 9    1  0.1234700E-005  0.1927518E+03  0.7546771E-02  0.1156027E+00
          2   -1    0    0  502    0  0.00000000000E+00  0.00000000000E+00  0.98227692730E+03  0.98227692730E+03  0.00000000000E+00 0.  1.
         -2   -1    0    0    0  501 -0.00000000000E+00 -0.00000000000E+00 -0.73471810718E+02  0.73471810718E+02  0.00000000000E+00 0. -1.
         23    2    1    2    0    0 -0.60403707577E+02  0.17063838831E+03  0.13201330231E+03  0.24224420854E+03  0.92134017224E+02 0.  0.
         23    2    1    2    0    0 -0.58482455738E+01 -0.14054005932E+03  0.56745921015E+03  0.59188465254E+03  0.92367615991E+02 0.  0.
        -11    1    3    3    0    0  0.10238808785E+02  0.76541763213E+02  0.86835582850E+02  0.11620625271E+03  0.00000000000E+00 0.  1.
         11    1    3    3    0    0 -0.70642516362E+02  0.94096625094E+02  0.45177719457E+02  0.12603795582E+03  0.00000000000E+00 0. -1.
        -11    1    4    4    0    0  0.21612887230E+02  0.74479650491E-01  0.12360019624E+03  0.12547561896E+03  0.00000000000E+00 0. -1.
         11    1    4    4    0    0 -0.27461132803E+02 -0.14061453897E+03  0.44385901391E+03  0.46640903359E+03  0.00000000000E+00 0.  1.
         21    1    1    2  502  501  0.66251953151E+02 -0.30098328988E+02  0.20933260413E+03  0.22161987694E+03  0.00000000000E+00 0.  1.
<scales pt_clust_5="13000.00000" pt_clust_6="13000.00000" pt_clust_7="13000.00000" pt_clust_8="13000.00000" pt_clust_9="72.76834"></scales>
<clustering>
<clus scale="   72.768">  1  9  2 -1</clus>
<clus scale="   92.134">  5  6 -1 -1</clus>
<clus scale="   92.368">  7  8 -1 -1</clus>
<clus scale="  192.640">  2  5  1 -1</clus>
<clus scale="   72.768">  1  5  2 -1</clus>
</clustering>
</event>
<event>
 9    1  0.1234700E-005  0.1389101E+03  0.7546771E-02  0.1216579E+00
         -3   -1    0    0    0  501 -0.00000000000E+00  0.00000000000E+00  0.87379720915E+03  0.87379720915E+03  0.00000000000E+00 0.  1.
          3   -1    0    0  502    0  0.00000000000E+00 -0.00000000000E+00 -0.66906650704E+02  0.66906650704E+02  0.00000000000E+00 0. -1.
         23    2    1    2    0    0 -0.40214970903E+02  0.11239894545E+03  0.75077482987E+03  0.76616978022E+03  0.95407128317E+02 0.  0.
         23    2    1    2    0    0  0.30414709459E+02 -0.94298831694E+02  0.21285165519E+02  0.13407635645E+03  0.87784320227E+02 0.  0.
        -11    1    3    3    0    0 -0.62608383983E+02  0.39660751690E+02  0.44089482639E+03  0.44708056646E+03  0.00000000000E+00 0. -1.
         11    1    3    3    0    0  0.22393413080E+02  0.72738193759E+02  0.30988000348E+03  0.31908921376E+03  0.00000000000E+00 0.  1.
        -13    1    4    4    0    0  0.53484653075E+02 -0.28024580693E+02  0.20911725216E+02  0.63900590679E+02  0.00000000000E+00 0.  1.
         13    1    4    4    0    0 -0.23069943615E+02 -0.66274251000E+02  0.37344030276E+00  0.70175765772E+02  0.00000000000E+00 0. -1.
         21    1    1    2  502  501  0.98002614438E+01 -0.18100113755E+02  0.34830563054E+02  0.40457723181E+02  0.00000000000E+00 0.  1.
<scales pt_clust_5="13000.00000" pt_clust_6="13000.00000" pt_clust_7="13000.00000" pt_clust_8="13000.00000" pt_clust_9="20.58298"></scales>
<clustering>
<clus scale="   20.583">  1  9  2 -1</clus>
<clus scale="   87.784">  7  8 -1 -1</clus>
<clus scale="   95.407">  5  6 -1 -1</clus>
<clus scale="  133.789">  2  7  1 -1</clus>
<clus scale="  133.789">  2  5  1 -1</clus>
</clustering>
</event>
<event>
 9    1  0.1234700E-005  0.1058656E+03  0.7546771E-02  0.1271734E+00
         -1   -1    0    0    0  501 -0.00000000000E+00  0.00000000000E+00  0.93134117046E+02  0.93134117046E+02  0.00000000000E+00 0.  1.
          1   -1    0    0  502    0  0.00000000000E+00 -0.00000000000E+00 -0.21051403926E+03  0.21051403926E+03  0.00000000000E+00 0. -1.
         23    2    1    2    0    0 -0.42688812962E+02  0.16282138094E+02  0.47963451329E+01  0.94268804408E+02  0.82317433056E+02 0.  0.
         23    2    1    2    0    0  0.85130204331E+02  0.12923888245E+01 -0.85646357838E+02  0.15068889282E+03  0.90127808423E+02 0.  0.
        -13    1    4    4    0    0  0.65008676257E+02 -0.24136853584E+02 -0.12209869271E+02  0.70411622601E+02  0.00000000000E+00 0.  1.
         13    1    4    4    0    0  0.20121528074E+02  0.25429242408E+02 -0.73436488566E+02  0.80277270223E+02  0.00000000000E+00 0. -1.
        -13    1    3    3    0    0 -0.29169355975E+02 -0.27430522368E+01  0.41483778926E+02  0.50786608251E+02  0.00000000000E+00 0.  1.
         13    1    3    3    0    0 -0.13519456987E+02  0.19025190331E+02 -0.36687433793E+02  0.43482196158E+02  0.00000000000E+00 0. -1.
         21    1    1    2  502  501 -0.42441391369E+02 -0.17574526919E+02 -0.36529909513E+02  0.58690459078E+02  0.00000000000E+00 0. -1.
<scales pt_clust_5="13000.00000" pt_clust_6="13000.00000" pt_clust_7="13000.00000" pt_clust_8="13000.00000" pt_clust_9="45.93621"></scales>
<clustering>
<clus scale="   45.936">  2  9  1 -1</clus>
<clus scale="   82.317">  7  8 -1 -1</clus>
<clus scale="   90.128">  5  6 -1 -1</clus>
<clus scale="   99.301">  1  7  2 -1</clus>
<clus scale="   45.936">  2  5  1 -1</clus>
</clustering>
</event>
<event>
 9    1  0.1234700E-005  0.1067342E+03  0.7546771E-02  0.1267246E+00
          1   -1    0    0  502    0  0.00000000000E+00  0.00000000000E+00  0.21618577771E+03  0.21618577771E+03  0.00000000000E+00 0. -1.
         -1   -1    0    0    0  501 -0.00000000000E+00 -0.00000000000E+00 -0.13757013022E+03  0.13757013022E+03  0.00000000000E+00 0.  1.
         23    2    1    2    0    0  0.40724954777E+02  0.29943362350E+02 -0.79734864552E+02  0.13234459921E+03  0.92748678824E+02 0.  0.
         23    2    1    2    0    0 -0.29979745726E+02 -0.63247409080E+02  0.96317638422E+02  0.15018844402E+03  0.91544859704E+02 0.  0.
        -11    1    3    3    0    0  0.22682024511E+02 -0.32939141329E+02 -0.26187941918E+02  0.47804493191E+02  0.00000000000E+00 0. -1.
         11    1    3    3    0    0  0.18042930267E+02  0.62882503679E+02 -0.53546922634E+02  0.84540106016E+02  0.00000000000E+00 0.  1.
        -11    1    4    4    0    0 -0.33845833205E+02  0.11180073286E+02  0.53348974788E+02  0.64161106404E+02  0.00000000000E+00 0.  1.
         11    1    4    4    0    0  0.38660874794E+01 -0.74427482365E+02  0.42968663634E+02  0.86027337621E+02  0.00000000000E+00 0. -1.
         21    1    1    2  502  501 -0.10745209051E+02  0.33304046729E+02  0.62032873616E+02  0.71222864694E+02  0.00000000000E+00 0.  1.
<scales pt_clust_5="13000.00000" pt_clust_6="13000.00000" pt_clust_7="13000.00000" pt_clust_8="13000.00000" pt_clust_9="34.99456"></scales>
<clustering>
<clus scale="   34.995">  1  9  2 -1</clus>
<clus scale="   91.545">  7  8 -1 -1</clus>
<clus scale="   92.749">  5  6 -1 -1</clus>
<clus scale="  105.690">  1  7  2 -1</clus>
<clus scale="   34.995">  1  5  2 -1</clus>
</clustering>
</event>
<event>
 9    1  0.1234700E-005  0.1491614E+03  0.7546771E-02  0.1201702E+00
         -2   -1    0    0    0  501 -0.00000000000E+00  0.00000000000E+00  0.31975345513E+02  0.31975345513E+02  0.00000000000E+00 0.  1.
          2   -1    0    0  502    0  0.00000000000E+00 -0.00000000000E+00 -0.91655383241E+03  0.91655383241E+03  0.00000000000E+00 0. -1.
         23    2    1    2    0    0 -0.11997206313E+03  0.20418838923E+02 -0.25878855682E+03  0.30071096631E+03  0.92980337724E+02 0.  0.
         23    2    1    2    0    0  0.10833179143E+03 -0.39968374056E+01 -0.47888706952E+03  0.49954269610E+03  0.91969169477E+02 0.  0.
        -11    1    4    4    0    0  0.58367139903E+02 -0.38686910336E+02 -0.35113349895E+03  0.35804767020E+03  0.00000000000E+00 0. -1.
         11    1    4    4    0    0  0.49964651522E+02  0.34690072931E+02 -0.12775357057E+03  0.14149502590E+03  0.00000000000E+00 0.  1.
        -11    1    3    3    0    0 -0.37317805750E+02 -0.35023226284E+02 -0.63798208512E+02  0.81789097163E+02  0.00000000000E+00 0. -1.
         11    1    3    3    0    0 -0.82654257384E+02  0.55442065207E+02 -0.19499034831E+03  0.21892186915E+03  0.00000000000E+00 0.  1.
         21    1    1    2  502  501  0.11640271708E+02 -0.16422001517E+02 -0.14690286056E+03  0.14827551551E+03  0.00000000000E+00 0. -1.
<scales pt_clust_5="13000.00000" pt_clust_6="13000.00000" pt_clust_7="13000.00000" pt_clust_8="13000.00000" pt_clust_9="20.12904"></scales>
<clustering>
<clus scale="   20.129">  2  9  1 -1</clus>
<clus scale="   91.969">  5  6 -1 -1</clus>
<clus scale="   92.980">  7  8 -1 -1</clus>
<clus scale="  148.533">  2  5  1 -1</clus>
<clus scale="   20.129">  2  5  1 -1</clus>
</clustering>
</event>
<event>
 9    1  0.1264073E-005  0.1303449E+03  0.7546771E-02  0.1227269E+00
         -1   -1    0    0    0  501 -0.00000000000E+00  0.00000000000E+00  0.77014817521E+02  0.77014817521E+02  0.00000000000E+00 0.  1.
          1   -1    0    0  502    0  0.00000000000E+00 -0.00000000000E+00 -0.61162863853E+03  0.61162863853E+03  0.00000000000E+00 0. -1.
         23    2    1    2    0    0 -0.47584802840E+02  0.84462627215E+02  0.15018552225E+01  0.13271264509E+03  0.90620868121E+02 0.  0.
         23    2    1    2    0    0  0.21175947181E+02 -0.72185644857E+02 -0.39848777841E+03  0.41525533260E+03  0.89360470301E+02 0.  0.
        -13    1    4    4    0    0  0.17404838695E+02 -0.92197981970E+02 -0.35572908822E+03  0.36789479542E+03  0.00000000000E+00 0. -1.
         13    1    4    4    0    0  0.37711084867E+01  0.20012337112E+02 -0.42758690183E+02  0.47360537181E+02  0.00000000000E+00 0.  1.
        -13    1    3    3    0    0 -0.31432892774E+02 -0.78733563653E+01 -0.17854058741E+02  0.36997079643E+02  0.00000000000E+00 0. -1.
         13    1    3    3    0    0 -0.16151910066E+02  0.92335983580E+02  0.19355913963E+02  0.95715565442E+02  0.00000000000E+00 0.  1.
         21    1    1    2  502  501  0.26408855658E+02 -0.12276982358E+02 -0.13762789782E+03  0.14067547836E+03  0.00000000000E+00 0. -1.
<scales pt_clust_5="13000.00000" pt_clust_6="13000.00000" pt_clust_7="13000.00000" pt_clust_8="13000.00000" pt_clust_9="29.12305"></scales>
<clustering>
<clus scale="   29.123">  2  9  1 -1</clus>
<clus scale="   89.360">  5  6 -1 -1</clus>
<clus scale="   90.621">  7  8 -1 -1</clus>
<clus scale="  129.472">  2  5  1 -1</clus>
<clus scale="   29.123">  2  5  1 -1</clus>
</clustering>
</event>
<event>
 9    1  0.1234700E-005  0.9985810E+02  0.7546771E-02  0.1282995E+00
         -2   -1    0    0    0  501 -0.00000000000E+00  0.00000000000E+00  0.10517618475E+03  0.10517618475E+03  0.00000000000E+00 0. -1.
          2   -1    0    0  502    0  0.00000000000E+00 -0.00000000000E+00 -0.20750147274E+03  0.20750147274E+03  0.00000000000E+00 0.  1.
         23    2    1    2    0    0 -0.36337935035E+00  0.27467613555E+02  0.47341197036E+02  0.10589536050E+03  0.90653387142E+02 0.  0.
         23    2    1    2    0    0  0.22137539160E+02 -0.35584126826E+02 -0.74308029682E+02  0.12792236664E+03  0.95321287704E+02 0.  0.
        -11    1    3    3    0    0 -0.38934405048E+02 -0.82747278010E+01  0.32130922013E+02  0.51154229210E+02  0.00000000000E+00 0.  1.
         11    1    3    3    0    0  0.38571025698E+02  0.35742341356E+02  0.15210275022E+02  0.54741131293E+02  0.00000000000E+00 0. -1.
        -11    1    4    4    0    0 -0.25049921932E+02 -0.44814174306E+02 -0.57264656318E+02  0.76909360098E+02  0.00000000000E+00 0.  1.
         11    1    4    4    0    0  0.47187461092E+02  0.92300474802E+01 -0.17043373364E+02  0.51013006541E+02  0.00000000000E+00 0. -1.
         21    1    1    2  502  501 -0.21774159810E+02  0.81165132708E+01 -0.75358455345E+02  0.78859930352E+02  0.00000000000E+00 0.  1.
<scales pt_clust_5="13000.00000" pt_clust_6="13000.00000" pt_clust_7="13000.00000" pt_clust_8="13000.00000" pt_clust_9="23.23772"></scales>
<clustering>
<clus scale="   23.238">  2  9  1 -1</clus>
<clus scale="   90.653">  5  6 -1 -1</clus>
<clus scale="   95.321">  7  8 -1 -1</clus>
<clus scale="   95.412">  1  5  2 -1</clus>
<clus scale="   23.238">  2  5  1 -1</clus>
</clustering>
</event>
<event>
 9    1  0.1234700E-005  0.2799726E+03  0.7546771E-02  0.1095802E+00
         -2   -1    0    0    0  501 -0.00000000000E+00  0.00000000000E+00  0.41577486441E+03  0.41577486441E+03  0.00000000000E+00 0.  1.
          2   -1    0    0  502    0  0.00000000000E+00 -0.00000000000E+00 -0.34846458994E+03  0.34846458994E+03  0.00000000000E+00 0. -1.
         23    2    1    2    0    0 -0.19093563580E+03  0.18922231259E+03  0.26618431816E+03  0.38911812227E+03  0.91089632994E+02 0.  0.
         23    2    1    2    0    0  0.20587764941E+03 -0.13888442889E+03 -0.17172822690E+03  0.31601074356E+03  0.93261540908E+02 0.  0.
        -11    1    3    3    0    0  0.20761111235E+01  0.39195503610E+02  0.40756864542E+02  0.56583741021E+02  0.00000000000E+00 0. -1.
         11    1    3    3    0    0 -0.19301174693E+03  0.15002680898E+03  0.22542745362E+03  0.33253438125E+03  0.00000000000E+00 0.  1.
        -13    1    4    4    0    0 -0.23293344115E+01 -0.22246950660E+02 -0.33307923249E+02  0.40121943667E+02  0.00000000000E+00 0.  1.
         13    1    4    4    0    0  0.20820698382E+03 -0.11663747823E+03 -0.13842030365E+03  0.27588879989E+03  0.00000000000E+00 0. -1.
         21    1    1    2  502  501 -0.14942013609E+02 -0.50337883697E+02 -0.27145816794E+02  0.59110588520E+02  0.00000000000E+00 0. -1.
<scales pt_clust_5="13000.00000" pt_clust_6="13000.00000" pt_clust_7="13000.00000" pt_clust_8="13000.00000" pt_clust_9="52.50873"></scales>
<clustering>
<clus scale="   52.509">  2  9  1 -1</clus>
<clus scale="   91.090">  5  6 -1 -1</clus>
<clus scale="   93.262">  7  8 -1 -1</clus>
<clus scale="  279.257">  1  5  2 -1</clus>
<clus scale="   52.509">  2  5  1 -1</clus>
</clustering>
</event>
<event>
 9    1  0.1234700E-005  0.1687891E+03  0.7546771E-02  0.1184798E+00
         -2   -1    0    0    0  501 -0.00000000000E+00  0.00000000000E+00  0.39673087470E+03  0.39673087470E+03  0.00000000000E+00 0.  1.
          2   -1    0    0  502    0  0.00000000000E+00 -0.00000000000E+00 -0.16367271085E+03  0.16367271085E+03  0.00000000000E+00 0. -1.
         23    2    1    2    0    0 -0.11986392736E+03 -0.17869127786E+01  0.24092028192E+03  0.28225617327E+03  0.85178700204E+02 0.  0.
         23    2    1    2    0    0  0.12548794807E+03 -0.81759027433E+02  0.17179716765E+02  0.19074805744E+03  0.11686708293E+03 0.  0.
        -11    1    3    3    0    0 -0.70323354330E+02 -0.39413892130E+02  0.16845402336E+03  0.18675006571E+03  0.00000000000E+00 0.  1.
         11    1    3    3    0    0 -0.49540573027E+02  0.37626979351E+02  0.72466258566E+02  0.95506107561E+02  0.00000000000E+00 0. -1.
        -11    1    4    4    0    0  0.11664012273E+03 -0.14057833840E+02  0.30055297287E+02  0.12126772785E+03  0.00000000000E+00 0. -1.
         11    1    4    4    0    0  0.88478253463E+01 -0.67701193593E+02 -0.12875580522E+02  0.69480329598E+02  0.00000000000E+00 0.  1.
         21    1    1    2  502  501 -0.56240207166E+01  0.83545940211E+02 -0.25041834839E+02  0.87399354843E+02  0.00000000000E+00 0. -1.
<scales pt_clust_5="13000.00000" pt_clust_6="13000.00000" pt_clust_7="13000.00000" pt_clust_8="13000.00000" pt_clust_9="83.73502"></scales>
<clustering>
<clus scale="   83.735">  2  9  1 -1</clus>
<clus scale="   85.179">  5  6 -1 -1</clus>
<clus scale="  116.867">  7  8 -1 -1</clus>
<clus scale="  148.618">  1  5  2 -1</clus>
<clus scale="   83.735">  2  5  1 -1</clus>
</clustering>
</event>
<event>
 9    1  0.1234700E-005  0.1396703E+03  0.7546771E-02  0.1214217E+00
          2   -1    0    0  502    0  0.00000000000E+00  0.00000000000E+00  0.41919035621E+03  0.41919035621E+03  0.00000000000E+00 0. -1.
         -2   -1    0    0    0  501 -0.00000000000E+00 -0.00000000000E+00 -0.72026248599E+02  0.72026248599E+02  0.00000000000E+00 0.  1.
         23    2    1    2    0    0 -0.88240706564E+02 -0.65022547287E+02  0.43327004994E+02  0.14953666407E+03  0.92030595932E+02 0.  0.
         23    2    1    2    0    0  0.63265590882E+02  0.69854297529E+02  0.24322772740E+03  0.27594868046E+03  0.90032155370E+02 0.  0.
        -11    1    4    4    0    0  0.41297064455E+02  0.90762724056E+02  0.19404927374E+03  0.21817066771E+03  0.00000000000E+00 0. -1.
         11    1    4    4    0    0  0.21968526427E+02 -0.20908426527E+02  0.49178453659E+02  0.57778012751E+02  0.00000000000E+00 0.  1.
        -11    1    3    3    0    0 -0.19928474298E+02  0.12355708118E+02  0.39878298067E+02  0.46261066435E+02  0.00000000000E+00 0. -1.
         11    1    3    3    0    0 -0.68312232265E+02 -0.77378255405E+02  0.34487069272E+01  0.10327559763E+03  0.00000000000E+00 0.  1.
         21    1    1    2  502  501  0.24975115682E+02 -0.48317502415E+01  0.60609375216E+02  0.65731260278E+02  0.00000000000E+00 0. -1.
<scales pt_clust_5="13000.00000" pt_clust_6="13000.00000" pt_clust_7="13000.00000" pt_clust_8="13000.00000" pt_clust_9="25.43820"></scales>
<clustering>
<clus scale="   25.438">  1  9  2 -1</clus>
<clus scale="   90.032">  5  6 -1 -1</clus>
<clus scale="   92.031">  7  8 -1 -1</clus>
<clus scale="  138.362">  1  5  2 -1</clus>
<clus scale="   25.438">  1  5  2 -1</clus>
</clustering>
</event>
<event>
 9    1  0.1234700E-005  0.1042727E+03  0.7546771E-02  0.1272173E+00
         -2   -1    0    0    0  501 -0.00000000000E+00  0.00000000000E+00  0.30399498612E+02  0.30399498612E+02  0.00000000000E+00 0.  1.
          2   -1    0    0  502    0  0.00000000000E+00 -0.00000000000E+00 -0.89066439697E+03  0.89066439697E+03  0.00000000000E+00 0. -1.
         23    2    1    2    0    0  0.42372817238E+02 -0.14584618053E+02 -0.87418032063E+02  0.13332396733E+03  0.90139897992E+02 0.  0.
         23    2    1    2    0    0 -0.70315641718E+02  0.29437541008E+02 -0.55787964540E+03  0.57045597389E+03  0.91539396516E+02 0.  0.
        -13    1    3    3    0    0  0.50380433020E+02 -0.45984561672E+02 -0.57314677568E+02  0.89093996477E+02  0.00000000000E+00 0. -1.
         13    1    3    3    0    0 -0.80076157821E+01  0.31399943618E+02 -0.30103354494E+02  0.44229970852E+02  0.00000000000E+00 0.  1.
        -13    1    4    4    0    0  0.51554135663E+01 -0.21470644057E+02 -0.52693790888E+02  0.57133199135E+02  0.00000000000E+00 0. -1.
         13    1    4    4    0    0 -0.75471055284E+02  0.50908185064E+02 -0.50518585451E+03  0.51332277476E+03  0.00000000000E+00 0.  1.
         21    1    1    2  502  501  0.27942824480E+02 -0.14852922954E+02 -0.21496722090E+03  0.21728395435E+03  0.00000000000E+00 0. -1.
<scales pt_clust_5="13000.00000" pt_clust_6="13000.00000" pt_clust_7="13000.00000" pt_clust_8="13000.00000" pt_clust_9="31.64507"></scales>
<clustering>
<clus scale="   31.645">  2  9  1 -1</clus>
<clus scale="   90.140">  5  6 -1 -1</clus>
<clus scale="   91.539">  7  8 -1 -1</clus>
<clus scale="  103.046">  1  5  2 -1</clus>
<clus scale="   31.645">  2  5  1 -1</clus>
</clustering>
</event>
<event>
 9    1  0.1234700E-005  0.1732536E+03  0.7546771E-02  0.1174659E+00
          2   -1    0    0  502    0  0.00000000000E+00  0.00000000000E+00  0.40269200487E+03  0.40269200487E+03  0.00000000000E+00 0.  1.
         -2   -1    0    0    0  501 -0.00000000000E+00 -0.00000000000E+00 -0.19836318668E+03  0.19836318668E+03  0.00000000000E+00 0. -1.
         23    2    1    2    0    0 -0.13393977914E+03 -0.55549462225E+02 -0.12450553427E+03  0.21215911710E+03  0.92110019620E+02 0.  0.
         23    2    1    2    0    0  0.15200099967E+03  0.46786911925E+02  0.26633229833E+03  0.32324931715E+03  0.90906044228E+02 0.  0.
        -11    1    3    3    0    0 -0.10561082494E+03 -0.40822858608E+02 -0.37171152807E+02  0.11917150133E+03  0.00000000000E+00 0.  1.
         11    1    3    3    0    0 -0.28328954205E+02 -0.14726603616E+02 -0.87334381463E+02  0.92987615767E+02  0.00000000000E+00 0. -1.
        -13    1    4    4    0    0  0.47806303333E+02  0.58925645847E+02  0.86559571156E+02  0.11510965961E+03  0.00000000000E+00 0. -1.
         13    1    4    4    0    0  0.10419469633E+03 -0.12138733922E+02  0.17977272717E+03  0.20813965754E+03  0.00000000000E+00 0.  1.
         21    1    1    2  502  501 -0.18061220524E+02  0.87625502999E+01  0.62502054127E+02  0.65646757305E+02  0.00000000000E+00 0. -1.
<scales pt_clust_5="13000.00000" pt_clust_6="13000.00000" pt_clust_7="13000.00000" pt_clust_8="13000.00000" pt_clust_9="20.07461"></scales>
<clustering>
<clus scale="   20.075">  1  9  2 -1</clus>
<clus scale="   90.906">  7  8 -1 -1</clus>
<clus scale="   92.110">  5  6 -1 -1</clus>
<clus scale="  172.617">  1  7  2 -1</clus>
<clus scale="   20.075">  1  5  2 -1</clus>
</clustering>
</event>
<event>
 9    1  0.1234700E-005  0.9808610E+02  0.7546771E-02  0.1285899E+00
          1   -1    0    0  502    0  0.00000000000E+00  0.00000000000E+00  0.32694993405E+03  0.32694993405E+03  0.00000000000E+00 0. -1.
         -1   -1    0    0    0  501 -0.00000000000E+00 -0.00000000000E+00 -0.43948853736E+02  0.43948853736E+02  0.00000000000E+00 0.  1.
         23    2    1    2    0    0 -0.12238537855E+02  0.19654224074E+02  0.57998437452E+02  0.11084155018E+03  0.91574888292E+02 0.  0.
         23    2    1    2    0    0  0.38341526716E+02 -0.10297863786E+02  0.17105366701E+03  0.19939918373E+03  0.94469883051E+02 0.  0.
        -13    1    4    4    0    0 -0.21877458246E+02  0.23710321978E+02  0.68347579900E+02  0.75579059440E+02  0.00000000000E+00 0.  1.
         13    1    4    4    0    0  0.60218984963E+02 -0.34008185764E+02  0.10270608711E+03  0.12382012429E+03  0.00000000000E+00 0. -1.
        -13    1    3    3    0    0 -0.22522388101E+02  0.53945163713E+02  0.32453054640E+02  0.66862092469E+02  0.00000000000E+00 0.  1.
         13    1    3    3    0    0  0.10283850246E+02 -0.34290939639E+02  0.25545382812E+02  0.43979457707E+02  0.00000000000E+00 0. -1.
         21    1    1    2  502  501 -0.26102988861E+02 -0.93563602878E+01  0.53948975848E+02  0.60658053879E+02  0.00000000000E+00 0.  1.
<scales pt_clust_5="13000.00000" pt_clust_6="13000.00000" pt_clust_7="13000.00000" pt_clust_8="13000.00000" pt_clust_9="27.72918"></scales>
<clustering>
<clus scale="   27.729">  1  9  2 -1</clus>
<clus scale="   91.575">  7  8 -1 -1</clus>
<clus scale="   94.470">  5  6 -1 -1</clus>
<clus scale="   95.301">  2  7  1 -1</clus>
<clus scale="   27.729">  1  5  2 -1</clus>
</clustering>
</event>
<event>
 9    1  0.1234700E-005  0.1210760E+03  0.7546771E-02  0.1241685E+00
          3   -1    0    0  502    0  0.00000000000E+00  0.00000000000E+00  0.14435988534E+03  0.14435988534E+03  0.00000000000E+00 0. -1.
         -3   -1    0    0    0  501 -0.00000000000E+00 -0.00000000000E+00 -0.18782216725E+03  0.18782216725E+03  0.00000000000E+00 0.  1.
         23    2    1    2    0    0 -0.24672820076E+02  0.70821566404E+02 -0.10416461724E+03  0.15782857901E+03  0.91843075667E+02 0.  0.
         23    2    1    2    0    0  0.48617701644E+02 -0.78074340309E+02  0.26319692258E+02  0.13183140604E+03  0.90705622158E+02 0.  0.
        -11    1    3    3    0    0  0.22821861390E+02  0.13727806132E+02  0.36806957188E+01  0.26885638163E+02  0.00000000000E+00 0. -1.
         11    1    3    3    0    0 -0.47494681465E+02  0.57093760272E+02 -0.10784531296E+03  0.13094294084E+03  0.00000000000E+00 0.  1.
        -13    1    4    4    0    0 -0.82196003008E+00 -0.67272306576E+02 -0.12019239711E+02  0.68342526830E+02  0.00000000000E+00 0.  1.
         13    1    4    4    0    0  0.49439661674E+02 -0.10802033733E+02  0.38338931970E+02  0.63488879214E+02  0.00000000000E+00 0. -1.
         21    1    1    2  502  501 -0.23944881568E+02  0.72527739051E+01  0.34382643072E+02  0.42522067533E+02  0.00000000000E+00 0.  1.
<scales pt_clust_5="13000.00000" pt_clust_6="13000.00000" pt_clust_7="13000.00000" pt_clust_8="13000.00000" pt_clust_9="25.01919"></scales>
<clustering>
<clus scale="   25.019">  1  9  2 -1</clus>
<clus scale="   90.706">  7  8 -1 -1</clus>
<clus scale="   91.843">  5  6 -1 -1</clus>
<clus scale="  120.215">  1  7  2 -1</clus>
<clus scale="   25.019">  1  5  2 -1</clus>
</clustering>
</event>
<event>
 9    1  0.1234700E-005  0.1224280E+03  0.7546771E-02  0.1258060E+00
          1   -1    0    0  502    0  0.00000000000E+00  0.00000000000E+00  0.17121111993E+03  0.17121111993E+03  0.00000000000E+00 0. -1.
         -1   -1    0    0    0  501 -0.00000000000E+00 -0.00000000000E+00 -0.12301550253E+03  0.12301550253E+03  0.00000000000E+00 0.  1.
         23    2    1    2    0    0 -0.25398790774E+02  0.26061455713E+02 -0.62293320905E+02  0.10511744496E+03  0.76452085378E+02 0.  0.
         23    2    1    2    0    0 -0.18090201415E+01 -0.33518016679E+02  0.73549170936E+02  0.14262894849E+03  0.11750236766E+03 0.  0.
        -13    1    3    3    0    0 -0.19871613691E+02  0.53031018925E+02 -0.47192598856E+02  0.73717782018E+02  0.00000000000E+00 0.  1.
         13    1    3    3    0    0 -0.55271770836E+01 -0.26969563212E+02 -0.15100722049E+02  0.31399662941E+02  0.00000000000E+00 0. -1.
        -13    1    4    4    0    0  0.37250351821E+02  0.21724019709E+02  0.59576810393E+02  0.73545347097E+02  0.00000000000E+00 0.  1.
         13    1    4    4    0    0 -0.39059371962E+02 -0.55242036388E+02  0.13972360543E+02  0.69083601393E+02  0.00000000000E+00 0. -1.
         21    1    1    2  502  501  0.27207810916E+02  0.74565609657E+01  0.36939767364E+02  0.46480229014E+02  0.00000000000E+00 0. -1.
<scales pt_clust_5="13000.00000" pt_clust_6="13000.00000" pt_clust_7="13000.00000" pt_clust_8="13000.00000" pt_clust_9="28.21108"></scales>
<clustering>
<clus scale="   28.211">  1  9  2 -1</clus>
<clus scale="   76.452">  5  6 -1 -1</clus>
<clus scale="   83.826">  2  5  1 -1</clus>
<clus scale="  117.502">  7  8 -1 -1</clus>
<clus scale="   28.211">  1  5  2 -1</clus>
</clustering>
</event>
<event>
 9    1  0.1234700E-005  0.9356001E+02  0.7546771E-02  0.1295283E+00
          3   -1    0    0  502    0  0.00000000000E+00  0.00000000000E+00  0.16601582577E+03  0.16601582577E+03  0.00000000000E+00 0. -1.
         -3   -1    0    0    0  501 -0.00000000000E+00 -0.00000000000E+00 -0.87288958113E+02  0.87288958113E+02  0.00000000000E+00 0.  1.
         23    2    1    2    0    0  0.30365967701E+02 -0.90352581950E+01 -0.13123925440E+01  0.96131636169E+02  0.90751535597E+02 0.  0.
         23    2    1    2    0    0  0.95695673129E+01  0.20023536557E+01  0.42824980523E+02  0.10213487635E+03  0.92206116776E+02 0.  0.
        -11    1    4    4    0    0  0.29485741842E+02 -0.30181905204E+02  0.48028891973E+02  0.63930672121E+02  0.00000000000E+00 0. -1.
         11    1    4    4    0    0 -0.19916174529E+02  0.32184258860E+02 -0.52039114497E+01  0.38204204227E+02  0.00000000000E+00 0.  1.
        -11    1    3    3    0    0  0.51645181732E+02  0.30341716013E+01  0.27292801791E+02  0.58492119324E+02  0.00000000000E+00 0. -1.
         11    1    3    3    0    0 -0.21279214030E+02 -0.12069429796E+02 -0.28605194335E+02  0.37639516845E+02  0.00000000000E+00 0.  1.
         21    1    1    2  502  501 -0.39935535014E+02  0.70329045393E+01  0.37214279681E+02  0.55038271369E+02  0.00000000000E+00 0.  1.
<scales pt_clust_5="13000.00000" pt_clust_6="13000.00000" pt_clust_7="13000.00000" pt_clust_8="13000.00000" pt_clust_9="40.55008"></scales>
<clustering>
<clus scale="   40.550">  1  9  2 -1</clus>
<clus scale="   90.752">  7  8 -1 -1</clus>
<clus scale="   92.127">  2  7  1 -1</clus>
<clus scale="   92.206">  5  6 -1 -1</clus>
<clus scale="   40.550">  1  5  2 -1</clus>
</clustering>
</event>
<event>
 9    1  0.1234700E-005  0.1312618E+03  0.7546771E-02  0.1241415E+00
          1   -1    0    0  502    0  0.00000000000E+00  0.00000000000E+00  0.90219995046E+03  0.90219995046E+03  0.00000000000E+00 0. -1.
         -1   -1    0    0    0  501 -0.00000000000E+00 -0.00000000000E+00 -0.69492539692E+02  0.69492539692E+02  0.00000000000E+00 0.  1.
         23    2    1    2    0    0  0.11812782946E+02 -0.22659247711E+02  0.91812466150E+01  0.95305220370E+02  0.91355385132E+02 0.  0.
         23    2    1    2    0    0 -0.42531948809E+02 -0.70757742732E+02  0.13885362126E+03  0.18468871388E+03  0.89520768928E+02 0.  0.
        -11    1    4    4    0    0 -0.19021392700E+02 -0.88819811091E+02  0.11555345025E+03  0.14698085619E+03  0.00000000000E+00 0.  1.
         11    1    4    4    0    0 -0.23510556109E+02  0.18062068358E+02  0.23300171019E+02  0.37707857688E+02  0.00000000000E+00 0. -1.
        -11    1    3    3    0    0 -0.34885755171E+02 -0.17899104901E+01 -0.15849819745E+02  0.38359307598E+02  0.00000000000E+00 0.  1.
         11    1    3    3    0    0  0.46698538118E+02 -0.20869337221E+02  0.25031066359E+02  0.56945912772E+02  0.00000000000E+00 0. -1.
         21    1    1    2  502  501  0.30719165863E+02  0.93416990444E+02  0.68467254288E+03  0.69169855590E+03  0.00000000000E+00 0. -1.
<scales pt_clust_5="13000.00000" pt_clust_6="13000.00000" pt_clust_7="13000.00000" pt_clust_8="13000.00000" pt_clust_9="95.99846"></scales>
<clustering>
<clus scale="   89.521">  5  6 -1 -1</clus>
<clus scale="   91.355">  7  8 -1 -1</clus>
<clus scale="   94.862">  2  7  1 -1</clus>
<clus scale="   95.998">  1  9  2 -1</clus>
<clus scale="   95.998">  1  5  2 -1</clus>
</clustering>
</event>
<event>
 9    1  0.1234700E-005  0.1805713E+03  0.7546771E-02  0.1167445E+00
         -2   -1    0    0    0  501 -0.00000000000E+00  0.00000000000E+00  0.39221944952E+03  0.39221944952E+03  0.00000000000E+00 0.  1.
          2   -1    0    0  502    0  0.00000000000E+00 -0.00000000000E+00 -0.23344962140E+03  0.23344962140E+03  0.00000000000E+00 0. -1.
         23    2    1    2    0    0  0.14524756661E+03 -0.71085435003E+00  0.23528016125E+03  0.29055333322E+03  0.89258748855E+02 0.  0.
         23    2    1    2    0    0 -0.19114633595E+03  0.10741890979E+02  0.34378239275E+02  0.21468486868E+03  0.90859339282E+02 0.  0.
        -11    1    4    4    0    0 -0.49763614141E+02 -0.18445352056E+02  0.45481752118E+02  0.69894478184E+02  0.00000000000E+00 0.  1.
         11    1    4    4    0    0 -0.14138272181E+03  0.29187243035E+02 -0.11103512842E+02  0.14479039050E+03  0.00000000000E+00 0. -1.
        -13    1    3    3    0    0  0.11455055405E+03 -0.25465150967E+02  0.11632701155E+03  0.16523400668E+03  0.00000000000E+00 0.  1.
         13    1    3    3    0    0  0.30697012559E+02  0.24754296617E+02  0.11895314970E+03  0.12531932654E+03  0.00000000000E+00 0. -1.
         21    1    1    2  502  501  0.45898769342E+02 -0.10031036629E+02 -0.11088857241E+03  0.12043086903E+03  0.00000000000E+00 0.  1.
<scales pt_clust_5="13000.00000" pt_clust_6="13000.00000" pt_clust_7="13000.00000" pt_clust_8="13000.00000" pt_clust_9="46.98211"></scales>
<clustering>
<clus scale="   46.982">  2  9  1 -1</clus>
<clus scale="   89.259">  7  8 -1 -1</clus>
<clus scale="   90.859">  5  6 -1 -1</clus>
<clus scale="  179.771">  1  7  2 -1</clus>
<clus scale="   46.982">  2  5  1 -1</clus>
</clustering>
</event>
<event>
 9    1  0.1234700E-005  0.2033560E+03  0.7546771E-02  0.1147335E+00
          1   -1    0    0  502    0  0.00000000000E+00  0.00000000000E+00  0.11444872721E+04  0.11444872721E+04  0.00000000000E+00 0. -1.
         -1   -1    0    0    0  501 -0.00000000000E+00 -0.00000000000E+00 -0.86091756610E+02  0.86091756610E+02  0.00000000000E+00 0.  1.
         23    2    1    2    0    0  0.12638546212E+03  0.12446438509E+03  0.82237221683E+02  0.21584351912E+03  0.91437388003E+02 0.  0.
         23    2    1    2    0    0 -0.11389447684E+03 -0.17254005050E+03  0.73328179398E+03  0.76683172081E+03  0.87101537229E+02 0.  0.
        -11    1    3    3    0    0  0.42932585665E+02 -0.58726803180E+01  0.74951913955E+01  0.43975824950E+02  0.00000000000E+00 0. -1.
         11    1    3    3    0    0  0.83452876459E+02  0.13033706541E+03  0.74742030288E+02  0.17186769417E+03  0.00000000000E+00 0.  1.
        -13    1    4    4    0    0 -0.14815202338E+02 -0.41177334896E+02  0.63385540321E+02  0.77024605492E+02  0.00000000000E+00 0.  1.
         13    1    4    4    0    0 -0.99079274498E+02 -0.13136271561E+03  0.66989625365E+03  0.68980711532E+03  0.00000000000E+00 0. -1.
         21    1    1    2  502  501 -0.12490985287E+02  0.48075665412E+02  0.24287649986E+03  0.24790378881E+03  0.00000000000E+00 0.  1.
<scales pt_clust_5="13000.00000" pt_clust_6="13000.00000" pt_clust_7="13000.00000" pt_clust_8="13000.00000" pt_clust_9="49.67187"></scales>
<clustering>
<clus scale="   49.672">  1  9  2 -1</clus>
<clus scale="   87.102">  7  8 -1 -1</clus>
<clus scale="   91.437">  5  6 -1 -1</clus>
<clus scale="  201.444">  1  7  2 -1</clus>
<clus scale="   49.672">  1  5  2 -1</clus>
</clustering>
</event>
<event>
 9    1  0.1234700E-005  0.1019125E+03  0.7546771E-02  0.1276666E+00
         -1   -1    0    0    0  501 -0.00000000000E+00  0.00000000000E+00  0.55366657398E+02  0.55366657398E+02  0.00000000000E+00 0.  1.
          1   -1    0    0  502    0  0.00000000000E+00 -0.00000000000E+00 -0.28093090585E+03  0.28093090585E+03  0.00000000000E+00 0. -1.
         23    2    1    2    0    0 -0.35475478370E+02 -0.24959309242E+02 -0.64203527797E+02  0.12093702312E+03  0.92855769317E+02 0.  0.
         23    2    1    2    0    0  0.11140197049E+02  0.45253085761E+02 -0.88787031232E+02  0.13617099739E+03  0.92127400133E+02 0.  0.
        -13    1    4    4    0    0  0.35364589160E+02  0.88595778545E+01  0.82121089840E+00  0.36466706371E+02  0.00000000000E+00 0. -1.
         13    1    4    4    0    0 -0.24224392111E+02  0.36393507906E+02 -0.89608242130E+02  0.99704291024E+02  0.00000000000E+00 0.  1.
        -13    1    3    3    0    0  0.40550680447E+01 -0.53428381801E+02 -0.37303067768E+02  0.65288241083E+02  0.00000000000E+00 0.  1.
         13    1    3    3    0    0 -0.39530546414E+02  0.28469072559E+02 -0.26900460029E+02  0.55648782035E+02  0.00000000000E+00 0. -1.
         21    1    1    2  502  501  0.24335281321E+02 -0.20293776519E+02 -0.72573689426E+02  0.79189542739E+02  0.00000000000E+00 0. -1.
<scales pt_clust_5="13000.00000" pt_clust_6="13000.00000" pt_clust_7="13000.00000" pt_clust_8="13000.00000" pt_clust_9="31.68664"></scales>
<clustering>
<clus scale="   31.687">  2  9  1 -1</clus>
<clus scale="   92.127">  5  6 -1 -1</clus>
<clus scale="   92.856">  7  8 -1 -1</clus>
<clus scale="  101.249">  2  5  1 -1</clus>
<clus scale="   31.687">  2  5  1 -1</clus>
</clustering>
</event>
<event>
 9    1  0.1234700E-005  0.1149855E+03  0.7546771E-02  0.1252955E+00
         -2   -1    0    0    0  501 -0.00000000000E+00  0.00000000000E+00  0.27479438178E+02  0.27479438178E+02  0.00000000000E+00 0.  1.
          2   -1    0    0  502    0  0.00000000000E+00 -0.00000000000E+00 -0.88543822652E+03  0.88543822652E+03  0.00000000000E+00 0. -1.
         23    2    1    2    0    0  0.42991707004E+02  0.45571195507E+02 -0.21144147829E+03  0.23845680571E+03  0.90714545237E+02 0.  0.
         23    2    1    2    0    0 -0.87093961303E+02 -0.50712155254E+00 -0.40796918949E+03  0.42772013390E+03  0.94445953319E+02 0.  0.
        -11    1    3    3    0    0  0.58915311893E+02  0.60828753916E+02 -0.13930595362E+03  0.16302545811E+03  0.00000000000E+00 0.  1.
         11    1    3    3    0    0 -0.15923604888E+02 -0.15257558410E+02 -0.72135524675E+02  0.75431347604E+02  0.00000000000E+00 0. -1.
        -11    1    4    4    0    0 -0.13152193168E+02 -0.29027789204E+02 -0.39142941941E+02  0.50475366616E+02  0.00000000000E+00 0.  1.
         11    1    4    4    0    0 -0.73941768134E+02  0.28520667652E+02 -0.36882624755E+03  0.37724476728E+03  0.00000000000E+00 0. -1.
         21    1    1    2  502  501  0.44102254298E+02 -0.45064073954E+02 -0.23854812055E+03  0.24674072508E+03  0.00000000000E+00 0. -1.
<scales pt_clust_5="13000.00000" pt_clust_6="13000.00000" pt_clust_7="13000.00000" pt_clust_8="13000.00000" pt_clust_9="63.05378"></scales>
<clustering>
<clus scale="   63.054">  2  9  1 -1</clus>
<clus scale="   90.715">  5  6 -1 -1</clus>
<clus scale="   94.446">  7  8 -1 -1</clus>
<clus scale="  111.941">  1  5  2 -1</clus>
<clus scale="   63.054">  2  5  1 -1</clus>
</clustering>
</event>
<event>
 9    1  0.1234700E-005  0.1188053E+03  0.7546771E-02  0.1245803E+00
         -1   -1    0    0    0  501 -0.00000000000E+00  0.00000000000E+00  0.15284150686E+03  0.15284150686E+03  0.00000000000E+00 0.  1.
          1   -1    0    0  502    0  0.00000000000E+00 -0.00000000000E+00 -0.17155084335E+03  0.17155084335E+03  0.00000000000E+00 0. -1.
         23    2    1    2    0    0  0.73840256667E+02  0.69833389641E+02  0.29142856055E+02  0.13872607332E+03  0.89813871684E+02 0.  0.
         23    2    1    2    0    0 -0.38909754757E+02 -0.53396140679E+02 -0.77265150186E+02  0.13713334792E+03  0.92035508501E+02 0.  0.
        -11    1    3    3    0    0  0.18899170727E+02 -0.21537011920E+02  0.20822654700E+01  0.28729033505E+02  0.00000000000E+00 0.  1.
         11    1    3    3    0    0  0.54941085941E+02  0.91370401561E+02  0.27060590585E+02  0.10999703982E+03  0.00000000000E+00 0. -1.
        -11    1    4    4    0    0 -0.59906373515E+02 -0.26320702570E+02 -0.16672281226E+02  0.67524202571E+02  0.00000000000E+00 0.  1.
         11    1    4    4    0    0  0.20996618758E+02 -0.27075438109E+02 -0.60592868960E+02  0.69609145354E+02  0.00000000000E+00 0. -1.
         21    1    1    2  502  501 -0.34930501910E+02 -0.16437248961E+02  0.29412957643E+02  0.48532928970E+02  0.00000000000E+00 0.  1.
<scales pt_clust_5="13000.00000" pt_clust_6="13000.00000" pt_clust_7="13000.00000" pt_clust_8="13000.00000" pt_clust_9="38.60470"></scales>
<clustering>
<clus scale="   38.605">  1  9  2 -1</clus>
<clus scale="   89.814">  5  6 -1 -1</clus>
<clus scale="   92.036">  7  8 -1 -1</clus>
<clus scale="  117.093">  1  5  2 -1</clus>
<clus scale="  118.805">  2  5  1 -1</clus>
</clustering>
</event>
<event>
 9    1  0.1234700E-005  0.1203672E+03  0.7546771E-02  0.1244304E+00
          1   -1    0    0  502    0  0.00000000000E+00  0.00000000000E+00  0.49844862231E+02  0.49844862231E+02  0.00000000000E+00 0. -1.
         -1   -1    0    0    0  501 -0.00000000000E+00 -0.00000000000E+00 -0.37210889085E+03  0.37210889085E+03  0.00000000000E+00 0.  1.
         23    2    1    2    0    0  0.81524477074E+02  0.76406708109E+01 -0.21680985133E+03  0.25131580722E+03  0.97203411002E+02 0.  0.
         23    2    1    2    0    0 -0.54571078101E+02 -0.69682541391E+01 -0.87624064767E+02  0.13831379432E+03  0.91794171070E+02 0.  0.
        -11    1    3    3    0    0  0.74365481907E+02  0.45507288157E+02 -0.16646774252E+03  0.18791659712E+03  0.00000000000E+00 0.  1.
         11    1    3    3    0    0  0.71589951666E+01 -0.37866617346E+02 -0.50342108815E+02  0.63399210097E+02  0.00000000000E+00 0. -1.
        -13    1    4    4    0    0  0.89907294649E+01 -0.29785294609E+02 -0.48545405635E+01  0.31489102168E+02  0.00000000000E+00 0. -1.
         13    1    4    4    0    0 -0.63561807565E+02  0.22817040470E+02 -0.82769524203E+02  0.10682469215E+03  0.00000000000E+00 0.  1.
         21    1    1    2  502  501 -0.26953398973E+02 -0.67241667180E+00 -0.17830112519E+02  0.32324151541E+02  0.00000000000E+00 0. -1.
<scales pt_clust_5="13000.00000" pt_clust_6="13000.00000" pt_clust_7="13000.00000" pt_clust_8="13000.00000" pt_clust_9="26.96179"></scales>
<clustering>
<clus scale="   26.962">  1  9  2 -1</clus>
<clus scale="   91.794">  7  8 -1 -1</clus>
<clus scale="   97.203">  5  6 -1 -1</clus>
<clus scale="  116.043">  1  7  2 -1</clus>
<clus scale="   26.962">  1  5  2 -1</clus>
</clustering>
</event>
<event>
 9    1  0.1799062E-005  0.9076520E+02  0.7546771E-02  0.1301842E+00
          1   -1    0    0  502    0  0.00000000000E+00  0.00000000000E+00  0.17090852062E+03  0.17090852062E+03  0.00000000000E+00 0. -1.
         -1   -1    0    0    0  501 -0.00000000000E+00 -0.00000000000E+00 -0.14339209735E+03  0.14339209735E+03  0.00000000000E+00 0.  1.
         23    2    1    2    0    0  0.25432082303E+00 -0.75560633449E+01 -0.96835472265E+02  0.13089731790E+03  0.87748734305E+02 0.  0.
         23    2    1    2    0    0 -0.18564875752E+02 -0.55788397581E+01  0.13124157012E+03  0.15983913836E+03  0.89153925096E+02 0.  0.
        -13    1    4    4    0    0 -0.36711439764E+02 -0.35074363633E+02  0.10416252286E+03  0.11587826354E+03  0.00000000000E+00 0.  1.
         13    1    4    4    0    0  0.18146564012E+02  0.29495523875E+02  0.27079047260E+02  0.43960874816E+02  0.00000000000E+00 0. -1.
        -13    1    3    3    0    0 -0.24452301719E+02  0.16847321131E+01 -0.10123048732E+03  0.10415548447E+03  0.00000000000E+00 0.  1.
         13    1    3    3    0    0  0.24706622542E+02 -0.92407954581E+01  0.43950150524E+01  0.26741833434E+02  0.00000000000E+00 0. -1.
         21    1    1    2  502  501  0.18310554929E+02  0.13134903103E+02 -0.68896745761E+01  0.23564161710E+02  0.00000000000E+00 0. -1.
<scales pt_clust_5="13000.00000" pt_clust_6="13000.00000" pt_clust_7="13000.00000" pt_clust_8="13000.00000" pt_clust_9="22.53446"></scales>
<clustering>
<clus scale="   22.534">  2  9  1 -1</clus>
<clus scale="   87.749">  7  8 -1 -1</clus>
<clus scale="   89.154">  5  6 -1 -1</clus>
<clus scale="   89.385">  2  7  1 -1</clus>
<clus scale="   90.765">  1  5  2 -1</clus>
</clustering>
</event>
<event>
 9    1  0.1234700E-005  0.1582012E+03  0.7546771E-02  0.1190755E+00
         -1   -1    0    0    0  501 -0.00000000000E+00  0.00000000000E+00  0.15005347804E+03  0.15005347804E+03  0.00000000000E+00 0.  1.
          1   -1    0    0  502    0  0.00000000000E+00 -0.00000000000E+00 -0.34146536651E+03  0.34146536651E+03  0.00000000000E+00 0. -1.
         23    2    1    2    0    0 -0.58742972974E+02  0.17371597373E+03 -0.11871619023E+02  0.20525022634E+03  0.91426165153E+02 0.  0.
         23    2    1    2    0    0  0.30257147524E+02 -0.10858697421E+03 -0.15154256019E+03  0.20986769836E+03  0.91502335062E+02 0.  0.
        -11    1    3    3    0    0 -0.54556228199E+02  0.60804985292E+02  0.26564759187E+02  0.85902937682E+02  0.00000000000E+00 0.  1.
         11    1    3    3    0    0 -0.41867447743E+01  0.11291098844E+03 -0.38436378210E+02  0.11934728866E+03  0.00000000000E+00 0. -1.
        -13    1    4    4    0    0  0.35124287801E+02 -0.24941496482E+02 -0.10618647804E+03  0.11459215487E+03  0.00000000000E+00 0. -1.
         13    1    4    4    0    0 -0.48671402770E+01 -0.83645477728E+02 -0.45356082152E+02  0.95275543488E+02  0.00000000000E+00 0.  1.
         21    1    1    2  502  501  0.28485825450E+02 -0.65128999518E+02 -0.27997709259E+02  0.76400919847E+02  0.00000000000E+00 0. -1.
<scales pt_clust_5="13000.00000" pt_clust_6="13000.00000" pt_clust_7="13000.00000" pt_clust_8="13000.00000" pt_clust_9="71.08607"></scales>
<clustering>
<clus scale="   71.086">  1  9  2 -1</clus>
<clus scale="   91.426">  5  6 -1 -1</clus>
<clus scale="   91.502">  7  8 -1 -1</clus>
<clus scale="  158.157">  1  5  2 -1</clus>
<clus scale="  158.201">  2  5  1 -1</clus>
</clustering>
</event>
<event>
 9    1  0.1234700E-005  0.1112201E+03  0.7546771E-02  0.1263489E+00
         -2   -1    0    0    0  501 -0.00000000000E+00  0.00000000000E+00  0.96653031784E+02  0.96653031784E+02  0.00000000000E+00 0.  1.
          2   -1    0    0  502    0  0.00000000000E+00 -0.00000000000E+00 -0.56608291576E+03  0.56608291576E+03  0.00000000000E+00 0. -1.
         23    2    1    2    0    0  0.38759915625E+02 -0.10661328065E+02  0.57490683076E+02  0.11534839835E+03  0.91564618634E+02 0.  0.
         23    2    1    2    0    0 -0.62514195917E+02  0.65697515561E+01 -0.47520735892E+03  0.49033263945E+03  0.10321277544E+03 0.  0.
        -11    1    4    4    0    0  0.19761509114E+02  0.27650883038E+02 -0.17857602208E+03  0.18178141885E+03  0.00000000000E+00 0.  1.
         11    1    4    4    0    0 -0.82275705031E+02 -0.21081131482E+02 -0.29663133683E+03  0.30855122060E+03  0.00000000000E+00 0. -1.
        -13    1    3    3    0    0  0.20626353489E+02 -0.51342168445E+02  0.34771326610E+02  0.65349138274E+02  0.00000000000E+00 0.  1.
         13    1    3    3    0    0  0.18133562136E+02  0.40680840380E+02  0.22719356466E+02  0.49999260075E+02  0.00000000000E+00 0. -1.
         21    1    1    2  502  501  0.23754280292E+02  0.40915765086E+01 -0.51713208140E+02  0.57054909751E+02  0.00000000000E+00 0. -1.
<scales pt_clust_5="13000.00000" pt_clust_6="13000.00000" pt_clust_7="13000.00000" pt_clust_8="13000.00000" pt_clust_9="24.10408"></scales>
<clustering>
<clus scale="   24.104">  2  9  1 -1</clus>
<clus scale="   91.565">  7  8 -1 -1</clus>
<clus scale="  100.504">  1  7  2 -1</clus>
<clus scale="  103.213">  5  6 -1 -1</clus>
<clus scale="   24.104">  2  5  1 -1</clus>
</clustering>
</event>
<event>
 9    1  0.1234700E-005  0.9727406E+02  0.7546771E-02  0.1290444E+00
         -2   -1    0    0    0  501 -0.00000000000E+00  0.00000000000E+00  0.19657130106E+03  0.19657130106E+03  0.00000000000E+00 0.  1.
          2   -1    0    0  502    0  0.00000000000E+00 -0.00000000000E+00 -0.95355891914E+02  0.95355891914E+02  0.00000000000E+00 0. -1.
         23    2    1    2    0    0 -0.52667726105E+02 -0.34648228721E+02  0.59753994366E+02  0.12106251107E+03  0.84327946840E+02 0.  0.
         23    2    1    2    0    0 -0.10660499101E+01 -0.13842153871E+02  0.24260560643E+02  0.96470426266E+02  0.92332153960E+02 0.  0.
        -11    1    3    3    0    0 -0.44231574830E+02 -0.62207650954E+02  0.46092647271E+02  0.89167012856E+02  0.00000000000E+00 0. -1.
         11    1    3    3    0    0 -0.84361512752E+01  0.27559422233E+02  0.13661347095E+02  0.31895498219E+02  0.00000000000E+00 0.  1.
        -11    1    4    4    0    0  0.19546593900E+02 -0.14835207904E+02  0.54552275848E+02  0.59817251080E+02  0.00000000000E+00 0.  1.
         11    1    4    4    0    0 -0.20612643810E+02  0.99305403246E+00 -0.30291715204E+02  0.36653175185E+02  0.00000000000E+00 0. -1.
         21    1    1    2  502  501  0.53733776016E+02  0.48490382593E+02  0.17200854141E+02  0.74394255639E+02  0.00000000000E+00 0.  1.
<scales pt_clust_5="13000.00000" pt_clust_6="13000.00000" pt_clust_7="13000.00000" pt_clust_8="13000.00000" pt_clust_9="72.37842"></scales>
<clustering>
<clus scale="   72.378">  2  9  1 -1</clus>
<clus scale="   84.328">  5  6 -1 -1</clus>
<clus scale="   89.712">  1  5  2 -1</clus>
<clus scale="   92.332">  7  8 -1 -1</clus>
<clus scale="   72.378">  2  5  1 -1</clus>
</clustering>
</event>
<event>
 9    1  0.1234700E-005  0.1386325E+03  0.7546771E-02  0.1215339E+00
         -2   -1    0    0    0  501 -0.00000000000E+00  0.00000000000E+00  0.31645094132E+02  0.31645094132E+02  0.00000000000E+00 0.  1.
          2   -1    0    0  502    0  0.00000000000E+00 -0.00000000000E+00 -0.92478112948E+03  0.92478112948E+03  0.00000000000E+00 0. -1.
         23    2    1    2    0    0  0.45747088892E+02 -0.84910932072E+02 -0.21576736299E+03  0.25330405480E+03  0.91130273364E+02 0.  0.
         23    2    1    2    0    0 -0.77807088083E+02  0.97121517109E+02 -0.53477480823E+03  0.55645945363E+03  0.90423978981E+02 0.  0.
        -11    1    3    3    0    0  0.60004974804E+02 -0.58094588399E+02 -0.85423560097E+02  0.11946866879E+03  0.00000000000E+00 0.  1.
         11    1    3    3    0    0 -0.14257885912E+02 -0.26816343673E+02 -0.13034380289E+03  0.13383538602E+03  0.00000000000E+00 0. -1.
        -13    1    4    4    0    0 -0.65402058153E+02  0.35618528397E+02 -0.16016951024E+03  0.17663629522E+03  0.00000000000E+00 0.  1.
         13    1    4    4    0    0 -0.12405029931E+02  0.61502988711E+02 -0.37460529798E+03  0.37982315841E+03  0.00000000000E+00 0. -1.
         21    1    1    2  502  501  0.32059999191E+02 -0.12210585037E+02 -0.14259386414E+03  0.14666271518E+03  0.00000000000E+00 0.  1.
<scales pt_clust_5="13000.00000" pt_clust_6="13000.00000" pt_clust_7="13000.00000" pt_clust_8="13000.00000" pt_clust_9="34.30659"></scales>
<clustering>
<clus scale="   34.307">  2  9  1 -1</clus>
<clus scale="   90.424">  7  8 -1 -1</clus>
<clus scale="   91.130">  5  6 -1 -1</clus>
<clus scale="  138.169">  2  7  1 -1</clus>
<clus scale="   34.307">  2  5  1 -1</clus>
</clustering>
</event>
<event>
 9    1  0.1234700E-005  0.1178858E+03  0.7546771E-02  0.1249884E+00
          2   -1    0    0  502    0  0.00000000000E+00  0.00000000000E+00  0.11715670397E+03  0.11715670397E+03  0.00000000000E+00 0. -1.
         -2   -1    0    0    0  501 -0.00000000000E+00 -0.00000000000E+00 -0.15871308963E+03  0.15871308963E+03  0.00000000000E+00 0.  1.
         23    2    1    2    0    0 -0.69716949513E+01 -0.75981890435E+02 -0.45890719387E+02  0.12861897343E+03  0.92817185890E+02 0.  0.
         23    2    1    2    0    0 -0.18485892220E+00  0.38904753115E+02 -0.29033888686E+01  0.10880195798E+03  0.10156683714E+03 0.  0.
        -11    1    4    4    0    0 -0.60518382315E+01  0.71921112550E+02 -0.13919515565E+02  0.73505265729E+02  0.00000000000E+00 0.  1.
         11    1    4    4    0    0  0.58669793093E+01 -0.33016359435E+02  0.11016126697E+02  0.35296692252E+02  0.00000000000E+00 0. -1.
        -13    1    3    3    0    0  0.19704578496E+02  0.99085960292E+01 -0.30083954357E+02  0.37302747871E+02  0.00000000000E+00 0.  1.
         13    1    3    3    0    0 -0.26676273448E+02 -0.85890486464E+02 -0.15806765030E+02  0.91316225562E+02  0.00000000000E+00 0. -1.
         21    1    1    2  502  501  0.71565538735E+01  0.37077137320E+02  0.72377225981E+01  0.38448862189E+02  0.00000000000E+00 0.  1.
<scales pt_clust_5="13000.00000" pt_clust_6="13000.00000" pt_clust_7="13000.00000" pt_clust_8="13000.00000" pt_clust_9="37.76149"></scales>
<clustering>
<clus scale="   37.761">  1  9  2 -1</clus>
<clus scale="   92.817">  7  8 -1 -1</clus>
<clus scale="  101.567">  5  6 -1 -1</clus>
<clus scale="  110.437">  2  7  1 -1</clus>
<clus scale="   37.761">  1  5  2 -1</clus>
</clustering>
</event>
<event>
 9    1  0.1234700E-005  0.1490107E+03  0.7546771E-02  0.1201749E+00
          1   -1    0    0  502    0  0.00000000000E+00  0.00000000000E+00  0.84842837482E+03  0.84842837482E+03  0.00000000000E+00 0. -1.
         -1   -1    0    0    0  501 -0.00000000000E+00 -0.00000000000E+00 -0.39811412475E+02  0.39811412475E+02  0.00000000000E+00 0.  1.
         23    2    1    2    0    0  0.10406253350E+03 -0.34046990632E+01  0.27221332999E+03  0.30550030650E+03  0.91595509683E+02 0.  0.
         23    2    1    2    0    0 -0.13070112935E+03 -0.16490684656E+02  0.26793186822E+03  0.31221678449E+03  0.91307757668E+02 0.  0.
        -11    1    3    3    0    0  0.46488973353E+02  0.43759699355E+02  0.11414704476E+03  0.13078869889E+03  0.00000000000E+00 0. -1.
         11    1    3    3    0    0  0.57573560145E+02 -0.47164398418E+02  0.15806628523E+03  0.17471160761E+03  0.00000000000E+00 0.  1.
        -13    1    4    4    0    0 -0.48048588625E+02  0.16287783485E+02  0.31743872808E+02  0.59846739431E+02  0.00000000000E+00 0.  1.
         13    1    4    4    0    0 -0.82652540728E+02 -0.32778468140E+02  0.23618799542E+03  0.25237004505E+03  0.00000000000E+00 0. -1.
         21    1    1    2  502  501  0.26638595854E+02  0.19895383719E+02  0.26847176413E+03  0.27052269631E+03  0.00000000000E+00 0.  1.
<scales pt_clust_5="13000.00000" pt_clust_6="13000.00000" pt_clust_7="13000.00000" pt_clust_8="13000.00000" pt_clust_9="33.24817"></scales>
<clustering>
<clus scale="   33.248">  1  9  2 -1</clus>
<clus scale="   91.308">  7  8 -1 -1</clus>
<clus scale="   91.596">  5  6 -1 -1</clus>
<clus scale="  148.834">  1  7  2 -1</clus>
<clus scale="   33.248">  1  5  2 -1</clus>
</clustering>
</event>
<event>
 9    1  0.1234700E-005  0.1205280E+03  0.7546771E-02  0.1244115E+00
          1   -1    0    0  502    0  0.00000000000E+00  0.00000000000E+00  0.40413121781E+03  0.40413121781E+03  0.00000000000E+00 0. -1.
         -1   -1    0    0    0  501 -0.00000000000E+00 -0.00000000000E+00 -0.59219580878E+02  0.59219580878E+02  0.00000000000E+00 0.  1.
         23    2    1    2    0    0  0.35185838987E+02  0.58560565264E+02  0.68945486269E+02  0.12959588575E+03  0.85873339619E+02 0.  0.
         23    2    1    2    0    0 -0.50449396307E+02 -0.78147242223E+02  0.12540615309E+03  0.18116091907E+03  0.91871879861E+02 0.  0.
        -13    1    4    4    0    0 -0.40691088943E+02 -0.25267112156E+02  0.11740036232E+03  0.12679525523E+03  0.00000000000E+00 0. -1.
         13    1    4    4    0    0 -0.97583073642E+01 -0.52880130068E+02  0.80057907722E+01  0.54365663838E+02  0.00000000000E+00 0.  1.
        -13    1    3    3    0    0  0.57477808049E+02  0.38858252126E+02  0.71632420712E+02  0.99723948345E+02  0.00000000000E+00 0.  1.
         13    1    3    3    0    0 -0.22291969062E+02  0.19702313139E+02 -0.26869344431E+01  0.29871937406E+02  0.00000000000E+00 0. -1.
         21    1    1    2  502  501  0.15263557320E+02  0.19586676959E+02  0.15055999757E+03  0.15259399387E+03  0.00000000000E+00 0.  1.
<scales pt_clust_5="13000.00000" pt_clust_6="13000.00000" pt_clust_7="13000.00000" pt_clust_8="13000.00000" pt_clust_9="24.83172"></scales>
<clustering>
<clus scale="   24.832">  1  9  2 -1</clus>
<clus scale="   85.873">  7  8 -1 -1</clus>
<clus scale="   91.872">  5  6 -1 -1</clus>
<clus scale="  116.021">  2  7  1 -1</clus>
<clus scale="   24.832">  1  5  2 -1</clus>
</clustering>
</event>
<event>
 9    1  0.1234700E-005  0.9850642E+02  0.7546771E-02  0.1283846E+00
          2   -1    0    0  502    0  0.00000000000E+00  0.00000000000E+00  0.27202940361E+02  0.27202940361E+02  0.00000000000E+00 0. -1.
         -2   -1    0    0    0  501 -0.00000000000E+00 -0.00000000000E+00 -0.57569953296E+03  0.57569953296E+03  0.00000000000E+00 0.  1.
         23    2    1    2    0    0 -0.37850334156E+02  0.14557267860E+02 -0.39545747588E+03  0.40797032304E+03  0.91698459153E+02 0.  0.
         23    2    1    2    0    0  0.27834783013E+02  0.31982498974E+01 -0.14406782468E+03  0.17265988599E+03  0.90944456548E+02 0.  0.
        -11    1    4    4    0    0 -0.22707224954E+02  0.28350616138E+01 -0.10842370394E+03  0.11081225210E+03  0.00000000000E+00 0.  1.
         11    1    4    4    0    0  0.50542007967E+02  0.36318828360E+00 -0.35644120734E+02  0.61847633891E+02  0.00000000000E+00 0. -1.
        -11    1    3    3    0    0  0.11563222889E+02 -0.30705555071E+02 -0.14861348923E+03  0.15219234021E+03  0.00000000000E+00 0.  1.
         11    1    3    3    0    0 -0.49413557045E+02  0.45262822932E+02 -0.24684398664E+03  0.25577798283E+03  0.00000000000E+00 0. -1.
         21    1    1    2  502  501  0.10015551143E+02 -0.17755517758E+02 -0.89712920489E+01  0.22272264289E+02  0.00000000000E+00 0. -1.
<scales pt_clust_5="13000.00000" pt_clust_6="13000.00000" pt_clust_7="13000.00000" pt_clust_8="13000.00000" pt_clust_9="20.38553"></scales>
<clustering>
<clus scale="   20.386">  1  9  2 -1</clus>
<clus scale="   90.944">  5  6 -1 -1</clus>
<clus scale="   91.698">  7  8 -1 -1</clus>
<clus scale="   97.805">  1  5  2 -1</clus>
<clus scale="   20.386">  1  5  2 -1</clus>
</clustering>
</event>
<event>
 9    1  0.1234700E-005  0.1004715E+03  0.7546771E-02  0.1279476E+00
          1   -1    0    0  502    0  0.00000000000E+00  0.00000000000E+00  0.23147061600E+03  0.23147061600E+03  0.00000000000E+00 0. -1.
         -1   -1    0    0    0  501 -0.00000000000E+00 -0.00000000000E+00 -0.14166197399E+03  0.14166197399E+03  0.00000000000E+00 0.  1.
         23    2    1    2    0    0  0.40562456180E+02  0.12155377969E+02 -0.79295755680E+02  0.12697175665E+03  0.89671311202E+02 0.  0.
         23    2    1    2    0    0 -0.45468180270E+02 -0.34880039535E+02  0.37540301362E+02  0.11255848375E+03  0.89309380598E+02 0.  0.
        -13    1    4    4    0    0  0.11796118823E+02  0.17733578626E+02 -0.76330689123E+01  0.22625029750E+02  0.00000000000E+00 0.  1.
         13    1    4    4    0    0 -0.57264299093E+02 -0.52613618160E+02  0.45173370274E+02  0.89933454000E+02  0.00000000000E+00 0. -1.
        -13    1    3    3    0    0  0.62258942694E+02 -0.73361712226E+01 -0.29547133199E+02  0.69303884695E+02  0.00000000000E+00 0.  1.
         13    1    3    3    0    0 -0.21696486513E+02  0.19491549191E+02 -0.49748622481E+02  0.57667871954E+02  0.00000000000E+00 0. -1.
         21    1    1    2  502  501  0.49057240894E+01  0.22724661566E+02  0.13156409633E+03  0.13360234959E+03  0.00000000000E+00 0.  1.
<scales pt_clust_5="13000.00000" pt_clust_6="13000.00000" pt_clust_7="13000.00000" pt_clust_8="13000.00000" pt_clust_9="23.24815"></scales>
<clustering>
<clus scale="   23.248">  1  9  2 -1</clus>
<clus scale="   89.309">  5  6 -1 -1</clus>
<clus scale="   89.671">  7  8 -1 -1</clus>
<clus scale="  100.149">  1  5  2 -1</clus>
<clus scale="   23.248">  1  5  2 -1</clus>
</clustering>
</event>
<event>
 9    1  0.1234700E-005  0.2516985E+03  0.7546771E-02  0.1112249E+00
          1   -1    0    0  502    0  0.00000000000E+00  0.00000000000E+00  0.89210054088E+03  0.89210054088E+03  0.00000000000E+00 0. -1.
         -1   -1    0    0    0  501 -0.00000000000E+00 -0.00000000000E+00 -0.91871158407E+02  0.91871158407E+02  0.00000000000E+00 0.  1.
         23    2    1    2    0    0 -0.14700843612E+03 -0.19389976096E+03  0.24206747392E+03  0.35471272995E+03  0.89531342383E+02 0.  0.
         23    2    1    2    0    0  0.12197611319E+03  0.18810281644E+03  0.38626972704E+03  0.45545694454E+03  0.89307807932E+02 0.  0.
        -11    1    4    4    0    0  0.78684852423E+02  0.94095073915E+02  0.12829682859E+03  0.17749722579E+03  0.00000000000E+00 0.  1.
         11    1    4    4    0    0  0.43291260772E+02  0.94007742526E+02  0.25797289845E+03  0.27795971875E+03  0.00000000000E+00 0. -1.
        -13    1    3    3    0    0 -0.58062070197E+00 -0.62244483900E+02  0.53628989081E+02  0.82163138732E+02  0.00000000000E+00 0. -1.
         13    1    3    3    0    0 -0.14642781542E+03 -0.13165527706E+03  0.18843848484E+03  0.27254959122E+03  0.00000000000E+00 0.  1.
         21    1    1    2  502  501  0.25032322925E+02  0.57969445234E+01  0.17189218152E+03  0.17380202480E+03  0.00000000000E+00 0. -1.
<scales pt_clust_5="13000.00000" pt_clust_6="13000.00000" pt_clust_7="13000.00000" pt_clust_8="13000.00000" pt_clust_9="25.69478"></scales>
<clustering>
<clus scale="   25.695">  1  9  2 -1</clus>
<clus scale="   89.308">  5  6 -1 -1</clus>
<clus scale="   89.531">  7  8 -1 -1</clus>
<clus scale="  251.619">  1  5  2 -1</clus>
<clus scale="   25.695">  1  5  2 -1</clus>
</clustering>
</event>
<event>
 9    1  0.1234700E-005  0.1701605E+03  0.7546771E-02  0.1204793E+00
         -1   -1    0    0    0  501 -0.00000000000E+00  0.00000000000E+00  0.58717887222E+03  0.58717887222E+03  0.00000000000E+00 0.  1.
          1   -1    0    0  502    0  0.00000000000E+00 -0.00000000000E+00 -0.23205095794E+03  0.23205095794E+03  0.00000000000E+00 0. -1.
         23    2    1    2    0    0  0.25251618361E+01 -0.16271827108E+02  0.16794412418E+03  0.19226062131E+03  0.92129088026E+02 0.  0.
         23    2    1    2    0    0  0.12806527733E+03 -0.45244765295E+02  0.36380857288E+03  0.39885856063E+03  0.91014667188E+02 0.  0.
        -11    1    4    4    0    0  0.51152455257E+02  0.25421056386E+02  0.10063191449E+03  0.11571337866E+03  0.00000000000E+00 0. -1.
         11    1    4    4    0    0  0.76912822076E+02 -0.70665821681E+02  0.26317665839E+03  0.28314518197E+03  0.00000000000E+00 0.  1.
        -13    1    3    3    0    0 -0.30291306690E+02  0.24132533372E+02  0.95508826965E+02  0.10306249782E+03  0.00000000000E+00 0. -1.
         13    1    3    3    0    0  0.32816468526E+02 -0.40404360479E+02  0.72435297214E+02  0.89198123493E+02  0.00000000000E+00 0.  1.
         21    1    1    2  502  501 -0.13059043917E+03  0.61516592403E+02 -0.17662478277E+03  0.22811064822E+03  0.00000000000E+00 0. -1.
<scales pt_clust_5="13000.00000" pt_clust_6="13000.00000" pt_clust_7="13000.00000" pt_clust_8="13000.00000" pt_clust_9="143.77388"></scales>
<clustering>
<clus scale="   91.015">  5  6 -1 -1</clus>
<clus scale="   92.129">  7  8 -1 -1</clus>
<clus scale="   93.589">  1  7  2 -1</clus>
<clus scale="  143.774">  2  9  1 -1</clus>
<clus scale="  143.774">  2  5  1 -1</clus>
</clustering>
</event>
<event>
 9    1  0.1234700E-005  0.1094725E+03  0.7546771E-02  0.1261843E+00
         -1   -1    0    0    0  501 -0.00000000000E+00  0.00000000000E+00  0.43097619443E+02  0.43097619443E+02  0.00000000000E+00 0.  1.
          1   -1    0    0  502    0  0.00000000000E+00 -0.00000000000E+00 -0.52428018893E+03  0.52428018893E+03  0.00000000000E+00 0. -1.
         23    2    1    2    0    0  0.12951581824E+02  0.25617064734E+02 -0.15089633499E+03  0.17912276711E+03  0.92148164968E+02 0.  0.
         23    2    1    2    0    0 -0.46445437426E+02 -0.81621417812E+02 -0.16606998448E+03  0.21154821429E+03  0.91401163687E+02 0.  0.
        -11    1    3    3    0    0 -0.13358664715E+02 -0.30191420353E+02 -0.36998582154E+02  0.49587003008E+02  0.00000000000E+00 0.  1.
         11    1    3    3    0    0  0.26310246540E+02  0.55808485087E+02 -0.11389775284E+03  0.12953576410E+03  0.00000000000E+00 0. -1.
        -13    1    4    4    0    0 -0.50553805922E+01 -0.45848463438E+02 -0.11436814793E+02  0.47523038678E+02  0.00000000000E+00 0.  1.
         13    1    4    4    0    0 -0.41390056834E+02 -0.35772954373E+02 -0.15463316968E+03  0.16402517561E+03  0.00000000000E+00 0. -1.
         21    1    1    2  502  501  0.33493855601E+02  0.56004353078E+02 -0.16421625002E+03  0.17670682697E+03  0.00000000000E+00 0. -1.
<scales pt_clust_5="13000.00000" pt_clust_6="13000.00000" pt_clust_7="13000.00000" pt_clust_8="13000.00000" pt_clust_9="65.25585"></scales>
<clustering>
<clus scale="   65.256">  2  9  1 -1</clus>
<clus scale="   91.401">  7  8 -1 -1</clus>
<clus scale="   92.148">  5  6 -1 -1</clus>
<clus scale="  108.844">  2  7  1 -1</clus>
<clus scale="   65.256">  2  5  1 -1</clus>
</clustering>
</event>
<event>
 9    1  0.1234700E-005  0.1182529E+03  0.7546771E-02  0.1247225E+00
          1   -1    0    0  502    0  0.00000000000E+00  0.00000000000E+00  0.48098028487E+03  0.48098028487E+03  0.00000000000E+00 0. -1.
         -1   -1    0    0    0  501 -0.00000000000E+00 -0.00000000000E+00 -0.74034879857E+02  0.74034879857E+02  0.00000000000E+00 0.  1.
         23    2    1    2    0    0 -0.52078368689E+02 -0.47111401009E+02 -0.32761434630E+01  0.11635532099E+03  0.92715624446E+02 0.  0.
         23    2    1    2    0    0  0.70658548886E+02  0.62707640969E+02  0.36402812708E+03  0.38648419830E+03  0.89043132574E+02 0.  0.
        -13    1    3    3    0    0  0.43011350597E-01  0.22477261341E+02 -0.17200654534E+02  0.28303562386E+02  0.00000000000E+00 0. -1.
         13    1    3    3    0    0 -0.52121380040E+02 -0.69588662349E+02  0.13924511071E+02  0.88051758604E+02  0.00000000000E+00 0.  1.
        -13    1    4    4    0    0  0.34917401122E+02 -0.19626128157E+02  0.11448291089E+03  0.12128786705E+03  0.00000000000E+00 0.  1.
         13    1    4    4    0    0  0.35741147764E+02  0.82333769126E+02  0.24954521619E+03  0.26519633125E+03  0.00000000000E+00 0. -1.
         21    1    1    2  502  501 -0.18580180197E+02 -0.15596239961E+02  0.46193421392E+02  0.52175645439E+02  0.00000000000E+00 0.  1.
<scales pt_clust_5="13000.00000" pt_clust_6="13000.00000" pt_clust_7="13000.00000" pt_clust_8="13000.00000" pt_clust_9="24.25831"></scales>
<clustering>
<clus scale="   24.258">  1  9  2 -1</clus>
<clus scale="   89.043">  7  8 -1 -1</clus>
<clus scale="   92.716">  5  6 -1 -1</clus>
<clus scale="  115.396">  1  7  2 -1</clus>
<clus scale="   24.258">  1  5  2 -1</clus>
</clustering>
</event>
<event>
 9    1  0.1234700E-005  0.1394727E+03  0.7546771E-02  0.1232403E+00
          1   -1    0    0  502    0  0.00000000000E+00  0.00000000000E+00  0.68977578740E+03  0.68977578740E+03  0.00000000000E+00 0. -1.
         -1   -1    0    0    0  501 -0.00000000000E+00 -0.00000000000E+00 -0.52057662454E+02  0.52057662454E+02  0.00000000000E+00 0.  1.
         23    2    1    2    0    0  0.11241589203E+02  0.25151050251E+02  0.58012995051E+02  0.11135240652E+03  0.90966489358E+02 0.  0.
         23    2    1    2    0    0 -0.30202549193E+02 -0.11861909690E+03  0.35593978066E+03  0.38723893089E+03  0.90984493267E+02 0.  0.
        -11    1    4    4    0    0 -0.46164657074E+02 -0.30403969670E+02  0.19862767519E+03  0.20617596922E+03  0.00000000000E+00 0. -1.
         11    1    4    4    0    0  0.15962107881E+02 -0.88215127229E+02  0.15731210547E+03  0.18106296166E+03  0.00000000000E+00 0.  1.
        -13    1    3    3    0    0 -0.27485842403E+02  0.37629652711E+02  0.52653833692E+02  0.70312790431E+02  0.00000000000E+00 0. -1.
         13    1    3    3    0    0  0.38727431606E+02 -0.12478602460E+02  0.53591613585E+01  0.41039616087E+02  0.00000000000E+00 0.  1.
         21    1    1    2  502  501  0.18960959990E+02  0.93468046647E+02  0.22376534924E+03  0.24324211245E+03  0.00000000000E+00 0.  1.
<scales pt_clust_5="13000.00000" pt_clust_6="13000.00000" pt_clust_7="13000.00000" pt_clust_8="13000.00000" pt_clust_9="105.70928"></scales>
<clustering>
<clus scale="   90.966">  7  8 -1 -1</clus>
<clus scale="   90.984">  5  6 -1 -1</clus>
<clus scale="   95.047">  2  7  1 -1</clus>
<clus scale="  105.709">  1  9  2 -1</clus>
<clus scale="  105.709">  1  5  2 -1</clus>
</clustering>
</event>
<event>
 9    1  0.1234700E-005  0.1051621E+03  0.7546771E-02  0.1270417E+00
          1   -1    0    0  502    0  0.00000000000E+00  0.00000000000E+00  0.37311896534E+02  0.37311896534E+02  0.00000000000E+00 0. -1.
         -1   -1    0    0    0  501 -0.00000000000E+00 -0.00000000000E+00 -0.48119524101E+03  0.48119524101E+03  0.00000000000E+00 0.  1.
         23    2    1    2    0    0  0.45452247887E+02  0.34725881614E+01 -0.27860756702E+03  0.29600807082E+03  0.88997954395E+02 0.  0.
         23    2    1    2    0    0 -0.72568484034E+02  0.83478779403E+01 -0.14813662245E+03  0.18831187151E+03  0.90449046985E+02 0.  0.
        -13    1    3    3    0    0  0.35810399892E+02 -0.29693857005E+02 -0.23887022604E+03  0.24335795605E+03  0.00000000000E+00 0.  1.
         13    1    3    3    0    0  0.96418479950E+01  0.33166445167E+02 -0.39737340980E+02  0.52650114775E+02  0.00000000000E+00 0. -1.
        -13    1    4    4    0    0 -0.15898051100E+02 -0.33716044108E+02 -0.88075816127E+02  0.95639265187E+02  0.00000000000E+00 0.  1.
         13    1    4    4    0    0 -0.56670432934E+02  0.42063922048E+02 -0.60060806323E+02  0.92672606325E+02  0.00000000000E+00 0. -1.
         21    1    1    2  502  501  0.27116236147E+02 -0.11820466102E+02 -0.17139155005E+02  0.34187195204E+02  0.00000000000E+00 0. -1.
<scales pt_clust_5="13000.00000" pt_clust_6="13000.00000" pt_clust_7="13000.00000" pt_clust_8="13000.00000" pt_clust_9="29.58063"></scales>
<clustering>
<clus scale="   29.581">  1  9  2 -1</clus>
<clus scale="   88.998">  5  6 -1 -1</clus>
<clus scale="   90.449">  7  8 -1 -1</clus>
<clus scale="  103.917">  2  5  1 -1</clus>
<clus scale="   29.581">  1  5  2 -1</clus>
</clustering>
</event>
<event>
 9    1  0.1234700E-005  0.1807776E+03  0.7546771E-02  0.1193376E+00
         -1   -1    0    0    0  501 -0.00000000000E+00  0.00000000000E+00  0.55783782121E+03  0.55783782121E+03  0.00000000000E+00 0.  1.
          1   -1    0    0  502    0  0.00000000000E+00 -0.00000000000E+00 -0.20300747242E+03  0.20300747242E+03  0.00000000000E+00 0. -1.
         23    2    1    2    0    0 -0.26471875196E+02  0.15722166342E+03  0.45600954113E+03  0.49148319510E+03  0.90507556787E+02 0.  0.
         23    2    1    2    0    0  0.12846276381E+01 -0.25751105711E+02  0.24398868159E+01  0.10008180272E+03  0.96672873523E+02 0.  0.
        -11    1    4    4    0    0 -0.38556382216E+02  0.16067389006E+02  0.60695768665E+01  0.42208948842E+02  0.00000000000E+00 0.  1.
         11    1    4    4    0    0  0.39841009854E+02 -0.41818494717E+02 -0.36296900506E+01  0.57872853882E+02  0.00000000000E+00 0. -1.
        -13    1    3    3    0    0 -0.73381887954E+00  0.24394325236E+02  0.11766265761E+02  0.27093663536E+02  0.00000000000E+00 0. -1.
         13    1    3    3    0    0 -0.25738056317E+02  0.13282733819E+03  0.44424327537E+03  0.46438953156E+03  0.00000000000E+00 0.  1.
         21    1    1    2  502  501  0.25187247558E+02 -0.13147055771E+03 -0.10361907916E+03  0.16928029581E+03  0.00000000000E+00 0. -1.
<scales pt_clust_5="13000.00000" pt_clust_6="13000.00000" pt_clust_7="13000.00000" pt_clust_8="13000.00000" pt_clust_9="156.48935"></scales>
<clustering>
<clus scale="   90.508">  7  8 -1 -1</clus>
<clus scale="   96.673">  5  6 -1 -1</clus>
<clus scale="  100.052">  2  5  1 -1</clus>
<clus scale="  156.489">  2  9  1 -1</clus>
<clus scale="  100.052">  2  5  1 -1</clus>
</clustering>
</event>
<event>
 9    1  0.1234700E-005  0.1179794E+03  0.7546771E-02  0.1252700E+00
         -1   -1    0    0    0  501 -0.00000000000E+00  0.00000000000E+00  0.17786881480E+03  0.17786881480E+03  0.00000000000E+00 0.  1.
          1   -1    0    0  502    0  0.00000000000E+00 -0.00000000000E+00 -0.15513427460E+03  0.15513427460E+03  0.00000000000E+00 0. -1.
         23    2    1    2    0    0 -0.72829834206E+02 -0.68676196637E+01  0.29938888252E+02  0.13270382859E+03  0.10659559157E+03 0.  0.
         23    2    1    2    0    0  0.15361915038E+02 -0.59239941001E+02 -0.20755375776E+02  0.11166291577E+03  0.91062956745E+02 0.  0.
        -11    1    4    4    0    0  0.11146776223E+02 -0.83819709111E+02 -0.18977422475E+02  0.86661045570E+02  0.00000000000E+00 0.  1.
         11    1    4    4    0    0  0.42151388155E+01  0.24579768109E+02 -0.17779533010E+01  0.25001870200E+02  0.00000000000E+00 0. -1.
        -13    1    3    3    0    0 -0.63424549945E+02  0.43921862059E+02  0.12300982008E+02  0.78122452987E+02  0.00000000000E+00 0. -1.
         13    1    3    3    0    0 -0.94052842611E+01 -0.50789481722E+02  0.17637906244E+02  0.54581375599E+02  0.00000000000E+00 0.  1.
         21    1    1    2  502  501  0.57467919167E+02  0.66107560665E+02  0.13551027729E+02  0.88636345045E+02  0.00000000000E+00 0.  1.
<scales pt_clust_5="13000.00000" pt_clust_6="13000.00000" pt_clust_7="13000.00000" pt_clust_8="13000.00000" pt_clust_9="87.59436"></scales>
<clustering>
<clus scale="   87.594">  1  9  2 -1</clus>
<clus scale="   91.063">  5  6 -1 -1</clus>
<clus scale="  104.158">  2  5  1 -1</clus>
<clus scale="  106.596">  7  8 -1 -1</clus>
<clus scale="  104.158">  2  5  1 -1</clus>
</clustering>
</event>
<event>
 9    1  0.1234700E-005  0.2079074E+03  0.7546771E-02  0.1143266E+00
         -2   -1    0    0    0  501 -0.00000000000E+00  0.00000000000E+00  0.30471270630E+03  0.30471270630E+03  0.00000000000E+00 0.  1.
          2   -1    0    0  502    0  0.00000000000E+00 -0.00000000000E+00 -0.51022518022E+03  0.51022518022E+03  0.00000000000E+00 0. -1.
         23    2    1    2    0    0  0.10483209882E+03  0.15561025932E+03  0.23829445719E+03  0.31660789161E+03  0.90840447788E+02 0.  0.
         23    2    1    2    0    0 -0.11830199281E+03 -0.13737996042E+03 -0.41360205503E+03  0.46056603880E+03  0.90475417346E+02 0.  0.
        -13    1    4    4    0    0 -0.77071834767E+01 -0.49624498747E+02 -0.18662002469E+03  0.19325895883E+03  0.00000000000E+00 0.  1.
         13    1    4    4    0    0 -0.11059480933E+03 -0.87755461668E+02 -0.22698203033E+03  0.26730707996E+03  0.00000000000E+00 0. -1.
        -13    1    3    3    0    0  0.83037329973E+02  0.66302509652E+02  0.17590070799E+03  0.20550493918E+03  0.00000000000E+00 0.  1.
         13    1    3    3    0    0  0.21794768844E+02  0.89307749666E+02  0.62393749194E+02  0.11110295243E+03  0.00000000000E+00 0. -1.
         21    1    1    2  502  501  0.13469893993E+02 -0.18230298902E+02 -0.30204876084E+02  0.37763956115E+02  0.00000000000E+00 0. -1.
<scales pt_clust_5="13000.00000" pt_clust_6="13000.00000" pt_clust_7="13000.00000" pt_clust_8="13000.00000" pt_clust_9="22.66676"></scales>
<clustering>
<clus scale="   22.667">  2  9  1 -1</clus>
<clus scale="   90.475">  5  6 -1 -1</clus>
<clus scale="   90.840">  7  8 -1 -1</clus>
<clus scale="  207.748">  2  5  1 -1</clus>
<clus scale="   22.667">  2  5  1 -1</clus>
</clustering>
</event>
<event>
 9    1  0.1234700E-005  0.9290843E+02  0.7546771E-02  0.1296553E+00
          1   -1    0    0  502    0  0.00000000000E+00  0.00000000000E+00  0.55035199441E+02  0.55035199441E+02  0.00000000000E+00 0. -1.
         -1   -1    0    0    0  501 -0.00000000000E+00 -0.00000000000E+00 -0.27222012865E+03  0.27222012865E+03  0.00000000000E+00 0.  1.
         23    2    1    2    0    0 -0.18073023579E+02 -0.14483418553E+01 -0.14458499326E+03  0.17123670866E+03  0.89935856266E+02 0.  0.
         23    2    1    2    0    0  0.64308810347E+01  0.32864652150E+02 -0.74791115009E+02  0.12244295411E+03  0.90978703750E+02 0.  0.
        -11    1    4    4    0    0  0.44651087381E+02  0.29033707380E+02 -0.62494192273E+02  0.82110899620E+02  0.00000000000E+00 0. -1.
         11    1    4    4    0    0 -0.38220206346E+02  0.38309447703E+01 -0.12296922736E+02  0.40332054495E+02  0.00000000000E+00 0.  1.
        -13    1    3    3    0    0 -0.39404592773E+02  0.86836840988E+01 -0.14183349752E+03  0.14746141638E+03  0.00000000000E+00 0.  1.
         13    1    3    3    0    0  0.21331569195E+02 -0.10132025954E+02 -0.27514957340E+01  0.23775292280E+02  0.00000000000E+00 0. -1.
         21    1    1    2  502  501  0.11642142544E+02 -0.31416310295E+02  0.21911790616E+01  0.33575665313E+02  0.00000000000E+00 0. -1.
<scales pt_clust_5="13000.00000" pt_clust_6="13000.00000" pt_clust_7="13000.00000" pt_clust_8="13000.00000" pt_clust_9="33.50409"></scales>
<clustering>
<clus scale="   33.504">  1  9  2 -1</clus>
<clus scale="   89.936">  7  8 -1 -1</clus>
<clus scale="   90.979">  5  6 -1 -1</clus>
<clus scale="   91.887">  2  7  1 -1</clus>
<clus scale="   33.504">  1  5  2 -1</clus>
</clustering>
</event>
<event>
 9    1  0.1234700E-005  0.1034462E+03  0.7546771E-02  0.1273865E+00
          3   -1    0    0  502    0  0.00000000000E+00  0.00000000000E+00  0.38355399259E+03  0.38355399259E+03  0.00000000000E+00 0. -1.
         -3   -1    0    0    0  501 -0.00000000000E+00 -0.00000000000E+00 -0.10060712032E+03  0.10060712032E+03  0.00000000000E+00 0.  1.
         23    2    1    2    0    0 -0.16788087538E+02  0.57308109179E+02 -0.43039232115E+02  0.11488722263E+03  0.88207931401E+02 0.  0.
         23    2    1    2    0    0 -0.20293872890E+01 -0.28259260073E+02  0.88097465943E+02  0.12888059317E+03  0.89701391280E+02 0.  0.
        -13    1    3    3    0    0 -0.14001013416E+02 -0.22270297123E+02 -0.55895375174E+01  0.26893074206E+02  0.00000000000E+00 0. -1.
         13    1    3    3    0    0 -0.27870741221E+01  0.79578406302E+02 -0.37449694598E+02  0.87994148426E+02  0.00000000000E+00 0.  1.
        -13    1    4    4    0    0 -0.32396214781E+02  0.17876349638E+02  0.23250096814E+02  0.43699492106E+02  0.00000000000E+00 0.  1.
         13    1    4    4    0    0  0.30366827492E+02 -0.46135609711E+02  0.64847369129E+02  0.85181101063E+02  0.00000000000E+00 0. -1.
         21    1    1    2  502  501  0.18817474827E+02 -0.29048849106E+02  0.23788863845E+03  0.24039329711E+03  0.00000000000E+00 0. -1.
<scales pt_clust_5="13000.00000" pt_clust_6="13000.00000" pt_clust_7="13000.00000" pt_clust_8="13000.00000" pt_clust_9="34.61117"></scales>
<clustering>
<clus scale="   34.611">  1  9  2 -1</clus>
<clus scale="   88.208">  5  6 -1 -1</clus>
<clus scale="   89.701">  7  8 -1 -1</clus>
<clus scale="  102.154">  2  5  1 -1</clus>
<clus scale="   34.611">  1  5  2 -1</clus>
</clustering>
</event>
<event>
 9    1  0.1234700E-005  0.5628469E+03  0.7546771E-02  0.1050622E+00
         -2   -1    0    0    0  501 -0.00000000000E+00  0.00000000000E+00  0.43686135608E+03  0.43686135608E+03  0.00000000000E+00 0.  1.
          2   -1    0    0  502    0  0.00000000000E+00 -0.00000000000E+00 -0.89091871979E+03  0.89091871979E+03  0.00000000000E+00 0. -1.
         23    2    1    2    0    0 -0.38285378633E+03 -0.39737735827E+03 -0.15508735259E+03  0.58106314200E+03  0.95375581157E+02 0.  0.
         23    2    1    2    0    0 -0.56622100553E+02  0.49471651766E+02 -0.90474919840E+02  0.14868044764E+03  0.90921162504E+02 0.  0.
        -11    1    4    4    0    0 -0.87632056749E+01  0.52994848611E+02 -0.94917163681E+01  0.54546681225E+02  0.00000000000E+00 0.  1.
         11    1    4    4    0    0 -0.47858894878E+02 -0.35231968455E+01 -0.80983203472E+02  0.94133766416E+02  0.00000000000E+00 0. -1.
        -13    1    3    3    0    0 -0.62969812153E+02 -0.48321270764E+02  0.92076718995E+01  0.79905717396E+02  0.00000000000E+00 0.  1.
         13    1    3    3    0    0 -0.31988397418E+03 -0.34905608751E+03 -0.16429502449E+03  0.50115742460E+03  0.00000000000E+00 0. -1.
         21    1    1    2  502  501  0.43947588688E+03  0.34790570651E+03 -0.20849509128E+03  0.59803648623E+03  0.00000000000E+00 0.  1.
<scales pt_clust_5="13000.00000" pt_clust_6="13000.00000" pt_clust_7="13000.00000" pt_clust_8="13000.00000" pt_clust_9="554.70722"></scales>
<clustering>
<clus scale="   90.921">  5  6 -1 -1</clus>
<clus scale="   95.376">  7  8 -1 -1</clus>
<clus scale="  117.984">  2  5  1 -1</clus>
<clus scale="  554.707">  2  9  1 -1</clus>
<clus scale="  117.984">  2  5  1 -1</clus>
</clustering>
</event>
<event>
 9    1  0.1234700E-005  0.1255862E+03  0.7546771E-02  0.1235141E+00
         -1   -1    0    0    0  501 -0.00000000000E+00  0.00000000000E+00  0.36845232345E+02  0.36845232345E+02  0.00000000000E+00 0.  1.
          1   -1    0    0  502    0  0.00000000000E+00 -0.00000000000E+00 -0.56992679819E+03  0.56992679819E+03  0.00000000000E+00 0. -1.
         23    2    1    2    0    0  0.79275865787E+02 -0.45876644106E+02 -0.18019682688E+03  0.22329546385E+03  0.94871694334E+02 0.  0.
         23    2    1    2    0    0 -0.64728171912E+02  0.30763822853E+02 -0.21881304011E+03  0.24777375464E+03  0.91523428326E+02 0.  0.
        -11    1    3    3    0    0  0.63182211028E+02 -0.61839199860E+02 -0.75765261538E+02  0.11643218320E+03  0.00000000000E+00 0.  1.
         11    1    3    3    0    0  0.16093654758E+02  0.15962555754E+02 -0.10443156534E+03  0.10686328064E+03  0.00000000000E+00 0. -1.
        -13    1    4    4    0    0  0.17123706922E+02  0.25674578671E+02 -0.89268363802E+02  0.94452348328E+02  0.00000000000E+00 0.  1.
         13    1    4    4    0    0 -0.81851878834E+02  0.50892441812E+01 -0.12954467631E+03  0.15332140632E+03  0.00000000000E+00 0. -1.
         21    1    1    2  502  501 -0.14547693875E+02  0.15112821254E+02 -0.13407169886E+03  0.13570281205E+03  0.00000000000E+00 0. -1.
<scales pt_clust_5="13000.00000" pt_clust_6="13000.00000" pt_clust_7="13000.00000" pt_clust_8="13000.00000" pt_clust_9="20.97696"></scales>
<clustering>
<clus scale="   20.977">  2  9  1 -1</clus>
<clus scale="   91.523">  7  8 -1 -1</clus>
<clus scale="   94.872">  5  6 -1 -1</clus>
<clus scale="  123.076">  2  7  1 -1</clus>
<clus scale="   20.977">  2  5  1 -1</clus>
</clustering>
</event>
<event>
 9    1  0.1234700E-005  0.1408336E+03  0.7546771E-02  0.1212434E+00
         -1   -1    0    0    0  501 -0.00000000000E+00  0.00000000000E+00  0.17251529567E+03  0.17251529567E+03  0.00000000000E+00 0.  1.
          1   -1    0    0  502    0  0.00000000000E+00 -0.00000000000E+00 -0.31198876674E+03  0.31198876674E+03  0.00000000000E+00 0. -1.
         23    2    1    2    0    0 -0.24761198688E+02 -0.10251413019E+03  0.10975858375E+03  0.17636544993E+03  0.89081767909E+02 0.  0.
         23    2    1    2    0    0  0.25878655755E+02  0.12368089143E+03 -0.19063641951E+03  0.24582706484E+03  0.90122325957E+02 0.  0.
        -11    1    3    3    0    0  0.22732993444E+01 -0.10883551353E+03  0.76549310578E+02  0.13307942683E+03  0.00000000000E+00 0. -1.
         11    1    3    3    0    0 -0.27034498033E+02  0.63213833416E+01  0.33209273175E+02  0.43286023103E+02  0.00000000000E+00 0.  1.
        -13    1    4    4    0    0  0.44087480040E+02  0.11014201654E+03 -0.18890613177E+03  0.22307060838E+03  0.00000000000E+00 0.  1.
         13    1    4    4    0    0 -0.18208824284E+02  0.13538874883E+02 -0.17302877456E+01  0.22756456459E+02  0.00000000000E+00 0. -1.
         21    1    1    2  502  501 -0.11174570671E+01 -0.21166761234E+02 -0.58595635313E+02  0.62311547639E+02  0.00000000000E+00 0.  1.
<scales pt_clust_5="13000.00000" pt_clust_6="13000.00000" pt_clust_7="13000.00000" pt_clust_8="13000.00000" pt_clust_9="21.19624"></scales>
<clustering>
<clus scale="   21.196">  2  9  1 -1</clus>
<clus scale="   89.082">  5  6 -1 -1</clus>
<clus scale="   90.122">  7  8 -1 -1</clus>
<clus scale="  140.170">  1  5  2 -1</clus>
<clus scale="   21.196">  2  5  1 -1</clus>
</clustering>
</event>
<event>
 9    1  0.1234700E-005  0.9663302E+02  0.7546771E-02  0.1288516E+00
         -2   -1    0    0    0  501 -0.00000000000E+00  0.00000000000E+00  0.31911076463E+02  0.31911076463E+02  0.00000000000E+00 0.  1.
          2   -1    0    0  502    0  0.00000000000E+00 -0.00000000000E+00 -0.49618379310E+03  0.49618379310E+03  0.00000000000E+00 0. -1.
         23    2    1    2    0    0 -0.39323937348E+01  0.22516247567E+02 -0.85218460870E+02  0.12905170704E+03  0.94179147857E+02 0.  0.
         23    2    1    2    0    0 -0.18184805129E+02 -0.15624482405E+02 -0.34424819284E+03  0.35723253075E+03  0.92376680859E+02 0.  0.
        -11    1    4    4    0    0  0.12235685024E+02  0.34515472419E+02 -0.14285543547E+03  0.14747442242E+03  0.00000000000E+00 0.  1.
         11    1    4    4    0    0 -0.30420490153E+02 -0.50139954825E+02 -0.20139275737E+03  0.20975810833E+03  0.00000000000E+00 0. -1.
        -11    1    3    3    0    0  0.30236257429E+02 -0.15570251420E+02 -0.66272336028E+02  0.74489506074E+02  0.00000000000E+00 0. -1.
         11    1    3    3    0    0 -0.34168651164E+02  0.38086498987E+02 -0.18946124842E+02  0.54562200963E+02  0.00000000000E+00 0.  1.
         21    1    1    2  502  501  0.22117198864E+02 -0.68917651623E+01 -0.34806062922E+02  0.41810631767E+02  0.00000000000E+00 0. -1.
<scales pt_clust_5="13000.00000" pt_clust_6="13000.00000" pt_clust_7="13000.00000" pt_clust_8="13000.00000" pt_clust_9="23.16607"></scales>
<clustering>
<clus scale="   23.166">  1  9  2 -1</clus>
<clus scale="   92.377">  5  6 -1 -1</clus>
<clus scale="   94.179">  7  8 -1 -1</clus>
<clus scale="   94.877">  2  5  1 -1</clus>
<clus scale="   94.877">  2  5  1 -1</clus>
</clustering>
</event>
<event>
 9    1  0.1234700E-005  0.1000562E+03  0.7546771E-02  0.1280468E+00
          2   -1    0    0  502    0  0.00000000000E+00  0.00000000000E+00  0.67136271035E+03  0.67136271035E+03  0.00000000000E+00 0. -1.
         -2   -1    0    0    0  501 -0.00000000000E+00 -0.00000000000E+00 -0.58010581600E+02  0.58010581600E+02  0.00000000000E+00 0.  1.
         23    2    1    2    0    0 -0.34783369120E+02  0.29961354703E+01  0.65251424423E+01  0.97803621798E+02  0.91126897006E+02 0.  0.
         23    2    1    2    0    0  0.82732038980E+02 -0.17471149332E+02  0.44653332295E+03  0.46363319561E+03  0.91727314565E+02 0.  0.
        -11    1    4    4    0    0 -0.13889544091E+02  0.16743878226E+02  0.63548395802E+02  0.67169007006E+02  0.00000000000E+00 0.  1.
         11    1    4    4    0    0  0.96621583071E+02 -0.34215027558E+02  0.38298492714E+03  0.39646418860E+03  0.00000000000E+00 0. -1.
        -13    1    3    3    0    0 -0.61820525218E+02  0.18396250340E+02  0.13544145529E+02  0.65906321722E+02  0.00000000000E+00 0. -1.
         13    1    3    3    0    0  0.27037156098E+02 -0.15400114869E+02 -0.70190030865E+01  0.31897300077E+02  0.00000000000E+00 0.  1.
         21    1    1    2  502  501 -0.47948669860E+02  0.14475013862E+02  0.16029366336E+03  0.16793647454E+03  0.00000000000E+00 0.  1.
<scales pt_clust_5="13000.00000" pt_clust_6="13000.00000" pt_clust_7="13000.00000" pt_clust_8="13000.00000" pt_clust_9="50.08594"></scales>
<clustering>
<clus scale="   50.086">  1  9  2 -1</clus>
<clus scale="   91.127">  7  8 -1 -1</clus>
<clus scale="   91.727">  5  6 -1 -1</clus>
<clus scale="   99.506">  2  7  1 -1</clus>
<clus scale="   50.086">  1  5  2 -1</clus>
</clustering>
</event>
<event>
 9    1  0.1234700E-005  0.2094950E+03  0.7546771E-02  0.1142302E+00
          1   -1    0    0  502    0  0.00000000000E+00  0.00000000000E+00  0.60989115229E+03  0.60989115229E+03  0.00000000000E+00 0. -1.
         -1   -1    0    0    0  501 -0.00000000000E+00 -0.00000000000E+00 -0.12378004190E+03  0.12378004190E+03  0.00000000000E+00 0.  1.
         23    2    1    2    0    0  0.11199803656E+03 -0.14653714093E+03  0.20093527833E+02  0.20505503632E+03  0.87333408228E+02 0.  0.
         23    2    1    2    0    0 -0.13352570330E+03  0.15489483157E+03  0.39658964293E+03  0.45544833550E+03  0.91259624947E+02 0.  0.
        -11    1    4    4    0    0 -0.31359961134E+02  0.10235237076E+03  0.16101108729E+03  0.19334948977E+03  0.00000000000E+00 0.  1.
         11    1    4    4    0    0 -0.10216574216E+03  0.52542460810E+02  0.23557855564E+03  0.26209884573E+03  0.00000000000E+00 0. -1.
        -13    1    3    3    0    0  0.38639570875E+02 -0.51793987699E+02 -0.34644688319E+02  0.73320447543E+02  0.00000000000E+00 0.  1.
         13    1    3    3    0    0  0.73358465681E+02 -0.94743153235E+02  0.54738216152E+02  0.13173458877E+03  0.00000000000E+00 0. -1.
         21    1    1    2  502  501  0.21527666740E+02 -0.83576906350E+01  0.69427939631E+02  0.73167822363E+02  0.00000000000E+00 0.  1.
<scales pt_clust_5="13000.00000" pt_clust_6="13000.00000" pt_clust_7="13000.00000" pt_clust_8="13000.00000" pt_clust_9="23.09310"></scales>
<clustering>
<clus scale="   23.093">  1  9  2 -1</clus>
<clus scale="   87.333">  7  8 -1 -1</clus>
<clus scale="   91.260">  5  6 -1 -1</clus>
<clus scale="  207.815">  2  7  1 -1</clus>
<clus scale="   23.093">  1  5  2 -1</clus>
</clustering>
</event>
<event>
 9    1  0.1234700E-005  0.1210650E+03  0.7546771E-02  0.1247384E+00
         -1   -1    0    0    0  501 -0.00000000000E+00  0.00000000000E+00  0.25620783946E+02  0.25620783946E+02  0.00000000000E+00 0.  1.
          1   -1    0    0  502    0  0.00000000000E+00 -0.00000000000E+00 -0.73056329883E+03  0.73056329883E+03  0.00000000000E+00 0. -1.
         23    2    1    2    0    0 -0.80930222261E+01 -0.69158889734E+02 -0.17397078543E+03  0.20615152011E+03  0.85931170254E+02 0.  0.
         23    2    1    2    0    0  0.23245366343E+02  0.49223501758E+02 -0.39399398185E+03  0.41078488202E+03  0.10271154456E+03 0.  0.
        -13    1    3    3    0    0  0.30815947735E+02 -0.58991232911E+02 -0.80865127012E+02  0.10473183356E+03  0.00000000000E+00 0.  1.
         13    1    3    3    0    0 -0.38908969961E+02 -0.10167656823E+02 -0.93105658423E+02  0.10141968655E+03  0.00000000000E+00 0. -1.
        -13    1    4    4    0    0  0.57016289284E+02  0.95660121780E+01 -0.13932717049E+03  0.15084570352E+03  0.00000000000E+00 0.  1.
         13    1    4    4    0    0 -0.33770922941E+02  0.39657489580E+02 -0.25466681135E+03  0.25993917850E+03  0.00000000000E+00 0. -1.
         21    1    1    2  502  501 -0.15152344117E+02  0.19935387976E+02 -0.13697774760E+03  0.13924768064E+03  0.00000000000E+00 0. -1.
<scales pt_clust_5="13000.00000" pt_clust_6="13000.00000" pt_clust_7="13000.00000" pt_clust_8="13000.00000" pt_clust_9="25.04023"></scales>
<clustering>
<clus scale="   25.040">  2  9  1 -1</clus>
<clus scale="   85.931">  5  6 -1 -1</clus>
<clus scale="  102.712">  7  8 -1 -1</clus>
<clus scale="  107.197">  1  5  2 -1</clus>
<clus scale="   25.040">  2  5  1 -1</clus>
</clustering>
</event>
<event>
 9    1  0.1234700E-005  0.2012416E+03  0.7546771E-02  0.1160590E+00
          1   -1    0    0  502    0  0.00000000000E+00  0.00000000000E+00  0.37488758798E+03  0.37488758798E+03  0.00000000000E+00 0. -1.
         -1   -1    0    0    0  501 -0.00000000000E+00 -0.00000000000E+00 -0.27538418507E+03  0.27538418507E+03  0.00000000000E+00 0.  1.
         23    2    1    2    0    0 -0.11951541748E+03 -0.32694250769E+02 -0.11953613588E+03  0.19350340384E+03  0.88327971033E+02 0.  0.
         23    2    1    2    0    0 -0.10853793397E+03  0.59818739607E+02  0.24276327209E+02  0.15564251913E+03  0.90975210799E+02 0.  0.
        -13    1    4    4    0    0 -0.53318812424E+02  0.74341600758E+02 -0.47152329025E+01  0.91606783498E+02  0.00000000000E+00 0.  1.
         13    1    4    4    0    0 -0.55219121546E+02 -0.14522861151E+02  0.28991560112E+02  0.64035735633E+02  0.00000000000E+00 0. -1.
        -13    1    3    3    0    0 -0.62163514986E+02  0.28410600812E+02 -0.52351069412E+02  0.86093549714E+02  0.00000000000E+00 0.  1.
         13    1    3    3    0    0 -0.57351902496E+02 -0.61104851581E+02 -0.67185066470E+02  0.10740985413E+03  0.00000000000E+00 0. -1.
         21    1    1    2  502  501  0.22805335145E+03 -0.27124488838E+02  0.19476321158E+03  0.30112585008E+03  0.00000000000E+00 0. -1.
<scales pt_clust_5="13000.00000" pt_clust_6="13000.00000" pt_clust_7="13000.00000" pt_clust_8="13000.00000" pt_clust_9="179.50403"></scales>
<clustering>
<clus scale="   88.328">  7  8 -1 -1</clus>
<clus scale="   90.975">  5  6 -1 -1</clus>
<clus scale="  152.167">  2  7  1 -1</clus>
<clus scale="  179.504">  1  9  2 -1</clus>
<clus scale="  179.504">  1  5  2 -1</clus>
</clustering>
</event>
<event>
 9    1  0.1234700E-005  0.9531443E+02  0.7546771E-02  0.1292401E+00
          3   -1    0    0  502    0  0.00000000000E+00  0.00000000000E+00  0.15310835974E+03  0.15310835974E+03  0.00000000000E+00 0. -1.
         -3   -1    0    0    0  501 -0.00000000000E+00 -0.00000000000E+00 -0.14352710133E+03  0.14352710133E+03  0.00000000000E+00 0.  1.
         23    2    1    2    0    0  0.10778592256E+01 -0.11667706847E+02 -0.78340732152E+02  0.11857549409E+03  0.88235935546E+02 0.  0.
         23    2    1    2    0    0  0.30184659505E+02  0.48044812567E+01  0.10419087510E+03  0.14215557244E+03  0.91751139571E+02 0.  0.
        -13    1    4    4    0    0  0.21843940323E+02 -0.24000558464E+02  0.10721145343E+03  0.11201553589E+03  0.00000000000E+00 0. -1.
         13    1    4    4    0    0  0.83407191818E+01  0.28805039721E+02 -0.30205783254E+01  0.30140036550E+02  0.00000000000E+00 0.  1.
        -13    1    3    3    0    0 -0.20163113723E+02  0.32728012753E+02 -0.24272683057E+02  0.45462480317E+02  0.00000000000E+00 0.  1.
         13    1    3    3    0    0  0.21240972949E+02 -0.44395719599E+02 -0.54068049095E+02  0.73113013776E+02  0.00000000000E+00 0. -1.
         21    1    1    2  502  501 -0.31262518730E+02  0.68632255898E+01 -0.16268884536E+02  0.35904394535E+02  0.00000000000E+00 0.  1.
<scales pt_clust_5="13000.00000" pt_clust_6="13000.00000" pt_clust_7="13000.00000" pt_clust_8="13000.00000" pt_clust_9="32.00701"></scales>
<clustering>
<clus scale="   32.007">  2  9  1 -1</clus>
<clus scale="   88.236">  7  8 -1 -1</clus>
<clus scale="   91.751">  5  6 -1 -1</clus>
<clus scale="   91.936">  2  7  1 -1</clus>
<clus scale="   95.314">  1  5  2 -1</clus>
</clustering>
</event>
<event>
 9    1  0.1234700E-005  0.1028430E+03  0.7546771E-02  0.1276050E+00
         -1   -1    0    0    0  501 -0.00000000000E+00  0.00000000000E+00  0.39953224914E+03  0.39953224914E+03  0.00000000000E+00 0.  1.
          1   -1    0    0  502    0  0.00000000000E+00 -0.00000000000E+00 -0.10949580272E+03  0.10949580272E+03  0.00000000000E+00 0. -1.
         23    2    1    2    0    0  0.36865460296E+02 -0.88050013901E+01  0.33513752671E+03  0.35024864959E+03  0.94447681411E+02 0.  0.
         23    2    1    2    0    0 -0.71942918685E+02  0.42011896172E+01 -0.41226209011E+02  0.12318954701E+03  0.91008959115E+02 0.  0.
        -11    1    3    3    0    0 -0.30748622294E+02  0.53099413969E+01  0.78384499500E+02  0.84367073035E+02  0.00000000000E+00 0. -1.
         11    1    3    3    0    0  0.67614082590E+02 -0.14114942787E+02  0.25675302721E+03  0.26588157656E+03  0.00000000000E+00 0.  1.
        -13    1    4    4    0    0 -0.51782626498E+02  0.19885839623E+02  0.18303258800E+02  0.58411439866E+02  0.00000000000E+00 0.  1.
         13    1    4    4    0    0 -0.20160292187E+02 -0.15684650006E+02 -0.59529467811E+02  0.64778107141E+02  0.00000000000E+00 0. -1.
         21    1    1    2  502  501  0.35077458389E+02  0.46038117729E+01 -0.38748712734E+01  0.35589855258E+02  0.00000000000E+00 0.  1.
<scales pt_clust_5="13000.00000" pt_clust_6="13000.00000" pt_clust_7="13000.00000" pt_clust_8="13000.00000" pt_clust_9="35.37829"></scales>
<clustering>
<clus scale="   35.378">  2  9  1 -1</clus>
<clus scale="   91.009">  7  8 -1 -1</clus>
<clus scale="   94.448">  5  6 -1 -1</clus>
<clus scale="   99.694">  2  7  1 -1</clus>
<clus scale="   35.378">  2  5  1 -1</clus>
</clustering>
</event>
<event>
 9    1  0.1234700E-005  0.1140741E+03  0.7546771E-02  0.1253491E+00
         -3   -1    0    0    0  501 -0.00000000000E+00  0.00000000000E+00  0.52814165630E+03  0.52814165630E+03  0.00000000000E+00 0.  1.
          3   -1    0    0  502    0  0.00000000000E+00 -0.00000000000E+00 -0.42359597721E+02  0.42359597721E+02  0.00000000000E+00 0. -1.
         23    2    1    2    0    0  0.34463582829E+02 -0.67469188848E+02  0.37465323370E+03  0.39288662529E+03  0.90857167169E+02 0.  0.
         23    2    1    2    0    0 -0.73640742545E+01  0.49631281720E+02  0.95674416654E+02  0.14167839312E+03  0.91660675107E+02 0.  0.
        -11    1    3    3    0    0  0.19967614429E+02 -0.89593984573E+02  0.28565858798E+03  0.30004435770E+03  0.00000000000E+00 0. -1.
         11    1    3    3    0    0  0.14495968400E+02  0.22124795725E+02  0.88994645718E+02  0.92842267595E+02  0.00000000000E+00 0.  1.
        -13    1    4    4    0    0  0.33870196328E+02  0.40168074652E+02  0.22505445927E+02  0.57159072044E+02  0.00000000000E+00 0.  1.
         13    1    4    4    0    0 -0.41234270583E+02  0.94632070683E+01  0.73168970727E+02  0.84519321080E+02  0.00000000000E+00 0. -1.
         21    1    1    2  502  501 -0.27099508575E+02  0.17837907129E+02  0.15454408220E+02  0.35936235601E+02  0.00000000000E+00 0.  1.
<scales pt_clust_5="13000.00000" pt_clust_6="13000.00000" pt_clust_7="13000.00000" pt_clust_8="13000.00000" pt_clust_9="32.44340"></scales>
<clustering>
<clus scale="   32.443">  2  9  1 -1</clus>
<clus scale="   90.857">  5  6 -1 -1</clus>
<clus scale="   91.661">  7  8 -1 -1</clus>
<clus scale="  113.429">  1  5  2 -1</clus>
<clus scale="   32.443">  2  5  1 -1</clus>
</clustering>
</event>
<event>
 9    1  0.1234700E-005  0.1289457E+03  0.7546771E-02  0.1229117E+00
         -1   -1    0    0    0  501 -0.00000000000E+00  0.00000000000E+00  0.28637235914E+03  0.28637235914E+03  0.00000000000E+00 0.  1.
          1   -1    0    0  502    0  0.00000000000E+00 -0.00000000000E+00 -0.83834678732E+02  0.83834678732E+02  0.00000000000E+00 0. -1.
         23    2    1    2    0    0  0.61069065414E+01  0.98905337094E+02  0.18007925050E+03  0.22486848357E+03  0.91201636119E+02 0.  0.
         23    2    1    2    0    0 -0.11298894249E+02 -0.72823497329E+02  0.18634875454E+02  0.11847149881E+03  0.90869745637E+02 0.  0.
        -11    1    4    4    0    0  0.37566936505E+02 -0.50246840939E+02  0.49656032290E+01  0.62933909446E+02  0.00000000000E+00 0. -1.
         11    1    4    4    0    0 -0.48865830754E+02 -0.22576656390E+02  0.13669272225E+02  0.55537589362E+02  0.00000000000E+00 0.  1.
        -13    1    3    3    0    0 -0.17545055863E+02  0.10284420474E+03  0.11380567979E+03  0.15439071276E+03  0.00000000000E+00 0.  1.
         13    1    3    3    0    0  0.23651962405E+02 -0.39388676492E+01  0.66273570712E+02  0.70477770814E+02  0.00000000000E+00 0. -1.
         21    1    1    2  502  501  0.51919877079E+01 -0.26081839764E+02  0.38235544493E+01  0.26867055486E+02  0.00000000000E+00 0.  1.
<scales pt_clust_5="13000.00000" pt_clust_6="13000.00000" pt_clust_7="13000.00000" pt_clust_8="13000.00000" pt_clust_9="26.59359"></scales>
<clustering>
<clus scale="   26.594">  2  9  1 -1</clus>
<clus scale="   90.870">  5  6 -1 -1</clus>
<clus scale="   91.202">  7  8 -1 -1</clus>
<clus scale="  128.711">  2  5  1 -1</clus>
<clus scale="   26.594">  2  5  1 -1</clus>
</clustering>
</event>
<event>
 9    1  0.1234700E-005  0.1093302E+03  0.7546771E-02  0.1266836E+00
          1   -1    0    0  502    0  0.00000000000E+00  0.00000000000E+00  0.48668693356E+03  0.48668693356E+03  0.00000000000E+00 0. -1.
         -1   -1    0    0    0  501 -0.00000000000E+00 -0.00000000000E+00 -0.68252488229E+02  0.68252488229E+02  0.00000000000E+00 0.  1.
         23    2    1    2    0    0  0.24395998439E+02 -0.34469429106E+02 -0.58247677725E+01  0.11127019094E+03  0.10278045140E+03 0.  0.
         23    2    1    2    0    0 -0.78535386495E+00  0.15140148566E+02  0.25024208371E+03  0.26699709114E+03  0.91850450959E+02 0.  0.
        -11    1    3    3    0    0 -0.22771241938E+02 -0.11512926442E+02 -0.40871667213E+02  0.48182674432E+02  0.00000000000E+00 0.  1.
         11    1    3    3    0    0  0.47167240377E+02 -0.22956502664E+02  0.35046899440E+02  0.63087516512E+02  0.00000000000E+00 0. -1.
        -11    1    4    4    0    0  0.27857462418E+02  0.42019823280E+02  0.10405948589E+03  0.11562906367E+03  0.00000000000E+00 0.  1.
         11    1    4    4    0    0 -0.28642816283E+02 -0.26879674714E+02  0.14618259782E+03  0.15136802748E+03  0.00000000000E+00 0. -1.
         21    1    1    2  502  501 -0.23610644574E+02  0.19329280540E+02  0.17401712939E+03  0.17667213970E+03  0.00000000000E+00 0. -1.
<scales pt_clust_5="13000.00000" pt_clust_6="13000.00000" pt_clust_7="13000.00000" pt_clust_8="13000.00000" pt_clust_9="30.51366"></scales>
<clustering>
<clus scale="   30.514">  1  9  2 -1</clus>
<clus scale="   91.850">  7  8 -1 -1</clus>
<clus scale="   99.125">  1  7  2 -1</clus>
<clus scale="  102.780">  5  6 -1 -1</clus>
<clus scale="   30.514">  1  5  2 -1</clus>
</clustering>
</event>
<event>
 9    1  0.1234700E-005  0.1132372E+03  0.7546771E-02  0.1266190E+00
          1   -1    0    0  502    0  0.00000000000E+00  0.00000000000E+00  0.19979277599E+03  0.19979277599E+03  0.00000000000E+00 0. -1.
         -1   -1    0    0    0  501 -0.00000000000E+00 -0.00000000000E+00 -0.82753727906E+02  0.82753727906E+02  0.00000000000E+00 0.  1.
         23    2    1    2    0    0  0.11310064705E+02  0.12031862518E+02  0.19179842873E+02  0.93035852000E+02  0.89527203159E+02 0.  0.
         23    2    1    2    0    0  0.24051002090E+02 -0.11282208635E+02  0.41353461618E+02  0.12284832307E+03  0.11258713408E+03 0.  0.
        -11    1    3    3    0    0 -0.29235297639E+02  0.26225160735E+02  0.29181886098E+02  0.48928970558E+02  0.00000000000E+00 0. -1.
         11    1    3    3    0    0  0.40545362344E+02 -0.14193298217E+02 -0.10002043226E+02  0.44106881442E+02  0.00000000000E+00 0.  1.
        -13    1    4    4    0    0  0.26832792063E+02 -0.60433164490E+02  0.19122565294E+02  0.68831959173E+02  0.00000000000E+00 0.  1.
         13    1    4    4    0    0 -0.27817899732E+01  0.49150955855E+02  0.22230896325E+02  0.54016363894E+02  0.00000000000E+00 0. -1.
         21    1    1    2  502  501 -0.35361066795E+02 -0.74965388308E+00  0.56505743592E+02  0.66662328827E+02  0.00000000000E+00 0. -1.
<scales pt_clust_5="13000.00000" pt_clust_6="13000.00000" pt_clust_7="13000.00000" pt_clust_8="13000.00000" pt_clust_9="35.36901"></scales>
<clustering>
<clus scale="   35.369">  1  9  2 -1</clus>
<clus scale="   89.527">  5  6 -1 -1</clus>
<clus scale="   90.343">  2  5  1 -1</clus>
<clus scale="  112.587">  7  8 -1 -1</clus>
<clus scale="   35.369">  1  5  2 -1</clus>
</clustering>
</event>
<event>
 9    1  0.1234700E-005  0.1691959E+03  0.7546771E-02  0.1178846E+00
          1   -1    0    0  502    0  0.00000000000E+00  0.00000000000E+00  0.45814784616E+03  0.45814784616E+03  0.00000000000E+00 0. -1.
         -1   -1    0    0    0  501 -0.00000000000E+00 -0.00000000000E+00 -0.24304782383E+03  0.24304782383E+03  0.00000000000E+00 0.  1.
         23    2    1    2    0    0  0.14222356852E+03 -0.57813973451E+02 -0.14605862923E+03  0.23047808982E+03  0.90647822626E+02 0.  0.
         23    2    1    2    0    0 -0.10283781111E+03  0.51839289647E+02  0.47762301955E+02  0.15479954225E+03  0.91753656318E+02 0.  0.
        -11    1    3    3    0    0  0.94190581872E+02 -0.81468157368E+02 -0.96910319865E+02  0.15779903826E+03  0.00000000000E+00 0.  1.
         11    1    3    3    0    0  0.48032986646E+02  0.23654183917E+02 -0.49148309363E+02  0.72679051563E+02  0.00000000000E+00 0. -1.
        -13    1    4    4    0    0 -0.40751304537E+02  0.71319652946E+02  0.28324022366E+02  0.86887352134E+02  0.00000000000E+00 0. -1.
         13    1    4    4    0    0 -0.62086506578E+02 -0.19480363300E+02  0.19438279590E+02  0.67912190119E+02  0.00000000000E+00 0.  1.
         21    1    1    2  502  501 -0.39385757404E+02  0.59746838042E+01  0.31339634961E+03  0.31591803791E+03  0.00000000000E+00 0. -1.
<scales pt_clust_5="13000.00000" pt_clust_6="13000.00000" pt_clust_7="13000.00000" pt_clust_8="13000.00000" pt_clust_9="39.83635"></scales>
<clustering>
<clus scale="   39.836">  1  9  2 -1</clus>
<clus scale="   90.648">  5  6 -1 -1</clus>
<clus scale="   91.754">  7  8 -1 -1</clus>
<clus scale="  168.599">  2  5  1 -1</clus>
<clus scale="   39.836">  1  5  2 -1</clus>
</clustering>
</event>
<event>
 9    1  0.1234700E-005  0.1218458E+03  0.7546771E-02  0.1240973E+00
         -1   -1    0    0    0  501 -0.00000000000E+00  0.00000000000E+00  0.11912163059E+03  0.11912163059E+03  0.00000000000E+00 0.  1.
          1   -1    0    0  502    0  0.00000000000E+00 -0.00000000000E+00 -0.16206478117E+03  0.16206478117E+03  0.00000000000E+00 0. -1.
         23    2    1    2    0    0 -0.58247713126E+02 -0.67157571491E+02  0.27412114668E+02  0.12789347999E+03  0.87763219522E+02 0.  0.
         23    2    1    2    0    0  0.43132682685E+02  0.50693232246E+02 -0.66249256754E+02  0.13056854139E+03  0.90713548436E+02 0.  0.
        -13    1    3    3    0    0 -0.12553377799E+02  0.17659817364E+02  0.22780979819E+02  0.31439298418E+02  0.00000000000E+00 0. -1.
         13    1    3    3    0    0 -0.45694335327E+02 -0.84817388855E+02  0.46311348487E+01  0.96454181574E+02  0.00000000000E+00 0.  1.
        -13    1    4    4    0    0  0.47633879392E+02  0.31336413604E+01  0.13935283179E+01  0.47757178469E+02  0.00000000000E+00 0.  1.
         13    1    4    4    0    0 -0.45011967072E+01  0.47559590886E+02 -0.67642785072E+02  0.82811362924E+02  0.00000000000E+00 0. -1.
         21    1    1    2  502  501  0.15115030441E+02  0.16464339245E+02 -0.41060084971E+01  0.22724390372E+02  0.00000000000E+00 0. -1.
<scales pt_clust_5="13000.00000" pt_clust_6="13000.00000" pt_clust_7="13000.00000" pt_clust_8="13000.00000" pt_clust_9="22.35036"></scales>
<clustering>
<clus scale="   22.350">  2  9  1 -1</clus>
<clus scale="   87.763">  5  6 -1 -1</clus>
<clus scale="   90.714">  7  8 -1 -1</clus>
<clus scale="  119.666">  1  5  2 -1</clus>
<clus scale="   22.350">  2  5  1 -1</clus>
</clustering>
</event>
<event>
 9    1  0.1234700E-005  0.1003951E+03  0.7546771E-02  0.1280979E+00
          2   -1    0    0  502    0  0.00000000000E+00  0.00000000000E+00  0.51615314820E+03  0.51615314820E+03  0.00000000000E+00 0. -1.
         -2   -1    0    0    0  501 -0.00000000000E+00 -0.00000000000E+00 -0.29480964602E+02  0.29480964602E+02  0.00000000000E+00 0.  1.
         23    2    1    2    0    0  0.56587354093E+00 -0.51871411303E+02  0.13612101994E+03  0.17035277159E+03  0.88318577862E+02 0.  0.
         23    2    1    2    0    0  0.13616613172E+02  0.26198909257E+02  0.19988222690E+03  0.22178427676E+03  0.91452532978E+02 0.  0.
        -11    1    4    4    0    0  0.30905026661E+02  0.49243653856E+02  0.82556911970E+02  0.10097376804E+03  0.00000000000E+00 0.  1.
         11    1    4    4    0    0 -0.17288413490E+02 -0.23044744599E+02  0.11732531493E+03  0.12081050872E+03  0.00000000000E+00 0. -1.
        -13    1    3    3    0    0 -0.27962758128E+02  0.52377490595E+01  0.81545845240E+02  0.86365935028E+02  0.00000000000E+00 0. -1.
         13    1    3    3    0    0  0.28528631669E+02 -0.57109160363E+02  0.54575174698E+02  0.83986836561E+02  0.00000000000E+00 0.  1.
         21    1    1    2  502  501 -0.14182486713E+02  0.25672502046E+02  0.15066893676E+03  0.15349706446E+03  0.00000000000E+00 0.  1.
<scales pt_clust_5="13000.00000" pt_clust_6="13000.00000" pt_clust_7="13000.00000" pt_clust_8="13000.00000" pt_clust_9="29.32951"></scales>
<clustering>
<clus scale="   29.330">  1  9  2 -1</clus>
<clus scale="   88.319">  7  8 -1 -1</clus>
<clus scale="   91.453">  5  6 -1 -1</clus>
<clus scale="   97.549">  2  7  1 -1</clus>
<clus scale="   29.330">  1  5  2 -1</clus>
</clustering>
</event>
<event>
 9    1  0.1234700E-005  0.1022042E+03  0.7546771E-02  0.1277502E+00
         -1   -1    0    0    0  501 -0.00000000000E+00  0.00000000000E+00  0.39627266371E+03  0.39627266371E+03  0.00000000000E+00 0.  1.
          1   -1    0    0  502    0  0.00000000000E+00 -0.00000000000E+00 -0.94911648931E+02  0.94911648931E+02  0.00000000000E+00 0. -1.
         23    2    1    2    0    0  0.43688681546E+02  0.15948932037E+02  0.35229034064E+03  0.36705152546E+03  0.91952536126E+02 0.  0.
         23    2    1    2    0    0 -0.23443167733E+02 -0.14697742194E+02 -0.36967526230E+02  0.99508040397E+02  0.88145597560E+02 0.  0.
        -11    1    4    4    0    0 -0.51976385679E+02 -0.23942716126E+02 -0.39304384399E+02  0.69423576376E+02  0.00000000000E+00 0. -1.
         11    1    4    4    0    0  0.28533217946E+02  0.92449739319E+01  0.23368581697E+01  0.30084464022E+02  0.00000000000E+00 0.  1.
        -13    1    3    3    0    0  0.16933328779E+02 -0.33946364061E+02  0.21859959779E+03  0.22186680106E+03  0.00000000000E+00 0.  1.
         13    1    3    3    0    0  0.26755352768E+02  0.49895296098E+02  0.13369074285E+03  0.14518472440E+03  0.00000000000E+00 0. -1.
         21    1    1    2  502  501 -0.20245513813E+02 -0.12511898431E+01 -0.13961799632E+02  0.24624746792E+02  0.00000000000E+00 0.  1.
<scales pt_clust_5="13000.00000" pt_clust_6="13000.00000" pt_clust_7="13000.00000" pt_clust_8="13000.00000" pt_clust_9="20.28414"></scales>
<clustering>
<clus scale="   20.284">  2  9  1 -1</clus>
<clus scale="   88.146">  5  6 -1 -1</clus>
<clus scale="   91.953">  7  8 -1 -1</clus>
<clus scale="   98.793">  2  5  1 -1</clus>
<clus scale="   20.284">  2  5  1 -1</clus>
</clustering>
</event>
<event>
 9    1  0.1234700E-005  0.1010516E+03  0.7546771E-02  0.1278650E+00
          2   -1    0    0  502    0  0.00000000000E+00  0.00000000000E+00  0.54471005327E+03  0.54471005327E+03  0.00000000000E+00 0. -1.
         -2   -1    0    0    0  501 -0.00000000000E+00 -0.00000000000E+00 -0.33676770263E+02  0.33676770263E+02  0.00000000000E+00 0.  1.
         23    2    1    2    0    0  0.44650524557E+02  0.16140034070E+02  0.97493159039E+02  0.14185843214E+03  0.91458890585E+02 0.  0.
         23    2    1    2    0    0 -0.22172330966E+02 -0.32920374554E+02  0.22172159796E+03  0.24266969044E+03  0.90292570774E+02 0.  0.
        -11    1    4    4    0    0  0.32459545026E+02 -0.20503041540E+02  0.12640762465E+03  0.13210936509E+03  0.00000000000E+00 0.  1.
         11    1    4    4    0    0 -0.54631875992E+02 -0.12417333014E+02  0.95313973311E+02  0.11056032535E+03  0.00000000000E+00 0. -1.
        -13    1    3    3    0    0 -0.22000745091E+02  0.22879940321E+02  0.51855903378E+02  0.60799335266E+02  0.00000000000E+00 0. -1.
         13    1    3    3    0    0  0.66651269647E+02 -0.67399062511E+01  0.45637255661E+02  0.81059096875E+02  0.00000000000E+00 0.  1.
         21    1    1    2  502  501 -0.22478193591E+02  0.16780340484E+02  0.19181852601E+03  0.19385870095E+03  0.00000000000E+00 0. -1.
<scales pt_clust_5="13000.00000" pt_clust_6="13000.00000" pt_clust_7="13000.00000" pt_clust_8="13000.00000" pt_clust_9="28.05083"></scales>
<clustering>
<clus scale="   28.051">  1  9  2 -1</clus>
<clus scale="   90.293">  5  6 -1 -1</clus>
<clus scale="   91.459">  7  8 -1 -1</clus>
<clus scale="   99.997">  1  5  2 -1</clus>
<clus scale="   28.051">  1  5  2 -1</clus>
</clustering>
</event>
<event>
 9    1  0.1234700E-005  0.1052554E+03  0.7546771E-02  0.1276027E+00
          1   -1    0    0  502    0  0.00000000000E+00  0.00000000000E+00  0.15004101065E+03  0.15004101065E+03  0.00000000000E+00 0. -1.
         -1   -1    0    0    0  501 -0.00000000000E+00 -0.00000000000E+00 -0.16539667403E+03  0.16539667403E+03  0.00000000000E+00 0.  1.
         23    2    1    2    0    0 -0.23277340646E+02  0.68325087549E+01 -0.11636770237E+03  0.14932224274E+03  0.90372408723E+02 0.  0.
         23    2    1    2    0    0  0.19946113100E+01 -0.21062436583E+02  0.71690523700E+02  0.12718991467E+03  0.10290839857E+03 0.  0.
        -13    1    4    4    0    0  0.17042453281E+02  0.17152771802E+02  0.81459936630E+02  0.84972843133E+02  0.00000000000E+00 0. -1.
         13    1    4    4    0    0 -0.15047841971E+02 -0.38215208385E+02 -0.97694129305E+01  0.42217071534E+02  0.00000000000E+00 0.  1.
        -13    1    3    3    0    0  0.24428185702E+02 -0.25920364025E+02 -0.47499170312E+02  0.59369796262E+02  0.00000000000E+00 0. -1.
         13    1    3    3    0    0 -0.47705526348E+02  0.32752872780E+02 -0.68868532062E+02  0.89952446481E+02  0.00000000000E+00 0.  1.
         21    1    1    2  502  501  0.21282729336E+02  0.14229927828E+02  0.29321515291E+02  0.38925527266E+02  0.00000000000E+00 0. -1.
<scales pt_clust_5="13000.00000" pt_clust_6="13000.00000" pt_clust_7="13000.00000" pt_clust_8="13000.00000" pt_clust_9="25.60167"></scales>
<clustering>
<clus scale="   25.602">  1  9  2 -1</clus>
<clus scale="   90.372">  7  8 -1 -1</clus>
<clus scale="   93.036">  2  7  1 -1</clus>
<clus scale="  102.908">  5  6 -1 -1</clus>
<clus scale="   25.602">  1  5  2 -1</clus>
</clustering>
</event>
<event>
 9    1  0.1234700E-005  0.9900708E+02  0.7546771E-02  0.1283152E+00
          1   -1    0    0  502    0  0.00000000000E+00  0.00000000000E+00  0.86695348897E+02  0.86695348897E+02  0.00000000000E+00 0. -1.
         -1   -1    0    0    0  501 -0.00000000000E+00 -0.00000000000E+00 -0.15160506324E+03  0.15160506324E+03  0.00000000000E+00 0.  1.
         23    2    1    2    0    0 -0.23282845886E+02  0.37366597882E+02 -0.53098636298E+02  0.11403462628E+03  0.90807914112E+02 0.  0.
         23    2    1    2    0    0  0.22386456962E+02 -0.15330843087E+02 -0.23861113969E+02  0.99134503194E+02  0.92315268285E+02 0.  0.
        -11    1    3    3    0    0 -0.17978375922E+02 -0.24957285901E+02  0.17989936513E+01  0.30811109984E+02  0.00000000000E+00 0.  1.
         11    1    3    3    0    0 -0.53044699645E+01  0.62323883783E+02 -0.54897629949E+02  0.83223516301E+02  0.00000000000E+00 0. -1.
        -11    1    4    4    0    0  0.26877438919E+02  0.69590461034E+01  0.29876008477E+02  0.40784812468E+02  0.00000000000E+00 0. -1.
         11    1    4    4    0    0 -0.44909819572E+01 -0.22289889191E+02 -0.53737122446E+02  0.58349690726E+02  0.00000000000E+00 0.  1.
         21    1    1    2  502  501  0.89638892422E+00 -0.22035754795E+02  0.12050035921E+02  0.25131282661E+02  0.00000000000E+00 0. -1.
<scales pt_clust_5="13000.00000" pt_clust_6="13000.00000" pt_clust_7="13000.00000" pt_clust_8="13000.00000" pt_clust_9="22.05398"></scales>
<clustering>
<clus scale="   22.054">  1  9  2 -1</clus>
<clus scale="   90.808">  5  6 -1 -1</clus>
<clus scale="   92.315">  7  8 -1 -1</clus>
<clus scale="   97.603">  2  5  1 -1</clus>
<clus scale="   22.054">  1  5  2 -1</clus>
</clustering>
</event>
<event>
 9    1  0.1234700E-005  0.1051094E+03  0.7546771E-02  0.1271343E+00
          3   -1    0    0  502    0  0.00000000000E+00  0.00000000000E+00  0.48945472211E+03  0.48945472211E+03  0.00000000000E+00 0. -1.
         -3   -1    0    0    0  501 -0.00000000000E+00 -0.00000000000E+00 -0.42538341888E+02  0.42538341888E+02  0.00000000000E+00 0.  1.
         23    2    1    2    0    0  0.23056705906E+02  0.43006485887E+02  0.51562601246E+02  0.11391588166E+03  0.89089599455E+02 0.  0.
         23    2    1    2    0    0 -0.41294946980E+01 -0.59681409727E+02  0.33661101460E+03  0.35414749616E+03  0.92382630889E+02 0.  0.
        -11    1    3    3    0    0 -0.76638027105E+01 -0.25378570893E+02  0.15706841139E+02  0.30814129731E+02  0.00000000000E+00 0. -1.
         11    1    3    3    0    0  0.30720508616E+02  0.68385056780E+02  0.35855760107E+02  0.83101751927E+02  0.00000000000E+00 0.  1.
        -13    1    4    4    0    0  0.27610501705E+02 -0.68767727893E+02  0.26719010641E+03  0.27727584310E+03  0.00000000000E+00 0.  1.
         13    1    4    4    0    0 -0.31739996403E+02  0.90863181660E+01  0.69420908185E+02  0.76871653051E+02  0.00000000000E+00 0. -1.
         21    1    1    2  502  501 -0.18927211208E+02  0.16674923840E+02  0.58742764380E+02  0.63929686189E+02  0.00000000000E+00 0.  1.
<scales pt_clust_5="13000.00000" pt_clust_6="13000.00000" pt_clust_7="13000.00000" pt_clust_8="13000.00000" pt_clust_9="25.22484"></scales>
<clustering>
<clus scale="   25.225">  1  9  2 -1</clus>
<clus scale="   89.090">  5  6 -1 -1</clus>
<clus scale="   92.383">  7  8 -1 -1</clus>
<clus scale="  102.227">  2  5  1 -1</clus>
<clus scale="   25.225">  1  5  2 -1</clus>
</clustering>
</event>
<event>
 9    1  0.1234700E-005  0.1068496E+03  0.7546771E-02  0.1267233E+00
          3   -1    0    0  502    0  0.00000000000E+00  0.00000000000E+00  0.17489895856E+03  0.17489895856E+03  0.00000000000E+00 0. -1.
         -3   -1    0    0    0  501 -0.00000000000E+00 -0.00000000000E+00 -0.10807146172E+03  0.10807146172E+03  0.00000000000E+00 0.  1.
         23    2    1    2    0    0  0.26750710293E+02 -0.53020710346E+02 -0.17222381894E+02  0.10936536920E+03  0.90207412754E+02 0.  0.
         23    2    1    2    0    0 -0.51657941906E+02  0.20137392223E+02  0.43718175149E+02  0.11591337827E+03  0.91927008527E+02 0.  0.
        -13    1    3    3    0    0  0.45376127385E+02 -0.42232165528E+02 -0.43254068446E+02  0.75587453845E+02  0.00000000000E+00 0.  1.
         13    1    3    3    0    0 -0.18625417092E+02 -0.10788544818E+02  0.26031686552E+02  0.33777915357E+02  0.00000000000E+00 0. -1.
        -13    1    4    4    0    0 -0.75295567843E+02  0.16391539715E+02  0.49114182703E+02  0.91380019992E+02  0.00000000000E+00 0. -1.
         13    1    4    4    0    0  0.23637625938E+02  0.37458525077E+01 -0.53960075545E+01  0.24533358281E+02  0.00000000000E+00 0.  1.
         21    1    1    2  502  501  0.24907231613E+02  0.32883318124E+02  0.40331703587E+02  0.57691672810E+02  0.00000000000E+00 0. -1.
<scales pt_clust_5="13000.00000" pt_clust_6="13000.00000" pt_clust_7="13000.00000" pt_clust_8="13000.00000" pt_clust_9="41.25146"></scales>
<clustering>
<clus scale="   41.251">  1  9  2 -1</clus>
<clus scale="   90.207">  5  6 -1 -1</clus>
<clus scale="   91.927">  7  8 -1 -1</clus>
<clus scale="  105.374">  2  5  1 -1</clus>
<clus scale="   41.251">  1  5  2 -1</clus>
</clustering>
</event>
<event>
 9    1  0.1234700E-005  0.1047883E+03  0.7546771E-02  0.1271439E+00
         -1   -1    0    0    0  501 -0.00000000000E+00  0.00000000000E+00  0.11141487424E+03  0.11141487424E+03  0.00000000000E+00 0.  1.
          1   -1    0    0  502    0  0.00000000000E+00 -0.00000000000E+00 -0.14579727560E+03  0.14579727560E+03  0.00000000000E+00 0. -1.
         23    2    1    2    0    0  0.30410814543E+02 -0.23770337385E+02  0.22080746615E+02  0.10408983147E+03  0.94113160946E+02 0.  0.
         23    2    1    2    0    0 -0.32511699499E+02  0.51944609006E+02 -0.30488889074E+02  0.11474438950E+03  0.92094785713E+02 0.  0.
        -11    1    3    3    0    0  0.55446783687E+02 -0.53713672771E+01 -0.13026035401E+02  0.57209046539E+02  0.00000000000E+00 0.  1.
         11    1    3    3    0    0 -0.25035969144E+02 -0.18398970108E+02  0.35106782016E+02  0.46880784929E+02  0.00000000000E+00 0. -1.
        -11    1    4    4    0    0 -0.11082898764E+02 -0.19220057472E+02  0.15754590068E+02  0.27211180835E+02  0.00000000000E+00 0. -1.
         11    1    4    4    0    0 -0.21428800736E+02  0.71164666478E+02 -0.46243479142E+02  0.87533208664E+02  0.00000000000E+00 0.  1.
         21    1    1    2  502  501  0.21008849563E+01 -0.28174271621E+02 -0.25974258902E+02  0.38377928872E+02  0.00000000000E+00 0.  1.
<scales pt_clust_5="13000.00000" pt_clust_6="13000.00000" pt_clust_7="13000.00000" pt_clust_8="13000.00000" pt_clust_9="28.25249"></scales>
<clustering>
<clus scale="   28.252">  2  9  1 -1</clus>
<clus scale="   92.095">  7  8 -1 -1</clus>
<clus scale="   94.113">  5  6 -1 -1</clus>
<clus scale="  102.979">  2  7  1 -1</clus>
<clus scale="   28.252">  2  5  1 -1</clus>
</clustering>
</event>
<event>
 9    1  0.1234700E-005  0.1200698E+03  0.7546771E-02  0.1249123E+00
         -2   -1    0    0    0  501 -0.00000000000E+00  0.00000000000E+00  0.33073382308E+03  0.33073382308E+03  0.00000000000E+00 0.  1.
          2   -1    0    0  502    0  0.00000000000E+00 -0.00000000000E+00 -0.29617551548E+03  0.29617551548E+03  0.00000000000E+00 0. -1.
         23    2    1    2    0    0 -0.27319436299E+02  0.60418152116E+02  0.30354812658E+03  0.32673222265E+03  0.10107311937E+03 0.  0.
         23    2    1    2    0    0  0.16895282727E+02 -0.28672567998E+02 -0.23808560954E+03  0.25466321419E+03  0.84029925984E+02 0.  0.
        -13    1    4    4    0    0 -0.29365777261E+02 -0.26892592351E+02 -0.72357314887E+02  0.82590201690E+02  0.00000000000E+00 0.  1.
         13    1    4    4    0    0  0.46261059988E+02 -0.17799756471E+01 -0.16572829465E+03  0.17207301250E+03  0.00000000000E+00 0. -1.
        -13    1    3    3    0    0  0.30036610152E+02  0.50448785637E+02  0.19381180125E+03  0.20250998055E+03  0.00000000000E+00 0.  1.
         13    1    3    3    0    0 -0.57356046451E+02  0.99693664793E+01  0.10973632534E+03  0.12422224209E+03  0.00000000000E+00 0. -1.
         21    1    1    2  502  501  0.10424153572E+02 -0.31745584118E+02 -0.30904209446E+02  0.45513901725E+02  0.00000000000E+00 0. -1.
<scales pt_clust_5="13000.00000" pt_clust_6="13000.00000" pt_clust_7="13000.00000" pt_clust_8="13000.00000" pt_clust_9="33.41325"></scales>
<clustering>
<clus scale="   33.413">  2  9  1 -1</clus>
<clus scale="   84.030">  5  6 -1 -1</clus>
<clus scale="  101.073">  7  8 -1 -1</clus>
<clus scale="  106.123">  2  5  1 -1</clus>
<clus scale="   33.413">  2  5  1 -1</clus>
</clustering>
</event>
<event>
 9    1  0.1234700E-005  0.1503137E+03  0.7546771E-02  0.1200349E+00
         -1   -1    0    0    0  501 -0.00000000000E+00  0.00000000000E+00  0.22186099942E+03  0.22186099942E+03  0.00000000000E+00 0.  1.
          1   -1    0    0  502    0  0.00000000000E+00 -0.00000000000E+00 -0.18830185974E+03  0.18830185974E+03  0.00000000000E+00 0. -1.
         23    2    1    2    0    0 -0.97437408027E+01  0.12125352116E+03  0.91515718740E+02  0.17726824169E+03  0.90838019876E+02 0.  0.
         23    2    1    2    0    0 -0.24030714413E+02 -0.11459582064E+03  0.17384849002E+02  0.15006123299E+03  0.92230490229E+02 0.  0.
        -11    1    3    3    0    0 -0.40398721214E+02  0.31554165364E+02  0.99596823237E+01  0.52219893714E+02  0.00000000000E+00 0.  1.
         11    1    3    3    0    0  0.30654980411E+02  0.89699355797E+02  0.81556036417E+02  0.12504834797E+03  0.00000000000E+00 0. -1.
        -13    1    4    4    0    0  0.27448842125E+02 -0.78475011117E+02  0.24752154774E+02  0.86743503906E+02  0.00000000000E+00 0.  1.
         13    1    4    4    0    0 -0.51479556538E+02 -0.36120809525E+02 -0.73673057723E+01  0.63317729085E+02  0.00000000000E+00 0. -1.
         21    1    1    2  502  501  0.33774455216E+02 -0.66577005186E+01 -0.75341428063E+02  0.82833384477E+02  0.00000000000E+00 0. -1.
<scales pt_clust_5="13000.00000" pt_clust_6="13000.00000" pt_clust_7="13000.00000" pt_clust_8="13000.00000" pt_clust_9="34.42439"></scales>
<clustering>
<clus scale="   34.424">  2  9  1 -1</clus>
<clus scale="   90.838">  5  6 -1 -1</clus>
<clus scale="   92.230">  7  8 -1 -1</clus>
<clus scale="  149.463">  1  5  2 -1</clus>
<clus scale="   34.424">  2  5  1 -1</clus>
</clustering>
</event>
<event>
 9    1  0.1234700E-005  0.1538866E+03  0.7546771E-02  0.1195799E+00
         -1   -1    0    0    0  501 -0.00000000000E+00  0.00000000000E+00  0.20548994296E+03  0.20548994296E+03  0.00000000000E+00 0.  1.
          1   -1    0    0  502    0  0.00000000000E+00 -0.00000000000E+00 -0.60049058536E+03  0.60049058536E+03  0.00000000000E+00 0. -1.
         23    2    1    2    0    0 -0.11854073035E+03 -0.32030807004E+02  0.15248318452E+03  0.21626458912E+03  0.91876948118E+02 0.  0.
         23    2    1    2    0    0  0.11272711019E+03  0.83116390071E+02 -0.42834958193E+03  0.45996038709E+03  0.92002487364E+02 0.  0.
        -11    1    3    3    0    0 -0.34002570021E+02  0.22922235142E+02  0.10870703509E+02  0.42423764881E+02  0.00000000000E+00 0. -1.
         11    1    3    3    0    0 -0.84538160331E+02 -0.54953042146E+02  0.14161248101E+03  0.17384082424E+03  0.00000000000E+00 0.  1.
        -13    1    4    4    0    0  0.64481580070E+02  0.52547573945E+02 -0.11783410740E+03  0.14423591288E+03  0.00000000000E+00 0.  1.
         13    1    4    4    0    0  0.48245530121E+02  0.30568816125E+02 -0.31051547453E+03  0.31572447421E+03  0.00000000000E+00 0. -1.
         21    1    1    2  502  501  0.58136201608E+01 -0.51085583067E+02 -0.11913424499E+03  0.12975555212E+03  0.00000000000E+00 0. -1.
<scales pt_clust_5="13000.00000" pt_clust_6="13000.00000" pt_clust_7="13000.00000" pt_clust_8="13000.00000" pt_clust_9="51.41532"></scales>
<clustering>
<clus scale="   51.415">  2  9  1 -1</clus>
<clus scale="   91.877">  5  6 -1 -1</clus>
<clus scale="   92.002">  7  8 -1 -1</clus>
<clus scale="  153.812">  1  5  2 -1</clus>
<clus scale="   51.415">  2  5  1 -1</clus>
</clustering>
</event>
<event>
 9    1  0.1234700E-005  0.9830965E+02  0.7546771E-02  0.1284180E+00
          2   -1    0    0  502    0  0.00000000000E+00  0.00000000000E+00  0.95316946409E+02  0.95316946409E+02  0.00000000000E+00 0. -1.
         -2   -1    0    0    0  501 -0.00000000000E+00 -0.00000000000E+00 -0.19451020291E+03  0.19451020291E+03  0.00000000000E+00 0.  1.
         23    2    1    2    0    0  0.77602499971E+01 -0.36376551018E+02 -0.10774763398E+03  0.14663694401E+03  0.92246223646E+02 0.  0.
         23    2    1    2    0    0  0.32782297845E+02  0.26720811094E+02  0.10250016953E+02  0.10147921524E+03  0.91674901039E+02 0.  0.
        -13    1    4    4    0    0  0.40448362834E+02  0.56224906562E+02  0.14312514469E+02  0.70725937563E+02  0.00000000000E+00 0. -1.
         13    1    4    4    0    0 -0.76660649881E+01 -0.29504095468E+02 -0.40624975157E+01  0.30753277676E+02  0.00000000000E+00 0.  1.
        -13    1    3    3    0    0 -0.17865091412E+01 -0.66495577126E+02 -0.83795360367E+02  0.10698839101E+03  0.00000000000E+00 0. -1.
         13    1    3    3    0    0  0.95467591383E+01  0.30119026108E+02 -0.23952273611E+02  0.39648552999E+02  0.00000000000E+00 0.  1.
         21    1    1    2  502  501 -0.40542547843E+02  0.96557399234E+01 -0.16956394742E+01  0.41710990066E+02  0.00000000000E+00 0.  1.
<scales pt_clust_5="13000.00000" pt_clust_6="13000.00000" pt_clust_7="13000.00000" pt_clust_8="13000.00000" pt_clust_9="41.67651"></scales>
<clustering>
<clus scale="   41.677">  1  9  2 -1</clus>
<clus scale="   91.675">  5  6 -1 -1</clus>
<clus scale="   92.246">  7  8 -1 -1</clus>
<clus scale="   97.774">  1  5  2 -1</clus>
<clus scale="   41.677">  1  5  2 -1</clus>
</clustering>
</event>
<event>
 9    1  0.1234700E-005  0.9363124E+02  0.7546771E-02  0.1295527E+00
         -2   -1    0    0    0  501 -0.00000000000E+00  0.00000000000E+00  0.12435347220E+03  0.12435347220E+03  0.00000000000E+00 0.  1.
          2   -1    0    0  502    0  0.00000000000E+00 -0.00000000000E+00 -0.11753485967E+03  0.11753485967E+03  0.00000000000E+00 0. -1.
         23    2    1    2    0    0  0.64872091952E+01 -0.17004182119E+01  0.45368534723E+02  0.10367633593E+03  0.92981199092E+02 0.  0.
         23    2    1    2    0    0 -0.97290561210E+01 -0.23939360810E+02 -0.32937556239E+01  0.94498095155E+02  0.90836631558E+02 0.  0.
        -11    1    4    4    0    0 -0.28072537219E+02  0.27057894510E+02 -0.89622579730E+01  0.40006487839E+02  0.00000000000E+00 0. -1.
         11    1    4    4    0    0  0.18343481099E+02 -0.50997255320E+02  0.56685023491E+01  0.54491607316E+02  0.00000000000E+00 0.  1.
        -13    1    3    3    0    0  0.11627058990E+02  0.43009488178E+02  0.81867818450E+01  0.45299315349E+02  0.00000000000E+00 0. -1.
         13    1    3    3    0    0 -0.51398497949E+01 -0.44709906390E+02  0.37181752878E+02  0.58377020586E+02  0.00000000000E+00 0.  1.
         21    1    1    2  502  501  0.32418469257E+01  0.25639779022E+02 -0.35256166571E+02  0.43713900776E+02  0.00000000000E+00 0. -1.
<scales pt_clust_5="13000.00000" pt_clust_6="13000.00000" pt_clust_7="13000.00000" pt_clust_8="13000.00000" pt_clust_9="25.84391"></scales>
<clustering>
<clus scale="   25.844">  2  9  1 -1</clus>
<clus scale="   90.837">  5  6 -1 -1</clus>
<clus scale="   91.502">  2  5  1 -1</clus>
<clus scale="   92.981">  7  8 -1 -1</clus>
<clus scale="   25.844">  2  5  1 -1</clus>
</clustering>
</event>
<event>
 9    1  0.1234700E-005  0.1124063E+03  0.7546771E-02  0.1258186E+00
          1   -1    0    0  502    0  0.00000000000E+00  0.00000000000E+00  0.57515764397E+03  0.57515764397E+03  0.00000000000E+00 0. -1.
         -1   -1    0    0    0  501 -0.00000000000E+00 -0.00000000000E+00 -0.41582082063E+02  0.41582082063E+02  0.00000000000E+00 0.  1.
         23    2    1    2    0    0  0.91797603477E+01 -0.47516174951E+02  0.66795310240E+02  0.12779993558E+03  0.97617391802E+02 0.  0.
         23    2    1    2    0    0 -0.29631005366E+02  0.36345187670E+02  0.43608047411E+03  0.45039733696E+03  0.10243345200E+03 0.  0.
        -13    1    4    4    0    0 -0.65024340980E+02  0.47564996996E+01  0.24831452006E+03  0.25673116305E+03  0.00000000000E+00 0.  1.
         13    1    4    4    0    0  0.35393335614E+02  0.31588687971E+02  0.18776595406E+03  0.19366617391E+03  0.00000000000E+00 0. -1.
        -13    1    3    3    0    0  0.26545175087E+02 -0.72724676002E+02  0.55131703267E+02  0.95042251262E+02  0.00000000000E+00 0. -1.
         13    1    3    3    0    0 -0.17365414739E+02  0.25208501050E+02  0.11663606973E+02  0.32757684318E+02  0.00000000000E+00 0.  1.
         21    1    1    2  502  501  0.20451245018E+02  0.11170987281E+02  0.30699777556E+02  0.38542453498E+02  0.00000000000E+00 0. -1.
<scales pt_clust_5="13000.00000" pt_clust_6="13000.00000" pt_clust_7="13000.00000" pt_clust_8="13000.00000" pt_clust_9="23.30331"></scales>
<clustering>
<clus scale="   23.303">  2  9  1 -1</clus>
<clus scale="   97.617">  7  8 -1 -1</clus>
<clus scale="  102.433">  5  6 -1 -1</clus>
<clus scale="  108.036">  2  7  1 -1</clus>
<clus scale="  112.406">  1  5  2 -1</clus>
</clustering>
</event>
<event>
 9    1  0.1234700E-005  0.3318812E+03  0.7546771E-02  0.1070314E+00
         -2   -1    0    0    0  501 -0.00000000000E+00  0.00000000000E+00  0.34679840002E+03  0.34679840002E+03  0.00000000000E+00 0.  1.
          2   -1    0    0  502    0  0.00000000000E+00 -0.00000000000E+00 -0.77327243479E+03  0.77327243479E+03  0.00000000000E+00 0. -1.
         23    2    1    2    0    0 -0.38562812948E+03  0.75573204431E+02  0.90777199404E+02  0.41353771361E+03  0.91392434974E+02 0.  0.
         23    2    1    2    0    0  0.30526644457E+03 -0.24003203804E+02 -0.52078965908E+03  0.61098216194E+03  0.91178820051E+02 0.  0.
        -11    1    3    3    0    0 -0.15030280597E+03 -0.22202224447E+01  0.66918410822E+02  0.16454159528E+03  0.00000000000E+00 0. -1.
         11    1    3    3    0    0 -0.23532532351E+03  0.77793426876E+02  0.23858788582E+02  0.24899611833E+03  0.00000000000E+00 0.  1.
        -13    1    4    4    0    0  0.22797569699E+03 -0.21844646795E+02 -0.45529567818E+03  0.50965111751E+03  0.00000000000E+00 0. -1.
         13    1    4    4    0    0  0.77290747588E+02 -0.21585570096E+01 -0.65493980908E+02  0.10133104443E+03  0.00000000000E+00 0.  1.
         21    1    1    2  502  501  0.80361684907E+02 -0.51570000627E+02  0.35384249051E+01  0.95550959266E+02  0.00000000000E+00 0.  1.
<scales pt_clust_5="13000.00000" pt_clust_6="13000.00000" pt_clust_7="13000.00000" pt_clust_8="13000.00000" pt_clust_9="95.48542"></scales>
<clustering>
<clus scale="   91.179">  7  8 -1 -1</clus>
<clus scale="   91.392">  5  6 -1 -1</clus>
<clus scale="   95.485">  1  9  2 -1</clus>
<clus scale="  331.822">  2  7  1 -1</clus>
<clus scale="  331.822">  2  5  1 -1</clus>
</clustering>
</event>
<event>
 9    1  0.1234700E-005  0.1440610E+03  0.7546771E-02  0.1209230E+00
         -1   -1    0    0    0  501 -0.00000000000E+00  0.00000000000E+00  0.29141400065E+02  0.29141400065E+02  0.00000000000E+00 0.  1.
          1   -1    0    0  502    0  0.00000000000E+00 -0.00000000000E+00 -0.10258394293E+04  0.10258394293E+04  0.00000000000E+00 0. -1.
         23    2    1    2    0    0  0.88362197733E+02 -0.70875329060E+02 -0.28651450101E+03  0.32135115867E+03  0.91349973351E+02 0.  0.
         23    2    1    2    0    0 -0.56580503764E+02  0.97859990325E+02 -0.51881549258E+03  0.53777264866E+03  0.85158529762E+02 0.  0.
        -11    1    3    3    0    0  0.21427489697E+02 -0.59577668762E+02 -0.69721531283E+02  0.94179232606E+02  0.00000000000E+00 0.  1.
         11    1    3    3    0    0  0.66934708035E+02 -0.11297660298E+02 -0.21679296973E+03  0.22717192606E+03  0.00000000000E+00 0. -1.
        -13    1    4    4    0    0 -0.29283198883E+02 -0.71766540713E+01 -0.16336189940E+03  0.16612080026E+03  0.00000000000E+00 0.  1.
         13    1    4    4    0    0 -0.27297304881E+02  0.10503664440E+03 -0.35545359318E+03  0.37165184841E+03  0.00000000000E+00 0. -1.
         21    1    1    2  502  501 -0.31781693969E+02 -0.26984661265E+02 -0.19136803566E+03  0.19585702205E+03  0.00000000000E+00 0. -1.
<scales pt_clust_5="13000.00000" pt_clust_6="13000.00000" pt_clust_7="13000.00000" pt_clust_8="13000.00000" pt_clust_9="41.69230"></scales>
<clustering>
<clus scale="   41.692">  2  9  1 -1</clus>
<clus scale="   85.159">  7  8 -1 -1</clus>
<clus scale="   91.350">  5  6 -1 -1</clus>
<clus scale="  140.217">  2  7  1 -1</clus>
<clus scale="   41.692">  2  5  1 -1</clus>
</clustering>
</event>
<event>
 9    1  0.1234700E-005  0.1735228E+03  0.7546771E-02  0.1174413E+00
          1   -1    0    0  502    0  0.00000000000E+00  0.00000000000E+00  0.84096807217E+03  0.84096807217E+03  0.00000000000E+00 0. -1.
         -1   -1    0    0    0  501 -0.00000000000E+00 -0.00000000000E+00 -0.31849881618E+03  0.31849881618E+03  0.00000000000E+00 0.  1.
         23    2    1    2    0    0  0.58929177741E+02 -0.13342037191E+03 -0.23954721815E+03  0.29559277639E+03  0.93373315807E+02 0.  0.
         23    2    1    2    0    0 -0.12732668708E+03  0.96259225596E+02  0.12889095306E+03  0.22598141290E+03  0.94745962666E+02 0.  0.
        -11    1    3    3    0    0  0.14302710747E+02 -0.12690415705E+03 -0.16823430853E+03  0.21121556566E+03  0.00000000000E+00 0.  1.
         11    1    3    3    0    0  0.44626466994E+02 -0.65162148538E+01 -0.71312909619E+02  0.84377210731E+02  0.00000000000E+00 0. -1.
        -13    1    4    4    0    0 -0.45205299947E+02  0.38319597677E+02 -0.39642432181E+01  0.59393820669E+02  0.00000000000E+00 0.  1.
         13    1    4    4    0    0 -0.82121387130E+02  0.57939627919E+02  0.13285519627E+03  0.16658759223E+03  0.00000000000E+00 0. -1.
         21    1    1    2  502  501  0.68397509336E+02  0.37161146311E+02  0.63312552107E+03  0.63789269906E+03  0.00000000000E+00 0. -1.
<scales pt_clust_5="13000.00000" pt_clust_6="13000.00000" pt_clust_7="13000.00000" pt_clust_8="13000.00000" pt_clust_9="77.84067"></scales>
<clustering>
<clus scale="   77.841">  1  9  2 -1</clus>
<clus scale="   93.373">  5  6 -1 -1</clus>
<clus scale="   94.746">  7  8 -1 -1</clus>
<clus scale="  172.777">  2  5  1 -1</clus>
<clus scale="   77.841">  1  5  2 -1</clus>
</clustering>
</event>
<event>
 9    1  0.1234700E-005  0.9126162E+02  0.7546771E-02  0.1299826E+00
         -2   -1    0    0    0  501 -0.00000000000E+00  0.00000000000E+00  0.55087478519E+02  0.55087478519E+02  0.00000000000E+00 0.  1.
          2   -1    0    0  502    0  0.00000000000E+00 -0.00000000000E+00 -0.44793975419E+03  0.44793975419E+03  0.00000000000E+00 0. -1.
         23    2    1    2    0    0 -0.16262870818E+02 -0.89237419556E+01 -0.12776720755E+02  0.93568912425E+02  0.90817303645E+02 0.  0.
         23    2    1    2    0    0 -0.19466515666E+02 -0.25724795367E+02 -0.19093504564E+03  0.21387907178E+03  0.90814951203E+02 0.  0.
        -11    1    3    3    0    0 -0.52602841979E+02 -0.61350838132E+00  0.38581071978E+01  0.52747704860E+02  0.00000000000E+00 0.  1.
         11    1    3    3    0    0  0.36339971161E+02 -0.83102335742E+01 -0.16634827953E+02  0.40821207565E+02  0.00000000000E+00 0. -1.
        -11    1    4    4    0    0 -0.51817734061E+02 -0.27824954711E+02 -0.87083110930E+02  0.10508460343E+03  0.00000000000E+00 0.  1.
         11    1    4    4    0    0  0.32351218395E+02  0.21001593442E+01 -0.10385193471E+03  0.10879446836E+03  0.00000000000E+00 0. -1.
         21    1    1    2  502  501  0.35729386484E+02  0.34648537322E+02 -0.18914050927E+03  0.19557924850E+03  0.00000000000E+00 0. -1.
<scales pt_clust_5="13000.00000" pt_clust_6="13000.00000" pt_clust_7="13000.00000" pt_clust_8="13000.00000" pt_clust_9="49.77058"></scales>
<clustering>
<clus scale="   49.771">  2  9  1 -1</clus>
<clus scale="   90.815">  7  8 -1 -1</clus>
<clus scale="   90.817">  5  6 -1 -1</clus>
<clus scale="   91.259">  2  7  1 -1</clus>
<clus scale="   49.771">  2  5  1 -1</clus>
</clustering>
</event>
<event>
 9    1  0.1234700E-005  0.9890850E+02  0.7546771E-02  0.1283783E+00
         -4   -1    0    0    0  501 -0.00000000000E+00  0.00000000000E+00  0.70376545208E+02  0.70376545208E+02  0.00000000000E+00 0.  1.
          4   -1    0    0  502    0  0.00000000000E+00 -0.00000000000E+00 -0.34147104584E+03  0.34147104584E+03  0.00000000000E+00 0. -1.
         23    2    1    2    0    0  0.31585993856E+02 -0.23246285679E+02 -0.34272094222E+02  0.10657987504E+03  0.92987249212E+02 0.  0.
         23    2    1    2    0    0 -0.38369757214E+02 -0.55862445769E+02 -0.13671608626E+03  0.17749649010E+03  0.90668983880E+02 0.  0.
        -11    1    3    3    0    0  0.50518068991E+02 -0.47136882157E+02 -0.31610196248E+02  0.75981349428E+02  0.00000000000E+00 0.  1.
         11    1    3    3    0    0 -0.18932075135E+02  0.23890596478E+02 -0.26618979735E+01  0.30598525615E+02  0.00000000000E+00 0. -1.
        -13    1    4    4    0    0 -0.67991425070E+02 -0.41666500992E+02 -0.88170741603E+02  0.11888234042E+03  0.00000000000E+00 0.  1.
         13    1    4    4    0    0  0.29621667856E+02 -0.14195944777E+02 -0.48545344658E+02  0.58614149679E+02  0.00000000000E+00 0. -1.
         21    1    1    2  502  501  0.67837633575E+01  0.79108731448E+02 -0.10010632015E+03  0.12777122591E+03  0.00000000000E+00 0.  1.
<scales pt_clust_5="13000.00000" pt_clust_6="13000.00000" pt_clust_7="13000.00000" pt_clust_8="13000.00000" pt_clust_9="79.39906"></scales>
<clustering>
<clus scale="   79.399">  2  9  1 -1</clus>
<clus scale="   90.669">  7  8 -1 -1</clus>
<clus scale="   92.987">  5  6 -1 -1</clus>
<clus scale="   96.732">  2  7  1 -1</clus>
<clus scale="   79.399">  2  5  1 -1</clus>
</clustering>
</event>
<event>
 9    1  0.1234700E-005  0.9629558E+02  0.7546771E-02  0.1289039E+00
          1   -1    0    0  502    0  0.00000000000E+00  0.00000000000E+00  0.72116516604E+03  0.72116516604E+03  0.00000000000E+00 0. -1.
         -1   -1    0    0    0  501 -0.00000000000E+00 -0.00000000000E+00 -0.67198243209E+02  0.67198243209E+02  0.00000000000E+00 0.  1.
         23    2    1    2    0    0  0.10541428293E+02  0.33128270434E+02 -0.63034300807E+01  0.95888047018E+02  0.89141350213E+02 0.  0.
         23    2    1    2    0    0  0.26359816431E+02  0.27269680388E+02  0.56672821026E+03  0.57517341520E+03  0.90582105604E+02 0.  0.
        -13    1    4    4    0    0  0.56912955686E+02  0.34745599009E+02  0.39481517633E+03  0.40040649924E+03  0.00000000000E+00 0. -1.
         13    1    4    4    0    0 -0.30553139255E+02 -0.74759186214E+01  0.17191303393E+03  0.17476691596E+03  0.00000000000E+00 0.  1.
        -13    1    3    3    0    0 -0.36769258558E+02  0.28374776412E+02  0.58470447514E+01  0.46811261932E+02  0.00000000000E+00 0.  1.
         13    1    3    3    0    0  0.47310686851E+02  0.47534940219E+01 -0.12150474832E+02  0.49076785086E+02  0.00000000000E+00 0. -1.
         21    1    1    2  502  501 -0.36901244725E+02 -0.60397950822E+02  0.93542142654E+02  0.11730194703E+03  0.00000000000E+00 0.  1.
<scales pt_clust_5="13000.00000" pt_clust_6="13000.00000" pt_clust_7="13000.00000" pt_clust_8="13000.00000" pt_clust_9="70.77863"></scales>
<clustering>
<clus scale="   70.779">  2  9  1 -1</clus>
<clus scale="   89.141">  7  8 -1 -1</clus>
<clus scale="   90.582">  5  6 -1 -1</clus>
<clus scale="   94.942">  2  7  1 -1</clus>
<clus scale="   96.296">  1  5  2 -1</clus>
</clustering>
</event>
<event>
 9    1  0.1234700E-005  0.9711118E+02  0.7546771E-02  0.1288325E+00
         -1   -1    0    0    0  501 -0.00000000000E+00  0.00000000000E+00  0.20534951138E+02  0.20534951138E+02  0.00000000000E+00 0.  1.
          1   -1    0    0  502    0  0.00000000000E+00 -0.00000000000E+00 -0.56670111276E+03  0.56670111276E+03  0.00000000000E+00 0. -1.
         23    2    1    2    0    0  0.14339664545E+02  0.36731077984E+00 -0.22628242016E+03  0.24565219779E+03  0.94527814463E+02 0.  0.
         23    2    1    2    0    0 -0.27870533534E+02  0.18001311194E+02 -0.25944446674E+03  0.27698203473E+03  0.91141661152E+02 0.  0.
        -11    1    4    4    0    0 -0.10846767967E+02 -0.37438921405E+02 -0.10158645332E+03  0.10880777871E+03  0.00000000000E+00 0. -1.
         11    1    4    4    0    0 -0.17023765567E+02  0.55440232599E+02 -0.15785801343E+03  0.16817425602E+03  0.00000000000E+00 0.  1.
        -13    1    3    3    0    0  0.40653326780E+02  0.18405631532E+02 -0.19816354482E+03  0.20312619414E+03  0.00000000000E+00 0.  1.
         13    1    3    3    0    0 -0.26313662235E+02 -0.18038320752E+02 -0.28118875345E+02  0.42526003650E+02  0.00000000000E+00 0. -1.
         21    1    1    2  502  501  0.13530868989E+02 -0.18368621974E+02 -0.60439274717E+02  0.64601831376E+02  0.00000000000E+00 0. -1.
<scales pt_clust_5="13000.00000" pt_clust_6="13000.00000" pt_clust_7="13000.00000" pt_clust_8="13000.00000" pt_clust_9="22.81427"></scales>
<clustering>
<clus scale="   22.814">  2  9  1 -1</clus>
<clus scale="   91.142">  5  6 -1 -1</clus>
<clus scale="   93.818">  2  5  1 -1</clus>
<clus scale="   94.528">  7  8 -1 -1</clus>
<clus scale="   22.814">  2  5  1 -1</clus>
</clustering>
</event>
<event>
 9    1  0.1234700E-005  0.1210691E+03  0.7546771E-02  0.1242141E+00
         -1   -1    0    0    0  501 -0.00000000000E+00  0.00000000000E+00  0.81887126587E+03  0.81887126587E+03  0.00000000000E+00 0.  1.
          1   -1    0    0  502    0  0.00000000000E+00 -0.00000000000E+00 -0.18105561749E+03  0.18105561749E+03  0.00000000000E+00 0. -1.
         23    2    1    2    0    0  0.26794531739E+02  0.69559552016E+02  0.56425856366E+03  0.57651271767E+03  0.91775316731E+02 0.  0.
         23    2    1    2    0    0 -0.17205013655E+02 -0.90301342757E+02  0.23109929581E+03  0.26422330849E+03  0.89200488950E+02 0.  0.
        -13    1    3    3    0    0 -0.21772935423E+01  0.85140889396E+02  0.42050035203E+03  0.42903876015E+03  0.00000000000E+00 0.  1.
         13    1    3    3    0    0  0.28971825281E+02 -0.15581337380E+02  0.14375821164E+03  0.14747395753E+03  0.00000000000E+00 0. -1.
        -13    1    4    4    0    0 -0.48709549769E+02 -0.39216542956E+02  0.79304543977E+02  0.10099390167E+03  0.00000000000E+00 0. -1.
         13    1    4    4    0    0  0.31504536113E+02 -0.51084799801E+02  0.15179475183E+03  0.16322940682E+03  0.00000000000E+00 0.  1.
         21    1    1    2  502  501 -0.95895180832E+01  0.20741790740E+02 -0.15754221109E+03  0.15919085720E+03  0.00000000000E+00 0. -1.
<scales pt_clust_5="13000.00000" pt_clust_6="13000.00000" pt_clust_7="13000.00000" pt_clust_8="13000.00000" pt_clust_9="22.85127"></scales>
<clustering>
<clus scale="   22.851">  2  9  1 -1</clus>
<clus scale="   89.200">  7  8 -1 -1</clus>
<clus scale="   91.775">  5  6 -1 -1</clus>
<clus scale="  119.129">  2  7  1 -1</clus>
<clus scale="   22.851">  2  5  1 -1</clus>
</clustering>
</event>
<event>
 9    1  0.1234700E-005  0.9936372E+02  0.7546771E-02  0.1282228E+00
          2   -1    0    0  502    0  0.00000000000E+00  0.00000000000E+00  0.19623427105E+03  0.19623427105E+03  0.00000000000E+00 0. -1.
         -2   -1    0    0    0  501 -0.00000000000E+00 -0.00000000000E+00 -0.81815478305E+02  0.81815478305E+02  0.00000000000E+00 0.  1.
         23    2    1    2    0    0 -0.25010183256E+02 -0.25581576451E+02 -0.11835608230E+02  0.98860068611E+02  0.91396418000E+02 0.  0.
         23    2    1    2    0    0  0.41009244527E+02  0.77320026806E+01  0.11695760332E+03  0.15347961089E+03  0.90196274766E+02 0.  0.
        -11    1    4    4    0    0  0.17811424365E+02  0.46557947018E+02  0.83399006479E+02  0.97161121598E+02  0.00000000000E+00 0. -1.
         11    1    4    4    0    0  0.23197820162E+02 -0.38825944338E+02  0.33558596845E+02  0.56318489293E+02  0.00000000000E+00 0.  1.
        -13    1    3    3    0    0 -0.57555788364E+02 -0.51304929027E+01  0.24948032020E+01  0.57837831690E+02  0.00000000000E+00 0.  1.
         13    1    3    3    0    0  0.32545605108E+02 -0.20451083548E+02 -0.14330411432E+02  0.41022236920E+02  0.00000000000E+00 0. -1.
         21    1    1    2  502  501 -0.15999061271E+02  0.17849573771E+02  0.92967976497E+01  0.25710069854E+02  0.00000000000E+00 0. -1.
<scales pt_clust_5="13000.00000" pt_clust_6="13000.00000" pt_clust_7="13000.00000" pt_clust_8="13000.00000" pt_clust_9="23.97034"></scales>
<clustering>
<clus scale="   23.970">  2  9  1 -1</clus>
<clus scale="   90.196">  5  6 -1 -1</clus>
<clus scale="   91.396">  7  8 -1 -1</clus>
<clus scale="   98.261">  1  5  2 -1</clus>
<clus scale="   98.261">  1  5  2 -1</clus>
</clustering>
</event>
<event>
 9    1  0.1234700E-005  0.9403889E+02  0.7546771E-02  0.1294772E+00
         -1   -1    0    0    0  501 -0.00000000000E+00  0.00000000000E+00  0.84383107596E+02  0.84383107596E+02  0.00000000000E+00 0.  1.
          1   -1    0    0  502    0  0.00000000000E+00 -0.00000000000E+00 -0.23196479757E+03  0.23196479757E+03  0.00000000000E+00 0. -1.
         23    2    1    2    0    0  0.21691019787E+02 -0.14158534864E+02  0.35998835739E+01  0.93939060881E+02  0.90225404120E+02 0.  0.
         23    2    1    2    0    0  0.31536681187E+02  0.17704985817E+02 -0.58398344906E+02  0.11538317922E+03  0.92708589548E+02 0.  0.
        -11    1    3    3    0    0 -0.13405594989E+02 -0.24297627768E+02  0.35762689478E+02  0.45266484852E+02  0.00000000000E+00 0.  1.
         11    1    3    3    0    0  0.35096614776E+02  0.10139092903E+02 -0.32162805905E+02  0.48672576029E+02  0.00000000000E+00 0. -1.
        -13    1    4    4    0    0 -0.25153102122E+02  0.31953364369E+02 -0.18949824494E+02  0.44864149265E+02  0.00000000000E+00 0.  1.
         13    1    4    4    0    0  0.56689783310E+02 -0.14248378552E+02 -0.39448520411E+02  0.70519029954E+02  0.00000000000E+00 0. -1.
         21    1    1    2  502  501 -0.53227700975E+02 -0.35464509533E+01 -0.92783228641E+02  0.10702566506E+03  0.00000000000E+00 0. -1.
<scales pt_clust_5="13000.00000" pt_clust_6="13000.00000" pt_clust_7="13000.00000" pt_clust_8="13000.00000" pt_clust_9="53.34572"></scales>
<clustering>
<clus scale="   53.346">  2  9  1 -1</clus>
<clus scale="   90.225">  5  6 -1 -1</clus>
<clus scale="   91.592">  1  5  2 -1</clus>
<clus scale="   92.709">  7  8 -1 -1</clus>
<clus scale="   53.346">  2  5  1 -1</clus>
</clustering>
</event>
<event>
 9    1  0.1234700E-005  0.1061986E+03  0.7546771E-02  0.1269122E+00
          1   -1    0    0  502    0  0.00000000000E+00  0.00000000000E+00  0.19979720727E+03  0.19979720727E+03  0.00000000000E+00 0. -1.
         -1   -1    0    0    0  501 -0.00000000000E+00 -0.00000000000E+00 -0.72773062455E+02  0.72773062455E+02  0.00000000000E+00 0.  1.
         23    2    1    2    0    0  0.71866854210E+01 -0.32789764483E+02  0.43904960240E+02  0.11091991929E+03  0.96170504102E+02 0.  0.
         23    2    1    2    0    0 -0.27538374743E+01  0.58336865609E+02  0.53430101551E+02  0.12223276340E+03  0.93141286157E+02 0.  0.
        -13    1    3    3    0    0  0.39600110382E+02  0.10569450503E+02  0.38977177883E+02  0.56560608395E+02  0.00000000000E+00 0. -1.
         13    1    3    3    0    0 -0.32413424961E+02 -0.43359214987E+02  0.49277823569E+01  0.54359310895E+02  0.00000000000E+00 0.  1.
        -13    1    4    4    0    0  0.18858294286E+02  0.65875862702E+02  0.50459205565E+01  0.68707538629E+02  0.00000000000E+00 0. -1.
         13    1    4    4    0    0 -0.21612131761E+02 -0.75389970930E+01  0.48384180994E+02  0.53525224772E+02  0.00000000000E+00 0.  1.
         21    1    1    2  502  501 -0.44328479466E+01 -0.25547101126E+02  0.29689083024E+02  0.39417587035E+02  0.00000000000E+00 0. -1.
<scales pt_clust_5="13000.00000" pt_clust_6="13000.00000" pt_clust_7="13000.00000" pt_clust_8="13000.00000" pt_clust_9="25.92884"></scales>
<clustering>
<clus scale="   25.929">  1  9  2 -1</clus>
<clus scale="   93.141">  7  8 -1 -1</clus>
<clus scale="   96.171">  5  6 -1 -1</clus>
<clus scale="  103.463">  1  7  2 -1</clus>
<clus scale="   25.929">  1  5  2 -1</clus>
</clustering>
</event>
<event>
 9    1  0.1234700E-005  0.9179366E+02  0.7546771E-02  0.1299128E+00
         -2   -1    0    0    0  501 -0.00000000000E+00  0.00000000000E+00  0.32897709670E+03  0.32897709670E+03  0.00000000000E+00 0.  1.
          2   -1    0    0  502    0  0.00000000000E+00 -0.00000000000E+00 -0.59930957891E+02  0.59930957891E+02  0.00000000000E+00 0. -1.
         23    2    1    2    0    0 -0.58374382626E+01  0.27318332357E+02  0.17227718069E+03  0.19625197911E+03  0.89749904463E+02 0.  0.
         23    2    1    2    0    0  0.11026572519E+02  0.92433702147E+01  0.11840946523E+03  0.14985424425E+03  0.90710902703E+02 0.  0.
        -13    1    3    3    0    0 -0.23176048385E+02 -0.21396531131E+02  0.11427003979E+03  0.11854359011E+03  0.00000000000E+00 0. -1.
         13    1    3    3    0    0  0.17338610123E+02  0.48714863488E+02  0.58007140896E+02  0.77708388997E+02  0.00000000000E+00 0.  1.
        -13    1    4    4    0    0 -0.18740422440E+02  0.16890075445E+02 -0.22627909211E+01  0.25329790850E+02  0.00000000000E+00 0.  1.
         13    1    4    4    0    0  0.29766994959E+02 -0.76467052305E+01  0.12067225615E+03  0.12452445340E+03  0.00000000000E+00 0. -1.
         21    1    1    2  502  501 -0.51891342568E+01 -0.36561702572E+02 -0.21640507104E+02  0.42801831234E+02  0.00000000000E+00 0. -1.
<scales pt_clust_5="13000.00000" pt_clust_6="13000.00000" pt_clust_7="13000.00000" pt_clust_8="13000.00000" pt_clust_9="36.92811"></scales>
<clustering>
<clus scale="   36.928">  2  9  1 -1</clus>
<clus scale="   89.750">  5  6 -1 -1</clus>
<clus scale="   90.711">  7  8 -1 -1</clus>
<clus scale="   90.844">  1  5  2 -1</clus>
<clus scale="   36.928">  2  5  1 -1</clus>
</clustering>
</event>
<event>
 9    1  0.1234700E-005  0.9305647E+02  0.7546771E-02  0.1296151E+00
          2   -1    0    0  502    0  0.00000000000E+00  0.00000000000E+00  0.13872052695E+03  0.13872052695E+03  0.00000000000E+00 0. -1.
         -2   -1    0    0    0  501 -0.00000000000E+00 -0.00000000000E+00 -0.24165740179E+03  0.24165740179E+03  0.00000000000E+00 0.  1.
         23    2    1    2    0    0 -0.71327698042E+01 -0.12110165873E+01 -0.12726108413E+03  0.15716566972E+03  0.91941944934E+02 0.  0.
         23    2    1    2    0    0 -0.13237248773E+02 -0.16984173539E+02 -0.74307476528E+02  0.12086866105E+03  0.92865199350E+02 0.  0.
        -11    1    3    3    0    0  0.16850961958E+02 -0.20423773803E+02 -0.23891651623E+00  0.26479096216E+02  0.00000000000E+00 0.  1.
         11    1    3    3    0    0 -0.23983731762E+02  0.19212757216E+02 -0.12702216761E+03  0.13068657350E+03  0.00000000000E+00 0. -1.
        -13    1    4    4    0    0  0.10539414034E+02  0.35241658092E+02 -0.38406762953E+02  0.53180195127E+02  0.00000000000E+00 0. -1.
         13    1    4    4    0    0 -0.23776662807E+02 -0.52225831631E+02 -0.35900713575E+02  0.67688465923E+02  0.00000000000E+00 0.  1.
         21    1    1    2  502  501  0.20370018577E+02  0.18195190127E+02  0.98631685811E+02  0.10234359798E+03  0.00000000000E+00 0. -1.
<scales pt_clust_5="13000.00000" pt_clust_6="13000.00000" pt_clust_7="13000.00000" pt_clust_8="13000.00000" pt_clust_9="27.31305"></scales>
<clustering>
<clus scale="   27.313">  1  9  2 -1</clus>
<clus scale="   91.942">  5  6 -1 -1</clus>
<clus scale="   92.135">  2  5  1 -1</clus>
<clus scale="   92.865">  7  8 -1 -1</clus>
<clus scale="   27.313">  1  5  2 -1</clus>
</clustering>
</event>
<event>
 9    1  0.1234700E-005  0.1027897E+03  0.7546771E-02  0.1280869E+00
         -3   -1    0    0    0  501 -0.00000000000E+00  0.00000000000E+00  0.19869153813E+03  0.19869153813E+03  0.00000000000E+00 0.  1.
          3   -1    0    0  502    0  0.00000000000E+00 -0.00000000000E+00 -0.78595197732E+02  0.78595197732E+02  0.00000000000E+00 0. -1.
         23    2    1    2    0    0 -0.20531454638E+01 -0.45794465770E+00  0.83504948450E+02  0.12299085298E+03  0.90273187502E+02 0.  0.
         23    2    1    2    0    0  0.17260166675E+02  0.23195144413E+02  0.56750041783E+02  0.12031640511E+03  0.10207615793E+03 0.  0.
        -11    1    4    4    0    0 -0.14490367070E+02  0.35332200894E+02 -0.14916049692E+02  0.40997849898E+02  0.00000000000E+00 0. -1.
         11    1    4    4    0    0  0.31750533745E+02 -0.12137056481E+02  0.71666091475E+02  0.79318555209E+02  0.00000000000E+00 0.  1.
        -11    1    3    3    0    0 -0.23592197374E+02  0.15629024108E+01 -0.10974152781E+02  0.26066577645E+02  0.00000000000E+00 0. -1.
         11    1    3    3    0    0  0.21539051910E+02 -0.20208470685E+01  0.94479101230E+02  0.96924275336E+02  0.00000000000E+00 0.  1.
         21    1    1    2  502  501 -0.15207021212E+02 -0.22737199755E+02 -0.20158649833E+02  0.33979477776E+02  0.00000000000E+00 0. -1.
<scales pt_clust_5="13000.00000" pt_clust_6="13000.00000" pt_clust_7="13000.00000" pt_clust_8="13000.00000" pt_clust_9="27.35386"></scales>
<clustering>
<clus scale="   27.354">  2  9  1 -1</clus>
<clus scale="   90.273">  7  8 -1 -1</clus>
<clus scale="   91.079">  1  7  2 -1</clus>
<clus scale="  102.076">  5  6 -1 -1</clus>
<clus scale="   27.354">  2  5  1 -1</clus>
</clustering>
</event>
<event>
 9    1  0.1234700E-005  0.1191453E+03  0.7546771E-02  0.1244932E+00
         -1   -1    0    0    0  501 -0.00000000000E+00  0.00000000000E+00  0.36903068419E+03  0.36903068419E+03  0.00000000000E+00 0.  1.
          1   -1    0    0  502    0  0.00000000000E+00 -0.00000000000E+00 -0.11160980476E+03  0.11160980476E+03  0.00000000000E+00 0. -1.
         23    2    1    2    0    0  0.78076807457E+02  0.51639829825E+02  0.28082251478E+03  0.30952784627E+03  0.90462936741E+02 0.  0.
         23    2    1    2    0    0 -0.67392106489E+02 -0.30341994281E+02 -0.56224230453E+02  0.13055301518E+03  0.91763789418E+02 0.  0.
        -11    1    4    4    0    0 -0.67506923190E+02  0.12831074475E+02 -0.13926075121E+02  0.70112457660E+02  0.00000000000E+00 0.  1.
         11    1    4    4    0    0  0.11481670177E+00 -0.43173068757E+02 -0.42298155332E+02  0.60440557519E+02  0.00000000000E+00 0. -1.
        -11    1    3    3    0    0  0.46195912895E+02  0.13947446206E+01  0.38943846821E+02  0.60436999313E+02  0.00000000000E+00 0. -1.
         11    1    3    3    0    0  0.31880894562E+02  0.50245085204E+02  0.24187866796E+03  0.24909084696E+03  0.00000000000E+00 0.  1.
         21    1    1    2  502  501 -0.10684700969E+02 -0.21297835543E+02  0.32822595095E+02  0.40559627493E+02  0.00000000000E+00 0. -1.
<scales pt_clust_5="13000.00000" pt_clust_6="13000.00000" pt_clust_7="13000.00000" pt_clust_8="13000.00000" pt_clust_9="23.82773"></scales>
<clustering>
<clus scale="   23.828">  1  9  2 -1</clus>
<clus scale="   90.463">  7  8 -1 -1</clus>
<clus scale="   91.764">  5  6 -1 -1</clus>
<clus scale="  118.146">  1  7  2 -1</clus>
<clus scale="  119.145">  2  5  1 -1</clus>
</clustering>
</event>
<event>
 9    1  0.1547674E-005  0.1242560E+03  0.7546771E-02  0.1248189E+00
          1   -1    0    0  502    0  0.00000000000E+00  0.00000000000E+00  0.36691992129E+03  0.36691992129E+03  0.00000000000E+00 0. -1.
         -1   -1    0    0    0  501 -0.00000000000E+00 -0.00000000000E+00 -0.57965819505E+02  0.57965819505E+02  0.00000000000E+00 0.  1.
         23    2    1    2    0    0  0.22253699555E+02 -0.31404036536E+02  0.19927509162E+02  0.10068937749E+03  0.90883466396E+02 0.  0.
         23    2    1    2    0    0 -0.26689202983E+02  0.88926660451E+01  0.22403115574E+03  0.25527000907E+03  0.11908579144E+03 0.  0.
        -11    1    3    3    0    0  0.48411208006E+02 -0.44958458718E+02  0.17873034715E+01  0.66091622197E+02  0.00000000000E+00 0. -1.
         11    1    3    3    0    0 -0.26157508451E+02  0.13554422183E+02  0.18140205691E+02  0.34597755297E+02  0.00000000000E+00 0.  1.
        -13    1    4    4    0    0  0.76644948805E+01 -0.19481558458E+02 -0.53448268482E+01  0.21606544743E+02  0.00000000000E+00 0.  1.
         13    1    4    4    0    0 -0.34353697863E+02  0.28374224503E+02  0.22937598259E+03  0.23366346433E+03  0.00000000000E+00 0. -1.
         21    1    1    2  502  501  0.44355034274E+01  0.22511370491E+02  0.64995436881E+02  0.68926354230E+02  0.00000000000E+00 0. -1.
<scales pt_clust_5="13000.00000" pt_clust_6="13000.00000" pt_clust_7="13000.00000" pt_clust_8="13000.00000" pt_clust_9="22.94418"></scales>
<clustering>
<clus scale="   22.944">  1  9  2 -1</clus>
<clus scale="   90.883">  5  6 -1 -1</clus>
<clus scale="   97.560">  2  5  1 -1</clus>
<clus scale="  119.086">  7  8 -1 -1</clus>
<clus scale="   22.944">  1  5  2 -1</clus>
</clustering>
</event>
<event>
 9    1  0.1234700E-005  0.1232691E+03  0.7546771E-02  0.1238062E+00
         -1   -1    0    0    0  501 -0.00000000000E+00  0.00000000000E+00  0.55089151690E+03  0.55089151690E+03  0.00000000000E+00 0.  1.
          1   -1    0    0  502    0  0.00000000000E+00 -0.00000000000E+00 -0.11775568543E+03  0.11775568543E+03  0.00000000000E+00 0. -1.
         23    2    1    2    0    0  0.75633159053E+02  0.12060934606E+02  0.39729272579E+03  0.41474154840E+03  0.91121902488E+02 0.  0.
         23    2    1    2    0    0 -0.11632483469E+03 -0.82270943179E+02  0.15926391712E+02  0.17034769042E+03  0.92003860904E+02 0.  0.
        -11    1    3    3    0    0  0.43206967163E+02 -0.30908018351E+02  0.28860334034E+03  0.29345193076E+03  0.00000000000E+00 0.  1.
         11    1    3    3    0    0  0.32426191890E+02  0.42968952957E+02  0.10868938544E+03  0.12128961764E+03  0.00000000000E+00 0. -1.
        -11    1    4    4    0    0 -0.33024638746E+02 -0.79638806997E+02  0.10062444110E+02  0.86799879756E+02  0.00000000000E+00 0.  1.
         11    1    4    4    0    0 -0.83300195944E+02 -0.26321361817E+01  0.58639476022E+01  0.83547810663E+02  0.00000000000E+00 0. -1.
         21    1    1    2  502  501  0.40691675637E+02  0.70210008573E+02  0.19916713976E+02  0.83557963508E+02  0.00000000000E+00 0.  1.
<scales pt_clust_5="13000.00000" pt_clust_6="13000.00000" pt_clust_7="13000.00000" pt_clust_8="13000.00000" pt_clust_9="81.14960"></scales>
<clustering>
<clus scale="   81.150">  2  9  1 -1</clus>
<clus scale="   91.122">  5  6 -1 -1</clus>
<clus scale="   92.004">  7  8 -1 -1</clus>
<clus scale="  122.612">  1  5  2 -1</clus>
<clus scale="   81.150">  2  5  1 -1</clus>
</clustering>
</event>
<event>
 9    1  0.1234700E-005  0.9182953E+02  0.7546771E-02  0.1298759E+00
          1   -1    0    0  502    0  0.00000000000E+00  0.00000000000E+00  0.75070154786E+02  0.75070154786E+02  0.00000000000E+00 0. -1.
         -1   -1    0    0    0  501 -0.00000000000E+00 -0.00000000000E+00 -0.17961343108E+03  0.17961343108E+03  0.00000000000E+00 0.  1.
         23    2    1    2    0    0  0.19397418794E+02 -0.17240322692E+02 -0.62560397955E+02  0.11345215772E+03  0.91017032017E+02 0.  0.
         23    2    1    2    0    0 -0.14348467059E+00 -0.28468623533E+01 -0.80900472874E+00  0.91537395803E+02  0.91489426321E+02 0.  0.
        -11    1    4    4    0    0  0.10840103746E+02 -0.31601335570E+02  0.32202329899E+02  0.46401964505E+02  0.00000000000E+00 0. -1.
         11    1    4    4    0    0 -0.10983588417E+02  0.28754473217E+02 -0.33011334628E+02  0.45135431297E+02  0.00000000000E+00 0.  1.
        -13    1    3    3    0    0  0.51900968968E+02  0.14214756785E+01 -0.54190743696E+02  0.75049103094E+02  0.00000000000E+00 0.  1.
         13    1    3    3    0    0 -0.32503550175E+02 -0.18661798371E+02 -0.83696542597E+01  0.38403054629E+02  0.00000000000E+00 0. -1.
         21    1    1    2  502  501 -0.19253934123E+02  0.20087185045E+02 -0.41173873615E+02  0.49694032345E+02  0.00000000000E+00 0.  1.
<scales pt_clust_5="13000.00000" pt_clust_6="13000.00000" pt_clust_7="13000.00000" pt_clust_8="13000.00000" pt_clust_9="27.82461"></scales>
<clustering>
<clus scale="   27.825">  2  9  1 -1</clus>
<clus scale="   91.017">  7  8 -1 -1</clus>
<clus scale="   91.359">  2  7  1 -1</clus>
<clus scale="   91.489">  5  6 -1 -1</clus>
<clus scale="   91.830">  1  5  2 -1</clus>
</clustering>
</event>
<event>
 9    1  0.1234700E-005  0.1123050E+03  0.7546771E-02  0.1257805E+00
         -2   -1    0    0    0  501 -0.00000000000E+00  0.00000000000E+00  0.12239088954E+03  0.12239088954E+03  0.00000000000E+00 0.  1.
          2   -1    0    0  502    0  0.00000000000E+00 -0.00000000000E+00 -0.22055799625E+03  0.22055799625E+03  0.00000000000E+00 0. -1.
         23    2    1    2    0    0  0.63085155294E+02 -0.10899046020E+02  0.41039785642E+02  0.11813365086E+03  0.90403370716E+02 0.  0.
         23    2    1    2    0    0 -0.57191979042E+02 -0.11040533029E+02 -0.32074260110E+02  0.11530050740E+03  0.94194654888E+02 0.  0.
        -11    1    4    4    0    0 -0.42877479106E+02 -0.44716515148E+02  0.63059340950E+01  0.62272062325E+02  0.00000000000E+00 0.  1.
         11    1    4    4    0    0 -0.14314499936E+02  0.33675982119E+02 -0.38380194205E+02  0.53028445078E+02  0.00000000000E+00 0. -1.
        -13    1    3    3    0    0 -0.23462961403E+02 -0.22670531400E+01  0.57056074605E+01  0.24252918262E+02  0.00000000000E+00 0. -1.
         13    1    3    3    0    0  0.86548116697E+02 -0.86319928803E+01  0.35334178182E+02  0.93880732596E+02  0.00000000000E+00 0.  1.
         21    1    1    2  502  501 -0.58931762524E+01  0.21939579049E+02 -0.10713263224E+03  0.10951472753E+03  0.00000000000E+00 0. -1.
<scales pt_clust_5="13000.00000" pt_clust_6="13000.00000" pt_clust_7="13000.00000" pt_clust_8="13000.00000" pt_clust_9="22.71728"></scales>
<clustering>
<clus scale="   22.717">  2  9  1 -1</clus>
<clus scale="   90.403">  7  8 -1 -1</clus>
<clus scale="   94.195">  5  6 -1 -1</clus>
<clus scale="  109.145">  1  7  2 -1</clus>
<clus scale="   22.717">  2  5  1 -1</clus>
</clustering>
</event>
<event>
 9    1  0.1234700E-005  0.9788441E+02  0.7546771E-02  0.1286413E+00
          1   -1    0    0  502    0  0.00000000000E+00  0.00000000000E+00  0.15994728337E+03  0.15994728337E+03  0.00000000000E+00 0. -1.
         -1   -1    0    0    0  501 -0.00000000000E+00 -0.00000000000E+00 -0.79503006407E+02  0.79503006407E+02  0.00000000000E+00 0.  1.
         23    2    1    2    0    0  0.74833927888E+01 -0.24838913471E+02  0.27447733742E+02  0.99546273830E+02  0.92103798813E+02 0.  0.
         23    2    1    2    0    0  0.14400733222E+02  0.41461087731E+02  0.28899473938E+02  0.10335431832E+03  0.88997374167E+02 0.  0.
        -11    1    3    3    0    0  0.49568587578E+02 -0.16740800791E+02  0.20185424897E+02  0.56078076499E+02  0.00000000000E+00 0. -1.
         11    1    3    3    0    0 -0.42085194789E+02 -0.80981126800E+01  0.72623088452E+01  0.43468197330E+02  0.00000000000E+00 0.  1.
        -13    1    4    4    0    0  0.11880375201E+02  0.65320857603E+02  0.78911888725E+00  0.66397141968E+02  0.00000000000E+00 0.  1.
         13    1    4    4    0    0  0.25203580216E+01 -0.23859769872E+02  0.28110355051E+02  0.36957176353E+02  0.00000000000E+00 0. -1.
         21    1    1    2  502  501 -0.21884126011E+02 -0.16622174260E+02  0.24097069278E+02  0.36549697621E+02  0.00000000000E+00 0.  1.
<scales pt_clust_5="13000.00000" pt_clust_6="13000.00000" pt_clust_7="13000.00000" pt_clust_8="13000.00000" pt_clust_9="27.48111"></scales>
<clustering>
<clus scale="   27.481">  1  9  2 -1</clus>
<clus scale="   88.997">  7  8 -1 -1</clus>
<clus scale="   92.104">  5  6 -1 -1</clus>
<clus scale="   94.967">  1  7  2 -1</clus>
<clus scale="   27.481">  1  5  2 -1</clus>
</clustering>
</event>
<event>
 9    1  0.1234700E-005  0.1019868E+03  0.7546771E-02  0.1276251E+00
          1   -1    0    0  502    0  0.00000000000E+00  0.00000000000E+00  0.52191360778E+03  0.52191360778E+03  0.00000000000E+00 0. -1.
         -1   -1    0    0    0  501 -0.00000000000E+00 -0.00000000000E+00 -0.48729461936E+02  0.48729461936E+02  0.00000000000E+00 0.  1.
         23    2    1    2    0    0  0.51476365196E+02  0.20804174135E+02  0.40001112706E+02  0.11398470500E+03  0.91158072171E+02 0.  0.
         23    2    1    2    0    0 -0.15960438632E+02  0.15496007599E+02  0.27353676535E+03  0.28912921784E+03  0.90986156954E+02 0.  0.
        -11    1    3    3    0    0 -0.96712062083E+01  0.39965962645E+02  0.63510666656E+01  0.41607048051E+02  0.00000000000E+00 0.  1.
         11    1    3    3    0    0  0.61147571404E+02 -0.19161788510E+02  0.33650046041E+02  0.72377656953E+02  0.00000000000E+00 0. -1.
        -11    1    4    4    0    0  0.25623216118E+02  0.11731658861E+02  0.26817942300E+02  0.38902224269E+02  0.00000000000E+00 0. -1.
         11    1    4    4    0    0 -0.41583654750E+02  0.37643487380E+01  0.24671882305E+03  0.25022699357E+03  0.00000000000E+00 0.  1.
         21    1    1    2  502  501 -0.35515926564E+02 -0.36300181734E+02  0.15964626779E+03  0.16752914688E+03  0.00000000000E+00 0.  1.
<scales pt_clust_5="13000.00000" pt_clust_6="13000.00000" pt_clust_7="13000.00000" pt_clust_8="13000.00000" pt_clust_9="50.78469"></scales>
<clustering>
<clus scale="   50.785">  1  9  2 -1</clus>
<clus scale="   90.986">  7  8 -1 -1</clus>
<clus scale="   91.158">  5  6 -1 -1</clus>
<clus scale="  101.833">  1  7  2 -1</clus>
<clus scale="   50.785">  1  5  2 -1</clus>
</clustering>
</event>
<event>
 9    1  0.1234700E-005  0.1728861E+03  0.7546771E-02  0.1175412E+00
          2   -1    0    0  502    0  0.00000000000E+00  0.00000000000E+00  0.10679112604E+03  0.10679112604E+03  0.00000000000E+00 0. -1.
         -2   -1    0    0    0  501 -0.00000000000E+00 -0.00000000000E+00 -0.44150638850E+03  0.44150638850E+03  0.00000000000E+00 0.  1.
         23    2    1    2    0    0  0.14323024768E+03  0.55822382648E+02 -0.29671134252E+03  0.34606888769E+03  0.89972284586E+02 0.  0.
         23    2    1    2    0    0 -0.10382425011E+03 -0.64244090599E+02 -0.12496676407E+02  0.15453819508E+03  0.93910109834E+02 0.  0.
        -11    1    4    4    0    0 -0.40417210081E+02 -0.73800610942E+02 -0.27795426042E+02  0.88615273824E+02  0.00000000000E+00 0.  1.
         11    1    4    4    0    0 -0.63407040029E+02  0.95565203426E+01  0.15298749635E+02  0.65922921254E+02  0.00000000000E+00 0. -1.
        -13    1    3    3    0    0  0.10443621938E+03 -0.21133317779E+01 -0.21212568300E+03  0.23645019661E+03  0.00000000000E+00 0.  1.
         13    1    3    3    0    0  0.38794028302E+02  0.57935714426E+02 -0.84585659517E+02  0.10961869108E+03  0.00000000000E+00 0. -1.
         21    1    1    2  502  501 -0.39405997569E+02  0.84217079511E+01 -0.25507243542E+02  0.47690431769E+02  0.00000000000E+00 0. -1.
<scales pt_clust_5="13000.00000" pt_clust_6="13000.00000" pt_clust_7="13000.00000" pt_clust_8="13000.00000" pt_clust_9="40.29588"></scales>
<clustering>
<clus scale="   40.296">  1  9  2 -1</clus>
<clus scale="   89.972">  7  8 -1 -1</clus>
<clus scale="   93.910">  5  6 -1 -1</clus>
<clus scale="  170.779">  2  7  1 -1</clus>
<clus scale="   40.296">  1  5  2 -1</clus>
</clustering>
</event>
<event>
 9    1  0.1234700E-005  0.1406066E+03  0.7546771E-02  0.1216793E+00
          1   -1    0    0  502    0  0.00000000000E+00  0.00000000000E+00  0.29148100879E+03  0.29148100879E+03  0.00000000000E+00 0. -1.
         -1   -1    0    0    0  501 -0.00000000000E+00 -0.00000000000E+00 -0.12654775415E+03  0.12654775415E+03  0.00000000000E+00 0.  1.
         23    2    1    2    0    0  0.31893976264E+02 -0.52778134633E+02  0.31798098327E+02  0.12765526383E+03  0.10715404849E+03 0.  0.
         23    2    1    2    0    0 -0.68829840723E+02  0.98245291982E+02  0.60468842409E+01  0.15043440743E+03  0.90577379961E+02 0.  0.
        -11    1    3    3    0    0  0.13440963398E+02  0.30265385767E+02 -0.74897163254E+01  0.33952156387E+02  0.00000000000E+00 0.  1.
         11    1    3    3    0    0  0.18453012866E+02 -0.83043520400E+02  0.39287814653E+02  0.93703107443E+02  0.00000000000E+00 0. -1.
        -13    1    4    4    0    0 -0.48816261845E+02  0.75905600046E-01 -0.73053300458E+01  0.49359913182E+02  0.00000000000E+00 0. -1.
         13    1    4    4    0    0 -0.20013578877E+02  0.98169386382E+02  0.13352214287E+02  0.10107449425E+03  0.00000000000E+00 0.  1.
         21    1    1    2  502  501  0.36935864458E+02 -0.45467157349E+02  0.12708827207E+03  0.13993909167E+03  0.00000000000E+00 0. -1.
<scales pt_clust_5="13000.00000" pt_clust_6="13000.00000" pt_clust_7="13000.00000" pt_clust_8="13000.00000" pt_clust_9="58.57918"></scales>
<clustering>
<clus scale="   58.579">  1  9  2 -1</clus>
<clus scale="   90.577">  7  8 -1 -1</clus>
<clus scale="  107.154">  5  6 -1 -1</clus>
<clus scale="  128.423">  1  7  2 -1</clus>
<clus scale="   58.579">  1  5  2 -1</clus>
</clustering>
</event>
<event>
 9    1  0.1234700E-005  0.1084769E+03  0.7546771E-02  0.1268713E+00
          3   -1    0    0  502    0  0.00000000000E+00  0.00000000000E+00  0.25485009154E+03  0.25485009154E+03  0.00000000000E+00 0. -1.
         -3   -1    0    0    0  501 -0.00000000000E+00 -0.00000000000E+00 -0.10844712877E+03  0.10844712877E+03  0.00000000000E+00 0.  1.
         23    2    1    2    0    0  0.24151506195E+02  0.39018531191E+02 -0.44097490791E+02  0.12144312527E+03  0.10343163420E+03 0.  0.
         23    2    1    2    0    0  0.96534206910E+01  0.17446924468E+01  0.95724901162E+02  0.13328697839E+03  0.92227595781E+02 0.  0.
        -11    1    4    4    0    0 -0.42150235664E+01 -0.44244937450E+02  0.40962150523E+02  0.60442358401E+02  0.00000000000E+00 0. -1.
         11    1    4    4    0    0  0.13868444257E+02  0.45989629896E+02  0.54762750638E+02  0.72844619991E+02  0.00000000000E+00 0.  1.
        -11    1    3    3    0    0  0.30344839777E+02 -0.30342710099E+02 -0.22958917137E+02  0.48668277485E+02  0.00000000000E+00 0. -1.
         11    1    3    3    0    0 -0.61933335817E+01  0.69361241290E+02 -0.21138573654E+02  0.72774847786E+02  0.00000000000E+00 0.  1.
         21    1    1    2  502  501 -0.33804926886E+02 -0.40763223637E+02  0.94775552404E+02  0.10856711664E+03  0.00000000000E+00 0. -1.
<scales pt_clust_5="13000.00000" pt_clust_6="13000.00000" pt_clust_7="13000.00000" pt_clust_8="13000.00000" pt_clust_9="52.95671"></scales>
<clustering>
<clus scale="   52.957">  1  9  2 -1</clus>
<clus scale="   92.228">  5  6 -1 -1</clus>
<clus scale="   97.852">  1  5  2 -1</clus>
<clus scale="  103.432">  7  8 -1 -1</clus>
<clus scale="   52.957">  1  5  2 -1</clus>
</clustering>
</event>
<event>
 9    1  0.1234700E-005  0.1100703E+03  0.7546771E-02  0.1260837E+00
         -1   -1    0    0    0  501 -0.00000000000E+00  0.00000000000E+00  0.41884529717E+03  0.41884529717E+03  0.00000000000E+00 0.  1.
          1   -1    0    0  502    0  0.00000000000E+00 -0.00000000000E+00 -0.87226570552E+02  0.87226570552E+02  0.00000000000E+00 0. -1.
         23    2    1    2    0    0 -0.61275946754E+02  0.46042458204E+02  0.26562616806E+03  0.29123660100E+03  0.91579730276E+02 0.  0.
         23    2    1    2    0    0  0.12740715668E+02 -0.41655946584E+02  0.11013251473E+03  0.14908387227E+03  0.90549911361E+02 0.  0.
        -11    1    4    4    0    0  0.28533467681E+02  0.13169332838E+02  0.85383511420E+01  0.32565219875E+02  0.00000000000E+00 0.  1.
         11    1    4    4    0    0 -0.15792752013E+02 -0.54825279422E+02  0.10159416359E+03  0.11651865239E+03  0.00000000000E+00 0. -1.
        -13    1    3    3    0    0  0.13068549644E+02  0.21642471390E+02  0.14680427546E+03  0.14896536125E+03  0.00000000000E+00 0.  1.
         13    1    3    3    0    0 -0.74344496397E+02  0.24399986814E+02  0.11882189260E+03  0.14227123976E+03  0.00000000000E+00 0. -1.
         21    1    1    2  502  501  0.48535231085E+02 -0.43865116199E+01 -0.44139956177E+02  0.65751394449E+02  0.00000000000E+00 0.  1.
<scales pt_clust_5="13000.00000" pt_clust_6="13000.00000" pt_clust_7="13000.00000" pt_clust_8="13000.00000" pt_clust_9="48.73305"></scales>
<clustering>
<clus scale="   48.733">  2  9  1 -1</clus>
<clus scale="   90.550">  5  6 -1 -1</clus>
<clus scale="   91.580">  7  8 -1 -1</clus>
<clus scale="  109.215">  2  5  1 -1</clus>
<clus scale="   48.733">  2  5  1 -1</clus>
</clustering>
</event>
<event>
 9    1  0.1234700E-005  0.1045331E+03  0.7546771E-02  0.1273815E+00
         -1   -1    0    0    0  501 -0.00000000000E+00  0.00000000000E+00  0.24687802245E+02  0.24687802245E+02  0.00000000000E+00 0.  1.
          1   -1    0    0  502    0  0.00000000000E+00 -0.00000000000E+00 -0.72474708909E+03  0.72474708909E+03  0.00000000000E+00 0. -1.
         23    2    1    2    0    0  0.15100273984E+01  0.52546843397E+02 -0.15055293477E+03  0.18089339155E+03  0.85397786871E+02 0.  0.
         23    2    1    2    0    0 -0.35316233330E+02 -0.40617872066E+02 -0.34793831597E+03  0.36381037589E+03  0.91650804768E+02 0.  0.
        -11    1    3    3    0    0 -0.38439500279E+02  0.80375769431E+01 -0.73708217290E+02  0.83517058862E+02  0.00000000000E+00 0.  1.
         11    1    3    3    0    0  0.39949527678E+02  0.44509266454E+02 -0.76844717482E+02  0.97376332683E+02  0.00000000000E+00 0. -1.
        -13    1    4    4    0    0  0.21834289574E+02 -0.52596651696E+01 -0.23583355055E+02  0.32566469175E+02  0.00000000000E+00 0.  1.
         13    1    4    4    0    0 -0.57150522904E+02 -0.35358206896E+02 -0.32435496092E+03  0.33124390672E+03  0.00000000000E+00 0. -1.
         21    1    1    2  502  501  0.33806205932E+02 -0.11928971332E+02 -0.20156803610E+03  0.20473112390E+03  0.00000000000E+00 0.  1.
<scales pt_clust_5="13000.00000" pt_clust_6="13000.00000" pt_clust_7="13000.00000" pt_clust_8="13000.00000" pt_clust_9="35.84913"></scales>
<clustering>
<clus scale="   35.849">  2  9  1 -1</clus>
<clus scale="   85.398">  5  6 -1 -1</clus>
<clus scale="   91.651">  7  8 -1 -1</clus>
<clus scale="   99.096">  1  5  2 -1</clus>
<clus scale="   35.849">  2  5  1 -1</clus>
</clustering>
</event>
<event>
 9    1  0.1234700E-005  0.1174692E+03  0.7546771E-02  0.1249509E+00
          1   -1    0    0  502    0  0.00000000000E+00  0.00000000000E+00  0.69776346805E+02  0.69776346805E+02  0.00000000000E+00 0. -1.
         -1   -1    0    0    0  501 -0.00000000000E+00 -0.00000000000E+00 -0.29060187006E+03  0.29060187006E+03  0.00000000000E+00 0.  1.
         23    2    1    2    0    0 -0.61673703264E+02  0.13255019522E+02 -0.13751678639E+03  0.17818665239E+03  0.94129035559E+02 0.  0.
         23    2    1    2    0    0  0.59875214820E+02  0.24242838405E+02 -0.41802695230E+02  0.12622661649E+03  0.10006466319E+03 0.  0.
        -13    1    4    4    0    0  0.10473400765E+02 -0.29697779338E+02  0.13766071951E+02  0.34367935029E+02  0.00000000000E+00 0.  1.
         13    1    4    4    0    0  0.49401814055E+02  0.53940617743E+02 -0.55568767181E+02  0.91858681465E+02  0.00000000000E+00 0. -1.
        -13    1    3    3    0    0 -0.40040737567E+02  0.51264931087E+02 -0.56685196287E+02  0.86281894406E+02  0.00000000000E+00 0. -1.
         13    1    3    3    0    0 -0.21632965697E+02 -0.38009911565E+02 -0.80831590103E+02  0.91904757987E+02  0.00000000000E+00 0.  1.
         21    1    1    2  502  501  0.17984884443E+01 -0.37497857927E+02 -0.41506041631E+02  0.55964947974E+02  0.00000000000E+00 0.  1.
<scales pt_clust_5="13000.00000" pt_clust_6="13000.00000" pt_clust_7="13000.00000" pt_clust_8="13000.00000" pt_clust_9="37.54096"></scales>
<clustering>
<clus scale="   37.541">  2  9  1 -1</clus>
<clus scale="   94.129">  7  8 -1 -1</clus>
<clus scale="  100.065">  5  6 -1 -1</clus>
<clus scale="  112.456">  2  7  1 -1</clus>
<clus scale="  117.469">  1  5  2 -1</clus>
</clustering>
</event>
<event>
 9    1  0.1234700E-005  0.9674626E+02  0.7546771E-02  0.1287951E+00
          1   -1    0    0  502    0  0.00000000000E+00  0.00000000000E+00  0.50099779018E+03  0.50099779018E+03  0.00000000000E+00 0. -1.
         -1   -1    0    0    0  501 -0.00000000000E+00 -0.00000000000E+00 -0.53133589844E+02  0.53133589844E+02  0.00000000000E+00 0.  1.
         23    2    1    2    0    0 -0.32788443571E+02  0.57488801787E+01  0.21455501487E+02  0.10177770441E+03  0.93756231347E+02 0.  0.
         23    2    1    2    0    0 -0.22470667154E+02 -0.54185074563E+01  0.28490122412E+03  0.30043908162E+03  0.92523743720E+02 0.  0.
        -13    1    4    4    0    0  0.85538580070E+01  0.37578876840E+02  0.80157569421E+02  0.88941421210E+02  0.00000000000E+00 0. -1.
         13    1    4    4    0    0 -0.31024525161E+02 -0.42997384297E+02  0.20474365470E+03  0.21149766041E+03  0.00000000000E+00 0.  1.
        -13    1    3    3    0    0 -0.45745173226E+02  0.38567237497E+02 -0.12023496353E+01  0.59845620778E+02  0.00000000000E+00 0.  1.
         13    1    3    3    0    0  0.12956729655E+02 -0.32818357319E+02  0.22657851122E+02  0.41932083634E+02  0.00000000000E+00 0. -1.
         21    1    1    2  502  501  0.55259110725E+02 -0.33037272246E+00  0.14150747473E+03  0.15191459399E+03  0.00000000000E+00 0. -1.
<scales pt_clust_5="13000.00000" pt_clust_6="13000.00000" pt_clust_7="13000.00000" pt_clust_8="13000.00000" pt_clust_9="55.26010"></scales>
<clustering>
<clus scale="   55.260">  1  9  2 -1</clus>
<clus scale="   92.524">  5  6 -1 -1</clus>
<clus scale="   93.756">  7  8 -1 -1</clus>
<clus scale="   95.552">  1  5  2 -1</clus>
<clus scale="   55.260">  1  5  2 -1</clus>
</clustering>
</event>
<event>
 9    1  0.1234700E-005  0.1009364E+03  0.7546771E-02  0.1278945E+00
         -1   -1    0    0    0  501 -0.00000000000E+00  0.00000000000E+00  0.49762206029E+03  0.49762206029E+03  0.00000000000E+00 0.  1.
          1   -1    0    0  502    0  0.00000000000E+00 -0.00000000000E+00 -0.54710620323E+02  0.54710620323E+02  0.00000000000E+00 0. -1.
         23    2    1    2    0    0  0.44451654441E+02 -0.21645517236E+02  0.27140550852E+03  0.29069371622E+03  0.91637375517E+02 0.  0.
         23    2    1    2    0    0 -0.37316887717E+02 -0.41537636019E+01  0.19993296166E+03  0.22259278872E+03  0.90357935861E+02 0.  0.
        -13    1    3    3    0    0  0.15024441177E+02 -0.54326294174E+02  0.18980139532E+03  0.19799406491E+03  0.00000000000E+00 0.  1.
         13    1    3    3    0    0  0.29427213264E+02  0.32680776938E+02  0.81604113199E+02  0.92699651308E+02  0.00000000000E+00 0. -1.
        -13    1    4    4    0    0  0.28172054610E+02 -0.12090708719E+02  0.80705322646E+02  0.86331911838E+02  0.00000000000E+00 0. -1.
         13    1    4    4    0    0 -0.65488942327E+02  0.79369451169E+01  0.11922763901E+03  0.13626087688E+03  0.00000000000E+00 0.  1.
         21    1    1    2  502  501 -0.71347667241E+01  0.25799280838E+02 -0.28427030215E+02  0.39046175675E+02  0.00000000000E+00 0. -1.
<scales pt_clust_5="13000.00000" pt_clust_6="13000.00000" pt_clust_7="13000.00000" pt_clust_8="13000.00000" pt_clust_9="26.76766"></scales>
<clustering>
<clus scale="   26.768">  2  9  1 -1</clus>
<clus scale="   90.358">  7  8 -1 -1</clus>
<clus scale="   91.637">  5  6 -1 -1</clus>
<clus scale="   99.776">  2  7  1 -1</clus>
<clus scale="   26.768">  2  5  1 -1</clus>
</clustering>
</event>
<event>
 9    1  0.1234700E-005  0.1456025E+03  0.7546771E-02  0.1206516E+00
         -1   -1    0    0    0  501 -0.00000000000E+00  0.00000000000E+00  0.50149668884E+02  0.50149668884E+02  0.00000000000E+00 0.  1.
          1   -1    0    0  502    0  0.00000000000E+00 -0.00000000000E+00 -0.73017982895E+03  0.73017982895E+03  0.00000000000E+00 0. -1.
         23    2    1    2    0    0 -0.11287734984E+03 -0.80124040578E+02 -0.23825752344E+03  0.29063648192E+03  0.92421637947E+02 0.  0.
         23    2    1    2    0    0  0.46787568809E+02  0.89189084196E+02 -0.34876135331E+03  0.37523283508E+03  0.94981206683E+02 0.  0.
        -11    1    3    3    0    0 -0.91437150635E+02 -0.54959281730E+02 -0.23416824675E+03  0.25732478107E+03  0.00000000000E+00 0.  1.
         11    1    3    3    0    0 -0.21440199208E+02 -0.25164758849E+02 -0.40892766910E+01  0.33311700855E+02  0.00000000000E+00 0. -1.
        -13    1    4    4    0    0 -0.11801461300E+02  0.51500655890E+02 -0.68871829004E+02  0.86803922010E+02  0.00000000000E+00 0.  1.
         13    1    4    4    0    0  0.58589030109E+02  0.37688428306E+02 -0.27988952430E+03  0.28842891307E+03  0.00000000000E+00 0. -1.
         21    1    1    2  502  501  0.66089781034E+02 -0.90650436178E+01 -0.93011283311E+02  0.11446018083E+03  0.00000000000E+00 0.  1.
<scales pt_clust_5="13000.00000" pt_clust_6="13000.00000" pt_clust_7="13000.00000" pt_clust_8="13000.00000" pt_clust_9="66.70858"></scales>
<clustering>
<clus scale="   66.709">  1  9  2 -1</clus>
<clus scale="   92.422">  5  6 -1 -1</clus>
<clus scale="   94.981">  7  8 -1 -1</clus>
<clus scale="  143.946">  1  5  2 -1</clus>
<clus scale="  145.602">  2  5  1 -1</clus>
</clustering>
</event>
<event>
 9    1  0.1234700E-005  0.9194255E+02  0.7546771E-02  0.1300767E+00
          1   -1    0    0  502    0  0.00000000000E+00  0.00000000000E+00  0.25414372327E+02  0.25414372327E+02  0.00000000000E+00 0. -1.
         -1   -1    0    0    0  501 -0.00000000000E+00 -0.00000000000E+00 -0.41602691056E+03  0.41602691056E+03  0.00000000000E+00 0.  1.
         23    2    1    2    0    0 -0.90553888132E+01  0.19534069979E+02 -0.22830887436E+03  0.24662430837E+03  0.90747051809E+02 0.  0.
         23    2    1    2    0    0 -0.77595737862E+01 -0.76463124984E+01 -0.13272174047E+03  0.15877322419E+03  0.86459234594E+02 0.  0.
        -13    1    4    4    0    0 -0.25110935960E+02 -0.41615880183E+02 -0.66810149799E+02  0.82619832391E+02  0.00000000000E+00 0.  1.
         13    1    4    4    0    0  0.17351362174E+02  0.33969567684E+02 -0.65911590670E+02  0.76153391800E+02  0.00000000000E+00 0. -1.
        -13    1    3    3    0    0 -0.38420204242E+02  0.27888647211E+02 -0.19797093592E+03  0.20358384073E+03  0.00000000000E+00 0.  1.
         13    1    3    3    0    0  0.29364815429E+02 -0.83545772323E+01 -0.30337938431E+02  0.43040467634E+02  0.00000000000E+00 0. -1.
         21    1    1    2  502  501  0.16814962599E+02 -0.11887757480E+02 -0.29581923408E+02  0.36043750327E+02  0.00000000000E+00 0. -1.
<scales pt_clust_5="13000.00000" pt_clust_6="13000.00000" pt_clust_7="13000.00000" pt_clust_8="13000.00000" pt_clust_9="20.59276"></scales>
<clustering>
<clus scale="   20.593">  1  9  2 -1</clus>
<clus scale="   86.459">  5  6 -1 -1</clus>
<clus scale="   87.713">  1  5  2 -1</clus>
<clus scale="   90.747">  7  8 -1 -1</clus>
<clus scale="   20.593">  1  5  2 -1</clus>
</clustering>
</event>
<event>
 9    1  0.1234700E-005  0.1554950E+03  0.7546771E-02  0.1194422E+00
         -2   -1    0    0    0  501 -0.00000000000E+00  0.00000000000E+00  0.48313791310E+03  0.48313791310E+03  0.00000000000E+00 0.  1.
          2   -1    0    0  502    0  0.00000000000E+00 -0.00000000000E+00 -0.16431773305E+03  0.16431773305E+03  0.00000000000E+00 0. -1.
         23    2    1    2    0    0  0.32536090593E+02 -0.12253332162E+03  0.42057340939E+03  0.44908659329E+03  0.93401089355E+02 0.  0.
         23    2    1    2    0    0 -0.35609523750E+02  0.99983116425E+02 -0.61912056461E+02  0.15248575741E+03  0.90300286403E+02 0.  0.
        -11    1    3    3    0    0 -0.27291960469E+02 -0.78713782491E+02  0.22231829783E+03  0.23741553490E+03  0.00000000000E+00 0. -1.
         11    1    3    3    0    0  0.59828051063E+02 -0.43819539124E+02  0.19825511156E+03  0.21167105839E+03  0.00000000000E+00 0.  1.
        -11    1    4    4    0    0 -0.53144146525E+02  0.21704490040E+02 -0.37757263894E+02  0.68709505707E+02  0.00000000000E+00 0.  1.
         11    1    4    4    0    0  0.17534622775E+02  0.78278626385E+02 -0.24154792567E+02  0.83776251698E+02  0.00000000000E+00 0. -1.
         21    1    1    2  502  501  0.30734331569E+01  0.22550205190E+02 -0.39841172879E+02  0.45883295456E+02  0.00000000000E+00 0.  1.
<scales pt_clust_5="13000.00000" pt_clust_6="13000.00000" pt_clust_7="13000.00000" pt_clust_8="13000.00000" pt_clust_9="22.75869"></scales>
<clustering>
<clus scale="   22.759">  2  9  1 -1</clus>
<clus scale="   90.300">  7  8 -1 -1</clus>
<clus scale="   93.401">  5  6 -1 -1</clus>
<clus scale="  153.652">  2  7  1 -1</clus>
<clus scale="   22.759">  2  5  1 -1</clus>
</clustering>
</event>
<event>
 9    1  0.1234700E-005  0.1275014E+03  0.7546771E-02  0.1237083E+00
          2   -1    0    0  502    0  0.00000000000E+00  0.00000000000E+00  0.27698976160E+03  0.27698976160E+03  0.00000000000E+00 0. -1.
         -2   -1    0    0    0  501 -0.00000000000E+00 -0.00000000000E+00 -0.78411700324E+02  0.78411700324E+02  0.00000000000E+00 0.  1.
         23    2    1    2    0    0 -0.66397632626E+02 -0.10700024709E+02  0.37596406499E+02  0.13398491432E+03  0.10961446682E+03 0.  0.
         23    2    1    2    0    0  0.63438709892E+02 -0.14694964863E+02  0.85511459488E+02  0.14173335555E+03  0.92388973731E+02 0.  0.
        -11    1    4    4    0    0  0.31520906581E+02 -0.40814964033E+02  0.56850621680E+01  0.51882066001E+02  0.00000000000E+00 0.  1.
         11    1    4    4    0    0  0.31917803311E+02  0.26119999169E+02  0.79826397320E+02  0.89851289551E+02  0.00000000000E+00 0. -1.
        -13    1    3    3    0    0  0.26668215862E+02 -0.15902772140E+02 -0.50902818649E+01  0.31464311028E+02  0.00000000000E+00 0.  1.
         13    1    3    3    0    0 -0.93065848488E+02  0.52027474314E+01  0.42686688364E+02  0.10252060329E+03  0.00000000000E+00 0. -1.
         21    1    1    2  502  501  0.29589227343E+01  0.25394989573E+02  0.75470195287E+02  0.79683192053E+02  0.00000000000E+00 0. -1.
<scales pt_clust_5="13000.00000" pt_clust_6="13000.00000" pt_clust_7="13000.00000" pt_clust_8="13000.00000" pt_clust_9="25.56679"></scales>
<clustering>
<clus scale="   25.567">  1  9  2 -1</clus>
<clus scale="   92.389">  5  6 -1 -1</clus>
<clus scale="  109.614">  7  8 -1 -1</clus>
<clus scale="  113.035">  1  5  2 -1</clus>
<clus scale="   25.567">  1  5  2 -1</clus>
</clustering>
</event>
<event>
 9    1  0.1234700E-005  0.9890360E+02  0.7546771E-02  0.1282755E+00
          1   -1    0    0  502    0  0.00000000000E+00  0.00000000000E+00  0.15435845935E+03  0.15435845935E+03  0.00000000000E+00 0. -1.
         -1   -1    0    0    0  501 -0.00000000000E+00 -0.00000000000E+00 -0.31294719157E+03  0.31294719157E+03  0.00000000000E+00 0.  1.
         23    2    1    2    0    0  0.13054164365E+02 -0.36395473759E+02 -0.26951951802E+03  0.28671439913E+03  0.89829473761E+02 0.  0.
         23    2    1    2    0    0 -0.20146080798E+02  0.64700050639E+02  0.81275090018E+02  0.13898710965E+03  0.90110017567E+02 0.  0.
        -11    1    4    4    0    0 -0.25929287823E+02  0.54739834884E+00  0.68600278960E+02  0.73339115657E+02  0.00000000000E+00 0. -1.
         11    1    4    4    0    0  0.57832070254E+01  0.64152652290E+02  0.12674811058E+02  0.65647993988E+02  0.00000000000E+00 0.  1.
        -11    1    3    3    0    0 -0.31895772032E+02 -0.40164898620E+02 -0.11902559658E+03  0.12960575603E+03  0.00000000000E+00 0.  1.
         11    1    3    3    0    0  0.44949936397E+02  0.37694248611E+01 -0.15049392144E+03  0.15710864310E+03  0.00000000000E+00 0. -1.
         21    1    1    2  502  501  0.70919164327E+01 -0.28304576880E+02  0.29655695784E+02  0.41604142143E+02  0.00000000000E+00 0.  1.
<scales pt_clust_5="13000.00000" pt_clust_6="13000.00000" pt_clust_7="13000.00000" pt_clust_8="13000.00000" pt_clust_9="29.17952"></scales>
<clustering>
<clus scale="   29.180">  1  9  2 -1</clus>
<clus scale="   89.829">  7  8 -1 -1</clus>
<clus scale="   90.110">  5  6 -1 -1</clus>
<clus scale="   98.648">  2  7  1 -1</clus>
<clus scale="   29.180">  1  5  2 -1</clus>
</clustering>
</event>
<event>
 9    1  0.1234700E-005  0.1021040E+03  0.7546771E-02  0.1276588E+00
          1   -1    0    0  502    0  0.00000000000E+00  0.00000000000E+00  0.19977922757E+03  0.19977922757E+03  0.00000000000E+00 0. -1.
         -1   -1    0    0    0  501 -0.00000000000E+00 -0.00000000000E+00 -0.83165464998E+02  0.83165464998E+02  0.00000000000E+00 0.  1.
         23    2    1    2    0    0 -0.46173971476E+02 -0.13627988560E+02  0.42141734323E+01  0.10472559410E+03  0.92908197094E+02 0.  0.
         23    2    1    2    0    0  0.36032593153E+02 -0.67646204968E+01  0.47474466551E+02  0.10941519159E+03  0.91508203552E+02 0.  0.
        -11    1    4    4    0    0  0.56262337570E+02  0.23845769470E+02  0.36228638995E+02  0.71039324560E+02  0.00000000000E+00 0.  1.
         11    1    4    4    0    0 -0.20229744417E+02 -0.30610389967E+02  0.11245827557E+02  0.38375867033E+02  0.00000000000E+00 0. -1.
        -13    1    3    3    0    0  0.19015513724E+01 -0.38927194621E+02 -0.21621314962E+02  0.44569312754E+02  0.00000000000E+00 0.  1.
         13    1    3    3    0    0 -0.48075522848E+02  0.25299206061E+02  0.25835488395E+02  0.60156281343E+02  0.00000000000E+00 0. -1.
         21    1    1    2  502  501  0.10141378323E+02  0.20392609057E+02  0.64925122586E+02  0.68803906875E+02  0.00000000000E+00 0. -1.
<scales pt_clust_5="13000.00000" pt_clust_6="13000.00000" pt_clust_7="13000.00000" pt_clust_8="13000.00000" pt_clust_9="22.77512"></scales>
<clustering>
<clus scale="   22.775">  1  9  2 -1</clus>
<clus scale="   91.508">  5  6 -1 -1</clus>
<clus scale="   92.908">  7  8 -1 -1</clus>
<clus scale="  100.832">  1  5  2 -1</clus>
<clus scale="   22.775">  1  5  2 -1</clus>
</clustering>
</event>
<event>
 9    1  0.1234700E-005  0.1707799E+03  0.7546771E-02  0.1180161E+00
          1   -1    0    0  502    0  0.00000000000E+00  0.00000000000E+00  0.96585551712E+03  0.96585551712E+03  0.00000000000E+00 0. -1.
         -1   -1    0    0    0  501 -0.00000000000E+00 -0.00000000000E+00 -0.13865873175E+03  0.13865873175E+03  0.00000000000E+00 0.  1.
         23    2    1    2    0    0 -0.94489364050E+02  0.97051048909E+02 -0.53402478944E+02  0.17203081342E+03  0.91627670469E+02 0.  0.
         23    2    1    2    0    0  0.16251173043E+02 -0.12351520509E+03  0.27674851685E+03  0.32301047354E+03  0.11057087286E+03 0.  0.
        -11    1    4    4    0    0  0.56175997537E+02 -0.33252735792E+02  0.13885583363E+03  0.15343542508E+03  0.00000000000E+00 0.  1.
         11    1    4    4    0    0 -0.39924824494E+02 -0.90262469296E+02  0.13789268323E+03  0.16957504846E+03  0.00000000000E+00 0. -1.
        -13    1    3    3    0    0 -0.26646727006E+02  0.31829173724E+02  0.25930760309E+02  0.48944342781E+02  0.00000000000E+00 0. -1.
         13    1    3    3    0    0 -0.67842637044E+02  0.65221875185E+02 -0.79333239253E+02  0.12308647064E+03  0.00000000000E+00 0.  1.
         21    1    1    2  502  501  0.78238191007E+02  0.26464156179E+02  0.60385074745E+03  0.60947296190E+03  0.00000000000E+00 0. -1.
<scales pt_clust_5="13000.00000" pt_clust_6="13000.00000" pt_clust_7="13000.00000" pt_clust_8="13000.00000" pt_clust_9="82.59277"></scales>
<clustering>
<clus scale="   82.593">  1  9  2 -1</clus>
<clus scale="   91.628">  7  8 -1 -1</clus>
<clus scale="  110.571">  5  6 -1 -1</clus>
<clus scale="  159.171">  2  7  1 -1</clus>
<clus scale="   82.593">  1  5  2 -1</clus>
</clustering>
</event>
<event>
 9    1  0.1234700E-005  0.1004684E+03  0.7546771E-02  0.1280844E+00
         -1   -1    0    0    0  501 -0.00000000000E+00  0.00000000000E+00  0.39897955255E+02  0.39897955255E+02  0.00000000000E+00 0.  1.
          1   -1    0    0  502    0  0.00000000000E+00 -0.00000000000E+00 -0.41395869870E+03  0.41395869870E+03  0.00000000000E+00 0. -1.
         23    2    1    2    0    0 -0.39834303609E+02 -0.16892404915E+02 -0.83383415346E+02  0.13135342693E+03  0.91808516619E+02 0.  0.
         23    2    1    2    0    0  0.17706113161E+02 -0.18067600495E+02 -0.21094713907E+03  0.23267694004E+03  0.94867899283E+02 0.  0.
        -13    1    4    4    0    0 -0.39396863201E+02 -0.73992542898E+01 -0.87410356754E+02  0.96163570348E+02  0.00000000000E+00 0.  1.
         13    1    4    4    0    0  0.57102976362E+02 -0.10668346205E+02 -0.12353678231E+03  0.13651336969E+03  0.00000000000E+00 0. -1.
        -13    1    3    3    0    0  0.92460816674E+01  0.26746005462E+02 -0.44106430943E+01  0.28640750808E+02  0.00000000000E+00 0.  1.
         13    1    3    3    0    0 -0.49080385277E+02 -0.43638410377E+02 -0.78972772251E+02  0.10271267612E+03  0.00000000000E+00 0. -1.
         21    1    1    2  502  501  0.22128190448E+02  0.34960005410E+02 -0.79730189035E+02  0.89826286990E+02  0.00000000000E+00 0.  1.
<scales pt_clust_5="13000.00000" pt_clust_6="13000.00000" pt_clust_7="13000.00000" pt_clust_8="13000.00000" pt_clust_9="41.37462"></scales>
<clustering>
<clus scale="   41.375">  2  9  1 -1</clus>
<clus scale="   91.809">  7  8 -1 -1</clus>
<clus scale="   94.868">  5  6 -1 -1</clus>
<clus scale="   97.585">  1  7  2 -1</clus>
<clus scale="   41.375">  2  5  1 -1</clus>
</clustering>
</event>
<event>
 9    1  0.1234700E-005  0.1220134E+03  0.7546771E-02  0.1252039E+00
         -1   -1    0    0    0  501 -0.00000000000E+00  0.00000000000E+00  0.83268299665E+02  0.83268299665E+02  0.00000000000E+00 0.  1.
          1   -1    0    0  502    0  0.00000000000E+00 -0.00000000000E+00 -0.61482929978E+03  0.61482929978E+03  0.00000000000E+00 0. -1.
         23    2    1    2    0    0 -0.87044112765E+01  0.49809203752E+02 -0.44718932875E+02  0.11512582211E+03  0.93260111547E+02 0.  0.
         23    2    1    2    0    0  0.32224353797E+02  0.49474247700E+02 -0.65009012980E+02  0.14897463783E+03  0.12033769478E+03 0.  0.
        -11    1    3    3    0    0  0.21610196339E+02 -0.14817855872E+02  0.68265654628E+01  0.27077138595E+02  0.00000000000E+00 0.  1.
         11    1    3    3    0    0 -0.30314607615E+02  0.64627059624E+02 -0.51545498338E+02  0.88048683519E+02  0.00000000000E+00 0. -1.
        -13    1    4    4    0    0  0.60522676847E+02  0.55845268261E+02 -0.81287578245E+02  0.11571239682E+03  0.00000000000E+00 0.  1.
         13    1    4    4    0    0 -0.28298323049E+02 -0.63710205613E+01  0.16278565264E+02  0.33262241017E+02  0.00000000000E+00 0. -1.
         21    1    1    2  502  501 -0.23519942521E+02 -0.99283451452E+02 -0.42183305426E+03  0.43399713950E+03  0.00000000000E+00 0. -1.
<scales pt_clust_5="13000.00000" pt_clust_6="13000.00000" pt_clust_7="13000.00000" pt_clust_8="13000.00000" pt_clust_9="102.03133"></scales>
<clustering>
<clus scale="   93.260">  5  6 -1 -1</clus>
<clus scale="  102.031">  2  9  1 -1</clus>
<clus scale="   95.413">  1  5  2 -1</clus>
<clus scale="  120.338">  7  8 -1 -1</clus>
<clus scale="  102.031">  2  5  1 -1</clus>
</clustering>
</event>
<event>
 9    1  0.1234700E-005  0.1293403E+03  0.7546771E-02  0.1229337E+00
          1   -1    0    0  502    0  0.00000000000E+00  0.00000000000E+00  0.61585705066E+02  0.61585705066E+02  0.00000000000E+00 0. -1.
         -1   -1    0    0    0  501 -0.00000000000E+00 -0.00000000000E+00 -0.40392548703E+03  0.40392548703E+03  0.00000000000E+00 0.  1.
         23    2    1    2    0    0  0.70085727462E+02 -0.62601265041E+02 -0.27687771814E+03  0.30565328204E+03  0.89060262970E+02 0.  0.
         23    2    1    2    0    0 -0.48246467309E+02  0.66330385349E+02 -0.53214222232E+02  0.13454251462E+03  0.92425608819E+02 0.  0.
        -11    1    4    4    0    0  0.10488985904E+02  0.63013829614E+02 -0.35611329268E+02  0.73136367973E+02  0.00000000000E+00 0.  1.
         11    1    4    4    0    0 -0.58735453212E+02  0.33165557349E+01 -0.17602892963E+02  0.61406146652E+02  0.00000000000E+00 0. -1.
        -13    1    3    3    0    0  0.54312980658E+02 -0.33878572858E+02 -0.26192624218E+03  0.26963496418E+03  0.00000000000E+00 0.  1.
         13    1    3    3    0    0  0.15772746803E+02 -0.28722692182E+02 -0.14951475961E+02  0.36018317858E+02  0.00000000000E+00 0. -1.
         21    1    1    2  502  501 -0.21839260153E+02 -0.37291203088E+01 -0.12247841595E+02  0.25315395436E+02  0.00000000000E+00 0. -1.
<scales pt_clust_5="13000.00000" pt_clust_6="13000.00000" pt_clust_7="13000.00000" pt_clust_8="13000.00000" pt_clust_9="22.15535"></scales>
<clustering>
<clus scale="   22.155">  1  9  2 -1</clus>
<clus scale="   89.060">  7  8 -1 -1</clus>
<clus scale="   92.426">  5  6 -1 -1</clus>
<clus scale="  126.957">  2  7  1 -1</clus>
<clus scale="   22.155">  1  5  2 -1</clus>
</clustering>
</event>
<event>
 9    1  0.1354797E-005  0.1032736E+03  0.7546771E-02  0.1275052E+00
         -2   -1    0    0    0  501 -0.00000000000E+00  0.00000000000E+00  0.29980700338E+02  0.29980700338E+02  0.00000000000E+00 0.  1.
          2   -1    0    0  502    0  0.00000000000E+00 -0.00000000000E+00 -0.73111525250E+03  0.73111525250E+03  0.00000000000E+00 0. -1.
         23    2    1    2    0    0 -0.44244515653E+02  0.26222587723E+02 -0.95608888372E+02  0.14297321080E+03  0.93032672744E+02 0.  0.
         23    2    1    2    0    0  0.14447178222E+02 -0.14268114062E+02 -0.44897221911E+03  0.45831106600E+03  0.89781287834E+02 0.  0.
        -13    1    3    3    0    0 -0.57556622988E+02 -0.24009276618E+01 -0.95354267145E+02  0.11140451322E+03  0.00000000000E+00 0. -1.
         13    1    3    3    0    0  0.13312107335E+02  0.28623515385E+02 -0.25462122624E+00  0.31568697576E+02  0.00000000000E+00 0.  1.
        -13    1    4    4    0    0  0.40112251789E+02 -0.38532250287E+02 -0.23882172564E+03  0.24521326166E+03  0.00000000000E+00 0.  1.
         13    1    4    4    0    0 -0.25665073567E+02  0.24264136225E+02 -0.21015049347E+03  0.21309780434E+03  0.00000000000E+00 0. -1.
         21    1    1    2  502  501  0.29797337432E+02 -0.11954473661E+02 -0.15655344468E+03  0.15981167604E+03  0.00000000000E+00 0.  1.
<scales pt_clust_5="13000.00000" pt_clust_6="13000.00000" pt_clust_7="13000.00000" pt_clust_8="13000.00000" pt_clust_9="32.10593"></scales>
<clustering>
<clus scale="   32.106">  2  9  1 -1</clus>
<clus scale="   89.781">  7  8 -1 -1</clus>
<clus scale="   93.033">  5  6 -1 -1</clus>
<clus scale="  100.355">  2  7  1 -1</clus>
<clus scale="   32.106">  2  5  1 -1</clus>
</clustering>
</event>
<event>
 9    1  0.1234700E-005  0.9408493E+02  0.7546771E-02  0.1293465E+00
         -1   -1    0    0    0  501 -0.00000000000E+00  0.00000000000E+00  0.45830954467E+02  0.45830954467E+02  0.00000000000E+00 0.  1.
          1   -1    0    0  502    0  0.00000000000E+00 -0.00000000000E+00 -0.53553048755E+03  0.53553048755E+03  0.00000000000E+00 0. -1.
         23    2    1    2    0    0  0.92186335560E+00 -0.22834449937E+02 -0.24818400436E+02  0.98063275056E+02  0.92077092583E+02 0.  0.
         23    2    1    2    0    0 -0.18581973668E+02  0.18167334340E+01 -0.25495415846E+03  0.27158383491E+03  0.91692781637E+02 0.  0.
        -11    1    3    3    0    0  0.40862812017E+02 -0.34135635232E+02 -0.11527674575E+02  0.54478420313E+02  0.00000000000E+00 0.  1.
         11    1    3    3    0    0 -0.39940948662E+02  0.11301185295E+02 -0.13290725861E+02  0.43584854743E+02  0.00000000000E+00 0. -1.
        -13    1    4    4    0    0 -0.47045004884E+02  0.21786386275E+02 -0.19953603468E+03  0.20616136459E+03  0.00000000000E+00 0. -1.
         13    1    4    4    0    0  0.28463031216E+02 -0.19969652841E+02 -0.55418123776E+02  0.65422470325E+02  0.00000000000E+00 0.  1.
         21    1    1    2  502  501  0.17660110312E+02  0.21017716503E+02 -0.20992697419E+03  0.21171433205E+03  0.00000000000E+00 0. -1.
<scales pt_clust_5="13000.00000" pt_clust_6="13000.00000" pt_clust_7="13000.00000" pt_clust_8="13000.00000" pt_clust_9="27.45221"></scales>
<clustering>
<clus scale="   27.452">  2  9  1 -1</clus>
<clus scale="   91.693">  7  8 -1 -1</clus>
<clus scale="   92.077">  5  6 -1 -1</clus>
<clus scale="   93.709">  2  7  1 -1</clus>
<clus scale="   27.452">  2  5  1 -1</clus>
</clustering>
</event>
<event>
 9    1  0.1234700E-005  0.1089931E+03  0.7546771E-02  0.1263041E+00
          1   -1    0    0  502    0  0.00000000000E+00  0.00000000000E+00  0.34557284827E+03  0.34557284827E+03  0.00000000000E+00 0. -1.
         -1   -1    0    0    0  501 -0.00000000000E+00 -0.00000000000E+00 -0.44069560012E+02  0.44069560012E+02  0.00000000000E+00 0.  1.
         23    2    1    2    0    0 -0.20342163591E+02 -0.66722658581E+02  0.11505133767E+03  0.16227824215E+03  0.90728720862E+02 0.  0.
         23    2    1    2    0    0  0.30182116979E+02  0.41535918964E+02  0.14315855677E+03  0.17631992568E+03  0.89208469687E+02 0.  0.
        -11    1    4    4    0    0  0.38787101297E+02  0.62161751941E+02  0.13283363067E+03  0.15170133839E+03  0.00000000000E+00 0. -1.
         11    1    4    4    0    0 -0.86049843188E+01 -0.20625832977E+02  0.10324926102E+02  0.24618587289E+02  0.00000000000E+00 0.  1.
        -13    1    3    3    0    0 -0.38601123688E+02 -0.25342177043E+01  0.13919578516E+02  0.41112329969E+02  0.00000000000E+00 0. -1.
         13    1    3    3    0    0  0.18258960097E+02 -0.64188440877E+02  0.10113175916E+03  0.12116591219E+03  0.00000000000E+00 0.  1.
         21    1    1    2  502  501 -0.98399533873E+01  0.25186739617E+02  0.43293393818E+02  0.51044240453E+02  0.00000000000E+00 0. -1.
<scales pt_clust_5="13000.00000" pt_clust_6="13000.00000" pt_clust_7="13000.00000" pt_clust_8="13000.00000" pt_clust_9="27.04065"></scales>
<clustering>
<clus scale="   27.041">  1  9  2 -1</clus>
<clus scale="   89.208">  5  6 -1 -1</clus>
<clus scale="   90.729">  7  8 -1 -1</clus>
<clus scale="  107.731">  1  5  2 -1</clus>
<clus scale="   27.041">  1  5  2 -1</clus>
</clustering>
</event>
<event>
 9    1  0.1234700E-005  0.2074282E+03  0.7546771E-02  0.1144048E+00
         -2   -1    0    0    0  501 -0.00000000000E+00  0.00000000000E+00  0.20546059522E+03  0.20546059522E+03  0.00000000000E+00 0.  1.
          2   -1    0    0  502    0  0.00000000000E+00 -0.00000000000E+00 -0.45621052070E+03  0.45621052070E+03  0.00000000000E+00 0. -1.
         23    2    1    2    0    0 -0.24939956217E+02  0.17824371596E+03  0.98426647951E+02  0.22601659849E+03  0.94883476295E+02 0.  0.
         23    2    1    2    0    0  0.12675614914E+02 -0.20869520334E+03 -0.30581461185E+03  0.38126732350E+03  0.90154511995E+02 0.  0.
        -11    1    4    4    0    0  0.43254222903E+02 -0.18165011780E+03 -0.24575289273E+03  0.30864571499E+03  0.00000000000E+00 0. -1.
         11    1    4    4    0    0 -0.30578607989E+02 -0.27045085545E+02 -0.60061719119E+02  0.72621608508E+02  0.00000000000E+00 0.  1.
        -13    1    3    3    0    0 -0.29290787311E+02  0.38776534703E+02 -0.96208222619E+01  0.49539177283E+02  0.00000000000E+00 0. -1.
         13    1    3    3    0    0  0.43508310935E+01  0.13946718125E+03  0.10804747021E+03  0.17647742121E+03  0.00000000000E+00 0.  1.
         21    1    1    2  502  501  0.12264341303E+02  0.30451487388E+02 -0.43361961584E+02  0.54387193935E+02  0.00000000000E+00 0. -1.
<scales pt_clust_5="13000.00000" pt_clust_6="13000.00000" pt_clust_7="13000.00000" pt_clust_8="13000.00000" pt_clust_9="32.82845"></scales>
<clustering>
<clus scale="   32.828">  2  9  1 -1</clus>
<clus scale="   90.155">  5  6 -1 -1</clus>
<clus scale="   94.883">  7  8 -1 -1</clus>
<clus scale="  205.308">  2  5  1 -1</clus>
<clus scale="   32.828">  2  5  1 -1</clus>
</clustering>
</event>
<event>
 9    1  0.1234700E-005  0.9201907E+02  0.7546771E-02  0.1298106E+00
          2   -1    0    0  502    0  0.00000000000E+00  0.00000000000E+00  0.47255956596E+03  0.47255956596E+03  0.00000000000E+00 0. -1.
         -2   -1    0    0    0  501 -0.00000000000E+00 -0.00000000000E+00 -0.24030210588E+02  0.24030210588E+02  0.00000000000E+00 0.  1.
         23    2    1    2    0    0 -0.99496641755E+01 -0.11292016442E+00  0.14780898451E+03  0.17346787265E+03  0.90247428624E+02 0.  0.
         23    2    1    2    0    0  0.28935068867E+02  0.12544156125E+02  0.24623374535E+03  0.26409840367E+03  0.90123889225E+02 0.  0.
        -11    1    4    4    0    0 -0.15377180811E+02  0.37211513442E+02  0.70440668346E+02  0.81135948749E+02  0.00000000000E+00 0. -1.
         11    1    4    4    0    0  0.44312249677E+02 -0.24667357317E+02  0.17579307700E+03  0.18296245492E+03  0.00000000000E+00 0.  1.
        -13    1    3    3    0    0 -0.47574739592E+02  0.39375295862E+01  0.11029383139E+03  0.12018148455E+03  0.00000000000E+00 0. -1.
         13    1    3    3    0    0  0.37625075417E+02 -0.40504497506E+01  0.37515153115E+02  0.53286388098E+02  0.00000000000E+00 0.  1.
         21    1    1    2  502  501 -0.18985404691E+02 -0.12431235960E+02  0.54486625514E+02  0.59023500224E+02  0.00000000000E+00 0.  1.
<scales pt_clust_5="13000.00000" pt_clust_6="13000.00000" pt_clust_7="13000.00000" pt_clust_8="13000.00000" pt_clust_9="22.69320"></scales>
<clustering>
<clus scale="   22.693">  1  9  2 -1</clus>
<clus scale="   90.124">  5  6 -1 -1</clus>
<clus scale="   90.247">  7  8 -1 -1</clus>
<clus scale="   91.898">  1  5  2 -1</clus>
<clus scale="   22.693">  1  5  2 -1</clus>
</clustering>
</event>
<event>
 9    1  0.1234700E-005  0.1523316E+03  0.7546771E-02  0.1198671E+00
          1   -1    0    0  502    0  0.00000000000E+00  0.00000000000E+00  0.26069094592E+03  0.26069094592E+03  0.00000000000E+00 0. -1.
         -1   -1    0    0    0  501 -0.00000000000E+00 -0.00000000000E+00 -0.12433462627E+03  0.12433462627E+03  0.00000000000E+00 0.  1.
         23    2    1    2    0    0  0.98798415146E+02  0.65912735044E+02  0.21308557768E+01  0.14764624649E+03  0.87688414733E+02 0.  0.
         23    2    1    2    0    0 -0.12506501668E+03 -0.53818119189E+02  0.84472020778E+02  0.17983265604E+03  0.81649332713E+02 0.  0.
        -13    1    3    3    0    0  0.35550228400E+02  0.75341442109E+02  0.64260287598E+01  0.83555044635E+02  0.00000000000E+00 0. -1.
         13    1    3    3    0    0  0.63248186747E+02 -0.94287070646E+01 -0.42951729830E+01  0.64091201850E+02  0.00000000000E+00 0.  1.
        -13    1    4    4    0    0 -0.34045623816E+02  0.11028533505E+02 -0.56942044662E+01  0.36237508424E+02  0.00000000000E+00 0.  1.
         13    1    4    4    0    0 -0.91019392867E+02 -0.64846652694E+02  0.90166225244E+02  0.14359514761E+03  0.00000000000E+00 0. -1.
         21    1    1    2  502  501  0.26266601537E+02 -0.12094615855E+02  0.49753443102E+02  0.57546669665E+02  0.00000000000E+00 0.  1.
<scales pt_clust_5="13000.00000" pt_clust_6="13000.00000" pt_clust_7="13000.00000" pt_clust_8="13000.00000" pt_clust_9="28.91737"></scales>
<clustering>
<clus scale="   28.917">  1  9  2 -1</clus>
<clus scale="   81.649">  7  8 -1 -1</clus>
<clus scale="   87.688">  5  6 -1 -1</clus>
<clus scale="  148.937">  1  7  2 -1</clus>
<clus scale="   28.917">  1  5  2 -1</clus>
</clustering>
</event>
<event>
 9    1  0.1234700E-005  0.1024713E+03  0.7546771E-02  0.1277236E+00
          1   -1    0    0  502    0  0.00000000000E+00  0.00000000000E+00  0.17787107144E+03  0.17787107144E+03  0.00000000000E+00 0. -1.
         -1   -1    0    0    0  501 -0.00000000000E+00 -0.00000000000E+00 -0.85960899295E+02  0.85960899295E+02  0.00000000000E+00 0.  1.
         23    2    1    2    0    0 -0.33384918277E+02 -0.24738799479E+02  0.76481525093E+01  0.10024542610E+03  0.90907041801E+02 0.  0.
         23    2    1    2    0    0  0.13163897355E+02  0.34434895516E+02  0.32397568075E+02  0.10708145370E+03  0.95172396668E+02 0.  0.
        -13    1    3    3    0    0 -0.57262953474E+01 -0.20249503374E+02  0.47255049225E+02  0.51728836470E+02  0.00000000000E+00 0. -1.
         13    1    3    3    0    0 -0.27658622929E+02 -0.44892961048E+01 -0.39606896715E+02  0.48516589630E+02  0.00000000000E+00 0.  1.
        -13    1    4    4    0    0  0.16022458794E+02 -0.19394181003E+02  0.45152963108E+02  0.51687943662E+02  0.00000000000E+00 0. -1.
         13    1    4    4    0    0 -0.28585614397E+01  0.53829076519E+02 -0.12755395033E+02  0.55393510043E+02  0.00000000000E+00 0.  1.
         21    1    1    2  502  501  0.20221020922E+02 -0.96960960369E+01  0.51864451560E+02  0.56505090931E+02  0.00000000000E+00 0. -1.
<scales pt_clust_5="13000.00000" pt_clust_6="13000.00000" pt_clust_7="13000.00000" pt_clust_8="13000.00000" pt_clust_9="22.42552"></scales>
<clustering>
<clus scale="   22.426">  1  9  2 -1</clus>
<clus scale="   90.907">  5  6 -1 -1</clus>
<clus scale="   95.172">  7  8 -1 -1</clus>
<clus scale="   98.522">  2  5  1 -1</clus>
<clus scale="   22.426">  1  5  2 -1</clus>
</clustering>
</event>
<event>
 9    1  0.1234700E-005  0.9304613E+02  0.7546771E-02  0.1295743E+00
         -2   -1    0    0    0  501 -0.00000000000E+00  0.00000000000E+00  0.41170425557E+03  0.41170425557E+03  0.00000000000E+00 0.  1.
          2   -1    0    0  502    0  0.00000000000E+00 -0.00000000000E+00 -0.75087387284E+02  0.75087387284E+02  0.00000000000E+00 0. -1.
         23    2    1    2    0    0 -0.14949978834E+02 -0.16241939583E+02  0.28459603541E+03  0.29997231139E+03  0.92201853327E+02 0.  0.
         23    2    1    2    0    0 -0.40602514460E+02 -0.31268462108E+02  0.22685055556E+02  0.10805445598E+03  0.92384375349E+02 0.  0.
        -11    1    3    3    0    0 -0.22148473098E+02  0.35879274628E+02  0.13015891543E+03  0.13681820228E+03  0.00000000000E+00 0.  1.
         11    1    3    3    0    0  0.71984942643E+01 -0.52121214211E+02  0.15443711998E+03  0.16315410911E+03  0.00000000000E+00 0. -1.
        -13    1    4    4    0    0 -0.61934985309E+02 -0.93452669654E+01 -0.98407435407E+01  0.63404389859E+02  0.00000000000E+00 0.  1.
         13    1    4    4    0    0  0.21332470850E+02 -0.21923195143E+02  0.32525799097E+02  0.44650066122E+02  0.00000000000E+00 0. -1.
         21    1    1    2  502  501  0.55552493293E+02  0.47510401692E+02  0.29335777320E+02  0.78764875490E+02  0.00000000000E+00 0. -1.
<scales pt_clust_5="13000.00000" pt_clust_6="13000.00000" pt_clust_7="13000.00000" pt_clust_8="13000.00000" pt_clust_9="73.09800"></scales>
<clustering>
<clus scale="   73.098">  2  9  1 -1</clus>
<clus scale="   92.202">  5  6 -1 -1</clus>
<clus scale="   92.384">  7  8 -1 -1</clus>
<clus scale="   92.865">  1  5  2 -1</clus>
<clus scale="   73.098">  2  5  1 -1</clus>
</clustering>
</event>
<event>
 9    1  0.1234700E-005  0.9484907E+02  0.7546771E-02  0.1292463E+00
          2   -1    0    0  502    0  0.00000000000E+00  0.00000000000E+00  0.22339657924E+02  0.22339657924E+02  0.00000000000E+00 0. -1.
         -2   -1    0    0    0  501 -0.00000000000E+00 -0.00000000000E+00 -0.85099146109E+03  0.85099146109E+03  0.00000000000E+00 0.  1.
         23    2    1    2    0    0 -0.11610928979E+02  0.45423826432E+01 -0.36588676855E+03  0.37669057118E+03  0.88697306054E+02 0.  0.
         23    2    1    2    0    0  0.40552659230E+02 -0.20352538900E+02 -0.45006824813E+03  0.46130227994E+03  0.90441259922E+02 0.  0.
        -11    1    4    4    0    0 -0.47693987254E+01  0.31711033646E+02 -0.15197866615E+03  0.15532498763E+03  0.00000000000E+00 0.  1.
         11    1    4    4    0    0  0.45322057956E+02 -0.52063572546E+02 -0.29808958198E+03  0.30597729231E+03  0.00000000000E+00 0. -1.
        -11    1    3    3    0    0 -0.37576219938E+02 -0.27626567348E+02 -0.22883959556E+03  0.23354391455E+03  0.00000000000E+00 0.  1.
         11    1    3    3    0    0  0.25965290959E+02  0.32168949991E+02 -0.13704717299E+03  0.14314665662E+03  0.00000000000E+00 0. -1.
         21    1    1    2  502  501 -0.28941730251E+02  0.15810156256E+02 -0.12696786489E+02  0.35338267897E+02  0.00000000000E+00 0.  1.
<scales pt_clust_5="13000.00000" pt_clust_6="13000.00000" pt_clust_7="13000.00000" pt_clust_8="13000.00000" pt_clust_9="32.97855"></scales>
<clustering>
<clus scale="   32.979">  1  9  2 -1</clus>
<clus scale="   88.697">  7  8 -1 -1</clus>
<clus scale="   90.441">  5  6 -1 -1</clus>
<clus scale="   93.188">  2  7  1 -1</clus>
<clus scale="   32.979">  1  5  2 -1</clus>
</clustering>
</event>
<event>
 9    1  0.2746217E-005  0.1004879E+03  0.7546771E-02  0.1279480E+00
         -2   -1    0    0    0  501 -0.00000000000E+00  0.00000000000E+00  0.19006865002E+03  0.19006865002E+03  0.00000000000E+00 0.  1.
          2   -1    0    0  502    0  0.00000000000E+00 -0.00000000000E+00 -0.13436207361E+03  0.13436207361E+03  0.00000000000E+00 0. -1.
         23    2    1    2    0    0  0.15515232050E+02 -0.39323238837E+02  0.14338989184E+03  0.17568010137E+03  0.92281078209E+02 0.  0.
         23    2    1    2    0    0 -0.20400092546E+02  0.17301144472E+02 -0.80637393461E+02  0.12511845100E+03  0.91851751099E+02 0.  0.
        -13    1    3    3    0    0  0.44037897000E+02  0.93965434646E+01  0.61949456526E+02  0.76585681202E+02  0.00000000000E+00 0.  1.
         13    1    3    3    0    0 -0.28522664949E+02 -0.48719782301E+02  0.81440435317E+02  0.99094420165E+02  0.00000000000E+00 0. -1.
        -13    1    4    4    0    0  0.32521434091E+02 -0.12346401300E+02 -0.25348638863E+02  0.43042197813E+02  0.00000000000E+00 0.  1.
         13    1    4    4    0    0 -0.52921526637E+02  0.29647545772E+02 -0.55288754598E+02  0.82076253185E+02  0.00000000000E+00 0. -1.
         21    1    1    2  502  501  0.48848604954E+01  0.22022094364E+02 -0.70459219713E+01  0.23632171264E+02  0.00000000000E+00 0.  1.
<scales pt_clust_5="13000.00000" pt_clust_6="13000.00000" pt_clust_7="13000.00000" pt_clust_8="13000.00000" pt_clust_9="22.55736"></scales>
<clustering>
<clus scale="   22.557">  2  9  1 -1</clus>
<clus scale="   91.852">  7  8 -1 -1</clus>
<clus scale="   92.281">  5  6 -1 -1</clus>
<clus scale="  100.094">  2  7  1 -1</clus>
<clus scale="   22.557">  2  5  1 -1</clus>
</clustering>
</event>
<event>
 9    1  0.1234700E-005  0.1218355E+03  0.7546771E-02  0.1241153E+00
          1   -1    0    0  502    0  0.00000000000E+00  0.00000000000E+00  0.42736674337E+03  0.42736674337E+03  0.00000000000E+00 0. -1.
         -1   -1    0    0    0  501 -0.00000000000E+00 -0.00000000000E+00 -0.49393905436E+02  0.49393905436E+02  0.00000000000E+00 0.  1.
         23    2    1    2    0    0 -0.18581807984E+02  0.90279413249E+02  0.11946175402E+03  0.17603982627E+03  0.90682157632E+02 0.  0.
         23    2    1    2    0    0  0.34319198700E+02 -0.62129152177E+02  0.14961016189E+03  0.18714479742E+03  0.87190227154E+02 0.  0.
        -11    1    4    4    0    0 -0.10746217215E+02 -0.52614921748E+02  0.36266561735E+02  0.64800267553E+02  0.00000000000E+00 0.  1.
         11    1    4    4    0    0  0.45065415916E+02 -0.95142304293E+01  0.11334360015E+03  0.12234452987E+03  0.00000000000E+00 0. -1.
        -13    1    3    3    0    0  0.32352996862E+02  0.43066034763E+02  0.79142106118E+02  0.95733341721E+02  0.00000000000E+00 0.  1.
         13    1    3    3    0    0 -0.50934804846E+02  0.47213378486E+02  0.40319647906E+02  0.80306484546E+02  0.00000000000E+00 0. -1.
         21    1    1    2  502  501 -0.15737390716E+02 -0.28150261072E+02  0.10890092202E+03  0.11357602512E+03  0.00000000000E+00 0.  1.
<scales pt_clust_5="13000.00000" pt_clust_6="13000.00000" pt_clust_7="13000.00000" pt_clust_8="13000.00000" pt_clust_9="32.25062"></scales>
<clustering>
<clus scale="   32.251">  1  9  2 -1</clus>
<clus scale="   87.190">  5  6 -1 -1</clus>
<clus scale="   90.682">  7  8 -1 -1</clus>
<clus scale="  119.259">  1  5  2 -1</clus>
<clus scale="   32.251">  1  5  2 -1</clus>
</clustering>
</event>
<event>
 9    1  0.1234700E-005  0.1342337E+03  0.7546771E-02  0.1234713E+00
         -1   -1    0    0    0  501 -0.00000000000E+00  0.00000000000E+00  0.21650198686E+03  0.21650198686E+03  0.00000000000E+00 0.  1.
          1   -1    0    0  502    0  0.00000000000E+00 -0.00000000000E+00 -0.13481689865E+03  0.13481689865E+03  0.00000000000E+00 0. -1.
         23    2    1    2    0    0  0.22912322802E+01  0.33897001567E+02  0.85751317057E+02  0.12942166049E+03  0.90787782032E+02 0.  0.
         23    2    1    2    0    0 -0.19571676345E+02 -0.72761520425E+02  0.48052826375E+02  0.15462568208E+03  0.12618533221E+03 0.  0.
        -11    1    3    3    0    0 -0.34394088662E+02 -0.10769652142E+02  0.49365543997E+02  0.61121973760E+02  0.00000000000E+00 0.  1.
         11    1    3    3    0    0  0.36685320943E+02  0.44666653709E+02  0.36385773061E+02  0.68299686730E+02  0.00000000000E+00 0. -1.
        -13    1    4    4    0    0 -0.57502685629E+02  0.17702764443E+01  0.41111211555E+02  0.70709436773E+02  0.00000000000E+00 0.  1.
         13    1    4    4    0    0  0.37931009284E+02 -0.74531796869E+02  0.69416148199E+01  0.83916245306E+02  0.00000000000E+00 0. -1.
         21    1    1    2  502  501  0.17280444065E+02  0.38864518859E+02 -0.52119055220E+02  0.67271542945E+02  0.00000000000E+00 0. -1.
<scales pt_clust_5="13000.00000" pt_clust_6="13000.00000" pt_clust_7="13000.00000" pt_clust_8="13000.00000" pt_clust_9="42.53310"></scales>
<clustering>
<clus scale="   42.533">  2  9  1 -1</clus>
<clus scale="   90.788">  5  6 -1 -1</clus>
<clus scale="  101.678">  1  5  2 -1</clus>
<clus scale="  126.185">  7  8 -1 -1</clus>
<clus scale="   42.533">  2  5  1 -1</clus>
</clustering>
</event>
<event>
 9    1  0.1234700E-005  0.1066624E+03  0.7546771E-02  0.1267300E+00
          2   -1    0    0  502    0  0.00000000000E+00  0.00000000000E+00  0.15319346592E+03  0.15319346592E+03  0.00000000000E+00 0. -1.
         -2   -1    0    0    0  501 -0.00000000000E+00 -0.00000000000E+00 -0.24705293147E+03  0.24705293147E+03  0.00000000000E+00 0.  1.
         23    2    1    2    0    0 -0.11635332346E+02  0.48583412402E+02 -0.19018001823E+03  0.21731329637E+03  0.92525134556E+02 0.  0.
         23    2    1    2    0    0  0.13027844079E+02 -0.70853945523E+02  0.41332086028E+02  0.12358963298E+03  0.91520761186E+02 0.  0.
        -11    1    3    3    0    0 -0.13696671192E+02  0.72885840275E+02 -0.10390134846E+03  0.12765357310E+03  0.00000000000E+00 0. -1.
         11    1    3    3    0    0  0.20613388466E+01 -0.24302427873E+02 -0.86278669773E+02  0.89659723266E+02  0.00000000000E+00 0.  1.
        -13    1    4    4    0    0 -0.32642263499E+02 -0.10737941973E+01  0.16396763367E+02  0.36544825204E+02  0.00000000000E+00 0. -1.
         13    1    4    4    0    0  0.45670107577E+02 -0.69780151325E+02  0.24935322661E+02  0.87044807779E+02  0.00000000000E+00 0.  1.
         21    1    1    2  502  501 -0.13925117333E+01  0.22270533120E+02  0.54988466647E+02  0.59343468037E+02  0.00000000000E+00 0. -1.
<scales pt_clust_5="13000.00000" pt_clust_6="13000.00000" pt_clust_7="13000.00000" pt_clust_8="13000.00000" pt_clust_9="22.31403"></scales>
<clustering>
<clus scale="   22.314">  1  9  2 -1</clus>
<clus scale="   91.521">  7  8 -1 -1</clus>
<clus scale="   92.525">  5  6 -1 -1</clus>
<clus scale="  105.792">  1  7  2 -1</clus>
<clus scale="   22.314">  1  5  2 -1</clus>
</clustering>
</event>
<event>
 9    1  0.1234700E-005  0.1071041E+03  0.7546771E-02  0.1266428E+00
         -1   -1    0    0    0  501 -0.00000000000E+00  0.00000000000E+00  0.11573202895E+03  0.11573202895E+03  0.00000000000E+00 0.  1.
          1   -1    0    0  502    0  0.00000000000E+00 -0.00000000000E+00 -0.15206886892E+03  0.15206886892E+03  0.00000000000E+00 0. -1.
         23    2    1    2    0    0  0.11299402337E+02 -0.59516098804E+02  0.46263526972E+02  0.11868987471E+03  0.90978733340E+02 0.  0.
         23    2    1    2    0    0  0.17464704839E+01  0.41963996007E+02 -0.59476794553E+02  0.11728382238E+03  0.91945520725E+02 0.  0.
        -11    1    4    4    0    0  0.33725735310E+01  0.65258735948E+02 -0.14993512843E+02  0.67043883369E+02  0.00000000000E+00 0. -1.
         11    1    4    4    0    0 -0.16261030471E+01 -0.23294739941E+02 -0.44483281710E+02  0.50239939010E+02  0.00000000000E+00 0.  1.
        -13    1    3    3    0    0 -0.12155577781E+02 -0.64579747618E+02  0.61714903925E+02  0.90150048475E+02  0.00000000000E+00 0.  1.
         13    1    3    3    0    0  0.23454980118E+02  0.50636488144E+01 -0.15451376953E+02  0.28539826233E+02  0.00000000000E+00 0. -1.
         21    1    1    2  502  501 -0.13045872821E+02  0.17552102797E+02 -0.23123572385E+02  0.31827200789E+02  0.00000000000E+00 0. -1.
<scales pt_clust_5="13000.00000" pt_clust_6="13000.00000" pt_clust_7="13000.00000" pt_clust_8="13000.00000" pt_clust_9="21.86941"></scales>
<clustering>
<clus scale="   21.869">  2  9  1 -1</clus>
<clus scale="   90.979">  7  8 -1 -1</clus>
<clus scale="   91.946">  5  6 -1 -1</clus>
<clus scale="  106.275">  1  7  2 -1</clus>
<clus scale="   21.869">  2  5  1 -1</clus>
</clustering>
</event>
<event>
 9    1  0.1234700E-005  0.1191476E+03  0.7546771E-02  0.1246600E+00
         -1   -1    0    0    0  501 -0.00000000000E+00  0.00000000000E+00  0.26862848341E+03  0.26862848341E+03  0.00000000000E+00 0.  1.
          1   -1    0    0  502    0  0.00000000000E+00 -0.00000000000E+00 -0.79624996604E+02  0.79624996604E+02  0.00000000000E+00 0. -1.
         23    2    1    2    0    0 -0.80479863094E+02  0.33385582662E+01  0.15441274198E+03  0.19704596256E+03  0.92171916219E+02 0.  0.
         23    2    1    2    0    0  0.69099509996E+02 -0.29239158815E+02  0.11162835780E+02  0.11447578094E+03  0.85734618611E+02 0.  0.
        -11    1    3    3    0    0 -0.19246902450E+02  0.44446792641E+02  0.55474220076E+02  0.73643395651E+02  0.00000000000E+00 0.  1.
         11    1    3    3    0    0 -0.61232960644E+02 -0.41108234374E+02  0.98938521909E+02  0.12340256691E+03  0.00000000000E+00 0. -1.
        -11    1    4    4    0    0  0.44867378739E+02  0.20157294181E+02  0.28426642296E+02  0.56810845583E+02  0.00000000000E+00 0.  1.
         11    1    4    4    0    0  0.24232131257E+02 -0.49396452996E+02 -0.17263806515E+02  0.57664935353E+02  0.00000000000E+00 0. -1.
         21    1    1    2  502  501  0.11380353098E+02  0.25900600548E+02  0.23427909038E+02  0.36731736513E+02  0.00000000000E+00 0. -1.
<scales pt_clust_5="13000.00000" pt_clust_6="13000.00000" pt_clust_7="13000.00000" pt_clust_8="13000.00000" pt_clust_9="28.29052"></scales>
<clustering>
<clus scale="   28.291">  1  9  2 -1</clus>
<clus scale="   85.735">  7  8 -1 -1</clus>
<clus scale="   92.172">  5  6 -1 -1</clus>
<clus scale="  114.241">  2  7  1 -1</clus>
<clus scale="  114.241">  2  5  1 -1</clus>
</clustering>
</event>
<event>
 9    1  0.1234700E-005  0.9991233E+02  0.7546771E-02  0.1280731E+00
          2   -1    0    0  502    0  0.00000000000E+00  0.00000000000E+00  0.77978467934E+02  0.77978467934E+02  0.00000000000E+00 0. -1.
         -2   -1    0    0    0  501 -0.00000000000E+00 -0.00000000000E+00 -0.19555698393E+03  0.19555698393E+03  0.00000000000E+00 0.  1.
         23    2    1    2    0    0  0.28677834040E+02  0.33312310609E+02 -0.10297062512E+03  0.14504115825E+03  0.92205529911E+02 0.  0.
         23    2    1    2    0    0 -0.29606319290E+02 -0.30769708553E+01 -0.12384858581E+02  0.98163126014E+02  0.92717920033E+02 0.  0.
        -11    1    3    3    0    0  0.88875798466E+01  0.59149604729E+02 -0.34059235630E+02  0.68830925803E+02  0.00000000000E+00 0. -1.
         11    1    3    3    0    0  0.19790254193E+02 -0.25837294120E+02 -0.68911389492E+02  0.76210232451E+02  0.00000000000E+00 0.  1.
        -13    1    4    4    0    0  0.97919866771E+01 -0.35688482929E+02 -0.26011837946E+02  0.45234572289E+02  0.00000000000E+00 0.  1.
         13    1    4    4    0    0 -0.39398305967E+02  0.32611512073E+02  0.13626979365E+02  0.52928553725E+02  0.00000000000E+00 0. -1.
         21    1    1    2  502  501  0.92848525055E+00 -0.30235339754E+02 -0.22230322896E+01  0.30331167592E+02  0.00000000000E+00 0. -1.
<scales pt_clust_5="13000.00000" pt_clust_6="13000.00000" pt_clust_7="13000.00000" pt_clust_8="13000.00000" pt_clust_9="30.24959"></scales>
<clustering>
<clus scale="   30.250">  1  9  2 -1</clus>
<clus scale="   92.206">  5  6 -1 -1</clus>
<clus scale="   92.718">  7  8 -1 -1</clus>
<clus scale="   99.437">  2  5  1 -1</clus>
<clus scale="   30.250">  1  5  2 -1</clus>
</clustering>
</event>
<event>
 9    1  0.1234700E-005  0.1196407E+03  0.7546771E-02  0.1243960E+00
         -1   -1    0    0    0  501 -0.00000000000E+00  0.00000000000E+00  0.37765076260E+03  0.37765076260E+03  0.00000000000E+00 0.  1.
          1   -1    0    0  502    0  0.00000000000E+00 -0.00000000000E+00 -0.91008132216E+02  0.91008132216E+02  0.00000000000E+00 0. -1.
         23    2    1    2    0    0 -0.82894922105E+01  0.76367454451E+02  0.28260327511E+03  0.30656195557E+03  0.90636183306E+02 0.  0.
         23    2    1    2    0    0 -0.12787556485E+02 -0.79454521879E+02  0.32917864530E+02  0.12621184117E+03  0.91483880541E+02 0.  0.
        -11    1    3    3    0    0 -0.24007955564E+02  0.91821703824E+02  0.24793147641E+03  0.26547622157E+03  0.00000000000E+00 0.  1.
         11    1    3    3    0    0  0.15718463353E+02 -0.15454249374E+02  0.34671798693E+02  0.41085734002E+02  0.00000000000E+00 0. -1.
        -11    1    4    4    0    0 -0.42501062318E+02 -0.20941100133E+02 -0.91568086376E+01  0.48256783122E+02  0.00000000000E+00 0.  1.
         11    1    4    4    0    0  0.29713505832E+02 -0.58513421746E+02  0.42074673168E+02  0.77955058049E+02  0.00000000000E+00 0. -1.
         21    1    1    2  502  501  0.21077048696E+02  0.30870674281E+01 -0.28878509252E+02  0.35885098072E+02  0.00000000000E+00 0. -1.
<scales pt_clust_5="13000.00000" pt_clust_6="13000.00000" pt_clust_7="13000.00000" pt_clust_8="13000.00000" pt_clust_9="21.30192"></scales>
<clustering>
<clus scale="   21.302">  2  9  1 -1</clus>
<clus scale="   90.636">  5  6 -1 -1</clus>
<clus scale="   91.484">  7  8 -1 -1</clus>
<clus scale="  118.994">  1  5  2 -1</clus>
<clus scale="   21.302">  2  5  1 -1</clus>
</clustering>
</event>
<event>
 9    1  0.1234700E-005  0.9462954E+02  0.7546771E-02  0.1293563E+00
          1   -1    0    0  502    0  0.00000000000E+00  0.00000000000E+00  0.32053048944E+03  0.32053048944E+03  0.00000000000E+00 0. -1.
         -1   -1    0    0    0  501 -0.00000000000E+00 -0.00000000000E+00 -0.66672730561E+02  0.66672730561E+02  0.00000000000E+00 0.  1.
         23    2    1    2    0    0  0.12488752248E+02 -0.58435886251E+01 -0.38792485337E+01  0.90981875974E+02  0.89847296709E+02 0.  0.
         23    2    1    2    0    0 -0.25730149315E+02  0.31020896669E+02  0.12616715027E+03  0.16161131935E+03  0.92605248875E+02 0.  0.
        -13    1    3    3    0    0 -0.33750732385E+01  0.22667489803E+02  0.33990900952E+02  0.40994969946E+02  0.00000000000E+00 0. -1.
         13    1    3    3    0    0  0.15863825486E+02 -0.28511078428E+02 -0.37870149486E+02  0.49986906028E+02  0.00000000000E+00 0.  1.
        -13    1    4    4    0    0  0.33768358373E+02  0.92128191275E-01  0.46747258858E+02  0.57668160414E+02  0.00000000000E+00 0.  1.
         13    1    4    4    0    0 -0.59498507688E+02  0.30928768478E+02  0.79419891416E+02  0.10394315893E+03  0.00000000000E+00 0. -1.
         21    1    1    2  502  501  0.13241397068E+02 -0.25177308044E+02  0.13156985714E+03  0.13461002468E+03  0.00000000000E+00 0. -1.
<scales pt_clust_5="13000.00000" pt_clust_6="13000.00000" pt_clust_7="13000.00000" pt_clust_8="13000.00000" pt_clust_9="28.44699"></scales>
<clustering>
<clus scale="   28.447">  1  9  2 -1</clus>
<clus scale="   89.847">  5  6 -1 -1</clus>
<clus scale="   91.932">  2  5  1 -1</clus>
<clus scale="   92.605">  7  8 -1 -1</clus>
<clus scale="   28.447">  1  5  2 -1</clus>
</clustering>
</event>
<event>
 9    1  0.1257838E-005  0.1002406E+03  0.7546771E-02  0.1281529E+00
          2   -1    0    0  502    0  0.00000000000E+00  0.00000000000E+00  0.71035598070E+03  0.71035598070E+03  0.00000000000E+00 0. -1.
         -2   -1    0    0    0  501 -0.00000000000E+00 -0.00000000000E+00 -0.34953994393E+02  0.34953994393E+02  0.00000000000E+00 0.  1.
         23    2    1    2    0    0  0.27823613042E+02  0.30870726174E+02  0.65035171558E+02  0.12014303260E+03  0.92073989625E+02 0.  0.
         23    2    1    2    0    0 -0.42687701753E+02  0.16958378824E+01  0.48095973114E+03  0.49089961395E+03  0.88515830478E+02 0.  0.
        -11    1    3    3    0    0 -0.26818463053E+02  0.32712055219E+02  0.11991548304E+02  0.43967098470E+02  0.00000000000E+00 0. -1.
         11    1    3    3    0    0  0.54642076095E+02 -0.18413290443E+01  0.53043623254E+02  0.76175934130E+02  0.00000000000E+00 0.  1.
        -11    1    4    4    0    0 -0.27052410779E+02 -0.42576458023E+02  0.28188467429E+03  0.28636263252E+03  0.00000000000E+00 0. -1.
         11    1    4    4    0    0 -0.15635290974E+02  0.44272295905E+02  0.19907505686E+03  0.20453698143E+03  0.00000000000E+00 0.  1.
         21    1    1    2  502  501  0.14864088711E+02 -0.32566564057E+02  0.12940708360E+03  0.13426732854E+03  0.00000000000E+00 0. -1.
<scales pt_clust_5="13000.00000" pt_clust_6="13000.00000" pt_clust_7="13000.00000" pt_clust_8="13000.00000" pt_clust_9="35.79836"></scales>
<clustering>
<clus scale="   35.798">  1  9  2 -1</clus>
<clus scale="   88.516">  7  8 -1 -1</clus>
<clus scale="   92.074">  5  6 -1 -1</clus>
<clus scale="   96.983">  1  7  2 -1</clus>
<clus scale="   35.798">  1  5  2 -1</clus>
</clustering>
</event>
<event>
 9    1  0.1234700E-005  0.9493168E+02  0.7546771E-02  0.1291662E+00
         -3   -1    0    0    0  501 -0.00000000000E+00  0.00000000000E+00  0.25069557936E+03  0.25069557936E+03  0.00000000000E+00 0.  1.
          3   -1    0    0  502    0  0.00000000000E+00 -0.00000000000E+00 -0.85146977626E+02  0.85146977626E+02  0.00000000000E+00 0. -1.
         23    2    1    2    0    0 -0.17509043565E+02  0.19829299867E+02  0.16947136034E+03  0.19468106184E+03  0.92089120545E+02 0.  0.
         23    2    1    2    0    0  0.83449888133E+01  0.19378580784E+02 -0.21118706922E+02  0.97378639563E+02  0.92689974806E+02 0.  0.
        -11    1    4    4    0    0  0.17525469927E+02  0.55219675382E+02 -0.15353234559E+02  0.59933934102E+02  0.00000000000E+00 0.  1.
         11    1    4    4    0    0 -0.91804811136E+01 -0.35841094598E+02 -0.57654723633E+01  0.37444705461E+02  0.00000000000E+00 0. -1.
        -13    1    3    3    0    0 -0.11493988738E+02 -0.36949243673E+02  0.70477483595E+02  0.80401704453E+02  0.00000000000E+00 0. -1.
         13    1    3    3    0    0 -0.60150548271E+01  0.56778543540E+02  0.98993876747E+02  0.11427935739E+03  0.00000000000E+00 0.  1.
         21    1    1    2  502  501  0.91640547515E+01 -0.39207880651E+02  0.17195948311E+02  0.43782855582E+02  0.00000000000E+00 0. -1.
<scales pt_clust_5="13000.00000" pt_clust_6="13000.00000" pt_clust_7="13000.00000" pt_clust_8="13000.00000" pt_clust_9="40.26460"></scales>
<clustering>
<clus scale="   40.265">  2  9  1 -1</clus>
<clus scale="   92.089">  7  8 -1 -1</clus>
<clus scale="   92.690">  5  6 -1 -1</clus>
<clus scale="   94.345">  1  7  2 -1</clus>
<clus scale="   40.265">  2  5  1 -1</clus>
</clustering>
</event>
<event>
 9    1  0.1234700E-005  0.1406645E+03  0.7546771E-02  0.1212657E+00
         -2   -1    0    0    0  501 -0.00000000000E+00  0.00000000000E+00  0.24740040058E+03  0.24740040058E+03  0.00000000000E+00 0.  1.
          2   -1    0    0  502    0  0.00000000000E+00 -0.00000000000E+00 -0.11566947058E+03  0.11566947058E+03  0.00000000000E+00 0. -1.
         23    2    1    2    0    0  0.12371252956E+03 -0.36647496391E+02  0.11277085965E+03  0.19352368952E+03  0.89923982667E+02 0.  0.
         23    2    1    2    0    0 -0.94075985611E+02  0.26626743254E+02  0.11193084193E+01  0.13353183704E+03  0.90940772631E+02 0.  0.
        -11    1    3    3    0    0  0.55581563498E+02 -0.57758627276E+02  0.85398508397E+02  0.11712503772E+03  0.00000000000E+00 0.  1.
         11    1    3    3    0    0  0.68130966059E+02  0.21111130884E+02  0.27372351257E+02  0.76398651799E+02  0.00000000000E+00 0. -1.
        -13    1    4    4    0    0 -0.49230921028E+02 -0.50390373424E+01  0.42141561482E+02  0.64999897590E+02  0.00000000000E+00 0.  1.
         13    1    4    4    0    0 -0.44845064584E+02  0.31665780596E+02 -0.41022253063E+02  0.68531939449E+02  0.00000000000E+00 0. -1.
         21    1    1    2  502  501 -0.29636543946E+02  0.10020753137E+02  0.17840761926E+02  0.36014344595E+02  0.00000000000E+00 0. -1.
<scales pt_clust_5="13000.00000" pt_clust_6="13000.00000" pt_clust_7="13000.00000" pt_clust_8="13000.00000" pt_clust_9="31.28482"></scales>
<clustering>
<clus scale="   31.285">  1  9  2 -1</clus>
<clus scale="   89.924">  5  6 -1 -1</clus>
<clus scale="   90.941">  7  8 -1 -1</clus>
<clus scale="  140.009">  1  5  2 -1</clus>
<clus scale="  140.665">  2  5  1 -1</clus>
</clustering>
</event>
<event>
 9    1  0.1234700E-005  0.9067002E+02  0.7546771E-02  0.1302756E+00
         -1   -1    0    0    0  501 -0.00000000000E+00  0.00000000000E+00  0.32210462341E+03  0.32210462341E+03  0.00000000000E+00 0.  1.
          1   -1    0    0  502    0  0.00000000000E+00 -0.00000000000E+00 -0.41405516632E+02  0.41405516632E+02  0.00000000000E+00 0. -1.
         23    2    1    2    0    0 -0.20121626696E+01  0.97466830350E+01  0.16190451885E+03  0.18581581741E+03  0.90638833544E+02 0.  0.
         23    2    1    2    0    0 -0.79959437900E+00  0.17166145524E+02  0.12084395203E+03  0.15055751715E+03  0.88141870449E+02 0.  0.
        -11    1    3    3    0    0 -0.26881666211E+02 -0.25981170338E+02  0.33377073796E+02  0.50116606485E+02  0.00000000000E+00 0. -1.
         11    1    3    3    0    0  0.24869503541E+02  0.35727853373E+02  0.12852744505E+03  0.13569921092E+03  0.00000000000E+00 0.  1.
        -13    1    4    4    0    0 -0.21722225988E+02  0.47774022976E+02  0.76236693524E+02  0.92554015648E+02  0.00000000000E+00 0.  1.
         13    1    4    4    0    0  0.20922631609E+02 -0.30607877452E+02  0.44607258503E+02  0.58003501504E+02  0.00000000000E+00 0. -1.
         21    1    1    2  502  501  0.28117570486E+01 -0.26912828559E+02 -0.20493640957E+01  0.27136805485E+02  0.00000000000E+00 0. -1.
<scales pt_clust_5="13000.00000" pt_clust_6="13000.00000" pt_clust_7="13000.00000" pt_clust_8="13000.00000" pt_clust_9="27.05931"></scales>
<clustering>
<clus scale="   27.059">  2  9  1 -1</clus>
<clus scale="   88.142">  7  8 -1 -1</clus>
<clus scale="   88.174">  2  7  1 -1</clus>
<clus scale="   90.639">  5  6 -1 -1</clus>
<clus scale="   27.059">  2  5  1 -1</clus>
</clustering>
</event>
<event>
 9    1  0.1234700E-005  0.1006038E+03  0.7546771E-02  0.1279085E+00
         -2   -1    0    0    0  501 -0.00000000000E+00  0.00000000000E+00  0.38291744936E+03  0.38291744936E+03  0.00000000000E+00 0.  1.
          2   -1    0    0  502    0  0.00000000000E+00 -0.00000000000E+00 -0.39215381363E+02  0.39215381363E+02  0.00000000000E+00 0. -1.
         23    2    1    2    0    0  0.36856227823E+02  0.94268462453E+01  0.16135137651E+03  0.18815499648E+03  0.88998814821E+02 0.  0.
         23    2    1    2    0    0 -0.47247522893E+02 -0.32985981213E+02  0.17888818693E+03  0.20799705690E+03  0.89114470650E+02 0.  0.
        -11    1    4    4    0    0 -0.38002164529E+02  0.12365853268E+02  0.14560040463E+03  0.15098528625E+03  0.00000000000E+00 0. -1.
         11    1    4    4    0    0 -0.92453583640E+01 -0.45351834481E+02  0.33287782304E+02  0.57011770651E+02  0.00000000000E+00 0.  1.
        -13    1    3    3    0    0  0.20986412867E+02 -0.19536354885E+02  0.15077464758E+03  0.15347668566E+03  0.00000000000E+00 0.  1.
         13    1    3    3    0    0  0.15869814956E+02  0.28963201131E+02  0.10576728923E+02  0.34678310818E+02  0.00000000000E+00 0. -1.
         21    1    1    2  502  501  0.10391295070E+02  0.23559134967E+02  0.34625045583E+01  0.25980777345E+02  0.00000000000E+00 0.  1.
<scales pt_clust_5="13000.00000" pt_clust_6="13000.00000" pt_clust_7="13000.00000" pt_clust_8="13000.00000" pt_clust_9="25.74902"></scales>
<clustering>
<clus scale="   25.749">  2  9  1 -1</clus>
<clus scale="   88.999">  7  8 -1 -1</clus>
<clus scale="   89.114">  5  6 -1 -1</clus>
<clus scale="  100.501">  1  7  2 -1</clus>
<clus scale="   25.749">  2  5  1 -1</clus>
</clustering>
</event>
<event>
 9    1  0.1234700E-005  0.1392189E+03  0.7546771E-02  0.1214418E+00
         -1   -1    0    0    0  501 -0.00000000000E+00  0.00000000000E+00  0.11012659414E+03  0.11012659414E+03  0.00000000000E+00 0.  1.
          1   -1    0    0  502    0  0.00000000000E+00 -0.00000000000E+00 -0.28854020064E+03  0.28854020064E+03  0.00000000000E+00 0. -1.
         23    2    1    2    0    0 -0.89676282365E+02 -0.74292269942E+02  0.10882632757E+02  0.14825733776E+03  0.91107790626E+02 0.  0.
         23    2    1    2    0    0  0.63309783487E+02  0.41747434751E+02 -0.16041862378E+03  0.19953436256E+03  0.91262533353E+02 0.  0.
        -11    1    3    3    0    0 -0.90342676820E+02 -0.18776996033E+02  0.89179078203E+01  0.92703311240E+02  0.00000000000E+00 0.  1.
         11    1    3    3    0    0  0.66639445529E+00 -0.55515273909E+02  0.19647249368E+01  0.55554026522E+02  0.00000000000E+00 0. -1.
        -13    1    4    4    0    0  0.83488642484E+02  0.25902661951E+02 -0.14582403240E+03  0.17001749835E+03  0.00000000000E+00 0. -1.
         13    1    4    4    0    0 -0.20178858996E+02  0.15844772800E+02 -0.14594591387E+02  0.29516864217E+02  0.00000000000E+00 0.  1.
         21    1    1    2  502  501  0.26366498877E+02  0.32544835192E+02 -0.28877615464E+02  0.50875094453E+02  0.00000000000E+00 0. -1.
<scales pt_clust_5="13000.00000" pt_clust_6="13000.00000" pt_clust_7="13000.00000" pt_clust_8="13000.00000" pt_clust_9="41.88506"></scales>
<clustering>
<clus scale="   41.885">  2  9  1 -1</clus>
<clus scale="   91.108">  5  6 -1 -1</clus>
<clus scale="   91.263">  7  8 -1 -1</clus>
<clus scale="  139.118">  1  5  2 -1</clus>
<clus scale="   41.885">  2  5  1 -1</clus>
</clustering>
</event>
<event>
 9    1  0.1234700E-005  0.9664261E+02  0.7546771E-02  0.1287821E+00
          1   -1    0    0  502    0  0.00000000000E+00  0.00000000000E+00  0.46494807644E+02  0.46494807644E+02  0.00000000000E+00 0. -1.
         -1   -1    0    0    0  501 -0.00000000000E+00 -0.00000000000E+00 -0.37585218593E+03  0.37585218593E+03  0.00000000000E+00 0.  1.
         23    2    1    2    0    0  0.26950672880E+02 -0.23221911762E+02 -0.23328951237E+03  0.25340419145E+03  0.92326007759E+02 0.  0.
         23    2    1    2    0    0  0.49008153533E+01  0.17775778478E+02 -0.98365094853E+02  0.13654751032E+03  0.92895287270E+02 0.  0.
        -11    1    4    4    0    0 -0.35319212352E+02  0.34949181280E+02 -0.63426486086E+02  0.80571776513E+02  0.00000000000E+00 0. -1.
         11    1    4    4    0    0  0.40220027705E+02 -0.17173402802E+02 -0.34938608767E+02  0.55975733805E+02  0.00000000000E+00 0.  1.
        -13    1    3    3    0    0  0.28088815335E+02  0.32065737955E+02 -0.83907961483E+02  0.94115562464E+02  0.00000000000E+00 0.  1.
         13    1    3    3    0    0 -0.11381424556E+01 -0.55287649718E+02 -0.14938155088E+03  0.15928862899E+03  0.00000000000E+00 0. -1.
         21    1    1    2  502  501 -0.31851488233E+02  0.54461332846E+01  0.22972289347E+01  0.32395291806E+02  0.00000000000E+00 0. -1.
<scales pt_clust_5="13000.00000" pt_clust_6="13000.00000" pt_clust_7="13000.00000" pt_clust_8="13000.00000" pt_clust_9="32.31374"></scales>
<clustering>
<clus scale="   32.314">  1  9  2 -1</clus>
<clus scale="   92.326">  7  8 -1 -1</clus>
<clus scale="   92.895">  5  6 -1 -1</clus>
<clus scale="   96.096">  2  7  1 -1</clus>
<clus scale="   32.314">  1  5  2 -1</clus>
</clustering>
</event>
<event>
 9    1  0.1234700E-005  0.1472107E+03  0.7546771E-02  0.1204970E+00
         -1   -1    0    0    0  501 -0.00000000000E+00  0.00000000000E+00  0.44640396438E+03  0.44640396438E+03  0.00000000000E+00 0.  1.
          1   -1    0    0  502    0  0.00000000000E+00 -0.00000000000E+00 -0.25345003318E+03  0.25345003318E+03  0.00000000000E+00 0. -1.
         23    2    1    2    0    0  0.83427867514E+02 -0.90991386855E+02  0.27746217589E+03  0.31591158168E+03  0.87035779026E+02 0.  0.
         23    2    1    2    0    0 -0.83206585687E+02  0.58655076865E+02  0.11662884264E+03  0.18022247625E+03  0.92271881234E+02 0.  0.
        -13    1    3    3    0    0  0.22041362878E+02  0.12196116781E+02  0.21230034502E+02  0.32943607984E+02  0.00000000000E+00 0. -1.
         13    1    3    3    0    0  0.61386504636E+02 -0.10318750364E+03  0.25623214138E+03  0.28296797369E+03  0.00000000000E+00 0.  1.
        -13    1    4    4    0    0  0.14664982290E+02  0.17836939107E+02  0.49761387773E+02  0.54858124424E+02  0.00000000000E+00 0.  1.
         13    1    4    4    0    0 -0.97871567977E+02  0.40818137758E+02  0.66867454865E+02  0.12536435182E+03  0.00000000000E+00 0. -1.
         21    1    1    2  502  501 -0.22128182698E+00  0.32336309989E+02 -0.20113708732E+03  0.20371993963E+03  0.00000000000E+00 0. -1.
<scales pt_clust_5="13000.00000" pt_clust_6="13000.00000" pt_clust_7="13000.00000" pt_clust_8="13000.00000" pt_clust_9="32.33707"></scales>
<clustering>
<clus scale="   32.337">  2  9  1 -1</clus>
<clus scale="   87.036">  5  6 -1 -1</clus>
<clus scale="   92.272">  7  8 -1 -1</clus>
<clus scale="  143.986">  1  5  2 -1</clus>
<clus scale="   32.337">  2  5  1 -1</clus>
</clustering>
</event>
<event>
 9    1  0.1234700E-005  0.9205845E+02  0.7546771E-02  0.1298842E+00
          1   -1    0    0  502    0  0.00000000000E+00  0.00000000000E+00  0.73666345260E+02  0.73666345260E+02  0.00000000000E+00 0. -1.
         -1   -1    0    0    0  501 -0.00000000000E+00 -0.00000000000E+00 -0.19920870887E+03  0.19920870887E+03  0.00000000000E+00 0.  1.
         23    2    1    2    0    0  0.81512819826E+01 -0.59009666318E+01 -0.13141476056E+03  0.15978375167E+03  0.90331296886E+02 0.  0.
         23    2    1    2    0    0  0.11717593604E+02  0.16710291873E+01  0.41820344798E+01  0.92706947852E+02  0.91853113335E+02 0.  0.
        -11    1    3    3    0    0  0.15124945246E+02  0.39005061951E+02 -0.40924148789E+02  0.58523027780E+02  0.00000000000E+00 0.  1.
         11    1    3    3    0    0 -0.69736632633E+01 -0.44906028583E+02 -0.90490611775E+02  0.10126072389E+03  0.00000000000E+00 0. -1.
        -13    1    4    4    0    0  0.34586104885E+02 -0.15299128148E+02 -0.29959756617E+02  0.48247787407E+02  0.00000000000E+00 0.  1.
         13    1    4    4    0    0 -0.22868511281E+02  0.16970157335E+02  0.34141791096E+02  0.44459160445E+02  0.00000000000E+00 0. -1.
         21    1    1    2  502  501 -0.19868875586E+02  0.42299374444E+01  0.16903624701E+01  0.20384354616E+02  0.00000000000E+00 0. -1.
<scales pt_clust_5="13000.00000" pt_clust_6="13000.00000" pt_clust_7="13000.00000" pt_clust_8="13000.00000" pt_clust_9="20.31415"></scales>
<clustering>
<clus scale="   20.314">  1  9  2 -1</clus>
<clus scale="   90.331">  5  6 -1 -1</clus>
<clus scale="   90.540">  2  5  1 -1</clus>
<clus scale="   91.853">  7  8 -1 -1</clus>
<clus scale="   20.314">  1  5  2 -1</clus>
</clustering>
</event>
<event>
 9    1  0.1234700E-005  0.1253782E+03  0.7546771E-02  0.1234948E+00
          1   -1    0    0  502    0  0.00000000000E+00  0.00000000000E+00  0.65433473492E+02  0.65433473492E+02  0.00000000000E+00 0. -1.
         -1   -1    0    0    0  501 -0.00000000000E+00 -0.00000000000E+00 -0.33163415793E+03  0.33163415793E+03  0.00000000000E+00 0.  1.
         23    2    1    2    0    0  0.76560397610E+02 -0.19527872727E+02 -0.13375887055E+03  0.17968312858E+03  0.90287091823E+02 0.  0.
         23    2    1    2    0    0 -0.83905769039E+02  0.40309563591E+02 -0.14224662630E+03  0.19326050022E+03  0.91926488326E+02 0.  0.
        -11    1    4    4    0    0 -0.57530602808E+02  0.64853664277E+02 -0.66092295068E+02  0.10901357483E+03  0.00000000000E+00 0. -1.
         11    1    4    4    0    0 -0.26375166231E+02 -0.24544100687E+02 -0.76154331228E+02  0.84246925386E+02  0.00000000000E+00 0.  1.
        -13    1    3    3    0    0  0.57897912111E+02 -0.51345830538E+02 -0.11414771834E+03  0.13790672262E+03  0.00000000000E+00 0.  1.
         13    1    3    3    0    0  0.18662485500E+02  0.31817957810E+02 -0.19611152209E+02  0.41776405963E+02  0.00000000000E+00 0. -1.
         21    1    1    2  502  501  0.73453714284E+01 -0.20781690863E+02  0.98048124059E+01  0.24124002630E+02  0.00000000000E+00 0. -1.
<scales pt_clust_5="13000.00000" pt_clust_6="13000.00000" pt_clust_7="13000.00000" pt_clust_8="13000.00000" pt_clust_9="22.04162"></scales>
<clustering>
<clus scale="   22.042">  1  9  2 -1</clus>
<clus scale="   90.287">  7  8 -1 -1</clus>
<clus scale="   91.926">  5  6 -1 -1</clus>
<clus scale="  124.181">  2  7  1 -1</clus>
<clus scale="   22.042">  1  5  2 -1</clus>
</clustering>
</event>
<event>
 9    1  0.1234700E-005  0.1330934E+03  0.7546771E-02  0.1236164E+00
          1   -1    0    0  502    0  0.00000000000E+00  0.00000000000E+00  0.38303023199E+03  0.38303023199E+03  0.00000000000E+00 0. -1.
         -1   -1    0    0    0  501 -0.00000000000E+00 -0.00000000000E+00 -0.26186619355E+03  0.26186619355E+03  0.00000000000E+00 0.  1.
         23    2    1    2    0    0  0.29172144039E+02  0.89576554099E+02 -0.20329291605E+03  0.24238499680E+03  0.92452711824E+02 0.  0.
         23    2    1    2    0    0 -0.49423919927E+02  0.25198000925E+02  0.23402917495E+03  0.25499696768E+03  0.84712075232E+02 0.  0.
        -13    1    3    3    0    0  0.44376058370E+02  0.69831816681E+02 -0.20099578307E+03  0.21735920037E+03  0.00000000000E+00 0. -1.
         13    1    3    3    0    0 -0.15203914330E+02  0.19744737418E+02 -0.22971329867E+01  0.25025796423E+02  0.00000000000E+00 0.  1.
        -13    1    4    4    0    0 -0.34522361261E+02 -0.10793716923E+02  0.20008522292E+03  0.20332829165E+03  0.00000000000E+00 0. -1.
         13    1    4    4    0    0 -0.14901558667E+02  0.35991717848E+02  0.33943952022E+02  0.51668676035E+02  0.00000000000E+00 0.  1.
         21    1    1    2  502  501  0.20251775888E+02 -0.11477455502E+03  0.90427779552E+02  0.14751446106E+03  0.00000000000E+00 0.  1.
<scales pt_clust_5="13000.00000" pt_clust_6="13000.00000" pt_clust_7="13000.00000" pt_clust_8="13000.00000" pt_clust_9="95.74111"></scales>
<clustering>
<clus scale="   84.712">  7  8 -1 -1</clus>
<clus scale="   92.453">  5  6 -1 -1</clus>
<clus scale="  101.261">  1  7  2 -1</clus>
<clus scale="   95.741">  1  9  2 -1</clus>
<clus scale="  101.261">  1  5  2 -1</clus>
</clustering>
</event>
<event>
 9    1  0.1234700E-005  0.1073300E+03  0.7546771E-02  0.1270603E+00
         -1   -1    0    0    0  501 -0.00000000000E+00  0.00000000000E+00  0.12014839916E+03  0.12014839916E+03  0.00000000000E+00 0.  1.
          1   -1    0    0  502    0  0.00000000000E+00 -0.00000000000E+00 -0.17068418030E+03  0.17068418030E+03  0.00000000000E+00 0. -1.
         23    2    1    2    0    0  0.11318423134E+02 -0.45545460204E+02  0.59703821916E+02  0.11887251342E+03  0.91452897428E+02 0.  0.
         23    2    1    2    0    0 -0.16807524519E+02  0.25656043413E+02 -0.10721457604E+03  0.15110653102E+03  0.10196809775E+03 0.  0.
        -11    1    3    3    0    0 -0.96358463722E+01 -0.69345470227E+02  0.48796865115E+02  0.85339192762E+02  0.00000000000E+00 0. -1.
         11    1    3    3    0    0  0.20954269506E+02  0.23800010023E+02  0.10906956801E+02  0.33533320657E+02  0.00000000000E+00 0.  1.
        -13    1    4    4    0    0 -0.22503655120E+02 -0.45740997818E+01 -0.11668220791E+03  0.11892045461E+03  0.00000000000E+00 0. -1.
         13    1    4    4    0    0  0.56961306011E+01  0.30230143195E+02  0.94676318731E+01  0.32186076410E+02  0.00000000000E+00 0.  1.
         21    1    1    2  502  501  0.54891013851E+01  0.19889416791E+02 -0.30250270126E+01  0.20853535017E+02  0.00000000000E+00 0.  1.
<scales pt_clust_5="13000.00000" pt_clust_6="13000.00000" pt_clust_7="13000.00000" pt_clust_8="13000.00000" pt_clust_9="20.63296"></scales>
<clustering>
<clus scale="   20.633">  1  9  2 -1</clus>
<clus scale="   91.453">  5  6 -1 -1</clus>
<clus scale="   97.395">  1  5  2 -1</clus>
<clus scale="  101.968">  7  8 -1 -1</clus>
<clus scale="  107.330">  2  5  1 -1</clus>
</clustering>
</event>
<event>
 9    1  0.1234700E-005  0.1916880E+03  0.7546771E-02  0.1168861E+00
         -2   -1    0    0    0  501 -0.00000000000E+00  0.00000000000E+00  0.40802297949E+03  0.40802297949E+03  0.00000000000E+00 0.  1.
          2   -1    0    0  502    0  0.00000000000E+00 -0.00000000000E+00 -0.17253619273E+03  0.17253619273E+03  0.00000000000E+00 0. -1.
         23    2    1    2    0    0  0.17741552292E+03 -0.27813894714E+02  0.65234658232E+02  0.21180255330E+03  0.91405035077E+02 0.  0.
         23    2    1    2    0    0 -0.16929961646E+02  0.83286643132E+02  0.30013127749E+02  0.14852987545E+03  0.11805527324E+03 0.  0.
        -11    1    4    4    0    0 -0.51526750371E+02  0.74818639197E+02  0.53911254250E+02  0.10563738973E+03  0.00000000000E+00 0.  1.
         11    1    4    4    0    0  0.34596788725E+02  0.84680039344E+01 -0.23898126502E+02  0.42892485717E+02  0.00000000000E+00 0. -1.
        -13    1    3    3    0    0  0.54013131448E+02  0.42136012546E+01  0.64598973071E+02  0.84310142487E+02  0.00000000000E+00 0.  1.
         13    1    3    3    0    0  0.12340239147E+03 -0.32027495969E+02  0.63568516081E+00  0.12749241081E+03  0.00000000000E+00 0. -1.
         21    1    1    2  502  501 -0.16048556128E+03 -0.55472748417E+02  0.14023900078E+03  0.22022674346E+03  0.00000000000E+00 0.  1.
<scales pt_clust_5="13000.00000" pt_clust_6="13000.00000" pt_clust_7="13000.00000" pt_clust_8="13000.00000" pt_clust_9="168.49154"></scales>
<clustering>
<clus scale="   91.405">  7  8 -1 -1</clus>
<clus scale="  118.055">  5  6 -1 -1</clus>
<clus scale="  145.466">  2  5  1 -1</clus>
<clus scale="  168.492">  1  9  2 -1</clus>
<clus scale="  145.466">  2  5  1 -1</clus>
</clustering>
</event>
<event>
 9    1  0.1234700E-005  0.1299173E+03  0.7546771E-02  0.1228873E+00
          1   -1    0    0  502    0  0.00000000000E+00  0.00000000000E+00  0.34703791148E+03  0.34703791148E+03  0.00000000000E+00 0. -1.
         -1   -1    0    0    0  501 -0.00000000000E+00 -0.00000000000E+00 -0.93369160603E+02  0.93369160603E+02  0.00000000000E+00 0.  1.
         23    2    1    2    0    0  0.71012119984E+02  0.59798615021E+02 -0.19591446573E+02  0.13299821436E+03  0.93199274139E+02 0.  0.
         23    2    1    2    0    0 -0.71620716729E+02 -0.39346861384E+02  0.23213943843E+03  0.26147889540E+03  0.88344729898E+02 0.  0.
        -13    1    3    3    0    0  0.87428992023E+02  0.27464568326E+02  0.29196725368E+00  0.91641783071E+02  0.00000000000E+00 0.  1.
         13    1    3    3    0    0 -0.16416872040E+02  0.32334046695E+02 -0.19883413827E+02  0.41356431285E+02  0.00000000000E+00 0. -1.
        -13    1    4    4    0    0 -0.35929699088E+02 -0.23800838555E+02  0.23203593815E+02  0.48947216043E+02  0.00000000000E+00 0.  1.
         13    1    4    4    0    0 -0.35691017641E+02 -0.15546022828E+02  0.20893584462E+03  0.21253167936E+03  0.00000000000E+00 0. -1.
         21    1    1    2  502  501  0.60859674505E+00 -0.20451753638E+02  0.41120759020E+02  0.45929962326E+02  0.00000000000E+00 0. -1.
<scales pt_clust_5="13000.00000" pt_clust_6="13000.00000" pt_clust_7="13000.00000" pt_clust_8="13000.00000" pt_clust_9="20.46081"></scales>
<clustering>
<clus scale="   20.461">  1  9  2 -1</clus>
<clus scale="   88.345">  7  8 -1 -1</clus>
<clus scale="   93.199">  5  6 -1 -1</clus>
<clus scale="  126.480">  1  7  2 -1</clus>
<clus scale="   20.461">  1  5  2 -1</clus>
</clustering>
</event>
<event>
 9    1  0.1234700E-005  0.1131342E+03  0.7546771E-02  0.1255196E+00
          2   -1    0    0  502    0  0.00000000000E+00  0.00000000000E+00  0.30118769100E+03  0.30118769100E+03  0.00000000000E+00 0. -1.
         -2   -1    0    0    0  501 -0.00000000000E+00 -0.00000000000E+00 -0.66809637734E+02  0.66809637734E+02  0.00000000000E+00 0.  1.
         23    2    1    2    0    0  0.34882600821E+02  0.69628673462E+02  0.44509167427E+02  0.12861073950E+03  0.92166741946E+02 0.  0.
         23    2    1    2    0    0 -0.34192317651E+02 -0.28325564322E+02  0.15525360126E+03  0.18549186554E+03  0.91280333577E+02 0.  0.
        -11    1    4    4    0    0 -0.32030935123E+02  0.18670326955E+02  0.19652720462E+02  0.41961784221E+02  0.00000000000E+00 0.  1.
         11    1    4    4    0    0 -0.21613825283E+01 -0.46995891276E+02  0.13560088080E+03  0.14353008132E+03  0.00000000000E+00 0. -1.
        -11    1    3    3    0    0 -0.18119284507E+02  0.64823795053E+02  0.21822423949E+02  0.70757692607E+02  0.00000000000E+00 0.  1.
         11    1    3    3    0    0  0.53001885328E+02  0.48048784093E+01  0.22686743479E+02  0.57853046890E+02  0.00000000000E+00 0. -1.
         21    1    1    2  502  501 -0.69028316972E+00 -0.41303109140E+02  0.34615284579E+02  0.53894723694E+02  0.00000000000E+00 0. -1.
<scales pt_clust_5="13000.00000" pt_clust_6="13000.00000" pt_clust_7="13000.00000" pt_clust_8="13000.00000" pt_clust_9="41.30888"></scales>
<clustering>
<clus scale="   41.309">  1  9  2 -1</clus>
<clus scale="   91.280">  5  6 -1 -1</clus>
<clus scale="   92.167">  7  8 -1 -1</clus>
<clus scale="  112.413">  1  5  2 -1</clus>
<clus scale="   41.309">  1  5  2 -1</clus>
</clustering>
</event>
<event>
 9    1  0.1234700E-005  0.1031757E+03  0.7546771E-02  0.1276257E+00
          1   -1    0    0  502    0  0.00000000000E+00  0.00000000000E+00  0.81390897776E+02  0.81390897776E+02  0.00000000000E+00 0. -1.
         -1   -1    0    0    0  501 -0.00000000000E+00 -0.00000000000E+00 -0.21859183891E+03  0.21859183891E+03  0.00000000000E+00 0.  1.
         23    2    1    2    0    0  0.32157297937E+02  0.34493722038E+02 -0.90958729168E+02  0.13608904734E+03  0.89570250210E+02 0.  0.
         23    2    1    2    0    0 -0.43594496221E+01 -0.37149158000E+02 -0.72859103801E+02  0.12531609686E+03  0.94850463284E+02 0.  0.
        -13    1    3    3    0    0 -0.31018765011E+02  0.10270097997E+02 -0.21448008232E+02  0.39085237018E+02  0.00000000000E+00 0.  1.
         13    1    3    3    0    0  0.63176062948E+02  0.24223624042E+02 -0.69510720936E+02  0.97003810319E+02  0.00000000000E+00 0. -1.
        -13    1    4    4    0    0  0.25516187618E+02  0.17163649111E+02 -0.14928381645E+01  0.30787907482E+02  0.00000000000E+00 0. -1.
         13    1    4    4    0    0 -0.29875637240E+02 -0.54312807111E+02 -0.71366265636E+02  0.94528189381E+02  0.00000000000E+00 0.  1.
         21    1    1    2  502  501 -0.27797848315E+02  0.26554359618E+01  0.26616891835E+02  0.38577592486E+02  0.00000000000E+00 0. -1.
<scales pt_clust_5="13000.00000" pt_clust_6="13000.00000" pt_clust_7="13000.00000" pt_clust_8="13000.00000" pt_clust_9="27.92439"></scales>
<clustering>
<clus scale="   27.924">  1  9  2 -1</clus>
<clus scale="   89.570">  5  6 -1 -1</clus>
<clus scale="   94.850">  7  8 -1 -1</clus>
<clus scale="   98.343">  2  5  1 -1</clus>
<clus scale="   27.924">  1  5  2 -1</clus>
</clustering>
</event>
<event>
 9    1  0.1234700E-005  0.1161208E+03  0.7546771E-02  0.1256509E+00
         -2   -1    0    0    0  501 -0.00000000000E+00  0.00000000000E+00  0.51452889082E+03  0.51452889082E+03  0.00000000000E+00 0.  1.
          2   -1    0    0  502    0  0.00000000000E+00 -0.00000000000E+00 -0.48453022798E+02  0.48453022798E+02  0.00000000000E+00 0. -1.
         23    2    1    2    0    0  0.24375944153E+02 -0.57078687424E+02  0.27465278715E+03  0.29546593331E+03  0.89519836032E+02 0.  0.
         23    2    1    2    0    0 -0.39647149379E+02  0.81855779410E+02  0.20553116661E+03  0.23517170602E+03  0.69212757385E+02 0.  0.
        -11    1    3    3    0    0 -0.11095414205E+02 -0.68906940468E+02  0.20266640352E+03  0.21434772165E+03  0.00000000000E+00 0.  1.
         11    1    3    3    0    0  0.35471358359E+02  0.11828253045E+02  0.71986383633E+02  0.81118211657E+02  0.00000000000E+00 0. -1.
        -11    1    4    4    0    0  0.16999987674E+02  0.38892291295E+02  0.90190465399E+02  0.99679134988E+02  0.00000000000E+00 0.  1.
         11    1    4    4    0    0 -0.56647137053E+02  0.42963488115E+02  0.11534070121E+03  0.13549257103E+03  0.00000000000E+00 0. -1.
         21    1    1    2  502  501  0.15271205225E+02 -0.24777091986E+02 -0.14108085742E+02  0.32344274295E+02  0.00000000000E+00 0. -1.
<scales pt_clust_5="13000.00000" pt_clust_6="13000.00000" pt_clust_7="13000.00000" pt_clust_8="13000.00000" pt_clust_9="29.10522"></scales>
<clustering>
<clus scale="   29.105">  2  9  1 -1</clus>
<clus scale="   69.213">  7  8 -1 -1</clus>
<clus scale="   89.520">  5  6 -1 -1</clus>
<clus scale="  101.295">  2  7  1 -1</clus>
<clus scale="   29.105">  2  5  1 -1</clus>
</clustering>
</event>
<event>
 9    1  0.1234700E-005  0.1215491E+03  0.7546771E-02  0.1243883E+00
         -1   -1    0    0    0  501 -0.00000000000E+00  0.00000000000E+00  0.46861948833E+02  0.46861948833E+02  0.00000000000E+00 0.  1.
          1   -1    0    0  502    0  0.00000000000E+00 -0.00000000000E+00 -0.38382978798E+03  0.38382978798E+03  0.00000000000E+00 0. -1.
         23    2    1    2    0    0 -0.12507570239E+02 -0.75141390624E+02 -0.16405937329E+03  0.20277853378E+03  0.91656903174E+02 0.  0.
         23    2    1    2    0    0  0.30717516597E+02  0.51585992000E+02 -0.14780568275E+03  0.18896954283E+03  0.10128320624E+03 0.  0.
        -13    1    4    4    0    0  0.64393936705E+02  0.27343731785E+02 -0.61255159409E+02  0.92986307091E+02  0.00000000000E+00 0. -1.
         13    1    4    4    0    0 -0.33676420107E+02  0.24242260215E+02 -0.86550523344E+02  0.95983235738E+02  0.00000000000E+00 0.  1.
        -13    1    3    3    0    0 -0.10190241397E+02 -0.43910217110E+02 -0.10800865382E+02  0.46353067638E+02  0.00000000000E+00 0.  1.
         13    1    3    3    0    0 -0.23173288415E+01 -0.31231173514E+02 -0.15325850790E+03  0.15642546614E+03  0.00000000000E+00 0. -1.
         21    1    1    2  502  501 -0.18209946359E+02  0.23555398624E+02 -0.25102783111E+02  0.38943660211E+02  0.00000000000E+00 0.  1.
<scales pt_clust_5="13000.00000" pt_clust_6="13000.00000" pt_clust_7="13000.00000" pt_clust_8="13000.00000" pt_clust_9="29.77346"></scales>
<clustering>
<clus scale="   29.773">  1  9  2 -1</clus>
<clus scale="   91.657">  7  8 -1 -1</clus>
<clus scale="  101.283">  5  6 -1 -1</clus>
<clus scale="  113.652">  1  7  2 -1</clus>
<clus scale="  121.549">  2  5  1 -1</clus>
</clustering>
</event>
<event>
 9    1  0.1234700E-005  0.9833387E+02  0.7546771E-02  0.1284551E+00
         -3   -1    0    0    0  501 -0.00000000000E+00  0.00000000000E+00  0.28257493184E+02  0.28257493184E+02  0.00000000000E+00 0.  1.
          3   -1    0    0  502    0  0.00000000000E+00 -0.00000000000E+00 -0.63341356811E+03  0.63341356811E+03  0.00000000000E+00 0. -1.
         23    2    1    2    0    0 -0.28400858501E+02  0.32852891224E+02 -0.16143591987E+03  0.19049904223E+03  0.91336781421E+02 0.  0.
         23    2    1    2    0    0 -0.28122532190E+02 -0.30727323695E+02 -0.27200533597E+03  0.29038100484E+03  0.92731763356E+02 0.  0.
        -13    1    4    4    0    0 -0.52162077995E+02 -0.29849485908E+02 -0.25207953332E+03  0.25914468026E+03  0.00000000000E+00 0. -1.
         13    1    4    4    0    0  0.24039545804E+02 -0.87783778692E+00 -0.19925802654E+02  0.31236324577E+02  0.00000000000E+00 0.  1.
        -13    1    3    3    0    0  0.24462159695E+02  0.32515933014E+02 -0.35810829726E+02  0.54204231222E+02  0.00000000000E+00 0.  1.
         13    1    3    3    0    0 -0.52863018196E+02  0.33695820963E+00 -0.12562509014E+03  0.13629481100E+03  0.00000000000E+00 0. -1.
         21    1    1    2  502  501  0.56523390691E+02 -0.21255675290E+01 -0.17171481909E+03  0.18079101423E+03  0.00000000000E+00 0.  1.
<scales pt_clust_5="13000.00000" pt_clust_6="13000.00000" pt_clust_7="13000.00000" pt_clust_8="13000.00000" pt_clust_9="56.56334"></scales>
<clustering>
<clus scale="   56.563">  2  9  1 -1</clus>
<clus scale="   91.337">  7  8 -1 -1</clus>
<clus scale="   92.732">  5  6 -1 -1</clus>
<clus scale="   97.019">  1  7  2 -1</clus>
<clus scale="   56.563">  2  5  1 -1</clus>
</clustering>
</event>
<event>
 9    1  0.1234700E-005  0.1361095E+03  0.7546771E-02  0.1218904E+00
         -1   -1    0    0    0  501 -0.00000000000E+00  0.00000000000E+00  0.37966186406E+03  0.37966186406E+03  0.00000000000E+00 0.  1.
          1   -1    0    0  502    0  0.00000000000E+00 -0.00000000000E+00 -0.64790461067E+02  0.64790461067E+02  0.00000000000E+00 0. -1.
         23    2    1    2    0    0  0.49402938883E+01  0.91576223524E+02  0.19544659669E+03  0.23505645959E+03  0.92959968905E+02 0.  0.
         23    2    1    2    0    0  0.30577674100E+01 -0.11342645348E+03  0.11458614291E+03  0.18563004561E+03  0.91943566376E+02 0.  0.
        -11    1    4    4    0    0  0.27578482596E+02 -0.97119768445E+02  0.11877521602E+03  0.15588577249E+03  0.00000000000E+00 0.  1.
         11    1    4    4    0    0 -0.24520715186E+02 -0.16306685030E+02 -0.41890731114E+01  0.29744273120E+02  0.00000000000E+00 0. -1.
        -11    1    3    3    0    0  0.41253531909E+02  0.80629190087E+02  0.11733896168E+03  0.14822736629E+03  0.00000000000E+00 0.  1.
         11    1    3    3    0    0 -0.36313238021E+02  0.10947033438E+02  0.78107635008E+02  0.86829093299E+02  0.00000000000E+00 0. -1.
         21    1    1    2  502  501 -0.79980612982E+01  0.21850229951E+02  0.48386634031E+01  0.23765819930E+02  0.00000000000E+00 0.  1.
<scales pt_clust_5="13000.00000" pt_clust_6="13000.00000" pt_clust_7="13000.00000" pt_clust_8="13000.00000" pt_clust_9="23.26804"></scales>
<clustering>
<clus scale="   23.268">  2  9  1 -1</clus>
<clus scale="   91.944">  5  6 -1 -1</clus>
<clus scale="   92.960">  7  8 -1 -1</clus>
<clus scale="  135.417">  2  5  1 -1</clus>
<clus scale="   23.268">  2  5  1 -1</clus>
</clustering>
</event>
<event>
 9    1  0.1234700E-005  0.1315390E+03  0.7546771E-02  0.1226249E+00
         -2   -1    0    0    0  501 -0.00000000000E+00  0.00000000000E+00  0.54969921817E+02  0.54969921817E+02  0.00000000000E+00 0.  1.
          2   -1    0    0  502    0  0.00000000000E+00 -0.00000000000E+00 -0.50108928246E+03  0.50108928246E+03  0.00000000000E+00 0. -1.
         23    2    1    2    0    0  0.42446189334E+02 -0.59385597898E+02 -0.11417368446E+03  0.16623010779E+03  0.96272998727E+02 0.  0.
         23    2    1    2    0    0 -0.72433294710E+02  0.88358478344E+02 -0.18033094557E+03  0.23258507966E+03  0.92318830548E+02 0.  0.
        -11    1    4    4    0    0  0.14999166590E+02  0.37956249266E+02 -0.82435652103E+02  0.91985262920E+02  0.00000000000E+00 0. -1.
         11    1    4    4    0    0 -0.87432461301E+02  0.50402229078E+02 -0.97895293463E+02  0.14059981674E+03  0.00000000000E+00 0.  1.
        -11    1    3    3    0    0  0.65319427791E+02 -0.49485159592E+02 -0.11509645291E+03  0.14128907297E+03  0.00000000000E+00 0. -1.
         11    1    3    3    0    0 -0.22873238458E+02 -0.99004383058E+01  0.92276844988E+00  0.24941034818E+02  0.00000000000E+00 0.  1.
         21    1    1    2  502  501  0.29987105377E+02 -0.28972880446E+02 -0.15161473061E+03  0.15724401683E+03  0.00000000000E+00 0. -1.
<scales pt_clust_5="13000.00000" pt_clust_6="13000.00000" pt_clust_7="13000.00000" pt_clust_8="13000.00000" pt_clust_9="41.69717"></scales>
<clustering>
<clus scale="   41.697">  2  9  1 -1</clus>
<clus scale="   92.319">  5  6 -1 -1</clus>
<clus scale="   96.273">  7  8 -1 -1</clus>
<clus scale="  128.673">  2  5  1 -1</clus>
<clus scale="   41.697">  2  5  1 -1</clus>
</clustering>
</event>
<event>
 9    1  0.1234700E-005  0.1035510E+03  0.7546771E-02  0.1277551E+00
          2   -1    0    0  502    0  0.00000000000E+00  0.00000000000E+00  0.10136647859E+03  0.10136647859E+03  0.00000000000E+00 0. -1.
         -2   -1    0    0    0  501 -0.00000000000E+00 -0.00000000000E+00 -0.15780347236E+03  0.15780347236E+03  0.00000000000E+00 0.  1.
         23    2    1    2    0    0 -0.20713963108E+01  0.27207705603E+02 -0.84451677238E+02  0.12772747297E+03  0.91856799624E+02 0.  0.
         23    2    1    2    0    0 -0.17250073566E+02 -0.12613464967E+02  0.29593442625E+02  0.10717720364E+03  0.10076962140E+03 0.  0.
        -13    1    3    3    0    0 -0.26777584371E+02  0.27480986574E+02  0.13957664410E+01  0.38395205583E+02  0.00000000000E+00 0. -1.
         13    1    3    3    0    0  0.24706188061E+02 -0.27328097013E+00 -0.85847443679E+02  0.89332267391E+02  0.00000000000E+00 0.  1.
        -13    1    4    4    0    0 -0.13285120356E+02 -0.52957894286E+02  0.37016981815E+02  0.65964308022E+02  0.00000000000E+00 0. -1.
         13    1    4    4    0    0 -0.39649532102E+01  0.40344429319E+02 -0.74235391904E+01  0.41212895617E+02  0.00000000000E+00 0.  1.
         21    1    1    2  502  501  0.19321469877E+02 -0.14594240636E+02 -0.15787591612E+01  0.24265274333E+02  0.00000000000E+00 0.  1.
<scales pt_clust_5="13000.00000" pt_clust_6="13000.00000" pt_clust_7="13000.00000" pt_clust_8="13000.00000" pt_clust_9="24.21386"></scales>
<clustering>
<clus scale="   24.214">  1  9  2 -1</clus>
<clus scale="   91.857">  5  6 -1 -1</clus>
<clus scale="   94.900">  2  5  1 -1</clus>
<clus scale="  100.770">  7  8 -1 -1</clus>
<clus scale="   24.214">  1  5  2 -1</clus>
</clustering>
</event>
<event>
 9    1  0.1234700E-005  0.1134946E+03  0.7546771E-02  0.1254349E+00
          1   -1    0    0  502    0  0.00000000000E+00  0.00000000000E+00  0.14580782307E+03  0.14580782307E+03  0.00000000000E+00 0. -1.
         -1   -1    0    0    0  501 -0.00000000000E+00 -0.00000000000E+00 -0.12968384388E+03  0.12968384388E+03  0.00000000000E+00 0.  1.
         23    2    1    2    0    0 -0.31107182689E+00  0.76017856261E+02 -0.54481448428E+02  0.12895739471E+03  0.88786092325E+02 0.  0.
         23    2    1    2    0    0  0.89802862579E+01 -0.55608030917E+02  0.64262041401E+02  0.12347012695E+03  0.89119939628E+02 0.  0.
        -11    1    4    4    0    0  0.45340845861E+02 -0.51573699184E+02  0.45278187512E+02  0.82254197554E+02  0.00000000000E+00 0. -1.
         11    1    4    4    0    0 -0.36360559603E+02 -0.40343317333E+01  0.18983853889E+02  0.41215929392E+02  0.00000000000E+00 0.  1.
        -13    1    3    3    0    0  0.10505931274E+02  0.94496861440E+02 -0.40253386514E+02  0.10324905104E+03  0.00000000000E+00 0.  1.
         13    1    3    3    0    0 -0.10817003101E+02 -0.18479005178E+02 -0.14228061914E+02  0.25708343670E+02  0.00000000000E+00 0. -1.
         21    1    1    2  502  501 -0.86692144310E+01 -0.20409825344E+02  0.63433862235E+01  0.23064145296E+02  0.00000000000E+00 0. -1.
<scales pt_clust_5="13000.00000" pt_clust_6="13000.00000" pt_clust_7="13000.00000" pt_clust_8="13000.00000" pt_clust_9="22.17468"></scales>
<clustering>
<clus scale="   22.175">  1  9  2 -1</clus>
<clus scale="   88.786">  7  8 -1 -1</clus>
<clus scale="   89.120">  5  6 -1 -1</clus>
<clus scale="  113.233">  2  7  1 -1</clus>
<clus scale="   22.175">  1  5  2 -1</clus>
</clustering>
</event>
<event>
 9    1  0.1234700E-005  0.1021028E+03  0.7546771E-02  0.1276295E+00
          2   -1    0    0  502    0  0.00000000000E+00  0.00000000000E+00  0.17449896735E+03  0.17449896735E+03  0.00000000000E+00 0. -1.
         -2   -1    0    0    0  501 -0.00000000000E+00 -0.00000000000E+00 -0.30670679681E+03  0.30670679681E+03  0.00000000000E+00 0.  1.
         23    2    1    2    0    0  0.45422755014E+02  0.89308271430E+01 -0.26863765560E+03  0.28778245546E+03  0.92247305203E+02 0.  0.
         23    2    1    2    0    0 -0.79347418621E+01 -0.26709738129E+02  0.94820412027E+02  0.13466291260E+03  0.91470318982E+02 0.  0.
        -11    1    3    3    0    0  0.66449149017E+01  0.38522585930E+02 -0.48437282874E+02  0.62243994835E+02  0.00000000000E+00 0.  1.
         11    1    3    3    0    0  0.38777840112E+02 -0.29591758787E+02 -0.22020037273E+03  0.22553846063E+03  0.00000000000E+00 0. -1.
        -11    1    4    4    0    0 -0.25552346699E+02  0.12424975222E+02  0.86367320956E+02  0.90920935764E+02  0.00000000000E+00 0. -1.
         11    1    4    4    0    0  0.17617604837E+02 -0.39134713350E+02  0.84530910708E+01  0.43741976840E+02  0.00000000000E+00 0.  1.
         21    1    1    2  502  501 -0.37488013151E+02  0.17778910986E+02  0.41609414114E+02  0.58760396091E+02  0.00000000000E+00 0. -1.
<scales pt_clust_5="13000.00000" pt_clust_6="13000.00000" pt_clust_7="13000.00000" pt_clust_8="13000.00000" pt_clust_9="41.49025"></scales>
<clustering>
<clus scale="   41.490">  1  9  2 -1</clus>
<clus scale="   91.470">  7  8 -1 -1</clus>
<clus scale="   92.247">  5  6 -1 -1</clus>
<clus scale="  101.401">  1  7  2 -1</clus>
<clus scale="   41.490">  1  5  2 -1</clus>
</clustering>
</event>
<event>
 9    1  0.1234700E-005  0.1101839E+03  0.7546771E-02  0.1261190E+00
         -3   -1    0    0    0  501 -0.00000000000E+00  0.00000000000E+00  0.28440786072E+02  0.28440786072E+02  0.00000000000E+00 0.  1.
          3   -1    0    0  502    0  0.00000000000E+00 -0.00000000000E+00 -0.70989463223E+03  0.70989463223E+03  0.00000000000E+00 0. -1.
         23    2    1    2    0    0  0.25448114402E+02 -0.41408652064E+02 -0.12673623253E+03  0.16273591214E+03  0.89769824942E+02 0.  0.
         23    2    1    2    0    0 -0.84240386758E+01  0.64929695667E+02 -0.50918019752E+03  0.52159288702E+03  0.92237933791E+02 0.  0.
        -11    1    3    3    0    0  0.27747358842E+02 -0.63659820657E+02 -0.12120998192E+03  0.13969376652E+03  0.00000000000E+00 0. -1.
         11    1    3    3    0    0 -0.22992444405E+01  0.22251168592E+02 -0.55262506173E+01  0.23042145616E+02  0.00000000000E+00 0.  1.
        -11    1    4    4    0    0  0.16508619778E+02 -0.19205948294E+02 -0.11956904577E+03  0.12222176436E+03  0.00000000000E+00 0.  1.
         11    1    4    4    0    0 -0.24932658453E+02  0.84135643961E+02 -0.38961115176E+03  0.39937112266E+03  0.00000000000E+00 0. -1.
         21    1    1    2  502  501 -0.17024075726E+02 -0.23521043603E+02 -0.45537416101E+02  0.54006619146E+02  0.00000000000E+00 0.  1.
<scales pt_clust_5="13000.00000" pt_clust_6="13000.00000" pt_clust_7="13000.00000" pt_clust_8="13000.00000" pt_clust_9="29.03547"></scales>
<clustering>
<clus scale="   29.035">  1  9  2 -1</clus>
<clus scale="   89.770">  5  6 -1 -1</clus>
<clus scale="   92.238">  7  8 -1 -1</clus>
<clus scale="  108.126">  1  5  2 -1</clus>
<clus scale="  110.184">  2  5  1 -1</clus>
</clustering>
</event>
<event>
 9    1  0.1234700E-005  0.1282634E+03  0.7546771E-02  0.1230827E+00
          3   -1    0    0  502    0  0.00000000000E+00  0.00000000000E+00  0.71462040855E+03  0.71462040855E+03  0.00000000000E+00 0. -1.
         -3   -1    0    0    0  501 -0.00000000000E+00 -0.00000000000E+00 -0.39772373143E+02  0.39772373143E+02  0.00000000000E+00 0.  1.
         23    2    1    2    0    0 -0.11196728250E+03 -0.14303759858E+02  0.22247415438E+03  0.26659989763E+03  0.94018541542E+02 0.  0.
         23    2    1    2    0    0  0.53869133123E+02  0.40482457471E+02  0.22965343954E+03  0.25613556338E+03  0.91236021778E+02 0.  0.
        -13    1    3    3    0    0 -0.10299523183E+03 -0.36513836662E+02  0.12411373907E+03  0.16536474314E+03  0.00000000000E+00 0.  1.
         13    1    3    3    0    0 -0.89720506646E+01  0.22210076804E+02  0.98360415311E+02  0.10123515449E+03  0.00000000000E+00 0. -1.
        -13    1    4    4    0    0  0.65092780675E+02  0.54736934806E+01  0.19486072209E+03  0.20551820462E+03  0.00000000000E+00 0. -1.
         13    1    4    4    0    0 -0.11223647552E+02  0.35008763991E+02  0.34792717449E+02  0.50617358761E+02  0.00000000000E+00 0.  1.
         21    1    1    2  502  501  0.58098149372E+02 -0.26178697614E+02  0.22272044149E+03  0.23165732068E+03  0.00000000000E+00 0.  1.
<scales pt_clust_5="13000.00000" pt_clust_6="13000.00000" pt_clust_7="13000.00000" pt_clust_8="13000.00000" pt_clust_9="63.72377"></scales>
<clustering>
<clus scale="   63.724">  1  9  2 -1</clus>
<clus scale="   91.236">  7  8 -1 -1</clus>
<clus scale="   94.019">  5  6 -1 -1</clus>
<clus scale="  126.238">  1  7  2 -1</clus>
<clus scale="   63.724">  1  5  2 -1</clus>
</clustering>
</event>
<event>
 9    1  0.1234700E-005  0.9662364E+02  0.7546771E-02  0.1288400E+00
          2   -1    0    0  502    0  0.00000000000E+00  0.00000000000E+00  0.14343632085E+03  0.14343632085E+03  0.00000000000E+00 0.  1.
         -2   -1    0    0    0  501 -0.00000000000E+00 -0.00000000000E+00 -0.12094243176E+03  0.12094243176E+03  0.00000000000E+00 0. -1.
         23    2    1    2    0    0 -0.43341726315E+02  0.14277109656E+02 -0.36084230341E+02  0.10748809385E+03  0.90384055783E+02 0.  0.
         23    2    1    2    0    0  0.49940004814E+01 -0.69870226273E+01  0.76030639769E+01  0.92686689067E+02  0.91974220423E+02 0.  0.
        -11    1    4    4    0    0 -0.31945061946E+02  0.24541545413E+02  0.16104194907E+02  0.43383401522E+02  0.00000000000E+00 0. -1.
         11    1    4    4    0    0  0.36939062427E+02 -0.31528568040E+02 -0.85011309303E+01  0.49303287545E+02  0.00000000000E+00 0.  1.
        -11    1    3    3    0    0  0.43061441605E+00 -0.34571432167E+02 -0.20043986779E+02  0.39964118367E+02  0.00000000000E+00 0.  1.
         11    1    3    3    0    0 -0.43772340731E+02  0.48848541823E+02 -0.16040243562E+02  0.67523975482E+02  0.00000000000E+00 0. -1.
         21    1    1    2  502  501  0.38347725834E+02 -0.72900870291E+01  0.50975055454E+02  0.64203969691E+02  0.00000000000E+00 0.  1.
<scales pt_clust_5="13000.00000" pt_clust_6="13000.00000" pt_clust_7="13000.00000" pt_clust_8="13000.00000" pt_clust_9="39.03452"></scales>
<clustering>
<clus scale="   39.035">  1  9  2 -1</clus>
<clus scale="   90.384">  7  8 -1 -1</clus>
<clus scale="   91.974">  5  6 -1 -1</clus>
<clus scale="   95.111">  2  7  1 -1</clus>
<clus scale="   39.035">  1  5  2 -1</clus>
</clustering>
</event>
<event>
 9    1  0.1234700E-005  0.1115313E+03  0.7546771E-02  0.1258322E+00
          2   -1    0    0  502    0  0.00000000000E+00  0.00000000000E+00  0.22357381778E+03  0.22357381778E+03  0.00000000000E+00 0. -1.
         -2   -1    0    0    0  501 -0.00000000000E+00 -0.00000000000E+00 -0.10488668969E+03  0.10488668969E+03  0.00000000000E+00 0.  1.
         23    2    1    2    0    0  0.15795476209E+02 -0.76243028878E+02 -0.45197809494E+01  0.12018497622E+03  0.91441257476E+02 0.  0.
         23    2    1    2    0    0  0.35652162698E+02  0.42829972268E+02  0.68196466454E+02  0.12587746880E+03  0.89938289319E+02 0.  0.
        -11    1    4    4    0    0  0.56902397137E+02  0.51858358731E+02  0.68105351965E+02  0.10278867222E+03  0.00000000000E+00 0.  1.
         11    1    4    4    0    0 -0.21250234438E+02 -0.90283864633E+01  0.91114489016E-01  0.23088796583E+02  0.00000000000E+00 0. -1.
        -13    1    3    3    0    0 -0.78859808125E+01 -0.31556658902E+02 -0.44917061764E+02  0.55457676221E+02  0.00000000000E+00 0.  1.
         13    1    3    3    0    0  0.23681457021E+02 -0.44686369976E+02  0.40397280814E+02  0.64727300001E+02  0.00000000000E+00 0. -1.
         21    1    1    2  502  501 -0.51447638907E+02  0.33413056610E+02  0.55010442591E+02  0.82398062448E+02  0.00000000000E+00 0.  1.
<scales pt_clust_5="13000.00000" pt_clust_6="13000.00000" pt_clust_7="13000.00000" pt_clust_8="13000.00000" pt_clust_9="61.34568"></scales>
<clustering>
<clus scale="   61.346">  1  9  2 -1</clus>
<clus scale="   89.938">  5  6 -1 -1</clus>
<clus scale="   91.441">  7  8 -1 -1</clus>
<clus scale="  110.302">  1  5  2 -1</clus>
<clus scale="   61.346">  1  5  2 -1</clus>
</clustering>
</event>
<event>
 9    1  0.1234700E-005  0.1023500E+03  0.7546771E-02  0.1275635E+00
         -3   -1    0    0    0  501 -0.00000000000E+00  0.00000000000E+00  0.55086642948E+03  0.55086642948E+03  0.00000000000E+00 0.  1.
          3   -1    0    0  502    0  0.00000000000E+00 -0.00000000000E+00 -0.26332632270E+02  0.26332632270E+02  0.00000000000E+00 0. -1.
         23    2    1    2    0    0 -0.36433955066E+02  0.36668254926E+02  0.34800216989E+03  0.36359073099E+03  0.91764456138E+02 0.  0.
         23    2    1    2    0    0  0.25921282329E+02 -0.16327607268E+02  0.13773302054E+03  0.16855735826E+03  0.92210056069E+02 0.  0.
        -11    1    3    3    0    0  0.25360397270E+02  0.34729045091E+02  0.16035876246E+03  0.16602466389E+03  0.00000000000E+00 0.  1.
         11    1    3    3    0    0 -0.61794352337E+02  0.19392098349E+01  0.18764340744E+03  0.19756606710E+03  0.00000000000E+00 0. -1.
        -11    1    4    4    0    0 -0.20227826839E+02 -0.36559459069E+02  0.89647521656E+02  0.98906203876E+02  0.00000000000E+00 0. -1.
         11    1    4    4    0    0  0.46149109168E+02  0.20231851802E+02  0.48085498883E+02  0.69651154385E+02  0.00000000000E+00 0.  1.
         21    1    1    2  502  501  0.10512672738E+02 -0.20340647659E+02  0.38798606782E+02  0.45050972503E+02  0.00000000000E+00 0.  1.
<scales pt_clust_5="13000.00000" pt_clust_6="13000.00000" pt_clust_7="13000.00000" pt_clust_8="13000.00000" pt_clust_9="22.89669"></scales>
<clustering>
<clus scale="   22.897">  2  9  1 -1</clus>
<clus scale="   91.764">  5  6 -1 -1</clus>
<clus scale="   92.210">  7  8 -1 -1</clus>
<clus scale="  101.949">  1  5  2 -1</clus>
<clus scale="   22.897">  2  5  1 -1</clus>
</clustering>
</event>
<event>
 9    1  0.1234700E-005  0.1056756E+03  0.7546771E-02  0.1275505E+00
          3   -1    0    0  502    0  0.00000000000E+00  0.00000000000E+00  0.25406288300E+03  0.25406288300E+03  0.00000000000E+00 0. -1.
         -3   -1    0    0    0  501 -0.00000000000E+00 -0.00000000000E+00 -0.12784549551E+03  0.12784549551E+03  0.00000000000E+00 0.  1.
         23    2    1    2    0    0 -0.18456185172E+02 -0.22138147484E+02 -0.33887083134E+02  0.11380527997E+03  0.10475007876E+03 0.  0.
         23    2    1    2    0    0  0.58315300477E+00 -0.17386580054E+01 -0.12745191745E+02  0.92699127949E+02  0.91800465200E+02 0.  0.
        -11    1    3    3    0    0  0.17015028883E+02  0.36225884571E+02 -0.16777660080E+02  0.43397186529E+02  0.00000000000E+00 0.  1.
         11    1    3    3    0    0 -0.35471214055E+02 -0.58364032055E+02 -0.17109423053E+02  0.70408093437E+02  0.00000000000E+00 0. -1.
        -11    1    4    4    0    0 -0.97662671774E+01 -0.40804735801E+02 -0.26944018467E+02  0.49863679863E+02  0.00000000000E+00 0. -1.
         11    1    4    4    0    0  0.10349420182E+02  0.39066077796E+02  0.14198826722E+02  0.42835448086E+02  0.00000000000E+00 0.  1.
         21    1    1    2  502  501  0.17873032167E+02  0.23876805489E+02  0.17284966237E+03  0.17540397059E+03  0.00000000000E+00 0. -1.
<scales pt_clust_5="13000.00000" pt_clust_6="13000.00000" pt_clust_7="13000.00000" pt_clust_8="13000.00000" pt_clust_9="29.82528"></scales>
<clustering>
<clus scale="   29.825">  1  9  2 -1</clus>
<clus scale="   91.800">  7  8 -1 -1</clus>
<clus scale="   92.855">  1  7  2 -1</clus>
<clus scale="  104.750">  5  6 -1 -1</clus>
<clus scale="   29.825">  1  5  2 -1</clus>
</clustering>
</event>
<event>
 9    1  0.1234700E-005  0.9911947E+02  0.7546771E-02  0.1282299E+00
          2   -1    0    0  502    0  0.00000000000E+00  0.00000000000E+00  0.70060179784E+03  0.70060179784E+03  0.00000000000E+00 0. -1.
         -2   -1    0    0    0  501 -0.00000000000E+00 -0.00000000000E+00 -0.19076380399E+02  0.19076380399E+02  0.00000000000E+00 0.  1.
         23    2    1    2    0    0 -0.39373167533E+02  0.27150581745E+02  0.23344193440E+03  0.25543863656E+03  0.92012824637E+02 0.  0.
         23    2    1    2    0    0  0.17518898054E+02 -0.13557090302E+02  0.32135209112E+03  0.33492118335E+03  0.91729635907E+02 0.  0.
        -11    1    4    4    0    0 -0.20736361783E+02  0.22809763504E+02  0.52037510211E+02  0.60482927178E+02  0.00000000000E+00 0.  1.
         11    1    4    4    0    0  0.38255259837E+02 -0.36366853806E+02  0.26931458091E+03  0.27443825617E+03  0.00000000000E+00 0. -1.
        -13    1    3    3    0    0  0.50083026226E+01  0.47411468909E+02  0.16243139264E+03  0.16928345399E+03  0.00000000000E+00 0.  1.
         13    1    3    3    0    0 -0.44381470155E+02 -0.20260887164E+02  0.71010541758E+02  0.86155182564E+02  0.00000000000E+00 0. -1.
         21    1    1    2  502  501  0.21854269479E+02 -0.13593491443E+02  0.12673139191E+03  0.12931835833E+03  0.00000000000E+00 0. -1.
<scales pt_clust_5="13000.00000" pt_clust_6="13000.00000" pt_clust_7="13000.00000" pt_clust_8="13000.00000" pt_clust_9="25.73698"></scales>
<clustering>
<clus scale="   25.737">  1  9  2 -1</clus>
<clus scale="   91.730">  5  6 -1 -1</clus>
<clus scale="   92.013">  7  8 -1 -1</clus>
<clus scale="   98.857">  1  5  2 -1</clus>
<clus scale="   25.737">  1  5  2 -1</clus>
</clustering>
</event>
<event>
 9    1  0.1234700E-005  0.9410180E+02  0.7546771E-02  0.1296216E+00
         -1   -1    0    0    0  501 -0.00000000000E+00  0.00000000000E+00  0.12682324710E+03  0.12682324710E+03  0.00000000000E+00 0.  1.
          1   -1    0    0  502    0  0.00000000000E+00 -0.00000000000E+00 -0.84066073008E+02  0.84066073008E+02  0.00000000000E+00 0. -1.
         23    2    1    2    0    0  0.40111762592E+02  0.29504668798E+02  0.26282492472E+02  0.10082361804E+03  0.83637034647E+02 0.  0.
         23    2    1    2    0    0 -0.19120429275E+02 -0.33566480618E+02  0.17560703120E+02  0.88657436557E+02  0.77842554724E+02 0.  0.
        -11    1    4    4    0    0 -0.30974310666E+02  0.40907774834E+01 -0.17540718557E+02  0.35830422676E+02  0.00000000000E+00 0. -1.
         11    1    4    4    0    0  0.11853881391E+02 -0.37657258102E+02  0.35101421678E+02  0.52827013881E+02  0.00000000000E+00 0.  1.
        -13    1    3    3    0    0 -0.23482634888E+02  0.12796741099E+01  0.20164340857E+02  0.30978578878E+02  0.00000000000E+00 0. -1.
         13    1    3    3    0    0  0.63594397480E+02  0.28224994688E+02  0.61181516150E+01  0.69845039159E+02  0.00000000000E+00 0.  1.
         21    1    1    2  502  501 -0.20991333317E+02  0.40618118208E+01 -0.10860214993E+01  0.21408265515E+02  0.00000000000E+00 0. -1.
<scales pt_clust_5="13000.00000" pt_clust_6="13000.00000" pt_clust_7="13000.00000" pt_clust_8="13000.00000" pt_clust_9="21.38070"></scales>
<clustering>
<clus scale="   21.381">  2  9  1 -1</clus>
<clus scale="   77.843">  5  6 -1 -1</clus>
<clus scale="   83.637">  7  8 -1 -1</clus>
<clus scale="   88.991">  2  5  1 -1</clus>
<clus scale="   21.381">  2  5  1 -1</clus>
</clustering>
</event>
<event>
 9    1  0.1234700E-005  0.1074267E+03  0.7546771E-02  0.1269948E+00
          1   -1    0    0  502    0  0.00000000000E+00  0.00000000000E+00  0.17886052351E+03  0.17886052351E+03  0.00000000000E+00 0. -1.
         -1   -1    0    0    0  501 -0.00000000000E+00 -0.00000000000E+00 -0.11487546371E+03  0.11487546371E+03  0.00000000000E+00 0.  1.
         23    2    1    2    0    0  0.29137813470E+02  0.17242492244E+02 -0.52565823318E+02  0.11956277626E+03  0.10191062738E+03 0.  0.
         23    2    1    2    0    0 -0.40527436023E+02  0.57415293059E+01  0.76818571773E+02  0.12688002631E+03  0.92314732724E+02 0.  0.
        -11    1    3    3    0    0  0.66162838975E+02  0.22728588112E+02 -0.34399275302E+02  0.77957809872E+02  0.00000000000E+00 0. -1.
         11    1    3    3    0    0 -0.37025025505E+02 -0.54860958682E+01 -0.18166548016E+02  0.41604966391E+02  0.00000000000E+00 0.  1.
        -13    1    4    4    0    0 -0.27690250878E+02  0.28784312705E+02  0.89205519216E+02  0.97738995852E+02  0.00000000000E+00 0. -1.
         13    1    4    4    0    0 -0.12837185146E+02 -0.23042783399E+02 -0.12386947443E+02  0.29141030459E+02  0.00000000000E+00 0.  1.
         21    1    1    2  502  501  0.11389622554E+02 -0.22984021550E+02  0.39732311349E+02  0.47293184643E+02  0.00000000000E+00 0.  1.
<scales pt_clust_5="13000.00000" pt_clust_6="13000.00000" pt_clust_7="13000.00000" pt_clust_8="13000.00000" pt_clust_9="25.65129"></scales>
<clustering>
<clus scale="   25.651">  1  9  2 -1</clus>
<clus scale="   92.315">  7  8 -1 -1</clus>
<clus scale="   98.370">  1  7  2 -1</clus>
<clus scale="  101.911">  5  6 -1 -1</clus>
<clus scale="   25.651">  1  5  2 -1</clus>
</clustering>
</event>
<event>
 9    1  0.1234700E-005  0.1890008E+03  0.7546771E-02  0.1159834E+00
         -2   -1    0    0    0  501 -0.00000000000E+00  0.00000000000E+00  0.51624706810E+03  0.51624706810E+03  0.00000000000E+00 0.  1.
          2   -1    0    0  502    0  0.00000000000E+00 -0.00000000000E+00 -0.16477201997E+03  0.16477201997E+03  0.00000000000E+00 0. -1.
         23    2    1    2    0    0  0.16984034444E+03  0.27818061576E+02  0.40476584465E+03  0.44911070333E+03  0.90804447581E+02 0.  0.
         23    2    1    2    0    0 -0.13242181093E+03  0.47789631026E+01 -0.56528206121E+01  0.16311820072E+03  0.94959036048E+02 0.  0.
        -11    1    3    3    0    0  0.42724527471E+02  0.27585453417E+02  0.21337797855E+03  0.21935474515E+03  0.00000000000E+00 0. -1.
         11    1    3    3    0    0  0.12711581697E+03  0.23260815910E+00  0.19138786609E+03  0.22975595818E+03  0.00000000000E+00 0.  1.
        -11    1    4    4    0    0 -0.11061975882E+03 -0.22766634456E+02 -0.34035701104E+02  0.11795541376E+03  0.00000000000E+00 0. -1.
         11    1    4    4    0    0 -0.21802052112E+02  0.27545597558E+02  0.28382880492E+02  0.45162786962E+02  0.00000000000E+00 0.  1.
         21    1    1    2  502  501 -0.37418533509E+02 -0.32597024678E+02 -0.47637975906E+02  0.68790184011E+02  0.00000000000E+00 0. -1.
<scales pt_clust_5="13000.00000" pt_clust_6="13000.00000" pt_clust_7="13000.00000" pt_clust_8="13000.00000" pt_clust_9="49.62573"></scales>
<clustering>
<clus scale="   49.626">  2  9  1 -1</clus>
<clus scale="   90.804">  5  6 -1 -1</clus>
<clus scale="   94.959">  7  8 -1 -1</clus>
<clus scale="  186.948">  1  5  2 -1</clus>
<clus scale="   49.626">  2  5  1 -1</clus>
</clustering>
</event>
<event>
 9    1  0.1234700E-005  0.9467965E+02  0.7546771E-02  0.1295578E+00
          2   -1    0    0  502    0  0.00000000000E+00  0.00000000000E+00  0.11711210397E+03  0.11711210397E+03  0.00000000000E+00 0. -1.
         -2   -1    0    0    0  501 -0.00000000000E+00 -0.00000000000E+00 -0.14965552370E+03  0.14965552370E+03  0.00000000000E+00 0.  1.
         23    2    1    2    0    0 -0.18178181130E+01  0.83581274024E+01 -0.75145662363E+02  0.11516299140E+03  0.86847459721E+02 0.  0.
         23    2    1    2    0    0  0.81817798393E+00 -0.47559184125E+02  0.40870345188E+02  0.11235260960E+03  0.93221126137E+02 0.  0.
        -13    1    4    4    0    0  0.45991481977E+02 -0.14972136844E+02  0.24941393350E+02  0.54419246580E+02  0.00000000000E+00 0. -1.
         13    1    4    4    0    0 -0.45173303993E+02 -0.32587047281E+02  0.15928951838E+02  0.57933363019E+02  0.00000000000E+00 0.  1.
        -13    1    3    3    0    0  0.17931288523E+02  0.36041376310E+02 -0.96967704072E+01  0.41406995432E+02  0.00000000000E+00 0. -1.
         13    1    3    3    0    0 -0.19749106636E+02 -0.27683248907E+02 -0.65448891956E+02  0.73755995968E+02  0.00000000000E+00 0.  1.
         21    1    1    2  502  501  0.99964012910E+00  0.39201056722E+02  0.17318974483E+01  0.39252026665E+02  0.00000000000E+00 0. -1.
<scales pt_clust_5="13000.00000" pt_clust_6="13000.00000" pt_clust_7="13000.00000" pt_clust_8="13000.00000" pt_clust_9="39.21380"></scales>
<clustering>
<clus scale="   39.214">  1  9  2 -1</clus>
<clus scale="   86.847">  7  8 -1 -1</clus>
<clus scale="   88.411">  2  7  1 -1</clus>
<clus scale="   93.221">  5  6 -1 -1</clus>
<clus scale="   39.214">  1  5  2 -1</clus>
</clustering>
</event>
<event>
 9    1  0.1234700E-005  0.9703947E+02  0.7546771E-02  0.1287337E+00
          2   -1    0    0  502    0  0.00000000000E+00  0.00000000000E+00  0.13700284933E+03  0.13700284933E+03  0.00000000000E+00 0. -1.
         -2   -1    0    0    0  501 -0.00000000000E+00 -0.00000000000E+00 -0.90833296536E+02  0.90833296536E+02  0.00000000000E+00 0.  1.
         23    2    1    2    0    0 -0.24839300499E+02  0.23162008593E+02 -0.32274184990E+01  0.96761682691E+02  0.90547984603E+02 0.  0.
         23    2    1    2    0    0  0.89370345030E+01 -0.39162181109E+02  0.33234620984E+02  0.10332362261E+03  0.89205851506E+02 0.  0.
        -13    1    4    4    0    0  0.32604268513E+01  0.28589778060E+02  0.30541731952E+01  0.28936720040E+02  0.00000000000E+00 0.  1.
         13    1    4    4    0    0  0.56766076517E+01 -0.67751959169E+02  0.30180447789E+02  0.74386902573E+02  0.00000000000E+00 0. -1.
        -13    1    3    3    0    0 -0.54244326930E+01  0.34809576629E+02 -0.40172024141E+02  0.53431475917E+02  0.00000000000E+00 0.  1.
         13    1    3    3    0    0 -0.19414867806E+02 -0.11647568036E+02  0.36944605642E+02  0.43330206774E+02  0.00000000000E+00 0. -1.
         21    1    1    2  502  501  0.15902265996E+02  0.16000172516E+02  0.16162350306E+02  0.27750840560E+02  0.00000000000E+00 0.  1.
<scales pt_clust_5="13000.00000" pt_clust_6="13000.00000" pt_clust_7="13000.00000" pt_clust_8="13000.00000" pt_clust_9="22.55854"></scales>
<clustering>
<clus scale="   22.559">  1  9  2 -1</clus>
<clus scale="   89.206">  5  6 -1 -1</clus>
<clus scale="   90.548">  7  8 -1 -1</clus>
<clus scale="   95.788">  1  5  2 -1</clus>
<clus scale="   22.559">  1  5  2 -1</clus>
</clustering>
</event>
<event>
 9    1  0.1234700E-005  0.1656923E+03  0.7546771E-02  0.1182645E+00
         -2   -1    0    0    0  501 -0.00000000000E+00  0.00000000000E+00  0.22674140722E+03  0.22674140722E+03  0.00000000000E+00 0.  1.
          2   -1    0    0  502    0  0.00000000000E+00 -0.00000000000E+00 -0.42647783321E+03  0.42647783321E+03  0.00000000000E+00 0. -1.
         23    2    1    2    0    0  0.90241580170E+02 -0.12343183845E+03  0.15781130846E+03  0.23763242438E+03  0.90475402764E+02 0.  0.
         23    2    1    2    0    0 -0.49361663332E+02  0.30298816983E+02 -0.20848708787E+03  0.23513182541E+03  0.92008246328E+02 0.  0.
        -13    1    4    4    0    0 -0.66825775986E+01 -0.32284507413E+02 -0.63612550991E+02  0.71648467575E+02  0.00000000000E+00 0.  1.
         13    1    4    4    0    0 -0.42679085733E+02  0.62583324396E+02 -0.14487453688E+03  0.16348335783E+03  0.00000000000E+00 0. -1.
        -13    1    3    3    0    0  0.99901735186E+02 -0.75423532861E+02  0.13333388373E+03  0.18288518407E+03  0.00000000000E+00 0.  1.
         13    1    3    3    0    0 -0.96601550158E+01 -0.48008305587E+02  0.24477424734E+02  0.54747240313E+02  0.00000000000E+00 0. -1.
         21    1    1    2  502  501 -0.40879916838E+02  0.93133021466E+02 -0.14906064657E+03  0.18045499064E+03  0.00000000000E+00 0. -1.
<scales pt_clust_5="13000.00000" pt_clust_6="13000.00000" pt_clust_7="13000.00000" pt_clust_8="13000.00000" pt_clust_9="101.71002"></scales>
<clustering>
<clus scale="   90.475">  7  8 -1 -1</clus>
<clus scale="   92.008">  5  6 -1 -1</clus>
<clus scale="  101.710">  2  9  1 -1</clus>
<clus scale="  164.846">  1  7  2 -1</clus>
<clus scale="  101.710">  2  5  1 -1</clus>
</clustering>
</event>
<event>
 9    1  0.1234700E-005  0.9730468E+02  0.7546771E-02  0.1287271E+00
          1   -1    0    0  502    0  0.00000000000E+00  0.00000000000E+00  0.22423436774E+03  0.22423436774E+03  0.00000000000E+00 0. -1.
         -1   -1    0    0    0  501 -0.00000000000E+00 -0.00000000000E+00 -0.13785256969E+03  0.13785256969E+03  0.00000000000E+00 0.  1.
         23    2    1    2    0    0  0.68202263948E+02 -0.47272813064E+02 -0.25623970502E+02  0.12568817421E+03  0.90855168312E+02 0.  0.
         23    2    1    2    0    0  0.89478244019E+01  0.23376045096E+02  0.12144998801E+03  0.15508219091E+03  0.93133685118E+02 0.  0.
        -13    1    3    3    0    0  0.80363459490E+02 -0.21011748465E+02 -0.41310140628E+02  0.92770183321E+02  0.00000000000E+00 0. -1.
         13    1    3    3    0    0 -0.12161195542E+02 -0.26261064599E+02  0.15686170125E+02  0.32917990888E+02  0.00000000000E+00 0.  1.
        -13    1    4    4    0    0 -0.40909020618E+02  0.11381237938E+02  0.73459981714E+02  0.84849569582E+02  0.00000000000E+00 0.  1.
         13    1    4    4    0    0  0.49856845020E+02  0.11994807158E+02  0.47990006292E+02  0.70232621324E+02  0.00000000000E+00 0. -1.
         21    1    1    2  502  501 -0.77150088350E+02  0.23896767968E+02 -0.94442194504E+01  0.81316572313E+02  0.00000000000E+00 0.  1.
<scales pt_clust_5="13000.00000" pt_clust_6="13000.00000" pt_clust_7="13000.00000" pt_clust_8="13000.00000" pt_clust_9="80.76628"></scales>
<clustering>
<clus scale="   80.766">  2  9  1 -1</clus>
<clus scale="   90.855">  5  6 -1 -1</clus>
<clus scale="   93.134">  7  8 -1 -1</clus>
<clus scale="   95.126">  2  5  1 -1</clus>
<clus scale="   97.305">  1  5  2 -1</clus>
</clustering>
</event>
<event>
 9    1  0.1234700E-005  0.1023010E+03  0.7546771E-02  0.1282854E+00
          2   -1    0    0  502    0  0.00000000000E+00  0.00000000000E+00  0.12501461450E+03  0.12501461450E+03  0.00000000000E+00 0. -1.
         -2   -1    0    0    0  501 -0.00000000000E+00 -0.00000000000E+00 -0.11145243336E+03  0.11145243336E+03  0.00000000000E+00 0.  1.
         23    2    1    2    0    0 -0.23429715417E+01  0.52050524015E+02 -0.12919722908E+02  0.94797982125E+02  0.78134445727E+02 0.  0.
         23    2    1    2    0    0 -0.21811288400E+02 -0.28941493426E+02  0.13456780718E+01  0.99844606100E+02  0.93025760811E+02 0.  0.
        -13    1    4    4    0    0 -0.48036214618E+02 -0.47116607524E+02 -0.43750481267E+01  0.67428433657E+02  0.00000000000E+00 0. -1.
         13    1    4    4    0    0  0.26224926218E+02  0.18175114097E+02  0.57207261986E+01  0.32416172443E+02  0.00000000000E+00 0.  1.
        -13    1    3    3    0    0  0.35252323156E+01  0.19717979725E+02 -0.44762598453E+02  0.49039945020E+02  0.00000000000E+00 0.  1.
         13    1    3    3    0    0 -0.58682038573E+01  0.32332544289E+02  0.31842875545E+02  0.45758037105E+02  0.00000000000E+00 0. -1.
         21    1    1    2  502  501  0.24154259942E+02 -0.23109030588E+02  0.25136225973E+02  0.41824459641E+02  0.00000000000E+00 0. -1.
<scales pt_clust_5="13000.00000" pt_clust_6="13000.00000" pt_clust_7="13000.00000" pt_clust_8="13000.00000" pt_clust_9="33.42836"></scales>
<clustering>
<clus scale="   33.428">  1  9  2 -1</clus>
<clus scale="   78.134">  7  8 -1 -1</clus>
<clus scale="   88.976">  2  7  1 -1</clus>
<clus scale="   93.026">  5  6 -1 -1</clus>
<clus scale="   33.428">  1  5  2 -1</clus>
</clustering>
</event>
<event>
 9    1  0.1234700E-005  0.1096396E+03  0.7546771E-02  0.1264638E+00
         -1   -1    0    0    0  501 -0.00000000000E+00  0.00000000000E+00  0.83043924035E+02  0.83043924035E+02  0.00000000000E+00 0.  1.
          1   -1    0    0  502    0  0.00000000000E+00 -0.00000000000E+00 -0.22302400061E+03  0.22302400061E+03  0.00000000000E+00 0. -1.
         23    2    1    2    0    0 -0.10621918994E+02  0.52974450407E+02 -0.33165267100E+02  0.10365923823E+03  0.82013323119E+02 0.  0.
         23    2    1    2    0    0 -0.14554017415E+02 -0.71124690815E+02 -0.30612551337E+02  0.12012841450E+03  0.90681677341E+02 0.  0.
        -11    1    4    4    0    0 -0.50511558992E+02 -0.60051328337E+02 -0.22611603387E+02  0.81663114284E+02  0.00000000000E+00 0.  1.
         11    1    4    4    0    0  0.35957541577E+02 -0.11073362478E+02 -0.80009479498E+01  0.38465300219E+02  0.00000000000E+00 0. -1.
        -11    1    3    3    0    0  0.22693543180E+02  0.37404503999E+02 -0.47144926577E+02  0.64317477589E+02  0.00000000000E+00 0. -1.
         11    1    3    3    0    0 -0.33315462174E+02  0.15569946408E+02  0.13979659477E+02  0.39341760638E+02  0.00000000000E+00 0.  1.
         21    1    1    2  502  501  0.25175936408E+02  0.18150240408E+02 -0.76202258138E+02  0.82280271914E+02  0.00000000000E+00 0. -1.
<scales pt_clust_5="13000.00000" pt_clust_6="13000.00000" pt_clust_7="13000.00000" pt_clust_8="13000.00000" pt_clust_9="31.03641"></scales>
<clustering>
<clus scale="   31.036">  2  9  1 -1</clus>
<clus scale="   82.013">  7  8 -1 -1</clus>
<clus scale="   90.682">  5  6 -1 -1</clus>
<clus scale="  102.586">  1  7  2 -1</clus>
<clus scale="   31.036">  2  5  1 -1</clus>
</clustering>
</event>
<event>
 9    1  0.1234700E-005  0.1236153E+03  0.7546771E-02  0.1244724E+00
          1   -1    0    0  502    0  0.00000000000E+00  0.00000000000E+00  0.41870940706E+03  0.41870940706E+03  0.00000000000E+00 0. -1.
         -1   -1    0    0    0  501 -0.00000000000E+00 -0.00000000000E+00 -0.45980109679E+02  0.45980109679E+02  0.00000000000E+00 0.  1.
         23    2    1    2    0    0 -0.37001763907E+02  0.26238117985E+02  0.10724183819E+03  0.16067600291E+03  0.11071764397E+03 0.  0.
         23    2    1    2    0    0  0.53341120666E+02 -0.41818679154E+02  0.15979351755E+03  0.19593512669E+03  0.90898451802E+02 0.  0.
        -11    1    4    4    0    0  0.19967622331E+02 -0.62775668681E+02  0.61845944185E+02  0.90357132159E+02  0.00000000000E+00 0.  1.
         11    1    4    4    0    0  0.33373498335E+02  0.20956989527E+02  0.97947573364E+02  0.10557799453E+03  0.00000000000E+00 0. -1.
        -13    1    3    3    0    0 -0.13377269245E+01 -0.39903691084E+02  0.17404580866E+02  0.43554718580E+02  0.00000000000E+00 0.  1.
         13    1    3    3    0    0 -0.35664036982E+02  0.66141809069E+02  0.89837257320E+02  0.11712128433E+03  0.00000000000E+00 0. -1.
         21    1    1    2  502  501 -0.16339356760E+02  0.15580561169E+02  0.10569394165E+03  0.10807838714E+03  0.00000000000E+00 0. -1.
<scales pt_clust_5="13000.00000" pt_clust_6="13000.00000" pt_clust_7="13000.00000" pt_clust_8="13000.00000" pt_clust_9="22.57717"></scales>
<clustering>
<clus scale="   22.577">  1  9  2 -1</clus>
<clus scale="   90.898">  5  6 -1 -1</clus>
<clus scale="  106.230">  1  5  2 -1</clus>
<clus scale="  110.718">  7  8 -1 -1</clus>
<clus scale="   22.577">  1  5  2 -1</clus>
</clustering>
</event>
<event>
 9    1  0.1234700E-005  0.1293949E+03  0.7546771E-02  0.1229075E+00
         -2   -1    0    0    0  501 -0.00000000000E+00  0.00000000000E+00  0.15727176802E+03  0.15727176802E+03  0.00000000000E+00 0.  1.
          2   -1    0    0  502    0  0.00000000000E+00 -0.00000000000E+00 -0.26039571911E+03  0.26039571911E+03  0.00000000000E+00 0. -1.
         23    2    1    2    0    0 -0.62858999859E+02 -0.64487837330E+02  0.10043916991E+03  0.16421051747E+03  0.93632965180E+02 0.  0.
         23    2    1    2    0    0  0.74843349099E+02  0.44553910876E+02 -0.18446813663E+03  0.22336370665E+03  0.90974030025E+02 0.  0.
        -11    1    4    4    0    0  0.29339410809E+01 -0.25400135524E+02 -0.40211160569E+02  0.47651991870E+02  0.00000000000E+00 0.  1.
         11    1    4    4    0    0  0.71909408018E+02  0.69954046400E+02 -0.14425697606E+03  0.17571171478E+03  0.00000000000E+00 0. -1.
        -13    1    3    3    0    0 -0.37282971651E+02 -0.87746667149E+02  0.73251130879E+02  0.12022988707E+03  0.00000000000E+00 0.  1.
         13    1    3    3    0    0 -0.25576028208E+02  0.23258829820E+02  0.27188039027E+02  0.43980630392E+02  0.00000000000E+00 0. -1.
         21    1    1    2  502  501 -0.11984349240E+02  0.19933926454E+02 -0.19094984367E+02  0.30093263009E+02  0.00000000000E+00 0. -1.
<scales pt_clust_5="13000.00000" pt_clust_6="13000.00000" pt_clust_7="13000.00000" pt_clust_8="13000.00000" pt_clust_9="23.25911"></scales>
<clustering>
<clus scale="   23.259">  2  9  1 -1</clus>
<clus scale="   90.974">  5  6 -1 -1</clus>
<clus scale="   93.633">  7  8 -1 -1</clus>
<clus scale="  127.484">  2  5  1 -1</clus>
<clus scale="   23.259">  2  5  1 -1</clus>
</clustering>
</event>
<event>
 9    1  0.1234700E-005  0.9782203E+02  0.7546771E-02  0.1285836E+00
         -1   -1    0    0    0  501 -0.00000000000E+00  0.00000000000E+00  0.13023200943E+03  0.13023200943E+03  0.00000000000E+00 0.  1.
          1   -1    0    0  502    0  0.00000000000E+00 -0.00000000000E+00 -0.20204369989E+03  0.20204369989E+03  0.00000000000E+00 0. -1.
         23    2    1    2    0    0 -0.51548607580E+01 -0.48829694658E+02  0.72245477964E+02  0.12459979182E+03  0.88852615971E+02 0.  0.
         23    2    1    2    0    0  0.61773820753E+01 -0.31090906875E+01 -0.12470222883E+03  0.15223859560E+03  0.87052384345E+02 0.  0.
        -11    1    3    3    0    0  0.70683211483E+01  0.18810310564E+02  0.47448498353E+02  0.51528137394E+02  0.00000000000E+00 0. -1.
         11    1    3    3    0    0 -0.12223181906E+02 -0.67640005222E+02  0.24796979611E+02  0.73071654423E+02  0.00000000000E+00 0.  1.
        -11    1    4    4    0    0 -0.76355934106E+01 -0.26299779606E+02 -0.12208550514E+03  0.12511934806E+03  0.00000000000E+00 0. -1.
         11    1    4    4    0    0  0.13812975486E+02  0.23190688918E+02 -0.26167236946E+01  0.27119247541E+02  0.00000000000E+00 0.  1.
         21    1    1    2  502  501 -0.10225213174E+01  0.51938785345E+02 -0.19354939595E+02  0.55437321903E+02  0.00000000000E+00 0.  1.
<scales pt_clust_5="13000.00000" pt_clust_6="13000.00000" pt_clust_7="13000.00000" pt_clust_8="13000.00000" pt_clust_9="51.94885"></scales>
<clustering>
<clus scale="   51.949">  2  9  1 -1</clus>
<clus scale="   87.052">  7  8 -1 -1</clus>
<clus scale="   88.853">  5  6 -1 -1</clus>
<clus scale="   96.190">  2  7  1 -1</clus>
<clus scale="   51.949">  2  5  1 -1</clus>
</clustering>
</event>
<event>
 9    1  0.1234700E-005  0.1373666E+03  0.7546771E-02  0.1217559E+00
          3   -1    0    0  502    0  0.00000000000E+00  0.00000000000E+00  0.36545555755E+03  0.36545555755E+03  0.00000000000E+00 0. -1.
         -3   -1    0    0    0  501 -0.00000000000E+00 -0.00000000000E+00 -0.82752172390E+02  0.82752172390E+02  0.00000000000E+00 0.  1.
         23    2    1    2    0    0 -0.50431038195E+02  0.43164468854E+02  0.32411012358E+02  0.11761698153E+03  0.91524967291E+02 0.  0.
         23    2    1    2    0    0  0.98169124534E+02 -0.73193783472E+02  0.21887423287E+03  0.26603237064E+03  0.88728718363E+02 0.  0.
        -11    1    4    4    0    0  0.48653261609E+02  0.54394347502E+01  0.35551384667E+02  0.60503126095E+02  0.00000000000E+00 0.  1.
         11    1    4    4    0    0  0.49515862925E+02 -0.78633218222E+02  0.18332284820E+03  0.20552924454E+03  0.00000000000E+00 0. -1.
        -11    1    3    3    0    0 -0.68083101556E+02  0.57702075683E+02  0.19483163176E+02  0.91347862061E+02  0.00000000000E+00 0. -1.
         11    1    3    3    0    0  0.17652063362E+02 -0.14537606830E+02  0.12927849183E+02  0.26269119470E+02  0.00000000000E+00 0.  1.
         21    1    1    2  502  501 -0.47738086340E+02  0.30029314618E+02  0.31418139938E+02  0.64558377775E+02  0.00000000000E+00 0. -1.
<scales pt_clust_5="13000.00000" pt_clust_6="13000.00000" pt_clust_7="13000.00000" pt_clust_8="13000.00000" pt_clust_9="56.39756"></scales>
<clustering>
<clus scale="   56.398">  2  9  1 -1</clus>
<clus scale="   88.729">  5  6 -1 -1</clus>
<clus scale="   91.525">  7  8 -1 -1</clus>
<clus scale="  135.520">  1  5  2 -1</clus>
<clus scale="  135.520">  1  5  2 -1</clus>
</clustering>
</event>
<event>
 9    1  0.1234700E-005  0.1240582E+03  0.7546771E-02  0.1236784E+00
          1   -1    0    0  502    0  0.00000000000E+00  0.00000000000E+00  0.37118524864E+02  0.37118524864E+02  0.00000000000E+00 0. -1.
         -1   -1    0    0    0  501 -0.00000000000E+00 -0.00000000000E+00 -0.59936201233E+03  0.59936201233E+03  0.00000000000E+00 0.  1.
         23    2    1    2    0    0 -0.49605758691E+02  0.80114684260E+02 -0.30831140809E+03  0.33521616334E+03  0.91841482312E+02 0.  0.
         23    2    1    2    0    0  0.73914447806E+01 -0.74884986179E+02 -0.20346453695E+03  0.23526156423E+03  0.91037306607E+02 0.  0.
        -11    1    3    3    0    0  0.26244490283E+02  0.24069114345E+02 -0.62486822170E+02  0.71921474404E+02  0.00000000000E+00 0. -1.
         11    1    3    3    0    0 -0.75850248973E+02  0.56045569915E+02 -0.24582458592E+03  0.26329468893E+03  0.00000000000E+00 0.  1.
        -13    1    4    4    0    0 -0.85569436472E+01  0.19413111934E+02 -0.51611210150E+02  0.55801498301E+02  0.00000000000E+00 0.  1.
         13    1    4    4    0    0  0.15948388428E+02 -0.94298098113E+02 -0.15185332680E+03  0.17946006592E+03  0.00000000000E+00 0. -1.
         21    1    1    2  502  501  0.42214313910E+02 -0.52296980807E+01 -0.50467542421E+02  0.66002809629E+02  0.00000000000E+00 0. -1.
<scales pt_clust_5="13000.00000" pt_clust_6="13000.00000" pt_clust_7="13000.00000" pt_clust_8="13000.00000" pt_clust_9="42.53702"></scales>
<clustering>
<clus scale="   42.537">  1  9  2 -1</clus>
<clus scale="   91.037">  7  8 -1 -1</clus>
<clus scale="   91.841">  5  6 -1 -1</clus>
<clus scale="  123.464">  1  7  2 -1</clus>
<clus scale="   42.537">  1  5  2 -1</clus>
</clustering>
</event>
<event>
 9    1  0.1234700E-005  0.9356464E+02  0.7546771E-02  0.1295818E+00
         -2   -1    0    0    0  501 -0.00000000000E+00  0.00000000000E+00  0.13322992165E+03  0.13322992165E+03  0.00000000000E+00 0.  1.
          2   -1    0    0  502    0  0.00000000000E+00 -0.00000000000E+00 -0.96935192252E+02  0.96935192252E+02  0.00000000000E+00 0. -1.
         23    2    1    2    0    0 -0.83642922271E+01 -0.92632325052E+01  0.28628035734E+02  0.94184226810E+02  0.88855699248E+02 0.  0.
         23    2    1    2    0    0 -0.13985424012E+02  0.26829292801E+02 -0.17824197674E+02  0.97798930209E+02  0.91277191512E+02 0.  0.
        -11    1    4    4    0    0 -0.44678643416E+02  0.34318752717E+02  0.81170971070E+01  0.56919638360E+02  0.00000000000E+00 0.  1.
         11    1    4    4    0    0  0.30693219404E+02 -0.74894599160E+01 -0.25941294781E+02  0.40879291849E+02  0.00000000000E+00 0. -1.
        -13    1    3    3    0    0 -0.44368848432E+02  0.10469507890E+02  0.27886551245E+01  0.45672550882E+02  0.00000000000E+00 0.  1.
         13    1    3    3    0    0  0.36004556205E+02 -0.19732740395E+02  0.25839380610E+02  0.48511675928E+02  0.00000000000E+00 0. -1.
         21    1    1    2  502  501  0.22349716239E+02 -0.17566060296E+02  0.25490891342E+02  0.38181956887E+02  0.00000000000E+00 0. -1.
<scales pt_clust_5="13000.00000" pt_clust_6="13000.00000" pt_clust_7="13000.00000" pt_clust_8="13000.00000" pt_clust_9="28.42668"></scales>
<clustering>
<clus scale="   28.427">  1  9  2 -1</clus>
<clus scale="   88.856">  7  8 -1 -1</clus>
<clus scale="   91.204">  1  7  2 -1</clus>
<clus scale="   91.277">  5  6 -1 -1</clus>
<clus scale="   93.565">  2  5  1 -1</clus>
</clustering>
</event>
<event>
 9    1  0.1234700E-005  0.1020033E+03  0.7546771E-02  0.1277986E+00
          1   -1    0    0  502    0  0.00000000000E+00  0.00000000000E+00  0.30216551225E+03  0.30216551225E+03  0.00000000000E+00 0. -1.
         -1   -1    0    0    0  501 -0.00000000000E+00 -0.00000000000E+00 -0.89044242091E+02  0.89044242091E+02  0.00000000000E+00 0.  1.
         23    2    1    2    0    0 -0.25449582979E+02  0.18085478665E+02 -0.65755671675E+01  0.10099731303E+03  0.95825118536E+02 0.  0.
         23    2    1    2    0    0  0.59650187226E+02  0.37797167344E+02  0.97438299899E+02  0.15150519050E+03  0.92047975341E+02 0.  0.
        -13    1    4    4    0    0  0.33343327462E+02  0.37853137765E+02 -0.13829048735E+00  0.50444589890E+02  0.00000000000E+00 0.  1.
         13    1    4    4    0    0  0.26306859764E+02 -0.55970420794E-01  0.97576590386E+02  0.10106060061E+03  0.00000000000E+00 0. -1.
        -13    1    3    3    0    0 -0.95578722761E+01  0.47361000517E+02 -0.32973402908E+02  0.58494979201E+02  0.00000000000E+00 0. -1.
         13    1    3    3    0    0 -0.15891710703E+02 -0.29275521852E+02  0.26397835740E+02  0.42502333825E+02  0.00000000000E+00 0.  1.
         21    1    1    2  502  501 -0.34200604247E+02 -0.55882646009E+02  0.12225853742E+03  0.13870725082E+03  0.00000000000E+00 0.  1.
<scales pt_clust_5="13000.00000" pt_clust_6="13000.00000" pt_clust_7="13000.00000" pt_clust_8="13000.00000" pt_clust_9="65.51757"></scales>
<clustering>
<clus scale="   65.518">  1  9  2 -1</clus>
<clus scale="   92.048">  5  6 -1 -1</clus>
<clus scale="   95.825">  7  8 -1 -1</clus>
<clus scale="   98.463">  1  5  2 -1</clus>
<clus scale="   65.518">  1  5  2 -1</clus>
</clustering>
</event>
<event>
 9    1  0.1234700E-005  0.9292837E+02  0.7546771E-02  0.1296321E+00
         -3   -1    0    0    0  501 -0.00000000000E+00  0.00000000000E+00  0.16387550737E+03  0.16387550737E+03  0.00000000000E+00 0.  1.
          3   -1    0    0  502    0  0.00000000000E+00 -0.00000000000E+00 -0.19360132885E+03  0.19360132885E+03  0.00000000000E+00 0. -1.
         23    2    1    2    0    0  0.20062437999E+01 -0.86897360024E+01  0.94140132520E+02  0.13143610314E+03  0.91288269407E+02 0.  0.
         23    2    1    2    0    0  0.53061744701E+02  0.53438494030E+01 -0.19673635095E+02  0.10814366937E+03  0.91999433852E+02 0.  0.
        -13    1    3    3    0    0 -0.11995926277E+02 -0.35162424818E+02  0.51076322498E+01  0.37501816936E+02  0.00000000000E+00 0. -1.
         13    1    3    3    0    0  0.14002170076E+02  0.26472688815E+02  0.89032500270E+02  0.93934286202E+02  0.00000000000E+00 0.  1.
        -13    1    4    4    0    0 -0.50695470377E+01  0.25768309463E+02 -0.35850411361E+02  0.44440500385E+02  0.00000000000E+00 0.  1.
         13    1    4    4    0    0  0.58131291739E+02 -0.20424460060E+02  0.16176776266E+02  0.63703168982E+02  0.00000000000E+00 0. -1.
         21    1    1    2  502  501 -0.55067988501E+02  0.33458865994E+01 -0.10419231891E+03  0.11789706372E+03  0.00000000000E+00 0.  1.
<scales pt_clust_5="13000.00000" pt_clust_6="13000.00000" pt_clust_7="13000.00000" pt_clust_8="13000.00000" pt_clust_9="55.16954"></scales>
<clustering>
<clus scale="   55.170">  2  9  1 -1</clus>
<clus scale="   91.288">  5  6 -1 -1</clus>
<clus scale="   91.999">  7  8 -1 -1</clus>
<clus scale="   92.224">  1  5  2 -1</clus>
<clus scale="   55.170">  2  5  1 -1</clus>
</clustering>
</event>
<event>
 9    1  0.1234700E-005  0.1326115E+03  0.7546771E-02  0.1224258E+00
          1   -1    0    0  502    0  0.00000000000E+00  0.00000000000E+00  0.15179476569E+03  0.15179476569E+03  0.00000000000E+00 0. -1.
         -1   -1    0    0    0  501 -0.00000000000E+00 -0.00000000000E+00 -0.20967208751E+03  0.20967208751E+03  0.00000000000E+00 0.  1.
         23    2    1    2    0    0 -0.11842822070E+02  0.10894029910E+03 -0.73312314715E+02  0.15852827614E+03  0.88024301440E+02 0.  0.
         23    2    1    2    0    0  0.29203842914E+02 -0.80210771501E+02 -0.46203763732E+02  0.13275220289E+03  0.90563388201E+02 0.  0.
        -11    1    3    3    0    0 -0.31024562108E+02  0.55792232662E+02  0.26055354817E+01  0.63891200447E+02  0.00000000000E+00 0. -1.
         11    1    3    3    0    0  0.19181740039E+02  0.53148066442E+02 -0.75917850197E+02  0.94637075694E+02  0.00000000000E+00 0.  1.
        -11    1    4    4    0    0  0.39049338563E+02 -0.43433504654E+01 -0.39886978159E+02  0.55988271648E+02  0.00000000000E+00 0. -1.
         11    1    4    4    0    0 -0.98454956492E+01 -0.75867421036E+02 -0.63167855730E+01  0.76763931238E+02  0.00000000000E+00 0.  1.
         21    1    1    2  502  501 -0.17361020844E+02 -0.28729527603E+02  0.61638756629E+02  0.70186374175E+02  0.00000000000E+00 0. -1.
<scales pt_clust_5="13000.00000" pt_clust_6="13000.00000" pt_clust_7="13000.00000" pt_clust_8="13000.00000" pt_clust_9="33.56770"></scales>
<clustering>
<clus scale="   33.568">  1  9  2 -1</clus>
<clus scale="   88.024">  5  6 -1 -1</clus>
<clus scale="   90.563">  7  8 -1 -1</clus>
<clus scale="  130.891">  2  5  1 -1</clus>
<clus scale="   33.568">  1  5  2 -1</clus>
</clustering>
</event>
<event>
 9    1  0.1234700E-005  0.1009352E+03  0.7546771E-02  0.1280371E+00
         -1   -1    0    0    0  501 -0.00000000000E+00  0.00000000000E+00  0.55373720652E+02  0.55373720652E+02  0.00000000000E+00 0.  1.
          1   -1    0    0  502    0  0.00000000000E+00 -0.00000000000E+00 -0.73442347958E+03  0.73442347958E+03  0.00000000000E+00 0. -1.
         23    2    1    2    0    0  0.75112651053E+00 -0.42210722018E+02 -0.12357562415E+02  0.10118936819E+03  0.91127765482E+02 0.  0.
         23    2    1    2    0    0 -0.27333236398E+01 -0.29908803776E+02 -0.40916700414E+03  0.42116740912E+03  0.95196331994E+02 0.  0.
        -11    1    4    4    0    0  0.31858540144E+02  0.17250299322E+02 -0.96482617210E+02  0.10306034558E+03  0.00000000000E+00 0. -1.
         11    1    4    4    0    0 -0.34591863784E+02 -0.47159103097E+02 -0.31268438693E+03  0.31810706354E+03  0.00000000000E+00 0.  1.
        -13    1    3    3    0    0  0.30490952260E+02 -0.51761953409E+02 -0.27972280401E+02  0.66267989718E+02  0.00000000000E+00 0. -1.
         13    1    3    3    0    0 -0.29739825749E+02  0.95512313908E+01  0.15614717986E+02  0.34921378473E+02  0.00000000000E+00 0.  1.
         21    1    1    2  502  501  0.19821971292E+01  0.72119525794E+02 -0.25752519237E+03  0.26744042292E+03  0.00000000000E+00 0.  1.
<scales pt_clust_5="13000.00000" pt_clust_6="13000.00000" pt_clust_7="13000.00000" pt_clust_8="13000.00000" pt_clust_9="72.14676"></scales>
<clustering>
<clus scale="   72.147">  2  9  1 -1</clus>
<clus scale="   91.128">  7  8 -1 -1</clus>
<clus scale="   95.196">  5  6 -1 -1</clus>
<clus scale="   97.107">  1  7  2 -1</clus>
<clus scale="   72.147">  2  5  1 -1</clus>
</clustering>
</event>
<event>
 9    1  0.1234700E-005  0.2278197E+03  0.7546771E-02  0.1128629E+00
         -1   -1    0    0    0  501 -0.00000000000E+00  0.00000000000E+00  0.98215095844E+02  0.98215095844E+02  0.00000000000E+00 0.  1.
          1   -1    0    0  502    0  0.00000000000E+00 -0.00000000000E+00 -0.77149562495E+03  0.77149562495E+03  0.00000000000E+00 0. -1.
         23    2    1    2    0    0  0.71826777066E+02  0.18863123781E+03 -0.11793274798E+03  0.25340623381E+03  0.97804685521E+02 0.  0.
         23    2    1    2    0    0 -0.51609536998E+02 -0.21141786197E+03 -0.47827748056E+03  0.53343230669E+03  0.91867408494E+02 0.  0.
        -11    1    4    4    0    0 -0.20212199695E+02 -0.12362578768E+03 -0.16872370486E+03  0.21014175448E+03  0.00000000000E+00 0.  1.
         11    1    4    4    0    0 -0.31397337303E+02 -0.87792074289E+02 -0.30955377569E+03  0.32329055220E+03  0.00000000000E+00 0. -1.
        -13    1    3    3    0    0  0.51687295443E+02  0.19558037820E+03 -0.10052976511E+03  0.22589708834E+03  0.00000000000E+00 0.  1.
         13    1    3    3    0    0  0.20139481623E+02 -0.69491403903E+01 -0.17402982864E+02  0.27509145476E+02  0.00000000000E+00 0. -1.
         21    1    1    2  502  501 -0.20217240068E+02  0.22786624160E+02 -0.77070300565E+02  0.82872180289E+02  0.00000000000E+00 0.  1.
<scales pt_clust_5="13000.00000" pt_clust_6="13000.00000" pt_clust_7="13000.00000" pt_clust_8="13000.00000" pt_clust_9="30.46255"></scales>
<clustering>
<clus scale="   30.463">  2  9  1 -1</clus>
<clus scale="   91.867">  5  6 -1 -1</clus>
<clus scale="   97.805">  7  8 -1 -1</clus>
<clus scale="  225.335">  2  5  1 -1</clus>
<clus scale="   30.463">  2  5  1 -1</clus>
</clustering>
</event>
<event>
 9    1  0.1234700E-005  0.1387653E+03  0.7546771E-02  0.1215680E+00
          1   -1    0    0  502    0  0.00000000000E+00  0.00000000000E+00  0.39913369103E+03  0.39913369103E+03  0.00000000000E+00 0. -1.
         -1   -1    0    0    0  501 -0.00000000000E+00 -0.00000000000E+00 -0.90605329780E+02  0.90605329780E+02  0.00000000000E+00 0.  1.
         23    2    1    2    0    0 -0.11303316522E+03 -0.24448860189E+01  0.11577977108E+02  0.14800523058E+03  0.94810467858E+02 0.  0.
         23    2    1    2    0    0  0.67110526047E+02  0.27124829951E+02  0.20759432359E+03  0.23828093151E+03  0.91884819352E+02 0.  0.
        -11    1    3    3    0    0 -0.95938038322E+02  0.21708022510E+02 -0.24476205280E+02  0.10136286333E+03  0.00000000000E+00 0. -1.
         11    1    3    3    0    0 -0.17095126902E+02 -0.24152908529E+02  0.36054182388E+02  0.46642367242E+02  0.00000000000E+00 0.  1.
        -13    1    4    4    0    0  0.70877679148E+02  0.48389757832E+02  0.11671576425E+03  0.14487161105E+03  0.00000000000E+00 0.  1.
         13    1    4    4    0    0 -0.37671531011E+01 -0.21264927880E+02  0.90878559342E+02  0.93409320457E+02  0.00000000000E+00 0. -1.
         21    1    1    2  502  501  0.45922639177E+02 -0.24679943933E+02  0.89356060555E+02  0.10345285873E+03  0.00000000000E+00 0. -1.
<scales pt_clust_5="13000.00000" pt_clust_6="13000.00000" pt_clust_7="13000.00000" pt_clust_8="13000.00000" pt_clust_9="52.13433"></scales>
<clustering>
<clus scale="   52.134">  1  9  2 -1</clus>
<clus scale="   91.885">  7  8 -1 -1</clus>
<clus scale="   94.810">  5  6 -1 -1</clus>
<clus scale="  136.783">  1  7  2 -1</clus>
<clus scale="   52.134">  1  5  2 -1</clus>
</clustering>
</event>
<event>
 9    1  0.1234700E-005  0.1053571E+03  0.7546771E-02  0.1269499E+00
          1   -1    0    0  502    0  0.00000000000E+00  0.00000000000E+00  0.68725633420E+03  0.68725633420E+03  0.00000000000E+00 0. -1.
         -1   -1    0    0    0  501 -0.00000000000E+00 -0.00000000000E+00 -0.85664190366E+02  0.85664190366E+02  0.00000000000E+00 0.  1.
         23    2    1    2    0    0  0.29494466785E+01  0.46447236166E+02 -0.23939345273E+02  0.10449513860E+03  0.90443887338E+02 0.  0.
         23    2    1    2    0    0 -0.44739439010E+02 -0.11278944834E+03  0.33773067829E+03  0.37013525994E+03  0.90636761490E+02 0.  0.
        -11    1    4    4    0    0 -0.59306378770E+02 -0.38384755881E+02  0.21038186548E+03  0.22192603581E+03  0.00000000000E+00 0. -1.
         11    1    4    4    0    0  0.14566939759E+02 -0.74404692456E+02  0.12734881281E+03  0.14820922413E+03  0.00000000000E+00 0.  1.
        -13    1    3    3    0    0  0.30807323542E+02 -0.44779798090E+01 -0.33426667349E+02  0.45678064506E+02  0.00000000000E+00 0.  1.
         13    1    3    3    0    0 -0.27857876863E+02  0.50925215975E+02  0.94873220754E+01  0.58817074099E+02  0.00000000000E+00 0. -1.
         21    1    1    2  502  501  0.41789992332E+02  0.66342212172E+02  0.28780081082E+03  0.29829012602E+03  0.00000000000E+00 0.  1.
<scales pt_clust_5="13000.00000" pt_clust_6="13000.00000" pt_clust_7="13000.00000" pt_clust_8="13000.00000" pt_clust_9="78.40722"></scales>
<clustering>
<clus scale="   78.407">  1  9  2 -1</clus>
<clus scale="   90.444">  7  8 -1 -1</clus>
<clus scale="   90.637">  5  6 -1 -1</clus>
<clus scale="  105.191">  2  7  1 -1</clus>
<clus scale="   78.407">  1  5  2 -1</clus>
</clustering>
</event>
<event>
 9    1  0.1234700E-005  0.1023386E+03  0.7546771E-02  0.1275647E+00
         -1   -1    0    0    0  501 -0.00000000000E+00  0.00000000000E+00  0.14998878500E+03  0.14998878500E+03  0.00000000000E+00 0.  1.
          1   -1    0    0  502    0  0.00000000000E+00 -0.00000000000E+00 -0.11397438107E+03  0.11397438107E+03  0.00000000000E+00 0. -1.
         23    2    1    2    0    0 -0.42670233976E+02  0.12826687628E+02  0.72796563862E+02  0.12511445620E+03  0.91482318824E+02 0.  0.
         23    2    1    2    0    0  0.34008876967E+02 -0.39466515757E+02 -0.32361009276E+02  0.11048947643E+03  0.91904732751E+02 0.  0.
        -11    1    3    3    0    0 -0.56772026905E+02  0.33967911268E+02  0.74511787910E+02  0.99643808499E+02  0.00000000000E+00 0.  1.
         11    1    3    3    0    0  0.14101792929E+02 -0.21141223640E+02 -0.17152240481E+01  0.25470647702E+02  0.00000000000E+00 0. -1.
        -13    1    4    4    0    0  0.50641457269E+02  0.98563154629E+01 -0.54108506163E+01  0.51874670632E+02  0.00000000000E+00 0.  1.
         13    1    4    4    0    0 -0.16632580302E+02 -0.49322831220E+02 -0.26950158660E+02  0.58614805799E+02  0.00000000000E+00 0. -1.
         21    1    1    2  502  501  0.86613570082E+01  0.26639828130E+02 -0.44211506472E+01  0.28359233435E+02  0.00000000000E+00 0. -1.
<scales pt_clust_5="13000.00000" pt_clust_6="13000.00000" pt_clust_7="13000.00000" pt_clust_8="13000.00000" pt_clust_9="28.01249"></scales>
<clustering>
<clus scale="   28.012">  2  9  1 -1</clus>
<clus scale="   91.482">  5  6 -1 -1</clus>
<clus scale="   91.905">  7  8 -1 -1</clus>
<clus scale="  101.959">  1  5  2 -1</clus>
<clus scale="   28.012">  2  5  1 -1</clus>
</clustering>
</event>
<event>
 9    1  0.1234700E-005  0.9237317E+02  0.7546771E-02  0.1301450E+00
          1   -1    0    0  502    0  0.00000000000E+00  0.00000000000E+00  0.26957665819E+03  0.26957665819E+03  0.00000000000E+00 0. -1.
         -1   -1    0    0    0  501 -0.00000000000E+00 -0.00000000000E+00 -0.45136915330E+02  0.45136915330E+02  0.00000000000E+00 0.  1.
         23    2    1    2    0    0 -0.14190693766E+02 -0.16073075408E+02  0.73077292950E+02  0.11942557191E+03  0.91991613408E+02 0.  0.
         23    2    1    2    0    0  0.10019041986E+01 -0.17952363807E+02  0.10476632984E+03  0.13610292673E+03  0.84998421259E+02 0.  0.
        -11    1    3    3    0    0  0.21060020946E+02 -0.41783143618E+02  0.54967954869E+02  0.72186090317E+02  0.00000000000E+00 0.  1.
         11    1    3    3    0    0 -0.35250714711E+02  0.25710068209E+02  0.18109338080E+02  0.47239481588E+02  0.00000000000E+00 0. -1.
        -11    1    4    4    0    0 -0.35897427409E+02  0.11210570582E+02  0.31584762417E+02  0.49111092477E+02  0.00000000000E+00 0. -1.
         11    1    4    4    0    0  0.36899331607E+02 -0.29162934389E+02  0.73181567425E+02  0.86991834249E+02  0.00000000000E+00 0.  1.
         21    1    1    2  502  501  0.13188789567E+02  0.34025439215E+02  0.46596120065E+02  0.59185074885E+02  0.00000000000E+00 0. -1.
<scales pt_clust_5="13000.00000" pt_clust_6="13000.00000" pt_clust_7="13000.00000" pt_clust_8="13000.00000" pt_clust_9="36.49212"></scales>
<clustering>
<clus scale="   36.492">  1  9  2 -1</clus>
<clus scale="   84.998">  7  8 -1 -1</clus>
<clus scale="   85.411">  1  7  2 -1</clus>
<clus scale="   91.992">  5  6 -1 -1</clus>
<clus scale="   36.492">  1  5  2 -1</clus>
</clustering>
</event>
<event>
 9    1  0.1234700E-005  0.1301012E+03  0.7546771E-02  0.1229520E+00
         -1   -1    0    0    0  501 -0.00000000000E+00  0.00000000000E+00  0.40367473717E+02  0.40367473717E+02  0.00000000000E+00 0.  1.
          1   -1    0    0  502    0  0.00000000000E+00 -0.00000000000E+00 -0.58854556563E+03  0.58854556563E+03  0.00000000000E+00 0. -1.
         23    2    1    2    0    0  0.84702155955E+02 -0.17993709673E+02 -0.13523218605E+03  0.18119060764E+03  0.83928918387E+02 0.  0.
         23    2    1    2    0    0 -0.94001535454E+02  0.39426296192E+02 -0.27141393234E+03  0.30427511122E+03  0.92342293365E+02 0.  0.
        -13    1    4    4    0    0 -0.22970359912E+01  0.34766340007E+02 -0.29963740076E+02  0.45954330494E+02  0.00000000000E+00 0.  1.
         13    1    4    4    0    0 -0.91704499463E+02  0.46599561849E+01 -0.24145019226E+03  0.25832078073E+03  0.00000000000E+00 0. -1.
        -13    1    3    3    0    0  0.71963131384E+02 -0.48968253335E+02 -0.95155409138E+02  0.12896175403E+03  0.00000000000E+00 0.  1.
         13    1    3    3    0    0  0.12739024571E+02  0.30974543662E+02 -0.40076776907E+02  0.52228853609E+02  0.00000000000E+00 0. -1.
         21    1    1    2  502  501  0.92993794996E+01 -0.21432586519E+02 -0.14153197353E+03  0.14344732049E+03  0.00000000000E+00 0. -1.
<scales pt_clust_5="13000.00000" pt_clust_6="13000.00000" pt_clust_7="13000.00000" pt_clust_8="13000.00000" pt_clust_9="23.36310"></scales>
<clustering>
<clus scale="   23.363">  2  9  1 -1</clus>
<clus scale="   83.929">  7  8 -1 -1</clus>
<clus scale="   92.342">  5  6 -1 -1</clus>
<clus scale="  124.271">  1  7  2 -1</clus>
<clus scale="   23.363">  2  5  1 -1</clus>
</clustering>
</event>
<event>
 9    1  0.1234700E-005  0.4504181E+03  0.7546771E-02  0.1027603E+00
         -2   -1    0    0    0  501 -0.00000000000E+00  0.00000000000E+00  0.34904558400E+03  0.34904558400E+03  0.00000000000E+00 0.  1.
          2   -1    0    0  502    0  0.00000000000E+00 -0.00000000000E+00 -0.19077618199E+04  0.19077618199E+04  0.00000000000E+00 0. -1.
         23    2    1    2    0    0 -0.51398358135E+01 -0.44679864448E+03  0.13512811621E+03  0.47558440602E+03  0.90914645858E+02 0.  0.
         23    2    1    2    0    0 -0.93271802493E+02  0.40229966449E+03 -0.11165271224E+04  0.11938898782E+04  0.90529426036E+02 0.  0.
        -13    1    3    3    0    0  0.32708692989E+02 -0.32360622126E+03  0.11587150910E+03  0.34527822355E+03  0.00000000000E+00 0.  1.
         13    1    3    3    0    0 -0.37848528803E+02 -0.12319242323E+03  0.19256607108E+02  0.13030618247E+03  0.00000000000E+00 0. -1.
        -13    1    4    4    0    0 -0.26274573071E+01  0.20985520244E+03 -0.57199847398E+03  0.60928512518E+03  0.00000000000E+00 0.  1.
         13    1    4    4    0    0 -0.90644345186E+02  0.19244446205E+03 -0.54452864847E+03  0.58460475305E+03  0.00000000000E+00 0. -1.
         21    1    1    2  502  501  0.98411638307E+02  0.44498979992E+02 -0.57731722963E+03  0.58733311962E+03  0.00000000000E+00 0. -1.
<scales pt_clust_5="13000.00000" pt_clust_6="13000.00000" pt_clust_7="13000.00000" pt_clust_8="13000.00000" pt_clust_9="108.00467"></scales>
<clustering>
<clus scale="   90.529">  7  8 -1 -1</clus>
<clus scale="   90.915">  5  6 -1 -1</clus>
<clus scale="  108.005">  2  9  1 -1</clus>
<clus scale="  450.340">  2  7  1 -1</clus>
<clus scale="  108.005">  2  5  1 -1</clus>
</clustering>
</event>
<event>
 9    1  0.1234700E-005  0.9682377E+02  0.7546771E-02  0.1288906E+00
         -1   -1    0    0    0  501 -0.00000000000E+00  0.00000000000E+00  0.89454576546E+02  0.89454576546E+02  0.00000000000E+00 0.  1.
          1   -1    0    0  502    0  0.00000000000E+00 -0.00000000000E+00 -0.13218780857E+03  0.13218780857E+03  0.00000000000E+00 0. -1.
         23    2    1    2    0    0  0.20845549284E+02 -0.15439697406E+02 -0.45026699395E+01  0.94423747460E+02  0.90678822593E+02 0.  0.
         23    2    1    2    0    0  0.22179121240E+00  0.26310421611E+02 -0.32122064714E+02  0.10273764053E+03  0.93972912389E+02 0.  0.
        -11    1    4    4    0    0  0.44480207764E+02  0.22101850904E+02 -0.33500831704E+01  0.49781560375E+02  0.00000000000E+00 0. -1.
         11    1    4    4    0    0 -0.44258416552E+02  0.42085707068E+01 -0.28771981544E+02  0.52956080152E+02  0.00000000000E+00 0.  1.
        -11    1    3    3    0    0  0.87534506187E+01 -0.32444013096E+02  0.35762564095E+02  0.49073392731E+02  0.00000000000E+00 0.  1.
         11    1    3    3    0    0  0.12092098665E+02  0.17004315690E+02 -0.40265234034E+02  0.45350354729E+02  0.00000000000E+00 0. -1.
         21    1    1    2  502  501 -0.21067340496E+02 -0.10870724205E+02 -0.61084973695E+01  0.24480997129E+02  0.00000000000E+00 0.  1.
<scales pt_clust_5="13000.00000" pt_clust_6="13000.00000" pt_clust_7="13000.00000" pt_clust_8="13000.00000" pt_clust_9="23.70665"></scales>
<clustering>
<clus scale="   23.707">  2  9  1 -1</clus>
<clus scale="   90.679">  7  8 -1 -1</clus>
<clus scale="   93.630">  1  7  2 -1</clus>
<clus scale="   93.973">  5  6 -1 -1</clus>
<clus scale="   23.707">  2  5  1 -1</clus>
</clustering>
</event>
<event>
 9    1  0.1234700E-005  0.9110559E+02  0.7546771E-02  0.1300457E+00
         -1   -1    0    0    0  501 -0.00000000000E+00  0.00000000000E+00  0.33804920900E+02  0.33804920900E+02  0.00000000000E+00 0.  1.
          1   -1    0    0  502    0  0.00000000000E+00 -0.00000000000E+00 -0.38728131943E+03  0.38728131943E+03  0.00000000000E+00 0. -1.
         23    2    1    2    0    0  0.30080002200E+01  0.30216347915E+01 -0.74635912535E+02  0.11705480827E+03  0.90072916887E+02 0.  0.
         23    2    1    2    0    0 -0.32337840754E+01 -0.23480235456E+02 -0.17754621726E+03  0.20069153561E+03  0.90513282931E+02 0.  0.
        -11    1    4    4    0    0  0.22480211887E+02  0.24619805042E+02 -0.10342439531E+03  0.10866508304E+03  0.00000000000E+00 0. -1.
         11    1    4    4    0    0 -0.25713995962E+02 -0.48100040498E+02 -0.74121821953E+02  0.92026452577E+02  0.00000000000E+00 0.  1.
        -13    1    3    3    0    0 -0.11557272543E+02  0.43818593509E+02 -0.48890296605E+02  0.66662589118E+02  0.00000000000E+00 0.  1.
         13    1    3    3    0    0  0.14565272762E+02 -0.40796958717E+02 -0.25745615929E+02  0.50392219150E+02  0.00000000000E+00 0. -1.
         21    1    1    2  502  501  0.22578385541E+00  0.20458600664E+02 -0.10129426873E+03  0.10333989645E+03  0.00000000000E+00 0.  1.
<scales pt_clust_5="13000.00000" pt_clust_6="13000.00000" pt_clust_7="13000.00000" pt_clust_8="13000.00000" pt_clust_9="20.45985"></scales>
<clustering>
<clus scale="   20.460">  2  9  1 -1</clus>
<clus scale="   90.073">  7  8 -1 -1</clus>
<clus scale="   90.513">  5  6 -1 -1</clus>
<clus scale="   90.668">  1  7  2 -1</clus>
<clus scale="   20.460">  2  5  1 -1</clus>
</clustering>
</event>
<event>
 9    1  0.1234700E-005  0.1826813E+03  0.7546771E-02  0.1166262E+00
          1   -1    0    0  502    0  0.00000000000E+00  0.00000000000E+00  0.73417546046E+03  0.73417546046E+03  0.00000000000E+00 0. -1.
         -1   -1    0    0    0  501 -0.00000000000E+00 -0.00000000000E+00 -0.11557624195E+03  0.11557624195E+03  0.00000000000E+00 0.  1.
         23    2    1    2    0    0 -0.13105463845E+03  0.93460847719E+02 -0.19965863945E+02  0.18236157470E+03  0.83347824733E+02 0.  0.
         23    2    1    2    0    0  0.10239350809E+03 -0.88328775327E+02  0.56659399402E+03  0.58975227527E+03  0.92155244483E+02 0.  0.
        -13    1    4    4    0    0  0.58992618831E+02  0.22372373336E+01  0.14940232525E+03  0.16064304871E+03  0.00000000000E+00 0.  1.
         13    1    4    4    0    0  0.43400889258E+02 -0.90566012660E+02  0.41719166877E+03  0.42910922657E+03  0.00000000000E+00 0. -1.
        -13    1    3    3    0    0  0.80389015035E+00  0.30238538237E+02 -0.19756928304E+02  0.36129650567E+02  0.00000000000E+00 0. -1.
         13    1    3    3    0    0 -0.13185852860E+03  0.63222309482E+02 -0.20893564125E+00  0.14623192413E+03  0.00000000000E+00 0.  1.
         21    1    1    2  502  501  0.28661130363E+02 -0.51320723926E+01  0.71971088433E+02  0.77637852437E+02  0.00000000000E+00 0.  1.
<scales pt_clust_5="13000.00000" pt_clust_6="13000.00000" pt_clust_7="13000.00000" pt_clust_8="13000.00000" pt_clust_9="29.11698"></scales>
<clustering>
<clus scale="   29.117">  1  9  2 -1</clus>
<clus scale="   83.348">  7  8 -1 -1</clus>
<clus scale="   92.155">  5  6 -1 -1</clus>
<clus scale="  178.400">  2  7  1 -1</clus>
<clus scale="   29.117">  1  5  2 -1</clus>
</clustering>
</event>
<event>
 9    1  0.1234700E-005  0.1348565E+03  0.7546771E-02  0.1220876E+00
         -1   -1    0    0    0  501 -0.00000000000E+00  0.00000000000E+00  0.62726205495E+03  0.62726205495E+03  0.00000000000E+00 0.  1.
          1   -1    0    0  502    0  0.00000000000E+00 -0.00000000000E+00 -0.51072987542E+02  0.51072987542E+02  0.00000000000E+00 0. -1.
         23    2    1    2    0    0  0.63463515441E+02  0.71604066564E+02  0.40314829373E+03  0.42434971650E+03  0.91593531501E+02 0.  0.
         23    2    1    2    0    0 -0.97477548186E+02 -0.46049437543E+02  0.14224043843E+03  0.20146243442E+03  0.93447028091E+02 0.  0.
        -11    1    4    4    0    0  0.14130703402E+02 -0.25289781608E+02  0.24974284731E+02  0.38248721943E+02  0.00000000000E+00 0.  1.
         11    1    4    4    0    0 -0.11160825159E+03 -0.20759655935E+02  0.11726615370E+03  0.16321371248E+03  0.00000000000E+00 0. -1.
        -13    1    3    3    0    0  0.22367560407E+02  0.86010839836E+02  0.27508566246E+03  0.28908527119E+03  0.00000000000E+00 0.  1.
         13    1    3    3    0    0  0.41095955035E+02 -0.14406773273E+02  0.12806263127E+03  0.13526444531E+03  0.00000000000E+00 0. -1.
         21    1    1    2  502  501  0.34014032744E+02 -0.25554629021E+02  0.30800335243E+02  0.52522891571E+02  0.00000000000E+00 0.  1.
<scales pt_clust_5="13000.00000" pt_clust_6="13000.00000" pt_clust_7="13000.00000" pt_clust_8="13000.00000" pt_clust_9="42.54402"></scales>
<clustering>
<clus scale="   42.544">  2  9  1 -1</clus>
<clus scale="   91.594">  7  8 -1 -1</clus>
<clus scale="   93.447">  5  6 -1 -1</clus>
<clus scale="  133.579">  1  7  2 -1</clus>
<clus scale="   42.544">  2  5  1 -1</clus>
</clustering>
</event>
<event>
 9    1  0.1234700E-005  0.9942448E+02  0.7546771E-02  0.1281833E+00
         -2   -1    0    0    0  501 -0.00000000000E+00  0.00000000000E+00  0.43010077788E+03  0.43010077788E+03  0.00000000000E+00 0.  1.
          2   -1    0    0  502    0  0.00000000000E+00 -0.00000000000E+00 -0.47656675645E+02  0.47656675645E+02  0.00000000000E+00 0. -1.
         23    2    1    2    0    0  0.40232381614E+02  0.49004974281E+01  0.31877625291E+03  0.33349480233E+03  0.89206638535E+02 0.  0.
         23    2    1    2    0    0 -0.46722874506E+02 -0.27046922019E+02  0.60276562237E+02  0.12093688329E+03  0.89877153890E+02 0.  0.
        -11    1    4    4    0    0 -0.69498533786E+02 -0.24396250512E+02  0.22983491835E+02  0.77158694483E+02  0.00000000000E+00 0. -1.
         11    1    4    4    0    0  0.22775659279E+02 -0.26506715065E+01  0.37293070401E+02  0.43778188804E+02  0.00000000000E+00 0.  1.
        -13    1    3    3    0    0  0.50281410069E+02 -0.25149270919E+02  0.26650103371E+03  0.27236649389E+03  0.00000000000E+00 0.  1.
         13    1    3    3    0    0 -0.10049028455E+02  0.30049768347E+02  0.52275219202E+02  0.61128308444E+02  0.00000000000E+00 0. -1.
         21    1    1    2  502  501  0.64904928925E+01  0.22146424591E+02  0.33912870873E+01  0.23325767903E+02  0.00000000000E+00 0. -1.
<scales pt_clust_5="13000.00000" pt_clust_6="13000.00000" pt_clust_7="13000.00000" pt_clust_8="13000.00000" pt_clust_9="23.07792"></scales>
<clustering>
<clus scale="   23.078">  2  9  1 -1</clus>
<clus scale="   89.207">  7  8 -1 -1</clus>
<clus scale="   89.877">  5  6 -1 -1</clus>
<clus scale="   98.819">  1  7  2 -1</clus>
<clus scale="   23.078">  2  5  1 -1</clus>
</clustering>
</event>
<event>
 9    1  0.1234700E-005  0.1116794E+03  0.7546771E-02  0.1259230E+00
         -1   -1    0    0    0  501 -0.00000000000E+00  0.00000000000E+00  0.29874572169E+02  0.29874572169E+02  0.00000000000E+00 0.  1.
          1   -1    0    0  502    0  0.00000000000E+00 -0.00000000000E+00 -0.93432278583E+03  0.93432278583E+03  0.00000000000E+00 0. -1.
         23    2    1    2    0    0  0.23528189131E+02  0.52821598994E+02 -0.18351985597E+03  0.21108840737E+03  0.86804845392E+02 0.  0.
         23    2    1    2    0    0 -0.98408289619E+02 -0.29475435269E+02 -0.50436035939E+03  0.52277490909E+03  0.91439820073E+02 0.  0.
        -13    1    4    4    0    0 -0.79776953399E+02  0.21307232686E+02 -0.27547198113E+03  0.28758159337E+03  0.00000000000E+00 0.  1.
         13    1    4    4    0    0 -0.18631336220E+02 -0.50782667954E+02 -0.22888837826E+03  0.23519331572E+03  0.00000000000E+00 0. -1.
        -13    1    3    3    0    0 -0.16825665418E+02 -0.16472218246E+02 -0.32970325342E+02  0.40515174242E+02  0.00000000000E+00 0. -1.
         13    1    3    3    0    0  0.40353854549E+02  0.69293817240E+02 -0.15054953063E+03  0.17057323312E+03  0.00000000000E+00 0.  1.
         21    1    1    2  502  501  0.74880100489E+02 -0.23346163725E+02 -0.21656799830E+03  0.23033404155E+03  0.00000000000E+00 0. -1.
<scales pt_clust_5="13000.00000" pt_clust_6="13000.00000" pt_clust_7="13000.00000" pt_clust_8="13000.00000" pt_clust_9="78.43515"></scales>
<clustering>
<clus scale="   78.435">  2  9  1 -1</clus>
<clus scale="   86.805">  7  8 -1 -1</clus>
<clus scale="   91.440">  5  6 -1 -1</clus>
<clus scale="  107.917">  1  7  2 -1</clus>
<clus scale="   78.435">  2  5  1 -1</clus>
</clustering>
</event>
<event>
 9    1  0.1234700E-005  0.1546592E+03  0.7546771E-02  0.1195188E+00
          1   -1    0    0  502    0  0.00000000000E+00  0.00000000000E+00  0.15502028760E+03  0.15502028760E+03  0.00000000000E+00 0. -1.
         -1   -1    0    0    0  501 -0.00000000000E+00 -0.00000000000E+00 -0.23141331036E+03  0.23141331036E+03  0.00000000000E+00 0.  1.
         23    2    1    2    0    0  0.66027086398E+02 -0.73286727060E+02 -0.29233647775E+02  0.13733325911E+03  0.90968661607E+02 0.  0.
         23    2    1    2    0    0 -0.93355881409E+02  0.12768165476E+03 -0.40981815861E+02  0.18791346582E+03  0.92811830325E+02 0.  0.
        -11    1    4    4    0    0 -0.20055516530E+02  0.66832120513E+02  0.22638585808E+02  0.73357083114E+02  0.00000000000E+00 0. -1.
         11    1    4    4    0    0 -0.73300364879E+02  0.60849534244E+02 -0.63620401670E+02  0.11455638270E+03  0.00000000000E+00 0.  1.
        -13    1    3    3    0    0 -0.20317219408E+02  0.54660125725E+00 -0.75075550519E+01  0.21666830877E+02  0.00000000000E+00 0.  1.
         13    1    3    3    0    0  0.86344305806E+02 -0.73833328317E+02 -0.21726092723E+02  0.11566642823E+03  0.00000000000E+00 0. -1.
         21    1    1    2  502  501  0.27328795010E+02 -0.54394927697E+02 -0.61775591235E+01  0.61186873042E+02  0.00000000000E+00 0. -1.
<scales pt_clust_5="13000.00000" pt_clust_6="13000.00000" pt_clust_7="13000.00000" pt_clust_8="13000.00000" pt_clust_9="60.87422"></scales>
<clustering>
<clus scale="   60.874">  1  9  2 -1</clus>
<clus scale="   90.969">  7  8 -1 -1</clus>
<clus scale="   92.812">  5  6 -1 -1</clus>
<clus scale="  153.560">  2  7  1 -1</clus>
<clus scale="   60.874">  1  5  2 -1</clus>
</clustering>
</event>
<event>
 9    1  0.1234700E-005  0.1041367E+03  0.7546771E-02  0.1278040E+00
         -1   -1    0    0    0  501 -0.00000000000E+00  0.00000000000E+00  0.52458975459E+02  0.52458975459E+02  0.00000000000E+00 0.  1.
          1   -1    0    0  502    0  0.00000000000E+00 -0.00000000000E+00 -0.57037893236E+03  0.57037893236E+03  0.00000000000E+00 0. -1.
         23    2    1    2    0    0  0.38963880432E+02 -0.37012609560E+02 -0.14226051791E+02  0.96076870824E+02  0.78359857791E+02 0.  0.
         23    2    1    2    0    0  0.90097667203E+01  0.42060439453E+02 -0.27694654843E+03  0.29493930555E+03  0.91867006095E+02 0.  0.
        -13    1    3    3    0    0  0.48159004569E+02  0.65362206928E+01 -0.16983515652E+02  0.51482537874E+02  0.00000000000E+00 0.  1.
         13    1    3    3    0    0 -0.91951241372E+01 -0.43548830253E+02  0.27574638615E+01  0.44594332950E+02  0.00000000000E+00 0. -1.
        -13    1    4    4    0    0  0.41347894577E+02 -0.46377610745E+01 -0.15371741398E+03  0.15924886365E+03  0.00000000000E+00 0. -1.
         13    1    4    4    0    0 -0.32338127857E+02  0.46698200528E+02 -0.12322913445E+03  0.13569044190E+03  0.00000000000E+00 0.  1.
         21    1    1    2  502  501 -0.47973647152E+02 -0.50478298932E+01 -0.22674735668E+03  0.23182173144E+03  0.00000000000E+00 0.  1.
<scales pt_clust_5="13000.00000" pt_clust_6="13000.00000" pt_clust_7="13000.00000" pt_clust_8="13000.00000" pt_clust_9="48.23848"></scales>
<clustering>
<clus scale="   48.238">  2  9  1 -1</clus>
<clus scale="   78.360">  5  6 -1 -1</clus>
<clus scale="   91.867">  7  8 -1 -1</clus>
<clus scale="   92.440">  1  5  2 -1</clus>
<clus scale="   48.238">  2  5  1 -1</clus>
</clustering>
</event>
<event>
 9    1  0.1234700E-005  0.1315937E+03  0.7546771E-02  0.1225326E+00
         -2   -1    0    0    0  501 -0.00000000000E+00  0.00000000000E+00  0.70841739922E+03  0.70841739922E+03  0.00000000000E+00 0.  1.
          2   -1    0    0  502    0  0.00000000000E+00 -0.00000000000E+00 -0.37413432361E+02  0.37413432361E+02  0.00000000000E+00 0. -1.
         23    2    1    2    0    0 -0.46633537371E+02 -0.10437433070E+03  0.39972352304E+03  0.42553353194E+03  0.90725984234E+02 0.  0.
         23    2    1    2    0    0  0.66834331855E+01  0.75800201293E+02  0.21841380862E+03  0.24813517098E+03  0.89867304881E+02 0.  0.
        -11    1    3    3    0    0 -0.33313023319E+02 -0.12043153584E+03  0.33604623058E+03  0.35852556594E+03  0.00000000000E+00 0. -1.
         11    1    3    3    0    0 -0.13320514052E+02  0.16057205144E+02  0.63677292460E+02  0.67007965994E+02  0.00000000000E+00 0.  1.
        -13    1    4    4    0    0 -0.41176240595E+02  0.26358775382E+02  0.94452287466E+02  0.10635554728E+03  0.00000000000E+00 0. -1.
         13    1    4    4    0    0  0.47859673781E+02  0.49441425911E+02  0.12396152115E+03  0.14177962370E+03  0.00000000000E+00 0.  1.
         21    1    1    2  502  501  0.39950104186E+02  0.28574129405E+02  0.52866635193E+02  0.72162128658E+02  0.00000000000E+00 0.  1.
<scales pt_clust_5="13000.00000" pt_clust_6="13000.00000" pt_clust_7="13000.00000" pt_clust_8="13000.00000" pt_clust_9="49.11712"></scales>
<clustering>
<clus scale="   49.117">  2  9  1 -1</clus>
<clus scale="   89.867">  7  8 -1 -1</clus>
<clus scale="   90.726">  5  6 -1 -1</clus>
<clus scale="  131.003">  2  7  1 -1</clus>
<clus scale="   49.117">  2  5  1 -1</clus>
</clustering>
</event>
<event>
 9    1  0.1234700E-005  0.9326516E+02  0.7546771E-02  0.1295864E+00
         -1   -1    0    0    0  501 -0.00000000000E+00  0.00000000000E+00  0.55994993536E+03  0.55994993536E+03  0.00000000000E+00 0.  1.
          1   -1    0    0  502    0  0.00000000000E+00 -0.00000000000E+00 -0.21144385346E+02  0.21144385346E+02  0.00000000000E+00 0. -1.
         23    2    1    2    0    0  0.13303926694E+02 -0.18204303835E+02  0.31234824890E+03  0.32559736129E+03  0.89128120964E+02 0.  0.
         23    2    1    2    0    0 -0.29537387212E+02  0.19776742213E+01  0.18812142307E+03  0.21081510298E+03  0.90426596683E+02 0.  0.
        -13    1    4    4    0    0 -0.11297758178E+02  0.34663604736E+02  0.26906355476E+02  0.45311773284E+02  0.00000000000E+00 0. -1.
         13    1    4    4    0    0 -0.18239629035E+02 -0.32685930515E+02  0.16121506759E+03  0.16550332969E+03  0.00000000000E+00 0.  1.
        -13    1    3    3    0    0  0.23738742808E+02 -0.51281610171E+02  0.17289648880E+03  0.18189702386E+03  0.00000000000E+00 0.  1.
         13    1    3    3    0    0 -0.10434816114E+02  0.33077306336E+02  0.13945176010E+03  0.14370033743E+03  0.00000000000E+00 0. -1.
         21    1    1    2  502  501  0.16233460518E+02  0.16226629614E+02  0.38335878049E+02  0.44681856439E+02  0.00000000000E+00 0. -1.
<scales pt_clust_5="13000.00000" pt_clust_6="13000.00000" pt_clust_7="13000.00000" pt_clust_8="13000.00000" pt_clust_9="22.95275"></scales>
<clustering>
<clus scale="   22.953">  2  9  1 -1</clus>
<clus scale="   89.128">  7  8 -1 -1</clus>
<clus scale="   90.427">  5  6 -1 -1</clus>
<clus scale="   92.007">  1  7  2 -1</clus>
<clus scale="   22.953">  2  5  1 -1</clus>
</clustering>
</event>
<event>
 9    1  0.1234700E-005  0.1065214E+03  0.7546771E-02  0.1269061E+00
         -1   -1    0    0    0  501 -0.00000000000E+00  0.00000000000E+00  0.29773827832E+02  0.29773827832E+02  0.00000000000E+00 0.  1.
          1   -1    0    0  502    0  0.00000000000E+00 -0.00000000000E+00 -0.50575287061E+03  0.50575287061E+03  0.00000000000E+00 0. -1.
         23    2    1    2    0    0 -0.14845125642E+02  0.40428179407E+02 -0.12839076783E+03  0.16236750936E+03  0.89577917970E+02 0.  0.
         23    2    1    2    0    0  0.19914743438E+02 -0.60890214849E+02 -0.27570886882E+03  0.29825228055E+03  0.93993761705E+02 0.  0.
        -11    1    3    3    0    0  0.22598987789E+02  0.24078458702E+02 -0.11457184833E+03  0.11923587904E+03  0.00000000000E+00 0. -1.
         11    1    3    3    0    0 -0.37444113431E+02  0.16349720705E+02 -0.13818919501E+02  0.43131630318E+02  0.00000000000E+00 0.  1.
        -11    1    4    4    0    0  0.10798113294E+02 -0.85411084668E+02 -0.18902383835E+03  0.20770571513E+03  0.00000000000E+00 0. -1.
         11    1    4    4    0    0  0.91166301446E+01  0.24520869819E+02 -0.86685030466E+02  0.90546565417E+02  0.00000000000E+00 0.  1.
         21    1    1    2  502  501 -0.50696177957E+01  0.20462035443E+02 -0.71879406139E+02  0.74906908533E+02  0.00000000000E+00 0. -1.
<scales pt_clust_5="13000.00000" pt_clust_6="13000.00000" pt_clust_7="13000.00000" pt_clust_8="13000.00000" pt_clust_9="21.08070"></scales>
<clustering>
<clus scale="   21.081">  2  9  1 -1</clus>
<clus scale="   89.578">  5  6 -1 -1</clus>
<clus scale="   93.994">  7  8 -1 -1</clus>
<clus scale="  102.646">  1  5  2 -1</clus>
<clus scale="   21.081">  2  5  1 -1</clus>
</clustering>
</event>
<event>
 9    1  0.1234700E-005  0.1248947E+03  0.7546771E-02  0.1235341E+00
          2   -1    0    0  502    0  0.00000000000E+00  0.00000000000E+00  0.18384649118E+03  0.18384649118E+03  0.00000000000E+00 0. -1.
         -2   -1    0    0    0  501 -0.00000000000E+00 -0.00000000000E+00 -0.17731650297E+03  0.17731650297E+03  0.00000000000E+00 0.  1.
         23    2    1    2    0    0 -0.92578682538E+02 -0.77763563277E+01 -0.11152565254E+03  0.17179837417E+03  0.91898998982E+02 0.  0.
         23    2    1    2    0    0  0.52131716231E+02  0.13853881121E+02  0.80075728439E+02  0.13354914605E+03  0.92269205409E+02 0.  0.
        -11    1    3    3    0    0 -0.25939140292E+02  0.28616219149E+02 -0.81424194169E+02  0.90120066542E+02  0.00000000000E+00 0. -1.
         11    1    3    3    0    0 -0.66639542246E+02 -0.36392575477E+02 -0.30101458374E+02  0.81678307627E+02  0.00000000000E+00 0.  1.
        -13    1    4    4    0    0  0.14677739677E+02  0.34458674326E+02  0.82632987565E+02  0.90725117318E+02  0.00000000000E+00 0. -1.
         13    1    4    4    0    0  0.37453976554E+02 -0.20604793206E+02 -0.25572591263E+01  0.42824028734E+02  0.00000000000E+00 0.  1.
         21    1    1    2  502  501  0.40446966307E+02 -0.60775247929E+01  0.37979912317E+02  0.55815473936E+02  0.00000000000E+00 0. -1.
<scales pt_clust_5="13000.00000" pt_clust_6="13000.00000" pt_clust_7="13000.00000" pt_clust_8="13000.00000" pt_clust_9="40.90102"></scales>
<clustering>
<clus scale="   40.901">  1  9  2 -1</clus>
<clus scale="   91.899">  5  6 -1 -1</clus>
<clus scale="   92.269">  7  8 -1 -1</clus>
<clus scale="  124.621">  2  5  1 -1</clus>
<clus scale="   40.901">  1  5  2 -1</clus>
</clustering>
</event>
<event>
 9    1  0.1234700E-005  0.1352585E+03  0.7546771E-02  0.1219957E+00
         -1   -1    0    0    0  501 -0.00000000000E+00  0.00000000000E+00  0.22650173453E+02  0.22650173453E+02  0.00000000000E+00 0.  1.
          1   -1    0    0  502    0  0.00000000000E+00 -0.00000000000E+00 -0.11533961090E+04  0.11533961090E+04  0.00000000000E+00 0. -1.
         23    2    1    2    0    0 -0.10867738059E+03 -0.24016373162E+02 -0.39273226258E+03  0.41832224343E+03  0.91473001732E+02 0.  0.
         23    2    1    2    0    0  0.72185603147E+02  0.50420183705E+02 -0.54387784524E+03  0.55843146354E+03  0.91047420126E+02 0.  0.
        -13    1    4    4    0    0 -0.57719339475E+01  0.33933973174E+02 -0.71193566979E+02  0.79078149549E+02  0.00000000000E+00 0.  1.
         13    1    4    4    0    0  0.77957537095E+02  0.16486210531E+02 -0.47268427826E+03  0.47935331400E+03  0.00000000000E+00 0. -1.
        -13    1    3    3    0    0 -0.10316183405E+03  0.46798582928E+01 -0.21871793497E+03  0.24187145379E+03  0.00000000000E+00 0.  1.
         13    1    3    3    0    0 -0.55155465392E+01 -0.28696231455E+02 -0.17401432760E+03  0.17645078964E+03  0.00000000000E+00 0. -1.
         21    1    1    2  502  501  0.36491777441E+02 -0.26403810544E+02 -0.19413582778E+03  0.19929257553E+03  0.00000000000E+00 0. -1.
<scales pt_clust_5="13000.00000" pt_clust_6="13000.00000" pt_clust_7="13000.00000" pt_clust_8="13000.00000" pt_clust_9="45.04232"></scales>
<clustering>
<clus scale="   45.042">  2  9  1 -1</clus>
<clus scale="   91.047">  5  6 -1 -1</clus>
<clus scale="   91.473">  7  8 -1 -1</clus>
<clus scale="  134.971">  2  5  1 -1</clus>
<clus scale="   45.042">  2  5  1 -1</clus>
</clustering>
</event>
<event>
 9    1  0.1234700E-005  0.9950932E+02  0.7546771E-02  0.1285101E+00
         -1   -1    0    0    0  501 -0.00000000000E+00  0.00000000000E+00  0.88756894858E+02  0.88756894858E+02  0.00000000000E+00 0.  1.
          1   -1    0    0  502    0  0.00000000000E+00 -0.00000000000E+00 -0.39791130692E+03  0.39791130692E+03  0.00000000000E+00 0. -1.
         23    2    1    2    0    0  0.22493689315E+02  0.17461636767E+02  0.24457938840E+02  0.99057923484E+02  0.91670096624E+02 0.  0.
         23    2    1    2    0    0  0.41574744779E+02  0.27898489585E+02 -0.13802004271E+03  0.17685293837E+03  0.98593328854E+02 0.  0.
        -11    1    4    4    0    0  0.23168897903E+02  0.63421424126E+02 -0.10567905443E+03  0.12540788418E+03  0.00000000000E+00 0.  1.
         11    1    4    4    0    0  0.18405846875E+02 -0.35522934541E+02 -0.32340988278E+02  0.51445054188E+02  0.00000000000E+00 0. -1.
        -13    1    3    3    0    0  0.72592292452E+01  0.42893919522E+02 -0.18160656548E+02  0.47142276010E+02  0.00000000000E+00 0.  1.
         13    1    3    3    0    0  0.15234460070E+02 -0.25432282754E+02  0.42618595388E+02  0.51915647473E+02  0.00000000000E+00 0. -1.
         21    1    1    2  502  501 -0.64068434094E+02 -0.45360126352E+02 -0.19559230819E+03  0.21075733993E+03  0.00000000000E+00 0. -1.
<scales pt_clust_5="13000.00000" pt_clust_6="13000.00000" pt_clust_7="13000.00000" pt_clust_8="13000.00000" pt_clust_9="78.50035"></scales>
<clustering>
<clus scale="   78.500">  2  9  1 -1</clus>
<clus scale="   91.670">  7  8 -1 -1</clus>
<clus scale="   92.655">  1  7  2 -1</clus>
<clus scale="   98.593">  5  6 -1 -1</clus>
<clus scale="   78.500">  2  5  1 -1</clus>
</clustering>
</event>
<event>
 9    1  0.1234700E-005  0.1019223E+03  0.7546771E-02  0.1277068E+00
          1   -1    0    0  502    0  0.00000000000E+00  0.00000000000E+00  0.84512596397E+02  0.84512596397E+02  0.00000000000E+00 0. -1.
         -1   -1    0    0    0  501 -0.00000000000E+00 -0.00000000000E+00 -0.41762740416E+03  0.41762740416E+03  0.00000000000E+00 0.  1.
         23    2    1    2    0    0 -0.20271697051E+02 -0.44750464507E+02 -0.33429333998E+03  0.34957645114E+03  0.89655519991E+02 0.  0.
         23    2    1    2    0    0 -0.19179361392E+02  0.35249297569E+02 -0.26799758205E+02  0.10327417003E+03  0.91306989177E+02 0.  0.
        -11    1    3    3    0    0 -0.14993405176E+02  0.26669616949E+02 -0.96684920794E+02  0.10141027845E+03  0.00000000000E+00 0. -1.
         11    1    3    3    0    0 -0.52782918751E+01 -0.71420081456E+02 -0.23760841918E+03  0.24816617269E+03  0.00000000000E+00 0.  1.
        -13    1    4    4    0    0 -0.67001304837E+01 -0.27709665671E+02 -0.26745778567E+02  0.39090331174E+02  0.00000000000E+00 0.  1.
         13    1    4    4    0    0 -0.12479230908E+02  0.62958963240E+02 -0.53979637489E-01  0.64183838854E+02  0.00000000000E+00 0. -1.
         21    1    1    2  502  501  0.39451058443E+02  0.95011669384E+01  0.27978290420E+02  0.49289379386E+02  0.00000000000E+00 0. -1.
<scales pt_clust_5="13000.00000" pt_clust_6="13000.00000" pt_clust_7="13000.00000" pt_clust_8="13000.00000" pt_clust_9="40.57904"></scales>
<clustering>
<clus scale="   40.579">  1  9  2 -1</clus>
<clus scale="   89.656">  5  6 -1 -1</clus>
<clus scale="   91.307">  7  8 -1 -1</clus>
<clus scale="  100.445">  2  5  1 -1</clus>
<clus scale="   40.579">  1  5  2 -1</clus>
</clustering>
</event>
<event>
 9    1  0.1234700E-005  0.1151826E+03  0.7546771E-02  0.1251448E+00
         -1   -1    0    0    0  501 -0.00000000000E+00  0.00000000000E+00  0.10161327857E+03  0.10161327857E+03  0.00000000000E+00 0.  1.
          1   -1    0    0  502    0  0.00000000000E+00 -0.00000000000E+00 -0.40073872493E+03  0.40073872493E+03  0.00000000000E+00 0. -1.
         23    2    1    2    0    0  0.51021646119E+02  0.56805296478E+02  0.50717580889E+02  0.12720392333E+03  0.88195890036E+02 0.  0.
         23    2    1    2    0    0 -0.38061972222E+02 -0.40586601206E+02 -0.22010152745E+03  0.24375608652E+03  0.88748867055E+02 0.  0.
        -11    1    4    4    0    0 -0.44603352209E+01 -0.62661323945E+02 -0.15492843228E+03  0.16718000849E+03  0.00000000000E+00 0. -1.
         11    1    4    4    0    0 -0.33601637001E+02  0.22074722739E+02 -0.65173095168E+02  0.76576078033E+02  0.00000000000E+00 0.  1.
        -13    1    3    3    0    0 -0.27627328452E+01  0.60708689886E+02  0.15236738306E+02  0.62652501264E+02  0.00000000000E+00 0.  1.
         13    1    3    3    0    0  0.53784378964E+02 -0.39033934080E+01  0.35480842583E+02  0.64551422069E+02  0.00000000000E+00 0. -1.
         21    1    1    2  502  501 -0.12959673897E+02 -0.16218695272E+02 -0.12974149980E+03  0.13139199365E+03  0.00000000000E+00 0. -1.
<scales pt_clust_5="13000.00000" pt_clust_6="13000.00000" pt_clust_7="13000.00000" pt_clust_8="13000.00000" pt_clust_9="20.76052"></scales>
<clustering>
<clus scale="   20.761">  2  9  1 -1</clus>
<clus scale="   88.196">  7  8 -1 -1</clus>
<clus scale="   88.749">  5  6 -1 -1</clus>
<clus scale="  114.757">  1  7  2 -1</clus>
<clus scale="   20.761">  2  5  1 -1</clus>
</clustering>
</event>
<event>
 9    1  0.1234700E-005  0.1160950E+03  0.7546771E-02  0.1250147E+00
          2   -1    0    0  502    0  0.00000000000E+00  0.00000000000E+00  0.10075819133E+03  0.10075819133E+03  0.00000000000E+00 0.  1.
         -2   -1    0    0    0  501 -0.00000000000E+00 -0.00000000000E+00 -0.32356851046E+03  0.32356851046E+03  0.00000000000E+00 0. -1.
         23    2    1    2    0    0 -0.25643952048E+02  0.58643354070E+02 -0.20242972537E+03  0.23286706670E+03  0.95669335666E+02 0.  0.
         23    2    1    2    0    0 -0.83452919524E+01 -0.76684154868E+02 -0.60327902118E+02  0.13599318896E+03  0.94364125414E+02 0.  0.
        -11    1    4    4    0    0  0.22517729416E+02 -0.82763492623E+02 -0.26437096384E+02  0.89753907516E+02  0.00000000000E+00 0.  1.
         11    1    4    4    0    0 -0.30863021368E+02  0.60793377552E+01 -0.33890805734E+02  0.46239281448E+02  0.00000000000E+00 0. -1.
        -13    1    3    3    0    0 -0.48906975285E+02  0.21453731526E+02 -0.17034201441E+03  0.17851766496E+03  0.00000000000E+00 0. -1.
         13    1    3    3    0    0  0.23263023237E+02  0.37189622544E+02 -0.32087710953E+02  0.54349401738E+02  0.00000000000E+00 0.  1.
         21    1    1    2  502  501  0.33989244000E+02  0.18040800798E+02  0.39947308355E+02  0.55466446127E+02  0.00000000000E+00 0.  1.
<scales pt_clust_5="13000.00000" pt_clust_6="13000.00000" pt_clust_7="13000.00000" pt_clust_8="13000.00000" pt_clust_9="38.48037"></scales>
<clustering>
<clus scale="   38.480">  1  9  2 -1</clus>
<clus scale="   94.364">  5  6 -1 -1</clus>
<clus scale="   95.669">  7  8 -1 -1</clus>
<clus scale="  115.022">  1  5  2 -1</clus>
<clus scale="   38.480">  1  5  2 -1</clus>
</clustering>
</event>
<event>
 9    1  0.1234700E-005  0.1142797E+03  0.7546771E-02  0.1262436E+00
          2   -1    0    0  502    0  0.00000000000E+00  0.00000000000E+00  0.52449293697E+03  0.52449293697E+03  0.00000000000E+00 0. -1.
         -2   -1    0    0    0  501 -0.00000000000E+00 -0.00000000000E+00 -0.13951777532E+03  0.13951777532E+03  0.00000000000E+00 0.  1.
         23    2    1    2    0    0  0.28893007057E+02 -0.61414506335E+02 -0.54527739074E+02  0.12614911995E+03  0.91289532203E+02 0.  0.
         23    2    1    2    0    0 -0.78003734939E+02  0.30622952762E+02  0.12286254432E+02  0.10673046816E+03  0.64946846611E+02 0.  0.
        -11    1    3    3    0    0 -0.24473713817E+02  0.83693412881E+01 -0.11021184663E+02  0.28115388188E+02  0.00000000000E+00 0. -1.
         11    1    3    3    0    0  0.53366720874E+02 -0.69783847623E+02 -0.43506554411E+02  0.98033731759E+02  0.00000000000E+00 0.  1.
        -13    1    4    4    0    0 -0.25258340845E+02  0.11532663118E+02 -0.26619218947E+02  0.38465164995E+02  0.00000000000E+00 0.  1.
         13    1    4    4    0    0 -0.52745394094E+02  0.19090289644E+02  0.38905473379E+02  0.68265303161E+02  0.00000000000E+00 0. -1.
         21    1    1    2  502  501  0.49110727882E+02  0.30791553573E+02  0.42721664630E+03  0.43113112418E+03  0.00000000000E+00 0. -1.
<scales pt_clust_5="13000.00000" pt_clust_6="13000.00000" pt_clust_7="13000.00000" pt_clust_8="13000.00000" pt_clust_9="57.96536"></scales>
<clustering>
<clus scale="   57.965">  1  9  2 -1</clus>
<clus scale="   64.947">  7  8 -1 -1</clus>
<clus scale="   91.290">  5  6 -1 -1</clus>
<clus scale="   94.574">  1  7  2 -1</clus>
<clus scale="   57.965">  1  5  2 -1</clus>
</clustering>
</event>
<event>
 9    1  0.1234700E-005  0.9944478E+02  0.7546771E-02  0.1281557E+00
          2   -1    0    0  502    0  0.00000000000E+00  0.00000000000E+00  0.24618521370E+03  0.24618521370E+03  0.00000000000E+00 0. -1.
         -2   -1    0    0    0  501 -0.00000000000E+00 -0.00000000000E+00 -0.68577763608E+02  0.68577763608E+02  0.00000000000E+00 0.  1.
         23    2    1    2    0    0  0.28621630080E+02 -0.30469775907E+02  0.12134127229E+02  0.10211585892E+03  0.92373192257E+02 0.  0.
         23    2    1    2    0    0 -0.27231833306E+02  0.93431031298E+01  0.83346831947E+02  0.12783539545E+03  0.92554457549E+02 0.  0.
        -11    1    4    4    0    0 -0.20423952005E+02  0.47847028893E+02  0.68487716121E+02  0.86006065186E+02  0.00000000000E+00 0. -1.
         11    1    4    4    0    0 -0.68078813009E+01 -0.38503925763E+02  0.14859115826E+02  0.41829330261E+02  0.00000000000E+00 0.  1.
        -13    1    3    3    0    0  0.27485145947E+02  0.11776240925E+02 -0.30058124259E+02  0.42398159536E+02  0.00000000000E+00 0.  1.
         13    1    3    3    0    0  0.11364841328E+01 -0.42246016832E+02  0.42192251489E+02  0.59717699387E+02  0.00000000000E+00 0. -1.
         21    1    1    2  502  501 -0.13897967746E+01  0.21126672777E+02  0.82126490913E+02  0.84811722936E+02  0.00000000000E+00 0. -1.
<scales pt_clust_5="13000.00000" pt_clust_6="13000.00000" pt_clust_7="13000.00000" pt_clust_8="13000.00000" pt_clust_9="21.17234"></scales>
<clustering>
<clus scale="   21.172">  1  9  2 -1</clus>
<clus scale="   92.373">  7  8 -1 -1</clus>
<clus scale="   92.554">  5  6 -1 -1</clus>
<clus scale="   99.276">  2  7  1 -1</clus>
<clus scale="   21.172">  1  5  2 -1</clus>
</clustering>
</event>
<event>
 9    1  0.1234700E-005  0.1118317E+03  0.7546771E-02  0.1258548E+00
          2   -1    0    0  502    0  0.00000000000E+00  0.00000000000E+00  0.42202276607E+03  0.42202276607E+03  0.00000000000E+00 0. -1.
         -2   -1    0    0    0  501 -0.00000000000E+00 -0.00000000000E+00 -0.41261064845E+02  0.41261064845E+02  0.00000000000E+00 0.  1.
         23    2    1    2    0    0 -0.64315430454E+02  0.31871255442E+02  0.14273024519E+03  0.18476380635E+03  0.92808888177E+02 0.  0.
         23    2    1    2    0    0  0.56793405736E+02  0.18405743864E+01  0.14684695020E+03  0.18101267905E+03  0.89289890497E+02 0.  0.
        -11    1    3    3    0    0  0.88067023635E+01  0.38420839155E+02  0.75718663259E+02  0.85364130955E+02  0.00000000000E+00 0. -1.
         11    1    3    3    0    0 -0.73122132817E+02 -0.65495837139E+01  0.67011581935E+02  0.99399675392E+02  0.00000000000E+00 0.  1.
        -13    1    4    4    0    0  0.53284252887E+01  0.37559751771E+02  0.29744424169E+02  0.48206408685E+02  0.00000000000E+00 0.  1.
         13    1    4    4    0    0  0.51464980448E+02 -0.35719177385E+02  0.11710252603E+03  0.13280627037E+03  0.00000000000E+00 0. -1.
         21    1    1    2  502  501  0.75220247172E+01 -0.33711829828E+02  0.91184505830E+02  0.97507345516E+02  0.00000000000E+00 0. -1.
<scales pt_clust_5="13000.00000" pt_clust_6="13000.00000" pt_clust_7="13000.00000" pt_clust_8="13000.00000" pt_clust_9="34.54082"></scales>
<clustering>
<clus scale="   34.541">  1  9  2 -1</clus>
<clus scale="   89.290">  7  8 -1 -1</clus>
<clus scale="   92.809">  5  6 -1 -1</clus>
<clus scale="  108.929">  1  7  2 -1</clus>
<clus scale="   34.541">  1  5  2 -1</clus>
</clustering>
</event>
<event>
 9    1  0.1234700E-005  0.1251192E+03  0.7546771E-02  0.1235611E+00
         -1   -1    0    0    0  501 -0.00000000000E+00  0.00000000000E+00  0.19081103744E+03  0.19081103744E+03  0.00000000000E+00 0.  1.
          1   -1    0    0  502    0  0.00000000000E+00 -0.00000000000E+00 -0.14209072902E+03  0.14209072902E+03  0.00000000000E+00 0. -1.
         23    2    1    2    0    0 -0.70357355110E+02 -0.36675460744E+02  0.10283351178E+03  0.15808330330E+03  0.90113000158E+02 0.  0.
         23    2    1    2    0    0  0.78591014026E+02  0.63727130161E+02 -0.38316090934E+02  0.14242811401E+03  0.92628020763E+02 0.  0.
        -11    1    3    3    0    0 -0.31574556379E+02 -0.49317838561E+02  0.10160644452E+03  0.11727348967E+03  0.00000000000E+00 0.  1.
         11    1    3    3    0    0 -0.38782798731E+02  0.12642377817E+02  0.12270672585E+01  0.40809813628E+02  0.00000000000E+00 0. -1.
        -13    1    4    4    0    0  0.22843519516E+02  0.71685738689E+02 -0.16979128299E+01  0.75256590564E+02  0.00000000000E+00 0.  1.
         13    1    4    4    0    0  0.55747494510E+02 -0.79586085284E+01 -0.36618178104E+02  0.67171523442E+02  0.00000000000E+00 0. -1.
         21    1    1    2  502  501 -0.82336589164E+01 -0.27051669417E+02 -0.15797112423E+02  0.32390349154E+02  0.00000000000E+00 0.  1.
<scales pt_clust_5="13000.00000" pt_clust_6="13000.00000" pt_clust_7="13000.00000" pt_clust_8="13000.00000" pt_clust_9="28.27695"></scales>
<clustering>
<clus scale="   28.277">  2  9  1 -1</clus>
<clus scale="   90.113">  5  6 -1 -1</clus>
<clus scale="   92.628">  7  8 -1 -1</clus>
<clus scale="  123.269">  1  5  2 -1</clus>
<clus scale="   28.277">  2  5  1 -1</clus>
</clustering>
</event>
<event>
 9    1  0.1234700E-005  0.1234592E+03  0.7546771E-02  0.1237603E+00
          1   -1    0    0  502    0  0.00000000000E+00  0.00000000000E+00  0.28446133277E+03  0.28446133277E+03  0.00000000000E+00 0. -1.
         -1   -1    0    0    0  501 -0.00000000000E+00 -0.00000000000E+00 -0.73818800382E+02  0.73818800382E+02  0.00000000000E+00 0.  1.
         23    2    1    2    0    0 -0.78824267636E+02  0.49028182945E+02  0.94637051163E+02  0.16118824317E+03  0.91697602984E+02 0.  0.
         23    2    1    2    0    0  0.43521716789E+02 -0.64006082005E+02  0.98046066488E+02  0.15474631011E+03  0.91337128122E+02 0.  0.
        -11    1    3    3    0    0 -0.90190771627E+02  0.15948215004E+02  0.49582241052E+02  0.10414950541E+03  0.00000000000E+00 0.  1.
         11    1    3    3    0    0  0.11366503990E+02  0.33079967941E+02  0.45054810111E+02  0.57038737768E+02  0.00000000000E+00 0. -1.
        -13    1    4    4    0    0  0.41049952465E+02 -0.42357004083E+02  0.50151747154E+01  0.59197688888E+02  0.00000000000E+00 0.  1.
         13    1    4    4    0    0  0.24717643231E+01 -0.21649077923E+02  0.93030891773E+02  0.95548621224E+02  0.00000000000E+00 0. -1.
         21    1    1    2  502  501  0.35302550847E+02  0.14977899060E+02  0.17959414735E+02  0.42345579866E+02  0.00000000000E+00 0.  1.
<scales pt_clust_5="13000.00000" pt_clust_6="13000.00000" pt_clust_7="13000.00000" pt_clust_8="13000.00000" pt_clust_9="38.34850"></scales>
<clustering>
<clus scale="   38.349">  2  9  1 -1</clus>
<clus scale="   91.337">  7  8 -1 -1</clus>
<clus scale="   91.698">  5  6 -1 -1</clus>
<clus scale="  123.192">  1  7  2 -1</clus>
<clus scale="  123.192">  1  5  2 -1</clus>
</clustering>
</event>
<event>
 9    1  0.1234700E-005  0.2082262E+03  0.7546771E-02  0.1143049E+00
         -1   -1    0    0    0  501 -0.00000000000E+00  0.00000000000E+00  0.11824618820E+03  0.11824618820E+03  0.00000000000E+00 0.  1.
          1   -1    0    0  502    0  0.00000000000E+00 -0.00000000000E+00 -0.73951873078E+03  0.73951873078E+03  0.00000000000E+00 0. -1.
         23    2    1    2    0    0 -0.19390680041E+03  0.60436485622E+02 -0.55061039716E+02  0.22926360715E+03  0.90981687320E+02 0.  0.
         23    2    1    2    0    0  0.12670356251E+03 -0.95346953637E+02 -0.29438154395E+03  0.34631955742E+03  0.90177093052E+02 0.  0.
        -13    1    3    3    0    0 -0.60933942150E+02  0.53980082873E+02 -0.51021498700E+02  0.96072826452E+02  0.00000000000E+00 0.  1.
         13    1    3    3    0    0 -0.13297285826E+03  0.64564027498E+01 -0.40395410152E+01  0.13319078070E+03  0.00000000000E+00 0. -1.
        -13    1    4    4    0    0  0.19133549209E+02 -0.66643275257E+02 -0.90344481268E+02  0.11388390640E+03  0.00000000000E+00 0.  1.
         13    1    4    4    0    0  0.10757001330E+03 -0.28703678380E+02 -0.20403706268E+03  0.23243565102E+03  0.00000000000E+00 0. -1.
         21    1    1    2  502  501  0.67203237902E+02  0.34910468015E+02 -0.27182995891E+03  0.28218175441E+03  0.00000000000E+00 0.  1.
<scales pt_clust_5="13000.00000" pt_clust_6="13000.00000" pt_clust_7="13000.00000" pt_clust_8="13000.00000" pt_clust_9="75.72989"></scales>
<clustering>
<clus scale="   75.730">  2  9  1 -1</clus>
<clus scale="   90.177">  7  8 -1 -1</clus>
<clus scale="   90.982">  5  6 -1 -1</clus>
<clus scale="  207.876">  2  7  1 -1</clus>
<clus scale="   75.730">  2  5  1 -1</clus>
</clustering>
</event>
<event>
 9    1  0.1234700E-005  0.1028175E+03  0.7546771E-02  0.1274742E+00
         -2   -1    0    0    0  501 -0.00000000000E+00  0.00000000000E+00  0.23956225249E+03  0.23956225249E+03  0.00000000000E+00 0.  1.
          2   -1    0    0  502    0  0.00000000000E+00 -0.00000000000E+00 -0.86939113795E+02  0.86939113795E+02  0.00000000000E+00 0. -1.
         23    2    1    2    0    0 -0.35070614604E+01 -0.42845957425E+02  0.16009410339E+03  0.18913314222E+03  0.91066722784E+02 0.  0.
         23    2    1    2    0    0  0.13974522642E+02  0.61928768128E+02 -0.18431320152E+02  0.11299916992E+03  0.91644090023E+02 0.  0.
        -13    1    4    4    0    0  0.28157877507E+02  0.13816475788E+02  0.29907586849E+02  0.43338491206E+02  0.00000000000E+00 0.  1.
         13    1    4    4    0    0 -0.14183354865E+02  0.48112292340E+02 -0.48338907001E+02  0.69660678718E+02  0.00000000000E+00 0. -1.
        -13    1    3    3    0    0 -0.36719194750E+02  0.64929385155E+00  0.28094167433E+02  0.46238545494E+02  0.00000000000E+00 0. -1.
         13    1    3    3    0    0  0.33212133290E+02 -0.43495251276E+02  0.13199993596E+03  0.14289459673E+03  0.00000000000E+00 0.  1.
         21    1    1    2  502  501 -0.10467461181E+02 -0.19082810703E+02  0.10960355456E+02  0.24369054139E+02  0.00000000000E+00 0.  1.
<scales pt_clust_5="13000.00000" pt_clust_6="13000.00000" pt_clust_7="13000.00000" pt_clust_8="13000.00000" pt_clust_9="21.76514"></scales>
<clustering>
<clus scale="   21.765">  2  9  1 -1</clus>
<clus scale="   91.067">  7  8 -1 -1</clus>
<clus scale="   91.644">  5  6 -1 -1</clus>
<clus scale="  102.303">  1  7  2 -1</clus>
<clus scale="   21.765">  2  5  1 -1</clus>
</clustering>
</event>
<event>
 9    1  0.1234700E-005  0.1006129E+03  0.7546771E-02  0.1280368E+00
          2   -1    0    0  502    0  0.00000000000E+00  0.00000000000E+00  0.20351111725E+03  0.20351111725E+03  0.00000000000E+00 0. -1.
         -2   -1    0    0    0  501 -0.00000000000E+00 -0.00000000000E+00 -0.17581040868E+03  0.17581040868E+03  0.00000000000E+00 0.  1.
         23    2    1    2    0    0 -0.22455927550E+02  0.31799316944E+02 -0.13408137448E+03  0.16700308365E+03  0.91633780479E+02 0.  0.
         23    2    1    2    0    0 -0.12157271947E+02 -0.15889137493E+02  0.94751860380E+02  0.13521942710E+03  0.94372212372E+02 0.  0.
        -11    1    3    3    0    0 -0.33509085425E+01  0.55749720094E+02 -0.12180330957E+03  0.13399741080E+03  0.00000000000E+00 0.  1.
         11    1    3    3    0    0 -0.19105019008E+02 -0.23950403150E+02 -0.12278064913E+02  0.33005672851E+02  0.00000000000E+00 0. -1.
        -13    1    4    4    0    0 -0.19783148400E+02  0.16697464623E+02 -0.80472968597E+01  0.27109726524E+02  0.00000000000E+00 0.  1.
         13    1    4    4    0    0  0.76258764529E+01 -0.32586602116E+02  0.10279915724E+03  0.10810970057E+03  0.00000000000E+00 0. -1.
         21    1    1    2  502  501  0.34613199497E+02 -0.15910179450E+02  0.67030222672E+02  0.77099015176E+02  0.00000000000E+00 0.  1.
<scales pt_clust_5="13000.00000" pt_clust_6="13000.00000" pt_clust_7="13000.00000" pt_clust_8="13000.00000" pt_clust_9="38.09472"></scales>
<clustering>
<clus scale="   38.095">  1  9  2 -1</clus>
<clus scale="   91.634">  5  6 -1 -1</clus>
<clus scale="   94.372">  7  8 -1 -1</clus>
<clus scale="   98.049">  2  5  1 -1</clus>
<clus scale="   38.095">  1  5  2 -1</clus>
</clustering>
</event>
<event>
 9    1  0.1234700E-005  0.9790447E+02  0.7546771E-02  0.1287202E+00
          2   -1    0    0  502    0  0.00000000000E+00  0.00000000000E+00  0.62492786173E+02  0.62492786173E+02  0.00000000000E+00 0. -1.
         -2   -1    0    0    0  501 -0.00000000000E+00 -0.00000000000E+00 -0.26511469039E+03  0.26511469039E+03  0.00000000000E+00 0.  1.
         23    2    1    2    0    0  0.32489321031E+02  0.27131146734E+01 -0.10059016546E+03  0.13983346556E+03  0.91499178855E+02 0.  0.
         23    2    1    2    0    0  0.13001353513E+02 -0.29060329081E+02 -0.46501370485E+02  0.11130703135E+03  0.95986144056E+02 0.  0.
        -13    1    4    4    0    0  0.32632862316E+02  0.18582752037E+02 -0.46509844755E+02  0.59777822269E+02  0.00000000000E+00 0.  1.
         13    1    4    4    0    0 -0.19631508803E+02 -0.47643081117E+02  0.84742695886E-02  0.51529209077E+02  0.00000000000E+00 0. -1.
        -13    1    3    3    0    0 -0.19989700064E+02  0.28271747659E+02 -0.58097862799E+02  0.67633138964E+02  0.00000000000E+00 0.  1.
         13    1    3    3    0    0  0.52479021095E+02 -0.25558632985E+02 -0.42492302663E+02  0.72200326598E+02  0.00000000000E+00 0. -1.
         21    1    1    2  502  501 -0.45490674544E+02  0.26347214407E+02 -0.55530368270E+02  0.76466979656E+02  0.00000000000E+00 0.  1.
<scales pt_clust_5="13000.00000" pt_clust_6="13000.00000" pt_clust_7="13000.00000" pt_clust_8="13000.00000" pt_clust_9="52.56974"></scales>
<clustering>
<clus scale="   52.570">  2  9  1 -1</clus>
<clus scale="   91.499">  7  8 -1 -1</clus>
<clus scale="   93.510">  2  7  1 -1</clus>
<clus scale="   95.986">  5  6 -1 -1</clus>
<clus scale="   97.904">  1  5  2 -1</clus>
</clustering>
</event>
<event>
 9    1  0.1234700E-005  0.1827475E+03  0.7546771E-02  0.1165273E+00
          2   -1    0    0  502    0  0.00000000000E+00  0.00000000000E+00  0.58835931800E+03  0.58835931800E+03  0.00000000000E+00 0. -1.
         -2   -1    0    0    0  501 -0.00000000000E+00 -0.00000000000E+00 -0.87656914161E+02  0.87656914161E+02  0.00000000000E+00 0.  1.
         23    2    1    2    0    0  0.67042808038E+02 -0.13463367387E+03  0.81896089611E+02  0.19392290002E+03  0.90984380036E+02 0.  0.
         23    2    1    2    0    0 -0.98997070344E+02  0.15087099933E+03  0.36591293324E+03  0.41819939370E+03  0.91847590037E+02 0.  0.
        -11    1    4    4    0    0 -0.50695864407E+02  0.13265774408E+03  0.20636823135E+03  0.25051146609E+03  0.00000000000E+00 0.  1.
         11    1    4    4    0    0 -0.48301205937E+02  0.18213255254E+02  0.15954470190E+03  0.16768792761E+03  0.00000000000E+00 0. -1.
        -13    1    3    3    0    0  0.15661105210E+02 -0.99740479311E+02  0.84647684590E+02  0.13175228247E+03  0.00000000000E+00 0.  1.
         13    1    3    3    0    0  0.51381702827E+02 -0.34893194555E+02 -0.27515949788E+01  0.62170617551E+02  0.00000000000E+00 0. -1.
         21    1    1    2  502  501  0.31954262307E+02 -0.16237325468E+02  0.52893380983E+02  0.63893938443E+02  0.00000000000E+00 0. -1.
<scales pt_clust_5="13000.00000" pt_clust_6="13000.00000" pt_clust_7="13000.00000" pt_clust_8="13000.00000" pt_clust_9="35.84307"></scales>
<clustering>
<clus scale="   35.843">  1  9  2 -1</clus>
<clus scale="   90.984">  7  8 -1 -1</clus>
<clus scale="   91.848">  5  6 -1 -1</clus>
<clus scale="  182.315">  2  7  1 -1</clus>
<clus scale="   35.843">  1  5  2 -1</clus>
</clustering>
</event>
<event>
 9    1  0.1234700E-005  0.9111724E+02  0.7546771E-02  0.1302347E+00
         -2   -1    0    0    0  501 -0.00000000000E+00  0.00000000000E+00  0.11020383323E+03  0.11020383323E+03  0.00000000000E+00 0.  1.
          2   -1    0    0  502    0  0.00000000000E+00 -0.00000000000E+00 -0.10082895848E+03  0.10082895848E+03  0.00000000000E+00 0. -1.
         23    2    1    2    0    0 -0.18549778883E+02 -0.22456268192E+00  0.11996278215E+02  0.93592498986E+02  0.90947789695E+02 0.  0.
         23    2    1    2    0    0 -0.81880351753E+01  0.43923801745E+01  0.83299002075E+01  0.88247614606E+02  0.87360845478E+02 0.  0.
        -11    1    3    3    0    0 -0.13306958111E+02 -0.25496280130E+02  0.43945928102E+02  0.52520282095E+02  0.00000000000E+00 0. -1.
         11    1    3    3    0    0 -0.52428207719E+01  0.25271717448E+02 -0.31949649887E+02  0.41072216891E+02  0.00000000000E+00 0.  1.
        -13    1    4    4    0    0  0.93001500360E+01 -0.37351319687E+02  0.17146232351E+02  0.42137953877E+02  0.00000000000E+00 0. -1.
         13    1    4    4    0    0 -0.17488185211E+02  0.41743699862E+02 -0.88163321435E+01  0.46109660730E+02  0.00000000000E+00 0.  1.
         21    1    1    2  502  501  0.26737814058E+02 -0.41678174926E+01 -0.10951303673E+02  0.29192678113E+02  0.00000000000E+00 0.  1.
<scales pt_clust_5="13000.00000" pt_clust_6="13000.00000" pt_clust_7="13000.00000" pt_clust_8="13000.00000" pt_clust_9="27.06070"></scales>
<clustering>
<clus scale="   27.061">  2  9  1 -1</clus>
<clus scale="   87.361">  7  8 -1 -1</clus>
<clus scale="   87.537">  2  7  1 -1</clus>
<clus scale="   90.948">  5  6 -1 -1</clus>
<clus scale="   27.061">  2  5  1 -1</clus>
</clustering>
</event>
<event>
 9    1  0.1234700E-005  0.2352667E+03  0.7546771E-02  0.1123110E+00
          2   -1    0    0  502    0  0.00000000000E+00  0.00000000000E+00  0.71337368622E+03  0.71337368622E+03  0.00000000000E+00 0. -1.
         -2   -1    0    0    0  501 -0.00000000000E+00 -0.00000000000E+00 -0.15898474628E+03  0.15898474628E+03  0.00000000000E+00 0.  1.
         23    2    1    2    0    0  0.19920866791E+03  0.96250123108E+02 -0.28236762622E+02  0.24116465809E+03  0.91732753041E+02 0.  0.
         23    2    1    2    0    0 -0.17276823700E+03 -0.89164894856E+02  0.49392279205E+03  0.53836326661E+03  0.89866791051E+02 0.  0.
        -11    1    3    3    0    0  0.16471232815E+03  0.91252204154E+02 -0.56166365029E+02  0.19649879482E+03  0.00000000000E+00 0.  1.
         11    1    3    3    0    0  0.34496339760E+02  0.49979189542E+01  0.27929602406E+02  0.44665863266E+02  0.00000000000E+00 0. -1.
        -13    1    4    4    0    0 -0.98485292411E+02 -0.16424417861E+02  0.15970054880E+03  0.18834378038E+03  0.00000000000E+00 0.  1.
         13    1    4    4    0    0 -0.74282944592E+02 -0.72740476995E+02  0.33422224326E+03  0.35001948623E+03  0.00000000000E+00 0. -1.
         21    1    1    2  502  501 -0.26440430903E+02 -0.70852282522E+01  0.88702910510E+02  0.92830507801E+02  0.00000000000E+00 0. -1.
<scales pt_clust_5="13000.00000" pt_clust_6="13000.00000" pt_clust_7="13000.00000" pt_clust_8="13000.00000" pt_clust_9="27.37329"></scales>
<clustering>
<clus scale="   27.373">  1  9  2 -1</clus>
<clus scale="   89.867">  7  8 -1 -1</clus>
<clus scale="   91.733">  5  6 -1 -1</clus>
<clus scale="  234.545">  1  7  2 -1</clus>
<clus scale="   27.373">  1  5  2 -1</clus>
</clustering>
</event>
<event>
 9    1  0.1234700E-005  0.1089072E+03  0.7546771E-02  0.1262968E+00
         -1   -1    0    0    0  501 -0.00000000000E+00  0.00000000000E+00  0.15455379137E+03  0.15455379137E+03  0.00000000000E+00 0.  1.
          1   -1    0    0  502    0  0.00000000000E+00 -0.00000000000E+00 -0.15201041752E+03  0.15201041752E+03  0.00000000000E+00 0. -1.
         23    2    1    2    0    0  0.99602829275E+01  0.44690114038E+02  0.55293020938E+02  0.11662880856E+03  0.91915979535E+02 0.  0.
         23    2    1    2    0    0 -0.44102301742E+02 -0.79024459609E+02 -0.16395345468E+02  0.12938657721E+03  0.91006597413E+02 0.  0.
        -11    1    3    3    0    0 -0.56910856141E+01 -0.27309136798E+02  0.23114462769E+02  0.36227831804E+02  0.00000000000E+00 0.  1.
         11    1    3    3    0    0  0.15651368542E+02  0.71999250836E+02  0.32178558169E+02  0.80400976760E+02  0.00000000000E+00 0. -1.
        -13    1    4    4    0    0 -0.55102927360E+02 -0.11966615800E+02  0.84823046760E+01  0.57021767685E+02  0.00000000000E+00 0. -1.
         13    1    4    4    0    0  0.11000625618E+02 -0.67057843810E+02 -0.24877650144E+02  0.72364809522E+02  0.00000000000E+00 0.  1.
         21    1    1    2  502  501  0.34142018815E+02  0.34334345571E+02 -0.36354301622E+02  0.60548823118E+02  0.00000000000E+00 0. -1.
<scales pt_clust_5="13000.00000" pt_clust_6="13000.00000" pt_clust_7="13000.00000" pt_clust_8="13000.00000" pt_clust_9="48.42029"></scales>
<clustering>
<clus scale="   48.420">  2  9  1 -1</clus>
<clus scale="   91.007">  7  8 -1 -1</clus>
<clus scale="   91.916">  5  6 -1 -1</clus>
<clus scale="  108.141">  2  7  1 -1</clus>
<clus scale="   48.420">  2  5  1 -1</clus>
</clustering>
</event>
<event>
 9    1  0.1234700E-005  0.1175722E+03  0.7546771E-02  0.1249987E+00
          1   -1    0    0  502    0  0.00000000000E+00  0.00000000000E+00  0.17063969071E+03  0.17063969071E+03  0.00000000000E+00 0. -1.
         -1   -1    0    0    0  501 -0.00000000000E+00 -0.00000000000E+00 -0.98430827312E+02  0.98430827312E+02  0.00000000000E+00 0.  1.
         23    2    1    2    0    0 -0.24619491442E+02 -0.57884250848E+02  0.12894127700E+02  0.11158457304E+03  0.91258712220E+02 0.  0.
         23    2    1    2    0    0  0.10103757845E+01  0.66730163666E+02  0.40804877145E+02  0.12620887064E+03  0.99043957048E+02 0.  0.
        -11    1    4    4    0    0  0.22819870060E+02  0.55010755840E+02 -0.18154742948E+02  0.62261741215E+02  0.00000000000E+00 0.  1.
         11    1    4    4    0    0 -0.21809494276E+02  0.11719407826E+02  0.58959620093E+02  0.63947129427E+02  0.00000000000E+00 0. -1.
        -13    1    3    3    0    0 -0.42623524603E+00 -0.57867358651E+02 -0.27832352997E+02  0.64214116416E+02  0.00000000000E+00 0.  1.
         13    1    3    3    0    0 -0.24193256196E+02 -0.16892197085E-01  0.40726480697E+02  0.47370456623E+02  0.00000000000E+00 0. -1.
         21    1    1    2  502  501  0.23609115658E+02 -0.88459128176E+01  0.18509858551E+02  0.31277074341E+02  0.00000000000E+00 0. -1.
<scales pt_clust_5="13000.00000" pt_clust_6="13000.00000" pt_clust_7="13000.00000" pt_clust_8="13000.00000" pt_clust_9="25.21191"></scales>
<clustering>
<clus scale="   25.212">  1  9  2 -1</clus>
<clus scale="   91.259">  7  8 -1 -1</clus>
<clus scale="   99.044">  5  6 -1 -1</clus>
<clus scale="  111.093">  2  7  1 -1</clus>
<clus scale="   25.212">  1  5  2 -1</clus>
</clustering>
</event>
<event>
 9    1  0.1234700E-005  0.1248482E+03  0.7546771E-02  0.1246680E+00
         -2   -1    0    0    0  501 -0.00000000000E+00  0.00000000000E+00  0.78345824836E+02  0.78345824836E+02  0.00000000000E+00 0.  1.
          2   -1    0    0  502    0  0.00000000000E+00 -0.00000000000E+00 -0.58559141102E+03  0.58559141102E+03  0.00000000000E+00 0. -1.
         23    2    1    2    0    0  0.36816539969E+02 -0.94891618805E+02 -0.63497068144E+02  0.16997047129E+03  0.12040849851E+03 0.  0.
         23    2    1    2    0    0 -0.28386427318E+02  0.51338517213E+01 -0.35198328475E+03  0.36532625153E+03  0.93482039064E+02 0.  0.
        -13    1    3    3    0    0 -0.12554089254E+02 -0.28944215803E+02  0.31257619456E+02  0.44411840308E+02  0.00000000000E+00 0.  1.
         13    1    3    3    0    0  0.49370629223E+02 -0.65947403003E+02 -0.94754687600E+02  0.12555863099E+03  0.00000000000E+00 0. -1.
        -13    1    4    4    0    0 -0.18038827990E+01 -0.40780504842E+02 -0.20589495493E+03  0.20990244408E+03  0.00000000000E+00 0.  1.
         13    1    4    4    0    0 -0.26582544519E+02  0.45914356564E+02 -0.14608832982E+03  0.15542380745E+03  0.00000000000E+00 0. -1.
         21    1    1    2  502  501 -0.84301126507E+01  0.89757767084E+02 -0.91765233289E+02  0.12864051303E+03  0.00000000000E+00 0.  1.
<scales pt_clust_5="13000.00000" pt_clust_6="13000.00000" pt_clust_7="13000.00000" pt_clust_8="13000.00000" pt_clust_9="90.15278"></scales>
<clustering>
<clus scale="   90.153">  1  9  2 -1</clus>
<clus scale="   93.482">  7  8 -1 -1</clus>
<clus scale="   99.135">  2  7  1 -1</clus>
<clus scale="  120.408">  5  6 -1 -1</clus>
<clus scale="   99.135">  2  5  1 -1</clus>
</clustering>
</event>
<event>
 9    1  0.1234700E-005  0.9851532E+02  0.7546771E-02  0.1283684E+00
          1   -1    0    0  502    0  0.00000000000E+00  0.00000000000E+00  0.20586750908E+03  0.20586750908E+03  0.00000000000E+00 0. -1.
         -1   -1    0    0    0  501 -0.00000000000E+00 -0.00000000000E+00 -0.15483262076E+03  0.15483262076E+03  0.00000000000E+00 0.  1.
         23    2    1    2    0    0  0.20023353337E+02 -0.36932611006E+02 -0.11084811187E+03  0.14962714942E+03  0.91301848301E+02 0.  0.
         23    2    1    2    0    0  0.13986591280E+02  0.15142530379E+02  0.95731337065E+02  0.13356474551E+03  0.90830233871E+02 0.  0.
        -11    1    3    3    0    0 -0.35550606479E+01 -0.63368395804E+02 -0.83459341668E+02  0.10485062591E+03  0.00000000000E+00 0.  1.
         11    1    3    3    0    0  0.23578413985E+02  0.26435784798E+02 -0.27388770200E+02  0.44776523502E+02  0.00000000000E+00 0. -1.
        -13    1    4    4    0    0  0.34878646636E+02 -0.16256695932E+02  0.97822200375E+01  0.39705062431E+02  0.00000000000E+00 0.  1.
         13    1    4    4    0    0 -0.20892055356E+02  0.31399226311E+02  0.85949117028E+02  0.93859683080E+02  0.00000000000E+00 0. -1.
         21    1    1    2  502  501 -0.34009944617E+02  0.21790080627E+02  0.66151663123E+02  0.77508234920E+02  0.00000000000E+00 0. -1.
<scales pt_clust_5="13000.00000" pt_clust_6="13000.00000" pt_clust_7="13000.00000" pt_clust_8="13000.00000" pt_clust_9="40.39163"></scales>
<clustering>
<clus scale="   40.392">  1  9  2 -1</clus>
<clus scale="   90.830">  7  8 -1 -1</clus>
<clus scale="   91.302">  5  6 -1 -1</clus>
<clus scale="   98.078">  1  7  2 -1</clus>
<clus scale="   40.392">  1  5  2 -1</clus>
</clustering>
</event>
<event>
 9    1  0.1234700E-005  0.1078690E+03  0.7546771E-02  0.1265412E+00
          1   -1    0    0  502    0  0.00000000000E+00  0.00000000000E+00  0.80758923256E+03  0.80758923256E+03  0.00000000000E+00 0. -1.
         -1   -1    0    0    0  501 -0.00000000000E+00 -0.00000000000E+00 -0.32330616932E+02  0.32330616932E+02  0.00000000000E+00 0.  1.
         23    2    1    2    0    0 -0.74634924187E+02 -0.35469756985E+02  0.19577667183E+03  0.23027905490E+03  0.88721261967E+02 0.  0.
         23    2    1    2    0    0  0.32454620062E+02 -0.38798680101E+02  0.31535406497E+03  0.33204663907E+03  0.90819294673E+02 0.  0.
        -13    1    4    4    0    0 -0.31500730145E+02 -0.15807010466E+02  0.89526752594E+02  0.96214328504E+02  0.00000000000E+00 0.  1.
         13    1    4    4    0    0  0.63955350207E+02 -0.22991669635E+02  0.22582731237E+03  0.23583231056E+03  0.00000000000E+00 0. -1.
        -13    1    3    3    0    0 -0.25496586185E+02 -0.59269087217E+02  0.12714609304E+03  0.14257990596E+03  0.00000000000E+00 0.  1.
         13    1    3    3    0    0 -0.49138338003E+02  0.23799330232E+02  0.68630578790E+02  0.87699148948E+02  0.00000000000E+00 0. -1.
         21    1    1    2  502  501  0.42180304125E+02  0.74268437086E+02  0.26412787883E+03  0.27759415552E+03  0.00000000000E+00 0. -1.
<scales pt_clust_5="13000.00000" pt_clust_6="13000.00000" pt_clust_7="13000.00000" pt_clust_8="13000.00000" pt_clust_9="85.41065"></scales>
<clustering>
<clus scale="   85.411">  1  9  2 -1</clus>
<clus scale="   88.721">  7  8 -1 -1</clus>
<clus scale="   90.819">  5  6 -1 -1</clus>
<clus scale="  106.109">  2  7  1 -1</clus>
<clus scale="   85.411">  1  5  2 -1</clus>
</clustering>
</event>
<event>
 9    1  0.1234700E-005  0.1097930E+03  0.7546771E-02  0.1262588E+00
         -2   -1    0    0    0  501 -0.00000000000E+00  0.00000000000E+00  0.95980451589E+02  0.95980451589E+02  0.00000000000E+00 0.  1.
          2   -1    0    0  502    0  0.00000000000E+00 -0.00000000000E+00 -0.19066389700E+03  0.19066389700E+03  0.00000000000E+00 0. -1.
         23    2    1    2    0    0  0.34123589144E+02  0.43502469550E+02 -0.68265140716E+01  0.10241854954E+03  0.85942270175E+02 0.  0.
         23    2    1    2    0    0 -0.55190779460E+02 -0.47822295086E+02 -0.26257290115E+02  0.11898008501E+03  0.90187700388E+02 0.  0.
        -13    1    4    4    0    0 -0.50204546411E+02 -0.69818685485E+02 -0.22279907774E+01  0.86023887764E+02  0.00000000000E+00 0.  1.
         13    1    4    4    0    0 -0.49862330488E+01  0.21996390398E+02 -0.24029299337E+02  0.32956197250E+02  0.00000000000E+00 0. -1.
        -13    1    3    3    0    0  0.53661390163E+02  0.41627562918E+00 -0.11492935885E+02  0.54879920325E+02  0.00000000000E+00 0. -1.
         13    1    3    3    0    0 -0.19537801019E+02  0.43086193921E+02  0.46664218135E+01  0.47538629217E+02  0.00000000000E+00 0.  1.
         21    1    1    2  502  501  0.21067190316E+02  0.43198255361E+01 -0.61599641224E+02  0.65245714031E+02  0.00000000000E+00 0. -1.
<scales pt_clust_5="13000.00000" pt_clust_6="13000.00000" pt_clust_7="13000.00000" pt_clust_8="13000.00000" pt_clust_9="21.50552"></scales>
<clustering>
<clus scale="   21.506">  2  9  1 -1</clus>
<clus scale="   85.942">  7  8 -1 -1</clus>
<clus scale="   90.188">  5  6 -1 -1</clus>
<clus scale="  106.333">  1  7  2 -1</clus>
<clus scale="   21.506">  2  5  1 -1</clus>
</clustering>
</event>
<event>
 9    1  0.1234700E-005  0.1814393E+03  0.7546771E-02  0.1166948E+00
         -1   -1    0    0    0  501 -0.00000000000E+00  0.00000000000E+00  0.31215921369E+03  0.31215921369E+03  0.00000000000E+00 0.  1.
          1   -1    0    0  502    0  0.00000000000E+00 -0.00000000000E+00 -0.22446253432E+03  0.22446253432E+03  0.00000000000E+00 0. -1.
         23    2    1    2    0    0 -0.13911615945E+03 -0.11542653513E+03  0.14208160408E+03  0.24739079968E+03  0.91315030062E+02 0.  0.
         23    2    1    2    0    0  0.13272453338E+03  0.72745920067E+01  0.85560682342E+01  0.16393424336E+03  0.95564158509E+02 0.  0.
        -13    1    3    3    0    0 -0.86451031517E+02 -0.79228227419E+02  0.34455062257E+02  0.12222129187E+03  0.00000000000E+00 0. -1.
         13    1    3    3    0    0 -0.52665127934E+02 -0.36198307708E+02  0.10762654182E+03  0.12516950781E+03  0.00000000000E+00 0.  1.
        -13    1    4    4    0    0  0.33736970877E+02 -0.38866174175E+02 -0.11894859242E+02  0.52822820592E+02  0.00000000000E+00 0.  1.
         13    1    4    4    0    0  0.98987562505E+02  0.46140766181E+02  0.20450927476E+02  0.11111142277E+03  0.00000000000E+00 0. -1.
         21    1    1    2  502  501  0.63916260689E+01  0.10815194312E+03 -0.62940992947E+02  0.12529670498E+03  0.00000000000E+00 0. -1.
<scales pt_clust_5="13000.00000" pt_clust_6="13000.00000" pt_clust_7="13000.00000" pt_clust_8="13000.00000" pt_clust_9="108.34065"></scales>
<clustering>
<clus scale="   91.315">  5  6 -1 -1</clus>
<clus scale="   95.564">  7  8 -1 -1</clus>
<clus scale="  108.341">  2  9  1 -1</clus>
<clus scale="  179.238">  1  5  2 -1</clus>
<clus scale="  108.341">  2  5  1 -1</clus>
</clustering>
</event>
<event>
 9    1  0.1234700E-005  0.3260372E+03  0.7546771E-02  0.1072992E+00
         -1   -1    0    0    0  501 -0.00000000000E+00  0.00000000000E+00  0.23860417640E+03  0.23860417640E+03  0.00000000000E+00 0.  1.
          1   -1    0    0  502    0  0.00000000000E+00 -0.00000000000E+00 -0.80996313451E+03  0.80996313451E+03  0.00000000000E+00 0. -1.
         23    2    1    2    0    0 -0.11913173392E+03  0.34028718100E+03 -0.16604148873E+02  0.37184181093E+03  0.89458923627E+02 0.  0.
         23    2    1    2    0    0  0.86419935868E+02 -0.28818190253E+03 -0.51481293611E+03  0.60337446042E+03  0.92255981019E+02 0.  0.
        -11    1    3    3    0    0 -0.94481955877E+02  0.31594791200E+03  0.71304912249E+01  0.32984961269E+03  0.00000000000E+00 0.  1.
         11    1    3    3    0    0 -0.24649778040E+02  0.24339269002E+02 -0.23734640098E+02  0.41992198246E+02  0.00000000000E+00 0. -1.
        -11    1    4    4    0    0  0.10351255183E+03 -0.26628158094E+03 -0.48272355032E+03  0.56093025838E+03  0.00000000000E+00 0. -1.
         11    1    4    4    0    0 -0.17092615958E+02 -0.21900321587E+02 -0.32089385796E+02  0.42444202038E+02  0.00000000000E+00 0.  1.
         21    1    1    2  502  501  0.32711798048E+02 -0.52105278474E+02 -0.39941873118E+02  0.73351039560E+02  0.00000000000E+00 0.  1.
<scales pt_clust_5="13000.00000" pt_clust_6="13000.00000" pt_clust_7="13000.00000" pt_clust_8="13000.00000" pt_clust_9="61.52253"></scales>
<clustering>
<clus scale="   61.523">  1  9  2 -1</clus>
<clus scale="   89.459">  5  6 -1 -1</clus>
<clus scale="   92.256">  7  8 -1 -1</clus>
<clus scale="  325.257">  1  5  2 -1</clus>
<clus scale="  326.037">  2  5  1 -1</clus>
</clustering>
</event>
<event>
 9    1  0.1234700E-005  0.1292173E+03  0.7546771E-02  0.1229050E+00
         -2   -1    0    0    0  501 -0.00000000000E+00  0.00000000000E+00  0.86467771031E+02  0.86467771031E+02  0.00000000000E+00 0.  1.
          2   -1    0    0  502    0  0.00000000000E+00 -0.00000000000E+00 -0.33513448196E+03  0.33513448196E+03  0.00000000000E+00 0. -1.
         23    2    1    2    0    0  0.61786768574E+02  0.72732259878E+02 -0.20841917142E+01  0.13437915821E+03  0.94582386884E+02 0.  0.
         23    2    1    2    0    0 -0.52514132329E+02 -0.42468840475E+02 -0.18126861723E+03  0.21464374421E+03  0.93017680201E+02 0.  0.
        -13    1    4    4    0    0 -0.49966164906E+02 -0.15172927557E+01 -0.30879051972E+02  0.58757430708E+02  0.00000000000E+00 0.  1.
         13    1    4    4    0    0 -0.25479674228E+01 -0.40951547719E+02 -0.15038956525E+03  0.15588631350E+03  0.00000000000E+00 0. -1.
        -13    1    3    3    0    0  0.30244670298E+02  0.33590311299E+02 -0.48259384474E+02  0.66121231722E+02  0.00000000000E+00 0. -1.
         13    1    3    3    0    0  0.31542098276E+02  0.39141948578E+02  0.46175192760E+02  0.68257926489E+02  0.00000000000E+00 0.  1.
         21    1    1    2  502  501 -0.92726362456E+01 -0.30263419403E+02 -0.65313901991E+02  0.72579350577E+02  0.00000000000E+00 0.  1.
<scales pt_clust_5="13000.00000" pt_clust_6="13000.00000" pt_clust_7="13000.00000" pt_clust_8="13000.00000" pt_clust_9="31.65211"></scales>
<clustering>
<clus scale="   31.652">  2  9  1 -1</clus>
<clus scale="   93.018">  5  6 -1 -1</clus>
<clus scale="   94.582">  7  8 -1 -1</clus>
<clus scale="  128.076">  2  5  1 -1</clus>
<clus scale="   31.652">  2  5  1 -1</clus>
</clustering>
</event>
<event>
 9    1  0.1372021E-005  0.9111798E+02  0.7546771E-02  0.1302872E+00
         -1   -1    0    0    0  501 -0.00000000000E+00  0.00000000000E+00  0.41662486978E+02  0.41662486978E+02  0.00000000000E+00 0.  1.
          1   -1    0    0  502    0  0.00000000000E+00 -0.00000000000E+00 -0.50479957571E+03  0.50479957571E+03  0.00000000000E+00 0. -1.
         23    2    1    2    0    0 -0.14030592868E+02  0.12671170990E+01 -0.29447094093E+02  0.96161241636E+02  0.90451036039E+02 0.  0.
         23    2    1    2    0    0 -0.68210498064E+01  0.22879065706E+02 -0.32358429166E+03  0.33566620597E+03  0.85994358262E+02 0.  0.
        -13    1    4    4    0    0 -0.40048014003E+02 -0.10759524452E+02 -0.16895629195E+03  0.17397080037E+03  0.00000000000E+00 0.  1.
         13    1    4    4    0    0  0.33226964197E+02  0.33638590158E+02 -0.15462799971E+03  0.16169540560E+03  0.00000000000E+00 0. -1.
        -13    1    3    3    0    0 -0.17993787748E+02  0.42194367439E+02 -0.30402622212E+02  0.55031449903E+02  0.00000000000E+00 0.  1.
         13    1    3    3    0    0  0.39631948793E+01 -0.40927250340E+02  0.95552811933E+00  0.41129791733E+02  0.00000000000E+00 0. -1.
         21    1    1    2  502  501  0.20851642675E+02 -0.24146182805E+02 -0.11010570298E+03  0.11463461508E+03  0.00000000000E+00 0.  1.
<scales pt_clust_5="13000.00000" pt_clust_6="13000.00000" pt_clust_7="13000.00000" pt_clust_8="13000.00000" pt_clust_9="31.90343"></scales>
<clustering>
<clus scale="   31.903">  2  9  1 -1</clus>
<clus scale="   85.994">  5  6 -1 -1</clus>
<clus scale="   86.696">  2  5  1 -1</clus>
<clus scale="   90.451">  7  8 -1 -1</clus>
<clus scale="   31.903">  2  5  1 -1</clus>
</clustering>
</event>
<event>
 9    1  0.1234700E-005  0.1431096E+03  0.7546771E-02  0.1209590E+00
         -1   -1    0    0    0  501 -0.00000000000E+00  0.00000000000E+00  0.24335441984E+03  0.24335441984E+03  0.00000000000E+00 0.  1.
          1   -1    0    0  502    0  0.00000000000E+00 -0.00000000000E+00 -0.20751148795E+03  0.20751148795E+03  0.00000000000E+00 0. -1.
         23    2    1    2    0    0 -0.41170871582E+02  0.11316924327E+03  0.17287438829E+03  0.22993347479E+03  0.92095224698E+02 0.  0.
         23    2    1    2    0    0  0.43651351568E+02 -0.55899567685E+02 -0.78901968886E+02  0.13929294598E+03  0.90259636303E+02 0.  0.
        -11    1    4    4    0    0 -0.57818254049E+01 -0.55568736334E+02 -0.13797280822E+02  0.57547188644E+02  0.00000000000E+00 0.  1.
         11    1    4    4    0    0  0.49433176973E+02 -0.33083135112E+00 -0.65104688065E+02  0.81745757340E+02  0.00000000000E+00 0. -1.
        -11    1    3    3    0    0  0.15309511468E+02  0.59514756074E+02  0.12282057916E+03  0.13733638264E+03  0.00000000000E+00 0.  1.
         11    1    3    3    0    0 -0.56480383049E+02  0.53654487197E+02  0.50053809134E+02  0.92597092150E+02  0.00000000000E+00 0. -1.
         21    1    1    2  502  501 -0.24804799867E+01 -0.57269675586E+02 -0.58129487506E+02  0.81639487017E+02  0.00000000000E+00 0. -1.
<scales pt_clust_5="13000.00000" pt_clust_6="13000.00000" pt_clust_7="13000.00000" pt_clust_8="13000.00000" pt_clust_9="57.32337"></scales>
<clustering>
<clus scale="   57.323">  2  9  1 -1</clus>
<clus scale="   90.260">  5  6 -1 -1</clus>
<clus scale="   92.095">  7  8 -1 -1</clus>
<clus scale="  141.935">  2  5  1 -1</clus>
<clus scale="   57.323">  2  5  1 -1</clus>
</clustering>
</event>
<event>
 9    1  0.1234700E-005  0.9245769E+02  0.7546771E-02  0.1297635E+00
         -1   -1    0    0    0  501 -0.00000000000E+00  0.00000000000E+00  0.57752390240E+02  0.57752390240E+02  0.00000000000E+00 0.  1.
          1   -1    0    0  502    0  0.00000000000E+00 -0.00000000000E+00 -0.23313121899E+03  0.23313121899E+03  0.00000000000E+00 0. -1.
         23    2    1    2    0    0  0.92707551887E+00 -0.71325256963E+01 -0.19091672498E+02  0.93636241978E+02  0.91386659099E+02 0.  0.
         23    2    1    2    0    0  0.41687921349E+01 -0.17701327726E+02 -0.11352135969E+03  0.14753216335E+03  0.92454985194E+02 0.  0.
        -13    1    3    3    0    0  0.40913934446E+02 -0.78430871482E+01 -0.30977688227E+02  0.51914171627E+02  0.00000000000E+00 0.  1.
         13    1    3    3    0    0 -0.39986858927E+02  0.71056145194E+00  0.11886015729E+02  0.41722070351E+02  0.00000000000E+00 0. -1.
        -13    1    4    4    0    0  0.42356377147E+02  0.13960004493E+02 -0.52110362843E+02  0.68588879026E+02  0.00000000000E+00 0.  1.
         13    1    4    4    0    0 -0.38187585012E+02 -0.31661332219E+02 -0.61410996843E+02  0.78943284326E+02  0.00000000000E+00 0. -1.
         21    1    1    2  502  501 -0.50958676538E+01  0.24833853422E+02 -0.42765796566E+02  0.49715203900E+02  0.00000000000E+00 0.  1.
<scales pt_clust_5="13000.00000" pt_clust_6="13000.00000" pt_clust_7="13000.00000" pt_clust_8="13000.00000" pt_clust_9="25.35129"></scales>
<clustering>
<clus scale="   25.351">  2  9  1 -1</clus>
<clus scale="   91.387">  5  6 -1 -1</clus>
<clus scale="   91.389">  1  5  2 -1</clus>
<clus scale="   92.455">  7  8 -1 -1</clus>
<clus scale="   25.351">  2  5  1 -1</clus>
</clustering>
</event>
<event>
 9    1  0.1234700E-005  0.9465306E+02  0.7546771E-02  0.1293133E+00
          1   -1    0    0  502    0  0.00000000000E+00  0.00000000000E+00  0.53902950735E+03  0.53902950735E+03  0.00000000000E+00 0. -1.
         -1   -1    0    0    0  501 -0.00000000000E+00 -0.00000000000E+00 -0.27183673019E+02  0.27183673019E+02  0.00000000000E+00 0.  1.
         23    2    1    2    0    0  0.50556014295E+00 -0.46049945871E+01  0.16641669611E+03  0.19034834215E+03  0.92284955701E+02 0.  0.
         23    2    1    2    0    0  0.44167355711E+02  0.15613594693E+02  0.22253555207E+03  0.24464101338E+03  0.90181006010E+02 0.  0.
        -11    1    4    4    0    0  0.32883217629E+02  0.46213679110E+02  0.77822236505E+02  0.96298030267E+02  0.00000000000E+00 0. -1.
         11    1    4    4    0    0  0.11284138082E+02 -0.30600084418E+02  0.14471331556E+03  0.14834298312E+03  0.00000000000E+00 0.  1.
        -13    1    3    3    0    0 -0.12724107335E+02 -0.32764382668E+02  0.15208513611E+03  0.15609387017E+03  0.00000000000E+00 0.  1.
         13    1    3    3    0    0  0.13229667478E+02  0.28159388081E+02  0.14331560003E+02  0.34254471982E+02  0.00000000000E+00 0. -1.
         21    1    1    2  502  501 -0.44672915853E+02 -0.11008600106E+02  0.12289358614E+03  0.13122382483E+03  0.00000000000E+00 0. -1.
<scales pt_clust_5="13000.00000" pt_clust_6="13000.00000" pt_clust_7="13000.00000" pt_clust_8="13000.00000" pt_clust_9="46.00933"></scales>
<clustering>
<clus scale="   46.009">  1  9  2 -1</clus>
<clus scale="   90.181">  5  6 -1 -1</clus>
<clus scale="   92.285">  7  8 -1 -1</clus>
<clus scale="   92.603">  1  5  2 -1</clus>
<clus scale="   46.009">  1  5  2 -1</clus>
</clustering>
</event>
<event>
 9    1  0.1334638E-005  0.1054278E+03  0.7546771E-02  0.1271977E+00
          1   -1    0    0  502    0  0.00000000000E+00  0.00000000000E+00  0.45189371308E+03  0.45189371308E+03  0.00000000000E+00 0. -1.
         -1   -1    0    0    0  501 -0.00000000000E+00 -0.00000000000E+00 -0.32130364051E+03  0.32130364051E+03  0.00000000000E+00 0.  1.
         23    2    1    2    0    0  0.34935040449E+02  0.13544363551E+02 -0.30224917649E+03  0.32008029059E+03  0.98452632791E+02 0.  0.
         23    2    1    2    0    0 -0.52508527936E+02  0.15254794336E+01  0.39147704654E+03  0.40571706905E+03  0.92696221909E+02 0.  0.
        -13    1    4    4    0    0  0.26711884009E+02 -0.81999289353E+00  0.11792108876E+03  0.12091145648E+03  0.00000000000E+00 0.  1.
         13    1    4    4    0    0 -0.79220411945E+02  0.23454723272E+01  0.27355595778E+03  0.28480561256E+03  0.00000000000E+00 0. -1.
        -13    1    3    3    0    0  0.26054802173E+02  0.39036640677E+02 -0.28314750351E+03  0.28701083739E+03  0.00000000000E+00 0.  1.
         13    1    3    3    0    0  0.88802382753E+01 -0.25492277126E+02 -0.19101672973E+02  0.33069453205E+02  0.00000000000E+00 0. -1.
         21    1    1    2  502  501  0.17573487488E+02 -0.15069842984E+02  0.41362202516E+02  0.47399993956E+02  0.00000000000E+00 0. -1.
<scales pt_clust_5="13000.00000" pt_clust_6="13000.00000" pt_clust_7="13000.00000" pt_clust_8="13000.00000" pt_clust_9="23.15011"></scales>
<clustering>
<clus scale="   23.150">  1  9  2 -1</clus>
<clus scale="   92.696">  5  6 -1 -1</clus>
<clus scale="   98.453">  7  8 -1 -1</clus>
<clus scale="  100.073">  1  5  2 -1</clus>
<clus scale="   23.150">  1  5  2 -1</clus>
</clustering>
</event>
<event>
 9    1  0.1234700E-005  0.1169855E+03  0.7546771E-02  0.1254329E+00
         -1   -1    0    0    0  501 -0.00000000000E+00  0.00000000000E+00  0.45573576472E+02  0.45573576472E+02  0.00000000000E+00 0.  1.
          1   -1    0    0  502    0  0.00000000000E+00 -0.00000000000E+00 -0.39823235206E+03  0.39823235206E+03  0.00000000000E+00 0. -1.
         23    2    1    2    0    0  0.37423146771E+02  0.25105383442E+02 -0.10247826875E+03  0.15186292346E+03  0.10261471515E+03 0.  0.
         23    2    1    2    0    0 -0.51594794091E+02 -0.48826344650E+02 -0.14584545403E+03  0.18401097630E+03  0.86851069244E+02 0.  0.
        -11    1    3    3    0    0  0.36638711611E+02 -0.25824659543E+02 -0.94615789887E+01  0.45812986216E+02  0.00000000000E+00 0.  1.
         11    1    3    3    0    0  0.78443515964E+00  0.50930042985E+02 -0.93016689757E+02  0.10604993725E+03  0.00000000000E+00 0. -1.
        -13    1    4    4    0    0  0.48709216987E+01 -0.25920696473E+02 -0.11042156015E+03  0.11352765887E+03  0.00000000000E+00 0. -1.
         13    1    4    4    0    0 -0.56465715790E+02 -0.22905648177E+02 -0.35423893887E+02  0.70483317432E+02  0.00000000000E+00 0.  1.
         21    1    1    2  502  501  0.14171647320E+02  0.23720961208E+02 -0.10433505280E+03  0.10793202876E+03  0.00000000000E+00 0. -1.
<scales pt_clust_5="13000.00000" pt_clust_6="13000.00000" pt_clust_7="13000.00000" pt_clust_8="13000.00000" pt_clust_9="27.63186"></scales>
<clustering>
<clus scale="   27.632">  2  9  1 -1</clus>
<clus scale="   86.851">  7  8 -1 -1</clus>
<clus scale="  102.615">  5  6 -1 -1</clus>
<clus scale="  103.436">  2  7  1 -1</clus>
<clus scale="   27.632">  2  5  1 -1</clus>
</clustering>
</event>
<event>
 9    1  0.1234700E-005  0.9559215E+02  0.7546771E-02  0.1290916E+00
          1   -1    0    0  502    0  0.00000000000E+00  0.00000000000E+00  0.52484108241E+02  0.52484108241E+02  0.00000000000E+00 0. -1.
         -1   -1    0    0    0  501 -0.00000000000E+00 -0.00000000000E+00 -0.54560637628E+03  0.54560637628E+03  0.00000000000E+00 0.  1.
         23    2    1    2    0    0 -0.21498613293E+02  0.19891221045E+02 -0.34159263288E+03  0.35456531975E+03  0.90405686142E+02 0.  0.
         23    2    1    2    0    0  0.25896436340E+02  0.12360211612E+02 -0.17732917459E+03  0.20199069727E+03  0.92364524448E+02 0.  0.
        -11    1    3    3    0    0 -0.52279717270E+02 -0.42930083738E+01 -0.24059473190E+03  0.24624667262E+03  0.00000000000E+00 0.  1.
         11    1    3    3    0    0  0.30781103977E+02  0.24184229419E+02 -0.10099790098E+03  0.10831864714E+03  0.00000000000E+00 0. -1.
        -11    1    4    4    0    0 -0.30974707742E+02  0.22735200809E+02 -0.80893657412E+02  0.89555042767E+02  0.00000000000E+00 0.  1.
         11    1    4    4    0    0  0.56871144082E+02 -0.10374989198E+02 -0.96435517174E+02  0.11243565450E+03  0.00000000000E+00 0. -1.
         21    1    1    2  502  501 -0.43978230471E+01 -0.32251432657E+02  0.25799539426E+02  0.41534467501E+02  0.00000000000E+00 0. -1.
<scales pt_clust_5="13000.00000" pt_clust_6="13000.00000" pt_clust_7="13000.00000" pt_clust_8="13000.00000" pt_clust_9="32.54990"></scales>
<clustering>
<clus scale="   32.550">  1  9  2 -1</clus>
<clus scale="   90.406">  5  6 -1 -1</clus>
<clus scale="   92.365">  7  8 -1 -1</clus>
<clus scale="   93.701">  2  5  1 -1</clus>
<clus scale="   32.550">  1  5  2 -1</clus>
</clustering>
</event>
<event>
 9    1  0.1234700E-005  0.9578779E+02  0.7546771E-02  0.1291361E+00
          2   -1    0    0  502    0  0.00000000000E+00  0.00000000000E+00  0.11355762627E+03  0.11355762627E+03  0.00000000000E+00 0. -1.
         -2   -1    0    0    0  501 -0.00000000000E+00 -0.00000000000E+00 -0.15839701044E+03  0.15839701044E+03  0.00000000000E+00 0.  1.
         23    2    1    2    0    0  0.29133451409E+02  0.17577098682E+01 -0.69722994622E+02  0.11736238438E+03  0.89781878754E+02 0.  0.
         23    2    1    2    0    0  0.31358863822E+01  0.36739191630E+02  0.46522325987E+01  0.10043848759E+03  0.93309402187E+02 0.  0.
        -11    1    3    3    0    0  0.13754267431E+02  0.36165431858E+02 -0.69647855644E+02  0.79673973980E+02  0.00000000000E+00 0.  1.
         11    1    3    3    0    0  0.15379183978E+02 -0.34407721990E+02 -0.75138978632E-01  0.37688410397E+02  0.00000000000E+00 0. -1.
        -13    1    4    4    0    0  0.37079360307E+02  0.16988096733E+02  0.32619981128E+02  0.52225832308E+02  0.00000000000E+00 0.  1.
         13    1    4    4    0    0 -0.33943473925E+02  0.19751094897E+02 -0.27967748529E+02  0.48212655284E+02  0.00000000000E+00 0. -1.
         21    1    1    2  502  501 -0.32269337792E+02 -0.38496901499E+02  0.20231377850E+02  0.54153764747E+02  0.00000000000E+00 0. -1.
<scales pt_clust_5="13000.00000" pt_clust_6="13000.00000" pt_clust_7="13000.00000" pt_clust_8="13000.00000" pt_clust_9="50.23267"></scales>
<clustering>
<clus scale="   50.233">  1  9  2 -1</clus>
<clus scale="   89.782">  5  6 -1 -1</clus>
<clus scale="   92.355">  2  5  1 -1</clus>
<clus scale="   93.309">  7  8 -1 -1</clus>
<clus scale="   50.233">  1  5  2 -1</clus>
</clustering>
</event>
<event>
 9    1  0.1234700E-005  0.1108053E+03  0.7546771E-02  0.1259901E+00
         -2   -1    0    0    0  501 -0.00000000000E+00  0.00000000000E+00  0.68302283377E+02  0.68302283377E+02  0.00000000000E+00 0.  1.
          2   -1    0    0  502    0  0.00000000000E+00 -0.00000000000E+00 -0.32536635334E+03  0.32536635334E+03  0.00000000000E+00 0. -1.
         23    2    1    2    0    0 -0.68363216227E+02  0.56129052025E-01 -0.21786837213E+02  0.11407376404E+03  0.88682720317E+02 0.  0.
         23    2    1    2    0    0  0.58636487553E+02  0.23415798991E+02 -0.22758480583E+03  0.25304842115E+03  0.90841192693E+02 0.  0.
        -11    1    4    4    0    0  0.45427099658E+02  0.53639830426E+02 -0.10691574839E+03  0.12795245228E+03  0.00000000000E+00 0. -1.
         11    1    4    4    0    0  0.13209387895E+02 -0.30224031436E+02 -0.12066905744E+03  0.12509596887E+03  0.00000000000E+00 0.  1.
        -13    1    3    3    0    0 -0.46665889502E+02 -0.16001667208E+02 -0.53268883557E+02  0.72603943087E+02  0.00000000000E+00 0. -1.
         13    1    3    3    0    0 -0.21697326725E+02  0.16057796260E+02  0.31482046344E+02  0.41469820951E+02  0.00000000000E+00 0.  1.
         21    1    1    2  502  501  0.97267286735E+01 -0.23471928043E+02 -0.76924269260E+01  0.26546451528E+02  0.00000000000E+00 0. -1.
<scales pt_clust_5="13000.00000" pt_clust_6="13000.00000" pt_clust_7="13000.00000" pt_clust_8="13000.00000" pt_clust_9="25.40749"></scales>
<clustering>
<clus scale="   25.407">  1  9  2 -1</clus>
<clus scale="   88.683">  7  8 -1 -1</clus>
<clus scale="   90.841">  5  6 -1 -1</clus>
<clus scale="  109.043">  1  7  2 -1</clus>
<clus scale="  110.805">  2  5  1 -1</clus>
</clustering>
</event>
<event>
 9    1  0.1234700E-005  0.9584346E+02  0.7546771E-02  0.1290749E+00
         -1   -1    0    0    0  501 -0.00000000000E+00  0.00000000000E+00  0.14383536084E+03  0.14383536084E+03  0.00000000000E+00 0.  1.
          1   -1    0    0  502    0  0.00000000000E+00 -0.00000000000E+00 -0.64917663029E+03  0.64917663029E+03  0.00000000000E+00 0. -1.
         23    2    1    2    0    0  0.32517861079E+02  0.37377060683E+01  0.11954157298E+03  0.15205257871E+03  0.88081878299E+02 0.  0.
         23    2    1    2    0    0  0.14480896074E+02 -0.17459715170E+01 -0.34016339370E+03  0.35238010847E+03  0.90817738702E+02 0.  0.
        -11    1    4    4    0    0  0.47075492230E+02  0.19308644076E+02 -0.23064474929E+03  0.23619044451E+03  0.00000000000E+00 0.  1.
         11    1    4    4    0    0 -0.32594596157E+02 -0.21054615593E+02 -0.10951864441E+03  0.11618966396E+03  0.00000000000E+00 0. -1.
        -13    1    3    3    0    0 -0.25931247140E+02 -0.18033908200E+02  0.39189703657E+02  0.50333729208E+02  0.00000000000E+00 0.  1.
         13    1    3    3    0    0  0.58449108219E+02  0.21771614269E+02  0.80351869328E+02  0.10171884950E+03  0.00000000000E+00 0. -1.
         21    1    1    2  502  501 -0.46998757153E+02 -0.19917345513E+01 -0.28471944873E+03  0.28857930395E+03  0.00000000000E+00 0. -1.
<scales pt_clust_5="13000.00000" pt_clust_6="13000.00000" pt_clust_7="13000.00000" pt_clust_8="13000.00000" pt_clust_9="47.04094"></scales>
<clustering>
<clus scale="   47.041">  2  9  1 -1</clus>
<clus scale="   88.082">  7  8 -1 -1</clus>
<clus scale="   90.818">  5  6 -1 -1</clus>
<clus scale="   93.255">  1  7  2 -1</clus>
<clus scale="   47.041">  2  5  1 -1</clus>
</clustering>
</event>
<event>
 9    1  0.1234700E-005  0.9484456E+02  0.7546771E-02  0.1293301E+00
         -1   -1    0    0    0  501 -0.00000000000E+00  0.00000000000E+00  0.23056568814E+03  0.23056568814E+03  0.00000000000E+00 0.  1.
          1   -1    0    0  502    0  0.00000000000E+00 -0.00000000000E+00 -0.72410686201E+02  0.72410686201E+02  0.00000000000E+00 0. -1.
         23    2    1    2    0    0 -0.27053745343E+01  0.22846427540E+02  0.73728809408E+02  0.11866915945E+03  0.90095248293E+02 0.  0.
         23    2    1    2    0    0  0.24072312325E+02  0.31318277014E+02  0.32662396571E+02  0.10639796113E+03  0.93238314478E+02 0.  0.
        -11    1    4    4    0    0 -0.28631235802E+02  0.32045157204E+02 -0.24869301046E+01  0.43044448947E+02  0.00000000000E+00 0. -1.
         11    1    4    4    0    0  0.52703548127E+02 -0.72688018999E+00  0.35149326676E+02  0.63353512182E+02  0.00000000000E+00 0.  1.
        -11    1    3    3    0    0 -0.34445832120E+02 -0.17523729180E+02  0.46762855304E+02  0.60665979519E+02  0.00000000000E+00 0. -1.
         11    1    3    3    0    0  0.31740457586E+02  0.40370156719E+02  0.26965954105E+02  0.58003179931E+02  0.00000000000E+00 0.  1.
         21    1    1    2  502  501 -0.21366937791E+02 -0.54164704554E+02  0.51763795962E+02  0.77909253766E+02  0.00000000000E+00 0. -1.
<scales pt_clust_5="13000.00000" pt_clust_6="13000.00000" pt_clust_7="13000.00000" pt_clust_8="13000.00000" pt_clust_9="58.22681"></scales>
<clustering>
<clus scale="   58.227">  1  9  2 -1</clus>
<clus scale="   90.095">  7  8 -1 -1</clus>
<clus scale="   91.757">  1  7  2 -1</clus>
<clus scale="   93.238">  5  6 -1 -1</clus>
<clus scale="   94.845">  2  5  1 -1</clus>
</clustering>
</event>
<event>
 9    1  0.1282534E-005  0.1047989E+03  0.7546771E-02  0.1271284E+00
          1   -1    0    0  502    0  0.00000000000E+00  0.00000000000E+00  0.60864089240E+03  0.60864089240E+03  0.00000000000E+00 0. -1.
         -1   -1    0    0    0  501 -0.00000000000E+00 -0.00000000000E+00 -0.12312670735E+03  0.12312670735E+03  0.00000000000E+00 0.  1.
         23    2    1    2    0    0  0.46113899264E+02 -0.30953086607E+02 -0.89850763535E+02  0.13813484737E+03  0.89013993698E+02 0.  0.
         23    2    1    2    0    0 -0.18444663256E+02  0.20066505210E+00  0.26947558529E+03  0.28495881336E+03  0.90797513065E+02 0.  0.
        -13    1    3    3    0    0  0.13575019974E+02 -0.47079061140E+02 -0.94322712241E+01  0.49896762476E+02  0.00000000000E+00 0. -1.
         13    1    3    3    0    0  0.32538879290E+02  0.16125974533E+02 -0.80418492310E+02  0.88238084893E+02  0.00000000000E+00 0.  1.
        -13    1    4    4    0    0 -0.40180843865E+02 -0.33462861042E+02  0.16363477590E+03  0.17178650461E+03  0.00000000000E+00 0. -1.
         13    1    4    4    0    0  0.21736180609E+02  0.33663526095E+02  0.10584080939E+03  0.11317230875E+03  0.00000000000E+00 0.  1.
         21    1    1    2  502  501 -0.27669236008E+02  0.30752421555E+02  0.30588936330E+03  0.30867393902E+03  0.00000000000E+00 0. -1.
<scales pt_clust_5="13000.00000" pt_clust_6="13000.00000" pt_clust_7="13000.00000" pt_clust_8="13000.00000" pt_clust_9="41.36784"></scales>
<clustering>
<clus scale="   41.368">  1  9  2 -1</clus>
<clus scale="   89.014">  5  6 -1 -1</clus>
<clus scale="   90.798">  7  8 -1 -1</clus>
<clus scale="  103.258">  2  5  1 -1</clus>
<clus scale="   41.368">  1  5  2 -1</clus>
</clustering>
</event>
<event>
 9    1  0.1234700E-005  0.1254485E+03  0.7546771E-02  0.1235453E+00
          4   -1    0    0  502    0  0.00000000000E+00  0.00000000000E+00  0.95526552277E+02  0.95526552277E+02  0.00000000000E+00 0. -1.
         -4   -1    0    0    0  501 -0.00000000000E+00 -0.00000000000E+00 -0.40272565329E+03  0.40272565329E+03  0.00000000000E+00 0.  1.
         23    2    1    2    0    0  0.41821830482E+02 -0.57597499965E+02 -0.22847071152E+03  0.25727634094E+03  0.94475986788E+02 0.  0.
         23    2    1    2    0    0 -0.10708036686E+03  0.76359432084E+02 -0.57278817702E+02  0.16976651975E+03  0.90790089956E+02 0.  0.
        -11    1    4    4    0    0 -0.26115475401E+02  0.42268059496E+02 -0.64731669126E+02  0.81601445433E+02  0.00000000000E+00 0.  1.
         11    1    4    4    0    0 -0.80964891463E+02  0.34091372588E+02  0.74528514238E+01  0.88165074315E+02  0.00000000000E+00 0. -1.
        -13    1    3    3    0    0  0.34249129119E+01 -0.74235042925E+02 -0.12166678696E+03  0.14256710236E+03  0.00000000000E+00 0.  1.
         13    1    3    3    0    0  0.38396917570E+02  0.16637542960E+02 -0.10680392455E+03  0.11470923858E+03  0.00000000000E+00 0. -1.
         21    1    1    2  502  501  0.65258536382E+02 -0.18761932119E+02 -0.21449571790E+02  0.71209344875E+02  0.00000000000E+00 0.  1.
<scales pt_clust_5="13000.00000" pt_clust_6="13000.00000" pt_clust_7="13000.00000" pt_clust_8="13000.00000" pt_clust_9="67.90204"></scales>
<clustering>
<clus scale="   67.902">  1  9  2 -1</clus>
<clus scale="   90.790">  5  6 -1 -1</clus>
<clus scale="   94.476">  7  8 -1 -1</clus>
<clus scale="  122.697">  1  5  2 -1</clus>
<clus scale="   67.902">  1  5  2 -1</clus>
</clustering>
</event>
<event>
 9    1  0.1234700E-005  0.1037041E+03  0.7546771E-02  0.1274357E+00
         -1   -1    0    0    0  501 -0.00000000000E+00  0.00000000000E+00  0.27021790650E+03  0.27021790650E+03  0.00000000000E+00 0.  1.
          1   -1    0    0  502    0  0.00000000000E+00 -0.00000000000E+00 -0.32147924578E+03  0.32147924578E+03  0.00000000000E+00 0. -1.
         23    2    1    2    0    0 -0.22341744953E+02 -0.18320361295E+02  0.19616866679E+03  0.22099375637E+03  0.97577176231E+02 0.  0.
         23    2    1    2    0    0  0.17067210891E+02  0.77403914577E+02 -0.71858949574E+01  0.12324447022E+03  0.94100513677E+02 0.  0.
        -13    1    3    3    0    0 -0.58204410087E+02 -0.26006746508E+02  0.10662335226E+03  0.12422819110E+03  0.00000000000E+00 0.  1.
         13    1    3    3    0    0  0.35862665134E+02  0.76863852130E+01  0.89545314532E+02  0.96765565274E+02  0.00000000000E+00 0. -1.
        -13    1    4    4    0    0  0.25041336549E+02  0.58828433224E+02  0.37554126734E+02  0.74149615822E+02  0.00000000000E+00 0.  1.
         13    1    4    4    0    0 -0.79741256583E+01  0.18575481353E+02 -0.44740021691E+02  0.49094854399E+02  0.00000000000E+00 0. -1.
         21    1    1    2  502  501  0.52745340622E+01 -0.59083553282E+02 -0.24024411111E+03  0.24745892569E+03  0.00000000000E+00 0. -1.
<scales pt_clust_5="13000.00000" pt_clust_6="13000.00000" pt_clust_7="13000.00000" pt_clust_8="13000.00000" pt_clust_9="59.31852"></scales>
<clustering>
<clus scale="   59.319">  2  9  1 -1</clus>
<clus scale="   94.101">  7  8 -1 -1</clus>
<clus scale="   97.577">  5  6 -1 -1</clus>
<clus scale="  100.440">  2  7  1 -1</clus>
<clus scale="   59.319">  2  5  1 -1</clus>
</clustering>
</event>
<event>
 9    1  0.1234700E-005  0.9519567E+02  0.7546771E-02  0.1290892E+00
          2   -1    0    0  502    0  0.00000000000E+00  0.00000000000E+00  0.46584526549E+03  0.46584526549E+03  0.00000000000E+00 0. -1.
         -2   -1    0    0    0  501 -0.00000000000E+00 -0.00000000000E+00 -0.37060093894E+02  0.37060093894E+02  0.00000000000E+00 0.  1.
         23    2    1    2    0    0 -0.14293739159E+02 -0.14246582543E+02  0.73606373006E+02  0.11859853530E+03  0.90776860128E+02 0.  0.
         23    2    1    2    0    0  0.53766487707E+02  0.11280709775E+02  0.27605523667E+03  0.29583404674E+03  0.91067007791E+02 0.  0.
        -11    1    3    3    0    0 -0.14907729370E+01  0.26758223004E+02  0.70624184761E+02  0.75538072357E+02  0.00000000000E+00 0. -1.
         11    1    3    3    0    0 -0.12802966222E+02 -0.41004805547E+02  0.29821882449E+01  0.43060462942E+02  0.00000000000E+00 0.  1.
        -13    1    4    4    0    0 -0.71959492629E+01  0.28192014028E+02  0.30064714048E+02  0.41838479556E+02  0.00000000000E+00 0.  1.
         13    1    4    4    0    0  0.60962436970E+02 -0.16911304253E+02  0.24599052262E+03  0.25399556719E+03  0.00000000000E+00 0. -1.
         21    1    1    2  502  501 -0.39472748547E+02  0.29658727679E+01  0.79123561927E+02  0.88472777345E+02  0.00000000000E+00 0.  1.
<scales pt_clust_5="13000.00000" pt_clust_6="13000.00000" pt_clust_7="13000.00000" pt_clust_8="13000.00000" pt_clust_9="39.58402"></scales>
<clustering>
<clus scale="   39.584">  1  9  2 -1</clus>
<clus scale="   90.777">  5  6 -1 -1</clus>
<clus scale="   91.067">  7  8 -1 -1</clus>
<clus scale="   94.918">  2  5  1 -1</clus>
<clus scale="   39.584">  1  5  2 -1</clus>
</clustering>
</event>
<event>
 9    1  0.1234700E-005  0.9647888E+02  0.7546771E-02  0.1290017E+00
         -2   -1    0    0    0  501 -0.00000000000E+00  0.00000000000E+00  0.14769655055E+03  0.14769655055E+03  0.00000000000E+00 0.  1.
          2   -1    0    0  502    0  0.00000000000E+00 -0.00000000000E+00 -0.19723096739E+03  0.19723096739E+03  0.00000000000E+00 0. -1.
         23    2    1    2    0    0  0.13982151909E+02 -0.19758667539E+02  0.90550368687E+02  0.13319663422E+03  0.94636507673E+02 0.  0.
         23    2    1    2    0    0 -0.59864692267E+01 -0.12046395397E-01 -0.24514806559E+02  0.94209685155E+02  0.90767015360E+02 0.  0.
        -13    1    4    4    0    0  0.39599601622E+02  0.15538618320E+02 -0.15050946265E+02  0.45123254441E+02  0.00000000000E+00 0.  1.
         13    1    4    4    0    0 -0.45586070849E+02 -0.15550664715E+02 -0.94638602949E+01  0.49086430714E+02  0.00000000000E+00 0. -1.
        -13    1    3    3    0    0  0.51124611227E+02 -0.12168853114E+02  0.76404833669E+02  0.92733518574E+02  0.00000000000E+00 0.  1.
         13    1    3    3    0    0 -0.37142459318E+02 -0.75898144241E+01  0.14145535018E+02  0.40463115650E+02  0.00000000000E+00 0. -1.
         21    1    1    2  502  501 -0.79956826818E+01  0.19770713934E+02 -0.11556997897E+03  0.11752119855E+03  0.00000000000E+00 0. -1.
<scales pt_clust_5="13000.00000" pt_clust_6="13000.00000" pt_clust_7="13000.00000" pt_clust_8="13000.00000" pt_clust_9="21.32632"></scales>
<clustering>
<clus scale="   21.326">  2  9  1 -1</clus>
<clus scale="   90.767">  5  6 -1 -1</clus>
<clus scale="   92.686">  2  5  1 -1</clus>
<clus scale="   94.637">  7  8 -1 -1</clus>
<clus scale="   21.326">  2  5  1 -1</clus>
</clustering>
</event>
<event>
 9    1  0.1234700E-005  0.1131096E+03  0.7546771E-02  0.1256001E+00
          4   -1    0    0  502    0  0.00000000000E+00  0.00000000000E+00  0.49141391865E+02  0.49141391865E+02  0.00000000000E+00 0. -1.
         -4   -1    0    0    0  501 -0.00000000000E+00 -0.00000000000E+00 -0.36203792636E+03  0.36203792636E+03  0.00000000000E+00 0.  1.
         23    2    1    2    0    0 -0.31653248098E+02 -0.65491249030E+02 -0.19754534808E+03  0.22898275350E+03  0.90099417516E+02 0.  0.
         23    2    1    2    0    0  0.34675447628E+02  0.41489030222E+02 -0.11569750974E+03  0.15800234769E+03  0.93032799701E+02 0.  0.
        -11    1    4    4    0    0  0.47200358655E+02  0.61475126787E+02 -0.61656262399E+02  0.99038173265E+02  0.00000000000E+00 0. -1.
         11    1    4    4    0    0 -0.12524911027E+02 -0.19986096565E+02 -0.54041247340E+02  0.58964174430E+02  0.00000000000E+00 0.  1.
        -13    1    3    3    0    0  0.11699654088E+02 -0.67385789492E+02 -0.14851877375E+03  0.16351009965E+03  0.00000000000E+00 0.  1.
         13    1    3    3    0    0 -0.43352902186E+02  0.18945404613E+01 -0.49026574336E+02  0.65472653854E+02  0.00000000000E+00 0. -1.
         21    1    1    2  502  501 -0.30221995306E+01  0.24002218808E+02  0.34632333039E+00  0.24194217027E+02  0.00000000000E+00 0. -1.
<scales pt_clust_5="13000.00000" pt_clust_6="13000.00000" pt_clust_7="13000.00000" pt_clust_8="13000.00000" pt_clust_9="24.19174"></scales>
<clustering>
<clus scale="   24.192">  1  9  2 -1</clus>
<clus scale="   90.099">  7  8 -1 -1</clus>
<clus scale="   93.033">  5  6 -1 -1</clus>
<clus scale="  110.709">  2  7  1 -1</clus>
<clus scale="   24.192">  1  5  2 -1</clus>
</clustering>
</event>
<event>
 9    1  0.1234700E-005  0.2215207E+03  0.7546771E-02  0.1132981E+00
         -1   -1    0    0    0  501 -0.00000000000E+00  0.00000000000E+00  0.38601035306E+03  0.38601035306E+03  0.00000000000E+00 0.  1.
          1   -1    0    0  502    0  0.00000000000E+00 -0.00000000000E+00 -0.20908212843E+03  0.20908212843E+03  0.00000000000E+00 0. -1.
         23    2    1    2    0    0 -0.23336824475E+01 -0.19812990118E+03  0.24859694732E+03  0.33125713844E+03  0.93112543401E+02 0.  0.
         23    2    1    2    0    0  0.21713695646E+02  0.21093532354E+03 -0.61576742576E+02  0.23850923367E+03  0.90165204076E+02 0.  0.
        -13    1    3    3    0    0  0.43967497459E+02 -0.70610043204E+02  0.90013618870E+02  0.12256170126E+03  0.00000000000E+00 0.  1.
         13    1    3    3    0    0 -0.46301179906E+02 -0.12751985798E+03  0.15858332845E+03  0.20869543718E+03  0.00000000000E+00 0. -1.
        -13    1    4    4    0    0  0.18047548025E+02  0.32743782870E+02  0.20108697538E+02  0.42452668032E+02  0.00000000000E+00 0.  1.
         13    1    4    4    0    0  0.36661476211E+01  0.17819154067E+03 -0.81685440115E+02  0.19605656564E+03  0.00000000000E+00 0. -1.
         21    1    1    2  502  501 -0.19380013198E+02 -0.12805422359E+02 -0.10091980116E+02  0.25326109374E+02  0.00000000000E+00 0. -1.
<scales pt_clust_5="13000.00000" pt_clust_6="13000.00000" pt_clust_7="13000.00000" pt_clust_8="13000.00000" pt_clust_9="23.22851"></scales>
<clustering>
<clus scale="   23.229">  2  9  1 -1</clus>
<clus scale="   90.165">  7  8 -1 -1</clus>
<clus scale="   93.113">  5  6 -1 -1</clus>
<clus scale="  220.298">  2  7  1 -1</clus>
<clus scale="   23.229">  2  5  1 -1</clus>
</clustering>
</event>
<event>
 9    1  0.1234700E-005  0.1564511E+03  0.7546771E-02  0.1193680E+00
         -1   -1    0    0    0  501 -0.00000000000E+00  0.00000000000E+00  0.41050555007E+03  0.41050555007E+03  0.00000000000E+00 0.  1.
          1   -1    0    0  502    0  0.00000000000E+00 -0.00000000000E+00 -0.16686538093E+03  0.16686538093E+03  0.00000000000E+00 0. -1.
         23    2    1    2    0    0 -0.10142874093E+03 -0.75224573832E+02  0.31644230908E+03  0.35289208138E+03  0.91926928210E+02 0.  0.
         23    2    1    2    0    0  0.73167950497E+02  0.11451713641E+03 -0.39923395152E+02  0.16596740109E+03  0.86507671525E+02 0.  0.
        -11    1    3    3    0    0 -0.68401475877E+02 -0.31155150302E+02  0.78586358181E+02  0.10874383194E+03  0.00000000000E+00 0. -1.
         11    1    3    3    0    0 -0.33027265053E+02 -0.44069423530E+02  0.23785595090E+03  0.24414824945E+03  0.00000000000E+00 0.  1.
        -13    1    4    4    0    0  0.72805537462E+02  0.74539774022E+02 -0.61035212404E+02  0.12075645469E+03  0.00000000000E+00 0. -1.
         13    1    4    4    0    0  0.36241303547E+00  0.39977362386E+02  0.21111817252E+02  0.45210946398E+02  0.00000000000E+00 0.  1.
         21    1    1    2  502  501  0.28260790433E+02 -0.39292562576E+02 -0.32878744796E+02  0.58511448530E+02  0.00000000000E+00 0.  1.
<scales pt_clust_5="13000.00000" pt_clust_6="13000.00000" pt_clust_7="13000.00000" pt_clust_8="13000.00000" pt_clust_9="48.40018"></scales>
<clustering>
<clus scale="   48.400">  2  9  1 -1</clus>
<clus scale="   86.508">  7  8 -1 -1</clus>
<clus scale="   91.927">  5  6 -1 -1</clus>
<clus scale="  153.330">  2  7  1 -1</clus>
<clus scale="   48.400">  2  5  1 -1</clus>
</clustering>
</event>
<event>
 9    1  0.1234700E-005  0.1136261E+03  0.7546771E-02  0.1255851E+00
          1   -1    0    0  502    0  0.00000000000E+00  0.00000000000E+00  0.91935525974E+02  0.91935525974E+02  0.00000000000E+00 0. -1.
         -1   -1    0    0    0  501 -0.00000000000E+00 -0.00000000000E+00 -0.17768133530E+03  0.17768133530E+03  0.00000000000E+00 0.  1.
         23    2    1    2    0    0  0.71265854340E+01 -0.51213659299E+02 -0.33245553633E+02  0.11324768268E+03  0.95111217414E+02 0.  0.
         23    2    1    2    0    0 -0.33254411664E+02  0.66298101619E+02 -0.46064337453E+02  0.12552076295E+03  0.90178958598E+02 0.  0.
        -11    1    4    4    0    0 -0.57623879505E+02  0.15250441400E+02 -0.29921644927E+02  0.66696268916E+02  0.00000000000E+00 0.  1.
         11    1    4    4    0    0  0.24369467841E+02  0.51047660219E+02 -0.16142692526E+02  0.58824494037E+02  0.00000000000E+00 0. -1.
        -11    1    3    3    0    0 -0.17804395689E+02  0.14463968311E+02 -0.36289239925E+02  0.42931478189E+02  0.00000000000E+00 0. -1.
         11    1    3    3    0    0  0.24930981123E+02 -0.65677627610E+02  0.30436862922E+01  0.70316204494E+02  0.00000000000E+00 0.  1.
         21    1    1    2  502  501  0.26127826230E+02 -0.15084442320E+02 -0.64359182360E+01  0.30848415634E+02  0.00000000000E+00 0.  1.
<scales pt_clust_5="13000.00000" pt_clust_6="13000.00000" pt_clust_7="13000.00000" pt_clust_8="13000.00000" pt_clust_9="30.16958"></scales>
<clustering>
<clus scale="   30.170">  1  9  2 -1</clus>
<clus scale="   90.179">  5  6 -1 -1</clus>
<clus scale="   95.111">  7  8 -1 -1</clus>
<clus scale="  109.531">  1  5  2 -1</clus>
<clus scale="   30.170">  1  5  2 -1</clus>
</clustering>
</event>
<event>
 9    1  0.1234700E-005  0.1341730E+03  0.7546771E-02  0.1221477E+00
          1   -1    0    0  502    0  0.00000000000E+00  0.00000000000E+00  0.16900707444E+03  0.16900707444E+03  0.00000000000E+00 0. -1.
         -1   -1    0    0    0  501 -0.00000000000E+00 -0.00000000000E+00 -0.20484241456E+03  0.20484241456E+03  0.00000000000E+00 0.  1.
         23    2    1    2    0    0 -0.47253840080E+02 -0.91528986748E+02 -0.10305997505E+03  0.17179687852E+03  0.91007297484E+02 0.  0.
         23    2    1    2    0    0  0.79102579663E+01  0.94282540884E+02  0.84971636915E+01  0.13131071771E+03  0.90656125534E+02 0.  0.
        -11    1    3    3    0    0 -0.28510516059E+02 -0.10827317859E+03 -0.79223488604E+02  0.13715790854E+03  0.00000000000E+00 0.  1.
         11    1    3    3    0    0 -0.18743324021E+02  0.16744191839E+02 -0.23836486448E+02  0.34638969988E+02  0.00000000000E+00 0. -1.
        -11    1    4    4    0    0 -0.14726310225E+02  0.10329955714E+03  0.16549595816E+02  0.10564824579E+03  0.00000000000E+00 0. -1.
         11    1    4    4    0    0  0.22636568192E+02 -0.90170162512E+01 -0.80524321250E+01  0.25662471913E+02  0.00000000000E+00 0.  1.
         21    1    1    2  502  501  0.39343582113E+02 -0.27535541361E+01  0.58727471246E+02  0.70741892771E+02  0.00000000000E+00 0. -1.
<scales pt_clust_5="13000.00000" pt_clust_6="13000.00000" pt_clust_7="13000.00000" pt_clust_8="13000.00000" pt_clust_9="39.43982"></scales>
<clustering>
<clus scale="   39.440">  1  9  2 -1</clus>
<clus scale="   90.656">  7  8 -1 -1</clus>
<clus scale="   91.007">  5  6 -1 -1</clus>
<clus scale="  133.935">  1  7  2 -1</clus>
<clus scale="   39.440">  1  5  2 -1</clus>
</clustering>
</event>
<event>
 9    1  0.1234700E-005  0.2481635E+03  0.7546771E-02  0.1153523E+00
          2   -1    0    0  502    0  0.00000000000E+00  0.00000000000E+00  0.79334186755E+03  0.79334186755E+03  0.00000000000E+00 0. -1.
         -2   -1    0    0    0  501 -0.00000000000E+00 -0.00000000000E+00 -0.24938097806E+03  0.24938097806E+03  0.00000000000E+00 0.  1.
         23    2    1    2    0    0 -0.95336252721E+01  0.26565510105E+02 -0.53963882179E+02  0.10989902904E+03  0.91482674131E+02 0.  0.
         23    2    1    2    0    0 -0.22072015459E+03 -0.55908450310E+02 -0.45419212874E+02  0.24888720128E+03  0.89659314087E+02 0.  0.
        -11    1    3    3    0    0  0.10193105957E+02 -0.29181782159E+02 -0.16651012776E+01  0.30955587239E+02  0.00000000000E+00 0.  1.
         11    1    3    3    0    0 -0.19726731229E+02  0.55747292263E+02 -0.52298780901E+02  0.78943441801E+02  0.00000000000E+00 0. -1.
        -11    1    4    4    0    0 -0.17406609241E+03 -0.18482907155E+02 -0.63811286590E+02  0.18631291603E+03  0.00000000000E+00 0.  1.
         11    1    4    4    0    0 -0.46654062184E+02 -0.37425543156E+02  0.18392073716E+02  0.62574285248E+02  0.00000000000E+00 0. -1.
         21    1    1    2  502  501  0.23025377986E+03  0.29342940206E+02  0.64334398455E+03  0.68393661529E+03  0.00000000000E+00 0. -1.
<scales pt_clust_5="13000.00000" pt_clust_6="13000.00000" pt_clust_7="13000.00000" pt_clust_8="13000.00000" pt_clust_9="231.40082"></scales>
<clustering>
<clus scale="   89.659">  7  8 -1 -1</clus>
<clus scale="   91.483">  5  6 -1 -1</clus>
<clus scale="   95.738">  2  5  1 -1</clus>
<clus scale="  231.401">  1  9  2 -1</clus>
<clus scale="  231.401">  1  5  2 -1</clus>
</clustering>
</event>
<event>
 9    1  0.1234700E-005  0.1384223E+03  0.7546771E-02  0.1219325E+00
         -1   -1    0    0    0  501 -0.00000000000E+00  0.00000000000E+00  0.25748560866E+03  0.25748560866E+03  0.00000000000E+00 0.  1.
          1   -1    0    0  502    0  0.00000000000E+00 -0.00000000000E+00 -0.20781847694E+03  0.20781847694E+03  0.00000000000E+00 0. -1.
         23    2    1    2    0    0  0.21253556384E+02 -0.10071319033E+03  0.15849427392E+03  0.21210734801E+03  0.96302813297E+02 0.  0.
         23    2    1    2    0    0 -0.41539227280E+02  0.84735289031E+02  0.16890987270E+02  0.12485403289E+03  0.79985295327E+02 0.  0.
        -11    1    3    3    0    0 -0.22795838937E+02 -0.24821831770E+02  0.10278281767E+03  0.10816691367E+03  0.00000000000E+00 0.  1.
         11    1    3    3    0    0  0.44049395322E+02 -0.75891358563E+02  0.55711456245E+02  0.10394043433E+03  0.00000000000E+00 0. -1.
        -13    1    4    4    0    0 -0.65577291910E+02  0.62440910475E+02  0.81032947124E+01  0.90911560873E+02  0.00000000000E+00 0.  1.
         13    1    4    4    0    0  0.24038064630E+02  0.22294378556E+02  0.87876925580E+01  0.33942472020E+02  0.00000000000E+00 0. -1.
         21    1    1    2  502  501  0.20285670896E+02  0.15977901302E+02 -0.12571812946E+03  0.12834270470E+03  0.00000000000E+00 0. -1.
<scales pt_clust_5="13000.00000" pt_clust_6="13000.00000" pt_clust_7="13000.00000" pt_clust_8="13000.00000" pt_clust_9="25.82251"></scales>
<clustering>
<clus scale="   25.823">  2  9  1 -1</clus>
<clus scale="   79.985">  7  8 -1 -1</clus>
<clus scale="   96.303">  5  6 -1 -1</clus>
<clus scale="  127.609">  2  7  1 -1</clus>
<clus scale="   25.823">  2  5  1 -1</clus>
</clustering>
</event>
<event>
 9    1  0.1234700E-005  0.1017830E+03  0.7546771E-02  0.1277386E+00
         -1   -1    0    0    0  501 -0.00000000000E+00  0.00000000000E+00  0.48869622518E+03  0.48869622518E+03  0.00000000000E+00 0.  1.
          1   -1    0    0  502    0  0.00000000000E+00 -0.00000000000E+00 -0.34914948732E+02  0.34914948732E+02  0.00000000000E+00 0. -1.
         23    2    1    2    0    0 -0.29733279867E+02  0.17573688558E+02  0.30256269216E+03  0.31838386982E+03  0.92904270159E+02 0.  0.
         23    2    1    2    0    0  0.44579954787E+02 -0.42222687842E+02  0.12107686831E+03  0.16355573148E+03  0.91218098660E+02 0.  0.
        -11    1    3    3    0    0 -0.38628946500E+02  0.50065940245E+02  0.16359783670E+03  0.17539397382E+03  0.00000000000E+00 0. -1.
         11    1    3    3    0    0  0.88956666330E+01 -0.32492251687E+02  0.13896485546E+03  0.14298989600E+03  0.00000000000E+00 0.  1.
        -11    1    4    4    0    0  0.19955871335E+02 -0.51116733876E+02  0.12552893931E+03  0.13699880250E+03  0.00000000000E+00 0.  1.
         11    1    4    4    0    0  0.24624083452E+02  0.88940460344E+01 -0.44520709977E+01  0.26556928981E+02  0.00000000000E+00 0. -1.
         21    1    1    2  502  501 -0.14846674920E+02  0.24648999284E+02  0.30141715987E+02  0.41671572618E+02  0.00000000000E+00 0.  1.
<scales pt_clust_5="13000.00000" pt_clust_6="13000.00000" pt_clust_7="13000.00000" pt_clust_8="13000.00000" pt_clust_9="28.77494"></scales>
<clustering>
<clus scale="   28.775">  2  9  1 -1</clus>
<clus scale="   91.218">  7  8 -1 -1</clus>
<clus scale="   92.904">  5  6 -1 -1</clus>
<clus scale="  100.246">  2  7  1 -1</clus>
<clus scale="   28.775">  2  5  1 -1</clus>
</clustering>
</event>
<event>
 9    1  0.1234700E-005  0.1437492E+03  0.7546771E-02  0.1210123E+00
          2   -1    0    0  502    0  0.00000000000E+00  0.00000000000E+00  0.39300817359E+03  0.39300817359E+03  0.00000000000E+00 0. -1.
         -2   -1    0    0    0  501 -0.00000000000E+00 -0.00000000000E+00 -0.47012686461E+03  0.47012686461E+03  0.00000000000E+00 0.  1.
         23    2    1    2    0    0  0.98840360513E+02 -0.38399455554E+02 -0.33234653432E+03  0.35833318331E+03  0.81881110976E+02 0.  0.
         23    2    1    2    0    0 -0.15468069018E+03 -0.19586300011E+02 -0.51646422199E+02  0.18754438043E+03  0.90530672389E+02 0.  0.
        -11    1    3    3    0    0  0.55823576433E+02  0.12411500727E+02 -0.22385161868E+03  0.23104082804E+03  0.00000000000E+00 0.  1.
         11    1    3    3    0    0  0.43016784080E+02 -0.50810956280E+02 -0.10849491564E+03  0.12729235527E+03  0.00000000000E+00 0. -1.
        -13    1    4    4    0    0 -0.26693957510E+02  0.17858591065E+02 -0.43327863024E+02  0.53933295436E+02  0.00000000000E+00 0.  1.
         13    1    4    4    0    0 -0.12798673267E+03 -0.37444891076E+02 -0.83185591744E+01  0.13361108500E+03  0.00000000000E+00 0. -1.
         21    1    1    2  502  501  0.55840329667E+02  0.57985755565E+02  0.30687426550E+03  0.31725747445E+03  0.00000000000E+00 0. -1.
<scales pt_clust_5="13000.00000" pt_clust_6="13000.00000" pt_clust_7="13000.00000" pt_clust_8="13000.00000" pt_clust_9="80.50149"></scales>
<clustering>
<clus scale="   80.501">  1  9  2 -1</clus>
<clus scale="   81.881">  5  6 -1 -1</clus>
<clus scale="   90.531">  7  8 -1 -1</clus>
<clus scale="  138.465">  2  5  1 -1</clus>
<clus scale="   80.501">  1  5  2 -1</clus>
</clustering>
</event>
<event>
 9    1  0.1234700E-005  0.1357488E+03  0.7546771E-02  0.1220032E+00
         -2   -1    0    0    0  501 -0.00000000000E+00  0.00000000000E+00  0.56952037079E+03  0.56952037079E+03  0.00000000000E+00 0.  1.
          2   -1    0    0  502    0  0.00000000000E+00 -0.00000000000E+00 -0.42138001202E+02  0.42138001202E+02  0.00000000000E+00 0. -1.
         23    2    1    2    0    0  0.51998785944E+02  0.71574828862E+02  0.32009592261E+03  0.34524003691E+03  0.94352814222E+02 0.  0.
         23    2    1    2    0    0 -0.38995445143E+02 -0.95915694807E+02  0.15532166605E+03  0.20758039592E+03  0.90798323635E+02 0.  0.
        -11    1    4    4    0    0 -0.46990165549E+02 -0.65581169294E+02  0.43945042339E+02  0.91870191958E+02  0.00000000000E+00 0. -1.
         11    1    4    4    0    0  0.79947204060E+01 -0.30334525513E+02  0.11137662371E+03  0.11571020396E+03  0.00000000000E+00 0.  1.
        -11    1    3    3    0    0  0.59165809605E+02  0.70604134749E+01  0.10694169896E+03  0.12242127854E+03  0.00000000000E+00 0.  1.
         11    1    3    3    0    0 -0.71670236608E+01  0.64514415387E+02  0.21315422365E+03  0.22281875837E+03  0.00000000000E+00 0. -1.
         21    1    1    2  502  501 -0.13003340801E+02  0.24340865944E+02  0.51964780933E+02  0.58837939157E+02  0.00000000000E+00 0. -1.
<scales pt_clust_5="13000.00000" pt_clust_6="13000.00000" pt_clust_7="13000.00000" pt_clust_8="13000.00000" pt_clust_9="27.59646"></scales>
<clustering>
<clus scale="   27.596">  1  9  2 -1</clus>
<clus scale="   90.798">  5  6 -1 -1</clus>
<clus scale="   94.353">  7  8 -1 -1</clus>
<clus scale="  133.303">  2  5  1 -1</clus>
<clus scale="  133.303">  2  5  1 -1</clus>
</clustering>
</event>
<event>
 9    1  0.1234700E-005  0.1472688E+03  0.7546771E-02  0.1204114E+00
         -2   -1    0    0    0  501 -0.00000000000E+00  0.00000000000E+00  0.54523553865E+02  0.54523553865E+02  0.00000000000E+00 0.  1.
          2   -1    0    0  502    0  0.00000000000E+00 -0.00000000000E+00 -0.66870132994E+03  0.66870132994E+03  0.00000000000E+00 0. -1.
         23    2    1    2    0    0  0.10208293449E+03  0.89263619196E+02 -0.16518669371E+03  0.23236434872E+03  0.91201028225E+02 0.  0.
         23    2    1    2    0    0 -0.10029885208E+03 -0.44883212319E+02 -0.40132769025E+03  0.42570992180E+03  0.89948096584E+02 0.  0.
        -11    1    3    3    0    0  0.31646276179E+02  0.49237972679E+02 -0.12999725254E+02  0.59957131404E+02  0.00000000000E+00 0.  1.
         11    1    3    3    0    0  0.70436658311E+02  0.40025646516E+02 -0.15218696846E+03  0.17240721732E+03  0.00000000000E+00 0. -1.
        -13    1    4    4    0    0 -0.96989804404E+02 -0.14101103918E+01 -0.30305090349E+03  0.31819626125E+03  0.00000000000E+00 0.  1.
         13    1    4    4    0    0 -0.33090476748E+01 -0.43473101927E+02 -0.98276786760E+02  0.10751366054E+03  0.00000000000E+00 0. -1.
         21    1    1    2  502  501 -0.17840824115E+01 -0.44380406877E+02 -0.47663392116E+02  0.65150613294E+02  0.00000000000E+00 0.  1.
<scales pt_clust_5="13000.00000" pt_clust_6="13000.00000" pt_clust_7="13000.00000" pt_clust_8="13000.00000" pt_clust_9="44.41625"></scales>
<clustering>
<clus scale="   44.416">  1  9  2 -1</clus>
<clus scale="   89.948">  7  8 -1 -1</clus>
<clus scale="   91.201">  5  6 -1 -1</clus>
<clus scale="  146.496">  2  7  1 -1</clus>
<clus scale="  146.496">  2  5  1 -1</clus>
</clustering>
</event>
<event>
 9    1  0.2457572E-005  0.9958939E+02  0.7546771E-02  0.1282475E+00
         -2   -1    0    0    0  501 -0.00000000000E+00  0.00000000000E+00  0.41024223190E+03  0.41024223190E+03  0.00000000000E+00 0.  1.
          2   -1    0    0  502    0  0.00000000000E+00 -0.00000000000E+00 -0.18003087331E+03  0.18003087331E+03  0.00000000000E+00 0. -1.
         23    2    1    2    0    0  0.27010099250E+02 -0.20785209759E+02  0.38083785616E+03  0.39298150737E+03  0.90749226158E+02 0.  0.
         23    2    1    2    0    0 -0.47629744076E+02  0.16190348329E+02 -0.12095092315E+03  0.16086465422E+03  0.93368041995E+02 0.  0.
        -11    1    4    4    0    0 -0.44836181195E+02 -0.33046501513E+02 -0.75312459501E+02  0.93671345472E+02  0.00000000000E+00 0.  1.
         11    1    4    4    0    0 -0.27935628811E+01  0.49236849842E+02 -0.45638463651E+02  0.67193308747E+02  0.00000000000E+00 0. -1.
        -13    1    3    3    0    0  0.14994430109E+02 -0.56888961545E+02  0.23771099927E+03  0.24488304566E+03  0.00000000000E+00 0.  1.
         13    1    3    3    0    0  0.12015669140E+02  0.36103751786E+02  0.14312685689E+03  0.14809846171E+03  0.00000000000E+00 0. -1.
         21    1    1    2  502  501  0.20619644827E+02  0.45948614293E+01 -0.29675574414E+02  0.36426943615E+02  0.00000000000E+00 0.  1.
<scales pt_clust_5="13000.00000" pt_clust_6="13000.00000" pt_clust_7="13000.00000" pt_clust_8="13000.00000" pt_clust_9="21.12540"></scales>
<clustering>
<clus scale="   21.125">  2  9  1 -1</clus>
<clus scale="   90.749">  7  8 -1 -1</clus>
<clus scale="   93.368">  5  6 -1 -1</clus>
<clus scale="   97.138">  1  7  2 -1</clus>
<clus scale="   21.125">  2  5  1 -1</clus>
</clustering>
</event>
<event>
 9    1  0.1234700E-005  0.1106068E+03  0.7546771E-02  0.1263195E+00
          1   -1    0    0  502    0  0.00000000000E+00  0.00000000000E+00  0.28920462920E+03  0.28920462920E+03  0.00000000000E+00 0. -1.
         -1   -1    0    0    0  501 -0.00000000000E+00 -0.00000000000E+00 -0.16225470665E+03  0.16225470665E+03  0.00000000000E+00 0.  1.
         23    2    1    2    0    0 -0.20584356183E+02 -0.12195668315E+02 -0.11968974189E+03  0.15313830547E+03  0.92483816119E+02 0.  0.
         23    2    1    2    0    0  0.16635408502E+02  0.44132264950E+02  0.24110366142E+03  0.26566850029E+03  0.10111569053E+03 0.  0.
        -11    1    4    4    0    0  0.33414838237E+02  0.63798762732E+02  0.10624493155E+03  0.12835427153E+03  0.00000000000E+00 0.  1.
         11    1    4    4    0    0 -0.16779429735E+02 -0.19666497782E+02  0.13485872987E+03  0.13731422875E+03  0.00000000000E+00 0. -1.
        -13    1    3    3    0    0 -0.50736168704E+02  0.94762401449E+01 -0.40262996934E+02  0.65460422120E+02  0.00000000000E+00 0. -1.
         13    1    3    3    0    0  0.30151812521E+02 -0.21671908460E+02 -0.79426744955E+02  0.87677883350E+02  0.00000000000E+00 0.  1.
         21    1    1    2  502  501  0.39489476817E+01 -0.31936596635E+02  0.55360030198E+01  0.32652530099E+02  0.00000000000E+00 0. -1.
<scales pt_clust_5="13000.00000" pt_clust_6="13000.00000" pt_clust_7="13000.00000" pt_clust_8="13000.00000" pt_clust_9="32.17981"></scales>
<clustering>
<clus scale="   32.180">  2  9  1 -1</clus>
<clus scale="   92.484">  7  8 -1 -1</clus>
<clus scale="  101.116">  5  6 -1 -1</clus>
<clus scale="  102.775">  2  7  1 -1</clus>
<clus scale="  110.607">  1  5  2 -1</clus>
</clustering>
</event>
<event>
 9    1  0.1234700E-005  0.1398317E+03  0.7546771E-02  0.1213898E+00
          1   -1    0    0  502    0  0.00000000000E+00  0.00000000000E+00  0.21591011569E+02  0.21591011569E+02  0.00000000000E+00 0. -1.
         -1   -1    0    0    0  501 -0.00000000000E+00 -0.00000000000E+00 -0.11913999157E+04  0.11913999157E+04  0.00000000000E+00 0.  1.
         23    2    1    2    0    0 -0.11052974814E+03  0.96925597641E+01 -0.66356395215E+03  0.67849852614E+03  0.87933841275E+02 0.  0.
         23    2    1    2    0    0  0.97741822251E+02 -0.38355347585E+02 -0.44115529158E+03  0.46223072148E+03  0.89524589284E+02 0.  0.
        -11    1    3    3    0    0 -0.11020177746E+03 -0.19566302394E+02 -0.50460787230E+03  0.51687172174E+03  0.00000000000E+00 0.  1.
         11    1    3    3    0    0 -0.32797067520E+00  0.29258862158E+02 -0.15895607985E+03  0.16162680440E+03  0.00000000000E+00 0. -1.
        -11    1    4    4    0    0 -0.30569016019E+01 -0.32289039510E+02 -0.16581058614E+03  0.16895288455E+03  0.00000000000E+00 0.  1.
         11    1    4    4    0    0  0.10079872385E+03 -0.60663080749E+01 -0.27534470544E+03  0.29327783694E+03  0.00000000000E+00 0. -1.
         21    1    1    2  502  501  0.12787925884E+02  0.28662787821E+02 -0.65089660359E+02  0.72261679608E+02  0.00000000000E+00 0. -1.
<scales pt_clust_5="13000.00000" pt_clust_6="13000.00000" pt_clust_7="13000.00000" pt_clust_8="13000.00000" pt_clust_9="31.38609"></scales>
<clustering>
<clus scale="   31.386">  1  9  2 -1</clus>
<clus scale="   87.934">  5  6 -1 -1</clus>
<clus scale="   89.525">  7  8 -1 -1</clus>
<clus scale="  138.819">  2  5  1 -1</clus>
<clus scale="   31.386">  1  5  2 -1</clus>
</clustering>
</event>
<event>
 9    1  0.1234700E-005  0.3368202E+03  0.7546771E-02  0.1082415E+00
         -1   -1    0    0    0  501 -0.00000000000E+00  0.00000000000E+00  0.18063559065E+03  0.18063559065E+03  0.00000000000E+00 0.  1.
          1   -1    0    0  502    0  0.00000000000E+00 -0.00000000000E+00 -0.14157444511E+04  0.14157444511E+04  0.00000000000E+00 0. -1.
         23    2    1    2    0    0 -0.82834588253E+02 -0.19219465699E+03 -0.77123903973E+02  0.24127415323E+03  0.92004158950E+02 0.  0.
         23    2    1    2    0    0 -0.27602297045E+03  0.11047279049E+03 -0.35154929258E+03  0.46865471055E+03  0.87506656655E+02 0.  0.
        -11    1    3    3    0    0 -0.88296848484E+02 -0.11188707229E+03 -0.23247299114E+02  0.14441429055E+03  0.00000000000E+00 0.  1.
         11    1    3    3    0    0  0.54622602309E+01 -0.80307584700E+02 -0.53876604859E+02  0.96859862679E+02  0.00000000000E+00 0. -1.
        -11    1    4    4    0    0 -0.81016625429E+02  0.65965272072E+02 -0.16405325166E+03  0.19449570714E+03  0.00000000000E+00 0.  1.
         11    1    4    4    0    0 -0.19500634502E+03  0.44507518415E+02 -0.18749604092E+03  0.27415900342E+03  0.00000000000E+00 0. -1.
         21    1    1    2  502  501  0.35885755870E+03  0.81721866505E+02 -0.80643566395E+03  0.88645117801E+03  0.00000000000E+00 0. -1.
<scales pt_clust_5="13000.00000" pt_clust_6="13000.00000" pt_clust_7="13000.00000" pt_clust_8="13000.00000" pt_clust_9="325.25438"></scales>
<clustering>
<clus scale="   87.507">  7  8 -1 -1</clus>
<clus scale="   92.004">  5  6 -1 -1</clus>
<clus scale="  228.616">  1  5  2 -1</clus>
<clus scale="  325.254">  2  9  1 -1</clus>
<clus scale="  325.254">  2  5  1 -1</clus>
</clustering>
</event>
<event>
 9    1  0.1234700E-005  0.1188707E+03  0.7546771E-02  0.1248019E+00
         -2   -1    0    0    0  501 -0.00000000000E+00  0.00000000000E+00  0.34067487597E+02  0.34067487597E+02  0.00000000000E+00 0.  1.
          2   -1    0    0  502    0  0.00000000000E+00 -0.00000000000E+00 -0.10237837064E+04  0.10237837064E+04  0.00000000000E+00 0. -1.
         23    2    1    2    0    0 -0.58368404960E+02  0.29378239578E+02 -0.13953114256E+03  0.18310486776E+03  0.98936854589E+02 0.  0.
         23    2    1    2    0    0  0.84628564837E+02  0.40570128669E+02 -0.50096421878E+03  0.51762228966E+03  0.90331372849E+02 0.  0.
        -11    1    3    3    0    0  0.14039561926E+02 -0.23145193096E+02 -0.19292246778E+02  0.33241541003E+02  0.00000000000E+00 0. -1.
         11    1    3    3    0    0 -0.72407966886E+02  0.52523432674E+02 -0.12023889578E+03  0.14986332676E+03  0.00000000000E+00 0.  1.
        -13    1    4    4    0    0 -0.12606978366E+01 -0.21917316097E+02 -0.12627959910E+03  0.12817369173E+03  0.00000000000E+00 0.  1.
         13    1    4    4    0    0  0.85889262674E+02  0.62487444766E+02 -0.37468461969E+03  0.38944859793E+03  0.00000000000E+00 0. -1.
         21    1    1    2  502  501 -0.26260159877E+02 -0.69948368247E+02 -0.34922085749E+03  0.35712403661E+03  0.00000000000E+00 0.  1.
<scales pt_clust_5="13000.00000" pt_clust_6="13000.00000" pt_clust_7="13000.00000" pt_clust_8="13000.00000" pt_clust_9="74.71526"></scales>
<clustering>
<clus scale="   74.715">  2  9  1 -1</clus>
<clus scale="   90.331">  7  8 -1 -1</clus>
<clus scale="   98.937">  5  6 -1 -1</clus>
<clus scale="  111.810">  2  7  1 -1</clus>
<clus scale="   74.715">  2  5  1 -1</clus>
</clustering>
</event>
<event>
 9    1  0.1234700E-005  0.2544691E+03  0.7546771E-02  0.1110610E+00
          1   -1    0    0  502    0  0.00000000000E+00  0.00000000000E+00  0.19847522119E+03  0.19847522119E+03  0.00000000000E+00 0. -1.
         -1   -1    0    0    0  501 -0.00000000000E+00 -0.00000000000E+00 -0.45920935014E+03  0.45920935014E+03  0.00000000000E+00 0.  1.
         23    2    1    2    0    0  0.20104122843E+03  0.14527680385E+03 -0.27239936215E+03  0.37911362728E+03  0.89458396063E+02 0.  0.
         23    2    1    2    0    0 -0.18923907719E+03 -0.10287634619E+03  0.43920514703E+01  0.23396165403E+03  0.91234831624E+02 0.  0.
        -11    1    3    3    0    0  0.26935839433E+02  0.27502251408E+02 -0.47453298918E+01  0.38787000841E+02  0.00000000000E+00 0. -1.
         11    1    3    3    0    0  0.17410538900E+03  0.11777455244E+03 -0.26765403226E+03  0.34032662644E+03  0.00000000000E+00 0.  1.
        -13    1    4    4    0    0 -0.12896364545E+03 -0.28926970424E+02 -0.24203140213E+02  0.13436585676E+03  0.00000000000E+00 0.  1.
         13    1    4    4    0    0 -0.60275431733E+02 -0.73949375769E+02  0.28595191683E+02  0.99595797274E+02  0.00000000000E+00 0. -1.
         21    1    1    2  502  501 -0.11802151245E+02 -0.42400457654E+02  0.72731817324E+01  0.44609290017E+02  0.00000000000E+00 0. -1.
<scales pt_clust_5="13000.00000" pt_clust_6="13000.00000" pt_clust_7="13000.00000" pt_clust_8="13000.00000" pt_clust_9="44.01238"></scales>
<clustering>
<clus scale="   44.012">  1  9  2 -1</clus>
<clus scale="   89.458">  5  6 -1 -1</clus>
<clus scale="   91.235">  7  8 -1 -1</clus>
<clus scale="  253.838">  2  5  1 -1</clus>
<clus scale="   44.012">  1  5  2 -1</clus>
</clustering>
</event>
<event>
 9    1  0.1234700E-005  0.1258989E+03  0.7546771E-02  0.1234229E+00
         -1   -1    0    0    0  501 -0.00000000000E+00  0.00000000000E+00  0.15148194513E+03  0.15148194513E+03  0.00000000000E+00 0.  1.
          1   -1    0    0  502    0  0.00000000000E+00 -0.00000000000E+00 -0.45341977526E+03  0.45341977526E+03  0.00000000000E+00 0. -1.
         23    2    1    2    0    0 -0.80236379645E+02  0.27070532797E+02  0.10148552584E+03  0.16052034959E+03  0.91086663741E+02 0.  0.
         23    2    1    2    0    0  0.11334503102E+03 -0.25891204611E+02 -0.36696785366E+03  0.39512106975E+03  0.89094352280E+02 0.  0.
        -11    1    3    3    0    0 -0.84108656394E+02 -0.10895752917E+02  0.58455523455E+02  0.10300500830E+03  0.00000000000E+00 0.  1.
         11    1    3    3    0    0  0.38722767487E+01  0.37966285714E+02  0.43030002388E+02  0.57515341289E+02  0.00000000000E+00 0. -1.
        -13    1    4    4    0    0 -0.74416469674E+01 -0.24486666734E+02 -0.59073374992E+02  0.64378867576E+02  0.00000000000E+00 0.  1.
         13    1    4    4    0    0  0.12078667798E+03 -0.14045378769E+01 -0.30789447867E+03  0.33074220217E+03  0.00000000000E+00 0. -1.
         21    1    1    2  502  501 -0.33108651373E+02 -0.11793281863E+01 -0.36455502308E+02  0.49260301047E+02  0.00000000000E+00 0.  1.
<scales pt_clust_5="13000.00000" pt_clust_6="13000.00000" pt_clust_7="13000.00000" pt_clust_8="13000.00000" pt_clust_9="33.12965"></scales>
<clustering>
<clus scale="   33.130">  2  9  1 -1</clus>
<clus scale="   89.094">  7  8 -1 -1</clus>
<clus scale="   91.087">  5  6 -1 -1</clus>
<clus scale="  124.465">  2  7  1 -1</clus>
<clus scale="   33.130">  2  5  1 -1</clus>
</clustering>
</event>
<event>
 9    1  0.1234700E-005  0.1199218E+03  0.7546771E-02  0.1244181E+00
         -2   -1    0    0    0  501 -0.00000000000E+00  0.00000000000E+00  0.23782258372E+03  0.23782258372E+03  0.00000000000E+00 0.  1.
          2   -1    0    0  502    0  0.00000000000E+00 -0.00000000000E+00 -0.93305854168E+02  0.93305854168E+02  0.00000000000E+00 0. -1.
         23    2    1    2    0    0 -0.42676454360E+02  0.63771764095E+02  0.94335925570E+02  0.15171217427E+03  0.90714934366E+02 0.  0.
         23    2    1    2    0    0  0.21242228596E+02 -0.71527655828E+02  0.78405488786E+02  0.14313661749E+03  0.93665536727E+02 0.  0.
        -13    1    4    4    0    0 -0.22792423467E+02 -0.71694810604E+02  0.55598720375E+02  0.93546021521E+02  0.00000000000E+00 0. -1.
         13    1    4    4    0    0  0.44034652063E+02  0.16715477614E+00  0.22806768411E+02  0.49590595967E+02  0.00000000000E+00 0.  1.
        -13    1    3    3    0    0  0.27818254989E+02  0.16187952848E+02  0.37500446405E+02  0.49418504719E+02  0.00000000000E+00 0.  1.
         13    1    3    3    0    0 -0.70494709350E+02  0.47583811247E+02  0.56835479166E+02  0.10229366956E+03  0.00000000000E+00 0. -1.
         21    1    1    2  502  501  0.21434225765E+02  0.77558917333E+01 -0.28224684805E+02  0.36279646126E+02  0.00000000000E+00 0. -1.
<scales pt_clust_5="13000.00000" pt_clust_6="13000.00000" pt_clust_7="13000.00000" pt_clust_8="13000.00000" pt_clust_9="22.79430"></scales>
<clustering>
<clus scale="   22.794">  2  9  1 -1</clus>
<clus scale="   90.715">  7  8 -1 -1</clus>
<clus scale="   93.666">  5  6 -1 -1</clus>
<clus scale="  117.632">  1  7  2 -1</clus>
<clus scale="   22.794">  2  5  1 -1</clus>
</clustering>
</event>
<event>
 9    1  0.1234700E-005  0.9674119E+02  0.7546771E-02  0.1288018E+00
          1   -1    0    0  502    0  0.00000000000E+00  0.00000000000E+00  0.47943632052E+03  0.47943632052E+03  0.00000000000E+00 0. -1.
         -1   -1    0    0    0  501 -0.00000000000E+00 -0.00000000000E+00 -0.29898728816E+02  0.29898728816E+02  0.00000000000E+00 0.  1.
         23    2    1    2    0    0  0.34814902077E+02 -0.30847780675E+02  0.12121390763E+03  0.15713679831E+03  0.88518354025E+02 0.  0.
         23    2    1    2    0    0 -0.22441375294E+02  0.13987207612E+01  0.20813237854E+03  0.22783466625E+03  0.89910935943E+02 0.  0.
        -11    1    3    3    0    0  0.48203399522E+02  0.48944808121E+00  0.23456051130E+02  0.53609641106E+02  0.00000000000E+00 0.  1.
         11    1    3    3    0    0 -0.13388497445E+02 -0.31337228756E+02  0.97757856502E+02  0.10352715720E+03  0.00000000000E+00 0. -1.
        -13    1    4    4    0    0  0.28700152015E+02  0.16713528925E+02  0.43285624388E+02  0.54559014411E+02  0.00000000000E+00 0.  1.
         13    1    4    4    0    0 -0.51141527309E+02 -0.15314808164E+02  0.16484675415E+03  0.17327565184E+03  0.00000000000E+00 0. -1.
         21    1    1    2  502  501 -0.12373526782E+02  0.29449059914E+02  0.12019130553E+03  0.12436358478E+03  0.00000000000E+00 0.  1.
<scales pt_clust_5="13000.00000" pt_clust_6="13000.00000" pt_clust_7="13000.00000" pt_clust_8="13000.00000" pt_clust_9="31.94294"></scales>
<clustering>
<clus scale="   31.943">  1  9  2 -1</clus>
<clus scale="   88.518">  5  6 -1 -1</clus>
<clus scale="   89.911">  7  8 -1 -1</clus>
<clus scale="   95.448">  2  5  1 -1</clus>
<clus scale="   31.943">  1  5  2 -1</clus>
</clustering>
</event>
<event>
 9    1  0.1234700E-005  0.1914456E+03  0.7546771E-02  0.1159208E+00
          1   -1    0    0  502    0  0.00000000000E+00  0.00000000000E+00  0.22255912853E+03  0.22255912853E+03  0.00000000000E+00 0. -1.
         -1   -1    0    0    0  501 -0.00000000000E+00 -0.00000000000E+00 -0.48177570842E+03  0.48177570842E+03  0.00000000000E+00 0.  1.
         23    2    1    2    0    0  0.16080632361E+03 -0.47757086673E+02 -0.38019026830E+03  0.42569043314E+03  0.92348750494E+02 0.  0.
         23    2    1    2    0    0 -0.14354792306E+03  0.10005102030E+03  0.64888230485E+02  0.20004359926E+03  0.72046833889E+02 0.  0.
        -11    1    4    4    0    0 -0.12346844992E+03  0.92088182448E+02  0.26922973076E+02  0.15636348024E+03  0.00000000000E+00 0. -1.
         11    1    4    4    0    0 -0.20079473136E+02  0.79628378534E+01  0.37965257408E+02  0.43680119027E+02  0.00000000000E+00 0.  1.
        -13    1    3    3    0    0  0.89453531581E+02 -0.18072308315E+02 -0.30306900824E+03  0.31651124213E+03  0.00000000000E+00 0.  1.
         13    1    3    3    0    0  0.71352792030E+02 -0.29684778358E+02 -0.77121260065E+02  0.10917919102E+03  0.00000000000E+00 0. -1.
         21    1    1    2  502  501 -0.17258400555E+02 -0.52293933629E+02  0.56085457931E+02  0.78600804547E+02  0.00000000000E+00 0. -1.
<scales pt_clust_5="13000.00000" pt_clust_6="13000.00000" pt_clust_7="13000.00000" pt_clust_8="13000.00000" pt_clust_9="55.06821"></scales>
<clustering>
<clus scale="   55.068">  1  9  2 -1</clus>
<clus scale="   72.047">  5  6 -1 -1</clus>
<clus scale="   92.349">  7  8 -1 -1</clus>
<clus scale="  182.521">  1  5  2 -1</clus>
<clus scale="   55.068">  1  5  2 -1</clus>
</clustering>
</event>
<event>
 9    1  0.1234700E-005  0.1193709E+03  0.7546771E-02  0.1244595E+00
         -1   -1    0    0    0  501 -0.00000000000E+00  0.00000000000E+00  0.49564722775E+02  0.49564722775E+02  0.00000000000E+00 0.  1.
          1   -1    0    0  502    0  0.00000000000E+00 -0.00000000000E+00 -0.55557542225E+03  0.55557542225E+03  0.00000000000E+00 0. -1.
         23    2    1    2    0    0  0.77265644146E+02  0.97843071155E+01 -0.50905870480E+02  0.13024876535E+03  0.91146150741E+02 0.  0.
         23    2    1    2    0    0 -0.62316974184E+02 -0.23799072468E+02 -0.36180511555E+03  0.37936801651E+03  0.92559976181E+02 0.  0.
        -11    1    3    3    0    0  0.86130281984E+02 -0.18004701150E+02 -0.25620284619E+02  0.91646024039E+02  0.00000000000E+00 0.  1.
         11    1    3    3    0    0 -0.88646378382E+01  0.27789008266E+02 -0.25285585861E+02  0.38602741311E+02  0.00000000000E+00 0. -1.
        -13    1    4    4    0    0  0.33122710195E+01  0.25836923895E+02 -0.44463632654E+02  0.51531858151E+02  0.00000000000E+00 0.  1.
         13    1    4    4    0    0 -0.65629245204E+02 -0.49635996363E+02 -0.31734148289E+03  0.32783615836E+03  0.00000000000E+00 0. -1.
         21    1    1    2  502  501 -0.14948669961E+02  0.14014765352E+02 -0.93299713451E+02  0.95523363171E+02  0.00000000000E+00 0. -1.
<scales pt_clust_5="13000.00000" pt_clust_6="13000.00000" pt_clust_7="13000.00000" pt_clust_8="13000.00000" pt_clust_9="20.49089"></scales>
<clustering>
<clus scale="   20.491">  2  9  1 -1</clus>
<clus scale="   91.146">  5  6 -1 -1</clus>
<clus scale="   92.560">  7  8 -1 -1</clus>
<clus scale="  118.278">  1  5  2 -1</clus>
<clus scale="   20.491">  2  5  1 -1</clus>
</clustering>
</event>
<event>
 9    1  0.1234700E-005  0.1861292E+03  0.7546771E-02  0.1162393E+00
         -1   -1    0    0    0  501 -0.00000000000E+00  0.00000000000E+00  0.46749309674E+03  0.46749309674E+03  0.00000000000E+00 0.  1.
          1   -1    0    0  502    0  0.00000000000E+00 -0.00000000000E+00 -0.33926669050E+03  0.33926669050E+03  0.00000000000E+00 0. -1.
         23    2    1    2    0    0  0.14704399071E+03  0.86853274974E+02  0.32770661752E+03  0.38044158263E+03  0.90436408902E+02 0.  0.
         23    2    1    2    0    0 -0.10372320172E+03 -0.10284247761E+03  0.46363217386E+02  0.17617557175E+03  0.86909184674E+02 0.  0.
        -13    1    4    4    0    0  0.28192442975E+01 -0.50284507036E+02  0.21711493596E+02  0.54844040154E+02  0.00000000000E+00 0.  1.
         13    1    4    4    0    0 -0.10654244602E+03 -0.52557970569E+02  0.24651723790E+02  0.12133153160E+03  0.00000000000E+00 0. -1.
        -13    1    3    3    0    0  0.43005285818E+02  0.57856118018E+02  0.67695796657E+02  0.98891384283E+02  0.00000000000E+00 0.  1.
         13    1    3    3    0    0  0.10403870489E+03  0.28997156955E+02  0.26001082086E+03  0.28155019835E+03  0.00000000000E+00 0. -1.
         21    1    1    2  502  501 -0.43320788984E+02  0.15989202632E+02 -0.24584342866E+03  0.25014263286E+03  0.00000000000E+00 0. -1.
<scales pt_clust_5="13000.00000" pt_clust_6="13000.00000" pt_clust_7="13000.00000" pt_clust_8="13000.00000" pt_clust_9="46.17733"></scales>
<clustering>
<clus scale="   46.177">  2  9  1 -1</clus>
<clus scale="   86.909">  5  6 -1 -1</clus>
<clus scale="   90.436">  7  8 -1 -1</clus>
<clus scale="  184.441">  2  5  1 -1</clus>
<clus scale="   46.177">  2  5  1 -1</clus>
</clustering>
</event>
<event>
 9    1  0.1234700E-005  0.9743552E+02  0.7546771E-02  0.1286484E+00
         -3   -1    0    0    0  501 -0.00000000000E+00  0.00000000000E+00  0.86608775895E+02  0.86608775895E+02  0.00000000000E+00 0.  1.
          3   -1    0    0  502    0  0.00000000000E+00 -0.00000000000E+00 -0.46691217264E+03  0.46691217264E+03  0.00000000000E+00 0. -1.
         23    2    1    2    0    0  0.28046472817E+02  0.14953062960E+02  0.45827319231E+02  0.10793586131E+03  0.92411082888E+02 0.  0.
         23    2    1    2    0    0 -0.67175753730E+01 -0.27469627121E+02 -0.39203948079E+03  0.40346859923E+03  0.91061791263E+02 0.  0.
        -11    1    4    4    0    0  0.42058950934E+02 -0.15326992063E+02 -0.16821538865E+03  0.17406978204E+03  0.00000000000E+00 0. -1.
         11    1    4    4    0    0 -0.48776526307E+02 -0.12142635058E+02 -0.22382409214E+03  0.22939881719E+03  0.00000000000E+00 0.  1.
        -11    1    3    3    0    0 -0.21086537877E+02  0.89439639704E+01  0.53171281760E+02  0.57894920115E+02  0.00000000000E+00 0.  1.
         11    1    3    3    0    0  0.49133010694E+02  0.60090989897E+01 -0.73439625284E+01  0.50040941200E+02  0.00000000000E+00 0. -1.
         21    1    1    2  502  501 -0.21328897444E+02  0.12516564161E+02 -0.34091235179E+02  0.42116487990E+02  0.00000000000E+00 0.  1.
<scales pt_clust_5="13000.00000" pt_clust_6="13000.00000" pt_clust_7="13000.00000" pt_clust_8="13000.00000" pt_clust_9="24.73027"></scales>
<clustering>
<clus scale="   24.730">  2  9  1 -1</clus>
<clus scale="   91.062">  5  6 -1 -1</clus>
<clus scale="   92.411">  7  8 -1 -1</clus>
<clus scale="   96.157">  2  5  1 -1</clus>
<clus scale="   24.730">  2  5  1 -1</clus>
</clustering>
</event>
<event>
 9    1  0.1234700E-005  0.1253979E+03  0.7546771E-02  0.1234837E+00
          1   -1    0    0  502    0  0.00000000000E+00  0.00000000000E+00  0.21057538818E+03  0.21057538818E+03  0.00000000000E+00 0. -1.
         -1   -1    0    0    0  501 -0.00000000000E+00 -0.00000000000E+00 -0.13721953920E+03  0.13721953920E+03  0.00000000000E+00 0.  1.
         23    2    1    2    0    0  0.96126278306E+02 -0.39560615524E+02 -0.21976000183E+02  0.14046278880E+03  0.91877890549E+02 0.  0.
         23    2    1    2    0    0 -0.57261662992E+02 -0.19730795761E+02  0.73045120360E+02  0.13301775197E+03  0.93219796078E+02 0.  0.
        -11    1    3    3    0    0  0.85596506759E+02 -0.68814409849E+01  0.18028754991E+02  0.87744812986E+02  0.00000000000E+00 0. -1.
         11    1    3    3    0    0  0.10529771547E+02 -0.32679174539E+02 -0.40004755174E+02  0.52717975814E+02  0.00000000000E+00 0.  1.
        -13    1    4    4    0    0 -0.73424855395E+02 -0.41268129587E+02  0.56178758849E+02  0.10124386823E+03  0.00000000000E+00 0. -1.
         13    1    4    4    0    0  0.16163192403E+02  0.21537333825E+02  0.16866361511E+02  0.31773883735E+02  0.00000000000E+00 0.  1.
         21    1    1    2  502  501 -0.38864615315E+02  0.59291411285E+02  0.22286728804E+02  0.74314386605E+02  0.00000000000E+00 0. -1.
<scales pt_clust_5="13000.00000" pt_clust_6="13000.00000" pt_clust_7="13000.00000" pt_clust_8="13000.00000" pt_clust_9="70.89379"></scales>
<clustering>
<clus scale="   70.894">  1  9  2 -1</clus>
<clus scale="   91.878">  5  6 -1 -1</clus>
<clus scale="   93.220">  7  8 -1 -1</clus>
<clus scale="  124.404">  2  5  1 -1</clus>
<clus scale="   70.894">  1  5  2 -1</clus>
</clustering>
</event>
<event>
 9    1  0.1234700E-005  0.1352137E+03  0.7546771E-02  0.1221583E+00
          2   -1    0    0  502    0  0.00000000000E+00  0.00000000000E+00  0.73979034646E+03  0.73979034646E+03  0.00000000000E+00 0. -1.
         -2   -1    0    0    0  501 -0.00000000000E+00 -0.00000000000E+00 -0.28674960269E+02  0.28674960269E+02  0.00000000000E+00 0.  1.
         23    2    1    2    0    0 -0.98590251100E+02 -0.53443901618E+00  0.29585894135E+03  0.32686756992E+03  0.97926359309E+02 0.  0.
         23    2    1    2    0    0  0.86001921788E+02  0.19932732608E+02  0.34831738828E+03  0.37077685626E+03  0.91415697673E+02 0.  0.
        -11    1    4    4    0    0  0.55641358335E+02 -0.20525889248E+02  0.91596627105E+02  0.10912018596E+03  0.00000000000E+00 0.  1.
         11    1    4    4    0    0  0.30360563453E+02  0.40458621856E+02  0.25672076117E+03  0.26165667030E+03  0.00000000000E+00 0. -1.
        -13    1    3    3    0    0  0.65376372071E+01 -0.29065942097E+02  0.55981404320E+02  0.63415197862E+02  0.00000000000E+00 0. -1.
         13    1    3    3    0    0 -0.10512788831E+03  0.28531503081E+02  0.23987753703E+03  0.26345237206E+03  0.00000000000E+00 0.  1.
         21    1    1    2  502  501  0.12588329311E+02 -0.19398293592E+02  0.66939056559E+02  0.70820880552E+02  0.00000000000E+00 0. -1.
<scales pt_clust_5="13000.00000" pt_clust_6="13000.00000" pt_clust_7="13000.00000" pt_clust_8="13000.00000" pt_clust_9="23.12487"></scales>
<clustering>
<clus scale="   23.125">  1  9  2 -1</clus>
<clus scale="   91.416">  5  6 -1 -1</clus>
<clus scale="   97.926">  7  8 -1 -1</clus>
<clus scale="  130.576">  1  5  2 -1</clus>
<clus scale="   23.125">  1  5  2 -1</clus>
</clustering>
</event>
<event>
 9    1  0.1234700E-005  0.1091058E+03  0.7546771E-02  0.1263075E+00
         -3   -1    0    0    0  501 -0.00000000000E+00  0.00000000000E+00  0.10730965823E+03  0.10730965823E+03  0.00000000000E+00 0.  1.
          3   -1    0    0  502    0  0.00000000000E+00 -0.00000000000E+00 -0.51262559080E+03  0.51262559080E+03  0.00000000000E+00 0. -1.
         23    2    1    2    0    0 -0.55785142843E+02 -0.27387021228E+01  0.67448209209E+02  0.12933008252E+03  0.95171039022E+02 0.  0.
         23    2    1    2    0    0  0.29133798996E+02  0.62081732123E+00 -0.29195019111E+03  0.30782534179E+03  0.93125524437E+02 0.  0.
        -11    1    3    3    0    0 -0.96943699303E+01 -0.45234248371E+02  0.18625488620E+02  0.49870099863E+02  0.00000000000E+00 0. -1.
         11    1    3    3    0    0 -0.46090772913E+02  0.42495546248E+02  0.48822720589E+02  0.79459982660E+02  0.00000000000E+00 0.  1.
        -11    1    4    4    0    0 -0.30034458059E+02  0.17253877207E+02 -0.80787787511E+02  0.87900122642E+02  0.00000000000E+00 0.  1.
         11    1    4    4    0    0  0.59168257055E+02 -0.16633059885E+02 -0.21116240360E+03  0.21992521915E+03  0.00000000000E+00 0. -1.
         21    1    1    2  502  501  0.26651343848E+02  0.21178848016E+01 -0.18081395067E+03  0.18277982472E+03  0.00000000000E+00 0. -1.
<scales pt_clust_5="13000.00000" pt_clust_6="13000.00000" pt_clust_7="13000.00000" pt_clust_8="13000.00000" pt_clust_9="26.73536"></scales>
<clustering>
<clus scale="   26.735">  2  9  1 -1</clus>
<clus scale="   93.126">  7  8 -1 -1</clus>
<clus scale="   95.171">  5  6 -1 -1</clus>
<clus scale="  107.326">  2  7  1 -1</clus>
<clus scale="   26.735">  2  5  1 -1</clus>
</clustering>
</event>
<event>
 9    1  0.1234700E-005  0.1174143E+03  0.7546771E-02  0.1249762E+00
          1   -1    0    0  502    0  0.00000000000E+00  0.00000000000E+00  0.59570017079E+03  0.59570017079E+03  0.00000000000E+00 0. -1.
         -1   -1    0    0    0  501 -0.00000000000E+00 -0.00000000000E+00 -0.58507485322E+02  0.58507485322E+02  0.00000000000E+00 0.  1.
         23    2    1    2    0    0 -0.68490156072E+02  0.14896051746E+02  0.28768562717E+02  0.11872690777E+03  0.91409269725E+02 0.  0.
         23    2    1    2    0    0  0.80807108337E+02 -0.49542379369E+02  0.33580075723E+03  0.35898456806E+03  0.84401039310E+02 0.  0.
        -11    1    4    4    0    0  0.55753586619E+02  0.12730001297E+02  0.19109413591E+03  0.19946800278E+03  0.00000000000E+00 0.  1.
         11    1    4    4    0    0  0.25053521718E+02 -0.62272380667E+02  0.14470662132E+03  0.15951656528E+03  0.00000000000E+00 0. -1.
        -11    1    3    3    0    0 -0.45947423539E+02 -0.17325290617E+02  0.53225803865E+02  0.72417660980E+02  0.00000000000E+00 0. -1.
         11    1    3    3    0    0 -0.22542732533E+02  0.32221342363E+02 -0.24457241148E+02  0.46309246790E+02  0.00000000000E+00 0.  1.
         21    1    1    2  502  501 -0.12316952265E+02  0.34646327624E+02  0.17262336552E+03  0.17649618028E+03  0.00000000000E+00 0.  1.
<scales pt_clust_5="13000.00000" pt_clust_6="13000.00000" pt_clust_7="13000.00000" pt_clust_8="13000.00000" pt_clust_9="36.77058"></scales>
<clustering>
<clus scale="   36.771">  1  9  2 -1</clus>
<clus scale="   84.401">  5  6 -1 -1</clus>
<clus scale="   91.409">  7  8 -1 -1</clus>
<clus scale="  112.045">  1  5  2 -1</clus>
<clus scale="   36.771">  1  5  2 -1</clus>
</clustering>
</event>
<event>
 9    1  0.1234700E-005  0.1424995E+03  0.7546771E-02  0.1210995E+00
         -1   -1    0    0    0  501 -0.00000000000E+00  0.00000000000E+00  0.18313617863E+03  0.18313617863E+03  0.00000000000E+00 0.  1.
          1   -1    0    0  502    0  0.00000000000E+00 -0.00000000000E+00 -0.34747417334E+03  0.34747417334E+03  0.00000000000E+00 0. -1.
         23    2    1    2    0    0  0.57278779155E+02  0.90701167835E+02  0.11700741994E+03  0.18671685601E+03  0.98310160257E+02 0.  0.
         23    2    1    2    0    0 -0.35384094026E+02 -0.80472295379E+02 -0.10546257535E+03  0.16635820305E+03  0.93940792460E+02 0.  0.
        -11    1    3    3    0    0  0.32175266957E+02  0.52365904969E+02  0.43597601869E+00  0.61462394047E+02  0.00000000000E+00 0. -1.
         11    1    3    3    0    0  0.25103512198E+02  0.38335262867E+02  0.11657144393E+03  0.12525446197E+03  0.00000000000E+00 0.  1.
        -13    1    4    4    0    0 -0.62512309704E+02 -0.76496414967E+02 -0.94866161194E+02  0.13696378685E+03  0.00000000000E+00 0. -1.
         13    1    4    4    0    0  0.27128215678E+02 -0.39758804117E+01 -0.10596414159E+02  0.29394416204E+02  0.00000000000E+00 0.  1.
         21    1    1    2  502  501 -0.21894685129E+02 -0.10228872457E+02 -0.17588283930E+03  0.17753529291E+03  0.00000000000E+00 0. -1.
<scales pt_clust_5="13000.00000" pt_clust_6="13000.00000" pt_clust_7="13000.00000" pt_clust_8="13000.00000" pt_clust_9="24.16624"></scales>
<clustering>
<clus scale="   24.166">  2  9  1 -1</clus>
<clus scale="   93.941">  7  8 -1 -1</clus>
<clus scale="   98.310">  5  6 -1 -1</clus>
<clus scale="  139.521">  2  7  1 -1</clus>
<clus scale="   24.166">  2  5  1 -1</clus>
</clustering>
</event>
<event>
 9    1  0.1234700E-005  0.9796585E+02  0.7546771E-02  0.1285289E+00
          1   -1    0    0  502    0  0.00000000000E+00  0.00000000000E+00  0.30125216360E+03  0.30125216360E+03  0.00000000000E+00 0. -1.
         -1   -1    0    0    0  501 -0.00000000000E+00 -0.00000000000E+00 -0.54113804038E+02  0.54113804038E+02  0.00000000000E+00 0.  1.
         23    2    1    2    0    0 -0.62894508164E+01  0.31874439149E+02  0.56532274030E+02  0.11155846086E+03  0.90519915599E+02 0.  0.
         23    2    1    2    0    0 -0.18830093888E+02 -0.43513344095E+02  0.77413830760E+02  0.12727878854E+03  0.89213257246E+02 0.  0.
        -11    1    3    3    0    0  0.40558406131E+02  0.11944137249E+02  0.12081341817E+02  0.43972781838E+02  0.00000000000E+00 0.  1.
         11    1    3    3    0    0 -0.46847856947E+02  0.19930301900E+02  0.44450932213E+02  0.67585679023E+02  0.00000000000E+00 0. -1.
        -11    1    4    4    0    0 -0.16082700429E+02  0.19127389991E+02  0.55486208472E+02  0.60854166921E+02  0.00000000000E+00 0.  1.
         11    1    4    4    0    0 -0.27473934588E+01 -0.62640734086E+02  0.21927622288E+02  0.66424621617E+02  0.00000000000E+00 0. -1.
         21    1    1    2  502  501  0.25119544704E+02  0.11638904946E+02  0.11319225477E+03  0.11652871824E+03  0.00000000000E+00 0. -1.
<scales pt_clust_5="13000.00000" pt_clust_6="13000.00000" pt_clust_7="13000.00000" pt_clust_8="13000.00000" pt_clust_9="27.68494"></scales>
<clustering>
<clus scale="   27.685">  1  9  2 -1</clus>
<clus scale="   89.213">  7  8 -1 -1</clus>
<clus scale="   90.520">  5  6 -1 -1</clus>
<clus scale="   96.760">  1  7  2 -1</clus>
<clus scale="   27.685">  1  5  2 -1</clus>
</clustering>
</event>
<event>
 9    1  0.1234700E-005  0.1080811E+03  0.7546771E-02  0.1267202E+00
         -1   -1    0    0    0  501 -0.00000000000E+00  0.00000000000E+00  0.19155370288E+03  0.19155370288E+03  0.00000000000E+00 0.  1.
          1   -1    0    0  502    0  0.00000000000E+00 -0.00000000000E+00 -0.43501378436E+03  0.43501378436E+03  0.00000000000E+00 0. -1.
         23    2    1    2    0    0 -0.32946944933E+02 -0.32443803328E+02  0.16577311635E+03  0.19814860846E+03  0.98204090430E+02 0.  0.
         23    2    1    2    0    0  0.29469364612E+02  0.79437293797E+01 -0.26231407796E+03  0.27943037261E+03  0.91329684948E+02 0.  0.
        -11    1    4    4    0    0  0.26082203991E+01  0.38432212942E+02 -0.20833903022E+03  0.21187021810E+03  0.00000000000E+00 0. -1.
         11    1    4    4    0    0  0.26861144213E+02 -0.30488483562E+02 -0.53975047736E+02  0.67560154503E+02  0.00000000000E+00 0.  1.
        -13    1    3    3    0    0  0.15421079395E+02 -0.23070031647E+02  0.13965612810E+03  0.14238634122E+03  0.00000000000E+00 0.  1.
         13    1    3    3    0    0 -0.48368024328E+02 -0.93737716807E+01  0.26116988247E+02  0.55762267243E+02  0.00000000000E+00 0. -1.
         21    1    1    2  502  501  0.34775803212E+01  0.24500073948E+02 -0.14691911987E+03  0.14898850617E+03  0.00000000000E+00 0.  1.
<scales pt_clust_5="13000.00000" pt_clust_6="13000.00000" pt_clust_7="13000.00000" pt_clust_8="13000.00000" pt_clust_9="24.74565"></scales>
<clustering>
<clus scale="   24.746">  2  9  1 -1</clus>
<clus scale="   91.330">  5  6 -1 -1</clus>
<clus scale="   98.204">  7  8 -1 -1</clus>
<clus scale="  101.875">  2  5  1 -1</clus>
<clus scale="   24.746">  2  5  1 -1</clus>
</clustering>
</event>
<event>
 9    1  0.1234700E-005  0.1399457E+03  0.7546771E-02  0.1213892E+00
         -2   -1    0    0    0  501 -0.00000000000E+00  0.00000000000E+00  0.10357728875E+03  0.10357728875E+03  0.00000000000E+00 0.  1.
          2   -1    0    0  502    0  0.00000000000E+00 -0.00000000000E+00 -0.24195284504E+03  0.24195284504E+03  0.00000000000E+00 0. -1.
         23    2    1    2    0    0 -0.96178931776E+02 -0.33783678555E+01 -0.43540162261E+02  0.14107257262E+03  0.93508955343E+02 0.  0.
         23    2    1    2    0    0  0.10856884254E+03 -0.27362019532E+02 -0.70000275089E+02  0.16304181008E+03  0.95638484085E+02 0.  0.
        -11    1    3    3    0    0 -0.97592630414E+02  0.28964792364E+02 -0.33811636257E+02  0.10726838982E+03  0.00000000000E+00 0.  1.
         11    1    3    3    0    0  0.14136986373E+01 -0.32343160220E+02 -0.97285260040E+01  0.33804182804E+02  0.00000000000E+00 0. -1.
        -13    1    4    4    0    0  0.67147241970E+02 -0.71979293857E+01 -0.90249762068E+02  0.11271903941E+03  0.00000000000E+00 0. -1.
         13    1    4    4    0    0  0.41421600569E+02 -0.20164090147E+02  0.20249486979E+02  0.50322770672E+02  0.00000000000E+00 0.  1.
         21    1    1    2  502  501 -0.12389910763E+02  0.30740387388E+02 -0.24835118944E+02  0.41415751091E+02  0.00000000000E+00 0. -1.
<scales pt_clust_5="13000.00000" pt_clust_6="13000.00000" pt_clust_7="13000.00000" pt_clust_8="13000.00000" pt_clust_9="33.14334"></scales>
<clustering>
<clus scale="   33.143">  2  9  1 -1</clus>
<clus scale="   93.509">  5  6 -1 -1</clus>
<clus scale="   95.638">  7  8 -1 -1</clus>
<clus scale="  138.499">  1  5  2 -1</clus>
<clus scale="   33.143">  2  5  1 -1</clus>
</clustering>
</event>
<event>
 9    1  0.1234700E-005  0.1740518E+03  0.7546771E-02  0.1174023E+00
          1   -1    0    0  502    0  0.00000000000E+00  0.00000000000E+00  0.21966869945E+03  0.21966869945E+03  0.00000000000E+00 0. -1.
         -1   -1    0    0    0  501 -0.00000000000E+00 -0.00000000000E+00 -0.18544085829E+03  0.18544085829E+03  0.00000000000E+00 0.  1.
         23    2    1    2    0    0 -0.13838876773E+03 -0.30839576731E+02 -0.37671808256E+02  0.17138429025E+03  0.88605187667E+02 0.  0.
         23    2    1    2    0    0  0.14886192740E+03  0.60871237267E+02  0.40948492708E+02  0.18934552199E+03  0.91157921688E+02 0.  0.
        -11    1    4    4    0    0  0.75154301360E+02  0.44373964776E+02  0.66375588970E+02  0.10964915218E+03  0.00000000000E+00 0. -1.
         11    1    4    4    0    0  0.73707626045E+02  0.16497272491E+02 -0.25427096262E+02  0.79696369812E+02  0.00000000000E+00 0.  1.
        -11    1    3    3    0    0 -0.52266237203E+02 -0.13214832881E+02  0.28849254109E+02  0.61144671248E+02  0.00000000000E+00 0. -1.
         11    1    3    3    0    0 -0.86122530526E+02 -0.17624743850E+02 -0.66521062365E+02  0.11023961900E+03  0.00000000000E+00 0.  1.
         21    1    1    2  502  501 -0.10473159676E+02 -0.30031660536E+02  0.30951156715E+02  0.44379745494E+02  0.00000000000E+00 0.  1.
<scales pt_clust_5="13000.00000" pt_clust_6="13000.00000" pt_clust_7="13000.00000" pt_clust_8="13000.00000" pt_clust_9="31.80547"></scales>
<clustering>
<clus scale="   31.805">  1  9  2 -1</clus>
<clus scale="   88.605">  7  8 -1 -1</clus>
<clus scale="   91.158">  5  6 -1 -1</clus>
<clus scale="  172.729">  2  7  1 -1</clus>
<clus scale="   31.805">  1  5  2 -1</clus>
</clustering>
</event>
<event>
 9    1  0.1234700E-005  0.9698067E+02  0.7546771E-02  0.1287516E+00
          2   -1    0    0  502    0  0.00000000000E+00  0.00000000000E+00  0.27570359285E+03  0.27570359285E+03  0.00000000000E+00 0. -1.
         -2   -1    0    0    0  501 -0.00000000000E+00 -0.00000000000E+00 -0.10227143213E+03  0.10227143213E+03  0.00000000000E+00 0.  1.
         23    2    1    2    0    0 -0.15912860175E+02 -0.14051622915E+02 -0.43884587951E+02  0.10339412608E+03  0.91180156959E+02 0.  0.
         23    2    1    2    0    0  0.46486127379E+02  0.35861178867E+02  0.89999801099E+02  0.14184060157E+03  0.92584058381E+02 0.  0.
        -11    1    4    4    0    0 -0.29644836682E+01 -0.27373192722E+02  0.12420715325E+02  0.30205198433E+02  0.00000000000E+00 0.  1.
         11    1    4    4    0    0  0.49450611047E+02  0.63234371589E+02  0.77579085774E+02  0.11163540313E+03  0.00000000000E+00 0. -1.
        -11    1    3    3    0    0 -0.50637495614E+02 -0.25186622151E+02 -0.20927058809E+02  0.60303098493E+02  0.00000000000E+00 0.  1.
         11    1    3    3    0    0  0.34724635439E+02  0.11134999236E+02 -0.22957529142E+02  0.43091027589E+02  0.00000000000E+00 0. -1.
         21    1    1    2  502  501 -0.30573267204E+02 -0.21809555952E+02  0.12731694756E+03  0.13274029733E+03  0.00000000000E+00 0. -1.
<scales pt_clust_5="13000.00000" pt_clust_6="13000.00000" pt_clust_7="13000.00000" pt_clust_8="13000.00000" pt_clust_9="37.55504"></scales>
<clustering>
<clus scale="   37.555">  1  9  2 -1</clus>
<clus scale="   91.180">  7  8 -1 -1</clus>
<clus scale="   92.584">  5  6 -1 -1</clus>
<clus scale="   95.641">  2  7  1 -1</clus>
<clus scale="   37.555">  1  5  2 -1</clus>
</clustering>
</event>
<event>
 9    1  0.1234700E-005  0.1280674E+03  0.7546771E-02  0.1231120E+00
          1   -1    0    0  502    0  0.00000000000E+00  0.00000000000E+00  0.58706493002E+03  0.58706493002E+03  0.00000000000E+00 0. -1.
         -1   -1    0    0    0  501 -0.00000000000E+00 -0.00000000000E+00 -0.52026393247E+02  0.52026393247E+02  0.00000000000E+00 0.  1.
         23    2    1    2    0    0  0.82397111011E+02 -0.25860962408E+02  0.15983180525E+03  0.20402494940E+03  0.92854190700E+02 0.  0.
         23    2    1    2    0    0 -0.49373816994E+02  0.97318051884E+02  0.24424525098E+03  0.28226728037E+03  0.90058302878E+02 0.  0.
        -11    1    4    4    0    0  0.57495355137E+01  0.68618225390E+02  0.74233757866E+02  0.10125299413E+03  0.00000000000E+00 0.  1.
         11    1    4    4    0    0 -0.55123352508E+02  0.28699826493E+02  0.17001149311E+03  0.18101428624E+03  0.00000000000E+00 0. -1.
        -13    1    3    3    0    0  0.40117697630E+02  0.88693071975E+01  0.69797770493E+01  0.41675071217E+02  0.00000000000E+00 0.  1.
         13    1    3    3    0    0  0.42279413382E+02 -0.34730269606E+02  0.15285202820E+03  0.16234987819E+03  0.00000000000E+00 0. -1.
         21    1    1    2  502  501 -0.33023294017E+02 -0.71457089475E+02  0.13096148055E+03  0.15279909349E+03  0.00000000000E+00 0.  1.
<scales pt_clust_5="13000.00000" pt_clust_6="13000.00000" pt_clust_7="13000.00000" pt_clust_8="13000.00000" pt_clust_9="78.71883"></scales>
<clustering>
<clus scale="   78.719">  1  9  2 -1</clus>
<clus scale="   90.058">  5  6 -1 -1</clus>
<clus scale="   92.854">  7  8 -1 -1</clus>
<clus scale="  126.055">  1  5  2 -1</clus>
<clus scale="   78.719">  1  5  2 -1</clus>
</clustering>
</event>
<event>
 9    1  0.1234700E-005  0.1019170E+03  0.7546771E-02  0.1277244E+00
         -1   -1    0    0    0  501 -0.00000000000E+00  0.00000000000E+00  0.13950445995E+03  0.13950445995E+03  0.00000000000E+00 0.  1.
          1   -1    0    0  502    0  0.00000000000E+00 -0.00000000000E+00 -0.14049495235E+03  0.14049495235E+03  0.00000000000E+00 0. -1.
         23    2    1    2    0    0 -0.29150477275E+02  0.44003406777E+02  0.53224534297E+02  0.11853296922E+03  0.91821367921E+02 0.  0.
         23    2    1    2    0    0  0.14960138870E+02 -0.29233199392E+02  0.79932418608E+01  0.95972982295E+02  0.89825028324E+02 0.  0.
        -11    1    4    4    0    0 -0.17621481493E+02 -0.49307163149E+02 -0.10604100101E+02  0.53424337963E+02  0.00000000000E+00 0.  1.
         11    1    4    4    0    0  0.32581620363E+02  0.20073963758E+02  0.18597341962E+02  0.42548644332E+02  0.00000000000E+00 0. -1.
        -13    1    3    3    0    0  0.26712618026E+02  0.94702961269E+01 -0.72517776569E+01  0.29254721836E+02  0.00000000000E+00 0. -1.
         13    1    3    3    0    0 -0.55863095301E+02  0.34533110651E+02  0.60476311953E+02  0.89278247381E+02  0.00000000000E+00 0.  1.
         21    1    1    2  502  501  0.14190338405E+02 -0.14770207386E+02 -0.62208268551E+02  0.65493460791E+02  0.00000000000E+00 0. -1.
<scales pt_clust_5="13000.00000" pt_clust_6="13000.00000" pt_clust_7="13000.00000" pt_clust_8="13000.00000" pt_clust_9="20.48230"></scales>
<clustering>
<clus scale="   20.482">  2  9  1 -1</clus>
<clus scale="   89.825">  5  6 -1 -1</clus>
<clus scale="   91.821">  7  8 -1 -1</clus>
<clus scale="  100.122">  2  5  1 -1</clus>
<clus scale="   20.482">  2  5  1 -1</clus>
</clustering>
</event>
<event>
 9    1  0.1234700E-005  0.9634103E+02  0.7546771E-02  0.1289487E+00
          2   -1    0    0  502    0  0.00000000000E+00  0.00000000000E+00  0.25743003245E+03  0.25743003245E+03  0.00000000000E+00 0. -1.
         -2   -1    0    0    0  501 -0.00000000000E+00 -0.00000000000E+00 -0.67715249313E+02  0.67715249313E+02  0.00000000000E+00 0.  1.
         23    2    1    2    0    0 -0.19702869181E+02  0.34562709041E+02 -0.81475907676E+00  0.95991283492E+02  0.87354901201E+02 0.  0.
         23    2    1    2    0    0 -0.11729751128E+02 -0.24939497053E+02  0.14935509875E+03  0.17646670737E+03  0.89855371076E+02 0.  0.
        -11    1    3    3    0    0  0.17186694159E+02 -0.13906253686E+02  0.21771138525E+02  0.31028193959E+02  0.00000000000E+00 0. -1.
         11    1    3    3    0    0 -0.36889563339E+02  0.48468962726E+02 -0.22585897602E+02  0.64963089533E+02  0.00000000000E+00 0.  1.
        -13    1    4    4    0    0 -0.29416545065E+02 -0.60271512744E+01  0.57845312904E+01  0.30579739671E+02  0.00000000000E+00 0.  1.
         13    1    4    4    0    0  0.17686793937E+02 -0.18912345778E+02  0.14357056746E+03  0.14588696770E+03  0.00000000000E+00 0. -1.
         21    1    1    2  502  501  0.31432620309E+02 -0.96232119879E+01  0.41174443465E+02  0.52687290907E+02  0.00000000000E+00 0. -1.
<scales pt_clust_5="13000.00000" pt_clust_6="13000.00000" pt_clust_7="13000.00000" pt_clust_8="13000.00000" pt_clust_9="32.87272"></scales>
<clustering>
<clus scale="   32.873">  1  9  2 -1</clus>
<clus scale="   87.355">  5  6 -1 -1</clus>
<clus scale="   89.855">  7  8 -1 -1</clus>
<clus scale="   94.013">  2  5  1 -1</clus>
<clus scale="   32.873">  1  5  2 -1</clus>
</clustering>
</event>
<event>
 9    1  0.1234700E-005  0.1389633E+03  0.7546771E-02  0.1214875E+00
          2   -1    0    0  502    0  0.00000000000E+00  0.00000000000E+00  0.38820738179E+03  0.38820738179E+03  0.00000000000E+00 0. -1.
         -2   -1    0    0    0  501 -0.00000000000E+00 -0.00000000000E+00 -0.11925156059E+03  0.11925156059E+03  0.00000000000E+00 0.  1.
         23    2    1    2    0    0  0.71524027148E+02  0.71313591538E+02 -0.28224762996E+02  0.13878457928E+03  0.90902185909E+02 0.  0.
         23    2    1    2    0    0 -0.10571878328E+03 -0.55207297078E+02  0.13472924906E+03  0.20188368484E+03  0.91546408248E+02 0.  0.
        -11    1    4    4    0    0 -0.90295911334E+02 -0.37503232027E+01  0.55155946485E+02  0.10587537467E+03  0.00000000000E+00 0.  1.
         11    1    4    4    0    0 -0.15422871942E+02 -0.51456973876E+02  0.79573302578E+02  0.96008310174E+02  0.00000000000E+00 0. -1.
        -13    1    3    3    0    0  0.46077968139E+02  0.22263438443E+02 -0.56901748224E+02  0.76528744862E+02  0.00000000000E+00 0.  1.
         13    1    3    3    0    0  0.25446059009E+02  0.49050153095E+02  0.28676985228E+02  0.62255834421E+02  0.00000000000E+00 0. -1.
         21    1    1    2  502  501  0.34194756129E+02 -0.16106294459E+02  0.16245133513E+03  0.16679067826E+03  0.00000000000E+00 0. -1.
<scales pt_clust_5="13000.00000" pt_clust_6="13000.00000" pt_clust_7="13000.00000" pt_clust_8="13000.00000" pt_clust_9="37.79807"></scales>
<clustering>
<clus scale="   37.798">  1  9  2 -1</clus>
<clus scale="   90.902">  7  8 -1 -1</clus>
<clus scale="   91.546">  5  6 -1 -1</clus>
<clus scale="  138.540">  2  7  1 -1</clus>
<clus scale="   37.798">  1  5  2 -1</clus>
</clustering>
</event>
<event>
 9    1  0.1234700E-005  0.1017800E+03  0.7546771E-02  0.1278248E+00
         -2   -1    0    0    0  501 -0.00000000000E+00  0.00000000000E+00  0.73707619792E+03  0.73707619792E+03  0.00000000000E+00 0.  1.
          2   -1    0    0  502    0  0.00000000000E+00 -0.00000000000E+00 -0.56459032359E+02  0.56459032359E+02  0.00000000000E+00 0. -1.
         23    2    1    2    0    0  0.37344586964E+02  0.25376810790E+02  0.49253213920E+03  0.50359451683E+03  0.94767761076E+02 0.  0.
         23    2    1    2    0    0 -0.21369930653E+02 -0.10137204164E+02  0.22664425564E+03  0.24550818689E+03  0.91363090863E+02 0.  0.
        -13    1    4    4    0    0  0.26533234918E+02 -0.32120681251E+02  0.10144821919E+03  0.10966992248E+03  0.00000000000E+00 0.  1.
         13    1    4    4    0    0 -0.47903165571E+02  0.21983477087E+02  0.12519603645E+03  0.13583826441E+03  0.00000000000E+00 0. -1.
        -13    1    3    3    0    0 -0.31278492048E+02 -0.14044779410E+01  0.14662734806E+03  0.14993297110E+03  0.00000000000E+00 0. -1.
         13    1    3    3    0    0  0.68623079012E+02  0.26781288731E+02  0.34590479113E+03  0.35366154573E+03  0.00000000000E+00 0.  1.
         21    1    1    2  502  501 -0.15974656311E+02 -0.15239606626E+02 -0.38559229272E+02  0.44432526559E+02  0.00000000000E+00 0. -1.
<scales pt_clust_5="13000.00000" pt_clust_6="13000.00000" pt_clust_7="13000.00000" pt_clust_8="13000.00000" pt_clust_9="22.07794"></scales>
<clustering>
<clus scale="   22.078">  2  9  1 -1</clus>
<clus scale="   91.363">  5  6 -1 -1</clus>
<clus scale="   94.768">  7  8 -1 -1</clus>
<clus scale="   98.618">  2  5  1 -1</clus>
<clus scale="   22.078">  2  5  1 -1</clus>
</clustering>
</event>
<event>
 9    1  0.1234700E-005  0.1045728E+03  0.7546771E-02  0.1271152E+00
          1   -1    0    0  502    0  0.00000000000E+00  0.00000000000E+00  0.28156017153E+03  0.28156017153E+03  0.00000000000E+00 0. -1.
         -1   -1    0    0    0  501 -0.00000000000E+00 -0.00000000000E+00 -0.11681880972E+03  0.11681880972E+03  0.00000000000E+00 0.  1.
         23    2    1    2    0    0  0.18126182148E+02 -0.42342303644E+02 -0.50031408187E+02  0.11536795416E+03  0.93194387624E+02 0.  0.
         23    2    1    2    0    0 -0.40602212843E+02  0.36561067712E+02  0.53768056063E+02  0.12034230683E+03  0.92768613226E+02 0.  0.
        -11    1    4    4    0    0 -0.86746245869E+01  0.30169070649E+02  0.75112883321E+02  0.81408643130E+02  0.00000000000E+00 0. -1.
         11    1    4    4    0    0 -0.31927588256E+02  0.63919970633E+01 -0.21344827257E+02  0.38933663698E+02  0.00000000000E+00 0.  1.
        -11    1    3    3    0    0 -0.33761207262E+02 -0.97257924828E+01  0.16873062113E+01  0.35174666416E+02  0.00000000000E+00 0. -1.
         11    1    3    3    0    0  0.51887389410E+02 -0.32616511161E+02 -0.51718714398E+02  0.80193287743E+02  0.00000000000E+00 0.  1.
         21    1    1    2  502  501  0.22476030695E+02  0.57812359320E+01  0.16100471393E+03  0.16266872027E+03  0.00000000000E+00 0. -1.
<scales pt_clust_5="13000.00000" pt_clust_6="13000.00000" pt_clust_7="13000.00000" pt_clust_8="13000.00000" pt_clust_9="23.20764"></scales>
<clustering>
<clus scale="   23.208">  1  9  2 -1</clus>
<clus scale="   92.769">  5  6 -1 -1</clus>
<clus scale="   93.194">  7  8 -1 -1</clus>
<clus scale="  104.194">  1  5  2 -1</clus>
<clus scale="   23.208">  1  5  2 -1</clus>
</clustering>
</event>
<event>
 9    1  0.1234700E-005  0.1172003E+03  0.7546771E-02  0.1247859E+00
         -2   -1    0    0    0  501 -0.00000000000E+00  0.00000000000E+00  0.15903932675E+02  0.15903932675E+02  0.00000000000E+00 0.  1.
          2   -1    0    0  502    0  0.00000000000E+00 -0.00000000000E+00 -0.10938131398E+04  0.10938131398E+04  0.00000000000E+00 0. -1.
         23    2    1    2    0    0  0.69176708500E+02  0.50561230117E+02 -0.44040194659E+03  0.45780403933E+03  0.91042895844E+02 0.  0.
         23    2    1    2    0    0 -0.46523521871E+02 -0.39778071422E+02 -0.47386450527E+03  0.48635822430E+03  0.90829620405E+02 0.  0.
        -13    1    4    4    0    0  0.13262412431E+02  0.19631095577E+02 -0.14172723051E+03  0.14369369981E+03  0.00000000000E+00 0. -1.
         13    1    4    4    0    0 -0.59785934302E+02 -0.59409166998E+02 -0.33213727476E+03  0.34266452450E+03  0.00000000000E+00 0.  1.
        -13    1    3    3    0    0 -0.16180955213E+02  0.34548539458E+02 -0.13015125284E+03  0.13562733318E+03  0.00000000000E+00 0.  1.
         13    1    3    3    0    0  0.85357663713E+02  0.16012690659E+02 -0.31025069375E+03  0.32217670615E+03  0.00000000000E+00 0. -1.
         21    1    1    2  502  501 -0.22653186629E+02 -0.10783158695E+02 -0.16364275523E+03  0.16555480879E+03  0.00000000000E+00 0.  1.
<scales pt_clust_5="13000.00000" pt_clust_6="13000.00000" pt_clust_7="13000.00000" pt_clust_8="13000.00000" pt_clust_9="25.08871"></scales>
<clustering>
<clus scale="   25.089">  2  9  1 -1</clus>
<clus scale="   90.830">  5  6 -1 -1</clus>
<clus scale="   91.043">  7  8 -1 -1</clus>
<clus scale="  117.035">  2  5  1 -1</clus>
<clus scale="   25.089">  2  5  1 -1</clus>
</clustering>
</event>
<event>
 9    1  0.1234700E-005  0.2491357E+03  0.7546771E-02  0.1115260E+00
         -1   -1    0    0    0  501 -0.00000000000E+00  0.00000000000E+00  0.75963742868E+02  0.75963742868E+02  0.00000000000E+00 0.  1.
          1   -1    0    0  502    0  0.00000000000E+00 -0.00000000000E+00 -0.11640728119E+04  0.11640728119E+04  0.00000000000E+00 0. -1.
         23    2    1    2    0    0 -0.19922237783E+03  0.15138990221E+03 -0.34633114197E+03  0.44181962916E+03  0.11247607078E+03 0.  0.
         23    2    1    2    0    0  0.16859707548E+03 -0.90167078692E+02 -0.43520703925E+03  0.48409616456E+03  0.91590685075E+02 0.  0.
        -11    1    4    4    0    0 -0.46959596057E+00 -0.32616710642E+02 -0.83432408364E+02  0.89582571402E+02  0.00000000000E+00 0.  1.
         11    1    4    4    0    0  0.16906667144E+03 -0.57550368050E+02 -0.35177463088E+03  0.39451359316E+03  0.00000000000E+00 0. -1.
        -13    1    3    3    0    0 -0.13133091052E+03  0.30934516884E+02 -0.19116847843E+03  0.23398747731E+03  0.00000000000E+00 0. -1.
         13    1    3    3    0    0 -0.67891467306E+02  0.12045538532E+03 -0.15516266354E+03  0.20783215185E+03  0.00000000000E+00 0.  1.
         21    1    1    2  502  501  0.30625302342E+02 -0.61222823517E+02 -0.30657088782E+03  0.31412076105E+03  0.00000000000E+00 0. -1.
<scales pt_clust_5="13000.00000" pt_clust_6="13000.00000" pt_clust_7="13000.00000" pt_clust_8="13000.00000" pt_clust_9="68.45541"></scales>
<clustering>
<clus scale="   68.455">  2  9  1 -1</clus>
<clus scale="   91.591">  5  6 -1 -1</clus>
<clus scale="  112.476">  7  8 -1 -1</clus>
<clus scale="  240.430">  2  5  1 -1</clus>
<clus scale="   68.455">  2  5  1 -1</clus>
</clustering>
</event>
<event>
 9    1  0.1234700E-005  0.9244008E+02  0.7546771E-02  0.1297743E+00
          3   -1    0    0  502    0  0.00000000000E+00  0.00000000000E+00  0.19988300103E+03  0.19988300103E+03  0.00000000000E+00 0. -1.
         -3   -1    0    0    0  501 -0.00000000000E+00 -0.00000000000E+00 -0.80327382315E+02  0.80327382315E+02  0.00000000000E+00 0.  1.
         23    2    1    2    0    0 -0.13654570612E+02  0.46883404468E+01 -0.21842907062E+02  0.94258874481E+02  0.90549406374E+02 0.  0.
         23    2    1    2    0    0 -0.81712011626E+01 -0.16912840508E+02  0.95944390346E+02  0.13406816719E+03  0.91739493745E+02 0.  0.
        -11    1    3    3    0    0 -0.13065328062E+02  0.45156476371E+02 -0.25748458259E+02  0.53598444551E+02  0.00000000000E+00 0.  1.
         11    1    3    3    0    0 -0.58924255037E+00 -0.40468135924E+02  0.39055511965E+01  0.40660429930E+02  0.00000000000E+00 0. -1.
        -13    1    4    4    0    0 -0.14262153026E+02 -0.45413778536E+02  0.93378279130E+02  0.10481089306E+03  0.00000000000E+00 0. -1.
         13    1    4    4    0    0  0.60909518639E+01  0.28500938027E+02  0.25661112159E+01  0.29257274135E+02  0.00000000000E+00 0.  1.
         21    1    1    2  502  501  0.21825771775E+02  0.12224500062E+02  0.45454135433E+02  0.51883341674E+02  0.00000000000E+00 0.  1.
<scales pt_clust_5="13000.00000" pt_clust_6="13000.00000" pt_clust_7="13000.00000" pt_clust_8="13000.00000" pt_clust_9="25.01605"></scales>
<clustering>
<clus scale="   25.016">  1  9  2 -1</clus>
<clus scale="   90.549">  5  6 -1 -1</clus>
<clus scale="   91.259">  2  5  1 -1</clus>
<clus scale="   91.739">  7  8 -1 -1</clus>
<clus scale="   25.016">  1  5  2 -1</clus>
</clustering>
</event>
<event>
 9    1  0.1234700E-005  0.1071969E+03  0.7546771E-02  0.1266178E+00
          1   -1    0    0  502    0  0.00000000000E+00  0.00000000000E+00  0.34180773222E+02  0.34180773222E+02  0.00000000000E+00 0. -1.
         -1   -1    0    0    0  501 -0.00000000000E+00 -0.00000000000E+00 -0.49324440281E+03  0.49324440281E+03  0.00000000000E+00 0.  1.
         23    2    1    2    0    0 -0.66567406701E+02  0.21981505351E+02 -0.27544289900E+03  0.29883276423E+03  0.92292058995E+02 0.  0.
         23    2    1    2    0    0  0.28699246646E+02 -0.14605042688E+02 -0.12158782256E+03  0.15554111869E+03  0.91501294956E+02 0.  0.
        -11    1    4    4    0    0  0.41890773529E+02  0.29126279150E+02 -0.57996475776E+02  0.77244859029E+02  0.00000000000E+00 0.  1.
         11    1    4    4    0    0 -0.13191526883E+02 -0.43731321837E+02 -0.63591346787E+02  0.78296259664E+02  0.00000000000E+00 0. -1.
        -13    1    3    3    0    0 -0.88434199243E+02  0.28468058955E+02 -0.22761213467E+03  0.24584206684E+03  0.00000000000E+00 0.  1.
         13    1    3    3    0    0  0.21866792542E+02 -0.64865536036E+01 -0.47830764330E+02  0.52990697392E+02  0.00000000000E+00 0. -1.
         21    1    1    2  502  501  0.37868160055E+02 -0.73764626636E+01 -0.62032908022E+02  0.73051293110E+02  0.00000000000E+00 0. -1.
<scales pt_clust_5="13000.00000" pt_clust_6="13000.00000" pt_clust_7="13000.00000" pt_clust_8="13000.00000" pt_clust_9="38.57991"></scales>
<clustering>
<clus scale="   38.580">  1  9  2 -1</clus>
<clus scale="   91.501">  5  6 -1 -1</clus>
<clus scale="   92.292">  7  8 -1 -1</clus>
<clus scale="  106.517">  1  5  2 -1</clus>
<clus scale="   38.580">  1  5  2 -1</clus>
</clustering>
</event>
<event>
 9    1  0.1234700E-005  0.1045725E+03  0.7546771E-02  0.1272109E+00
          2   -1    0    0  502    0  0.00000000000E+00  0.00000000000E+00  0.40313196419E+03  0.40313196419E+03  0.00000000000E+00 0. -1.
         -2   -1    0    0    0  501 -0.00000000000E+00 -0.00000000000E+00 -0.92807472782E+02  0.92807472782E+02  0.00000000000E+00 0.  1.
         23    2    1    2    0    0  0.37144646015E+02  0.34973400334E+02 -0.39092406992E+02  0.11401686990E+03  0.94174130630E+02 0.  0.
         23    2    1    2    0    0 -0.32030507728E+02  0.60644276918E+01  0.15372058102E+03  0.18190430197E+03  0.91632021340E+02 0.  0.
        -11    1    4    4    0    0 -0.90815177269E+01  0.44903761989E+02  0.10965960850E+03  0.11884465298E+03  0.00000000000E+00 0.  1.
         11    1    4    4    0    0 -0.22948990001E+02 -0.38839334297E+02  0.44060972521E+02  0.63059648986E+02  0.00000000000E+00 0. -1.
        -11    1    3    3    0    0  0.25952496583E+02  0.63963928240E+02 -0.44977376242E+02  0.82388594893E+02  0.00000000000E+00 0.  1.
         11    1    3    3    0    0  0.11192149431E+02 -0.28990527905E+02  0.58849692507E+01  0.31628275011E+02  0.00000000000E+00 0. -1.
         21    1    1    2  502  501 -0.51141382865E+01 -0.41037828026E+02  0.19569631737E+03  0.20001826510E+03  0.00000000000E+00 0. -1.
<scales pt_clust_5="13000.00000" pt_clust_6="13000.00000" pt_clust_7="13000.00000" pt_clust_8="13000.00000" pt_clust_9="41.35526"></scales>
<clustering>
<clus scale="   41.355">  1  9  2 -1</clus>
<clus scale="   91.632">  5  6 -1 -1</clus>
<clus scale="   94.174">  7  8 -1 -1</clus>
<clus scale="  102.289">  1  5  2 -1</clus>
<clus scale="   41.355">  1  5  2 -1</clus>
</clustering>
</event>
<event>
 9    1  0.1348270E-005  0.1086795E+03  0.7546771E-02  0.1263285E+00
         -1   -1    0    0    0  501 -0.00000000000E+00  0.00000000000E+00  0.52950792062E+02  0.52950792062E+02  0.00000000000E+00 0.  1.
          1   -1    0    0  502    0  0.00000000000E+00 -0.00000000000E+00 -0.36784442044E+03  0.36784442044E+03  0.00000000000E+00 0. -1.
         23    2    1    2    0    0 -0.55328987669E+02 -0.34570363370E+02 -0.38395610686E+02  0.11754969539E+03  0.89929422697E+02 0.  0.
         23    2    1    2    0    0  0.37599038802E+02  0.21316088942E+02 -0.24491948519E+03  0.26468088834E+03  0.90566854088E+02 0.  0.
        -11    1    3    3    0    0 -0.45843722585E+02 -0.64785645913E+02 -0.29290836472E+02  0.84597753622E+02  0.00000000000E+00 0.  1.
         11    1    3    3    0    0 -0.94852650843E+01  0.30215282542E+02 -0.91047742144E+01  0.32951941769E+02  0.00000000000E+00 0. -1.
        -13    1    4    4    0    0 -0.28115386526E+02 -0.37978919955E+01 -0.50481558320E+02  0.57907570088E+02  0.00000000000E+00 0.  1.
         13    1    4    4    0    0  0.65714425328E+02  0.25113980937E+02 -0.19443792687E+03  0.20677331825E+03  0.00000000000E+00 0. -1.
         21    1    1    2  502  501  0.17729948867E+02  0.13254274428E+02 -0.31578532505E+02  0.38564628776E+02  0.00000000000E+00 0.  1.
<scales pt_clust_5="13000.00000" pt_clust_6="13000.00000" pt_clust_7="13000.00000" pt_clust_8="13000.00000" pt_clust_9="22.13655"></scales>
<clustering>
<clus scale="   22.137">  2  9  1 -1</clus>
<clus scale="   89.929">  5  6 -1 -1</clus>
<clus scale="   90.567">  7  8 -1 -1</clus>
<clus scale="  108.149">  1  5  2 -1</clus>
<clus scale="   22.137">  2  5  1 -1</clus>
</clustering>
</event>
<event>
 9    1  0.1234700E-005  0.1025613E+03  0.7546771E-02  0.1279954E+00
         -2   -1    0    0    0  501 -0.00000000000E+00  0.00000000000E+00  0.88019683449E+02  0.88019683449E+02  0.00000000000E+00 0.  1.
          2   -1    0    0  502    0  0.00000000000E+00 -0.00000000000E+00 -0.15081145007E+03  0.15081145007E+03  0.00000000000E+00 0. -1.
         23    2    1    2    0    0 -0.41942722601E+01 -0.23532944671E+02  0.12688997261E+02  0.95560509547E+02  0.91648289284E+02 0.  0.
         23    2    1    2    0    0  0.22856333465E+01  0.36073828594E+01 -0.57441473003E+02  0.11632462369E+03  0.10106264356E+03 0.  0.
        -11    1    4    4    0    0 -0.25173476007E+02  0.19913606950E+02  0.16274863618E+02  0.35987870482E+02  0.00000000000E+00 0.  1.
         11    1    4    4    0    0  0.27459109354E+02 -0.16306224091E+02 -0.73716336621E+02  0.80336753204E+02  0.00000000000E+00 0. -1.
        -13    1    3    3    0    0  0.35029989911E+02 -0.29449587386E+02 -0.13872767081E+02  0.47820832875E+02  0.00000000000E+00 0. -1.
         13    1    3    3    0    0 -0.39224262171E+02  0.59166427149E+01  0.26561764342E+02  0.47739676673E+02  0.00000000000E+00 0.  1.
         21    1    1    2  502  501  0.19086389136E+01  0.19925561812E+02 -0.18039290881E+02  0.26946000288E+02  0.00000000000E+00 0. -1.
<scales pt_clust_5="13000.00000" pt_clust_6="13000.00000" pt_clust_7="13000.00000" pt_clust_8="13000.00000" pt_clust_9="20.01677"></scales>
<clustering>
<clus scale="   20.017">  2  9  1 -1</clus>
<clus scale="   91.648">  7  8 -1 -1</clus>
<clus scale="   93.298">  1  7  2 -1</clus>
<clus scale="  101.063">  5  6 -1 -1</clus>
<clus scale="   20.017">  2  5  1 -1</clus>
</clustering>
</event>
<event>
 9    1  0.1234700E-005  0.1025538E+03  0.7546771E-02  0.1278122E+00
         -1   -1    0    0    0  501 -0.00000000000E+00  0.00000000000E+00  0.21128417215E+03  0.21128417215E+03  0.00000000000E+00 0.  1.
          1   -1    0    0  502    0  0.00000000000E+00 -0.00000000000E+00 -0.31104745974E+03  0.31104745974E+03  0.00000000000E+00 0. -1.
         23    2    1    2    0    0 -0.38372750607E+01  0.35374479317E+02  0.17807535714E+03  0.20604787646E+03  0.97359211718E+02 0.  0.
         23    2    1    2    0    0 -0.25314642396E+01 -0.45149257376E+01 -0.98796069705E+02  0.13448959556E+03  0.91104308682E+02 0.  0.
        -11    1    4    4    0    0 -0.16008143676E+02 -0.44207167578E+02 -0.67122296598E+02  0.81950820800E+02  0.00000000000E+00 0. -1.
         11    1    4    4    0    0  0.13476679437E+02  0.39692241840E+02 -0.31673773106E+02  0.52538774764E+02  0.00000000000E+00 0.  1.
        -11    1    3    3    0    0 -0.17010944270E+02 -0.25552831515E+02  0.10791489968E+03  0.11219601150E+03  0.00000000000E+00 0.  1.
         11    1    3    3    0    0  0.13173669210E+02  0.60927310832E+02  0.70160457459E+02  0.93851864960E+02  0.00000000000E+00 0. -1.
         21    1    1    2  502  501  0.63687393004E+01 -0.30859553580E+02 -0.17904257502E+03  0.18179415986E+03  0.00000000000E+00 0. -1.
<scales pt_clust_5="13000.00000" pt_clust_6="13000.00000" pt_clust_7="13000.00000" pt_clust_8="13000.00000" pt_clust_9="31.50989"></scales>
<clustering>
<clus scale="   31.510">  2  9  1 -1</clus>
<clus scale="   91.104">  5  6 -1 -1</clus>
<clus scale="   96.636">  2  5  1 -1</clus>
<clus scale="   97.359">  7  8 -1 -1</clus>
<clus scale="   31.510">  2  5  1 -1</clus>
</clustering>
</event>
<event>
 9    1  0.1234700E-005  0.1122164E+03  0.7546771E-02  0.1257945E+00
         -1   -1    0    0    0  501 -0.00000000000E+00  0.00000000000E+00  0.22872550617E+03  0.22872550617E+03  0.00000000000E+00 0.  1.
          1   -1    0    0  502    0  0.00000000000E+00 -0.00000000000E+00 -0.19287364545E+03  0.19287364545E+03  0.00000000000E+00 0. -1.
         23    2    1    2    0    0 -0.18992537555E+02 -0.60900280183E+02  0.17720914279E+03  0.20726236654E+03  0.86516170081E+02 0.  0.
         23    2    1    2    0    0  0.35574556776E+02  0.80429683617E+02 -0.84065250119E+02  0.15157742016E+03  0.90411641559E+02 0.  0.
        -13    1    4    4    0    0  0.22678392385E+02 -0.13409585011E+02 -0.22994641177E+01  0.26446436179E+02  0.00000000000E+00 0.  1.
         13    1    4    4    0    0  0.12896164390E+02  0.93839268628E+02 -0.81765786002E+02  0.12513098398E+03  0.00000000000E+00 0. -1.
        -13    1    3    3    0    0  0.29547717803E+02 -0.44003438085E+02  0.11456396346E+03  0.12623102595E+03  0.00000000000E+00 0.  1.
         13    1    3    3    0    0 -0.48540255358E+02 -0.16896842098E+02  0.62645179335E+02  0.81031340586E+02  0.00000000000E+00 0. -1.
         21    1    1    2  502  501 -0.16582019220E+02 -0.19529403433E+02 -0.57292031947E+02  0.62759364915E+02  0.00000000000E+00 0. -1.
<scales pt_clust_5="13000.00000" pt_clust_6="13000.00000" pt_clust_7="13000.00000" pt_clust_8="13000.00000" pt_clust_9="25.61954"></scales>
<clustering>
<clus scale="   25.620">  2  9  1 -1</clus>
<clus scale="   86.516">  7  8 -1 -1</clus>
<clus scale="   90.412">  5  6 -1 -1</clus>
<clus scale="  109.102">  1  7  2 -1</clus>
<clus scale="   25.620">  2  5  1 -1</clus>
</clustering>
</event>
<event>
 9    1  0.1234700E-005  0.9262907E+02  0.7546771E-02  0.1296809E+00
          1   -1    0    0  502    0  0.00000000000E+00  0.00000000000E+00  0.15090958607E+03  0.15090958607E+03  0.00000000000E+00 0. -1.
         -1   -1    0    0    0  501 -0.00000000000E+00 -0.00000000000E+00 -0.77069579807E+02  0.77069579807E+02  0.00000000000E+00 0.  1.
         23    2    1    2    0    0  0.20812292289E+02 -0.32996392183E+01  0.29025548954E+02  0.98141333726E+02  0.91352064915E+02 0.  0.
         23    2    1    2    0    0  0.42459660058E+01  0.16810417465E+02  0.32550586246E+02  0.98840090766E+02  0.91701714897E+02 0.  0.
        -13    1    4    4    0    0  0.43619917914E+02  0.67126161987E+01  0.37471245188E+02  0.57895169669E+02  0.00000000000E+00 0. -1.
         13    1    4    4    0    0 -0.39373951908E+02  0.10097801266E+02 -0.49206589420E+01  0.40944921097E+02  0.00000000000E+00 0.  1.
        -13    1    3    3    0    0 -0.23355375958E+02  0.17361650482E+02  0.38708576084E+02  0.48427826257E+02  0.00000000000E+00 0.  1.
         13    1    3    3    0    0  0.44167668247E+02 -0.20661289701E+02 -0.96830271299E+01  0.49713507469E+02  0.00000000000E+00 0. -1.
         21    1    1    2  502  501 -0.25058258295E+02 -0.13510778247E+02  0.12263871066E+02  0.30997741387E+02  0.00000000000E+00 0.  1.
<scales pt_clust_5="13000.00000" pt_clust_6="13000.00000" pt_clust_7="13000.00000" pt_clust_8="13000.00000" pt_clust_9="28.46853"></scales>
<clustering>
<clus scale="   28.469">  1  9  2 -1</clus>
<clus scale="   91.352">  7  8 -1 -1</clus>
<clus scale="   91.702">  5  6 -1 -1</clus>
<clus scale="   92.283">  2  7  1 -1</clus>
<clus scale="   28.469">  1  5  2 -1</clus>
</clustering>
</event>
<event>
 9    1  0.1234700E-005  0.9346148E+02  0.7546771E-02  0.1300988E+00
          1   -1    0    0  502    0  0.00000000000E+00  0.00000000000E+00  0.47446884938E+03  0.47446884938E+03  0.00000000000E+00 0. -1.
         -1   -1    0    0    0  501 -0.00000000000E+00 -0.00000000000E+00 -0.21737673896E+02  0.21737673896E+02  0.00000000000E+00 0.  1.
         23    2    1    2    0    0  0.29662202004E+02  0.53053815509E+01  0.16357713841E+03  0.18440282306E+03  0.79617382789E+02 0.  0.
         23    2    1    2    0    0 -0.16545101474E+02  0.12955650445E+02  0.21094890454E+03  0.23043069259E+03  0.90317631152E+02 0.  0.
        -11    1    4    4    0    0 -0.37065350677E+02 -0.28267079213E+02  0.11053893741E+03  0.11996551451E+03  0.00000000000E+00 0.  1.
         11    1    4    4    0    0  0.20520249203E+02  0.41222729658E+02  0.10040996714E+03  0.11046517808E+03  0.00000000000E+00 0. -1.
        -13    1    3    3    0    0 -0.39030429751E+01 -0.27305793968E+02  0.21971913263E+02  0.35264785568E+02  0.00000000000E+00 0.  1.
         13    1    3    3    0    0  0.33565244979E+02  0.32611175519E+02  0.14160522514E+03  0.14913803749E+03  0.00000000000E+00 0. -1.
         21    1    1    2  502  501 -0.13117100529E+02 -0.18261031995E+02  0.78205132531E+02  0.81373007625E+02  0.00000000000E+00 0.  1.
<scales pt_clust_5="13000.00000" pt_clust_6="13000.00000" pt_clust_7="13000.00000" pt_clust_8="13000.00000" pt_clust_9="22.48385"></scales>
<clustering>
<clus scale="   22.484">  1  9  2 -1</clus>
<clus scale="   79.617">  7  8 -1 -1</clus>
<clus scale="   83.167">  2  7  1 -1</clus>
<clus scale="   90.318">  5  6 -1 -1</clus>
<clus scale="   22.484">  1  5  2 -1</clus>
</clustering>
</event>
<event>
 9    1  0.1234700E-005  0.9890435E+02  0.7546771E-02  0.1282777E+00
          2   -1    0    0  502    0  0.00000000000E+00  0.00000000000E+00  0.37732181438E+03  0.37732181438E+03  0.00000000000E+00 0. -1.
         -2   -1    0    0    0  501 -0.00000000000E+00 -0.00000000000E+00 -0.36488993090E+02  0.36488993090E+02  0.00000000000E+00 0.  1.
         23    2    1    2    0    0 -0.22855512295E+02 -0.55198889472E+01  0.10338100261E+03  0.14126178317E+03  0.93351036769E+02 0.  0.
         23    2    1    2    0    0  0.36559139260E+02  0.30657290367E+02  0.18935356864E+03  0.21657474451E+03  0.93666460833E+02 0.  0.
        -11    1    4    4    0    0  0.31571699222E+02  0.62850448261E+02  0.14856751891E+03  0.16437535920E+03  0.00000000000E+00 0.  1.
         11    1    4    4    0    0  0.49874400387E+01 -0.32193157894E+02  0.40786049732E+02  0.52199385303E+02  0.00000000000E+00 0. -1.
        -13    1    3    3    0    0 -0.21862417831E+02  0.27141612096E+02  0.10283540976E+03  0.10858063327E+03  0.00000000000E+00 0. -1.
         13    1    3    3    0    0 -0.99309446363E+00 -0.32661501043E+02  0.54559285184E+00  0.32681149897E+02  0.00000000000E+00 0.  1.
         21    1    1    2  502  501 -0.13703626966E+02 -0.25137401420E+02  0.48098250041E+02  0.55974279801E+02  0.00000000000E+00 0.  1.
<scales pt_clust_5="13000.00000" pt_clust_6="13000.00000" pt_clust_7="13000.00000" pt_clust_8="13000.00000" pt_clust_9="28.63003"></scales>
<clustering>
<clus scale="   28.630">  1  9  2 -1</clus>
<clus scale="   93.351">  7  8 -1 -1</clus>
<clus scale="   93.666">  5  6 -1 -1</clus>
<clus scale="   98.606">  2  7  1 -1</clus>
<clus scale="   28.630">  1  5  2 -1</clus>
</clustering>
</event>
<event>
 9    1  0.1234700E-005  0.1085520E+03  0.7546771E-02  0.1267405E+00
          3   -1    0    0  502    0  0.00000000000E+00  0.00000000000E+00  0.20191460617E+03  0.20191460617E+03  0.00000000000E+00 0. -1.
         -3   -1    0    0    0  501 -0.00000000000E+00 -0.00000000000E+00 -0.10791508104E+03  0.10791508104E+03  0.00000000000E+00 0.  1.
         23    2    1    2    0    0  0.26492891592E+01  0.45743367583E+02  0.13703816490E+02  0.99185589293E+02  0.86893682890E+02 0.  0.
         23    2    1    2    0    0  0.45178840189E+02 -0.82104112914E+02  0.14620273270E+02  0.12163344367E+03  0.76149387856E+02 0.  0.
        -11    1    4    4    0    0  0.63527602848E+02 -0.47265169555E+02 -0.12201061513E+01  0.79191168926E+02  0.00000000000E+00 0.  1.
         11    1    4    4    0    0 -0.18348762659E+02 -0.34838943358E+02  0.15840379422E+02  0.42442274747E+02  0.00000000000E+00 0. -1.
        -13    1    3    3    0    0 -0.10757055296E+02  0.62762796297E+02 -0.12801746132E+02  0.64952040320E+02  0.00000000000E+00 0. -1.
         13    1    3    3    0    0  0.13406344455E+02 -0.17019428714E+02  0.26505562622E+02  0.34233548974E+02  0.00000000000E+00 0.  1.
         21    1    1    2  502  501 -0.47828129348E+02  0.36360745331E+02  0.65675435366E+02  0.89010654241E+02  0.00000000000E+00 0.  1.
<scales pt_clust_5="13000.00000" pt_clust_6="13000.00000" pt_clust_7="13000.00000" pt_clust_8="13000.00000" pt_clust_9="60.08023"></scales>
<clustering>
<clus scale="   60.080">  1  9  2 -1</clus>
<clus scale="   76.149">  5  6 -1 -1</clus>
<clus scale="   86.894">  7  8 -1 -1</clus>
<clus scale="  100.159">  1  5  2 -1</clus>
<clus scale="   60.080">  1  5  2 -1</clus>
</clustering>
</event>
<event>
 9    1  0.1234700E-005  0.1124452E+03  0.7546771E-02  0.1259976E+00
         -1   -1    0    0    0  501 -0.00000000000E+00  0.00000000000E+00  0.68778512281E+03  0.68778512281E+03  0.00000000000E+00 0.  1.
          1   -1    0    0  502    0  0.00000000000E+00 -0.00000000000E+00 -0.29779957893E+02  0.29779957893E+02  0.00000000000E+00 0. -1.
         23    2    1    2    0    0 -0.31527830315E+02  0.48273218544E+02  0.42728515067E+03  0.44293589230E+03  0.10146574298E+03 0.  0.
         23    2    1    2    0    0  0.41528254846E+02 -0.32407243026E+01  0.13871305256E+03  0.17170584300E+03  0.92230620325E+02 0.  0.
        -11    1    4    4    0    0  0.15513873284E+02  0.36311347866E+02  0.20768715889E+02  0.44615398774E+02  0.00000000000E+00 0.  1.
         11    1    4    4    0    0  0.26014381562E+02 -0.39552072169E+02  0.11794433667E+03  0.12709044423E+03  0.00000000000E+00 0. -1.
        -11    1    3    3    0    0 -0.65532191911E+01 -0.31984618126E+02  0.11921864078E+03  0.12360843332E+03  0.00000000000E+00 0. -1.
         11    1    3    3    0    0 -0.24974611124E+02  0.80257836670E+02  0.30806650989E+03  0.31932745899E+03  0.00000000000E+00 0.  1.
         21    1    1    2  502  501 -0.10000424531E+02 -0.45032494242E+02  0.92006961691E+02  0.10292334540E+03  0.00000000000E+00 0. -1.
<scales pt_clust_5="13000.00000" pt_clust_6="13000.00000" pt_clust_7="13000.00000" pt_clust_8="13000.00000" pt_clust_9="46.12954"></scales>
<clustering>
<clus scale="   46.130">  2  9  1 -1</clus>
<clus scale="   92.231">  5  6 -1 -1</clus>
<clus scale="  101.466">  7  8 -1 -1</clus>
<clus scale="  104.188">  2  5  1 -1</clus>
<clus scale="   46.130">  2  5  1 -1</clus>
</clustering>
</event>
<event>
 9    1  0.1234700E-005  0.9796272E+02  0.7546771E-02  0.1285129E+00
         -1   -1    0    0    0  501 -0.00000000000E+00  0.00000000000E+00  0.67977021371E+02  0.67977021371E+02  0.00000000000E+00 0.  1.
          1   -1    0    0  502    0  0.00000000000E+00 -0.00000000000E+00 -0.57983216593E+03  0.57983216593E+03  0.00000000000E+00 0. -1.
         23    2    1    2    0    0 -0.27236839576E+02 -0.34766817355E+02  0.28658763116E+00  0.10252697328E+03  0.92526326516E+02 0.  0.
         23    2    1    2    0    0 -0.40680445578E+02 -0.17053314328E+02 -0.28831947479E+03  0.30571074957E+03  0.91570894277E+02 0.  0.
        -11    1    4    4    0    0  0.24751827828E+02 -0.25471672629E+02 -0.10901920146E+03  0.11465882161E+03  0.00000000000E+00 0.  1.
         11    1    4    4    0    0 -0.65432273406E+02  0.84183583013E+01 -0.17930027333E+03  0.19105192796E+03  0.00000000000E+00 0. -1.
        -11    1    3    3    0    0 -0.34606371603E+02  0.23336812462E+02  0.10581035983E+02  0.43060028958E+02  0.00000000000E+00 0. -1.
         11    1    3    3    0    0  0.73695320276E+01 -0.58103629817E+02 -0.10294448352E+02  0.59466944323E+02  0.00000000000E+00 0.  1.
         21    1    1    2  502  501  0.67917285154E+02  0.51820131683E+02 -0.22382225741E+03  0.23957146446E+03  0.00000000000E+00 0.  1.
<scales pt_clust_5="13000.00000" pt_clust_6="13000.00000" pt_clust_7="13000.00000" pt_clust_8="13000.00000" pt_clust_9="85.42882"></scales>
<clustering>
<clus scale="   85.429">  2  9  1 -1</clus>
<clus scale="   91.571">  5  6 -1 -1</clus>
<clus scale="   92.526">  7  8 -1 -1</clus>
<clus scale="   97.061">  2  5  1 -1</clus>
<clus scale="   85.429">  2  5  1 -1</clus>
</clustering>
</event>
<event>
 9    1  0.1234700E-005  0.1208524E+03  0.7546771E-02  0.1243550E+00
         -1   -1    0    0    0  501 -0.00000000000E+00  0.00000000000E+00  0.48710208312E+02  0.48710208312E+02  0.00000000000E+00 0.  1.
          1   -1    0    0  502    0  0.00000000000E+00 -0.00000000000E+00 -0.51987468551E+03  0.51987468551E+03  0.00000000000E+00 0. -1.
         23    2    1    2    0    0  0.28990715086E+02  0.71583064546E+02 -0.87746385656E+02  0.15181687752E+03  0.96872800174E+02 0.  0.
         23    2    1    2    0    0  0.17572874297E+02 -0.67590560526E+02 -0.29815528941E+03  0.31953708823E+03  0.91269295892E+02 0.  0.
        -13    1    3    3    0    0  0.50247343788E+00  0.63336952841E+02 -0.10109147180E+03  0.11929504494E+03  0.00000000000E+00 0.  1.
         13    1    3    3    0    0  0.28488241648E+02  0.82461117058E+01  0.13345086148E+02  0.32521832586E+02  0.00000000000E+00 0. -1.
        -13    1    4    4    0    0  0.51005981293E+02 -0.26896269198E+02 -0.11062298533E+03  0.12474960645E+03  0.00000000000E+00 0. -1.
         13    1    4    4    0    0 -0.33433106996E+02 -0.40694291328E+02 -0.18753230407E+03  0.19478748179E+03  0.00000000000E+00 0.  1.
         21    1    1    2  502  501 -0.46563589384E+02 -0.39925040207E+01 -0.85262802136E+02  0.97230928066E+02  0.00000000000E+00 0.  1.
<scales pt_clust_5="13000.00000" pt_clust_6="13000.00000" pt_clust_7="13000.00000" pt_clust_8="13000.00000" pt_clust_9="46.73444"></scales>
<clustering>
<clus scale="   46.734">  2  9  1 -1</clus>
<clus scale="   91.269">  7  8 -1 -1</clus>
<clus scale="   96.873">  5  6 -1 -1</clus>
<clus scale="  116.409">  2  7  1 -1</clus>
<clus scale="   46.734">  2  5  1 -1</clus>
</clustering>
</event>
<event>
 9    1  0.1234700E-005  0.1312038E+03  0.7546771E-02  0.1227474E+00
          1   -1    0    0  502    0  0.00000000000E+00  0.00000000000E+00  0.40845108341E+03  0.40845108341E+03  0.00000000000E+00 0. -1.
         -1   -1    0    0    0  501 -0.00000000000E+00 -0.00000000000E+00 -0.20645109394E+03  0.20645109394E+03  0.00000000000E+00 0.  1.
         23    2    1    2    0    0 -0.13969469158E+02  0.97616020958E+02 -0.16464599438E+03  0.21251911508E+03  0.91279993376E+02 0.  0.
         23    2    1    2    0    0  0.33605716929E+00 -0.63625497671E+02  0.15464317910E+03  0.18724028452E+03  0.84238319182E+02 0.  0.
        -13    1    3    3    0    0  0.29906663367E+02  0.49440319282E+02 -0.12100661685E+03  0.13409457486E+03  0.00000000000E+00 0.  1.
         13    1    3    3    0    0 -0.43876132524E+02  0.48175701676E+02 -0.43639377529E+02  0.78424540218E+02  0.00000000000E+00 0. -1.
        -13    1    4    4    0    0 -0.24856348611E+02  0.85565551166E+01  0.22626923869E+02  0.34684728419E+02  0.00000000000E+00 0.  1.
         13    1    4    4    0    0  0.25192405780E+02 -0.72182052788E+02  0.13201625523E+03  0.15255555611E+03  0.00000000000E+00 0. -1.
         21    1    1    2  502  501  0.13633411988E+02 -0.33990523287E+02  0.21200280476E+03  0.21514277775E+03  0.00000000000E+00 0. -1.
<scales pt_clust_5="13000.00000" pt_clust_6="13000.00000" pt_clust_7="13000.00000" pt_clust_8="13000.00000" pt_clust_9="36.62275"></scales>
<clustering>
<clus scale="   36.623">  1  9  2 -1</clus>
<clus scale="   84.238">  7  8 -1 -1</clus>
<clus scale="   91.280">  5  6 -1 -1</clus>
<clus scale="  126.406">  1  7  2 -1</clus>
<clus scale="   36.623">  1  5  2 -1</clus>
</clustering>
</event>
<event>
 9    1  0.1234700E-005  0.1130458E+03  0.7546771E-02  0.1255845E+00
          1   -1    0    0  502    0  0.00000000000E+00  0.00000000000E+00  0.78338750702E+03  0.78338750702E+03  0.00000000000E+00 0. -1.
         -1   -1    0    0    0  501 -0.00000000000E+00 -0.00000000000E+00 -0.20395086967E+02  0.20395086967E+02  0.00000000000E+00 0.  1.
         23    2    1    2    0    0 -0.53841816404E+02  0.69219348399E+01  0.31688218416E+03  0.33360948842E+03  0.89073664723E+02 0.  0.
         23    2    1    2    0    0  0.80166190653E+02 -0.61848810834E+01  0.35133572810E+03  0.37180785126E+03  0.91320389523E+02 0.  0.
        -11    1    4    4    0    0 -0.69388117752E+01  0.27420665116E+02  0.78541117837E+02  0.83479022367E+02  0.00000000000E+00 0. -1.
         11    1    4    4    0    0  0.87105002428E+02 -0.33605546199E+02  0.27279461027E+03  0.28832882890E+03  0.00000000000E+00 0.  1.
        -13    1    3    3    0    0 -0.93676723837E+00 -0.26489719364E+02  0.30218778067E+02  0.40196483836E+02  0.00000000000E+00 0.  1.
         13    1    3    3    0    0 -0.52905049166E+02  0.33411654204E+02  0.28666340609E+03  0.29341300458E+03  0.00000000000E+00 0. -1.
         21    1    1    2  502  501 -0.26324374249E+02 -0.73705375644E+00  0.94774507794E+02  0.98365254310E+02  0.00000000000E+00 0. -1.
<scales pt_clust_5="13000.00000" pt_clust_6="13000.00000" pt_clust_7="13000.00000" pt_clust_8="13000.00000" pt_clust_9="26.33469"></scales>
<clustering>
<clus scale="   26.335">  1  9  2 -1</clus>
<clus scale="   89.074">  7  8 -1 -1</clus>
<clus scale="   91.320">  5  6 -1 -1</clus>
<clus scale="  111.239">  2  7  1 -1</clus>
<clus scale="   26.335">  1  5  2 -1</clus>
</clustering>
</event>
<event>
 9    1  0.1234700E-005  0.1671874E+03  0.7546771E-02  0.1181062E+00
         -1   -1    0    0    0  501 -0.00000000000E+00  0.00000000000E+00  0.14386526031E+03  0.14386526031E+03  0.00000000000E+00 0.  1.
          1   -1    0    0  502    0  0.00000000000E+00 -0.00000000000E+00 -0.31761463209E+03  0.31761463209E+03  0.00000000000E+00 0. -1.
         23    2    1    2    0    0  0.87794816568E+02  0.11608556489E+03  0.40863353857E+02  0.17682972290E+03  0.91734121359E+02 0.  0.
         23    2    1    2    0    0 -0.69628319860E+02 -0.10360807609E+03 -0.14433162318E+03  0.21099460154E+03  0.90024263789E+02 0.  0.
        -13    1    3    3    0    0  0.63301525133E+02  0.12713271389E+03  0.21336226116E+02  0.14361422134E+03  0.00000000000E+00 0.  1.
         13    1    3    3    0    0  0.24493291435E+02 -0.11047149003E+02  0.19527127741E+02  0.33215501565E+02  0.00000000000E+00 0. -1.
        -13    1    4    4    0    0 -0.21656601931E+02  0.16871949238E+01 -0.70420866300E+02  0.73695002845E+02  0.00000000000E+00 0. -1.
         13    1    4    4    0    0 -0.47971717929E+02 -0.10529527101E+03 -0.73910756880E+02  0.13729959869E+03  0.00000000000E+00 0.  1.
         21    1    1    2  502  501 -0.18166496708E+02 -0.12477488800E+02 -0.70281102457E+02  0.73655567964E+02  0.00000000000E+00 0.  1.
<scales pt_clust_5="13000.00000" pt_clust_6="13000.00000" pt_clust_7="13000.00000" pt_clust_8="13000.00000" pt_clust_9="22.03881"></scales>
<clustering>
<clus scale="   22.039">  2  9  1 -1</clus>
<clus scale="   90.024">  7  8 -1 -1</clus>
<clus scale="   91.734">  5  6 -1 -1</clus>
<clus scale="  166.255">  2  7  1 -1</clus>
<clus scale="   22.039">  2  5  1 -1</clus>
</clustering>
</event>
<event>
 9    1  0.1234700E-005  0.1149022E+03  0.7546771E-02  0.1257952E+00
         -1   -1    0    0    0  501 -0.00000000000E+00  0.00000000000E+00  0.34995755706E+02  0.34995755706E+02  0.00000000000E+00 0.  1.
          1   -1    0    0  502    0  0.00000000000E+00 -0.00000000000E+00 -0.54505182554E+03  0.54505182554E+03  0.00000000000E+00 0. -1.
         23    2    1    2    0    0  0.15659236718E+02 -0.46523659257E+02 -0.10672779228E+03  0.15719585940E+03  0.10445120393E+03 0.  0.
         23    2    1    2    0    0  0.85760736687E+01  0.48512033821E+02 -0.31164043180E+03  0.32799411824E+03  0.89629327800E+02 0.  0.
        -11    1    3    3    0    0 -0.24006110581E+02  0.18618103410E+02 -0.61915383456E+01  0.31004229823E+02  0.00000000000E+00 0.  1.
         11    1    3    3    0    0  0.39665347300E+02 -0.65141762668E+02 -0.10053625393E+03  0.12619162957E+03  0.00000000000E+00 0. -1.
        -11    1    4    4    0    0 -0.19466744360E+02 -0.10698590901E+02 -0.22858027546E+02  0.31873239662E+02  0.00000000000E+00 0.  1.
         11    1    4    4    0    0  0.28042818028E+02  0.59210624722E+02 -0.28878240425E+03  0.29612087858E+03  0.00000000000E+00 0. -1.
         21    1    1    2  502  501 -0.24235310387E+02 -0.19883745636E+01 -0.91687845763E+02  0.94857603616E+02  0.00000000000E+00 0.  1.
<scales pt_clust_5="13000.00000" pt_clust_6="13000.00000" pt_clust_7="13000.00000" pt_clust_8="13000.00000" pt_clust_9="24.31674"></scales>
<clustering>
<clus scale="   24.317">  2  9  1 -1</clus>
<clus scale="   89.629">  7  8 -1 -1</clus>
<clus scale="  101.616">  2  7  1 -1</clus>
<clus scale="  104.451">  5  6 -1 -1</clus>
<clus scale="   24.317">  2  5  1 -1</clus>
</clustering>
</event>
<event>
 9    1  0.1234700E-005  0.1052104E+03  0.7546771E-02  0.1269830E+00
          1   -1    0    0  502    0  0.00000000000E+00  0.00000000000E+00  0.14026071588E+03  0.14026071588E+03  0.00000000000E+00 0. -1.
         -1   -1    0    0    0  501 -0.00000000000E+00 -0.00000000000E+00 -0.16512279910E+03  0.16512279910E+03  0.00000000000E+00 0.  1.
         23    2    1    2    0    0 -0.19162279053E+02 -0.54131474443E+02 -0.10514061196E+03  0.15054143104E+03  0.91163395671E+02 0.  0.
         23    2    1    2    0    0  0.75808129175E+01  0.37145613046E+02  0.33941942188E+02  0.10414958846E+03  0.90872526348E+02 0.  0.
        -11    1    4    4    0    0  0.59875938750E+01 -0.20344214047E+02  0.41045809994E+02  0.46200615187E+02  0.00000000000E+00 0.  1.
         11    1    4    4    0    0  0.15932190425E+01  0.57489827093E+02 -0.71038678066E+01  0.57948973277E+02  0.00000000000E+00 0. -1.
        -13    1    3    3    0    0 -0.99377235149E+01  0.22211568039E+02 -0.59795197389E+01  0.25057269599E+02  0.00000000000E+00 0. -1.
         13    1    3    3    0    0 -0.92245555385E+01 -0.76343042483E+02 -0.99161092225E+02  0.12548416144E+03  0.00000000000E+00 0.  1.
         21    1    1    2  502  501  0.11581466136E+02  0.16985861397E+02  0.46336586556E+02  0.50692495489E+02  0.00000000000E+00 0. -1.
<scales pt_clust_5="13000.00000" pt_clust_6="13000.00000" pt_clust_7="13000.00000" pt_clust_8="13000.00000" pt_clust_9="20.55845"></scales>
<clustering>
<clus scale="   20.558">  1  9  2 -1</clus>
<clus scale="   90.873">  5  6 -1 -1</clus>
<clus scale="   91.163">  7  8 -1 -1</clus>
<clus scale="  104.958">  1  5  2 -1</clus>
<clus scale="   20.558">  1  5  2 -1</clus>
</clustering>
</event>
<event>
 9    1  0.1234700E-005  0.1191394E+03  0.7546771E-02  0.1253400E+00
          3   -1    0    0  502    0  0.00000000000E+00  0.00000000000E+00  0.52989472503E+02  0.52989472503E+02  0.00000000000E+00 0. -1.
         -3   -1    0    0    0  501 -0.00000000000E+00 -0.00000000000E+00 -0.28636725801E+03  0.28636725801E+03  0.00000000000E+00 0.  1.
         23    2    1    2    0    0  0.25368941945E+02  0.38472655442E+02 -0.13907196125E+03  0.17283218020E+03  0.91685460543E+02 0.  0.
         23    2    1    2    0    0 -0.21659219099E+02 -0.17489096768E+02 -0.77706360980E+02  0.13951318309E+03  0.11247515033E+03 0.  0.
        -11    1    3    3    0    0  0.14337832825E+02 -0.26199057778E+02 -0.76699497401E+02  0.82309033405E+02  0.00000000000E+00 0.  1.
         11    1    3    3    0    0  0.11031109120E+02  0.64671713220E+02 -0.62372463849E+02  0.90523146796E+02  0.00000000000E+00 0. -1.
        -13    1    4    4    0    0 -0.66736361341E+02 -0.48224184233E+01 -0.58594363065E+02  0.88939850616E+02  0.00000000000E+00 0.  1.
         13    1    4    4    0    0  0.45077142243E+02 -0.12666678345E+02 -0.19111997915E+02  0.50573332472E+02  0.00000000000E+00 0. -1.
         21    1    1    2  502  501 -0.37097228468E+01 -0.20983558674E+02 -0.16599463278E+02  0.27011367225E+02  0.00000000000E+00 0.  1.
<scales pt_clust_5="13000.00000" pt_clust_6="13000.00000" pt_clust_7="13000.00000" pt_clust_8="13000.00000" pt_clust_9="21.30896"></scales>
<clustering>
<clus scale="   21.309">  1  9  2 -1</clus>
<clus scale="   91.685">  5  6 -1 -1</clus>
<clus scale="   99.748">  2  5  1 -1</clus>
<clus scale="  112.475">  7  8 -1 -1</clus>
<clus scale="   21.309">  1  5  2 -1</clus>
</clustering>
</event>
<event>
 9    1  0.1234700E-005  0.1373443E+03  0.7546771E-02  0.1217202E+00
          2   -1    0    0  502    0  0.00000000000E+00  0.00000000000E+00  0.24186133898E+03  0.24186133898E+03  0.00000000000E+00 0. -1.
         -2   -1    0    0    0  501 -0.00000000000E+00 -0.00000000000E+00 -0.97968568926E+02  0.97968568926E+02  0.00000000000E+00 0.  1.
         23    2    1    2    0    0  0.33928498208E+02  0.10856502740E+03  0.47164651431E+02  0.15403060691E+03  0.92538723541E+02 0.  0.
         23    2    1    2    0    0 -0.33041104878E+02 -0.80442606000E+02  0.64898850387E+02  0.14331682968E+03  0.93622248516E+02 0.  0.
        -11    1    4    4    0    0 -0.65882593244E+02 -0.50871458209E+02  0.47386941011E+02  0.95780705422E+02  0.00000000000E+00 0.  1.
         11    1    4    4    0    0  0.32841488366E+02 -0.29571147791E+02  0.17511909376E+02  0.47536124261E+02  0.00000000000E+00 0. -1.
        -13    1    3    3    0    0 -0.26208688557E+01  0.30160237949E+02 -0.26634659089E+02  0.40322623569E+02  0.00000000000E+00 0.  1.
         13    1    3    3    0    0  0.36549367064E+02  0.78404789454E+02  0.73799310520E+02  0.11370798334E+03  0.00000000000E+00 0. -1.
         21    1    1    2  502  501 -0.88739333008E+00 -0.28122421403E+02  0.31829268233E+02  0.42482471312E+02  0.00000000000E+00 0.  1.
<scales pt_clust_5="13000.00000" pt_clust_6="13000.00000" pt_clust_7="13000.00000" pt_clust_8="13000.00000" pt_clust_9="28.13642"></scales>
<clustering>
<clus scale="   28.136">  1  9  2 -1</clus>
<clus scale="   92.539">  7  8 -1 -1</clus>
<clus scale="   93.622">  5  6 -1 -1</clus>
<clus scale="  136.608">  2  7  1 -1</clus>
<clus scale="   28.136">  1  5  2 -1</clus>
</clustering>
</event>
<event>
 9    1  0.1234700E-005  0.9641200E+02  0.7546771E-02  0.1288183E+00
          2   -1    0    0  502    0  0.00000000000E+00  0.00000000000E+00  0.58664935756E+03  0.58664935756E+03  0.00000000000E+00 0. -1.
         -2   -1    0    0    0  501 -0.00000000000E+00 -0.00000000000E+00 -0.27829287068E+02  0.27829287068E+02  0.00000000000E+00 0.  1.
         23    2    1    2    0    0 -0.30445667102E+02 -0.19467932182E+02  0.13170820818E+03  0.16423052170E+03  0.91206760311E+02 0.  0.
         23    2    1    2    0    0  0.30788361820E+02 -0.13751305024E+02  0.21904631237E+03  0.23954713044E+03  0.90909400663E+02 0.  0.
        -11    1    3    3    0    0 -0.50552403893E+02  0.18576066949E+02  0.60215234033E+02  0.80786695763E+02  0.00000000000E+00 0.  1.
         11    1    3    3    0    0  0.20106736791E+02 -0.38043999132E+02  0.71492974145E+02  0.83443825934E+02  0.00000000000E+00 0. -1.
        -11    1    4    4    0    0  0.21798249720E+02  0.38116220527E+02  0.88723124215E+02  0.98993952990E+02  0.00000000000E+00 0.  1.
         11    1    4    4    0    0  0.89901121003E+01 -0.51867525550E+02  0.13032318815E+03  0.14055317745E+03  0.00000000000E+00 0. -1.
         21    1    1    2  502  501 -0.34269471753E+00  0.33219237206E+02  0.20806554995E+03  0.21070099249E+03  0.00000000000E+00 0. -1.
<scales pt_clust_5="13000.00000" pt_clust_6="13000.00000" pt_clust_7="13000.00000" pt_clust_8="13000.00000" pt_clust_9="33.22100"></scales>
<clustering>
<clus scale="   33.221">  1  9  2 -1</clus>
<clus scale="   90.909">  7  8 -1 -1</clus>
<clus scale="   91.207">  5  6 -1 -1</clus>
<clus scale="   96.131">  1  7  2 -1</clus>
<clus scale="   33.221">  1  5  2 -1</clus>
</clustering>
</event>
<event>
 9    1  0.1234700E-005  0.9684254E+02  0.7546771E-02  0.1289190E+00
          2   -1    0    0  502    0  0.00000000000E+00  0.00000000000E+00  0.27573148494E+03  0.27573148494E+03  0.00000000000E+00 0. -1.
         -2   -1    0    0    0  501 -0.00000000000E+00 -0.00000000000E+00 -0.59287291381E+02  0.59287291381E+02  0.00000000000E+00 0.  1.
         23    2    1    2    0    0  0.25591398993E+02 -0.19492090972E+01  0.17669760241E+02  0.95439931541E+02  0.90209982746E+02 0.  0.
         23    2    1    2    0    0 -0.13103349843E+02 -0.27099102206E+02  0.12506925242E+03  0.15937778835E+03  0.94089863433E+02 0.  0.
        -11    1    4    4    0    0 -0.32640568032E+02 -0.44864038895E+02  0.12039115759E+03  0.13256024854E+03  0.00000000000E+00 0. -1.
         11    1    4    4    0    0  0.19537218188E+02  0.17764936690E+02  0.46780948292E+01  0.26817539808E+02  0.00000000000E+00 0.  1.
        -13    1    3    3    0    0  0.55813935159E+02 -0.82903912969E+01  0.27849489583E+02  0.62924717050E+02  0.00000000000E+00 0.  1.
         13    1    3    3    0    0 -0.30222536165E+02  0.63411821997E+01 -0.10179729342E+02  0.32515214492E+02  0.00000000000E+00 0. -1.
         21    1    1    2  502  501 -0.12488049150E+02  0.29048311303E+02  0.73705180905E+02  0.80201056436E+02  0.00000000000E+00 0. -1.
<scales pt_clust_5="13000.00000" pt_clust_6="13000.00000" pt_clust_7="13000.00000" pt_clust_8="13000.00000" pt_clust_9="31.61891"></scales>
<clustering>
<clus scale="   31.619">  1  9  2 -1</clus>
<clus scale="   90.210">  7  8 -1 -1</clus>
<clus scale="   93.077">  2  7  1 -1</clus>
<clus scale="   94.090">  5  6 -1 -1</clus>
<clus scale="   31.619">  1  5  2 -1</clus>
</clustering>
</event>
<event>
 9    1  0.1234700E-005  0.1650711E+03  0.7546771E-02  0.1183228E+00
          2   -1    0    0  502    0  0.00000000000E+00  0.00000000000E+00  0.10978609282E+03  0.10978609282E+03  0.00000000000E+00 0. -1.
         -2   -1    0    0    0  501 -0.00000000000E+00 -0.00000000000E+00 -0.38160389023E+03  0.38160389023E+03  0.00000000000E+00 0.  1.
         23    2    1    2    0    0 -0.56386073346E+02  0.13206328152E+03 -0.24258650955E+03  0.29600796083E+03  0.90290634418E+02 0.  0.
         23    2    1    2    0    0  0.19141024027E+02 -0.12371272757E+03 -0.20795403977E+02  0.15629123574E+03  0.91232032646E+02 0.  0.
        -11    1    3    3    0    0 -0.20443876348E+02  0.92886064651E+02 -0.77861290518E+02  0.12291522952E+03  0.00000000000E+00 0. -1.
         11    1    3    3    0    0 -0.35942196998E+02  0.39177216873E+02 -0.16472521903E+03  0.17309273131E+03  0.00000000000E+00 0.  1.
        -13    1    4    4    0    0 -0.32966017286E+02 -0.23041684829E+02 -0.14518735014E+02  0.42760626772E+02  0.00000000000E+00 0.  1.
         13    1    4    4    0    0  0.52107041313E+02 -0.10067104274E+03 -0.62766689634E+01  0.11353060897E+03  0.00000000000E+00 0. -1.
         21    1    1    2  502  501  0.37245049319E+02 -0.83505539593E+01 -0.84358838829E+01  0.39090786473E+02  0.00000000000E+00 0. -1.
<scales pt_clust_5="13000.00000" pt_clust_6="13000.00000" pt_clust_7="13000.00000" pt_clust_8="13000.00000" pt_clust_9="38.16969"></scales>
<clustering>
<clus scale="   38.170">  1  9  2 -1</clus>
<clus scale="   90.291">  5  6 -1 -1</clus>
<clus scale="   91.232">  7  8 -1 -1</clus>
<clus scale="  164.553">  2  5  1 -1</clus>
<clus scale="   38.170">  1  5  2 -1</clus>
</clustering>
</event>
<event>
 9    1  0.1234700E-005  0.1698061E+03  0.7546771E-02  0.1178052E+00
         -2   -1    0    0    0  501 -0.00000000000E+00  0.00000000000E+00  0.17357971440E+03  0.17357971440E+03  0.00000000000E+00 0.  1.
          2   -1    0    0  502    0  0.00000000000E+00 -0.00000000000E+00 -0.24841106014E+03  0.24841106014E+03  0.00000000000E+00 0. -1.
         23    2    1    2    0    0 -0.15232330644E+02  0.13724487287E+03  0.28947647919E+02  0.16780974473E+03  0.90851335049E+02 0.  0.
         23    2    1    2    0    0 -0.29347694663E+02 -0.15528439667E+03 -0.69316639188E+02  0.19501637016E+03  0.90840834060E+02 0.  0.
        -11    1    4    4    0    0 -0.53848629861E+02 -0.14505834313E+03 -0.51638883001E+02  0.16312011552E+03  0.00000000000E+00 0.  1.
         11    1    4    4    0    0  0.24500935198E+02 -0.10226053539E+02 -0.17677756187E+02  0.31896254645E+02  0.00000000000E+00 0. -1.
        -11    1    3    3    0    0  0.34783838111E+02  0.65174986300E+02 -0.42863361508E+01  0.74000452097E+02  0.00000000000E+00 0. -1.
         11    1    3    3    0    0 -0.50016168755E+02  0.72069886575E+02  0.33233984070E+02  0.93809292637E+02  0.00000000000E+00 0.  1.
         21    1    1    2  502  501  0.44580025307E+02  0.18039523791E+02 -0.34462354479E+02  0.59164659647E+02  0.00000000000E+00 0.  1.
<scales pt_clust_5="13000.00000" pt_clust_6="13000.00000" pt_clust_7="13000.00000" pt_clust_8="13000.00000" pt_clust_9="48.09161"></scales>
<clustering>
<clus scale="   48.092">  2  9  1 -1</clus>
<clus scale="   90.841">  5  6 -1 -1</clus>
<clus scale="   90.851">  7  8 -1 -1</clus>
<clus scale="  169.800">  2  5  1 -1</clus>
<clus scale="   48.092">  2  5  1 -1</clus>
</clustering>
</event>
<event>
 9    1  0.1234700E-005  0.1587269E+03  0.7546771E-02  0.1211830E+00
         -2   -1    0    0    0  501 -0.00000000000E+00  0.00000000000E+00  0.48296723331E+03  0.48296723331E+03  0.00000000000E+00 0.  1.
          2   -1    0    0  502    0  0.00000000000E+00 -0.00000000000E+00 -0.59476673696E+03  0.59476673696E+03  0.00000000000E+00 0. -1.
         23    2    1    2    0    0 -0.12468298644E+03 -0.36185450341E+02  0.44463572952E+03  0.47221841579E+03  0.91837172872E+02 0.  0.
         23    2    1    2    0    0  0.21671623321E+02 -0.32512469782E+02 -0.14363976371E+03  0.17455053877E+03  0.91152558480E+02 0.  0.
        -11    1    3    3    0    0 -0.83519215733E+02  0.21967196092E+02  0.21192848529E+03  0.22884863989E+03  0.00000000000E+00 0.  1.
         11    1    3    3    0    0 -0.41163770711E+02 -0.58152646433E+02  0.23270724423E+03  0.24336977590E+03  0.00000000000E+00 0. -1.
        -11    1    4    4    0    0  0.54649290572E+02 -0.28577308516E+02 -0.11586710700E+03  0.13125697698E+03  0.00000000000E+00 0. -1.
         11    1    4    4    0    0 -0.32977667251E+02 -0.39351612660E+01 -0.27772656713E+02  0.43293561790E+02  0.00000000000E+00 0.  1.
         21    1    1    2  502  501  0.10301136312E+03  0.68697920123E+02 -0.41279546946E+03  0.43096501571E+03  0.00000000000E+00 0. -1.
<scales pt_clust_5="13000.00000" pt_clust_6="13000.00000" pt_clust_7="13000.00000" pt_clust_8="13000.00000" pt_clust_9="129.46110"></scales>
<clustering>
<clus scale="   91.153">  7  8 -1 -1</clus>
<clus scale="   91.837">  5  6 -1 -1</clus>
<clus scale="   99.174">  2  7  1 -1</clus>
<clus scale="  129.461">  2  9  1 -1</clus>
<clus scale="   99.174">  2  5  1 -1</clus>
</clustering>
</event>
<event>
 9    1  0.1234700E-005  0.1118320E+03  0.7546771E-02  0.1260399E+00
          2   -1    0    0  502    0  0.00000000000E+00  0.00000000000E+00  0.13562330253E+03  0.13562330253E+03  0.00000000000E+00 0. -1.
         -2   -1    0    0    0  501 -0.00000000000E+00 -0.00000000000E+00 -0.11446546963E+03  0.11446546963E+03  0.00000000000E+00 0.  1.
         23    2    1    2    0    0 -0.52627162597E+02  0.80079269957E+01 -0.19544476075E+02  0.10788212434E+03  0.91775928597E+02 0.  0.
         23    2    1    2    0    0  0.48691017715E+02  0.13453130029E+02  0.22564630779E+02  0.11383332275E+03  0.99483973044E+02 0.  0.
        -11    1    3    3    0    0  0.19822958891E+01 -0.30413567656E+02 -0.26972081791E+02  0.40698990045E+02  0.00000000000E+00 0.  1.
         11    1    3    3    0    0 -0.54609458486E+02  0.38421494651E+02  0.74276057159E+01  0.67183134298E+02  0.00000000000E+00 0. -1.
        -13    1    4    4    0    0 -0.11099524192E+02 -0.31218463436E+02 -0.64527319475E+01  0.33755438764E+02  0.00000000000E+00 0.  1.
         13    1    4    4    0    0  0.59790541907E+02  0.44671593464E+02  0.29017362727E+02  0.80077883987E+02  0.00000000000E+00 0. -1.
         21    1    1    2  502  501  0.39361448815E+01 -0.21461057024E+02  0.18137678199E+02  0.28373325071E+02  0.00000000000E+00 0.  1.
<scales pt_clust_5="13000.00000" pt_clust_6="13000.00000" pt_clust_7="13000.00000" pt_clust_8="13000.00000" pt_clust_9="21.81903"></scales>
<clustering>
<clus scale="   21.819">  1  9  2 -1</clus>
<clus scale="   91.776">  5  6 -1 -1</clus>
<clus scale="   99.484">  7  8 -1 -1</clus>
<clus scale="  105.034">  2  5  1 -1</clus>
<clus scale="   21.819">  1  5  2 -1</clus>
</clustering>
</event>
<event>
 9    1  0.1234700E-005  0.2321266E+03  0.7546771E-02  0.1125213E+00
          1   -1    0    0  502    0  0.00000000000E+00  0.00000000000E+00  0.38966010802E+03  0.38966010802E+03  0.00000000000E+00 0. -1.
         -1   -1    0    0    0  501 -0.00000000000E+00 -0.00000000000E+00 -0.28664647978E+03  0.28664647978E+03  0.00000000000E+00 0.  1.
         23    2    1    2    0    0  0.17854026163E+03  0.17241723108E+02 -0.29059103929E+02  0.20190772696E+03  0.88024977410E+02 0.  0.
         23    2    1    2    0    0 -0.26019137565E+03 -0.50930439654E+02 -0.39087470410E+02  0.28179136101E+03  0.87092359886E+02 0.  0.
        -11    1    3    3    0    0  0.11418190966E+03  0.52230300539E+02 -0.86246250092E+01  0.12585665236E+03  0.00000000000E+00 0.  1.
         11    1    3    3    0    0  0.64358351968E+02 -0.34988577431E+02 -0.20434478920E+02  0.76051074598E+02  0.00000000000E+00 0. -1.
        -11    1    4    4    0    0 -0.22117133877E+03 -0.11367138870E+02 -0.44737387292E+02  0.22593673177E+03  0.00000000000E+00 0. -1.
         11    1    4    4    0    0 -0.39020036878E+02 -0.39563300784E+02  0.56499168828E+01  0.55854629241E+02  0.00000000000E+00 0.  1.
         21    1    1    2  502  501  0.81651114025E+02  0.33688716546E+02  0.17116020258E+03  0.19260749983E+03  0.00000000000E+00 0.  1.
<scales pt_clust_5="13000.00000" pt_clust_6="13000.00000" pt_clust_7="13000.00000" pt_clust_8="13000.00000" pt_clust_9="88.32799"></scales>
<clustering>
<clus scale="   87.092">  7  8 -1 -1</clus>
<clus scale="   88.025">  5  6 -1 -1</clus>
<clus scale="   88.328">  1  9  2 -1</clus>
<clus scale="  231.775">  1  7  2 -1</clus>
<clus scale="   88.328">  1  5  2 -1</clus>
</clustering>
</event>
<event>
 9    1  0.1234700E-005  0.1187635E+03  0.7546771E-02  0.1249556E+00
          1   -1    0    0  502    0  0.00000000000E+00  0.00000000000E+00  0.25863502747E+03  0.25863502747E+03  0.00000000000E+00 0. -1.
         -1   -1    0    0    0  501 -0.00000000000E+00 -0.00000000000E+00 -0.16645725265E+03  0.16645725265E+03  0.00000000000E+00 0.  1.
         23    2    1    2    0    0  0.16034058161E+01 -0.68054069155E+02 -0.77957058726E+02  0.13628820506E+03  0.88674937808E+02 0.  0.
         23    2    1    2    0    0  0.23063965359E+02 -0.53932142309E+02  0.85277842850E+02  0.13817265782E+03  0.91535514506E+02 0.  0.
        -11    1    3    3    0    0  0.36312494035E+02 -0.64327462745E+02 -0.37467212422E+02  0.82827602241E+02  0.00000000000E+00 0.  1.
         11    1    3    3    0    0 -0.34709088219E+02 -0.37266064100E+01 -0.40489846305E+02  0.53460602822E+02  0.00000000000E+00 0. -1.
        -11    1    4    4    0    0  0.55350074660E+02 -0.21874689904E+02  0.30221081577E+02  0.66749131792E+02  0.00000000000E+00 0.  1.
         11    1    4    4    0    0 -0.32286109302E+02 -0.32057452405E+02  0.55056761272E+02  0.71423526028E+02  0.00000000000E+00 0. -1.
         21    1    1    2  502  501 -0.24667371175E+02  0.12198621146E+03  0.84856990698E+02  0.15063141724E+03  0.00000000000E+00 0. -1.
<scales pt_clust_5="13000.00000" pt_clust_6="13000.00000" pt_clust_7="13000.00000" pt_clust_8="13000.00000" pt_clust_9="79.00332"></scales>
<clustering>
<clus scale="   88.675">  5  6 -1 -1</clus>
<clus scale="   91.536">  7  8 -1 -1</clus>
<clus scale="  108.717">  1  7  2 -1</clus>
<clus scale="   79.003">  1  9  2 -1</clus>
<clus scale="  108.717">  1  5  2 -1</clus>
</clustering>
</event>
<event>
 9    1  0.1234700E-005  0.1424223E+03  0.7546771E-02  0.1229501E+00
         -1   -1    0    0    0  501 -0.00000000000E+00  0.00000000000E+00  0.65313278317E+02  0.65313278317E+02  0.00000000000E+00 0.  1.
          1   -1    0    0  502    0  0.00000000000E+00 -0.00000000000E+00 -0.71872800505E+03  0.71872800505E+03  0.00000000000E+00 0. -1.
         23    2    1    2    0    0  0.25949398524E+02 -0.23062218778E+02 -0.26614290405E+02  0.98431396996E+02  0.88176993838E+02 0.  0.
         23    2    1    2    0    0 -0.10698674519E+03 -0.49457516376E+02 -0.22697728889E+03  0.27126134617E+03  0.90398112156E+02 0.  0.
        -11    1    3    3    0    0  0.53559285066E+02 -0.28346766385E+02 -0.33839843694E+02  0.69406564549E+02  0.00000000000E+00 0.  1.
         11    1    3    3    0    0 -0.27609886542E+02  0.52845476070E+01  0.72255532888E+01  0.29024832448E+02  0.00000000000E+00 0. -1.
        -13    1    4    4    0    0 -0.35461660616E+02 -0.13034373406E+02 -0.88063027336E+01  0.38794010253E+02  0.00000000000E+00 0.  1.
         13    1    4    4    0    0 -0.71525084572E+02 -0.36423142970E+02 -0.21817098616E+03  0.23246733592E+03  0.00000000000E+00 0. -1.
         21    1    1    2  502  501  0.81037346664E+02  0.72519735154E+02 -0.39982314744E+03  0.41434854021E+03  0.00000000000E+00 0. -1.
<scales pt_clust_5="13000.00000" pt_clust_6="13000.00000" pt_clust_7="13000.00000" pt_clust_8="13000.00000" pt_clust_9="110.05590"></scales>
<clustering>
<clus scale="   88.177">  5  6 -1 -1</clus>
<clus scale="   90.398">  7  8 -1 -1</clus>
<clus scale="   94.765">  1  5  2 -1</clus>
<clus scale="  110.056">  2  9  1 -1</clus>
<clus scale="  110.056">  2  5  1 -1</clus>
</clustering>
</event>
<event>
 9    1  0.1234700E-005  0.1004160E+03  0.7546771E-02  0.1279995E+00
          1   -1    0    0  502    0  0.00000000000E+00  0.00000000000E+00  0.40259967242E+03  0.40259967242E+03  0.00000000000E+00 0. -1.
         -1   -1    0    0    0  501 -0.00000000000E+00 -0.00000000000E+00 -0.34977973723E+02  0.34977973723E+02  0.00000000000E+00 0.  1.
         23    2    1    2    0    0  0.42300775031E+02 -0.25944377361E+02  0.11549193691E+03  0.15552474268E+03  0.91581066885E+02 0.  0.
         23    2    1    2    0    0 -0.34175978212E+02  0.25339186096E+01  0.22209856686E+03  0.24311789902E+03  0.92758402251E+02 0.  0.
        -13    1    3    3    0    0 -0.16194038722E+02 -0.25230343525E+02  0.48505123566E+01  0.30370126682E+02  0.00000000000E+00 0.  1.
         13    1    3    3    0    0  0.58494813754E+02 -0.71403383581E+00  0.11064142455E+03  0.12515461600E+03  0.00000000000E+00 0. -1.
        -13    1    4    4    0    0 -0.30872704025E+02 -0.43000431425E+02  0.12859115915E+03  0.13906058812E+03  0.00000000000E+00 0.  1.
         13    1    4    4    0    0 -0.33032741869E+01  0.45534350035E+02  0.93507407712E+02  0.10405731089E+03  0.00000000000E+00 0. -1.
         21    1    1    2  502  501 -0.81247968194E+01  0.23410458751E+02  0.30031194926E+02  0.38935004443E+02  0.00000000000E+00 0. -1.
<scales pt_clust_5="13000.00000" pt_clust_6="13000.00000" pt_clust_7="13000.00000" pt_clust_8="13000.00000" pt_clust_9="24.78027"></scales>
<clustering>
<clus scale="   24.780">  2  9  1 -1</clus>
<clus scale="   91.581">  5  6 -1 -1</clus>
<clus scale="   92.758">  7  8 -1 -1</clus>
<clus scale="   99.329">  2  5  1 -1</clus>
<clus scale="  100.416">  1  5  2 -1</clus>
</clustering>
</event>
<event>
 9    1  0.1234700E-005  0.9178659E+02  0.7546771E-02  0.1299367E+00
          2   -1    0    0  502    0  0.00000000000E+00  0.00000000000E+00  0.49380364382E+03  0.49380364382E+03  0.00000000000E+00 0. -1.
         -2   -1    0    0    0  501 -0.00000000000E+00 -0.00000000000E+00 -0.71067569247E+02  0.71067569247E+02  0.00000000000E+00 0.  1.
         23    2    1    2    0    0  0.66701840631E+01 -0.10622446701E+02 -0.28328386443E+02  0.95024537916E+02  0.89832274814E+02 0.  0.
         23    2    1    2    0    0  0.20867545383E+02  0.57809308719E+01  0.25252693698E+03  0.26935000368E+03  0.91163024152E+02 0.  0.
        -11    1    4    4    0    0  0.17343774174E+02  0.39903486349E+02  0.61904139265E+02  0.75665164927E+02  0.00000000000E+00 0.  1.
         11    1    4    4    0    0  0.35237712093E+01 -0.34122555477E+02  0.19062279771E+03  0.19368483876E+03  0.00000000000E+00 0. -1.
        -11    1    3    3    0    0  0.45862637189E+02  0.32820599760E+01 -0.27201229932E+02  0.53423406083E+02  0.00000000000E+00 0.  1.
         11    1    3    3    0    0 -0.39192453126E+02 -0.13904506677E+02 -0.11271565104E+01  0.41601131833E+02  0.00000000000E+00 0. -1.
         21    1    1    2  502  501 -0.27537729446E+02  0.48415158290E+01  0.19853752404E+03  0.20049667147E+03  0.00000000000E+00 0. -1.
<scales pt_clust_5="13000.00000" pt_clust_6="13000.00000" pt_clust_7="13000.00000" pt_clust_8="13000.00000" pt_clust_9="27.96009"></scales>
<clustering>
<clus scale="   27.960">  1  9  2 -1</clus>
<clus scale="   89.832">  7  8 -1 -1</clus>
<clus scale="   90.465">  2  7  1 -1</clus>
<clus scale="   91.163">  5  6 -1 -1</clus>
<clus scale="   27.960">  1  5  2 -1</clus>
</clustering>
</event>
<event>
 9    1  0.1234700E-005  0.9983715E+02  0.7546771E-02  0.1280817E+00
          2   -1    0    0  502    0  0.00000000000E+00  0.00000000000E+00  0.34637456498E+03  0.34637456498E+03  0.00000000000E+00 0. -1.
         -2   -1    0    0    0  501 -0.00000000000E+00 -0.00000000000E+00 -0.97292894158E+02  0.97292894158E+02  0.00000000000E+00 0.  1.
         23    2    1    2    0    0 -0.39868739677E+02 -0.11949229346E+02 -0.54700924586E+02  0.11449274504E+03  0.91564714989E+02 0.  0.
         23    2    1    2    0    0  0.16068037066E+02  0.18759014984E+02  0.18743229466E+03  0.21021993652E+03  0.91931899628E+02 0.  0.
        -13    1    3    3    0    0 -0.30248479021E+02  0.34200552735E+02 -0.49053041383E+02  0.67013798276E+02  0.00000000000E+00 0. -1.
         13    1    3    3    0    0 -0.96202606562E+01 -0.46149782081E+02 -0.56478832026E+01  0.47478946764E+02  0.00000000000E+00 0.  1.
        -13    1    4    4    0    0 -0.29158296686E+02 -0.19719977986E+02  0.58563927952E+02  0.68328745448E+02  0.00000000000E+00 0.  1.
         13    1    4    4    0    0  0.45226333753E+02  0.38478992970E+02  0.12886836671E+03  0.14189119107E+03  0.00000000000E+00 0. -1.
         21    1    1    2  502  501  0.23800702611E+02 -0.68097856376E+01  0.11635030075E+03  0.11895477758E+03  0.00000000000E+00 0. -1.
<scales pt_clust_5="13000.00000" pt_clust_6="13000.00000" pt_clust_7="13000.00000" pt_clust_8="13000.00000" pt_clust_9="24.75574"></scales>
<clustering>
<clus scale="   24.756">  1  9  2 -1</clus>
<clus scale="   91.565">  5  6 -1 -1</clus>
<clus scale="   91.932">  7  8 -1 -1</clus>
<clus scale="   99.499">  2  5  1 -1</clus>
<clus scale="   24.756">  1  5  2 -1</clus>
</clustering>
</event>
<event>
 9    1  0.1234700E-005  0.1596530E+03  0.7546771E-02  0.1190100E+00
          2   -1    0    0  502    0  0.00000000000E+00  0.00000000000E+00  0.62154007229E+03  0.62154007229E+03  0.00000000000E+00 0. -1.
         -2   -1    0    0    0  501 -0.00000000000E+00 -0.00000000000E+00 -0.15354508457E+03  0.15354508457E+03  0.00000000000E+00 0.  1.
         23    2    1    2    0    0 -0.59459569800E+02 -0.12101650409E+03 -0.85781758527E+02  0.18110801859E+03  0.85212496731E+02 0.  0.
         23    2    1    2    0    0  0.55730078822E+02  0.69475343485E+02  0.51153050500E+03  0.52723026390E+03  0.91518460367E+02 0.  0.
        -11    1    4    4    0    0  0.77003720034E+01  0.77092981782E+02  0.27232722766E+03  0.28313378903E+03  0.00000000000E+00 0. -1.
         11    1    4    4    0    0  0.48029706819E+02 -0.76176382975E+01  0.23920327735E+03  0.24409647487E+03  0.00000000000E+00 0.  1.
        -13    1    3    3    0    0 -0.24560959528E+02 -0.11442533029E+03 -0.86591418179E+02  0.14558320867E+03  0.00000000000E+00 0.  1.
         13    1    3    3    0    0 -0.34898610272E+02 -0.65911737964E+01  0.80965965142E+00  0.35524809918E+02  0.00000000000E+00 0. -1.
         21    1    1    2  502  501  0.37294909781E+01  0.51541160602E+02  0.42246241242E+02  0.66746874371E+02  0.00000000000E+00 0. -1.
<scales pt_clust_5="13000.00000" pt_clust_6="13000.00000" pt_clust_7="13000.00000" pt_clust_8="13000.00000" pt_clust_9="51.67592"></scales>
<clustering>
<clus scale="   51.676">  1  9  2 -1</clus>
<clus scale="   85.212">  7  8 -1 -1</clus>
<clus scale="   91.518">  5  6 -1 -1</clus>
<clus scale="  156.124">  2  7  1 -1</clus>
<clus scale="   51.676">  1  5  2 -1</clus>
</clustering>
</event>
<event>
 9    1  0.1234700E-005  0.1216983E+03  0.7546771E-02  0.1240387E+00
          1   -1    0    0  502    0  0.00000000000E+00  0.00000000000E+00  0.22196222213E+03  0.22196222213E+03  0.00000000000E+00 0. -1.
         -1   -1    0    0    0  501 -0.00000000000E+00 -0.00000000000E+00 -0.19352058115E+03  0.19352058115E+03  0.00000000000E+00 0.  1.
         23    2    1    2    0    0  0.74997272096E+02  0.48653678046E+02 -0.10500306900E+03  0.16454425902E+03  0.89763007223E+02 0.  0.
         23    2    1    2    0    0 -0.16386246792E+02 -0.79962653807E+02  0.25428413874E+02  0.12411967944E+03  0.89980861880E+02 0.  0.
        -11    1    3    3    0    0  0.35293600905E+02  0.72302376347E+02 -0.65445942994E+02  0.10371327468E+03  0.00000000000E+00 0.  1.
         11    1    3    3    0    0  0.39703671190E+02 -0.23648698300E+02 -0.39557126008E+02  0.60830984336E+02  0.00000000000E+00 0. -1.
        -13    1    4    4    0    0  0.29347624859E+02 -0.24589656624E+02 -0.15674564624E+02  0.41371805301E+02  0.00000000000E+00 0.  1.
         13    1    4    4    0    0 -0.45733871651E+02 -0.55372997184E+02  0.41102978498E+02  0.82747874140E+02  0.00000000000E+00 0. -1.
         21    1    1    2  502  501 -0.58611025304E+02  0.31308975761E+02  0.10801629611E+03  0.12681886482E+03  0.00000000000E+00 0.  1.
<scales pt_clust_5="13000.00000" pt_clust_6="13000.00000" pt_clust_7="13000.00000" pt_clust_8="13000.00000" pt_clust_9="66.44926"></scales>
<clustering>
<clus scale="   66.449">  1  9  2 -1</clus>
<clus scale="   89.763">  5  6 -1 -1</clus>
<clus scale="   89.981">  7  8 -1 -1</clus>
<clus scale="  121.537">  2  5  1 -1</clus>
<clus scale="   66.449">  1  5  2 -1</clus>
</clustering>
</event>
<event>
 9    1  0.1234700E-005  0.1192445E+03  0.7546771E-02  0.1245286E+00
          2   -1    0    0  502    0  0.00000000000E+00  0.00000000000E+00  0.41163833054E+03  0.41163833054E+03  0.00000000000E+00 0. -1.
         -2   -1    0    0    0  501 -0.00000000000E+00 -0.00000000000E+00 -0.87563733769E+02  0.87563733769E+02  0.00000000000E+00 0.  1.
         23    2    1    2    0    0  0.40383906873E+02  0.50631514474E+02  0.21083859749E+01  0.11446749782E+03  0.94360757593E+02 0.  0.
         23    2    1    2    0    0 -0.75270527629E+02 -0.57963318329E+02  0.11587408967E+03  0.17558200484E+03  0.91525063039E+02 0.  0.
        -11    1    3    3    0    0  0.23703501978E+01  0.71189296124E+02  0.91162570506E+00  0.71234580817E+02  0.00000000000E+00 0.  1.
         11    1    3    3    0    0  0.38013556676E+02 -0.20557781650E+02  0.11967602699E+01  0.43232917004E+02  0.00000000000E+00 0. -1.
        -13    1    4    4    0    0 -0.18161822434E+02 -0.71038039831E+02  0.63430124689E+02  0.96951717959E+02  0.00000000000E+00 0. -1.
         13    1    4    4    0    0 -0.57108705196E+02  0.13074721502E+02  0.52443964983E+02  0.78630286879E+02  0.00000000000E+00 0.  1.
         21    1    1    2  502  501  0.34886620756E+02  0.73318038550E+01  0.20609212113E+03  0.20915256165E+03  0.00000000000E+00 0. -1.
<scales pt_clust_5="13000.00000" pt_clust_6="13000.00000" pt_clust_7="13000.00000" pt_clust_8="13000.00000" pt_clust_9="35.64873"></scales>
<clustering>
<clus scale="   35.649">  1  9  2 -1</clus>
<clus scale="   91.525">  7  8 -1 -1</clus>
<clus scale="   94.361">  5  6 -1 -1</clus>
<clus scale="  117.013">  1  7  2 -1</clus>
<clus scale="   35.649">  1  5  2 -1</clus>
</clustering>
</event>
<event>
 9    1  0.1234700E-005  0.1316869E+03  0.7546771E-02  0.1225487E+00
         -2   -1    0    0    0  501 -0.00000000000E+00  0.00000000000E+00  0.22529415844E+03  0.22529415844E+03  0.00000000000E+00 0.  1.
          2   -1    0    0  502    0  0.00000000000E+00 -0.00000000000E+00 -0.28184033500E+03  0.28184033500E+03  0.00000000000E+00 0. -1.
         23    2    1    2    0    0  0.59483886885E+02  0.10630158837E+03  0.14643279674E+03  0.21010250787E+03  0.88668705662E+02 0.  0.
         23    2    1    2    0    0 -0.34404856549E+02 -0.25423656640E+02 -0.30399691088E+02  0.10479825739E+03  0.90710953383E+02 0.  0.
        -11    1    3    3    0    0 -0.28856168187E+01  0.81769807958E+02  0.96546027774E+02  0.12655340279E+03  0.00000000000E+00 0.  1.
         11    1    3    3    0    0  0.62369503703E+02  0.24531780408E+02  0.49886768963E+02  0.83549105081E+02  0.00000000000E+00 0. -1.
        -13    1    4    4    0    0  0.34304793993E+01  0.29087652447E+02 -0.24493175143E+02  0.38180824276E+02  0.00000000000E+00 0.  1.
         13    1    4    4    0    0 -0.37835335948E+02 -0.54511309087E+02 -0.59065159449E+01  0.66617433119E+02  0.00000000000E+00 0. -1.
         21    1    1    2  502  501 -0.25079030335E+02 -0.80877931727E+02 -0.17257928221E+03  0.19223372818E+03  0.00000000000E+00 0. -1.
<scales pt_clust_5="13000.00000" pt_clust_6="13000.00000" pt_clust_7="13000.00000" pt_clust_8="13000.00000" pt_clust_9="84.67702"></scales>
<clustering>
<clus scale="   84.677">  2  9  1 -1</clus>
<clus scale="   88.669">  5  6 -1 -1</clus>
<clus scale="   90.711">  7  8 -1 -1</clus>
<clus scale="  130.289">  1  5  2 -1</clus>
<clus scale="   84.677">  2  5  1 -1</clus>
</clustering>
</event>
<event>
 9    1  0.1234700E-005  0.1916889E+03  0.7546771E-02  0.1157614E+00
         -1   -1    0    0    0  501 -0.00000000000E+00  0.00000000000E+00  0.53850422782E+03  0.53850422782E+03  0.00000000000E+00 0.  1.
          1   -1    0    0  502    0  0.00000000000E+00 -0.00000000000E+00 -0.13733365349E+03  0.13733365349E+03  0.00000000000E+00 0. -1.
         23    2    1    2    0    0  0.15096209283E+03 -0.77407666552E+02  0.26142661953E+03  0.32347180073E+03  0.86652340722E+02 0.  0.
         23    2    1    2    0    0 -0.12223028711E+03  0.11679022640E+03  0.19797170791E+03  0.27642548595E+03  0.92941121580E+02 0.  0.
        -13    1    4    4    0    0 -0.70202208372E+02  0.38643428202E+02  0.15213852717E+03  0.17195288905E+03  0.00000000000E+00 0.  1.
         13    1    4    4    0    0 -0.52028078737E+02  0.78146798203E+02  0.45833180741E+02  0.10447259690E+03  0.00000000000E+00 0. -1.
        -13    1    3    3    0    0  0.65707810395E+02 -0.81683255583E+02  0.13492671341E+03  0.17086511809E+03  0.00000000000E+00 0.  1.
         13    1    3    3    0    0  0.85254282438E+02  0.42755890317E+01  0.12649990612E+03  0.15260668263E+03  0.00000000000E+00 0. -1.
         21    1    1    2  502  501 -0.28731805723E+02 -0.39382559853E+02 -0.58227753111E+02  0.75940594632E+02  0.00000000000E+00 0. -1.
<scales pt_clust_5="13000.00000" pt_clust_6="13000.00000" pt_clust_7="13000.00000" pt_clust_8="13000.00000" pt_clust_9="48.74939"></scales>
<clustering>
<clus scale="   48.749">  2  9  1 -1</clus>
<clus scale="   86.652">  7  8 -1 -1</clus>
<clus scale="   92.941">  5  6 -1 -1</clus>
<clus scale="  188.720">  1  7  2 -1</clus>
<clus scale="   48.749">  2  5  1 -1</clus>
</clustering>
</event>
<event>
 9    1  0.1234700E-005  0.9687908E+02  0.7546771E-02  0.1291728E+00
         -2   -1    0    0    0  501 -0.00000000000E+00  0.00000000000E+00  0.72150658342E+02  0.72150658342E+02  0.00000000000E+00 0.  1.
          2   -1    0    0  502    0  0.00000000000E+00 -0.00000000000E+00 -0.28311112490E+03  0.28311112490E+03  0.00000000000E+00 0. -1.
         23    2    1    2    0    0 -0.18641881452E+02  0.21077847370E+02  0.10788393083E+02  0.88272555474E+02  0.82969025732E+02 0.  0.
         23    2    1    2    0    0 -0.84391386947E+00 -0.52355418757E+02 -0.12602448755E+03  0.16441662859E+03  0.91699804954E+02 0.  0.
        -11    1    3    3    0    0 -0.45005640991E+02 -0.10668241118E+02  0.36788650885E+01  0.46398848455E+02  0.00000000000E+00 0. -1.
         11    1    3    3    0    0  0.26363759539E+02  0.31746088488E+02  0.71095279943E+01  0.41873707020E+02  0.00000000000E+00 0.  1.
        -13    1    4    4    0    0 -0.60235883225E+00  0.25005421254E+02 -0.50231863654E+02  0.56114829185E+02  0.00000000000E+00 0.  1.
         13    1    4    4    0    0 -0.24155503722E+00 -0.77360840011E+02 -0.75792623899E+02  0.10830179940E+03  0.00000000000E+00 0. -1.
         21    1    1    2  502  501  0.19485795322E+02  0.31277571387E+02 -0.95724372084E+02  0.10257259918E+03  0.00000000000E+00 0. -1.
<scales pt_clust_5="13000.00000" pt_clust_6="13000.00000" pt_clust_7="13000.00000" pt_clust_8="13000.00000" pt_clust_9="36.85082"></scales>
<clustering>
<clus scale="   36.851">  2  9  1 -1</clus>
<clus scale="   82.969">  5  6 -1 -1</clus>
<clus scale="   88.660">  1  5  2 -1</clus>
<clus scale="   91.700">  7  8 -1 -1</clus>
<clus scale="   36.851">  2  5  1 -1</clus>
</clustering>
</event>
<event>
 9    1  0.1234700E-005  0.1012351E+03  0.7546771E-02  0.1277905E+00
          1   -1    0    0  502    0  0.00000000000E+00  0.00000000000E+00  0.13719306894E+03  0.13719306894E+03  0.00000000000E+00 0. -1.
         -1   -1    0    0    0  501 -0.00000000000E+00 -0.00000000000E+00 -0.15251075910E+03  0.15251075910E+03  0.00000000000E+00 0.  1.
         23    2    1    2    0    0 -0.45606042068E+02  0.10823079700E+01 -0.86992152038E+02  0.13444841340E+03  0.91802281481E+02 0.  0.
         23    2    1    2    0    0  0.33688977976E+02 -0.17627082181E+02  0.21798759943E+02  0.10137284219E+03  0.91409003582E+02 0.  0.
        -11    1    3    3    0    0  0.22495625434E+02 -0.10756957799E+02 -0.21719707629E+01  0.25029637668E+02  0.00000000000E+00 0. -1.
         11    1    3    3    0    0 -0.68101667502E+02  0.11839265770E+02 -0.84820181275E+02  0.10941877573E+03  0.00000000000E+00 0.  1.
        -11    1    4    4    0    0  0.51527446214E+02 -0.35979426252E+02  0.35669119924E+02  0.72262597123E+02  0.00000000000E+00 0. -1.
         11    1    4    4    0    0 -0.17838468239E+02  0.18352344071E+02 -0.13870359981E+02  0.29110245070E+02  0.00000000000E+00 0.  1.
         21    1    1    2  502  501  0.11917064092E+02  0.16544774211E+02  0.49875701939E+02  0.53882572453E+02  0.00000000000E+00 0. -1.
<scales pt_clust_5="13000.00000" pt_clust_6="13000.00000" pt_clust_7="13000.00000" pt_clust_8="13000.00000" pt_clust_9="20.38985"></scales>
<clustering>
<clus scale="   20.390">  1  9  2 -1</clus>
<clus scale="   91.409">  7  8 -1 -1</clus>
<clus scale="   91.802">  5  6 -1 -1</clus>
<clus scale="  100.879">  1  7  2 -1</clus>
<clus scale="   20.390">  1  5  2 -1</clus>
</clustering>
</event>
<event>
 9    1  0.1234700E-005  0.2105311E+03  0.7546771E-02  0.1141791E+00
         -1   -1    0    0    0  501 -0.00000000000E+00  0.00000000000E+00  0.54823061802E+03  0.54823061802E+03  0.00000000000E+00 0.  1.
          1   -1    0    0  502    0  0.00000000000E+00 -0.00000000000E+00 -0.13702511215E+03  0.13702511215E+03  0.00000000000E+00 0. -1.
         23    2    1    2    0    0 -0.14537396798E+03 -0.77870223107E+02  0.25358538797E+03  0.31828316734E+03  0.99001330336E+02 0.  0.
         23    2    1    2    0    0  0.21919830445E+03  0.94390433695E+02  0.12079288652E+03  0.28283461072E+03  0.91907806772E+02 0.  0.
        -13    1    3    3    0    0 -0.88661714944E+02  0.82689289226E+01  0.12422021682E+03  0.15283957979E+03  0.00000000000E+00 0.  1.
         13    1    3    3    0    0 -0.56712253038E+02 -0.86139152029E+02  0.12936517115E+03  0.16544358756E+03  0.00000000000E+00 0. -1.
        -13    1    4    4    0    0  0.23923214149E+02 -0.18443219875E+02  0.14886650252E+02  0.33676176896E+02  0.00000000000E+00 0. -1.
         13    1    4    4    0    0  0.19527509030E+03  0.11283365357E+03  0.10590623626E+03  0.24915843383E+03  0.00000000000E+00 0.  1.
         21    1    1    2  502  501 -0.73824336463E+02 -0.16520210589E+02  0.36827231390E+02  0.84137952102E+02  0.00000000000E+00 0. -1.
<scales pt_clust_5="13000.00000" pt_clust_6="13000.00000" pt_clust_7="13000.00000" pt_clust_8="13000.00000" pt_clust_9="75.65018"></scales>
<clustering>
<clus scale="   75.650">  2  9  1 -1</clus>
<clus scale="   91.908">  7  8 -1 -1</clus>
<clus scale="   99.001">  5  6 -1 -1</clus>
<clus scale="  207.290">  2  7  1 -1</clus>
<clus scale="   75.650">  2  5  1 -1</clus>
</clustering>
</event>
<event>
 9    1  0.1234700E-005  0.1677238E+03  0.7546771E-02  0.1181059E+00
         -1   -1    0    0    0  501 -0.00000000000E+00  0.00000000000E+00  0.11986163515E+03  0.11986163515E+03  0.00000000000E+00 0.  1.
          1   -1    0    0  502    0  0.00000000000E+00 -0.00000000000E+00 -0.29425397143E+03  0.29425397143E+03  0.00000000000E+00 0. -1.
         23    2    1    2    0    0 -0.11113694914E+03  0.10205167257E+03 -0.29478259339E+02  0.18084239964E+03  0.95231509476E+02 0.  0.
         23    2    1    2    0    0  0.85802367726E+02 -0.84404940788E+02 -0.10694842384E+03  0.18433815843E+03  0.89757177721E+02 0.  0.
        -13    1    3    3    0    0 -0.30110830848E+02  0.63702431622E+02  0.26361237030E+02  0.75230158491E+02  0.00000000000E+00 0. -1.
         13    1    3    3    0    0 -0.81026118289E+02  0.38349240950E+02 -0.55839496369E+02  0.10561224115E+03  0.00000000000E+00 0.  1.
        -13    1    4    4    0    0  0.98372894260E+02 -0.48419346210E+02 -0.64170905378E+02  0.12704158575E+03  0.00000000000E+00 0.  1.
         13    1    4    4    0    0 -0.12570526534E+02 -0.35985594579E+02 -0.42777518466E+02  0.57296572678E+02  0.00000000000E+00 0. -1.
         21    1    1    2  502  501  0.25334581411E+02 -0.17646731784E+02 -0.37965653097E+02  0.48935048514E+02  0.00000000000E+00 0. -1.
<scales pt_clust_5="13000.00000" pt_clust_6="13000.00000" pt_clust_7="13000.00000" pt_clust_8="13000.00000" pt_clust_9="30.87472"></scales>
<clustering>
<clus scale="   30.875">  2  9  1 -1</clus>
<clus scale="   89.757">  7  8 -1 -1</clus>
<clus scale="   95.232">  5  6 -1 -1</clus>
<clus scale="  164.677">  2  7  1 -1</clus>
<clus scale="   30.875">  2  5  1 -1</clus>
</clustering>
</event>
<event>
 9    1  0.1234700E-005  0.9377875E+02  0.7546771E-02  0.1294182E+00
         -1   -1    0    0    0  501 -0.00000000000E+00  0.00000000000E+00  0.93435174520E+02  0.93435174520E+02  0.00000000000E+00 0.  1.
          1   -1    0    0  502    0  0.00000000000E+00 -0.00000000000E+00 -0.60048544725E+03  0.60048544725E+03  0.00000000000E+00 0. -1.
         23    2    1    2    0    0  0.66218139410E+01 -0.17089157190E+02  0.53084792872E+02  0.10758885051E+03  0.91768610138E+02 0.  0.
         23    2    1    2    0    0  0.48787686162E+02  0.18137113619E+02 -0.25327720153E+03  0.27450961095E+03  0.92179132562E+02 0.  0.
        -11    1    4    4    0    0 -0.27156137405E+02 -0.19544883125E+01 -0.60719909632E+02  0.66544595942E+02  0.00000000000E+00 0.  1.
         11    1    4    4    0    0  0.75943823567E+02  0.20091601932E+02 -0.19255729190E+03  0.20796501501E+03  0.00000000000E+00 0. -1.
        -11    1    3    3    0    0  0.27162225128E+02 -0.40426740560E+02  0.58404807477E+02  0.76047546723E+02  0.00000000000E+00 0. -1.
         11    1    3    3    0    0 -0.20540411187E+02  0.23337583370E+02 -0.53200146043E+01  0.31541303788E+02  0.00000000000E+00 0.  1.
         21    1    1    2  502  501 -0.55409500103E+02 -0.10479564288E+01 -0.30685786408E+03  0.31182216031E+03  0.00000000000E+00 0.  1.
<scales pt_clust_5="13000.00000" pt_clust_6="13000.00000" pt_clust_7="13000.00000" pt_clust_8="13000.00000" pt_clust_9="55.41941"></scales>
<clustering>
<clus scale="   55.419">  2  9  1 -1</clus>
<clus scale="   91.769">  7  8 -1 -1</clus>
<clus scale="   92.179">  5  6 -1 -1</clus>
<clus scale="   93.375">  1  7  2 -1</clus>
<clus scale="   55.419">  2  5  1 -1</clus>
</clustering>
</event>
<event>
 9    1  0.1234700E-005  0.1087781E+03  0.7546771E-02  0.1264771E+00
         -1   -1    0    0    0  501 -0.00000000000E+00  0.00000000000E+00  0.76388130937E+02  0.76388130937E+02  0.00000000000E+00 0.  1.
          1   -1    0    0  502    0  0.00000000000E+00 -0.00000000000E+00 -0.23205611249E+03  0.23205611249E+03  0.00000000000E+00 0. -1.
         23    2    1    2    0    0 -0.30028931215E+02 -0.44580618465E+02 -0.34947974487E+02  0.11030440284E+03  0.89758186883E+02 0.  0.
         23    2    1    2    0    0  0.11008738402E+02  0.55584651395E+02 -0.44401341048E+02  0.11872072917E+03  0.94404908008E+02 0.  0.
        -11    1    3    3    0    0 -0.61337882998E+02 -0.20814533503E+02 -0.16272659648E+02  0.66786077499E+02  0.00000000000E+00 0.  1.
         11    1    3    3    0    0  0.31308951783E+02 -0.23766084962E+02 -0.18675314840E+02  0.43518325342E+02  0.00000000000E+00 0. -1.
        -13    1    4    4    0    0 -0.30666992554E+02  0.97106063826E+01  0.12569814259E+02  0.34536365459E+02  0.00000000000E+00 0.  1.
         13    1    4    4    0    0  0.41675730956E+02  0.45874045013E+02 -0.56971155308E+02  0.84184363712E+02  0.00000000000E+00 0. -1.
         21    1    1    2  502  501  0.19020192813E+02 -0.11004032930E+02 -0.76318666013E+02  0.79419111412E+02  0.00000000000E+00 0. -1.
<scales pt_clust_5="13000.00000" pt_clust_6="13000.00000" pt_clust_7="13000.00000" pt_clust_8="13000.00000" pt_clust_9="21.97400"></scales>
<clustering>
<clus scale="   21.974">  2  9  1 -1</clus>
<clus scale="   89.758">  5  6 -1 -1</clus>
<clus scale="   94.405">  7  8 -1 -1</clus>
<clus scale="  104.771">  1  5  2 -1</clus>
<clus scale="   21.974">  2  5  1 -1</clus>
</clustering>
</event>
<event>
 9    1  0.1234700E-005  0.1027263E+03  0.7546771E-02  0.1275303E+00
          1   -1    0    0  502    0  0.00000000000E+00  0.00000000000E+00  0.16007227962E+03  0.16007227962E+03  0.00000000000E+00 0. -1.
         -1   -1    0    0    0  501 -0.00000000000E+00 -0.00000000000E+00 -0.96896005854E+02  0.96896005854E+02  0.00000000000E+00 0.  1.
         23    2    1    2    0    0  0.47600300643E+02  0.68854882555E+01 -0.14352474379E+02  0.10440506556E+03  0.91549033989E+02 0.  0.
         23    2    1    2    0    0 -0.39314996909E+02 -0.25542287469E+02  0.38762070378E+02  0.10875023417E+03  0.90144538938E+02 0.  0.
        -11    1    3    3    0    0  0.59889039110E+02 -0.17984818992E+02 -0.33267025256E+02  0.70829694967E+02  0.00000000000E+00 0.  1.
         11    1    3    3    0    0 -0.12288738467E+02  0.24870307248E+02  0.18914550877E+02  0.33575370595E+02  0.00000000000E+00 0. -1.
        -11    1    4    4    0    0 -0.19597288518E+02  0.11470033268E+02  0.58240480143E+02  0.62510550371E+02  0.00000000000E+00 0. -1.
         11    1    4    4    0    0 -0.19717708391E+02 -0.37012320736E+02 -0.19478409766E+02  0.46239683795E+02  0.00000000000E+00 0.  1.
         21    1    1    2  502  501 -0.82853037347E+01  0.18656799213E+02  0.38766677771E+02  0.43812985749E+02  0.00000000000E+00 0. -1.
<scales pt_clust_5="13000.00000" pt_clust_6="13000.00000" pt_clust_7="13000.00000" pt_clust_8="13000.00000" pt_clust_9="20.41378"></scales>
<clustering>
<clus scale="   20.414">  1  9  2 -1</clus>
<clus scale="   90.145">  7  8 -1 -1</clus>
<clus scale="   91.549">  5  6 -1 -1</clus>
<clus scale="  101.477">  1  7  2 -1</clus>
<clus scale="   20.414">  1  5  2 -1</clus>
</clustering>
</event>
<event>
 9    1  0.1234700E-005  0.2358071E+03  0.7546771E-02  0.1122885E+00
         -1   -1    0    0    0  501 -0.00000000000E+00  0.00000000000E+00  0.31318788609E+03  0.31318788609E+03  0.00000000000E+00 0.  1.
          1   -1    0    0  502    0  0.00000000000E+00 -0.00000000000E+00 -0.21898684928E+03  0.21898684928E+03  0.00000000000E+00 0. -1.
         23    2    1    2    0    0  0.10659196308E+03 -0.19103766644E+03  0.13145586055E+03  0.27110226820E+03  0.91425160432E+02 0.  0.
         23    2    1    2    0    0 -0.83301783254E+02  0.19890167873E+03 -0.26203873285E+02  0.23412068297E+03  0.87320022467E+02 0.  0.
        -11    1    3    3    0    0  0.28197540828E+02 -0.14127152473E+03  0.85123304071E+02  0.16732818622E+03  0.00000000000E+00 0. -1.
         11    1    3    3    0    0  0.78394422256E+02 -0.49766141708E+02  0.46332556482E+02  0.10377408198E+03  0.00000000000E+00 0.  1.
        -11    1    4    4    0    0 -0.64883219675E+02  0.13956683285E+03  0.22012911876E+02  0.15547765536E+03  0.00000000000E+00 0.  1.
         11    1    4    4    0    0 -0.18418563579E+02  0.59334845876E+02 -0.48216785162E+02  0.78643027604E+02  0.00000000000E+00 0. -1.
         21    1    1    2  502  501 -0.23290179830E+02 -0.78640122938E+01 -0.11050950454E+02  0.26951784204E+02  0.00000000000E+00 0. -1.
<scales pt_clust_5="13000.00000" pt_clust_6="13000.00000" pt_clust_7="13000.00000" pt_clust_8="13000.00000" pt_clust_9="24.58201"></scales>
<clustering>
<clus scale="   24.582">  2  9  1 -1</clus>
<clus scale="   87.320">  7  8 -1 -1</clus>
<clus scale="   91.425">  5  6 -1 -1</clus>
<clus scale="  234.246">  2  7  1 -1</clus>
<clus scale="   24.582">  2  5  1 -1</clus>
</clustering>
</event>
<event>
 9    1  0.1234700E-005  0.9682963E+02  0.7546771E-02  0.1288773E+00
          2   -1    0    0  502    0  0.00000000000E+00  0.00000000000E+00  0.47510479015E+03  0.47510479015E+03  0.00000000000E+00 0. -1.
         -2   -1    0    0    0  501 -0.00000000000E+00 -0.00000000000E+00 -0.50477944015E+02  0.50477944015E+02  0.00000000000E+00 0.  1.
         23    2    1    2    0    0  0.28883995562E+02  0.79203052369E+01  0.27363138909E+02  0.98876122283E+02  0.90170559231E+02 0.  0.
         23    2    1    2    0    0  0.10282439265E+02 -0.42750219890E+02  0.27411417603E+03  0.29286738144E+03  0.93270637141E+02 0.  0.
        -11    1    4    4    0    0 -0.13761529181E+02 -0.67288469200E+02  0.18805943800E+03  0.20020856624E+03  0.00000000000E+00 0. -1.
         11    1    4    4    0    0  0.24043968447E+02  0.24538249310E+02  0.86054738024E+02  0.92658815200E+02  0.00000000000E+00 0.  1.
        -13    1    3    3    0    0 -0.29881522712E+02  0.18571344150E+02  0.78636234674E+01  0.36050475686E+02  0.00000000000E+00 0. -1.
         13    1    3    3    0    0  0.58765518274E+02 -0.10651038913E+02  0.19499515442E+02  0.62825646597E+02  0.00000000000E+00 0.  1.
         21    1    1    2  502  501 -0.39166434827E+02  0.34829914653E+02  0.12314953120E+03  0.13383923045E+03  0.00000000000E+00 0. -1.
<scales pt_clust_5="13000.00000" pt_clust_6="13000.00000" pt_clust_7="13000.00000" pt_clust_8="13000.00000" pt_clust_9="52.41310"></scales>
<clustering>
<clus scale="   52.413">  1  9  2 -1</clus>
<clus scale="   90.171">  7  8 -1 -1</clus>
<clus scale="   93.271">  5  6 -1 -1</clus>
<clus scale="   93.847">  2  7  1 -1</clus>
<clus scale="   52.413">  1  5  2 -1</clus>
</clustering>
</event>
<event>
 9    1  0.1234700E-005  0.9402118E+02  0.7546771E-02  0.1294521E+00
          1   -1    0    0  502    0  0.00000000000E+00  0.00000000000E+00  0.32107072512E+03  0.32107072512E+03  0.00000000000E+00 0. -1.
         -1   -1    0    0    0  501 -0.00000000000E+00 -0.00000000000E+00 -0.16870544312E+03  0.16870544312E+03  0.00000000000E+00 0.  1.
         23    2    1    2    0    0  0.40442120540E+01 -0.28160894797E+02 -0.12518288868E+03  0.15644110475E+03  0.89407337451E+02 0.  0.
         23    2    1    2    0    0 -0.18631650739E+02 -0.20123833051E+02  0.66445996493E+02  0.11629051448E+03  0.91412834117E+02 0.  0.
        -11    1    4    4    0    0  0.66646096530E+00 -0.53609419907E+02  0.23567862525E+02  0.58564991394E+02  0.00000000000E+00 0.  1.
         11    1    4    4    0    0 -0.19298111705E+02  0.33485586857E+02  0.42878133968E+02  0.57725523082E+02  0.00000000000E+00 0. -1.
        -11    1    3    3    0    0 -0.22175485463E+02 -0.47740677574E+02 -0.42956862295E+02  0.67942744050E+02  0.00000000000E+00 0. -1.
         11    1    3    3    0    0  0.26219697517E+02  0.19579782777E+02 -0.82226026387E+02  0.88498360702E+02  0.00000000000E+00 0.  1.
         21    1    1    2  502  501  0.14587438685E+02  0.48284727848E+02  0.21110217419E+03  0.21704454901E+03  0.00000000000E+00 0. -1.
<scales pt_clust_5="13000.00000" pt_clust_6="13000.00000" pt_clust_7="13000.00000" pt_clust_8="13000.00000" pt_clust_9="50.44015"></scales>
<clustering>
<clus scale="   50.440">  1  9  2 -1</clus>
<clus scale="   89.407">  7  8 -1 -1</clus>
<clus scale="   91.413">  5  6 -1 -1</clus>
<clus scale="   92.073">  2  7  1 -1</clus>
<clus scale="   50.440">  1  5  2 -1</clus>
</clustering>
</event>
<event>
 9    1  0.1234700E-005  0.1988239E+03  0.7546771E-02  0.1151264E+00
         -1   -1    0    0    0  501 -0.00000000000E+00  0.00000000000E+00  0.13295956168E+03  0.13295956168E+03  0.00000000000E+00 0.  1.
          1   -1    0    0  502    0  0.00000000000E+00 -0.00000000000E+00 -0.76699622595E+03  0.76699622595E+03  0.00000000000E+00 0. -1.
         23    2    1    2    0    0  0.16838065287E+03  0.35951116629E+02  0.17399290446E+02  0.19310800319E+03  0.85693865231E+02 0.  0.
         23    2    1    2    0    0 -0.19069051276E+03 -0.74466579826E+02 -0.48024396384E+03  0.52996401330E+03  0.91211004987E+02 0.  0.
        -11    1    4    4    0    0 -0.55896441665E+02  0.14006870674E+02 -0.81132086469E+02  0.99513918985E+02  0.00000000000E+00 0.  1.
         11    1    4    4    0    0 -0.13479407109E+03 -0.88473450499E+02 -0.39911187737E+03  0.43045009432E+03  0.00000000000E+00 0. -1.
        -13    1    3    3    0    0  0.77654225978E+02  0.33922706390E+02 -0.31032531897E+02  0.90243818941E+02  0.00000000000E+00 0. -1.
         13    1    3    3    0    0  0.90726426895E+02  0.20284102387E+01  0.48431822343E+02  0.10286418425E+03  0.00000000000E+00 0.  1.
         21    1    1    2  502  501  0.22309859886E+02  0.38515463197E+02 -0.17119199087E+03  0.17688377114E+03  0.00000000000E+00 0. -1.
<scales pt_clust_5="13000.00000" pt_clust_6="13000.00000" pt_clust_7="13000.00000" pt_clust_8="13000.00000" pt_clust_9="44.51034"></scales>
<clustering>
<clus scale="   44.510">  2  9  1 -1</clus>
<clus scale="   85.694">  7  8 -1 -1</clus>
<clus scale="   91.211">  5  6 -1 -1</clus>
<clus scale="  196.354">  1  7  2 -1</clus>
<clus scale="   44.510">  2  5  1 -1</clus>
</clustering>
</event>
<event>
 9    1  0.1234700E-005  0.1203328E+03  0.7546771E-02  0.1243282E+00
         -1   -1    0    0    0  501 -0.00000000000E+00  0.00000000000E+00  0.32645959729E+03  0.32645959729E+03  0.00000000000E+00 0.  1.
          1   -1    0    0  502    0  0.00000000000E+00 -0.00000000000E+00 -0.98994324540E+02  0.98994324540E+02  0.00000000000E+00 0. -1.
         23    2    1    2    0    0 -0.33793962696E+02 -0.70089533370E+02  0.24126791731E+03  0.26910586556E+03  0.90294985212E+02 0.  0.
         23    2    1    2    0    0  0.60141068364E+02  0.50121328549E+02 -0.21102216248E+01  0.12128223338E+03  0.92605785019E+02 0.  0.
        -11    1    4    4    0    0  0.61883540562E+02 -0.19303231980E+01 -0.21747807989E+02  0.65622144833E+02  0.00000000000E+00 0. -1.
         11    1    4    4    0    0 -0.17424721974E+01  0.52051651747E+02  0.19637586364E+02  0.55660088548E+02  0.00000000000E+00 0.  1.
        -13    1    3    3    0    0  0.32550939518E+01 -0.19816728723E+02  0.20310830034E+00  0.20083317129E+02  0.00000000000E+00 0. -1.
         13    1    3    3    0    0 -0.37049056647E+02 -0.50272804647E+02  0.24106480901E+03  0.24902254843E+03  0.00000000000E+00 0.  1.
         21    1    1    2  502  501 -0.26347105669E+02  0.19968204821E+02 -0.11692422932E+02  0.35065822889E+02  0.00000000000E+00 0. -1.
<scales pt_clust_5="13000.00000" pt_clust_6="13000.00000" pt_clust_7="13000.00000" pt_clust_8="13000.00000" pt_clust_9="33.05903"></scales>
<clustering>
<clus scale="   33.059">  2  9  1 -1</clus>
<clus scale="   90.295">  7  8 -1 -1</clus>
<clus scale="   92.606">  5  6 -1 -1</clus>
<clus scale="  118.564">  1  7  2 -1</clus>
<clus scale="   33.059">  2  5  1 -1</clus>
</clustering>
</event>
<event>
 9    1  0.1234700E-005  0.1143723E+03  0.7546771E-02  0.1253084E+00
         -4   -1    0    0    0  501 -0.00000000000E+00  0.00000000000E+00  0.48411943080E+02  0.48411943080E+02  0.00000000000E+00 0.  1.
          4   -1    0    0  502    0  0.00000000000E+00 -0.00000000000E+00 -0.43872357488E+03  0.43872357488E+03  0.00000000000E+00 0. -1.
         23    2    1    2    0    0 -0.90811284618E+02  0.18192511401E+02 -0.19922176650E+03  0.23754526597E+03  0.90337059141E+02 0.  0.
         23    2    1    2    0    0  0.47565639810E+02  0.17019289428E+02 -0.13162705490E+03  0.16806796955E+03  0.91482317991E+02 0.  0.
        -11    1    3    3    0    0 -0.20728742515E+02 -0.75948550210E+01  0.27154905855E+01  0.22242672460E+02  0.00000000000E+00 0.  1.
         11    1    3    3    0    0 -0.70082542102E+02  0.25787366422E+02 -0.20193725709E+03  0.21530259351E+03  0.00000000000E+00 0. -1.
        -13    1    4    4    0    0  0.41098241998E+02 -0.28075582603E+02 -0.33831026554E+02  0.60181743008E+02  0.00000000000E+00 0. -1.
         13    1    4    4    0    0  0.64673978128E+01  0.45094872031E+02 -0.97796028345E+02  0.10788622654E+03  0.00000000000E+00 0.  1.
         21    1    1    2  502  501  0.43245644807E+02 -0.35211800829E+02 -0.59462810405E+02  0.81522282436E+02  0.00000000000E+00 0. -1.
<scales pt_clust_5="13000.00000" pt_clust_6="13000.00000" pt_clust_7="13000.00000" pt_clust_8="13000.00000" pt_clust_9="55.76788"></scales>
<clustering>
<clus scale="   55.768">  1  9  2 -1</clus>
<clus scale="   90.337">  5  6 -1 -1</clus>
<clus scale="   91.482">  7  8 -1 -1</clus>
<clus scale="  113.458">  1  5  2 -1</clus>
<clus scale="  114.372">  2  5  1 -1</clus>
</clustering>
</event>
<event>
 9    1  0.1234700E-005  0.1070791E+03  0.7546771E-02  0.1267255E+00
          1   -1    0    0  502    0  0.00000000000E+00  0.00000000000E+00  0.47002305708E+02  0.47002305708E+02  0.00000000000E+00 0. -1.
         -1   -1    0    0    0  501 -0.00000000000E+00 -0.00000000000E+00 -0.59847097579E+03  0.59847097579E+03  0.00000000000E+00 0.  1.
         23    2    1    2    0    0  0.59784550962E+02 -0.49039209133E+02 -0.40503903861E+03  0.42178584849E+03  0.88699732920E+02 0.  0.
         23    2    1    2    0    0  0.23620524353E+01  0.28413510948E+01 -0.76987628319E+02  0.11967476934E+03  0.91549456226E+02 0.  0.
        -11    1    3    3    0    0  0.80783399709E+02 -0.27442641682E+02 -0.33181593219E+03  0.34260891569E+03  0.00000000000E+00 0.  1.
         11    1    3    3    0    0 -0.20998848747E+02 -0.21596567451E+02 -0.73223106416E+02  0.79176932799E+02  0.00000000000E+00 0. -1.
        -13    1    4    4    0    0 -0.86640308464E+01  0.44483435411E+02 -0.23665333331E+02  0.51126211068E+02  0.00000000000E+00 0. -1.
         13    1    4    4    0    0  0.11026083282E+02 -0.41642084316E+02 -0.53322294988E+02  0.68548558275E+02  0.00000000000E+00 0.  1.
         21    1    1    2  502  501 -0.62146603397E+02  0.46197858038E+02 -0.69442003152E+02  0.10401266367E+03  0.00000000000E+00 0. -1.
<scales pt_clust_5="13000.00000" pt_clust_6="13000.00000" pt_clust_7="13000.00000" pt_clust_8="13000.00000" pt_clust_9="77.43670"></scales>
<clustering>
<clus scale="   77.437">  1  9  2 -1</clus>
<clus scale="   88.700">  5  6 -1 -1</clus>
<clus scale="   91.549">  7  8 -1 -1</clus>
<clus scale="  104.653">  2  5  1 -1</clus>
<clus scale="   77.437">  1  5  2 -1</clus>
</clustering>
</event>
<event>
 9    1  0.1234700E-005  0.1325478E+03  0.7546771E-02  0.1223983E+00
         -1   -1    0    0    0  501 -0.00000000000E+00  0.00000000000E+00  0.77040178115E+03  0.77040178115E+03  0.00000000000E+00 0.  1.
          1   -1    0    0  502    0  0.00000000000E+00 -0.00000000000E+00 -0.95994936803E+02  0.95994936803E+02  0.00000000000E+00 0. -1.
         23    2    1    2    0    0  0.87612751675E+02  0.35306453259E+02  0.53828461255E+03  0.55410031648E+03  0.91401842026E+02 0.  0.
         23    2    1    2    0    0 -0.10267199786E+03  0.28941258889E+01  0.19592750506E+03  0.23975168525E+03  0.92430342601E+02 0.  0.
        -11    1    3    3    0    0  0.77497399101E+02 -0.11183144946E+02  0.40693283050E+03  0.41439743983E+03  0.00000000000E+00 0. -1.
         11    1    3    3    0    0  0.10115352574E+02  0.46489598204E+02  0.13135178205E+03  0.13970287665E+03  0.00000000000E+00 0.  1.
        -13    1    4    4    0    0 -0.24494955208E+02  0.16668307777E+02  0.14118569707E+01  0.29661905787E+02  0.00000000000E+00 0. -1.
         13    1    4    4    0    0 -0.78177042647E+02 -0.13774181889E+02  0.19451564809E+03  0.21008977946E+03  0.00000000000E+00 0.  1.
         21    1    1    2  502  501  0.15059246181E+02 -0.38200579147E+02 -0.59805273254E+02  0.72544716222E+02  0.00000000000E+00 0. -1.
<scales pt_clust_5="13000.00000" pt_clust_6="13000.00000" pt_clust_7="13000.00000" pt_clust_8="13000.00000" pt_clust_9="41.06172"></scales>
<clustering>
<clus scale="   41.062">  2  9  1 -1</clus>
<clus scale="   91.402">  5  6 -1 -1</clus>
<clus scale="   92.430">  7  8 -1 -1</clus>
<clus scale="  131.833">  1  5  2 -1</clus>
<clus scale="   41.062">  2  5  1 -1</clus>
</clustering>
</event>
<event>
 9    1  0.1234700E-005  0.1200340E+03  0.7546771E-02  0.1243681E+00
          1   -1    0    0  502    0  0.00000000000E+00  0.00000000000E+00  0.75810967692E+03  0.75810967692E+03  0.00000000000E+00 0. -1.
         -1   -1    0    0    0  501 -0.00000000000E+00 -0.00000000000E+00 -0.27094386716E+02  0.27094386716E+02  0.00000000000E+00 0.  1.
         23    2    1    2    0    0 -0.24832524003E+02  0.71124280643E+02  0.22850145356E+03  0.25782367159E+03  0.92654270316E+02 0.  0.
         23    2    1    2    0    0 -0.26356779092E+01 -0.80606024296E+02  0.31375211599E+03  0.33639507124E+03  0.90647535629E+02 0.  0.
        -11    1    3    3    0    0 -0.52298069554E+02  0.66941491021E+02  0.12854522026E+03  0.15407830785E+03  0.00000000000E+00 0.  1.
         11    1    3    3    0    0  0.27465545552E+02  0.41827896224E+01  0.99956233296E+02  0.10374536373E+03  0.00000000000E+00 0. -1.
        -13    1    4    4    0    0  0.43786828078E+02 -0.32934019844E+02  0.14119495942E+03  0.15145280631E+03  0.00000000000E+00 0. -1.
         13    1    4    4    0    0 -0.46422505988E+02 -0.47672004452E+02  0.17255715657E+03  0.18494226492E+03  0.00000000000E+00 0.  1.
         21    1    1    2  502  501  0.27468201912E+02  0.94817436530E+01  0.18876172066E+03  0.19098532081E+03  0.00000000000E+00 0.  1.
<scales pt_clust_5="13000.00000" pt_clust_6="13000.00000" pt_clust_7="13000.00000" pt_clust_8="13000.00000" pt_clust_9="29.05866"></scales>
<clustering>
<clus scale="   29.059">  1  9  2 -1</clus>
<clus scale="   90.648">  7  8 -1 -1</clus>
<clus scale="   92.654">  5  6 -1 -1</clus>
<clus scale="  118.492">  1  7  2 -1</clus>
<clus scale="   29.059">  1  5  2 -1</clus>
</clustering>
</event>
<event>
 9    1  0.1234700E-005  0.1005092E+03  0.7546771E-02  0.1279625E+00
         -2   -1    0    0    0  501 -0.00000000000E+00  0.00000000000E+00  0.14352745237E+03  0.14352745237E+03  0.00000000000E+00 0.  1.
          2   -1    0    0  502    0  0.00000000000E+00 -0.00000000000E+00 -0.21316707872E+03  0.21316707872E+03  0.00000000000E+00 0. -1.
         23    2    1    2    0    0 -0.38409758794E+02 -0.16416865735E+02  0.10150078878E+03  0.14196400269E+03  0.90036353144E+02 0.  0.
         23    2    1    2    0    0  0.38926142449E+02  0.38416711245E+02 -0.12742645457E+03  0.16579005227E+03  0.90872173079E+02 0.  0.
        -11    1    3    3    0    0 -0.13387998186E+02  0.28935304368E+02  0.47687770299E+01  0.32237114770E+02  0.00000000000E+00 0. -1.
         11    1    3    3    0    0 -0.25021760608E+02 -0.45352170103E+02  0.96732011747E+02  0.10972688792E+03  0.00000000000E+00 0.  1.
        -13    1    4    4    0    0  0.29626298360E+02  0.66498132367E+02 -0.10854263823E+03  0.13069515475E+03  0.00000000000E+00 0. -1.
         13    1    4    4    0    0  0.92998440886E+01 -0.28081421122E+02 -0.18883816342E+02  0.35094897521E+02  0.00000000000E+00 0.  1.
         21    1    1    2  502  501 -0.51638365483E+00 -0.21999845509E+02 -0.43713960565E+02  0.48940476119E+02  0.00000000000E+00 0. -1.
<scales pt_clust_5="13000.00000" pt_clust_6="13000.00000" pt_clust_7="13000.00000" pt_clust_8="13000.00000" pt_clust_9="22.00590"></scales>
<clustering>
<clus scale="   22.006">  2  9  1 -1</clus>
<clus scale="   90.036">  5  6 -1 -1</clus>
<clus scale="   90.872">  7  8 -1 -1</clus>
<clus scale="   99.754">  1  5  2 -1</clus>
<clus scale="   22.006">  2  5  1 -1</clus>
</clustering>
</event>
<event>
 9    1  0.1234700E-005  0.1934051E+03  0.7546771E-02  0.1155693E+00
         -1   -1    0    0    0  501 -0.00000000000E+00  0.00000000000E+00  0.59381474592E+03  0.59381474592E+03  0.00000000000E+00 0.  1.
          1   -1    0    0  502    0  0.00000000000E+00 -0.00000000000E+00 -0.74458577082E+02  0.74458577082E+02  0.00000000000E+00 0. -1.
         23    2    1    2    0    0 -0.17895858663E+03 -0.14869592131E+02  0.33136822257E+03  0.38817001536E+03  0.92864317129E+02 0.  0.
         23    2    1    2    0    0  0.15639514533E+03  0.18035849925E+01  0.17263237990E+03  0.24984404716E+03  0.90318408492E+02 0.  0.
        -11    1    3    3    0    0 -0.95977186006E+02  0.10302766903E+02  0.25486094320E+03  0.27252865466E+03  0.00000000000E+00 0.  1.
         11    1    3    3    0    0 -0.82981400626E+02 -0.25172359033E+02  0.76507279375E+02  0.11564136071E+03  0.00000000000E+00 0. -1.
        -13    1    4    4    0    0  0.64446749632E+02  0.40507628764E+02  0.10346525454E+03  0.12844964159E+03  0.00000000000E+00 0.  1.
         13    1    4    4    0    0  0.91948395694E+02 -0.38704043772E+02  0.69167125356E+02  0.12139440557E+03  0.00000000000E+00 0. -1.
         21    1    1    2  502  501  0.22563441307E+02  0.13066007138E+02  0.15355566363E+02  0.30259260474E+02  0.00000000000E+00 0.  1.
<scales pt_clust_5="13000.00000" pt_clust_6="13000.00000" pt_clust_7="13000.00000" pt_clust_8="13000.00000" pt_clust_9="26.07354"></scales>
<clustering>
<clus scale="   26.074">  2  9  1 -1</clus>
<clus scale="   90.318">  7  8 -1 -1</clus>
<clus scale="   92.864">  5  6 -1 -1</clus>
<clus scale="  192.196">  2  7  1 -1</clus>
<clus scale="   26.074">  2  5  1 -1</clus>
</clustering>
</event>
<event>
 9    1  0.4724114E-005  0.2013055E+03  0.7546771E-02  0.1149630E+00
         -2   -1    0    0    0  501 -0.00000000000E+00  0.00000000000E+00  0.91076445316E+03  0.91076445316E+03  0.00000000000E+00 0.  1.
          2   -1    0    0  502    0  0.00000000000E+00 -0.00000000000E+00 -0.39362793695E+03  0.39362793695E+03  0.00000000000E+00 0. -1.
         23    2    1    2    0    0  0.57051396004E+02  0.16601234675E+03  0.86619387611E+03  0.88848185749E+03  0.91067112789E+02 0.  0.
         23    2    1    2    0    0 -0.40850999335E+02 -0.14048023069E+03 -0.21698706706E+03  0.28042287984E+03  0.10074772903E+03 0.  0.
        -11    1    4    4    0    0 -0.46936653151E+02 -0.87533379578E+02 -0.20193965917E+03  0.22504392437E+03  0.00000000000E+00 0. -1.
         11    1    4    4    0    0  0.60856538162E+01 -0.52946851112E+02 -0.15047407891E+02  0.55378955473E+02  0.00000000000E+00 0.  1.
        -11    1    3    3    0    0  0.78577013872E+02  0.99999019329E+02  0.60449964076E+03  0.61773292502E+03  0.00000000000E+00 0.  1.
         11    1    3    3    0    0 -0.21525617867E+02  0.66013327419E+02  0.26169423535E+03  0.27074893247E+03  0.00000000000E+00 0. -1.
         21    1    1    2  502  501 -0.16200396670E+02 -0.25532116059E+02 -0.13207029284E+03  0.13548765277E+03  0.00000000000E+00 0. -1.
<scales pt_clust_5="13000.00000" pt_clust_6="13000.00000" pt_clust_7="13000.00000" pt_clust_8="13000.00000" pt_clust_9="30.23809"></scales>
<clustering>
<clus scale="   30.238">  2  9  1 -1</clus>
<clus scale="   91.067">  7  8 -1 -1</clus>
<clus scale="  100.748">  5  6 -1 -1</clus>
<clus scale="  196.639">  1  7  2 -1</clus>
<clus scale="   30.238">  2  5  1 -1</clus>
</clustering>
</event>
<event>
 9    1  0.1234700E-005  0.1132091E+03  0.7546771E-02  0.1254966E+00
          1   -1    0    0  502    0  0.00000000000E+00  0.00000000000E+00  0.21281523650E+03  0.21281523650E+03  0.00000000000E+00 0. -1.
         -1   -1    0    0    0  501 -0.00000000000E+00 -0.00000000000E+00 -0.80872281257E+02  0.80872281257E+02  0.00000000000E+00 0.  1.
         23    2    1    2    0    0  0.62315067918E+02  0.33281106626E+02  0.15546354013E+02  0.11869779865E+03  0.94109927919E+02 0.  0.
         23    2    1    2    0    0 -0.44415014387E+02 -0.16093021869E+02  0.93670086319E+02  0.14133950880E+03  0.94715853057E+02 0.  0.
        -11    1    3    3    0    0  0.45604920552E+02 -0.23382857803E+02 -0.13310271221E+02  0.52950260977E+02  0.00000000000E+00 0.  1.
         11    1    3    3    0    0  0.16710147366E+02  0.56663964429E+02  0.28856625234E+02  0.65747537671E+02  0.00000000000E+00 0. -1.
        -11    1    4    4    0    0  0.15359618906E+02  0.20165204437E+02  0.11488390235E+01  0.25374656531E+02  0.00000000000E+00 0.  1.
         11    1    4    4    0    0 -0.59774633293E+02 -0.36258226306E+02  0.92521247296E+02  0.11596485227E+03  0.00000000000E+00 0. -1.
         21    1    1    2  502  501 -0.17900053531E+02 -0.17188084757E+02  0.22726514909E+02  0.33650210310E+02  0.00000000000E+00 0. -1.
<scales pt_clust_5="13000.00000" pt_clust_6="13000.00000" pt_clust_7="13000.00000" pt_clust_8="13000.00000" pt_clust_9="24.81617"></scales>
<clustering>
<clus scale="   24.816">  1  9  2 -1</clus>
<clus scale="   94.110">  5  6 -1 -1</clus>
<clus scale="   94.716">  7  8 -1 -1</clus>
<clus scale="  112.703">  2  5  1 -1</clus>
<clus scale="   24.816">  1  5  2 -1</clus>
</clustering>
</event>
<event>
 9    1  0.1234700E-005  0.1463262E+03  0.7546771E-02  0.1205069E+00
          1   -1    0    0  502    0  0.00000000000E+00  0.00000000000E+00  0.72886004810E+03  0.72886004810E+03  0.00000000000E+00 0. -1.
         -1   -1    0    0    0  501 -0.00000000000E+00 -0.00000000000E+00 -0.71434923448E+02  0.71434923448E+02  0.00000000000E+00 0.  1.
         23    2    1    2    0    0  0.40011644146E+02  0.95249601145E+02  0.83448404425E+02  0.15930679815E+03  0.87986371388E+02 0.  0.
         23    2    1    2    0    0 -0.11599599405E+03 -0.10584898941E+03  0.24998374950E+03  0.30803560389E+03  0.87948729692E+02 0.  0.
        -11    1    4    4    0    0 -0.18144607535E+02  0.12955714323E+02  0.14103124207E+02  0.26381346225E+02  0.00000000000E+00 0.  1.
         11    1    4    4    0    0 -0.97851386519E+02 -0.11880470373E+03  0.23588062530E+03  0.28165425767E+03  0.00000000000E+00 0. -1.
        -11    1    3    3    0    0  0.57931993958E+02  0.80237220876E+02  0.34055431200E+02  0.10466088062E+03  0.00000000000E+00 0.  1.
         11    1    3    3    0    0 -0.17920349812E+02  0.15012380270E+02  0.49392973225E+02  0.54645917530E+02  0.00000000000E+00 0. -1.
         21    1    1    2  502  501  0.75984349908E+02  0.10599388261E+02  0.32399297073E+03  0.33295256951E+03  0.00000000000E+00 0.  1.
<scales pt_clust_5="13000.00000" pt_clust_6="13000.00000" pt_clust_7="13000.00000" pt_clust_8="13000.00000" pt_clust_9="76.72007"></scales>
<clustering>
<clus scale="   76.720">  1  9  2 -1</clus>
<clus scale="   87.949">  5  6 -1 -1</clus>
<clus scale="   87.986">  7  8 -1 -1</clus>
<clus scale="  146.304">  1  5  2 -1</clus>
<clus scale="   76.720">  1  5  2 -1</clus>
</clustering>
</event>
<event>
 9    1  0.1234700E-005  0.1055323E+03  0.7546771E-02  0.1271159E+00
         -1   -1    0    0    0  501 -0.00000000000E+00  0.00000000000E+00  0.45894483246E+03  0.45894483246E+03  0.00000000000E+00 0.  1.
          1   -1    0    0  502    0  0.00000000000E+00 -0.00000000000E+00 -0.48271710285E+02  0.48271710285E+02  0.00000000000E+00 0. -1.
         23    2    1    2    0    0 -0.34486372782E+02  0.42310806958E+02  0.26267740157E+03  0.28347507884E+03  0.91537908742E+02 0.  0.
         23    2    1    2    0    0  0.64747674493E+01 -0.54262363701E+02  0.16081832185E+03  0.19069741989E+03  0.86698596195E+02 0.  0.
        -11    1    3    3    0    0 -0.17002109426E+02  0.69839942944E+02  0.15284407837E+03  0.16890234353E+03  0.00000000000E+00 0.  1.
         11    1    3    3    0    0 -0.17484263356E+02 -0.27529135987E+02  0.10983332320E+03  0.11457273532E+03  0.00000000000E+00 0. -1.
        -13    1    4    4    0    0 -0.32111063604E+02  0.42086340244E+01  0.53439738138E+02  0.62487107617E+02  0.00000000000E+00 0.  1.
         13    1    4    4    0    0  0.38585831053E+02 -0.58470997726E+02  0.10737858371E+03  0.12821031227E+03  0.00000000000E+00 0. -1.
         21    1    1    2  502  501  0.28011605333E+02  0.11951556744E+02 -0.12822601245E+02  0.33044044011E+02  0.00000000000E+00 0. -1.
<scales pt_clust_5="13000.00000" pt_clust_6="13000.00000" pt_clust_7="13000.00000" pt_clust_8="13000.00000" pt_clust_9="30.45472"></scales>
<clustering>
<clus scale="   30.455">  2  9  1 -1</clus>
<clus scale="   86.699">  7  8 -1 -1</clus>
<clus scale="   91.538">  5  6 -1 -1</clus>
<clus scale="  101.363">  2  7  1 -1</clus>
<clus scale="   30.455">  2  5  1 -1</clus>
</clustering>
</event>
<event>
 9    1  0.1234700E-005  0.1408673E+03  0.7546771E-02  0.1212618E+00
          1   -1    0    0  502    0  0.00000000000E+00  0.00000000000E+00  0.29717346317E+03  0.29717346317E+03  0.00000000000E+00 0. -1.
         -1   -1    0    0    0  501 -0.00000000000E+00 -0.00000000000E+00 -0.39019136819E+03  0.39019136819E+03  0.00000000000E+00 0.  1.
         23    2    1    2    0    0  0.81782132352E+02 -0.54346356378E+02 -0.12727078512E+03  0.18277216754E+03  0.86982577909E+02 0.  0.
         23    2    1    2    0    0  0.30339450329E+02  0.11552476335E+03  0.22808847865E+03  0.27245846546E+03  0.89122433294E+02 0.  0.
        -11    1    3    3    0    0  0.60105019360E+02  0.12054813103E+02 -0.57651475337E+02  0.84152388438E+02  0.00000000000E+00 0. -1.
         11    1    3    3    0    0  0.21677112992E+02 -0.66401169481E+02 -0.69619309780E+02  0.98619779103E+02  0.00000000000E+00 0.  1.
        -11    1    4    4    0    0  0.34028273909E+02  0.27479538856E+02  0.14458797268E+03  0.15105869828E+03  0.00000000000E+00 0.  1.
         11    1    4    4    0    0 -0.36888235808E+01  0.88045224495E+02  0.83500505965E+02  0.12139976718E+03  0.00000000000E+00 0. -1.
         21    1    1    2  502  501 -0.11212158268E+03 -0.61178406973E+02 -0.19383559855E+03  0.23213419836E+03  0.00000000000E+00 0.  1.
<scales pt_clust_5="13000.00000" pt_clust_6="13000.00000" pt_clust_7="13000.00000" pt_clust_8="13000.00000" pt_clust_9="127.72645"></scales>
<clustering>
<clus scale="   86.983">  5  6 -1 -1</clus>
<clus scale="   89.122">  7  8 -1 -1</clus>
<clus scale="  127.726">  2  9  1 -1</clus>
<clus scale="  139.523">  2  5  1 -1</clus>
<clus scale="  140.867">  1  5  2 -1</clus>
</clustering>
</event>
<event>
 9    1  0.1234700E-005  0.1086169E+03  0.7546771E-02  0.1263222E+00
          1   -1    0    0  502    0  0.00000000000E+00  0.00000000000E+00  0.38879999535E+03  0.38879999535E+03  0.00000000000E+00 0. -1.
         -1   -1    0    0    0  501 -0.00000000000E+00 -0.00000000000E+00 -0.86133874762E+02  0.86133874762E+02  0.00000000000E+00 0.  1.
         23    2    1    2    0    0 -0.19833056120E+02  0.60585105487E+02 -0.19669294967E+02  0.11265187968E+03  0.90772571351E+02 0.  0.
         23    2    1    2    0    0  0.42109624566E+02 -0.31816148699E+02  0.13332820819E+03  0.16980440001E+03  0.90948531406E+02 0.  0.
        -13    1    4    4    0    0  0.56280625782E+02  0.80168786699E+01  0.10342588135E+03  0.11801988017E+03  0.00000000000E+00 0.  1.
         13    1    4    4    0    0 -0.14171001216E+02 -0.39833027369E+02  0.29902326837E+02  0.51784519841E+02  0.00000000000E+00 0. -1.
        -13    1    3    3    0    0  0.10038442258E+02 -0.21393291941E+02 -0.54173883487E+01  0.24244408831E+02  0.00000000000E+00 0. -1.
         13    1    3    3    0    0 -0.29871498377E+02  0.81978397429E+02 -0.14251906618E+02  0.88407470852E+02  0.00000000000E+00 0.  1.
         21    1    1    2  502  501 -0.22276568446E+02 -0.28768956788E+02  0.18900720737E+03  0.19247759042E+03  0.00000000000E+00 0. -1.
<scales pt_clust_5="13000.00000" pt_clust_6="13000.00000" pt_clust_7="13000.00000" pt_clust_8="13000.00000" pt_clust_9="36.38541"></scales>
<clustering>
<clus scale="   36.385">  1  9  2 -1</clus>
<clus scale="   90.773">  7  8 -1 -1</clus>
<clus scale="   90.949">  5  6 -1 -1</clus>
<clus scale="  108.470">  2  7  1 -1</clus>
<clus scale="   36.385">  1  5  2 -1</clus>
</clustering>
</event>
<event>
 9    1  0.1234700E-005  0.2125547E+03  0.7546771E-02  0.1139730E+00
         -1   -1    0    0    0  501 -0.00000000000E+00  0.00000000000E+00  0.53244077093E+03  0.53244077093E+03  0.00000000000E+00 0.  1.
          1   -1    0    0  502    0  0.00000000000E+00 -0.00000000000E+00 -0.12226715994E+03  0.12226715994E+03  0.00000000000E+00 0. -1.
         23    2    1    2    0    0  0.16892641394E+03  0.37913878032E+01  0.16904028334E+03  0.25397915714E+03  0.85908596328E+02 0.  0.
         23    2    1    2    0    0 -0.22465382934E+03  0.41933227825E+02  0.20833975517E+03  0.32153468495E+03  0.88041816287E+02 0.  0.
        -11    1    3    3    0    0  0.11322988897E+03 -0.18843461689E+02  0.15388005483E+03  0.19197696497E+03  0.00000000000E+00 0.  1.
         11    1    3    3    0    0  0.55696524976E+02  0.22634849492E+02  0.15160228505E+02  0.62002192173E+02  0.00000000000E+00 0. -1.
        -13    1    4    4    0    0 -0.11878867558E+03  0.62354651140E+02  0.90592002055E+02  0.16188194093E+03  0.00000000000E+00 0. -1.
         13    1    4    4    0    0 -0.10586515376E+03 -0.20421423316E+02  0.11774775311E+03  0.15965274402E+03  0.00000000000E+00 0.  1.
         21    1    1    2  502  501  0.55727415391E+02 -0.45724615628E+02  0.32793572488E+02  0.79194088775E+02  0.00000000000E+00 0.  1.
<scales pt_clust_5="13000.00000" pt_clust_6="13000.00000" pt_clust_7="13000.00000" pt_clust_8="13000.00000" pt_clust_9="72.08526"></scales>
<clustering>
<clus scale="   72.085">  2  9  1 -1</clus>
<clus scale="   85.909">  5  6 -1 -1</clus>
<clus scale="   88.042">  7  8 -1 -1</clus>
<clus scale="  211.680">  1  5  2 -1</clus>
<clus scale="   72.085">  2  5  1 -1</clus>
</clustering>
</event>
<event>
 9    1  0.1234700E-005  0.1087022E+03  0.7546771E-02  0.1264415E+00
          1   -1    0    0  502    0  0.00000000000E+00  0.00000000000E+00  0.34498507077E+02  0.34498507077E+02  0.00000000000E+00 0. -1.
         -1   -1    0    0    0  501 -0.00000000000E+00 -0.00000000000E+00 -0.45247768456E+03  0.45247768456E+03  0.00000000000E+00 0.  1.
         23    2    1    2    0    0  0.60349111068E+02 -0.17750564711E+02 -0.27871221724E+03  0.30073433557E+03  0.93827196484E+02 0.  0.
         23    2    1    2    0    0 -0.42140868088E+02  0.24911686425E+01 -0.11617278733E+03  0.15310984581E+03  0.90357344381E+02 0.  0.
        -11    1    3    3    0    0  0.28962054590E+02  0.38685222634E+02 -0.11443264641E+03  0.12421826605E+03  0.00000000000E+00 0. -1.
         11    1    3    3    0    0  0.31387056478E+02 -0.56435787346E+02 -0.16427957082E+03  0.17651606952E+03  0.00000000000E+00 0.  1.
        -13    1    4    4    0    0  0.24279915291E+02 -0.14228755119E+02 -0.18002983843E+02  0.33407771342E+02  0.00000000000E+00 0.  1.
         13    1    4    4    0    0 -0.66420783379E+02  0.16719923762E+02 -0.98169803488E+02  0.11970207447E+03  0.00000000000E+00 0. -1.
         21    1    1    2  502  501 -0.18208242980E+02  0.15259396069E+02 -0.23094172912E+02  0.33132010252E+02  0.00000000000E+00 0.  1.
<scales pt_clust_5="13000.00000" pt_clust_6="13000.00000" pt_clust_7="13000.00000" pt_clust_8="13000.00000" pt_clust_9="23.75688"></scales>
<clustering>
<clus scale="   23.757">  1  9  2 -1</clus>
<clus scale="   90.357">  7  8 -1 -1</clus>
<clus scale="   93.827">  5  6 -1 -1</clus>
<clus scale="  105.722">  1  7  2 -1</clus>
<clus scale="   23.757">  1  5  2 -1</clus>
</clustering>
</event>
<event>
 9    1  0.1234700E-005  0.1100765E+03  0.7546771E-02  0.1266999E+00
          1   -1    0    0  502    0  0.00000000000E+00  0.00000000000E+00  0.18204414757E+03  0.18204414757E+03  0.00000000000E+00 0. -1.
         -1   -1    0    0    0  501 -0.00000000000E+00 -0.00000000000E+00 -0.73968566397E+02  0.73968566397E+02  0.00000000000E+00 0.  1.
         23    2    1    2    0    0 -0.59194344024E+00 -0.52674181126E+02  0.33731204436E+02  0.10542737899E+03  0.84865884388E+02 0.  0.
         23    2    1    2    0    0  0.16957525624E+02  0.37385804430E+02  0.55360907740E+02  0.12122654009E+03  0.99728570973E+02 0.  0.
        -11    1    4    4    0    0  0.54567127050E+02  0.30723737225E-01  0.32380007271E+02  0.63451061215E+02  0.00000000000E+00 0.  1.
         11    1    4    4    0    0 -0.37609601426E+02  0.37355080693E+02  0.22980900469E+02  0.57775478876E+02  0.00000000000E+00 0. -1.
        -11    1    3    3    0    0  0.41679828325E+02 -0.29700588549E+02  0.23122940261E+02  0.56160514739E+02  0.00000000000E+00 0.  1.
         11    1    3    3    0    0 -0.42271771765E+02 -0.22973592577E+02  0.10608264175E+02  0.49266864248E+02  0.00000000000E+00 0. -1.
         21    1    1    2  502  501 -0.16365582184E+02  0.15288376695E+02  0.18983468998E+02  0.29358794890E+02  0.00000000000E+00 0. -1.
<scales pt_clust_5="13000.00000" pt_clust_6="13000.00000" pt_clust_7="13000.00000" pt_clust_8="13000.00000" pt_clust_9="22.39569"></scales>
<clustering>
<clus scale="   22.396">  1  9  2 -1</clus>
<clus scale="   84.866">  7  8 -1 -1</clus>
<clus scale="   96.816">  2  7  1 -1</clus>
<clus scale="   99.729">  5  6 -1 -1</clus>
<clus scale="   22.396">  1  5  2 -1</clus>
</clustering>
</event>
<event>
 9    1  0.1234700E-005  0.9873433E+02  0.7546771E-02  0.1287146E+00
         -3   -1    0    0    0  501 -0.00000000000E+00  0.00000000000E+00  0.28524385294E+03  0.28524385294E+03  0.00000000000E+00 0.  1.
          3   -1    0    0  502    0  0.00000000000E+00 -0.00000000000E+00 -0.46962972298E+02  0.46962972298E+02  0.00000000000E+00 0. -1.
         23    2    1    2    0    0  0.40966974711E+02 -0.26242431111E+01  0.13581819077E+03  0.16998324114E+03  0.93608448641E+02 0.  0.
         23    2    1    2    0    0 -0.21262781280E+02  0.98501891721E+01  0.10864530317E+03  0.14034450179E+03  0.85695070957E+02 0.  0.
        -11    1    4    4    0    0 -0.36424250535E+02  0.38740833999E+02  0.84160325297E+02  0.99551688083E+02  0.00000000000E+00 0.  1.
         11    1    4    4    0    0  0.15161469255E+02 -0.28890644827E+02  0.24484977871E+02  0.40792813703E+02  0.00000000000E+00 0. -1.
        -11    1    3    3    0    0  0.32168597482E+02 -0.46644439813E+02  0.85270095937E+02  0.10237925420E+03  0.00000000000E+00 0. -1.
         11    1    3    3    0    0  0.87983772297E+01  0.44020196702E+02  0.50548094833E+02  0.67603986944E+02  0.00000000000E+00 0.  1.
         21    1    1    2  502  501 -0.19704193431E+02 -0.72259460610E+01 -0.61826132998E+01  0.21879082304E+02  0.00000000000E+00 0.  1.
<scales pt_clust_5="13000.00000" pt_clust_6="13000.00000" pt_clust_7="13000.00000" pt_clust_8="13000.00000" pt_clust_9="20.98737"></scales>
<clustering>
<clus scale="   20.987">  2  9  1 -1</clus>
<clus scale="   85.695">  5  6 -1 -1</clus>
<clus scale="   91.266">  2  5  1 -1</clus>
<clus scale="   93.608">  7  8 -1 -1</clus>
<clus scale="   20.987">  2  5  1 -1</clus>
</clustering>
</event>
<event>
 9    1  0.1234700E-005  0.9525524E+02  0.7546771E-02  0.1290661E+00
          2   -1    0    0  502    0  0.00000000000E+00  0.00000000000E+00  0.76870919541E+02  0.76870919541E+02  0.00000000000E+00 0. -1.
         -2   -1    0    0    0  501 -0.00000000000E+00 -0.00000000000E+00 -0.28800813498E+03  0.28800813498E+03  0.00000000000E+00 0.  1.
         23    2    1    2    0    0 -0.80455292813E+01  0.11987535853E+02 -0.16458503231E+03  0.18976375744E+03  0.93346768667E+02 0.  0.
         23    2    1    2    0    0  0.43220062245E+02  0.23887395892E+02 -0.62013912864E+02  0.12254797278E+03  0.93454260365E+02 0.  0.
        -13    1    4    4    0    0  0.50346654721E+02  0.47996037617E+02 -0.67379173149E+02  0.96841923994E+02  0.00000000000E+00 0.  1.
         13    1    4    4    0    0 -0.71265924762E+01 -0.24108641726E+02  0.53652602852E+01  0.25706048784E+02  0.00000000000E+00 0. -1.
        -13    1    3    3    0    0 -0.42372060771E+02 -0.17063392044E+02 -0.56216367765E+02  0.72435011470E+02  0.00000000000E+00 0. -1.
         13    1    3    3    0    0  0.34326531490E+02  0.29050927898E+02 -0.10836866455E+03  0.11732874597E+03  0.00000000000E+00 0.  1.
         21    1    1    2  502  501 -0.35174532963E+02 -0.35874931745E+02  0.15461729742E+02  0.52567324295E+02  0.00000000000E+00 0. -1.
<scales pt_clust_5="13000.00000" pt_clust_6="13000.00000" pt_clust_7="13000.00000" pt_clust_8="13000.00000" pt_clust_9="50.24200"></scales>
<clustering>
<clus scale="   50.242">  1  9  2 -1</clus>
<clus scale="   93.347">  7  8 -1 -1</clus>
<clus scale="   93.454">  5  6 -1 -1</clus>
<clus scale="   95.150">  2  7  1 -1</clus>
<clus scale="   50.242">  1  5  2 -1</clus>
</clustering>
</event>
<event>
 9    1  0.1234700E-005  0.9689760E+02  0.7546771E-02  0.1287028E+00
         -1   -1    0    0    0  501 -0.00000000000E+00  0.00000000000E+00  0.25893968843E+03  0.25893968843E+03  0.00000000000E+00 0.  1.
          1   -1    0    0  502    0  0.00000000000E+00 -0.00000000000E+00 -0.13384513170E+03  0.13384513170E+03  0.00000000000E+00 0. -1.
         23    2    1    2    0    0 -0.29405796667E+02 -0.37037740410E+01  0.18998438723E+03  0.21229375881E+03  0.89978629793E+02 0.  0.
         23    2    1    2    0    0  0.70224806564E+02  0.37508616986E+01 -0.13860400871E+02  0.11514432097E+03  0.90113880834E+02 0.  0.
        -11    1    3    3    0    0  0.24130585163E+02  0.40753874412E+01  0.14025993207E+02  0.28206779479E+02  0.00000000000E+00 0. -1.
         11    1    3    3    0    0 -0.53536381830E+02 -0.77791614821E+01  0.17595839403E+03  0.18408697934E+03  0.00000000000E+00 0.  1.
        -11    1    4    4    0    0  0.81694928291E+02  0.21968569964E+02  0.73590349874E+01  0.84916634240E+02  0.00000000000E+00 0. -1.
         11    1    4    4    0    0 -0.11470121727E+02 -0.18217708265E+02 -0.21219435859E+02  0.30227686730E+02  0.00000000000E+00 0.  1.
         21    1    1    2  502  501 -0.40819009897E+02 -0.47087657611E-01 -0.51029429629E+02  0.65346740350E+02  0.00000000000E+00 0.  1.
<scales pt_clust_5="13000.00000" pt_clust_6="13000.00000" pt_clust_7="13000.00000" pt_clust_8="13000.00000" pt_clust_9="40.81904"></scales>
<clustering>
<clus scale="   40.819">  2  9  1 -1</clus>
<clus scale="   89.979">  5  6 -1 -1</clus>
<clus scale="   90.114">  7  8 -1 -1</clus>
<clus scale="   96.772">  1  5  2 -1</clus>
<clus scale="   40.819">  2  5  1 -1</clus>
</clustering>
</event>
<event>
 9    1  0.1234700E-005  0.1047485E+03  0.7546771E-02  0.1275726E+00
          2   -1    0    0  502    0  0.00000000000E+00  0.00000000000E+00  0.40989749647E+03  0.40989749647E+03  0.00000000000E+00 0. -1.
         -2   -1    0    0    0  501 -0.00000000000E+00 -0.00000000000E+00 -0.43082529008E+02  0.43082529008E+02  0.00000000000E+00 0.  1.
         23    2    1    2    0    0 -0.23870652082E+02  0.46187133536E+02  0.10718997416E+03  0.15614217856E+03  0.10093379032E+03 0.  0.
         23    2    1    2    0    0 -0.72301400312E+00 -0.20666629741E+02  0.23745637035E+03  0.25503363219E+03  0.90713799374E+02 0.  0.
        -11    1    4    4    0    0 -0.44733980695E+02 -0.53542209936E+01  0.94836327018E+02  0.10499393141E+03  0.00000000000E+00 0.  1.
         11    1    4    4    0    0  0.44010966692E+02 -0.15312408747E+02  0.14262004333E+03  0.15003970078E+03  0.00000000000E+00 0. -1.
        -11    1    3    3    0    0  0.29007389257E+02  0.52553005396E+02  0.61954028308E+02  0.86264411151E+02  0.00000000000E+00 0. -1.
         11    1    3    3    0    0 -0.52878041339E+02 -0.63658718605E+01  0.45235945851E+02  0.69877767405E+02  0.00000000000E+00 0.  1.
         21    1    1    2  502  501  0.24593666085E+02 -0.25520503795E+02  0.22168622956E+02  0.41804214730E+02  0.00000000000E+00 0.  1.
<scales pt_clust_5="13000.00000" pt_clust_6="13000.00000" pt_clust_7="13000.00000" pt_clust_8="13000.00000" pt_clust_9="35.44213"></scales>
<clustering>
<clus scale="   35.442">  2  9  1 -1</clus>
<clus scale="   90.714">  5  6 -1 -1</clus>
<clus scale="   94.940">  1  5  2 -1</clus>
<clus scale="  100.934">  7  8 -1 -1</clus>
<clus scale="   94.940">  1  5  2 -1</clus>
</clustering>
</event>
<event>
 9    1  0.1234700E-005  0.1028350E+03  0.7546771E-02  0.1277931E+00
         -1   -1    0    0    0  501 -0.00000000000E+00  0.00000000000E+00  0.50664570723E+02  0.50664570723E+02  0.00000000000E+00 0.  1.
          1   -1    0    0  502    0  0.00000000000E+00 -0.00000000000E+00 -0.49676900277E+03  0.49676900277E+03  0.00000000000E+00 0. -1.
         23    2    1    2    0    0  0.24699733138E+02 -0.40648384074E+02 -0.18794707362E+02  0.97837091393E+02  0.83405560261E+02 0.  0.
         23    2    1    2    0    0 -0.43733981945E+01  0.54132575559E+02 -0.26392975234E+03  0.28440568733E+03  0.90984715577E+02 0.  0.
        -13    1    3    3    0    0  0.54694383723E+02 -0.23448451104E+02 -0.21212183870E+02  0.63176437178E+02  0.00000000000E+00 0.  1.
         13    1    3    3    0    0 -0.29994650585E+02 -0.17199932970E+02  0.24174765088E+01  0.34660654214E+02  0.00000000000E+00 0. -1.
        -13    1    4    4    0    0 -0.46944331907E+02  0.22947161650E+02 -0.15019112272E+03  0.15902111768E+03  0.00000000000E+00 0. -1.
         13    1    4    4    0    0  0.42570933713E+02  0.31185413909E+02 -0.11373862962E+03  0.12538456964E+03  0.00000000000E+00 0.  1.
         21    1    1    2  502  501 -0.20326334943E+02 -0.13484191485E+02 -0.16337997235E+03  0.16519079478E+03  0.00000000000E+00 0. -1.
<scales pt_clust_5="13000.00000" pt_clust_6="13000.00000" pt_clust_7="13000.00000" pt_clust_8="13000.00000" pt_clust_9="24.39228"></scales>
<clustering>
<clus scale="   24.392">  2  9  1 -1</clus>
<clus scale="   83.406">  5  6 -1 -1</clus>
<clus scale="   90.985">  7  8 -1 -1</clus>
<clus scale="   96.194">  1  5  2 -1</clus>
<clus scale="   24.392">  2  5  1 -1</clus>
</clustering>
</event>
<event>
 9    1  0.1234700E-005  0.9777023E+02  0.7546771E-02  0.1288859E+00
         -3   -1    0    0    0  501 -0.00000000000E+00  0.00000000000E+00  0.30237780009E+03  0.30237780009E+03  0.00000000000E+00 0.  1.
          3   -1    0    0  502    0  0.00000000000E+00 -0.00000000000E+00 -0.39047129900E+02  0.39047129900E+02  0.00000000000E+00 0. -1.
         23    2    1    2    0    0  0.10353988879E+02 -0.23292690750E+02  0.14303090313E+03  0.17448579604E+03  0.96631771380E+02 0.  0.
         23    2    1    2    0    0 -0.14363875513E+00  0.45639689540E+01  0.11297731772E+03  0.14438620655E+03  0.89792270714E+02 0.  0.
        -11    1    3    3    0    0 -0.11829687610E+02 -0.47695698764E+02  0.13008402728E+03  0.13905637469E+03  0.00000000000E+00 0.  1.
         11    1    3    3    0    0  0.22183676488E+02  0.24403008014E+02  0.12946875857E+02  0.35429421349E+02  0.00000000000E+00 0. -1.
        -13    1    4    4    0    0  0.30820582203E+02 -0.11677012221E+02  0.10282373251E+03  0.10797676078E+03  0.00000000000E+00 0.  1.
         13    1    4    4    0    0 -0.30964220958E+02  0.16240981175E+02  0.10153585209E+02  0.36409445775E+02  0.00000000000E+00 0. -1.
         21    1    1    2  502  501 -0.10210350124E+02  0.18728721796E+02  0.73224493377E+01  0.22552927395E+02  0.00000000000E+00 0. -1.
<scales pt_clust_5="13000.00000" pt_clust_6="13000.00000" pt_clust_7="13000.00000" pt_clust_8="13000.00000" pt_clust_9="21.33111"></scales>
<clustering>
<clus scale="   21.331">  2  9  1 -1</clus>
<clus scale="   89.792">  7  8 -1 -1</clus>
<clus scale="   91.016">  2  7  1 -1</clus>
<clus scale="   96.632">  5  6 -1 -1</clus>
<clus scale="   21.331">  2  5  1 -1</clus>
</clustering>
</event>
<event>
 9    1  0.1234700E-005  0.9788544E+02  0.7546771E-02  0.1296936E+00
          2   -1    0    0  502    0  0.00000000000E+00  0.00000000000E+00  0.69808750495E+03  0.69808750495E+03  0.00000000000E+00 0. -1.
         -2   -1    0    0    0  501 -0.00000000000E+00 -0.00000000000E+00 -0.45190033018E+02  0.45190033018E+02  0.00000000000E+00 0.  1.
         23    2    1    2    0    0  0.72708711484E+01  0.38799668988E+02  0.52061259340E+01  0.79623310555E+02  0.68952795125E+02 0.  0.
         23    2    1    2    0    0 -0.33895472337E+02 -0.67389151717E+00  0.39528533703E+03  0.40700030156E+03  0.90826156028E+02 0.  0.
        -11    1    3    3    0    0 -0.21982606603E+02 -0.54006622473E+01  0.12915153637E+02  0.26061529871E+02  0.00000000000E+00 0. -1.
         11    1    3    3    0    0  0.29253477751E+02  0.44200331235E+02 -0.77090277032E+01  0.53561780683E+02  0.00000000000E+00 0.  1.
        -11    1    4    4    0    0 -0.50155711061E+02  0.29284554424E+02  0.30529904717E+03  0.31077433724E+03  0.00000000000E+00 0. -1.
         11    1    4    4    0    0  0.16260238724E+02 -0.29958445941E+02  0.89986289862E+02  0.96225964322E+02  0.00000000000E+00 0.  1.
         21    1    1    2  502  501  0.26624601189E+02 -0.38125777471E+02  0.25240600896E+03  0.25665392585E+03  0.00000000000E+00 0. -1.
<scales pt_clust_5="13000.00000" pt_clust_6="13000.00000" pt_clust_7="13000.00000" pt_clust_8="13000.00000" pt_clust_9="46.50209"></scales>
<clustering>
<clus scale="   46.502">  1  9  2 -1</clus>
<clus scale="   68.953">  5  6 -1 -1</clus>
<clus scale="   78.017">  2  5  1 -1</clus>
<clus scale="   90.826">  7  8 -1 -1</clus>
<clus scale="   46.502">  1  5  2 -1</clus>
</clustering>
</event>
<event>
 9    1  0.1234700E-005  0.1030325E+03  0.7546771E-02  0.1278149E+00
         -1   -1    0    0    0  501 -0.00000000000E+00  0.00000000000E+00  0.42302381304E+03  0.42302381304E+03  0.00000000000E+00 0.  1.
          1   -1    0    0  502    0  0.00000000000E+00 -0.00000000000E+00 -0.16939796357E+03  0.16939796357E+03  0.00000000000E+00 0. -1.
         23    2    1    2    0    0  0.91907268681E+01  0.21705465421E+02  0.36760587482E+03  0.37959518670E+03  0.91666950863E+02 0.  0.
         23    2    1    2    0    0 -0.71395387790E+01 -0.75239264421E+02 -0.89959640268E+02  0.15411497344E+03  0.99733486037E+02 0.  0.
        -11    1    3    3    0    0  0.14743637175E+02 -0.34685412398E+02  0.13236511159E+03  0.13762621638E+03  0.00000000000E+00 0. -1.
         11    1    3    3    0    0 -0.55529103067E+01  0.56390877819E+02  0.23524076323E+03  0.24196897032E+03  0.00000000000E+00 0.  1.
        -13    1    4    4    0    0  0.25072096090E+02 -0.39795729496E+01 -0.68454559857E+02  0.73010093606E+02  0.00000000000E+00 0. -1.
         13    1    4    4    0    0 -0.32211634869E+02 -0.71259691472E+02 -0.21505080412E+02  0.81104879835E+02  0.00000000000E+00 0.  1.
         21    1    1    2  502  501 -0.20511880891E+01  0.53533799001E+02 -0.24020385086E+02  0.58711616463E+02  0.00000000000E+00 0.  1.
<scales pt_clust_5="13000.00000" pt_clust_6="13000.00000" pt_clust_7="13000.00000" pt_clust_8="13000.00000" pt_clust_9="53.57308"></scales>
<clustering>
<clus scale="   53.573">  2  9  1 -1</clus>
<clus scale="   91.667">  5  6 -1 -1</clus>
<clus scale="   95.246">  1  5  2 -1</clus>
<clus scale="   99.733">  7  8 -1 -1</clus>
<clus scale="   53.573">  2  5  1 -1</clus>
</clustering>
</event>
<event>
 9    1  0.1234700E-005  0.1075895E+03  0.7546771E-02  0.1267541E+00
          2   -1    0    0  502    0  0.00000000000E+00  0.00000000000E+00  0.94779822618E+02  0.94779822618E+02  0.00000000000E+00 0. -1.
         -2   -1    0    0    0  501 -0.00000000000E+00 -0.00000000000E+00 -0.34322366041E+03  0.34322366041E+03  0.00000000000E+00 0.  1.
         23    2    1    2    0    0 -0.28466655999E+02 -0.38531103560E+02 -0.28230681614E+03  0.30055519388E+03  0.91330661236E+02 0.  0.
         23    2    1    2    0    0  0.29417249293E+01  0.43696353935E+02  0.33181987617E+02  0.11139707678E+03  0.96903247209E+02 0.  0.
        -11    1    3    3    0    0 -0.49379572268E+02 -0.55167229167E+02 -0.23288940564E+03  0.24437520454E+03  0.00000000000E+00 0.  1.
         11    1    3    3    0    0  0.20912916269E+02  0.16636125607E+02 -0.49417410498E+02  0.56179989341E+02  0.00000000000E+00 0. -1.
        -13    1    4    4    0    0  0.22721118731E+02  0.14150537189E+02  0.60763503280E+02  0.66397968869E+02  0.00000000000E+00 0. -1.
         13    1    4    4    0    0 -0.19779393802E+02  0.29545816746E+02 -0.27581515662E+02  0.44999107909E+02  0.00000000000E+00 0.  1.
         21    1    1    2  502  501  0.25524931070E+02 -0.51652503748E+01  0.68099073448E+00  0.26051212370E+02  0.00000000000E+00 0.  1.
<scales pt_clust_5="13000.00000" pt_clust_6="13000.00000" pt_clust_7="13000.00000" pt_clust_8="13000.00000" pt_clust_9="26.04231"></scales>
<clustering>
<clus scale="   26.042">  1  9  2 -1</clus>
<clus scale="   91.331">  5  6 -1 -1</clus>
<clus scale="   96.903">  7  8 -1 -1</clus>
<clus scale="  102.599">  2  5  1 -1</clus>
<clus scale="   26.042">  1  5  2 -1</clus>
</clustering>
</event>
<event>
 9    1  0.1234700E-005  0.9655724E+02  0.7546771E-02  0.1289231E+00
          1   -1    0    0  502    0  0.00000000000E+00  0.00000000000E+00  0.50380260602E+03  0.50380260602E+03  0.00000000000E+00 0. -1.
         -1   -1    0    0    0  501 -0.00000000000E+00 -0.00000000000E+00 -0.49641898356E+02  0.49641898356E+02  0.00000000000E+00 0.  1.
         23    2    1    2    0    0 -0.32913223965E+02  0.11447060299E+02  0.13419524051E+02  0.95644447345E+02  0.88053740301E+02 0.  0.
         23    2    1    2    0    0  0.92599864270E+01 -0.16590480465E+02  0.39779288903E+03  0.40850009329E+03  0.90951373080E+02 0.  0.
        -13    1    3    3    0    0 -0.55307278774E+02  0.26475797193E+02  0.25097454667E+02  0.66255151899E+02  0.00000000000E+00 0.  1.
         13    1    3    3    0    0  0.22394054808E+02 -0.15028736895E+02 -0.11677930616E+02  0.29389295447E+02  0.00000000000E+00 0. -1.
        -13    1    4    4    0    0  0.23995011058E+02  0.31287998620E+02  0.12258927001E+03  0.12877433182E+03  0.00000000000E+00 0.  1.
         13    1    4    4    0    0 -0.14735024631E+02 -0.47878479085E+02  0.27520361902E+03  0.27972576147E+03  0.00000000000E+00 0. -1.
         21    1    1    2  502  501  0.23653237538E+02  0.51434201664E+01  0.42948294580E+02  0.49299963736E+02  0.00000000000E+00 0.  1.
<scales pt_clust_5="13000.00000" pt_clust_6="13000.00000" pt_clust_7="13000.00000" pt_clust_8="13000.00000" pt_clust_9="24.20600"></scales>
<clustering>
<clus scale="   24.206">  1  9  2 -1</clus>
<clus scale="   88.054">  5  6 -1 -1</clus>
<clus scale="   90.951">  7  8 -1 -1</clus>
<clus scale="   93.833">  2  5  1 -1</clus>
<clus scale="   24.206">  1  5  2 -1</clus>
</clustering>
</event>
<event>
 9    1  0.1234700E-005  0.1553312E+03  0.7546771E-02  0.1196162E+00
         -1   -1    0    0    0  501 -0.00000000000E+00  0.00000000000E+00  0.64996645076E+02  0.64996645076E+02  0.00000000000E+00 0.  1.
          1   -1    0    0  502    0  0.00000000000E+00 -0.00000000000E+00 -0.60849097906E+03  0.60849097906E+03  0.00000000000E+00 0. -1.
         23    2    1    2    0    0  0.99983224836E+02  0.52970591844E+02 -0.11992554197E+03  0.18911123432E+03  0.92619622541E+02 0.  0.
         23    2    1    2    0    0 -0.12003084941E+03 -0.25105531765E+02 -0.19158002110E+03  0.24986165967E+03  0.10339367464E+03 0.  0.
        -11    1    3    3    0    0  0.64705287545E+02  0.52477678350E+02 -0.12818189198E+03  0.15287667708E+03  0.00000000000E+00 0. -1.
         11    1    3    3    0    0  0.35277937291E+02  0.49291349406E+00  0.82563500097E+01  0.36234557244E+02  0.00000000000E+00 0.  1.
        -13    1    4    4    0    0 -0.48691711363E+02 -0.90229222605E+01 -0.53755174294E+01  0.49811565617E+02  0.00000000000E+00 0.  1.
         13    1    4    4    0    0 -0.71339138046E+02 -0.16082609505E+02 -0.18620450367E+03  0.20005009406E+03  0.00000000000E+00 0. -1.
         21    1    1    2  502  501  0.20047624573E+02 -0.27865060079E+02 -0.23198877091E+03  0.23451473014E+03  0.00000000000E+00 0.  1.
<scales pt_clust_5="13000.00000" pt_clust_6="13000.00000" pt_clust_7="13000.00000" pt_clust_8="13000.00000" pt_clust_9="34.32738"></scales>
<clustering>
<clus scale="   34.327">  2  9  1 -1</clus>
<clus scale="   92.620">  5  6 -1 -1</clus>
<clus scale="  103.394">  7  8 -1 -1</clus>
<clus scale="  148.378">  1  5  2 -1</clus>
<clus scale="   34.327">  2  5  1 -1</clus>
</clustering>
</event>
<event>
 9    1  0.1234700E-005  0.1047656E+03  0.7546771E-02  0.1270610E+00
          1   -1    0    0  502    0  0.00000000000E+00  0.00000000000E+00  0.45366754618E+02  0.45366754618E+02  0.00000000000E+00 0. -1.
         -1   -1    0    0    0  501 -0.00000000000E+00 -0.00000000000E+00 -0.33512076630E+03  0.33512076630E+03  0.00000000000E+00 0.  1.
         23    2    1    2    0    0  0.30312163959E+02 -0.53423102650E+02 -0.16730116179E+03  0.20017379614E+03  0.91142826067E+02 0.  0.
         23    2    1    2    0    0 -0.36917836188E+02  0.30076585410E+02 -0.75719290814E+02  0.12765709826E+03  0.91079065185E+02 0.  0.
        -13    1    4    4    0    0 -0.37025755644E+02  0.53740169729E+02 -0.80381978342E+02  0.10353827730E+03  0.00000000000E+00 0.  1.
         13    1    4    4    0    0  0.10791945588E+00 -0.23663584319E+02  0.46626875283E+01  0.24118820958E+02  0.00000000000E+00 0. -1.
        -13    1    3    3    0    0  0.22436097587E+02 -0.20367431381E+02 -0.87573803567E+00  0.30314644202E+02  0.00000000000E+00 0. -1.
         13    1    3    3    0    0  0.78760663725E+01 -0.33055671269E+02 -0.16642542376E+03  0.16985915194E+03  0.00000000000E+00 0.  1.
         21    1    1    2  502  501  0.66056722290E+01  0.23346517239E+02 -0.46733559076E+02  0.52656626523E+02  0.00000000000E+00 0. -1.
<scales pt_clust_5="13000.00000" pt_clust_6="13000.00000" pt_clust_7="13000.00000" pt_clust_8="13000.00000" pt_clust_9="24.26303"></scales>
<clustering>
<clus scale="   24.263">  2  9  1 -1</clus>
<clus scale="   91.079">  5  6 -1 -1</clus>
<clus scale="   91.143">  7  8 -1 -1</clus>
<clus scale="  104.710">  1  5  2 -1</clus>
<clus scale="  104.710">  1  5  2 -1</clus>
</clustering>
</event>
<event>
 9    1  0.1234700E-005  0.1035223E+03  0.7546771E-02  0.1273930E+00
         -1   -1    0    0    0  501 -0.00000000000E+00  0.00000000000E+00  0.19809366594E+03  0.19809366594E+03  0.00000000000E+00 0.  1.
          1   -1    0    0  502    0  0.00000000000E+00 -0.00000000000E+00 -0.91148763928E+02  0.91148763928E+02  0.00000000000E+00 0. -1.
         23    2    1    2    0    0  0.48167093443E+02 -0.39987352879E+02  0.94760309423E+02  0.14548014660E+03  0.90916992540E+02 0.  0.
         23    2    1    2    0    0 -0.22368990450E+02  0.24846686891E+02  0.39823329000E+02  0.10303536791E+03  0.88953133300E+02 0.  0.
        -13    1    3    3    0    0 -0.23150288785E+02 -0.15355001072E+01  0.44358672000E+02  0.50059818347E+02  0.00000000000E+00 0. -1.
         13    1    3    3    0    0  0.71317382228E+02 -0.38451852772E+02  0.50401637424E+02  0.95420328256E+02  0.00000000000E+00 0.  1.
        -13    1    4    4    0    0  0.99260712245E+00  0.48241591387E+02 -0.36829370010E+01  0.48392152601E+02  0.00000000000E+00 0. -1.
         13    1    4    4    0    0 -0.23361597572E+02 -0.23394904496E+02  0.43506266001E+02  0.54643215305E+02  0.00000000000E+00 0.  1.
         21    1    1    2  502  501 -0.25798102994E+02  0.15140665989E+02 -0.27638736408E+02  0.40726915362E+02  0.00000000000E+00 0. -1.
<scales pt_clust_5="13000.00000" pt_clust_6="13000.00000" pt_clust_7="13000.00000" pt_clust_8="13000.00000" pt_clust_9="29.91290"></scales>
<clustering>
<clus scale="   29.913">  2  9  1 -1</clus>
<clus scale="   88.953">  7  8 -1 -1</clus>
<clus scale="   90.917">  5  6 -1 -1</clus>
<clus scale="  101.802">  2  7  1 -1</clus>
<clus scale="   29.913">  2  5  1 -1</clus>
</clustering>
</event>
<event>
 9    1  0.1234700E-005  0.1096572E+03  0.7546771E-02  0.1263368E+00
          1   -1    0    0  502    0  0.00000000000E+00  0.00000000000E+00  0.15573347921E+03  0.15573347921E+03  0.00000000000E+00 0. -1.
         -1   -1    0    0    0  501 -0.00000000000E+00 -0.00000000000E+00 -0.17769162316E+03  0.17769162316E+03  0.00000000000E+00 0.  1.
         23    2    1    2    0    0 -0.80320887093E+01  0.48295604994E+02 -0.10932605594E+03  0.14980908183E+03  0.89964407294E+02 0.  0.
         23    2    1    2    0    0  0.28012772758E+02 -0.75911041540E+02  0.54743246421E+02  0.13643330258E+03  0.95236659740E+02 0.  0.
        -11    1    4    4    0    0  0.59507961103E+02 -0.71411612177E+02  0.37394747809E+02  0.10019572322E+03  0.00000000000E+00 0. -1.
         11    1    4    4    0    0 -0.31495188345E+02 -0.44994293633E+01  0.17348498611E+02  0.36237579356E+02  0.00000000000E+00 0.  1.
        -13    1    3    3    0    0  0.18217046366E+02  0.26283636886E+02 -0.11099632538E+03  0.11551136132E+03  0.00000000000E+00 0. -1.
         13    1    3    3    0    0 -0.26249135075E+02  0.22011968108E+02  0.16702694364E+01  0.34297720510E+02  0.00000000000E+00 0.  1.
         21    1    1    2  502  501 -0.19980684049E+02  0.27615436546E+02  0.32624665568E+02  0.47182717960E+02  0.00000000000E+00 0.  1.
<scales pt_clust_5="13000.00000" pt_clust_6="13000.00000" pt_clust_7="13000.00000" pt_clust_8="13000.00000" pt_clust_9="34.08578"></scales>
<clustering>
<clus scale="   34.086">  1  9  2 -1</clus>
<clus scale="   89.964">  7  8 -1 -1</clus>
<clus scale="   95.237">  5  6 -1 -1</clus>
<clus scale="  105.111">  2  7  1 -1</clus>
<clus scale="   34.086">  1  5  2 -1</clus>
</clustering>
</event>
<event>
 9    1  0.1234700E-005  0.9884912E+02  0.7546771E-02  0.1283218E+00
          1   -1    0    0  502    0  0.00000000000E+00  0.00000000000E+00  0.26933246169E+03  0.26933246169E+03  0.00000000000E+00 0. -1.
         -1   -1    0    0    0  501 -0.00000000000E+00 -0.00000000000E+00 -0.92293675236E+02  0.92293675236E+02  0.00000000000E+00 0.  1.
         23    2    1    2    0    0  0.34105496636E+02 -0.57388104597E+02  0.14110827436E+02  0.11412766466E+03  0.91484583076E+02 0.  0.
         23    2    1    2    0    0  0.59459015913E+01 -0.21341650665E+02  0.11140487946E+03  0.14523842830E+03  0.90511513575E+02 0.  0.
        -13    1    4    4    0    0  0.34847678528E+02  0.18258172147E+02  0.27290866444E+02  0.47880193611E+02  0.00000000000E+00 0.  1.
         13    1    4    4    0    0 -0.28901776936E+02 -0.39599822812E+02  0.84114013015E+02  0.97358234692E+02  0.00000000000E+00 0. -1.
        -13    1    3    3    0    0 -0.83324225486E+01 -0.61851142507E+02  0.29151567515E+02  0.68882559357E+02  0.00000000000E+00 0. -1.
         13    1    3    3    0    0  0.42437919185E+02  0.44630379096E+01 -0.15040740079E+02  0.45245105307E+02  0.00000000000E+00 0.  1.
         21    1    1    2  502  501 -0.40051398228E+02  0.78729755262E+02  0.51523079563E+02  0.10226004396E+03  0.00000000000E+00 0.  1.
<scales pt_clust_5="13000.00000" pt_clust_6="13000.00000" pt_clust_7="13000.00000" pt_clust_8="13000.00000" pt_clust_9="88.33170"></scales>
<clustering>
<clus scale="   88.332">  1  9  2 -1</clus>
<clus scale="   90.512">  5  6 -1 -1</clus>
<clus scale="   91.485">  7  8 -1 -1</clus>
<clus scale="   97.949">  1  5  2 -1</clus>
<clus scale="   88.332">  1  5  2 -1</clus>
</clustering>
</event>
<event>
 9    1  0.1234700E-005  0.2331637E+03  0.7546771E-02  0.1124653E+00
         -1   -1    0    0    0  501 -0.00000000000E+00  0.00000000000E+00  0.15366446859E+03  0.15366446859E+03  0.00000000000E+00 0.  1.
          1   -1    0    0  502    0  0.00000000000E+00 -0.00000000000E+00 -0.10216955331E+04  0.10216955331E+04  0.00000000000E+00 0. -1.
         23    2    1    2    0    0 -0.54330497618E+02 -0.20138004526E+03  0.26696912612E+02  0.23073909369E+03  0.94984623031E+02 0.  0.
         23    2    1    2    0    0  0.56851095690E+02  0.24054949753E+03 -0.77700644272E+03  0.82052836564E+03  0.91824174103E+02 0.  0.
        -11    1    4    4    0    0 -0.13585732377E+02  0.14141467042E+03 -0.42120434132E+03  0.44451746679E+03  0.00000000000E+00 0.  1.
         11    1    4    4    0    0  0.70436828067E+02  0.99134827110E+02 -0.35580210140E+03  0.37601089885E+03  0.00000000000E+00 0. -1.
        -11    1    3    3    0    0 -0.36309775002E+02 -0.50712176527E+02  0.46381039426E+02  0.77725963661E+02  0.00000000000E+00 0.  1.
         11    1    3    3    0    0 -0.18020722617E+02 -0.15066786873E+03 -0.19684126813E+02  0.15301313003E+03  0.00000000000E+00 0. -1.
         21    1    1    2  502  501 -0.25205980716E+01 -0.39169452268E+02 -0.11772153439E+03  0.12409254234E+03  0.00000000000E+00 0. -1.
<scales pt_clust_5="13000.00000" pt_clust_6="13000.00000" pt_clust_7="13000.00000" pt_clust_8="13000.00000" pt_clust_9="39.25047"></scales>
<clustering>
<clus scale="   39.250">  2  9  1 -1</clus>
<clus scale="   91.824">  5  6 -1 -1</clus>
<clus scale="   94.985">  7  8 -1 -1</clus>
<clus scale="  231.894">  2  5  1 -1</clus>
<clus scale="   39.250">  2  5  1 -1</clus>
</clustering>
</event>
<event>
 9    1  0.1234700E-005  0.1064431E+03  0.7546771E-02  0.1270539E+00
         -3   -1    0    0    0  501 -0.00000000000E+00  0.00000000000E+00  0.14249364917E+03  0.14249364917E+03  0.00000000000E+00 0.  1.
          3   -1    0    0  502    0  0.00000000000E+00 -0.00000000000E+00 -0.28581474389E+03  0.28581474389E+03  0.00000000000E+00 0. -1.
         23    2    1    2    0    0  0.23274528842E+02  0.45382245188E+02  0.10554620133E+03  0.14587654557E+03  0.86825768428E+02 0.  0.
         23    2    1    2    0    0 -0.13013986499E+01 -0.40923542320E+02 -0.15515222163E+03  0.18607203400E+03  0.94202760069E+02 0.  0.
        -11    1    3    3    0    0 -0.20197383398E+02 -0.13878076817E+01 -0.24734151093E+01  0.20395540900E+02  0.00000000000E+00 0. -1.
         11    1    3    3    0    0  0.43471912240E+02  0.46770052870E+02  0.10801961644E+03  0.12548100468E+03  0.00000000000E+00 0.  1.
        -11    1    4    4    0    0  0.27705321353E+01  0.30727550333E+02 -0.50415627197E+02  0.59106629607E+02  0.00000000000E+00 0.  1.
         11    1    4    4    0    0 -0.40719307852E+01 -0.71651092653E+02 -0.10473659443E+03  0.12696540439E+03  0.00000000000E+00 0. -1.
         21    1    1    2  502  501 -0.21973130192E+02 -0.44587028686E+01 -0.93715074417E+02  0.96359813485E+02  0.00000000000E+00 0. -1.
<scales pt_clust_5="13000.00000" pt_clust_6="13000.00000" pt_clust_7="13000.00000" pt_clust_8="13000.00000" pt_clust_9="22.42094"></scales>
<clustering>
<clus scale="   22.421">  2  9  1 -1</clus>
<clus scale="   86.826">  5  6 -1 -1</clus>
<clus scale="   94.203">  7  8 -1 -1</clus>
<clus scale="   99.973">  1  5  2 -1</clus>
<clus scale="   22.421">  2  5  1 -1</clus>
</clustering>
</event>
<event>
 9    1  0.1234700E-005  0.1124337E+03  0.7546771E-02  0.1257339E+00
         -2   -1    0    0    0  501 -0.00000000000E+00  0.00000000000E+00  0.85815234013E+02  0.85815234013E+02  0.00000000000E+00 0.  1.
          2   -1    0    0  502    0  0.00000000000E+00 -0.00000000000E+00 -0.28160975872E+03  0.28160975872E+03  0.00000000000E+00 0. -1.
         23    2    1    2    0    0  0.13102115944E+02  0.41456461443E+02 -0.41591768469E+02  0.10860288567E+03  0.90412432407E+02 0.  0.
         23    2    1    2    0    0 -0.27688160723E+02 -0.77011335855E+02 -0.28769188590E+02  0.12763338160E+03  0.93622827296E+02 0.  0.
        -11    1    3    3    0    0 -0.33965671098E+02  0.34841654157E+02 -0.55925063915E+01  0.48978401416E+02  0.00000000000E+00 0. -1.
         11    1    3    3    0    0  0.47067787041E+02  0.66148072862E+01 -0.35999262078E+02  0.59624484254E+02  0.00000000000E+00 0.  1.
        -13    1    4    4    0    0  0.23681276636E+02 -0.12643492592E+02  0.18571526130E+02  0.32642952545E+02  0.00000000000E+00 0.  1.
         13    1    4    4    0    0 -0.51369437359E+02 -0.64367843263E+02 -0.47340714720E+02  0.94990429050E+02  0.00000000000E+00 0. -1.
         21    1    1    2  502  501  0.14586044779E+02  0.35554874411E+02 -0.12543356765E+03  0.13118872547E+03  0.00000000000E+00 0. -1.
<scales pt_clust_5="13000.00000" pt_clust_6="13000.00000" pt_clust_7="13000.00000" pt_clust_8="13000.00000" pt_clust_9="38.43048"></scales>
<clustering>
<clus scale="   38.430">  2  9  1 -1</clus>
<clus scale="   90.412">  5  6 -1 -1</clus>
<clus scale="   93.623">  7  8 -1 -1</clus>
<clus scale="  109.775">  1  5  2 -1</clus>
<clus scale="   38.430">  2  5  1 -1</clus>
</clustering>
</event>
<event>
 9    1  0.1234700E-005  0.1981041E+03  0.7546771E-02  0.1179907E+00
          1   -1    0    0  502    0  0.00000000000E+00  0.00000000000E+00  0.74135117919E+03  0.74135117919E+03  0.00000000000E+00 0. -1.
         -1   -1    0    0    0  501 -0.00000000000E+00 -0.00000000000E+00 -0.14017436134E+03  0.14017436134E+03  0.00000000000E+00 0.  1.
         23    2    1    2    0    0  0.44511164594E+02 -0.13883478161E+02 -0.29751531915E+02  0.10678724708E+03  0.91347510899E+02 0.  0.
         23    2    1    2    0    0  0.14074968394E+03  0.60017519159E+01  0.65810440576E+02  0.17997619404E+03  0.90630688938E+02 0.  0.
        -11    1    3    3    0    0  0.50380899122E+02 -0.44224814580E+02 -0.34705705826E+02  0.75488775576E+02  0.00000000000E+00 0.  1.
         11    1    3    3    0    0 -0.58697345279E+01  0.30341336419E+02  0.49541739111E+01  0.31298471500E+02  0.00000000000E+00 0. -1.
        -13    1    4    4    0    0  0.73612200920E+02 -0.34750645020E+01  0.82018618672E+02  0.11026280427E+03  0.00000000000E+00 0. -1.
         13    1    4    4    0    0  0.67137483018E+02  0.94768164180E+01 -0.16208178096E+02  0.69713389765E+02  0.00000000000E+00 0.  1.
         21    1    1    2  502  501 -0.18526084853E+03  0.78817262454E+01  0.56511790919E+03  0.59476209941E+03  0.00000000000E+00 0. -1.
<scales pt_clust_5="13000.00000" pt_clust_6="13000.00000" pt_clust_7="13000.00000" pt_clust_8="13000.00000" pt_clust_9="176.15710"></scales>
<clustering>
<clus scale="   90.631">  7  8 -1 -1</clus>
<clus scale="   91.348">  5  6 -1 -1</clus>
<clus scale="  102.559">  2  5  1 -1</clus>
<clus scale="  176.157">  1  9  2 -1</clus>
<clus scale="  176.157">  1  5  2 -1</clus>
</clustering>
</event>
<event>
 9    1  0.1234700E-005  0.9824833E+02  0.7546771E-02  0.1286037E+00
          1   -1    0    0  502    0  0.00000000000E+00  0.00000000000E+00  0.14390524447E+03  0.14390524447E+03  0.00000000000E+00 0. -1.
         -1   -1    0    0    0  501 -0.00000000000E+00 -0.00000000000E+00 -0.97117672996E+02  0.97117672996E+02  0.00000000000E+00 0.  1.
         23    2    1    2    0    0 -0.27779467110E+01 -0.20806018288E+00 -0.18037808046E+02  0.99496351240E+02  0.97807980830E+02 0.  0.
         23    2    1    2    0    0 -0.24042603831E+00 -0.25879604076E+02  0.40353154222E+02  0.10562995620E+03  0.94124911042E+02 0.  0.
        -11    1    4    4    0    0 -0.17935344864E+02  0.31875155741E+02  0.21133695064E+02  0.42241392212E+02  0.00000000000E+00 0.  1.
         11    1    4    4    0    0  0.17694918826E+02 -0.57754759817E+02  0.19219459159E+02  0.63388563986E+02  0.00000000000E+00 0. -1.
        -13    1    3    3    0    0 -0.46669526289E+02 -0.17315708173E+02 -0.23079480735E+01  0.49831767557E+02  0.00000000000E+00 0. -1.
         13    1    3    3    0    0  0.43891579578E+02  0.17107647990E+02 -0.15729859973E+02  0.49664583683E+02  0.00000000000E+00 0.  1.
         21    1    1    2  502  501  0.30183727493E+01  0.26087664259E+02  0.24472225297E+02  0.35896610029E+02  0.00000000000E+00 0.  1.
<scales pt_clust_5="13000.00000" pt_clust_6="13000.00000" pt_clust_7="13000.00000" pt_clust_8="13000.00000" pt_clust_9="26.26170"></scales>
<clustering>
<clus scale="   26.262">  1  9  2 -1</clus>
<clus scale="   94.125">  5  6 -1 -1</clus>
<clus scale="   94.582">  1  5  2 -1</clus>
<clus scale="   97.808">  7  8 -1 -1</clus>
<clus scale="   26.262">  1  5  2 -1</clus>
</clustering>
</event>
<event>
 9    1  0.1234700E-005  0.1414931E+03  0.7546771E-02  0.1212338E+00
          1   -1    0    0  502    0  0.00000000000E+00  0.00000000000E+00  0.39994548892E+03  0.39994548892E+03  0.00000000000E+00 0. -1.
         -1   -1    0    0    0  501 -0.00000000000E+00 -0.00000000000E+00 -0.70036426570E+02  0.70036426570E+02  0.00000000000E+00 0.  1.
         23    2    1    2    0    0 -0.75059083000E+02  0.75180001821E+02  0.64701503759E+02  0.15268851612E+03  0.88552807704E+02 0.  0.
         23    2    1    2    0    0  0.92585768389E+02 -0.57361348033E+02  0.18969857809E+03  0.23775538796E+03  0.93164506199E+02 0.  0.
        -11    1    4    4    0    0 -0.12510935633E+02 -0.32884485532E+02  0.40976731338E+02  0.54009308552E+02  0.00000000000E+00 0. -1.
         11    1    4    4    0    0  0.10509670402E+03 -0.24476862501E+02  0.14872184676E+03  0.18374607940E+03  0.00000000000E+00 0.  1.
        -13    1    3    3    0    0 -0.42010007520E+02 -0.19382363038E+01  0.53488115226E+02  0.68040987370E+02  0.00000000000E+00 0. -1.
         13    1    3    3    0    0 -0.33049075480E+02  0.77118238125E+02  0.11213388534E+02  0.84647528753E+02  0.00000000000E+00 0.  1.
         21    1    1    2  502  501 -0.17526685388E+02 -0.17818653788E+02  0.75508980495E+02  0.79538011409E+02  0.00000000000E+00 0.  1.
<scales pt_clust_5="13000.00000" pt_clust_6="13000.00000" pt_clust_7="13000.00000" pt_clust_8="13000.00000" pt_clust_9="24.99378"></scales>
<clustering>
<clus scale="   24.994">  1  9  2 -1</clus>
<clus scale="   88.553">  7  8 -1 -1</clus>
<clus scale="   93.165">  5  6 -1 -1</clus>
<clus scale="  138.500">  2  7  1 -1</clus>
<clus scale="   24.994">  1  5  2 -1</clus>
</clustering>
</event>
<event>
 9    1  0.1234700E-005  0.1536668E+03  0.7546771E-02  0.1197514E+00
          1   -1    0    0  502    0  0.00000000000E+00  0.00000000000E+00  0.47508197911E+03  0.47508197911E+03  0.00000000000E+00 0. -1.
         -1   -1    0    0    0  501 -0.00000000000E+00 -0.00000000000E+00 -0.15378440471E+03  0.15378440471E+03  0.00000000000E+00 0.  1.
         23    2    1    2    0    0 -0.18711972896E+02  0.11418231887E+03 -0.84805431967E+02  0.17335366187E+03  0.97323126339E+02 0.  0.
         23    2    1    2    0    0  0.10238651480E+02 -0.14091337013E+03  0.27830402085E+03  0.32467340455E+03  0.89433124376E+02 0.  0.
        -11    1    4    4    0    0  0.17187337467E+02 -0.91938098747E+02  0.25168088814E+03  0.26849820861E+03  0.00000000000E+00 0. -1.
         11    1    4    4    0    0 -0.69486859872E+01 -0.48975271381E+02  0.26623132708E+02  0.56175195940E+02  0.00000000000E+00 0.  1.
        -13    1    3    3    0    0  0.31416576018E+01  0.12613126648E+03 -0.73304576035E+02  0.14591959177E+03  0.00000000000E+00 0.  1.
         13    1    3    3    0    0 -0.21853630498E+02 -0.11948947608E+02 -0.11500855932E+02  0.27434070096E+02  0.00000000000E+00 0. -1.
         21    1    1    2  502  501  0.84733214163E+01  0.26731051259E+02  0.12779898553E+03  0.13083931741E+03  0.00000000000E+00 0.  1.
<scales pt_clust_5="13000.00000" pt_clust_6="13000.00000" pt_clust_7="13000.00000" pt_clust_8="13000.00000" pt_clust_9="28.04187"></scales>
<clustering>
<clus scale="   28.042">  1  9  2 -1</clus>
<clus scale="   89.433">  5  6 -1 -1</clus>
<clus scale="   97.323">  7  8 -1 -1</clus>
<clus scale="  148.795">  1  5  2 -1</clus>
<clus scale="   28.042">  1  5  2 -1</clus>
</clustering>
</event>
<event>
 9    1  0.1234700E-005  0.9193319E+02  0.7546771E-02  0.1298925E+00
         -1   -1    0    0    0  501 -0.00000000000E+00  0.00000000000E+00  0.67920303161E+02  0.67920303161E+02  0.00000000000E+00 0.  1.
          1   -1    0    0  502    0  0.00000000000E+00 -0.00000000000E+00 -0.24576553878E+03  0.24576553878E+03  0.00000000000E+00 0. -1.
         23    2    1    2    0    0 -0.22943490264E+01  0.49637558285E+01 -0.94895401229E+00  0.89847281638E+02  0.89675696790E+02 0.  0.
         23    2    1    2    0    0  0.26374928834E+00 -0.41796542279E+02 -0.12294220655E+03  0.15847940097E+03  0.90851053219E+02 0.  0.
        -13    1    3    3    0    0  0.21985170501E+02  0.84959841723E+01  0.37467482856E+02  0.44264452336E+02  0.00000000000E+00 0.  1.
         13    1    3    3    0    0 -0.24279519527E+02 -0.35322283438E+01 -0.38416436869E+02  0.45582829303E+02  0.00000000000E+00 0. -1.
        -13    1    4    4    0    0  0.30313128580E+02 -0.46109816348E+02 -0.34757371176E+02  0.65215609934E+02  0.00000000000E+00 0.  1.
         13    1    4    4    0    0 -0.30049379292E+02  0.43132740695E+01 -0.88184835370E+02  0.93263791035E+02  0.00000000000E+00 0. -1.
         21    1    1    2  502  501  0.20305997381E+01  0.36832786450E+02 -0.53954075058E+02  0.65359159330E+02  0.00000000000E+00 0. -1.
<scales pt_clust_5="13000.00000" pt_clust_6="13000.00000" pt_clust_7="13000.00000" pt_clust_8="13000.00000" pt_clust_9="36.88872"></scales>
<clustering>
<clus scale="   36.889">  2  9  1 -1</clus>
<clus scale="   89.676">  5  6 -1 -1</clus>
<clus scale="   90.772">  1  5  2 -1</clus>
<clus scale="   90.851">  7  8 -1 -1</clus>
<clus scale="   36.889">  2  5  1 -1</clus>
</clustering>
</event>
<event>
 9    1  0.1234700E-005  0.1822184E+03  0.7546771E-02  0.1165709E+00
         -1   -1    0    0    0  501 -0.00000000000E+00  0.00000000000E+00  0.89539339454E+03  0.89539339454E+03  0.00000000000E+00 0.  1.
          1   -1    0    0  502    0  0.00000000000E+00 -0.00000000000E+00 -0.66142107780E+02  0.66142107780E+02  0.00000000000E+00 0. -1.
         23    2    1    2    0    0  0.23995508012E+02  0.16200308924E+03  0.70301731520E+03  0.72760780566E+03  0.91427501666E+02 0.  0.
         23    2    1    2    0    0 -0.19121030056E+02 -0.13181216220E+03  0.84435105502E+02  0.18213582650E+03  0.91126902498E+02 0.  0.
        -11    1    4    4    0    0 -0.34526920640E+02 -0.23680420197E+02  0.54800076074E+02  0.68963170514E+02  0.00000000000E+00 0.  1.
         11    1    4    4    0    0  0.15405890584E+02 -0.10813174201E+03  0.29635029428E+02  0.11317265599E+03  0.00000000000E+00 0. -1.
        -13    1    3    3    0    0  0.40513417651E+02  0.12872897689E+03  0.64311204722E+03  0.65711916102E+03  0.00000000000E+00 0.  1.
         13    1    3    3    0    0 -0.16517909639E+02  0.33274112350E+02  0.59905267977E+02  0.70488644638E+02  0.00000000000E+00 0. -1.
         21    1    1    2  502  501 -0.48744779565E+01 -0.30190927037E+02  0.41798866063E+02  0.51791870162E+02  0.00000000000E+00 0.  1.
<scales pt_clust_5="13000.00000" pt_clust_6="13000.00000" pt_clust_7="13000.00000" pt_clust_8="13000.00000" pt_clust_9="30.58190"></scales>
<clustering>
<clus scale="   30.582">  2  9  1 -1</clus>
<clus scale="   91.127">  5  6 -1 -1</clus>
<clus scale="   91.428">  7  8 -1 -1</clus>
<clus scale="  182.068">  2  5  1 -1</clus>
<clus scale="   30.582">  2  5  1 -1</clus>
</clustering>
</event>
<event>
 9    1  0.1234700E-005  0.9955102E+02  0.7546771E-02  0.1281775E+00
          3   -1    0    0  502    0  0.00000000000E+00  0.00000000000E+00  0.13884004798E+03  0.13884004798E+03  0.00000000000E+00 0. -1.
         -3   -1    0    0    0  501 -0.00000000000E+00 -0.00000000000E+00 -0.94117080507E+02  0.94117080507E+02  0.00000000000E+00 0.  1.
         23    2    1    2    0    0 -0.16456351350E+02  0.21674405135E+02  0.73322395392E+01  0.10152844301E+03  0.97538052402E+02 0.  0.
         23    2    1    2    0    0 -0.29357357577E+01 -0.15732454192E+02  0.11452868934E+02  0.98502520304E+02  0.96516577022E+02 0.  0.
        -13    1    4    4    0    0  0.23377631659E+02 -0.16134568978E+02 -0.35022617562E+02  0.45093477566E+02  0.00000000000E+00 0.  1.
         13    1    4    4    0    0 -0.26313367416E+02  0.40211478624E+00  0.46475486496E+02  0.53409042738E+02  0.00000000000E+00 0. -1.
        -13    1    3    3    0    0  0.37245992372E+02  0.28755927636E+02  0.48523520325E+01  0.47304467466E+02  0.00000000000E+00 0.  1.
         13    1    3    3    0    0 -0.53702343722E+02 -0.70815225005E+01  0.24798875067E+01  0.54223975548E+02  0.00000000000E+00 0. -1.
         21    1    1    2  502  501  0.19392087107E+02 -0.59419509433E+01  0.25937859003E+02  0.32926165173E+02  0.00000000000E+00 0. -1.
<scales pt_clust_5="13000.00000" pt_clust_6="13000.00000" pt_clust_7="13000.00000" pt_clust_8="13000.00000" pt_clust_9="20.28201"></scales>
<clustering>
<clus scale="   20.282">  1  9  2 -1</clus>
<clus scale="   96.517">  5  6 -1 -1</clus>
<clus scale="   97.538">  7  8 -1 -1</clus>
<clus scale="   98.550">  1  5  2 -1</clus>
<clus scale="   20.282">  1  5  2 -1</clus>
</clustering>
</event>
<event>
 9    1  0.1234700E-005  0.9917485E+02  0.7546771E-02  0.1282264E+00
         -2   -1    0    0    0  501 -0.00000000000E+00  0.00000000000E+00  0.17386176790E+03  0.17386176790E+03  0.00000000000E+00 0.  1.
          2   -1    0    0  502    0  0.00000000000E+00 -0.00000000000E+00 -0.32913231451E+03  0.32913231451E+03  0.00000000000E+00 0. -1.
         23    2    1    2    0    0  0.10878058286E+01 -0.24772185330E+02  0.13811022482E+03  0.16981330742E+03  0.95641417217E+02 0.  0.
         23    2    1    2    0    0  0.45449687418E+02  0.20928516116E+02 -0.17365079588E+03  0.20466704375E+03  0.96074570073E+02 0.  0.
        -11    1    3    3    0    0  0.30697208112E+02 -0.50537495904E+02  0.75198544666E+02  0.95661790690E+02  0.00000000000E+00 0.  1.
         11    1    3    3    0    0 -0.29609402284E+02  0.25765310574E+02  0.62911680157E+02  0.74151516726E+02  0.00000000000E+00 0. -1.
        -11    1    4    4    0    0  0.74903949893E+02  0.22586287021E+02 -0.13518173692E+03  0.15618848891E+03  0.00000000000E+00 0.  1.
         11    1    4    4    0    0 -0.29454262475E+02 -0.16577709047E+01 -0.38469058960E+02  0.48478554842E+02  0.00000000000E+00 0. -1.
         21    1    1    2  502  501 -0.46537493247E+02  0.38436692138E+01 -0.11972997555E+03  0.12851373124E+03  0.00000000000E+00 0. -1.
<scales pt_clust_5="13000.00000" pt_clust_6="13000.00000" pt_clust_7="13000.00000" pt_clust_8="13000.00000" pt_clust_9="46.69595"></scales>
<clustering>
<clus scale="   46.696">  2  9  1 -1</clus>
<clus scale="   95.641">  5  6 -1 -1</clus>
<clus scale="   96.075">  7  8 -1 -1</clus>
<clus scale="   98.755">  1  5  2 -1</clus>
<clus scale="   46.696">  2  5  1 -1</clus>
</clustering>
</event>
<event>
 9    1  0.1234700E-005  0.1430393E+03  0.7546771E-02  0.1209653E+00
         -1   -1    0    0    0  501 -0.00000000000E+00  0.00000000000E+00  0.16120860623E+03  0.16120860623E+03  0.00000000000E+00 0.  1.
          1   -1    0    0  502    0  0.00000000000E+00 -0.00000000000E+00 -0.17754537425E+03  0.17754537425E+03  0.00000000000E+00 0. -1.
         23    2    1    2    0    0 -0.11564337491E+03 -0.27861346124E+01 -0.24525641258E+02  0.14904981963E+03  0.90736921636E+02 0.  0.
         23    2    1    2    0    0  0.10153182574E+03  0.24797731943E+02 -0.30684931917E+02  0.14285526583E+03  0.92425228061E+02 0.  0.
        -11    1    3    3    0    0 -0.25302144820E+02 -0.38699522003E+02  0.71831178996E+01  0.46791545374E+02  0.00000000000E+00 0.  1.
         11    1    3    3    0    0 -0.90341230086E+02  0.35913387390E+02 -0.31708759158E+02  0.10225827426E+03  0.00000000000E+00 0. -1.
        -11    1    4    4    0    0  0.48172375530E+02  0.50779660387E+02 -0.43130444600E+02  0.82215490782E+02  0.00000000000E+00 0. -1.
         11    1    4    4    0    0  0.53359450209E+02 -0.25981928444E+02  0.12445512683E+02  0.60639775051E+02  0.00000000000E+00 0.  1.
         21    1    1    2  502  501  0.14111549167E+02 -0.22011597331E+02  0.38873805155E+02  0.46848895016E+02  0.00000000000E+00 0.  1.
<scales pt_clust_5="13000.00000" pt_clust_6="13000.00000" pt_clust_7="13000.00000" pt_clust_8="13000.00000" pt_clust_9="26.14663"></scales>
<clustering>
<clus scale="   26.147">  1  9  2 -1</clus>
<clus scale="   90.737">  5  6 -1 -1</clus>
<clus scale="   92.425">  7  8 -1 -1</clus>
<clus scale="  141.954">  1  5  2 -1</clus>
<clus scale="  143.039">  2  5  1 -1</clus>
</clustering>
</event>
<event>
 9    1  0.1284671E-005  0.1202547E+03  0.7546771E-02  0.1243904E+00
         -3   -1    0    0    0  501 -0.00000000000E+00  0.00000000000E+00  0.21754910267E+03  0.21754910267E+03  0.00000000000E+00 0.  1.
          3   -1    0    0  502    0  0.00000000000E+00 -0.00000000000E+00 -0.40852249145E+03  0.40852249145E+03  0.00000000000E+00 0. -1.
         23    2    1    2    0    0 -0.51635634752E+01 -0.79800944979E+02  0.17745376978E+03  0.21472454982E+03  0.90674906546E+02 0.  0.
         23    2    1    2    0    0  0.42046056640E+02  0.11724752096E+02 -0.18509762980E+03  0.21233849560E+03  0.94451910860E+02 0.  0.
        -11    1    4    4    0    0 -0.18196251095E+02 -0.23397352752E+02 -0.29447173852E+02  0.41781284297E+02  0.00000000000E+00 0.  1.
         11    1    4    4    0    0  0.60242307734E+02  0.35122104848E+02 -0.15565045595E+03  0.17055721131E+03  0.00000000000E+00 0. -1.
        -11    1    3    3    0    0 -0.43291134024E+02 -0.63695384602E+02  0.93592762009E+02  0.12120573173E+03  0.00000000000E+00 0.  1.
         11    1    3    3    0    0  0.38127570549E+02 -0.16105560377E+02  0.83861007771E+02  0.93518818082E+02  0.00000000000E+00 0. -1.
         21    1    1    2  502  501 -0.36882493165E+02  0.68076192883E+02 -0.18332952876E+03  0.19900854870E+03  0.00000000000E+00 0. -1.
<scales pt_clust_5="13000.00000" pt_clust_6="13000.00000" pt_clust_7="13000.00000" pt_clust_8="13000.00000" pt_clust_9="77.42536"></scales>
<clustering>
<clus scale="   77.425">  2  9  1 -1</clus>
<clus scale="   90.675">  7  8 -1 -1</clus>
<clus scale="   94.452">  5  6 -1 -1</clus>
<clus scale="  117.311">  1  7  2 -1</clus>
<clus scale="   77.425">  2  5  1 -1</clus>
</clustering>
</event>
<event>
 9    1  0.1234700E-005  0.9203799E+02  0.7546771E-02  0.1298012E+00
         -3   -1    0    0    0  501 -0.00000000000E+00  0.00000000000E+00  0.90146813401E+02  0.90146813401E+02  0.00000000000E+00 0.  1.
          3   -1    0    0  502    0  0.00000000000E+00 -0.00000000000E+00 -0.13977911164E+03  0.13977911164E+03  0.00000000000E+00 0. -1.
         23    2    1    2    0    0 -0.53836695167E+01 -0.48364155756E+01  0.17067263762E+01  0.91474963205E+02  0.91172260943E+02 0.  0.
         23    2    1    2    0    0 -0.21960491943E+02  0.20604731199E+02 -0.30838253398E+02  0.10081288851E+03  0.91134090559E+02 0.  0.
        -13    1    3    3    0    0 -0.26989466448E+02  0.35823535036E+02  0.59067872634E+01  0.45239883923E+02  0.00000000000E+00 0.  1.
         13    1    3    3    0    0  0.21605796931E+02 -0.40659950612E+02 -0.42000608872E+01  0.46235079282E+02  0.00000000000E+00 0. -1.
        -13    1    4    4    0    0 -0.24293756670E+02 -0.26739334656E+02 -0.38500052802E+02  0.52796142821E+02  0.00000000000E+00 0. -1.
         13    1    4    4    0    0  0.23332647277E+01  0.47344065856E+02  0.76617994032E+01  0.48016745685E+02  0.00000000000E+00 0.  1.
         21    1    1    2  502  501  0.27344161459E+02 -0.15768315624E+02 -0.20500771217E+02  0.37638073330E+02  0.00000000000E+00 0.  1.
<scales pt_clust_5="13000.00000" pt_clust_6="13000.00000" pt_clust_7="13000.00000" pt_clust_8="13000.00000" pt_clust_9="31.56490"></scales>
<clustering>
<clus scale="   31.565">  2  9  1 -1</clus>
<clus scale="   91.134">  7  8 -1 -1</clus>
<clus scale="   91.172">  5  6 -1 -1</clus>
<clus scale="   92.000">  2  7  1 -1</clus>
<clus scale="   31.565">  2  5  1 -1</clus>
</clustering>
</event>
<event>
 9    1  0.1234700E-005  0.1635628E+03  0.7546771E-02  0.1185261E+00
          1   -1    0    0  502    0  0.00000000000E+00  0.00000000000E+00  0.72632939532E+03  0.72632939532E+03  0.00000000000E+00 0. -1.
         -1   -1    0    0    0  501 -0.00000000000E+00 -0.00000000000E+00 -0.49427612624E+02  0.49427612624E+02  0.00000000000E+00 0.  1.
         23    2    1    2    0    0  0.13604822447E+03 -0.38788512200E+02  0.19860746838E+03  0.25963468707E+03  0.89171610791E+02 0.  0.
         23    2    1    2    0    0 -0.11947279281E+03  0.57036409204E+02  0.45233957502E+03  0.48032596391E+03  0.92601513392E+02 0.  0.
        -11    1    3    3    0    0  0.38418735121E+02  0.24400488500E+02  0.28929544045E+02  0.53928671094E+02  0.00000000000E+00 0. -1.
         11    1    3    3    0    0  0.97629489354E+02 -0.63189000700E+02  0.16967792434E+03  0.20570601597E+03  0.00000000000E+00 0.  1.
        -11    1    4    4    0    0 -0.83959121710E+01  0.47952581221E+02  0.10969141078E+03  0.12000894544E+03  0.00000000000E+00 0.  1.
         11    1    4    4    0    0 -0.11107688064E+03  0.90838279835E+01  0.34264816424E+03  0.36031701847E+03  0.00000000000E+00 0. -1.
         21    1    1    2  502  501 -0.16575431664E+02 -0.18247897004E+02  0.25954739293E+02  0.35796356961E+02  0.00000000000E+00 0.  1.
<scales pt_clust_5="13000.00000" pt_clust_6="13000.00000" pt_clust_7="13000.00000" pt_clust_8="13000.00000" pt_clust_9="24.65219"></scales>
<clustering>
<clus scale="   24.652">  2  9  1 -1</clus>
<clus scale="   89.172">  5  6 -1 -1</clus>
<clus scale="   92.602">  7  8 -1 -1</clus>
<clus scale="  161.646">  2  5  1 -1</clus>
<clus scale="  163.563">  1  5  2 -1</clus>
</clustering>
</event>
<event>
 9    1  0.1234700E-005  0.2267462E+03  0.7546771E-02  0.1129442E+00
          1   -1    0    0  502    0  0.00000000000E+00  0.00000000000E+00  0.13102981682E+03  0.13102981682E+03  0.00000000000E+00 0. -1.
         -1   -1    0    0    0  501 -0.00000000000E+00 -0.00000000000E+00 -0.11658229278E+04  0.11658229278E+04  0.00000000000E+00 0.  1.
         23    2    1    2    0    0  0.16164580175E+03 -0.46743770866E+02 -0.42316965765E+03  0.46405193621E+03  0.89203671480E+02 0.  0.
         23    2    1    2    0    0 -0.23374865009E+03  0.10147908921E+03 -0.67127915394E+03  0.72438688670E+03  0.95834347349E+02 0.  0.
        -13    1    3    3    0    0  0.53309509984E+02 -0.36266997905E+02 -0.26026426613E+03  0.26813184671E+03  0.00000000000E+00 0.  1.
         13    1    3    3    0    0  0.10833629177E+03 -0.10476772961E+02 -0.16290539151E+03  0.19592008950E+03  0.00000000000E+00 0. -1.
        -13    1    4    4    0    0 -0.23252647295E+02 -0.16486267099E+02 -0.10590146994E+03  0.10967043332E+03  0.00000000000E+00 0.  1.
         13    1    4    4    0    0 -0.21049600280E+03  0.11796535631E+03 -0.56537768400E+03  0.61471645338E+03  0.00000000000E+00 0. -1.
         21    1    1    2  502  501  0.72102848340E+02 -0.54735318347E+02  0.59655700585E+02  0.10841392173E+03  0.00000000000E+00 0.  1.
<scales pt_clust_5="13000.00000" pt_clust_6="13000.00000" pt_clust_7="13000.00000" pt_clust_8="13000.00000" pt_clust_9="90.52500"></scales>
<clustering>
<clus scale="   89.204">  5  6 -1 -1</clus>
<clus scale="   90.525">  1  9  2 -1</clus>
<clus scale="   95.834">  7  8 -1 -1</clus>
<clus scale="  224.024">  2  5  1 -1</clus>
<clus scale="   90.525">  1  5  2 -1</clus>
</clustering>
</event>
<event>
 9    1  0.1234700E-005  0.9644090E+02  0.7546771E-02  0.1289138E+00
          2   -1    0    0  502    0  0.00000000000E+00  0.00000000000E+00  0.15608177507E+03  0.15608177507E+03  0.00000000000E+00 0. -1.
         -2   -1    0    0    0  501 -0.00000000000E+00 -0.00000000000E+00 -0.18719906634E+03  0.18719906634E+03  0.00000000000E+00 0.  1.
         23    2    1    2    0    0  0.22434621276E+02 -0.54497927024E+02 -0.79650512617E+02  0.13637162675E+03  0.93699947382E+02 0.  0.
         23    2    1    2    0    0  0.13970432350E+02 -0.24079126661E+02 -0.18438613481E+02  0.97433610276E+02  0.91533319745E+02 0.  0.
        -11    1    4    4    0    0  0.12225620811E+02 -0.45670432452E+02 -0.43543516098E+02  0.64275127372E+02  0.00000000000E+00 0.  1.
         11    1    4    4    0    0  0.17448115388E+01  0.21591305791E+02  0.25104902617E+02  0.33158482904E+02  0.00000000000E+00 0. -1.
        -13    1    3    3    0    0  0.40578270848E+02 -0.63189876824E+02 -0.26657044041E+02  0.79687857263E+02  0.00000000000E+00 0.  1.
         13    1    3    3    0    0 -0.18143649572E+02  0.86919498001E+01 -0.52993468576E+02  0.56683769483E+02  0.00000000000E+00 0. -1.
         21    1    1    2  502  501 -0.36405053626E+02  0.78577053686E+02  0.66971834832E+02  0.10947560439E+03  0.00000000000E+00 0. -1.
<scales pt_clust_5="13000.00000" pt_clust_6="13000.00000" pt_clust_7="13000.00000" pt_clust_8="13000.00000" pt_clust_9="86.60070"></scales>
<clustering>
<clus scale="   86.601">  1  9  2 -1</clus>
<clus scale="   91.533">  5  6 -1 -1</clus>
<clus scale="   93.700">  7  8 -1 -1</clus>
<clus scale="   94.337">  1  5  2 -1</clus>
<clus scale="   86.601">  1  5  2 -1</clus>
</clustering>
</event>
<event>
 9    1  0.1234700E-005  0.1013737E+03  0.7546771E-02  0.1278603E+00
          1   -1    0    0  502    0  0.00000000000E+00  0.00000000000E+00  0.22745675232E+03  0.22745675232E+03  0.00000000000E+00 0. -1.
         -1   -1    0    0    0  501 -0.00000000000E+00 -0.00000000000E+00 -0.86305691280E+02  0.86305691280E+02  0.00000000000E+00 0.  1.
         23    2    1    2    0    0 -0.10429824932E+02 -0.34300219741E+02 -0.21618022044E+02  0.10067080356E+03  0.91553183941E+02 0.  0.
         23    2    1    2    0    0 -0.97420358431E+01  0.47924122437E+02  0.99640114337E+02  0.14543233627E+03  0.93972247361E+02 0.  0.
        -11    1    3    3    0    0 -0.41068557777E+02  0.11547915276E+02 -0.14561121876E+02  0.45077788936E+02  0.00000000000E+00 0.  1.
         11    1    3    3    0    0  0.30638732844E+02 -0.45848135017E+02 -0.70569001672E+01  0.55593014623E+02  0.00000000000E+00 0. -1.
        -13    1    4    4    0    0  0.20530985334E+02  0.25460860793E+02 -0.60129694511E+01  0.33255564838E+02  0.00000000000E+00 0. -1.
         13    1    4    4    0    0 -0.30273021177E+02  0.22463261644E+02  0.10565308379E+03  0.11217677143E+03  0.00000000000E+00 0.  1.
         21    1    1    2  502  501  0.20171860775E+02 -0.13623902696E+02  0.63128968750E+02  0.67659303774E+02  0.00000000000E+00 0. -1.
<scales pt_clust_5="13000.00000" pt_clust_6="13000.00000" pt_clust_7="13000.00000" pt_clust_8="13000.00000" pt_clust_9="24.34162"></scales>
<clustering>
<clus scale="   24.342">  1  9  2 -1</clus>
<clus scale="   91.553">  5  6 -1 -1</clus>
<clus scale="   93.972">  7  8 -1 -1</clus>
<clus scale="   99.135">  2  5  1 -1</clus>
<clus scale="   24.342">  1  5  2 -1</clus>
</clustering>
</event>
<event>
 9    1  0.1615495E-005  0.9899564E+02  0.7546771E-02  0.1283319E+00
         -1   -1    0    0    0  501 -0.00000000000E+00  0.00000000000E+00  0.86712131504E+02  0.86712131504E+02  0.00000000000E+00 0.  1.
          1   -1    0    0  502    0  0.00000000000E+00 -0.00000000000E+00 -0.21657080647E+03  0.21657080647E+03  0.00000000000E+00 0. -1.
         23    2    1    2    0    0  0.35150249474E+02  0.72669650039E+01  0.25790123263E+02  0.10435182752E+03  0.94529490799E+02 0.  0.
         23    2    1    2    0    0 -0.65456601673E+01  0.22386003782E+01 -0.12622008540E+03  0.15680478328E+03  0.92781318705E+02 0.  0.
        -11    1    4    4    0    0  0.40723355875E+02 -0.35487631957E+01 -0.34631945301E+02  0.53575713427E+02  0.00000000000E+00 0.  1.
         11    1    4    4    0    0 -0.47269016042E+02  0.57873635739E+01 -0.91588140102E+02  0.10322906985E+03  0.00000000000E+00 0. -1.
        -11    1    3    3    0    0  0.64643950682E+02 -0.32113335832E+01  0.32371601506E+02  0.72367628172E+02  0.00000000000E+00 0.  1.
         11    1    3    3    0    0 -0.29493701208E+02  0.10478298587E+02 -0.65814782434E+01  0.31984199350E+02  0.00000000000E+00 0. -1.
         21    1    1    2  502  501 -0.28604589307E+02 -0.95055653822E+01 -0.29428712824E+02  0.42126327173E+02  0.00000000000E+00 0. -1.
<scales pt_clust_5="13000.00000" pt_clust_6="13000.00000" pt_clust_7="13000.00000" pt_clust_8="13000.00000" pt_clust_9="30.14263"></scales>
<clustering>
<clus scale="   30.143">  2  9  1 -1</clus>
<clus scale="   92.781">  5  6 -1 -1</clus>
<clus scale="   94.529">  7  8 -1 -1</clus>
<clus scale="   97.328">  2  5  1 -1</clus>
<clus scale="   30.143">  2  5  1 -1</clus>
</clustering>
</event>
<event>
 9    1  0.1234700E-005  0.1489176E+03  0.7546771E-02  0.1205397E+00
         -2   -1    0    0    0  501 -0.00000000000E+00  0.00000000000E+00  0.11835470829E+03  0.11835470829E+03  0.00000000000E+00 0.  1.
          2   -1    0    0  502    0  0.00000000000E+00 -0.00000000000E+00 -0.41607815884E+03  0.41607815884E+03  0.00000000000E+00 0. -1.
         23    2    1    2    0    0 -0.85976861277E+02  0.47519663716E+02  0.41119881729E+02  0.15255326730E+03  0.10923147704E+03 0.  0.
         23    2    1    2    0    0  0.10187688831E+03 -0.61835269863E+02 -0.31679554437E+03  0.35115741906E+03  0.93539377061E+02 0.  0.
        -11    1    3    3    0    0 -0.27481060874E+02  0.30929615791E+02 -0.35654788527E+02  0.54617888870E+02  0.00000000000E+00 0. -1.
         11    1    3    3    0    0 -0.58495800403E+02  0.16590047926E+02  0.76774670256E+02  0.97935378428E+02  0.00000000000E+00 0.  1.
        -11    1    4    4    0    0 -0.12738177217E+02 -0.21320330806E+02 -0.25905255486E+02  0.35887322640E+02  0.00000000000E+00 0.  1.
         11    1    4    4    0    0  0.11461506553E+03 -0.40514939057E+02 -0.29089028888E+03  0.31527009642E+03  0.00000000000E+00 0. -1.
         21    1    1    2  502  501 -0.15900027034E+02  0.14315606147E+02 -0.22047787915E+02  0.30722180765E+02  0.00000000000E+00 0.  1.
<scales pt_clust_5="13000.00000" pt_clust_6="13000.00000" pt_clust_7="13000.00000" pt_clust_8="13000.00000" pt_clust_9="21.39503"></scales>
<clustering>
<clus scale="   21.395">  2  9  1 -1</clus>
<clus scale="   93.539">  7  8 -1 -1</clus>
<clus scale="  109.231">  5  6 -1 -1</clus>
<clus scale="  137.821">  2  7  1 -1</clus>
<clus scale="   21.395">  2  5  1 -1</clus>
</clustering>
</event>
<event>
 9    1  0.1234700E-005  0.1409247E+03  0.7546771E-02  0.1212843E+00
          3   -1    0    0  502    0  0.00000000000E+00  0.00000000000E+00  0.56861615884E+03  0.56861615884E+03  0.00000000000E+00 0. -1.
         -3   -1    0    0    0  501 -0.00000000000E+00 -0.00000000000E+00 -0.10599358196E+03  0.10599358196E+03  0.00000000000E+00 0.  1.
         23    2    1    2    0    0  0.93989129172E+02 -0.25468120570E+02 -0.10772765314E+02  0.13390997699E+03  0.91286624959E+02 0.  0.
         23    2    1    2    0    0 -0.16400170811E+03  0.65016248393E+01  0.30445392897E+03  0.35684468428E+03  0.87790104473E+02 0.  0.
        -11    1    4    4    0    0 -0.12486519252E+03  0.24990376055E+02  0.15162714193E+03  0.19800662961E+03  0.00000000000E+00 0.  1.
         11    1    4    4    0    0 -0.39136515586E+02 -0.18488751215E+02  0.15282678704E+03  0.15883805467E+03  0.00000000000E+00 0. -1.
        -11    1    3    3    0    0  0.47592288228E+02 -0.52260307493E+02 -0.30274478956E+02  0.76894146163E+02  0.00000000000E+00 0.  1.
         11    1    3    3    0    0  0.46396840943E+02  0.26792186923E+02  0.19501713642E+02  0.57015830825E+02  0.00000000000E+00 0. -1.
         21    1    1    2  502  501  0.70012578936E+02  0.18966495731E+02  0.16894141323E+03  0.18385507954E+03  0.00000000000E+00 0. -1.
<scales pt_clust_5="13000.00000" pt_clust_6="13000.00000" pt_clust_7="13000.00000" pt_clust_8="13000.00000" pt_clust_9="72.53612"></scales>
<clustering>
<clus scale="   72.536">  1  9  2 -1</clus>
<clus scale="   87.790">  5  6 -1 -1</clus>
<clus scale="   91.287">  7  8 -1 -1</clus>
<clus scale="  138.685">  1  5  2 -1</clus>
<clus scale="   72.536">  1  5  2 -1</clus>
</clustering>
</event>
<event>
 9    1  0.1538177E-005  0.1725107E+03  0.7546771E-02  0.1175381E+00
          2   -1    0    0  502    0  0.00000000000E+00  0.00000000000E+00  0.13238900000E+03  0.13238900000E+03  0.00000000000E+00 0. -1.
         -2   -1    0    0    0  501 -0.00000000000E+00 -0.00000000000E+00 -0.72216170850E+03  0.72216170850E+03  0.00000000000E+00 0.  1.
         23    2    1    2    0    0 -0.14381404192E+03  0.50930360798E+02 -0.63072555196E+03  0.65532857854E+03  0.91457332412E+02 0.  0.
         23    2    1    2    0    0  0.93437944142E+02 -0.26176701042E+02  0.51068344595E+02  0.14218864628E+03  0.90519424588E+02 0.  0.
        -11    1    4    4    0    0 -0.18812990864E+01  0.22449114464E+02 -0.22410365975E+01  0.22638998907E+02  0.00000000000E+00 0.  1.
         11    1    4    4    0    0  0.95319243228E+02 -0.48625815506E+02  0.53309381193E+02  0.11954964737E+03  0.00000000000E+00 0. -1.
        -13    1    3    3    0    0 -0.74489057738E+02  0.70414978161E+02 -0.43088796824E+03  0.44291232772E+03  0.00000000000E+00 0.  1.
         13    1    3    3    0    0 -0.69324984181E+02 -0.19484617363E+02 -0.19983758372E+03  0.21241625082E+03  0.00000000000E+00 0. -1.
         21    1    1    2  502  501  0.50376097776E+02 -0.24753659756E+02 -0.10115501142E+02  0.57033483690E+02  0.00000000000E+00 0. -1.
<scales pt_clust_5="13000.00000" pt_clust_6="13000.00000" pt_clust_7="13000.00000" pt_clust_8="13000.00000" pt_clust_9="56.12927"></scales>
<clustering>
<clus scale="   56.129">  1  9  2 -1</clus>
<clus scale="   90.519">  5  6 -1 -1</clus>
<clus scale="   91.457">  7  8 -1 -1</clus>
<clus scale="  172.015">  1  5  2 -1</clus>
<clus scale="   56.129">  1  5  2 -1</clus>
</clustering>
</event>
<event>
 9    1  0.2129973E-005  0.1280628E+03  0.7546771E-02  0.1240609E+00
         -2   -1    0    0    0  501 -0.00000000000E+00  0.00000000000E+00  0.87033979827E+02  0.87033979827E+02  0.00000000000E+00 0.  1.
          2   -1    0    0  502    0  0.00000000000E+00 -0.00000000000E+00 -0.50242349404E+03  0.50242349404E+03  0.00000000000E+00 0. -1.
         23    2    1    2    0    0 -0.37522377935E+02 -0.38958086159E+02  0.26367036868E+02  0.13186819578E+03  0.11733856614E+03 0.  0.
         23    2    1    2    0    0  0.27660839020E+02  0.19556547370E+02 -0.33311733395E+03  0.34679149310E+03  0.90275140281E+02 0.  0.
        -13    1    3    3    0    0  0.56398933911E+01 -0.70873756824E+02 -0.20554740230E+01  0.71127510692E+02  0.00000000000E+00 0.  1.
         13    1    3    3    0    0 -0.43162271326E+02  0.31915670664E+02  0.28422510891E+02  0.60740685091E+02  0.00000000000E+00 0. -1.
        -13    1    4    4    0    0  0.62303944549E+01 -0.30976374773E+02 -0.56077558260E+02  0.64366498659E+02  0.00000000000E+00 0.  1.
         13    1    4    4    0    0  0.21430444565E+02  0.50532922143E+02 -0.27703977569E+03  0.28242499444E+03  0.00000000000E+00 0. -1.
         21    1    1    2  502  501  0.98615389148E+01  0.19401538790E+02 -0.10863921713E+03  0.11079778498E+03  0.00000000000E+00 0. -1.
<scales pt_clust_5="13000.00000" pt_clust_6="13000.00000" pt_clust_7="13000.00000" pt_clust_8="13000.00000" pt_clust_9="21.76395"></scales>
<clustering>
<clus scale="   21.764">  2  9  1 -1</clus>
<clus scale="   90.275">  7  8 -1 -1</clus>
<clus scale="  103.833">  2  7  1 -1</clus>
<clus scale="  117.339">  5  6 -1 -1</clus>
<clus scale="   21.764">  2  5  1 -1</clus>
</clustering>
</event>
<event>
 9    1  0.1234700E-005  0.9236163E+02  0.7546771E-02  0.1298313E+00
          2   -1    0    0  502    0  0.00000000000E+00  0.00000000000E+00  0.16865570411E+03  0.16865570411E+03  0.00000000000E+00 0. -1.
         -2   -1    0    0    0  501 -0.00000000000E+00 -0.00000000000E+00 -0.72004219014E+02  0.72004219014E+02  0.00000000000E+00 0.  1.
         23    2    1    2    0    0  0.56867632375E+01 -0.24895678060E+02  0.23965311169E+02  0.98145502236E+02  0.91684619253E+02 0.  0.
         23    2    1    2    0    0 -0.83398496008E+01 -0.11672987661E+01  0.73384231889E+02  0.11630745782E+03  0.89840211362E+02 0.  0.
        -13    1    4    4    0    0  0.32802402524E+02  0.10251111581E+02  0.36770995128E+01  0.34563043281E+02  0.00000000000E+00 0.  1.
         13    1    4    4    0    0 -0.41142252125E+02 -0.11418410347E+02  0.69707132376E+02  0.81744414542E+02  0.00000000000E+00 0. -1.
        -13    1    3    3    0    0 -0.38722800230E+02 -0.74772671682E+01 -0.86277085160E+01  0.40370807970E+02  0.00000000000E+00 0. -1.
         13    1    3    3    0    0  0.44409563467E+02 -0.17418410892E+02  0.32593019685E+02  0.57774694266E+02  0.00000000000E+00 0.  1.
         21    1    1    2  502  501  0.26530863633E+01  0.26062976826E+02 -0.69805795915E+00  0.26206963067E+02  0.00000000000E+00 0. -1.
<scales pt_clust_5="13000.00000" pt_clust_6="13000.00000" pt_clust_7="13000.00000" pt_clust_8="13000.00000" pt_clust_9="26.19766"></scales>
<clustering>
<clus scale="   26.198">  2  9  1 -1</clus>
<clus scale="   89.840">  5  6 -1 -1</clus>
<clus scale="   90.531">  1  5  2 -1</clus>
<clus scale="   91.685">  7  8 -1 -1</clus>
<clus scale="   90.531">  1  5  2 -1</clus>
</clustering>
</event>
<event>
 9    1  0.1234700E-005  0.1083680E+03  0.7546771E-02  0.1267534E+00
         -1   -1    0    0    0  501 -0.00000000000E+00  0.00000000000E+00  0.15598812556E+03  0.15598812556E+03  0.00000000000E+00 0.  1.
          1   -1    0    0  502    0  0.00000000000E+00 -0.00000000000E+00 -0.12848675384E+03  0.12848675384E+03  0.00000000000E+00 0. -1.
         23    2    1    2    0    0 -0.27450637352E+02  0.12979699131E+02  0.62942227102E+02  0.12186197193E+03  0.99832891226E+02 0.  0.
         23    2    1    2    0    0  0.70183892730E+02 -0.13163690420E+02 -0.22373920871E+02  0.11792611137E+03  0.91142272644E+02 0.  0.
        -13    1    4    4    0    0 -0.16858111067E+02 -0.22606256907E+02 -0.42728025368E+01  0.28521844289E+02  0.00000000000E+00 0. -1.
         13    1    4    4    0    0  0.87042003797E+02  0.94425664874E+01 -0.18101118335E+02  0.89404267078E+02  0.00000000000E+00 0.  1.
        -13    1    3    3    0    0  0.34982747210E+02 -0.10824008710E+02  0.30138442260E+02  0.47426548143E+02  0.00000000000E+00 0.  1.
         13    1    3    3    0    0 -0.62433384563E+02  0.23803707842E+02  0.32803784842E+02  0.74435423791E+02  0.00000000000E+00 0. -1.
         21    1    1    2  502  501 -0.42733255377E+02  0.18399128856E+00 -0.13066934506E+02  0.44686796096E+02  0.00000000000E+00 0. -1.
<scales pt_clust_5="13000.00000" pt_clust_6="13000.00000" pt_clust_7="13000.00000" pt_clust_8="13000.00000" pt_clust_9="42.73365"></scales>
<clustering>
<clus scale="   42.734">  2  9  1 -1</clus>
<clus scale="   91.142">  5  6 -1 -1</clus>
<clus scale="   99.833">  7  8 -1 -1</clus>
<clus scale="  100.419">  2  5  1 -1</clus>
<clus scale="   42.734">  2  5  1 -1</clus>
</clustering>
</event>
<event>
 9    1  0.1234700E-005  0.2100093E+03  0.7546771E-02  0.1141872E+00
         -2   -1    0    0    0  501 -0.00000000000E+00  0.00000000000E+00  0.46158406776E+03  0.46158406776E+03  0.00000000000E+00 0.  1.
          2   -1    0    0  502    0  0.00000000000E+00 -0.00000000000E+00 -0.52991698542E+03  0.52991698542E+03  0.00000000000E+00 0. -1.
         23    2    1    2    0    0  0.17216285304E+03  0.39378412226E+02  0.24978605493E+03  0.31831309735E+03  0.87974129076E+02 0.  0.
         23    2    1    2    0    0 -0.20399405062E+03 -0.81683015222E+02  0.95256270765E+02  0.25643623552E+03  0.91652049075E+02 0.  0.
        -11    1    4    4    0    0 -0.29087950192E+02 -0.15440697126E+02 -0.18257247942E+02  0.37654363313E+02  0.00000000000E+00 0. -1.
         11    1    4    4    0    0 -0.17490610043E+03 -0.66242318097E+02  0.11351351871E+03  0.21878187220E+03  0.00000000000E+00 0.  1.
        -13    1    3    3    0    0  0.43984977812E+02  0.10165708233E+02  0.12173333193E+02  0.46756923958E+02  0.00000000000E+00 0.  1.
         13    1    3    3    0    0  0.12817787523E+03  0.29212703993E+02  0.23761272174E+03  0.27155617339E+03  0.00000000000E+00 0. -1.
         21    1    1    2  502  501  0.31831197583E+02  0.42304602996E+02 -0.41337524336E+03  0.41675172033E+03  0.00000000000E+00 0. -1.
<scales pt_clust_5="13000.00000" pt_clust_6="13000.00000" pt_clust_7="13000.00000" pt_clust_8="13000.00000" pt_clust_9="52.94246"></scales>
<clustering>
<clus scale="   52.942">  2  9  1 -1</clus>
<clus scale="   87.974">  7  8 -1 -1</clus>
<clus scale="   91.652">  5  6 -1 -1</clus>
<clus scale="  208.430">  1  7  2 -1</clus>
<clus scale="   52.942">  2  5  1 -1</clus>
</clustering>
</event>
<event>
 9    1  0.1234700E-005  0.2095300E+03  0.7546771E-02  0.1164809E+00
         -3   -1    0    0    0  501 -0.00000000000E+00  0.00000000000E+00  0.78701183435E+03  0.78701183435E+03  0.00000000000E+00 0.  1.
          3   -1    0    0  502    0  0.00000000000E+00 -0.00000000000E+00 -0.97735041461E+02  0.97735041461E+02  0.00000000000E+00 0. -1.
         23    2    1    2    0    0  0.12418402701E+03  0.17690388305E+03  0.25786456326E+03  0.34876680688E+03  0.91801395349E+02 0.  0.
         23    2    1    2    0    0 -0.81927730714E+02 -0.26480698981E+01  0.95244166701E+02  0.15498184122E+03  0.90712482505E+02 0.  0.
        -11    1    3    3    0    0  0.13786309814E+03  0.14541369809E+03  0.22394478959E+03  0.30050398701E+03  0.00000000000E+00 0.  1.
         11    1    3    3    0    0 -0.13679071129E+02  0.31490184959E+02  0.33919773667E+02  0.48262819865E+02  0.00000000000E+00 0. -1.
        -13    1    4    4    0    0 -0.26814559195E+02  0.20320129727E+01 -0.15610711170E+02  0.31094114632E+02  0.00000000000E+00 0.  1.
         13    1    4    4    0    0 -0.55113171518E+02 -0.46800828708E+01  0.11085487787E+03  0.12388772658E+03  0.00000000000E+00 0. -1.
         21    1    1    2  502  501 -0.42256296300E+02 -0.17425581315E+03  0.33616806292E+03  0.38099822772E+03  0.00000000000E+00 0. -1.
<scales pt_clust_5="13000.00000" pt_clust_6="13000.00000" pt_clust_7="13000.00000" pt_clust_8="13000.00000" pt_clust_9="188.34895"></scales>
<clustering>
<clus scale="   90.712">  7  8 -1 -1</clus>
<clus scale="   91.801">  5  6 -1 -1</clus>
<clus scale="  122.262">  2  7  1 -1</clus>
<clus scale="  188.349">  1  9  2 -1</clus>
<clus scale="  122.262">  2  5  1 -1</clus>
</clustering>
</event>
<event>
 9    1  0.1234700E-005  0.1092231E+03  0.7546771E-02  0.1262415E+00
          1   -1    0    0  502    0  0.00000000000E+00  0.00000000000E+00  0.25162690497E+03  0.25162690497E+03  0.00000000000E+00 0. -1.
         -1   -1    0    0    0  501 -0.00000000000E+00 -0.00000000000E+00 -0.10191422569E+03  0.10191422569E+03  0.00000000000E+00 0.  1.
         23    2    1    2    0    0  0.54904734652E+02 -0.27739728850E+02 -0.34553988123E+02  0.11642272338E+03  0.92608044894E+02 0.  0.
         23    2    1    2    0    0 -0.21766050191E+02  0.51825882584E+02  0.12204325307E+03  0.16261962542E+03  0.91601877191E+02 0.  0.
        -11    1    4    4    0    0 -0.15545247389E+02  0.78372675307E+02  0.85455154118E+02  0.11698937694E+03  0.00000000000E+00 0. -1.
         11    1    4    4    0    0 -0.62208028021E+01 -0.26546792723E+02  0.36588098956E+02  0.45630248482E+02  0.00000000000E+00 0.  1.
        -13    1    3    3    0    0  0.27241401738E+02 -0.45069349722E+02 -0.56384313327E+02  0.77152647669E+02  0.00000000000E+00 0.  1.
         13    1    3    3    0    0  0.27663332915E+02  0.17329620873E+02  0.21830325203E+02  0.39270075707E+02  0.00000000000E+00 0. -1.
         21    1    1    2  502  501 -0.33138684462E+02 -0.24086153734E+02  0.62223414326E+02  0.74498781869E+02  0.00000000000E+00 0.  1.
<scales pt_clust_5="13000.00000" pt_clust_6="13000.00000" pt_clust_7="13000.00000" pt_clust_8="13000.00000" pt_clust_9="40.96725"></scales>
<clustering>
<clus scale="   40.967">  1  9  2 -1</clus>
<clus scale="   91.602">  5  6 -1 -1</clus>
<clus scale="   92.608">  7  8 -1 -1</clus>
<clus scale="  108.371">  1  5  2 -1</clus>
<clus scale="   40.967">  1  5  2 -1</clus>
</clustering>
</event>
<event>
 9    1  0.1234700E-005  0.1177676E+03  0.7546771E-02  0.1247174E+00
         -2   -1    0    0    0  501 -0.00000000000E+00  0.00000000000E+00  0.23373481400E+02  0.23373481400E+02  0.00000000000E+00 0.  1.
          2   -1    0    0  502    0  0.00000000000E+00 -0.00000000000E+00 -0.71003364034E+03  0.71003364034E+03  0.00000000000E+00 0. -1.
         23    2    1    2    0    0 -0.80532476116E+02  0.21445415194E+02 -0.27641182666E+03  0.30252410802E+03  0.90398852153E+02 0.  0.
         23    2    1    2    0    0  0.60155174505E+02 -0.19422983858E+02 -0.34046712541E+03  0.35815927976E+03  0.91456595560E+02 0.  0.
        -11    1    3    3    0    0 -0.27453779172E+02  0.50513843293E+02 -0.92496156451E+02  0.10890774680E+03  0.00000000000E+00 0.  1.
         11    1    3    3    0    0 -0.53078696944E+02 -0.29068428099E+02 -0.18391567021E+03  0.19361636122E+03  0.00000000000E+00 0. -1.
        -13    1    4    4    0    0  0.14320515495E+02  0.21841326786E+02 -0.23137676707E+02  0.34892302922E+02  0.00000000000E+00 0.  1.
         13    1    4    4    0    0  0.45834659010E+02 -0.41264310645E+02 -0.31732944870E+03  0.32326697684E+03  0.00000000000E+00 0. -1.
         21    1    1    2  502  501  0.20377301611E+02 -0.20224313357E+01 -0.69781206867E+02  0.72723733961E+02  0.00000000000E+00 0. -1.
<scales pt_clust_5="13000.00000" pt_clust_6="13000.00000" pt_clust_7="13000.00000" pt_clust_8="13000.00000" pt_clust_9="20.47742"></scales>
<clustering>
<clus scale="   20.477">  2  9  1 -1</clus>
<clus scale="   90.399">  5  6 -1 -1</clus>
<clus scale="   91.457">  7  8 -1 -1</clus>
<clus scale="  116.948">  1  5  2 -1</clus>
<clus scale="   20.477">  2  5  1 -1</clus>
</clustering>
</event>
<event>
 9    1  0.1234700E-005  0.1035793E+03  0.7546771E-02  0.1273260E+00
          2   -1    0    0  502    0  0.00000000000E+00  0.00000000000E+00  0.22417677999E+03  0.22417677999E+03  0.00000000000E+00 0. -1.
         -2   -1    0    0    0  501 -0.00000000000E+00 -0.00000000000E+00 -0.11392573815E+03  0.11392573815E+03  0.00000000000E+00 0.  1.
         23    2    1    2    0    0  0.26937333188E+02 -0.36884408943E+02 -0.60275629152E+02  0.11927882471E+03  0.92239942607E+02 0.  0.
         23    2    1    2    0    0 -0.15174517167E+02  0.57094223221E+02  0.15902806125E+03  0.19276571078E+03  0.91535122728E+02 0.  0.
        -11    1    3    3    0    0  0.48509204118E+02 -0.34986987767E+02 -0.51251272749E+01  0.60029152307E+02  0.00000000000E+00 0.  1.
         11    1    3    3    0    0 -0.21571870929E+02 -0.18974211756E+01 -0.55150501877E+02  0.59249672403E+02  0.00000000000E+00 0. -1.
        -13    1    4    4    0    0 -0.18340280061E+02  0.81884077566E+02  0.12468627356E+03  0.15029316300E+03  0.00000000000E+00 0.  1.
         13    1    4    4    0    0  0.31657628941E+01 -0.24789854345E+02  0.34341787687E+02  0.42472547777E+02  0.00000000000E+00 0. -1.
         21    1    1    2  502  501 -0.11762816022E+02 -0.20209814278E+02  0.11498609743E+02  0.26057982653E+02  0.00000000000E+00 0.  1.
<scales pt_clust_5="13000.00000" pt_clust_6="13000.00000" pt_clust_7="13000.00000" pt_clust_8="13000.00000" pt_clust_9="23.38376"></scales>
<clustering>
<clus scale="   23.384">  1  9  2 -1</clus>
<clus scale="   91.535">  7  8 -1 -1</clus>
<clus scale="   92.240">  5  6 -1 -1</clus>
<clus scale="  102.952">  1  7  2 -1</clus>
<clus scale="   23.384">  1  5  2 -1</clus>
</clustering>
</event>
<event>
 9    1  0.1234700E-005  0.1009811E+03  0.7546771E-02  0.1278325E+00
          2   -1    0    0  502    0  0.00000000000E+00  0.00000000000E+00  0.22903436430E+03  0.22903436430E+03  0.00000000000E+00 0. -1.
         -2   -1    0    0    0  501 -0.00000000000E+00 -0.00000000000E+00 -0.67893206583E+02  0.67893206583E+02  0.00000000000E+00 0.  1.
         23    2    1    2    0    0 -0.35650941166E+02 -0.87458629046E+01  0.13193701335E+02  0.99304821348E+02  0.91323020450E+02 0.  0.
         23    2    1    2    0    0  0.57966013278E+02  0.57783959974E+01  0.12046715355E+03  0.16209902018E+03  0.91489391215E+02 0.  0.
        -13    1    3    3    0    0 -0.12013480346E+02 -0.43526466923E+02  0.29790328953E+02  0.54095662783E+02  0.00000000000E+00 0. -1.
         13    1    3    3    0    0 -0.23637460820E+02  0.34780604018E+02 -0.16596627617E+02  0.45209158565E+02  0.00000000000E+00 0.  1.
        -13    1    4    4    0    0  0.40115534952E+02  0.47986560884E+02  0.66293578621E+02  0.91141673983E+02  0.00000000000E+00 0. -1.
         13    1    4    4    0    0  0.17850478326E+02 -0.42208164886E+02  0.54173574924E+02  0.70957346199E+02  0.00000000000E+00 0.  1.
         21    1    1    2  502  501 -0.22315072112E+02  0.29674669072E+01  0.27480302840E+02  0.35523729357E+02  0.00000000000E+00 0. -1.
<scales pt_clust_5="13000.00000" pt_clust_6="13000.00000" pt_clust_7="13000.00000" pt_clust_8="13000.00000" pt_clust_9="22.51151"></scales>
<clustering>
<clus scale="   22.512">  1  9  2 -1</clus>
<clus scale="   91.323">  5  6 -1 -1</clus>
<clus scale="   91.489">  7  8 -1 -1</clus>
<clus scale="  100.830">  2  5  1 -1</clus>
<clus scale="   22.512">  1  5  2 -1</clus>
</clustering>
</event>
<event>
 9    1  0.1234700E-005  0.9783833E+02  0.7546771E-02  0.1286316E+00
         -3   -1    0    0    0  501 -0.00000000000E+00  0.00000000000E+00  0.76895104213E+02  0.76895104213E+02  0.00000000000E+00 0.  1.
          3   -1    0    0  502    0  0.00000000000E+00 -0.00000000000E+00 -0.22964159216E+03  0.22964159216E+03  0.00000000000E+00 0. -1.
         23    2    1    2    0    0 -0.53694024652E+02  0.11771790772E+02 -0.12684202534E+02  0.10811266049E+03  0.92227083999E+02 0.  0.
         23    2    1    2    0    0  0.23872776785E+02  0.16036711040E+02 -0.12149789833E+03  0.15362162450E+03  0.89502953274E+02 0.  0.
        -11    1    4    4    0    0 -0.34368812767E+02  0.68317913767E+01 -0.44591314955E+02  0.56712203571E+02  0.00000000000E+00 0.  1.
         11    1    4    4    0    0  0.58241589552E+02  0.92049196631E+01 -0.76906583374E+02  0.96909420934E+02  0.00000000000E+00 0. -1.
        -13    1    3    3    0    0 -0.41579116182E+02 -0.22234356703E+02 -0.40802657792E+02  0.62354201168E+02  0.00000000000E+00 0. -1.
         13    1    3    3    0    0 -0.12114908470E+02  0.34006147475E+02  0.28118455258E+02  0.45758459321E+02  0.00000000000E+00 0.  1.
         21    1    1    2  502  501  0.29821247867E+02 -0.27808501812E+02 -0.18564387081E+02  0.44802411375E+02  0.00000000000E+00 0. -1.
<scales pt_clust_5="13000.00000" pt_clust_6="13000.00000" pt_clust_7="13000.00000" pt_clust_8="13000.00000" pt_clust_9="40.77523"></scales>
<clustering>
<clus scale="   40.775">  1  9  2 -1</clus>
<clus scale="   89.503">  5  6 -1 -1</clus>
<clus scale="   92.227">  7  8 -1 -1</clus>
<clus scale="   95.275">  2  5  1 -1</clus>
<clus scale="   95.275">  2  5  1 -1</clus>
</clustering>
</event>
<event>
 9    1  0.1234700E-005  0.1474699E+03  0.7546771E-02  0.1208944E+00
         -2   -1    0    0    0  501 -0.00000000000E+00  0.00000000000E+00  0.19172090901E+03  0.19172090901E+03  0.00000000000E+00 0.  1.
          2   -1    0    0  502    0  0.00000000000E+00 -0.00000000000E+00 -0.19504227728E+03  0.19504227728E+03  0.00000000000E+00 0. -1.
         23    2    1    2    0    0  0.27308882303E+02  0.10773037908E+03  0.66839530739E+02  0.15818822728E+03  0.90578047841E+02 0.  0.
         23    2    1    2    0    0 -0.18846427388E+01 -0.75293515783E+02  0.12758989907E+02  0.13597771265E+03  0.11249213802E+03 0.  0.
        -13    1    4    4    0    0 -0.39634705487E+02  0.10994372124E+02  0.19839733763E+01  0.41179148216E+02  0.00000000000E+00 0.  1.
         13    1    4    4    0    0  0.37750062748E+02 -0.86287887907E+02  0.10775016531E+02  0.94798564431E+02  0.00000000000E+00 0. -1.
        -13    1    3    3    0    0 -0.32046248136E+02  0.49613904574E+02  0.38107867209E+02  0.70290191989E+02  0.00000000000E+00 0.  1.
         13    1    3    3    0    0  0.59355130439E+02  0.58116474503E+02  0.28731663530E+02  0.87898035287E+02  0.00000000000E+00 0. -1.
         21    1    1    2  502  501 -0.25424239564E+02 -0.32436863295E+02 -0.82919888916E+02  0.92597246372E+02  0.00000000000E+00 0.  1.
<scales pt_clust_5="13000.00000" pt_clust_6="13000.00000" pt_clust_7="13000.00000" pt_clust_8="13000.00000" pt_clust_9="41.21337"></scales>
<clustering>
<clus scale="   41.213">  2  9  1 -1</clus>
<clus scale="   90.578">  7  8 -1 -1</clus>
<clus scale="  112.492">  5  6 -1 -1</clus>
<clus scale="  131.519">  1  7  2 -1</clus>
<clus scale="   41.213">  2  5  1 -1</clus>
</clustering>
</event>
<event>
 9    1  0.1234700E-005  0.1085874E+03  0.7546771E-02  0.1264558E+00
          1   -1    0    0  502    0  0.00000000000E+00  0.00000000000E+00  0.64854810020E+03  0.64854810020E+03  0.00000000000E+00 0. -1.
         -1   -1    0    0    0  501 -0.00000000000E+00 -0.00000000000E+00 -0.24666402263E+02  0.24666402263E+02  0.00000000000E+00 0.  1.
         23    2    1    2    0    0  0.20512683169E+02  0.34381356231E+02  0.21309502375E+03  0.23748708466E+03  0.96890548594E+02 0.  0.
         23    2    1    2    0    0 -0.11497433443E+02 -0.61170133026E+02  0.27673239101E+03  0.29872572392E+03  0.93713743628E+02 0.  0.
        -11    1    3    3    0    0  0.10978644022E+02  0.66176500752E+02  0.17227460311E+03  0.18487400778E+03  0.00000000000E+00 0. -1.
         11    1    3    3    0    0  0.95340391476E+01 -0.31795144521E+02  0.40820420642E+02  0.52613076882E+02  0.00000000000E+00 0.  1.
        -13    1    4    4    0    0 -0.51333072423E+02 -0.44092972576E+02  0.19153141982E+03  0.20313433815E+03  0.00000000000E+00 0.  1.
         13    1    4    4    0    0  0.39835638981E+02 -0.17077160450E+02  0.85200971189E+02  0.95591385771E+02  0.00000000000E+00 0. -1.
         21    1    1    2  502  501 -0.90152497267E+01  0.26788776795E+02  0.13405428318E+03  0.13700169389E+03  0.00000000000E+00 0.  1.
<scales pt_clust_5="13000.00000" pt_clust_6="13000.00000" pt_clust_7="13000.00000" pt_clust_8="13000.00000" pt_clust_9="28.26505"></scales>
<clustering>
<clus scale="   28.265">  1  9  2 -1</clus>
<clus scale="   93.714">  7  8 -1 -1</clus>
<clus scale="   96.891">  5  6 -1 -1</clus>
<clus scale="  105.762">  1  7  2 -1</clus>
<clus scale="   28.265">  1  5  2 -1</clus>
</clustering>
</event>
<event>
 9    1  0.1234700E-005  0.9662207E+02  0.7546771E-02  0.1291285E+00
         -2   -1    0    0    0  501 -0.00000000000E+00  0.00000000000E+00  0.69185480239E+02  0.69185480239E+02  0.00000000000E+00 0.  1.
          2   -1    0    0  502    0  0.00000000000E+00 -0.00000000000E+00 -0.24524264689E+03  0.24524264689E+03  0.00000000000E+00 0. -1.
         23    2    1    2    0    0  0.61728885516E+00 -0.20234345825E+02 -0.55889429800E+02  0.10722668386E+03  0.89241938418E+02 0.  0.
         23    2    1    2    0    0  0.10613215736E+02 -0.40866339898E+02 -0.90332799396E+02  0.13828452573E+03  0.95811780725E+02 0.  0.
        -11    1    3    3    0    0 -0.40760234725E+02  0.18882208735E+01 -0.41379995194E+02  0.58114250535E+02  0.00000000000E+00 0.  1.
         11    1    3    3    0    0  0.41377523580E+02 -0.22122566698E+02 -0.14509434606E+02  0.49112433330E+02  0.00000000000E+00 0. -1.
        -13    1    4    4    0    0  0.16401422697E+02  0.25939685618E+02 -0.72822520441E+01  0.31542117102E+02  0.00000000000E+00 0. -1.
         13    1    4    4    0    0 -0.57882069618E+01 -0.66806025516E+02 -0.83050547352E+02  0.10674240863E+03  0.00000000000E+00 0.  1.
         21    1    1    2  502  501 -0.11230504591E+02  0.61100685723E+02 -0.29834937455E+02  0.68916917532E+02  0.00000000000E+00 0. -1.
<scales pt_clust_5="13000.00000" pt_clust_6="13000.00000" pt_clust_7="13000.00000" pt_clust_8="13000.00000" pt_clust_9="62.12421"></scales>
<clustering>
<clus scale="   62.124">  1  9  2 -1</clus>
<clus scale="   89.242">  5  6 -1 -1</clus>
<clus scale="   90.111">  1  5  2 -1</clus>
<clus scale="   95.812">  7  8 -1 -1</clus>
<clus scale="   96.622">  2  5  1 -1</clus>
</clustering>
</event>
<event>
 9    1  0.1234700E-005  0.1065340E+03  0.7546771E-02  0.1267673E+00
         -1   -1    0    0    0  501 -0.00000000000E+00  0.00000000000E+00  0.15841710328E+03  0.15841710328E+03  0.00000000000E+00 0.  1.
          1   -1    0    0  502    0  0.00000000000E+00 -0.00000000000E+00 -0.98056410168E+02  0.98056410168E+02  0.00000000000E+00 0. -1.
         23    2    1    2    0    0  0.38493487269E+02 -0.62338977461E+02  0.29678100836E+02  0.12034053635E+03  0.90736753008E+02 0.  0.
         23    2    1    2    0    0 -0.23074517456E+02  0.36283779988E+02  0.10550211554E+02  0.99774612191E+02  0.89413199406E+02 0.  0.
        -13    1    3    3    0    0 -0.15473529897E+02 -0.31627003890E+02 -0.20290820412E+02  0.40637604451E+02  0.00000000000E+00 0. -1.
         13    1    3    3    0    0  0.53967017165E+02 -0.30711973570E+02  0.49968921248E+02  0.79702931897E+02  0.00000000000E+00 0.  1.
        -13    1    4    4    0    0  0.13220910049E+02  0.34523844382E+02  0.38915858994E+02  0.53676180702E+02  0.00000000000E+00 0.  1.
         13    1    4    4    0    0 -0.36295427505E+02  0.17599356058E+01 -0.28365647440E+02  0.46098431489E+02  0.00000000000E+00 0. -1.
         21    1    1    2  502  501 -0.15418969813E+02  0.26055197473E+02  0.20132380727E+02  0.36358364913E+02  0.00000000000E+00 0. -1.
<scales pt_clust_5="13000.00000" pt_clust_6="13000.00000" pt_clust_7="13000.00000" pt_clust_8="13000.00000" pt_clust_9="30.27570"></scales>
<clustering>
<clus scale="   30.276">  1  9  2 -1</clus>
<clus scale="   89.413">  7  8 -1 -1</clus>
<clus scale="   90.737">  5  6 -1 -1</clus>
<clus scale="  105.409">  2  7  1 -1</clus>
<clus scale="  105.409">  2  5  1 -1</clus>
</clustering>
</event>
<event>
 9    1  0.1234700E-005  0.9987904E+02  0.7546771E-02  0.1281585E+00
          1   -1    0    0  502    0  0.00000000000E+00  0.00000000000E+00  0.13773023014E+03  0.13773023014E+03  0.00000000000E+00 0. -1.
         -1   -1    0    0    0  501 -0.00000000000E+00 -0.00000000000E+00 -0.16620484670E+03  0.16620484670E+03  0.00000000000E+00 0.  1.
         23    2    1    2    0    0 -0.45722323976E+02 -0.14066771183E+02 -0.75279657383E+02  0.12823346191E+03  0.92132453436E+02 0.  0.
         23    2    1    2    0    0  0.26712775522E+02  0.17796902355E+01 -0.27631815200E+02  0.97899424566E+02  0.90022444122E+02 0.  0.
        -11    1    3    3    0    0 -0.61027216794E+02 -0.37713739224E+02 -0.68652665019E+02  0.99296705535E+02  0.00000000000E+00 0.  1.
         11    1    3    3    0    0  0.15304892818E+02  0.23646968041E+02 -0.66269923644E+01  0.28936756374E+02  0.00000000000E+00 0. -1.
        -11    1    4    4    0    0  0.57711054699E+02 -0.81267109956E+01 -0.29464385171E+02  0.65305124298E+02  0.00000000000E+00 0.  1.
         11    1    4    4    0    0 -0.30998279177E+02  0.99064012311E+01  0.18325699712E+01  0.32594300268E+02  0.00000000000E+00 0. -1.
         21    1    1    2  502  501  0.19009548454E+02  0.12287080948E+02  0.74436856021E+02  0.77802190360E+02  0.00000000000E+00 0. -1.
<scales pt_clust_5="13000.00000" pt_clust_6="13000.00000" pt_clust_7="13000.00000" pt_clust_8="13000.00000" pt_clust_9="22.63482"></scales>
<clustering>
<clus scale="   22.635">  1  9  2 -1</clus>
<clus scale="   90.022">  7  8 -1 -1</clus>
<clus scale="   92.132">  5  6 -1 -1</clus>
<clus scale="   97.936">  1  7  2 -1</clus>
<clus scale="   22.635">  1  5  2 -1</clus>
</clustering>
</event>
<event>
 9    1  0.1234700E-005  0.1349670E+03  0.7546771E-02  0.1221108E+00
          2   -1    0    0  502    0  0.00000000000E+00  0.00000000000E+00  0.21745969819E+03  0.21745969819E+03  0.00000000000E+00 0. -1.
         -2   -1    0    0    0  501 -0.00000000000E+00 -0.00000000000E+00 -0.20780664156E+03  0.20780664156E+03  0.00000000000E+00 0.  1.
         23    2    1    2    0    0  0.47504928265E+02 -0.98511733080E+02 -0.14201047729E+03  0.20206961790E+03  0.93294560677E+02 0.  0.
         23    2    1    2    0    0 -0.16137175087E+02  0.54429829586E+02  0.78141799477E+02  0.13191366981E+03  0.89844647520E+02 0.  0.
        -11    1    3    3    0    0  0.59434504498E+02 -0.72601123679E+02 -0.14571026885E+03  0.17330570081E+03  0.00000000000E+00 0.  1.
         11    1    3    3    0    0 -0.11929576233E+02 -0.25910609401E+02  0.36997915571E+01  0.28763917087E+02  0.00000000000E+00 0. -1.
        -13    1    4    4    0    0 -0.47483605476E+02  0.57191890862E+02  0.49053535928E+02  0.89060959777E+02  0.00000000000E+00 0. -1.
         13    1    4    4    0    0  0.31346430389E+02 -0.27620612765E+01  0.29088263549E+02  0.42852710030E+02  0.00000000000E+00 0.  1.
         21    1    1    2  502  501 -0.31367753178E+02  0.44081903494E+02  0.73521734448E+02  0.91283052049E+02  0.00000000000E+00 0. -1.
<scales pt_clust_5="13000.00000" pt_clust_6="13000.00000" pt_clust_7="13000.00000" pt_clust_8="13000.00000" pt_clust_9="54.10314"></scales>
<clustering>
<clus scale="   54.103">  1  9  2 -1</clus>
<clus scale="   89.845">  7  8 -1 -1</clus>
<clus scale="   93.295">  5  6 -1 -1</clus>
<clus scale="  132.606">  1  7  2 -1</clus>
<clus scale="   54.103">  1  5  2 -1</clus>
</clustering>
</event>
<event>
 9    1  0.1234700E-005  0.9185066E+02  0.7546771E-02  0.1300217E+00
          1   -1    0    0  502    0  0.00000000000E+00  0.00000000000E+00  0.54319284993E+03  0.54319284993E+03  0.00000000000E+00 0. -1.
         -1   -1    0    0    0  501 -0.00000000000E+00 -0.00000000000E+00 -0.28777966109E+02  0.28777966109E+02  0.00000000000E+00 0.  1.
         23    2    1    2    0    0 -0.17902460173E+02  0.15712913336E+02  0.12785799846E+03  0.15705694297E+03  0.88044431057E+02 0.  0.
         23    2    1    2    0    0  0.98497735304E+00  0.34805052919E+02  0.25050064750E+03  0.26879896623E+03  0.91049151331E+02 0.  0.
        -11    1    4    4    0    0  0.16270594410E+02  0.63118884367E+02  0.17390801481E+03  0.18572216728E+03  0.00000000000E+00 0.  1.
         11    1    4    4    0    0 -0.15285617057E+02 -0.28313831448E+02  0.76592632698E+02  0.83076798950E+02  0.00000000000E+00 0. -1.
        -11    1    3    3    0    0  0.18050087883E+02  0.21529511677E+02  0.11508083249E+03  0.11846064136E+03  0.00000000000E+00 0.  1.
         11    1    3    3    0    0 -0.35952548055E+02 -0.58165983412E+01  0.12777165974E+02  0.38596301614E+02  0.00000000000E+00 0. -1.
         21    1    1    2  502  501  0.16917482820E+02 -0.50517966255E+02  0.13605623785E+03  0.14611490683E+03  0.00000000000E+00 0. -1.
<scales pt_clust_5="13000.00000" pt_clust_6="13000.00000" pt_clust_7="13000.00000" pt_clust_8="13000.00000" pt_clust_9="53.27538"></scales>
<clustering>
<clus scale="   53.275">  1  9  2 -1</clus>
<clus scale="   88.044">  7  8 -1 -1</clus>
<clus scale="   88.873">  2  7  1 -1</clus>
<clus scale="   91.049">  5  6 -1 -1</clus>
<clus scale="   53.275">  1  5  2 -1</clus>
</clustering>
</event>
<event>
 9    1  0.1234700E-005  0.1414409E+03  0.7546771E-02  0.1211843E+00
          1   -1    0    0  502    0  0.00000000000E+00  0.00000000000E+00  0.23247192795E+03  0.23247192795E+03  0.00000000000E+00 0. -1.
         -1   -1    0    0    0  501 -0.00000000000E+00 -0.00000000000E+00 -0.15688659376E+03  0.15688659376E+03  0.00000000000E+00 0.  1.
         23    2    1    2    0    0  0.97516830332E+02 -0.36081200470E+01 -0.15355665172E+02  0.13448637619E+03  0.91259181454E+02 0.  0.
         23    2    1    2    0    0 -0.11314874172E+03  0.39569163253E+02 -0.42296127338E+01  0.15194013549E+03  0.93271424963E+02 0.  0.
        -11    1    3    3    0    0  0.97349134699E+02  0.19134848092E+02  0.10831663464E+02  0.99801409667E+02  0.00000000000E+00 0.  1.
         11    1    3    3    0    0  0.16769563242E+00 -0.22742968139E+02 -0.26187328635E+02  0.34684966523E+02  0.00000000000E+00 0. -1.
        -11    1    4    4    0    0 -0.12035443653E+02 -0.23471613056E+02 -0.18084945882E+02  0.31981772793E+02  0.00000000000E+00 0.  1.
         11    1    4    4    0    0 -0.10111329807E+03  0.63040776309E+02  0.13855333149E+02  0.11995836270E+03  0.00000000000E+00 0. -1.
         21    1    1    2  502  501  0.15631911392E+02 -0.35961043206E+02  0.95170612100E+02  0.10293201003E+03  0.00000000000E+00 0.  1.
<scales pt_clust_5="13000.00000" pt_clust_6="13000.00000" pt_clust_7="13000.00000" pt_clust_8="13000.00000" pt_clust_9="39.21165"></scales>
<clustering>
<clus scale="   39.212">  1  9  2 -1</clus>
<clus scale="   91.259">  5  6 -1 -1</clus>
<clus scale="   93.271">  7  8 -1 -1</clus>
<clus scale="  140.122">  2  5  1 -1</clus>
<clus scale="   39.212">  1  5  2 -1</clus>
</clustering>
</event>
<event>
 9    1  0.1234700E-005  0.1883781E+03  0.7546771E-02  0.1181088E+00
          2   -1    0    0  502    0  0.00000000000E+00  0.00000000000E+00  0.83390313396E+03  0.83390313396E+03  0.00000000000E+00 0. -1.
         -2   -1    0    0    0  501 -0.00000000000E+00 -0.00000000000E+00 -0.95455483381E+02  0.95455483381E+02  0.00000000000E+00 0.  1.
         23    2    1    2    0    0  0.15132844573E+03 -0.81616307306E+02  0.73473906895E+02  0.21141478271E+03  0.98672565838E+02 0.  0.
         23    2    1    2    0    0 -0.69934135276E+02 -0.15853610525E+02  0.16297510150E+03  0.20013300487E+03  0.91379514592E+02 0.  0.
        -11    1    4    4    0    0 -0.54458362771E+02  0.25568559495E+02  0.13502456749E+03  0.14782117012E+03  0.00000000000E+00 0. -1.
         11    1    4    4    0    0 -0.15475772505E+02 -0.41422170019E+02  0.27950534014E+02  0.52311834754E+02  0.00000000000E+00 0.  1.
        -13    1    3    3    0    0  0.10680829688E+03 -0.10176289962E+03  0.42370069047E+02  0.15348916174E+03  0.00000000000E+00 0.  1.
         13    1    3    3    0    0  0.44520148855E+02  0.20146592315E+02  0.31103837848E+02  0.57925620971E+02  0.00000000000E+00 0. -1.
         21    1    1    2  502  501 -0.81394310458E+02  0.97469917831E+02  0.50199864218E+03  0.51781082975E+03  0.00000000000E+00 0. -1.
<scales pt_clust_5="13000.00000" pt_clust_6="13000.00000" pt_clust_7="13000.00000" pt_clust_8="13000.00000" pt_clust_9="160.46815"></scales>
<clustering>
<clus scale="   91.380">  5  6 -1 -1</clus>
<clus scale="   98.673">  7  8 -1 -1</clus>
<clus scale="  116.157">  1  5  2 -1</clus>
<clus scale="  160.468">  1  9  2 -1</clus>
<clus scale="  116.157">  1  5  2 -1</clus>
</clustering>
</event>
<event>
 9    1  0.1234700E-005  0.1215427E+03  0.7546771E-02  0.1241132E+00
          1   -1    0    0  502    0  0.00000000000E+00  0.00000000000E+00  0.24599194621E+03  0.24599194621E+03  0.00000000000E+00 0. -1.
         -1   -1    0    0    0  501 -0.00000000000E+00 -0.00000000000E+00 -0.13202770865E+03  0.13202770865E+03  0.00000000000E+00 0.  1.
         23    2    1    2    0    0 -0.33056112823E+02 -0.80404083676E+02 -0.67596562419E+02  0.14167022713E+03  0.89127070726E+02 0.  0.
         23    2    1    2    0    0 -0.14807943318E+01  0.61589441976E+02  0.11504578470E+03  0.15907694909E+03  0.90964229460E+02 0.  0.
        -13    1    4    4    0    0  0.23959764668E+02 -0.14811329916E+02  0.40579194199E+02  0.49397538589E+02  0.00000000000E+00 0.  1.
         13    1    4    4    0    0 -0.25440558999E+02  0.76400771893E+02  0.74466590501E+02  0.10967941051E+03  0.00000000000E+00 0. -1.
        -13    1    3    3    0    0 -0.13038812179E+02  0.15603114880E+02 -0.30832829365E+02  0.36934146581E+02  0.00000000000E+00 0. -1.
         13    1    3    3    0    0 -0.20017300643E+02 -0.96007198557E+02 -0.36763733054E+02  0.10473608054E+03  0.00000000000E+00 0.  1.
         21    1    1    2  502  501  0.34536907154E+02  0.18814641700E+02  0.66515015281E+02  0.77272478645E+02  0.00000000000E+00 0.  1.
<scales pt_clust_5="13000.00000" pt_clust_6="13000.00000" pt_clust_7="13000.00000" pt_clust_8="13000.00000" pt_clust_9="39.32923"></scales>
<clustering>
<clus scale="   39.329">  1  9  2 -1</clus>
<clus scale="   89.127">  7  8 -1 -1</clus>
<clus scale="   90.964">  5  6 -1 -1</clus>
<clus scale="  120.174">  2  7  1 -1</clus>
<clus scale="   39.329">  1  5  2 -1</clus>
</clustering>
</event>
<event>
 9    1  0.1234700E-005  0.1098464E+03  0.7546771E-02  0.1261334E+00
         -1   -1    0    0    0  501 -0.00000000000E+00  0.00000000000E+00  0.11771639744E+03  0.11771639744E+03  0.00000000000E+00 0.  1.
          1   -1    0    0  502    0  0.00000000000E+00 -0.00000000000E+00 -0.19503384929E+03  0.19503384929E+03  0.00000000000E+00 0. -1.
         23    2    1    2    0    0  0.60928199212E+02  0.17620043882E+02 -0.27706215604E+01  0.11146443629E+03  0.91618408675E+02 0.  0.
         23    2    1    2    0    0 -0.52293447250E+02  0.51269687366E+02 -0.57654248198E+02  0.12983153596E+03  0.90382685986E+02 0.  0.
        -11    1    4    4    0    0 -0.20260091967E+02  0.60548892744E+02 -0.72473310656E+00  0.63852681832E+02  0.00000000000E+00 0.  1.
         11    1    4    4    0    0 -0.32033355283E+02 -0.92792053788E+01 -0.56929515092E+02  0.65978854126E+02  0.00000000000E+00 0. -1.
        -11    1    3    3    0    0  0.55712812637E+01  0.47867344785E+02  0.17391133230E+01  0.48221845536E+02  0.00000000000E+00 0.  1.
         11    1    3    3    0    0  0.55356917948E+02 -0.30247300903E+02 -0.45097348834E+01  0.63242590755E+02  0.00000000000E+00 0. -1.
         21    1    1    2  502  501 -0.86347519621E+01 -0.68889731248E+02 -0.16892582089E+02  0.71454274487E+02  0.00000000000E+00 0.  1.
<scales pt_clust_5="13000.00000" pt_clust_6="13000.00000" pt_clust_7="13000.00000" pt_clust_8="13000.00000" pt_clust_9="69.42877"></scales>
<clustering>
<clus scale="   69.429">  1  9  2 -1</clus>
<clus scale="   90.383">  5  6 -1 -1</clus>
<clus scale="   91.618">  7  8 -1 -1</clus>
<clus scale="  108.818">  2  5  1 -1</clus>
<clus scale="  108.818">  2  5  1 -1</clus>
</clustering>
</event>
<event>
 9    1  0.1234700E-005  0.9354321E+02  0.7546771E-02  0.1294536E+00
          1   -1    0    0  502    0  0.00000000000E+00  0.00000000000E+00  0.22041792021E+03  0.22041792021E+03  0.00000000000E+00 0. -1.
         -1   -1    0    0    0  501 -0.00000000000E+00 -0.00000000000E+00 -0.50990019074E+02  0.50990019074E+02  0.00000000000E+00 0.  1.
         23    2    1    2    0    0 -0.33159025943E+02  0.80834670656E+01  0.69581623116E+02  0.11946139328E+03  0.90909618675E+02 0.  0.
         23    2    1    2    0    0  0.11301325321E+02 -0.31138602879E+01  0.84949872845E+02  0.12503262851E+03  0.90990445737E+02 0.  0.
        -11    1    4    4    0    0  0.41955892477E+02  0.10027162650E+02  0.80573326247E+02  0.91394211014E+02  0.00000000000E+00 0. -1.
         11    1    4    4    0    0 -0.30654567156E+02 -0.13141022938E+02  0.43765465980E+01  0.33638417494E+02  0.00000000000E+00 0.  1.
        -11    1    3    3    0    0  0.22841949046E+02  0.29028826477E+02  0.31747809269E+02  0.48706783883E+02  0.00000000000E+00 0. -1.
         11    1    3    3    0    0 -0.56000974989E+02 -0.20945359412E+02  0.37833813847E+02  0.70754609396E+02  0.00000000000E+00 0.  1.
         21    1    1    2  502  501  0.21857700621E+02 -0.49696067778E+01  0.14896405178E+02  0.26913917500E+02  0.00000000000E+00 0. -1.
<scales pt_clust_5="13000.00000" pt_clust_6="13000.00000" pt_clust_7="13000.00000" pt_clust_8="13000.00000" pt_clust_9="22.41553"></scales>
<clustering>
<clus scale="   22.416">  2  9  1 -1</clus>
<clus scale="   90.910">  7  8 -1 -1</clus>
<clus scale="   90.990">  5  6 -1 -1</clus>
<clus scale="   93.465">  2  7  1 -1</clus>
<clus scale="   93.543">  1  5  2 -1</clus>
</clustering>
</event>
<event>
 9    1  0.1234700E-005  0.1375534E+03  0.7546771E-02  0.1230914E+00
         -2   -1    0    0    0  501 -0.00000000000E+00  0.00000000000E+00  0.22312508702E+02  0.22312508702E+02  0.00000000000E+00 0.  1.
          2   -1    0    0  502    0  0.00000000000E+00 -0.00000000000E+00 -0.81512880754E+03  0.81512880754E+03  0.00000000000E+00 0. -1.
         23    2    1    2    0    0  0.58871206796E+02 -0.18519416194E+02 -0.36814480189E+03  0.39453231868E+03  0.12773553757E+03 0.  0.
         23    2    1    2    0    0 -0.46720580103E+02 -0.16665705250E+01 -0.37156179408E+03  0.38480777273E+03  0.88505734662E+02 0.  0.
        -11    1    4    4    0    0 -0.65942293784E+02  0.40797885883E+01 -0.34631285514E+03  0.35255868224E+03  0.00000000000E+00 0. -1.
         11    1    4    4    0    0  0.19221713681E+02 -0.57463591133E+01 -0.25248938942E+02  0.32249090493E+02  0.00000000000E+00 0.  1.
        -13    1    3    3    0    0  0.61213351838E+01 -0.55011615884E+02 -0.28058370632E+03  0.28599119721E+03  0.00000000000E+00 0. -1.
         13    1    3    3    0    0  0.52749871613E+02  0.36492199690E+02 -0.87561095570E+02  0.10854112147E+03  0.00000000000E+00 0.  1.
         21    1    1    2  502  501 -0.12150626694E+02  0.20185986719E+02 -0.53109702865E+02  0.58101224834E+02  0.00000000000E+00 0. -1.
<scales pt_clust_5="13000.00000" pt_clust_6="13000.00000" pt_clust_7="13000.00000" pt_clust_8="13000.00000" pt_clust_9="23.56081"></scales>
<clustering>
<clus scale="   23.561">  1  9  2 -1</clus>
<clus scale="   88.506">  5  6 -1 -1</clus>
<clus scale="  102.166">  2  5  1 -1</clus>
<clus scale="  127.736">  7  8 -1 -1</clus>
<clus scale="  102.166">  2  5  1 -1</clus>
</clustering>
</event>
<event>
 9    1  0.1234700E-005  0.1246200E+03  0.7546771E-02  0.1236914E+00
          1   -1    0    0  502    0  0.00000000000E+00  0.00000000000E+00  0.29403025546E+03  0.29403025546E+03  0.00000000000E+00 0. -1.
         -1   -1    0    0    0  501 -0.00000000000E+00 -0.00000000000E+00 -0.94047993961E+02  0.94047993961E+02  0.00000000000E+00 0.  1.
         23    2    1    2    0    0  0.39195900274E+02 -0.55257324412E+02  0.32539232575E+02  0.11639709133E+03  0.88880766839E+02 0.  0.
         23    2    1    2    0    0 -0.62510904117E+02  0.98734933782E+02  0.65327075495E+02  0.15827234069E+03  0.84417455249E+02 0.  0.
        -11    1    4    4    0    0  0.48638327448E+01  0.54248052509E+02  0.54083559097E+02  0.76756364131E+02  0.00000000000E+00 0.  1.
         11    1    4    4    0    0 -0.67374736862E+02  0.44486881273E+02  0.11243516398E+02  0.81515976555E+02  0.00000000000E+00 0. -1.
        -11    1    3    3    0    0  0.12900112206E+02 -0.18710617360E+02 -0.31052256132E+02  0.38480419798E+02  0.00000000000E+00 0.  1.
         11    1    3    3    0    0  0.26295788068E+02 -0.36546707052E+02  0.63591488707E+02  0.77916671531E+02  0.00000000000E+00 0. -1.
         21    1    1    2  502  501  0.23315003843E+02 -0.43477609370E+02  0.10211595343E+03  0.11340881741E+03  0.00000000000E+00 0.  1.
<scales pt_clust_5="13000.00000" pt_clust_6="13000.00000" pt_clust_7="13000.00000" pt_clust_8="13000.00000" pt_clust_9="49.33449"></scales>
<clustering>
<clus scale="   49.334">  1  9  2 -1</clus>
<clus scale="   84.417">  5  6 -1 -1</clus>
<clus scale="   88.881">  7  8 -1 -1</clus>
<clus scale="  121.477">  1  5  2 -1</clus>
<clus scale="   49.334">  1  5  2 -1</clus>
</clustering>
</event>
<event>
 9    1  0.1234700E-005  0.1073018E+03  0.7546771E-02  0.1266957E+00
          2   -1    0    0  502    0  0.00000000000E+00  0.00000000000E+00  0.19741640340E+03  0.19741640340E+03  0.00000000000E+00 0. -1.
         -2   -1    0    0    0  501 -0.00000000000E+00 -0.00000000000E+00 -0.29129280921E+03  0.29129280921E+03  0.00000000000E+00 0.  1.
         23    2    1    2    0    0  0.57358376811E+02 -0.79437205475E+01 -0.16422018144E+03  0.19638066971E+03  0.90796549260E+02 0.  0.
         23    2    1    2    0    0 -0.50718701010E+02  0.29709512218E+02 -0.84909511644E+02  0.13541640765E+03  0.87595299793E+02 0.  0.
        -11    1    4    4    0    0 -0.40755493121E+02  0.57798619493E+02 -0.77064503913E+02  0.10459745885E+03  0.00000000000E+00 0.  1.
         11    1    4    4    0    0 -0.99632078882E+01 -0.28089107275E+02 -0.78450077309E+01  0.30818948802E+02  0.00000000000E+00 0. -1.
        -13    1    3    3    0    0  0.26132491360E+02 -0.45739912147E+02 -0.11699828987E+03  0.12831074195E+03  0.00000000000E+00 0. -1.
         13    1    3    3    0    0  0.31225885451E+02  0.37796191600E+02 -0.47221891569E+02  0.68069927758E+02  0.00000000000E+00 0.  1.
         21    1    1    2  502  501 -0.66396758015E+01 -0.21765791670E+02  0.15525328727E+03  0.15691213525E+03  0.00000000000E+00 0. -1.
<scales pt_clust_5="13000.00000" pt_clust_6="13000.00000" pt_clust_7="13000.00000" pt_clust_8="13000.00000" pt_clust_9="22.75599"></scales>
<clustering>
<clus scale="   22.756">  1  9  2 -1</clus>
<clus scale="   87.595">  5  6 -1 -1</clus>
<clus scale="   90.797">  7  8 -1 -1</clus>
<clus scale="  104.607">  1  5  2 -1</clus>
<clus scale="   22.756">  1  5  2 -1</clus>
</clustering>
</event>
<event>
 9    1  0.1234700E-005  0.1155283E+03  0.7546771E-02  0.1261286E+00
          1   -1    0    0  502    0  0.00000000000E+00  0.00000000000E+00  0.11030742296E+03  0.11030742296E+03  0.00000000000E+00 0. -1.
         -1   -1    0    0    0  501 -0.00000000000E+00 -0.00000000000E+00 -0.19611926817E+03  0.19611926817E+03  0.00000000000E+00 0.  1.
         23    2    1    2    0    0  0.12634797978E+01  0.35669333540E+02 -0.75485810718E+02  0.12391970107E+03  0.91564659982E+02 0.  0.
         23    2    1    2    0    0 -0.25440585638E+02  0.22144863087E+02 -0.14847828495E+02  0.11967817184E+03  0.11386302493E+03 0.  0.
        -11    1    3    3    0    0 -0.22844214151E+02  0.48680320111E+02 -0.79759597895E+02  0.96193685565E+02  0.00000000000E+00 0. -1.
         11    1    3    3    0    0  0.24107693948E+02 -0.13010986571E+02  0.42737871767E+01  0.27726015507E+02  0.00000000000E+00 0.  1.
        -11    1    4    4    0    0  0.18457235767E+02 -0.19420484781E+02 -0.44808206744E+02  0.52207280842E+02  0.00000000000E+00 0.  1.
         11    1    4    4    0    0 -0.43897821404E+02  0.41565347867E+02  0.29960378249E+02  0.67470890999E+02  0.00000000000E+00 0. -1.
         21    1    1    2  502  501  0.24177105840E+02 -0.57814196627E+02  0.45217940018E+01  0.62828818224E+02  0.00000000000E+00 0. -1.
<scales pt_clust_5="13000.00000" pt_clust_6="13000.00000" pt_clust_7="13000.00000" pt_clust_8="13000.00000" pt_clust_9="62.66589"></scales>
<clustering>
<clus scale="   62.666">  1  9  2 -1</clus>
<clus scale="   91.565">  5  6 -1 -1</clus>
<clus scale="   93.627">  2  5  1 -1</clus>
<clus scale="  113.863">  7  8 -1 -1</clus>
<clus scale="   62.666">  1  5  2 -1</clus>
</clustering>
</event>
<event>
 9    1  0.1234700E-005  0.1047034E+03  0.7546771E-02  0.1271229E+00
         -3   -1    0    0    0  501 -0.00000000000E+00  0.00000000000E+00  0.23870445099E+03  0.23870445099E+03  0.00000000000E+00 0.  1.
          3   -1    0    0  502    0  0.00000000000E+00 -0.00000000000E+00 -0.12041915940E+03  0.12041915940E+03  0.00000000000E+00 0. -1.
         23    2    1    2    0    0  0.95453616845E+02 -0.25091633011E+01  0.11342714761E+03  0.17526613032E+03  0.93460204119E+02 0.  0.
         23    2    1    2    0    0 -0.27482071803E+02  0.27513076167E+02 -0.28508435063E+02  0.10411630381E+03  0.92278059242E+02 0.  0.
        -11    1    3    3    0    0  0.76017428422E+02 -0.86307322419E+01  0.12875340865E+03  0.14976841857E+03  0.00000000000E+00 0.  1.
         11    1    3    3    0    0  0.19436188423E+02  0.61215689408E+01 -0.15326261044E+02  0.25497711747E+02  0.00000000000E+00 0. -1.
        -13    1    4    4    0    0 -0.86115880857E+01  0.58911736301E+02 -0.32634361325E+01  0.59627192947E+02  0.00000000000E+00 0. -1.
         13    1    4    4    0    0 -0.18870483717E+02 -0.31398660134E+02 -0.25244998931E+02  0.44489110858E+02  0.00000000000E+00 0.  1.
         21    1    1    2  502  501 -0.67971545042E+02 -0.25003912866E+02  0.33366579051E+02  0.79741176262E+02  0.00000000000E+00 0.  1.
<scales pt_clust_5="13000.00000" pt_clust_6="13000.00000" pt_clust_7="13000.00000" pt_clust_8="13000.00000" pt_clust_9="72.42463"></scales>
<clustering>
<clus scale="   72.425">  1  9  2 -1</clus>
<clus scale="   92.278">  7  8 -1 -1</clus>
<clus scale="   93.460">  5  6 -1 -1</clus>
<clus scale="  103.650">  2  7  1 -1</clus>
<clus scale="  103.650">  2  5  1 -1</clus>
</clustering>
</event>
<event>
 9    1  0.1234700E-005  0.1294343E+03  0.7546771E-02  0.1229696E+00
          2   -1    0    0  502    0  0.00000000000E+00  0.00000000000E+00  0.17196933134E+03  0.17196933134E+03  0.00000000000E+00 0. -1.
         -2   -1    0    0    0  501 -0.00000000000E+00 -0.00000000000E+00 -0.19409957380E+03  0.19409957380E+03  0.00000000000E+00 0.  1.
         23    2    1    2    0    0  0.58099395025E+02  0.56026598852E+02 -0.12236718580E+03  0.17415089748E+03  0.94022802819E+02 0.  0.
         23    2    1    2    0    0 -0.81431354960E+02 -0.53507550016E+02  0.76414854390E+02  0.15847824265E+03  0.98903993571E+02 0.  0.
        -13    1    3    3    0    0  0.79374877955E+02  0.59068058260E+02 -0.82351972371E+02  0.12872938324E+03  0.00000000000E+00 0.  1.
         13    1    3    3    0    0 -0.21275482931E+02 -0.30414594088E+01 -0.40015213431E+02  0.45421514233E+02  0.00000000000E+00 0. -1.
        -13    1    4    4    0    0  0.22191066427E+02 -0.72086894010E+00  0.16470450703E+02  0.27644869824E+02  0.00000000000E+00 0.  1.
         13    1    4    4    0    0 -0.10362242139E+03 -0.52786681076E+02  0.59944403687E+02  0.13083337283E+03  0.00000000000E+00 0. -1.
         21    1    1    2  502  501  0.23331959935E+02 -0.25190488355E+01  0.23822088951E+02  0.33439765003E+02  0.00000000000E+00 0. -1.
<scales pt_clust_5="13000.00000" pt_clust_6="13000.00000" pt_clust_7="13000.00000" pt_clust_8="13000.00000" pt_clust_9="23.46755"></scales>
<clustering>
<clus scale="   23.468">  1  9  2 -1</clus>
<clus scale="   94.023">  5  6 -1 -1</clus>
<clus scale="   98.904">  7  8 -1 -1</clus>
<clus scale="  125.744">  2  5  1 -1</clus>
<clus scale="   23.468">  1  5  2 -1</clus>
</clustering>
</event>
<event>
 9    1  0.1234700E-005  0.1206419E+03  0.7546771E-02  0.1242099E+00
         -1   -1    0    0    0  501 -0.00000000000E+00  0.00000000000E+00  0.57857872427E+02  0.57857872427E+02  0.00000000000E+00 0.  1.
          1   -1    0    0  502    0  0.00000000000E+00 -0.00000000000E+00 -0.55921429598E+03  0.55921429598E+03  0.00000000000E+00 0. -1.
         23    2    1    2    0    0 -0.69416402126E+02  0.30015792609E+02 -0.40689557106E+02  0.12396056970E+03  0.89392382745E+02 0.  0.
         23    2    1    2    0    0  0.96829237999E+02 -0.26296086645E+02 -0.28341161652E+03  0.31371058586E+03  0.89581258079E+02 0.  0.
        -11    1    3    3    0    0 -0.30403758558E+01 -0.28328312890E+02 -0.13283123774E+02  0.31435307756E+02  0.00000000000E+00 0.  1.
         11    1    3    3    0    0 -0.66376026270E+02  0.58344105499E+02 -0.27406433332E+02  0.92525261944E+02  0.00000000000E+00 0. -1.
        -13    1    4    4    0    0  0.56586426742E+02 -0.59460062369E+02 -0.18299697799E+03  0.20056274993E+03  0.00000000000E+00 0.  1.
         13    1    4    4    0    0  0.40242811257E+02  0.33163975724E+02 -0.10041463853E+03  0.11314783593E+03  0.00000000000E+00 0. -1.
         21    1    1    2  502  501 -0.27412835874E+02 -0.37197059639E+01 -0.17725524993E+03  0.17940101285E+03  0.00000000000E+00 0. -1.
<scales pt_clust_5="13000.00000" pt_clust_6="13000.00000" pt_clust_7="13000.00000" pt_clust_8="13000.00000" pt_clust_9="27.66405"></scales>
<clustering>
<clus scale="   27.664">  2  9  1 -1</clus>
<clus scale="   89.392">  5  6 -1 -1</clus>
<clus scale="   89.581">  7  8 -1 -1</clus>
<clus scale="  120.502">  1  5  2 -1</clus>
<clus scale="   27.664">  2  5  1 -1</clus>
</clustering>
</event>
<event>
 9    1  0.1234700E-005  0.9516325E+02  0.7546771E-02  0.1296342E+00
         -4   -1    0    0    0  501 -0.00000000000E+00  0.00000000000E+00  0.79536563773E+02  0.79536563773E+02  0.00000000000E+00 0.  1.
          4   -1    0    0  502    0  0.00000000000E+00 -0.00000000000E+00 -0.23974395343E+03  0.23974395343E+03  0.00000000000E+00 0. -1.
         23    2    1    2    0    0 -0.33157488812E+02 -0.80172586446E+01  0.77104089988E+01  0.97614961912E+02  0.91134707338E+02 0.  0.
         23    2    1    2    0    0  0.13786409326E+02  0.13708950542E+02 -0.41004871723E+02  0.93156703068E+02  0.81355832087E+02 0.  0.
        -11    1    4    4    0    0 -0.14756280210E+02 -0.26306574757E+02 -0.16800876615E+01  0.30209375624E+02  0.00000000000E+00 0.  1.
         11    1    4    4    0    0  0.28542689536E+02  0.40015525299E+02 -0.39324784061E+02  0.62947327444E+02  0.00000000000E+00 0. -1.
        -11    1    3    3    0    0  0.18364848086E+02 -0.16652623343E+02 -0.25617117339E+02  0.35648481176E+02  0.00000000000E+00 0. -1.
         11    1    3    3    0    0 -0.51522336898E+02  0.86353646982E+01  0.33327526338E+02  0.61966480735E+02  0.00000000000E+00 0.  1.
         21    1    1    2  502  501  0.19371079486E+02 -0.56916918972E+01 -0.12691292693E+03  0.12850885222E+03  0.00000000000E+00 0. -1.
<scales pt_clust_5="13000.00000" pt_clust_6="13000.00000" pt_clust_7="13000.00000" pt_clust_8="13000.00000" pt_clust_9="20.18995"></scales>
<clustering>
<clus scale="   20.190">  2  9  1 -1</clus>
<clus scale="   81.356">  5  6 -1 -1</clus>
<clus scale="   85.845">  2  5  1 -1</clus>
<clus scale="   91.135">  7  8 -1 -1</clus>
<clus scale="   20.190">  2  5  1 -1</clus>
</clustering>
</event>
<event>
 9    1  0.1234700E-005  0.1157029E+03  0.7546771E-02  0.1250391E+00
         -1   -1    0    0    0  501 -0.00000000000E+00  0.00000000000E+00  0.29354473164E+03  0.29354473164E+03  0.00000000000E+00 0.  1.
          1   -1    0    0  502    0  0.00000000000E+00 -0.00000000000E+00 -0.16773336470E+03  0.16773336470E+03  0.00000000000E+00 0. -1.
         23    2    1    2    0    0 -0.76283849683E+02  0.52900974979E+02  0.20981539204E+03  0.24671937148E+03  0.90720508448E+02 0.  0.
         23    2    1    2    0    0  0.28037680963E+02 -0.55732320850E+00  0.11373127058E+02  0.95544642363E+02  0.90625650355E+02 0.  0.
        -11    1    3    3    0    0 -0.28408902476E+02 -0.12160626675E+02  0.12184430981E+02  0.33217569739E+02  0.00000000000E+00 0. -1.
         11    1    3    3    0    0 -0.47874947207E+02  0.65061601654E+02  0.19763096106E+03  0.21350180175E+03  0.00000000000E+00 0.  1.
        -11    1    4    4    0    0 -0.23857332325E+02  0.25635353273E+01  0.31670878533E+02  0.39733972442E+02  0.00000000000E+00 0.  1.
         11    1    4    4    0    0  0.51895013287E+02 -0.31208585358E+01 -0.20297751474E+02  0.55810669921E+02  0.00000000000E+00 0. -1.
         21    1    1    2  502  501  0.48246168721E+02 -0.52343651770E+02 -0.95377152163E+02  0.11901408249E+03  0.00000000000E+00 0. -1.
<scales pt_clust_5="13000.00000" pt_clust_6="13000.00000" pt_clust_7="13000.00000" pt_clust_8="13000.00000" pt_clust_9="71.18673"></scales>
<clustering>
<clus scale="   71.187">  2  9  1 -1</clus>
<clus scale="   90.626">  7  8 -1 -1</clus>
<clus scale="   90.721">  5  6 -1 -1</clus>
<clus scale="  115.628">  2  7  1 -1</clus>
<clus scale="   71.187">  2  5  1 -1</clus>
</clustering>
</event>
<event>
 9    1  0.1234700E-005  0.9459140E+02  0.7546771E-02  0.1292338E+00
         -2   -1    0    0    0  501 -0.00000000000E+00  0.00000000000E+00  0.97377805176E+02  0.97377805176E+02  0.00000000000E+00 0.  1.
          2   -1    0    0  502    0  0.00000000000E+00 -0.00000000000E+00 -0.19957272187E+03  0.19957272187E+03  0.00000000000E+00 0. -1.
         23    2    1    2    0    0  0.17945920715E+02  0.16102572344E+02  0.47930395181E+02  0.10537986809E+03  0.90698648893E+02 0.  0.
         23    2    1    2    0    0 -0.35037788910E+02 -0.53188853362E+01 -0.11413408403E+03  0.15029368782E+03  0.91135428174E+02 0.  0.
        -11    1    3    3    0    0  0.34697798144E+02 -0.23415268909E+01 -0.14866119365E+02  0.37820912855E+02  0.00000000000E+00 0.  1.
         11    1    3    3    0    0 -0.16751877429E+02  0.18444099235E+02  0.62796514546E+02  0.67558955240E+02  0.00000000000E+00 0. -1.
        -13    1    4    4    0    0  0.30031084636E+02  0.30043814090E+01 -0.50926313864E+02  0.59197819181E+02  0.00000000000E+00 0. -1.
         13    1    4    4    0    0 -0.65068873545E+02 -0.83232667452E+01 -0.63207770163E+02  0.91095868637E+02  0.00000000000E+00 0.  1.
         21    1    1    2  502  501  0.17091868195E+02 -0.10783687008E+02 -0.35991227850E+02  0.41276971134E+02  0.00000000000E+00 0.  1.
<scales pt_clust_5="13000.00000" pt_clust_6="13000.00000" pt_clust_7="13000.00000" pt_clust_8="13000.00000" pt_clust_9="20.20940"></scales>
<clustering>
<clus scale="   20.209">  2  9  1 -1</clus>
<clus scale="   90.699">  5  6 -1 -1</clus>
<clus scale="   91.135">  7  8 -1 -1</clus>
<clus scale="   94.171">  1  5  2 -1</clus>
<clus scale="   20.209">  2  5  1 -1</clus>
</clustering>
</event>
<event>
 9    1  0.1234700E-005  0.9755712E+02  0.7546771E-02  0.1288338E+00
          2   -1    0    0  502    0  0.00000000000E+00  0.00000000000E+00  0.16175056536E+03  0.16175056536E+03  0.00000000000E+00 0. -1.
         -2   -1    0    0    0  501 -0.00000000000E+00 -0.00000000000E+00 -0.11408215346E+03  0.11408215346E+03  0.00000000000E+00 0.  1.
         23    2    1    2    0    0  0.35025549891E+02 -0.28370265837E+02 -0.34101806201E+02  0.10184939924E+03  0.84727243618E+02 0.  0.
         23    2    1    2    0    0 -0.11742335449E+02  0.24700318175E+02  0.57984441766E+01  0.94439073885E+02  0.90206033954E+02 0.  0.
        -13    1    4    4    0    0 -0.23311409366E+02  0.52778477487E+02 -0.12428592774E+02  0.59020838784E+02  0.00000000000E+00 0. -1.
         13    1    4    4    0    0  0.11569073917E+02 -0.28078159312E+02  0.18227036951E+02  0.35418235101E+02  0.00000000000E+00 0.  1.
        -13    1    3    3    0    0  0.34680506201E+02 -0.56712079626E+02 -0.16527782459E+02  0.68499380135E+02  0.00000000000E+00 0.  1.
         13    1    3    3    0    0  0.34504369063E+00  0.28341813789E+02 -0.17574023742E+02  0.33350019108E+02  0.00000000000E+00 0. -1.
         21    1    1    2  502  501 -0.23283214442E+02  0.36699476619E+01  0.75971773918E+02  0.79544245693E+02  0.00000000000E+00 0. -1.
<scales pt_clust_5="13000.00000" pt_clust_6="13000.00000" pt_clust_7="13000.00000" pt_clust_8="13000.00000" pt_clust_9="23.57067"></scales>
<clustering>
<clus scale="   23.571">  1  9  2 -1</clus>
<clus scale="   84.727">  7  8 -1 -1</clus>
<clus scale="   90.206">  5  6 -1 -1</clus>
<clus scale="   92.515">  2  7  1 -1</clus>
<clus scale="   23.571">  1  5  2 -1</clus>
</clustering>
</event>
<event>
 9    1  0.1234700E-005  0.1032081E+03  0.7546771E-02  0.1275078E+00
          1   -1    0    0  502    0  0.00000000000E+00  0.00000000000E+00  0.24262156291E+02  0.24262156291E+02  0.00000000000E+00 0. -1.
         -1   -1    0    0    0  501 -0.00000000000E+00 -0.00000000000E+00 -0.60455308105E+03  0.60455308105E+03  0.00000000000E+00 0.  1.
         23    2    1    2    0    0  0.15318911271E+01  0.56371167614E+02 -0.31470078103E+03  0.33200866185E+03  0.89516002660E+02 0.  0.
         23    2    1    2    0    0  0.14020986315E+02 -0.32524521467E+02 -0.23488566866E+03  0.25493391952E+03  0.92550491216E+02 0.  0.
        -11    1    4    4    0    0 -0.24595292355E+02 -0.49555544166E+02 -0.11036058940E+03  0.12345096215E+03  0.00000000000E+00 0. -1.
         11    1    4    4    0    0  0.38616278670E+02  0.17031022699E+02 -0.12452507926E+03  0.13148295737E+03  0.00000000000E+00 0.  1.
        -13    1    3    3    0    0  0.38366016353E+02  0.15114617114E+02 -0.20555056957E+03  0.20964598616E+03  0.00000000000E+00 0.  1.
         13    1    3    3    0    0 -0.36834125226E+02  0.41256550500E+02 -0.10915021146E+03  0.12236267569E+03  0.00000000000E+00 0. -1.
         21    1    1    2  502  501 -0.15552877442E+02 -0.23846646147E+02 -0.30704475063E+02  0.41872655971E+02  0.00000000000E+00 0. -1.
<scales pt_clust_5="13000.00000" pt_clust_6="13000.00000" pt_clust_7="13000.00000" pt_clust_8="13000.00000" pt_clust_9="28.47024"></scales>
<clustering>
<clus scale="   28.470">  1  9  2 -1</clus>
<clus scale="   89.516">  7  8 -1 -1</clus>
<clus scale="   92.550">  5  6 -1 -1</clus>
<clus scale="  100.496">  2  7  1 -1</clus>
<clus scale="   28.470">  1  5  2 -1</clus>
</clustering>
</event>
<event>
 9    1  0.1234700E-005  0.1546292E+03  0.7546771E-02  0.1196205E+00
         -1   -1    0    0    0  501 -0.00000000000E+00  0.00000000000E+00  0.65476746280E+03  0.65476746280E+03  0.00000000000E+00 0.  1.
          1   -1    0    0  502    0  0.00000000000E+00 -0.00000000000E+00 -0.10479877641E+03  0.10479877641E+03  0.00000000000E+00 0. -1.
         23    2    1    2    0    0 -0.41876475061E+02  0.11817961689E+03  0.54888843304E+03  0.57033053015E+03  0.90985387263E+02 0.  0.
         23    2    1    2    0    0  0.69074251367E+02 -0.10473587319E+03 -0.20480057658E+02  0.15201608665E+03  0.83358277955E+02 0.  0.
        -11    1    3    3    0    0 -0.21287192323E+02  0.84360944297E+01  0.22046338680E+02  0.31786055046E+02  0.00000000000E+00 0. -1.
         11    1    3    3    0    0 -0.20589282739E+02  0.10974352246E+03  0.52684209436E+03  0.53854447511E+03  0.00000000000E+00 0.  1.
        -13    1    4    4    0    0  0.58122961039E+02 -0.16039801851E+02 -0.16704772033E+02  0.62566790329E+02  0.00000000000E+00 0. -1.
         13    1    4    4    0    0  0.10951290328E+02 -0.88696071338E+02 -0.37752856249E+01  0.89449296320E+02  0.00000000000E+00 0.  1.
         21    1    1    2  502  501 -0.27197776306E+02 -0.13443743700E+02  0.21560311022E+02  0.37219622405E+02  0.00000000000E+00 0. -1.
<scales pt_clust_5="13000.00000" pt_clust_6="13000.00000" pt_clust_7="13000.00000" pt_clust_8="13000.00000" pt_clust_9="30.33897"></scales>
<clustering>
<clus scale="   30.339">  2  9  1 -1</clus>
<clus scale="   83.358">  7  8 -1 -1</clus>
<clus scale="   90.985">  5  6 -1 -1</clus>
<clus scale="  150.268">  2  7  1 -1</clus>
<clus scale="   30.339">  2  5  1 -1</clus>
</clustering>
</event>
<event>
 9    1  0.1234700E-005  0.2037602E+03  0.7546771E-02  0.1148637E+00
          1   -1    0    0  502    0  0.00000000000E+00  0.00000000000E+00  0.35916042256E+03  0.35916042256E+03  0.00000000000E+00 0. -1.
         -1   -1    0    0    0  501 -0.00000000000E+00 -0.00000000000E+00 -0.14384174323E+03  0.14384174323E+03  0.00000000000E+00 0.  1.
         23    2    1    2    0    0 -0.15952714903E+03  0.97956384713E+02  0.46145631234E+02  0.21148244631E+03  0.86896727383E+02 0.  0.
         23    2    1    2    0    0  0.14665829911E+03 -0.57226540485E+02  0.11389779725E+03  0.22166357541E+03  0.10667004645E+03 0.  0.
        -13    1    4    4    0    0  0.47196995474E+02 -0.66743685264E+02  0.19130531950E+02  0.83953875176E+02  0.00000000000E+00 0.  1.
         13    1    4    4    0    0  0.99461303632E+02  0.95171447790E+01  0.94767265300E+02  0.13770970023E+03  0.00000000000E+00 0. -1.
        -13    1    3    3    0    0 -0.39063730851E+02 -0.13151590814E+02 -0.44093617057E-01  0.41218216278E+02  0.00000000000E+00 0.  1.
         13    1    3    3    0    0 -0.12046341818E+03  0.11110797553E+03  0.46189724851E+02  0.17026423003E+03  0.00000000000E+00 0. -1.
         21    1    1    2  502  501  0.12868849928E+02 -0.40729844228E+02  0.55275250842E+02  0.69856144075E+02  0.00000000000E+00 0. -1.
<scales pt_clust_5="13000.00000" pt_clust_6="13000.00000" pt_clust_7="13000.00000" pt_clust_8="13000.00000" pt_clust_9="42.71449"></scales>
<clustering>
<clus scale="   42.714">  1  9  2 -1</clus>
<clus scale="   86.897">  7  8 -1 -1</clus>
<clus scale="  106.670">  5  6 -1 -1</clus>
<clus scale="  194.141">  2  7  1 -1</clus>
<clus scale="   42.714">  1  5  2 -1</clus>
</clustering>
</event>
<event>
 9    1  0.1234700E-005  0.1783752E+03  0.7546771E-02  0.1170061E+00
         -2   -1    0    0    0  501 -0.00000000000E+00  0.00000000000E+00  0.46924373069E+02  0.46924373069E+02  0.00000000000E+00 0.  1.
          2   -1    0    0  502    0  0.00000000000E+00 -0.00000000000E+00 -0.10089353110E+04  0.10089353110E+04  0.00000000000E+00 0. -1.
         23    2    1    2    0    0  0.89622981074E+02 -0.96354333526E+02 -0.19664907640E+03  0.25307417167E+03  0.89773274361E+02 0.  0.
         23    2    1    2    0    0 -0.92535097313E+02  0.12955412955E+03 -0.73388492443E+03  0.75694334355E+03  0.95021714981E+02 0.  0.
        -11    1    3    3    0    0  0.67858356548E+02 -0.91366903228E+02 -0.92790867495E+02  0.14684281613E+03  0.00000000000E+00 0.  1.
         11    1    3    3    0    0  0.21764624527E+02 -0.49874302980E+01 -0.10385820891E+03  0.10623135554E+03  0.00000000000E+00 0. -1.
        -11    1    4    4    0    0 -0.43424166820E+02 -0.34931805535E+01 -0.16759980886E+03  0.17316915575E+03  0.00000000000E+00 0.  1.
         11    1    4    4    0    0 -0.49110930493E+02  0.13304731010E+03 -0.56628511557E+03  0.58377418780E+03  0.00000000000E+00 0. -1.
         21    1    1    2  502  501  0.29121162381E+01 -0.33199796020E+02 -0.31476937117E+02  0.45842168873E+02  0.00000000000E+00 0. -1.
<scales pt_clust_5="13000.00000" pt_clust_6="13000.00000" pt_clust_7="13000.00000" pt_clust_8="13000.00000" pt_clust_9="33.32727"></scales>
<clustering>
<clus scale="   33.327">  1  9  2 -1</clus>
<clus scale="   89.773">  5  6 -1 -1</clus>
<clus scale="   95.022">  7  8 -1 -1</clus>
<clus scale="  175.635">  1  5  2 -1</clus>
<clus scale="  178.375">  2  5  1 -1</clus>
</clustering>
</event>
<event>
 9    1  0.1234700E-005  0.9929730E+02  0.7546771E-02  0.1282713E+00
         -2   -1    0    0    0  501 -0.00000000000E+00  0.00000000000E+00  0.12973134040E+03  0.12973134040E+03  0.00000000000E+00 0.  1.
          2   -1    0    0  502    0  0.00000000000E+00 -0.00000000000E+00 -0.20475299302E+03  0.20475299302E+03  0.00000000000E+00 0. -1.
         23    2    1    2    0    0 -0.19804022084E+02  0.41177608496E+02  0.43989245548E+02  0.11102429600E+03  0.91123794077E+02 0.  0.
         23    2    1    2    0    0  0.50210627837E+02  0.43873387847E+01 -0.11913029723E+02  0.10316589990E+03  0.89224025554E+02 0.  0.
        -13    1    4    4    0    0  0.14463839259E+02 -0.38981077989E+02  0.10132668235E+02  0.42794836755E+02  0.00000000000E+00 0.  1.
         13    1    4    4    0    0  0.35746788578E+02  0.43368416774E+02 -0.22045697957E+02  0.60371063147E+02  0.00000000000E+00 0. -1.
        -13    1    3    3    0    0  0.56015104303E+01  0.65190285574E+02  0.37671154417E+02  0.75500106804E+02  0.00000000000E+00 0. -1.
         13    1    3    3    0    0 -0.25405532514E+02 -0.24012677078E+02  0.63180911307E+01  0.35524189200E+02  0.00000000000E+00 0.  1.
         21    1    1    2  502  501 -0.30406605753E+02 -0.45564947281E+02 -0.10709786845E+03  0.12029413751E+03  0.00000000000E+00 0.  1.
<scales pt_clust_5="13000.00000" pt_clust_6="13000.00000" pt_clust_7="13000.00000" pt_clust_8="13000.00000" pt_clust_9="54.77888"></scales>
<clustering>
<clus scale="   54.779">  2  9  1 -1</clus>
<clus scale="   89.224">  5  6 -1 -1</clus>
<clus scale="   91.124">  7  8 -1 -1</clus>
<clus scale="   97.557">  2  5  1 -1</clus>
<clus scale="   54.779">  2  5  1 -1</clus>
</clustering>
</event>
<event>
 9    1  0.1234700E-005  0.3042368E+03  0.7546771E-02  0.1118435E+00
         -2   -1    0    0    0  501 -0.00000000000E+00  0.00000000000E+00  0.36093600502E+03  0.36093600502E+03  0.00000000000E+00 0.  1.
          2   -1    0    0  502    0  0.00000000000E+00 -0.00000000000E+00 -0.54990969531E+03  0.54990969531E+03  0.00000000000E+00 0. -1.
         23    2    1    2    0    0  0.80624946054E+02  0.24075500415E+01  0.14797137628E+03  0.19171297718E+03  0.91390148240E+02 0.  0.
         23    2    1    2    0    0  0.22948373650E+03 -0.55629460163E+02  0.52809559833E+01  0.25424712731E+03  0.94107869432E+02 0.  0.
        -11    1    4    4    0    0  0.10958035250E+03 -0.69550177909E+02  0.24315845968E+02  0.13204673894E+03  0.00000000000E+00 0.  1.
         11    1    4    4    0    0  0.11990338401E+03  0.13920717746E+02 -0.19034889985E+02  0.12220038836E+03  0.00000000000E+00 0. -1.
        -13    1    3    3    0    0  0.18641988355E+02  0.21749665277E+02 -0.15646837249E+01  0.28688323490E+02  0.00000000000E+00 0. -1.
         13    1    3    3    0    0  0.61982957699E+02 -0.19342115236E+02  0.14953606001E+03  0.16302465369E+03  0.00000000000E+00 0.  1.
         21    1    1    2  502  501 -0.31010868256E+03  0.53221910122E+02 -0.34222602256E+03  0.46488559585E+03  0.00000000000E+00 0. -1.
<scales pt_clust_5="13000.00000" pt_clust_6="13000.00000" pt_clust_7="13000.00000" pt_clust_8="13000.00000" pt_clust_9="289.31597"></scales>
<clustering>
<clus scale="   91.390">  7  8 -1 -1</clus>
<clus scale="   94.108">  5  6 -1 -1</clus>
<clus scale="  121.895">  1  7  2 -1</clus>
<clus scale="  289.316">  2  9  1 -1</clus>
<clus scale="  289.316">  2  5  1 -1</clus>
</clustering>
</event>
<event>
 9    1  0.1234700E-005  0.1071265E+03  0.7546771E-02  0.1267277E+00
          1   -1    0    0  502    0  0.00000000000E+00  0.00000000000E+00  0.75351437521E+02  0.75351437521E+02  0.00000000000E+00 0. -1.
         -1   -1    0    0    0  501 -0.00000000000E+00 -0.00000000000E+00 -0.51320271401E+03  0.51320271401E+03  0.00000000000E+00 0.  1.
         23    2    1    2    0    0  0.56363623145E+02  0.85378347045E+01 -0.37576442464E+03  0.39028088552E+03  0.88715918185E+02 0.  0.
         23    2    1    2    0    0 -0.47895820655E+02  0.59692914169E+02 -0.38620929887E+02  0.12562487812E+03  0.91830170090E+02 0.  0.
        -11    1    4    4    0    0 -0.19492372633E+02  0.79527434107E+02 -0.39628305626E+02  0.90966850958E+02  0.00000000000E+00 0.  1.
         11    1    4    4    0    0 -0.28403448023E+02 -0.19834519938E+02  0.10073757387E+01  0.34658027160E+02  0.00000000000E+00 0. -1.
        -13    1    3    3    0    0  0.42282833752E+02  0.47210196379E+02 -0.20198914192E+03  0.21169849817E+03  0.00000000000E+00 0.  1.
         13    1    3    3    0    0  0.14080789392E+02 -0.38672361675E+02 -0.17377528272E+03  0.17858238735E+03  0.00000000000E+00 0. -1.
         21    1    1    2  502  501 -0.84678024891E+01 -0.68230748873E+02 -0.23465921967E+02  0.72648387900E+02  0.00000000000E+00 0.  1.
<scales pt_clust_5="13000.00000" pt_clust_6="13000.00000" pt_clust_7="13000.00000" pt_clust_8="13000.00000" pt_clust_9="68.75419"></scales>
<clustering>
<clus scale="   68.754">  1  9  2 -1</clus>
<clus scale="   88.716">  7  8 -1 -1</clus>
<clus scale="   91.830">  5  6 -1 -1</clus>
<clus scale="  104.469">  2  7  1 -1</clus>
<clus scale="   68.754">  1  5  2 -1</clus>
</clustering>
</event>
<event>
 9    1  0.1234700E-005  0.1169187E+03  0.7546771E-02  0.1254241E+00
          1   -1    0    0  502    0  0.00000000000E+00  0.00000000000E+00  0.55389900300E+03  0.55389900300E+03  0.00000000000E+00 0. -1.
         -1   -1    0    0    0  501 -0.00000000000E+00 -0.00000000000E+00 -0.33830955128E+02  0.33830955128E+02  0.00000000000E+00 0.  1.
         23    2    1    2    0    0  0.84667613790E+01  0.41148697929E+02  0.15092430188E+03  0.18764055620E+03  0.10327599936E+03 0.  0.
         23    2    1    2    0    0 -0.13589720162E+02 -0.71188431582E+02  0.21966840579E+03  0.24753938510E+03  0.88142301932E+02 0.  0.
        -11    1    3    3    0    0 -0.41336535414E+02  0.38707258538E+02  0.10756791086E+03  0.12156404267E+03  0.00000000000E+00 0.  1.
         11    1    3    3    0    0  0.49803296793E+02  0.24414393912E+01  0.43356391014E+02  0.66076513524E+02  0.00000000000E+00 0. -1.
        -11    1    4    4    0    0 -0.38985479354E+00  0.20621877724E+02  0.30008474593E+02  0.36413217037E+02  0.00000000000E+00 0.  1.
         11    1    4    4    0    0 -0.13199865369E+02 -0.91810309306E+02  0.18965993120E+03  0.21112616807E+03  0.00000000000E+00 0. -1.
         21    1    1    2  502  501  0.51229587834E+01  0.30039733653E+02  0.14947534020E+03  0.15255001682E+03  0.00000000000E+00 0.  1.
<scales pt_clust_5="13000.00000" pt_clust_6="13000.00000" pt_clust_7="13000.00000" pt_clust_8="13000.00000" pt_clust_9="30.47344"></scales>
<clustering>
<clus scale="   30.473">  1  9  2 -1</clus>
<clus scale="   88.142">  7  8 -1 -1</clus>
<clus scale="  103.276">  5  6 -1 -1</clus>
<clus scale="  103.794">  1  7  2 -1</clus>
<clus scale="   30.473">  1  5  2 -1</clus>
</clustering>
</event>
<event>
 9    1  0.1234700E-005  0.1243818E+03  0.7546771E-02  0.1245273E+00
         -1   -1    0    0    0  501 -0.00000000000E+00  0.00000000000E+00  0.28566254382E+02  0.28566254382E+02  0.00000000000E+00 0.  1.
          1   -1    0    0  502    0  0.00000000000E+00 -0.00000000000E+00 -0.97880252323E+03  0.97880252323E+03  0.00000000000E+00 0. -1.
         23    2    1    2    0    0 -0.17666785257E+02  0.80585260659E+02 -0.18877007181E+03  0.22542122330E+03  0.91512230684E+02 0.  0.
         23    2    1    2    0    0 -0.39760380181E+02 -0.93844282584E+02 -0.54251360863E+03  0.55520118287E+03  0.59495383915E+02 0.  0.
        -11    1    3    3    0    0  0.22355437842E+02 -0.67493503392E+01 -0.62785245436E+02  0.66987359820E+02  0.00000000000E+00 0. -1.
         11    1    3    3    0    0 -0.40022223099E+02  0.87334610998E+02 -0.12598482638E+03  0.15843386348E+03  0.00000000000E+00 0.  1.
        -13    1    4    4    0    0 -0.54339027684E+02 -0.58908230849E+02 -0.37260749945E+03  0.38112892601E+03  0.00000000000E+00 0. -1.
         13    1    4    4    0    0  0.14578647503E+02 -0.34936051734E+02 -0.16990610917E+03  0.17407225686E+03  0.00000000000E+00 0.  1.
         21    1    1    2  502  501  0.57427165438E+02  0.13259021925E+02 -0.21895258841E+03  0.22674637145E+03  0.00000000000E+00 0.  1.
<scales pt_clust_5="13000.00000" pt_clust_6="13000.00000" pt_clust_7="13000.00000" pt_clust_8="13000.00000" pt_clust_9="58.93794"></scales>
<clustering>
<clus scale="   58.938">  2  9  1 -1</clus>
<clus scale="   59.495">  7  8 -1 -1</clus>
<clus scale="   91.512">  5  6 -1 -1</clus>
<clus scale="  103.131">  2  7  1 -1</clus>
<clus scale="   58.938">  2  5  1 -1</clus>
</clustering>
</event>
<event>
 9    1  0.1234700E-005  0.1265763E+03  0.7546771E-02  0.1233495E+00
         -1   -1    0    0    0  501 -0.00000000000E+00  0.00000000000E+00  0.70718090523E+02  0.70718090523E+02  0.00000000000E+00 0.  1.
          1   -1    0    0  502    0  0.00000000000E+00 -0.00000000000E+00 -0.27562069652E+03  0.27562069652E+03  0.00000000000E+00 0. -1.
         23    2    1    2    0    0 -0.43750875557E+01 -0.86808233312E+02 -0.72374491657E+02  0.14437137460E+03  0.89722995934E+02 0.  0.
         23    2    1    2    0    0 -0.17164025465E+02  0.84891020366E+02 -0.12718815402E+03  0.17969356519E+03  0.92800117129E+02 0.  0.
        -11    1    4    4    0    0  0.32517885859E+02  0.85209479263E+01 -0.20401033369E+02  0.39322024577E+02  0.00000000000E+00 0.  1.
         11    1    4    4    0    0 -0.49681911324E+02  0.76370072440E+02 -0.10678712065E+03  0.14037154062E+03  0.00000000000E+00 0. -1.
        -13    1    3    3    0    0 -0.27864601669E+02 -0.69289802813E+02 -0.98610857950E+01  0.75330961849E+02  0.00000000000E+00 0.  1.
         13    1    3    3    0    0  0.23489514113E+02 -0.17518430500E+02 -0.62513405862E+02  0.69040412752E+02  0.00000000000E+00 0. -1.
         21    1    1    2  502  501  0.21539113021E+02  0.19172129464E+01 -0.53399603184E+01  0.22273847252E+02  0.00000000000E+00 0. -1.
<scales pt_clust_5="13000.00000" pt_clust_6="13000.00000" pt_clust_7="13000.00000" pt_clust_8="13000.00000" pt_clust_9="21.62427"></scales>
<clustering>
<clus scale="   21.624">  1  9  2 -1</clus>
<clus scale="   89.723">  7  8 -1 -1</clus>
<clus scale="   92.800">  5  6 -1 -1</clus>
<clus scale="  124.338">  1  7  2 -1</clus>
<clus scale="  126.576">  2  5  1 -1</clus>
</clustering>
</event>
<event>
 9    1  0.1234700E-005  0.1404390E+03  0.7546771E-02  0.1214259E+00
         -2   -1    0    0    0  501 -0.00000000000E+00  0.00000000000E+00  0.46689282162E+03  0.46689282162E+03  0.00000000000E+00 0.  1.
          2   -1    0    0  502    0  0.00000000000E+00 -0.00000000000E+00 -0.84013489915E+02  0.84013489915E+02  0.00000000000E+00 0. -1.
         23    2    1    2    0    0 -0.62455101598E+02 -0.89533229100E+02  0.35993835620E+03  0.38658731379E+03  0.89315687826E+02 0.  0.
         23    2    1    2    0    0  0.42018249735E+02  0.67788511416E+02  0.38606699243E+02  0.13061569581E+03  0.95964405775E+02 0.  0.
        -11    1    4    4    0    0  0.34159917005E+02 -0.17901884140E+02  0.88791037551E+01  0.39575445279E+02  0.00000000000E+00 0. -1.
         11    1    4    4    0    0  0.78583327303E+01  0.85690395556E+02  0.29727595488E+02  0.91040250534E+02  0.00000000000E+00 0.  1.
        -13    1    3    3    0    0 -0.83862780065E+02 -0.54747358645E+02  0.26028721870E+03  0.27889007759E+03  0.00000000000E+00 0.  1.
         13    1    3    3    0    0  0.21407678467E+02 -0.34785870455E+02  0.99651137494E+02  0.10769723620E+03  0.00000000000E+00 0. -1.
         21    1    1    2  502  501  0.20436851863E+02  0.21744717684E+02 -0.15665723734E+02  0.33703301935E+02  0.00000000000E+00 0.  1.
<scales pt_clust_5="13000.00000" pt_clust_6="13000.00000" pt_clust_7="13000.00000" pt_clust_8="13000.00000" pt_clust_9="29.84121"></scales>
<clustering>
<clus scale="   29.841">  2  9  1 -1</clus>
<clus scale="   89.316">  7  8 -1 -1</clus>
<clus scale="   95.964">  5  6 -1 -1</clus>
<clus scale="  135.983">  1  7  2 -1</clus>
<clus scale="   29.841">  2  5  1 -1</clus>
</clustering>
</event>
<event>
 9    1  0.1234700E-005  0.1782301E+03  0.7546771E-02  0.1169529E+00
          1   -1    0    0  502    0  0.00000000000E+00  0.00000000000E+00  0.10181436207E+04  0.10181436207E+04  0.00000000000E+00 0. -1.
         -1   -1    0    0    0  501 -0.00000000000E+00 -0.00000000000E+00 -0.79719057810E+02  0.79719057810E+02  0.00000000000E+00 0.  1.
         23    2    1    2    0    0  0.25060504425E+02 -0.14416455403E+03  0.61917478166E+02  0.18371397709E+03  0.92225830200E+02 0.  0.
         23    2    1    2    0    0 -0.56063174514E+02  0.18136073127E+03  0.70005315558E+03  0.73117135237E+03  0.92208088054E+02 0.  0.
        -13    1    4    4    0    0 -0.76423601399E+02  0.11217536034E+03  0.51427425229E+03  0.53188521778E+03  0.00000000000E+00 0. -1.
         13    1    4    4    0    0  0.20360426885E+02  0.69185370931E+02  0.18577890329E+03  0.19928613460E+03  0.00000000000E+00 0.  1.
        -13    1    3    3    0    0 -0.16737765449E+00 -0.12976418367E+03  0.77095978327E+02  0.15093893220E+03  0.00000000000E+00 0.  1.
         13    1    3    3    0    0  0.25227882079E+02 -0.14400370358E+02 -0.15178500160E+02  0.32775044893E+02  0.00000000000E+00 0. -1.
         21    1    1    2  502  501  0.31002670089E+02 -0.37196177242E+02  0.17645392911E+03  0.18297734902E+03  0.00000000000E+00 0. -1.
<scales pt_clust_5="13000.00000" pt_clust_6="13000.00000" pt_clust_7="13000.00000" pt_clust_8="13000.00000" pt_clust_9="48.42232"></scales>
<clustering>
<clus scale="   48.422">  1  9  2 -1</clus>
<clus scale="   92.208">  5  6 -1 -1</clus>
<clus scale="   92.226">  7  8 -1 -1</clus>
<clus scale="  178.221">  1  5  2 -1</clus>
<clus scale="   48.422">  1  5  2 -1</clus>
</clustering>
</event>
<event>
 9    1  0.1234700E-005  0.1046857E+03  0.7546771E-02  0.1278643E+00
         -1   -1    0    0    0  501 -0.00000000000E+00  0.00000000000E+00  0.15248316424E+03  0.15248316424E+03  0.00000000000E+00 0.  1.
          1   -1    0    0  502    0  0.00000000000E+00 -0.00000000000E+00 -0.12187918417E+03  0.12187918417E+03  0.00000000000E+00 0. -1.
         23    2    1    2    0    0  0.23967210590E+02 -0.11990523843E+02  0.84915805312E+02  0.13580219503E+03  0.10253459093E+03 0.  0.
         23    2    1    2    0    0  0.32982537544E+01  0.20196316792E+02 -0.16627310347E+02  0.91328138321E+02  0.87439074275E+02 0.  0.
        -13    1    4    4    0    0 -0.24240717656E+02  0.45363478834E+02 -0.16518287786E+02  0.54021397944E+02  0.00000000000E+00 0.  1.
         13    1    4    4    0    0  0.27538971411E+02 -0.25167162043E+02 -0.10902256044E+00  0.37306740377E+02  0.00000000000E+00 0. -1.
        -13    1    3    3    0    0  0.23774601113E+02  0.10680004443E+02  0.10334778320E+03  0.10658357494E+03  0.00000000000E+00 0.  1.
         13    1    3    3    0    0  0.19260947686E+00 -0.22670528285E+02 -0.18431977892E+02  0.29218620094E+02  0.00000000000E+00 0. -1.
         21    1    1    2  502  501 -0.27265464344E+02 -0.82057929488E+01 -0.37684514898E+02  0.47232015063E+02  0.00000000000E+00 0. -1.
<scales pt_clust_5="13000.00000" pt_clust_6="13000.00000" pt_clust_7="13000.00000" pt_clust_8="13000.00000" pt_clust_9="28.47351"></scales>
<clustering>
<clus scale="   28.474">  2  9  1 -1</clus>
<clus scale="   87.439">  5  6 -1 -1</clus>
<clus scale="   89.952">  2  5  1 -1</clus>
<clus scale="  102.535">  7  8 -1 -1</clus>
<clus scale="   28.474">  2  5  1 -1</clus>
</clustering>
</event>
<event>
 9    1  0.1234700E-005  0.1014592E+03  0.7546771E-02  0.1278858E+00
          3   -1    0    0  502    0  0.00000000000E+00  0.00000000000E+00  0.62524653386E+02  0.62524653386E+02  0.00000000000E+00 0. -1.
         -3   -1    0    0    0  501 -0.00000000000E+00 -0.00000000000E+00 -0.29764872497E+03  0.29764872497E+03  0.00000000000E+00 0.  1.
         23    2    1    2    0    0  0.22035892385E+02 -0.33278582635E+02 -0.18784594624E+03  0.21414196894E+03  0.94750402246E+02 0.  0.
         23    2    1    2    0    0 -0.39729585886E+02 -0.93927142389E-01 -0.27787533075E+02  0.10352641694E+03  0.91471980370E+02 0.  0.
        -11    1    3    3    0    0  0.29232132693E+02 -0.63517017614E+02 -0.11025739964E+03  0.13055888818E+03  0.00000000000E+00 0.  1.
         11    1    3    3    0    0 -0.71962403081E+01  0.30238434979E+02 -0.77588546602E+02  0.83583080754E+02  0.00000000000E+00 0. -1.
        -11    1    4    4    0    0 -0.56402144108E+02 -0.11732085868E+02  0.11998742487E+02  0.58845675458E+02  0.00000000000E+00 0. -1.
         11    1    4    4    0    0  0.16672558223E+02  0.11638158726E+02 -0.39786275562E+02  0.44680741481E+02  0.00000000000E+00 0.  1.
         21    1    1    2  502  501  0.17693693501E+02  0.33372509777E+02 -0.19490592264E+02  0.42504992475E+02  0.00000000000E+00 0.  1.
<scales pt_clust_5="13000.00000" pt_clust_6="13000.00000" pt_clust_7="13000.00000" pt_clust_8="13000.00000" pt_clust_9="37.77289"></scales>
<clustering>
<clus scale="   37.773">  1  9  2 -1</clus>
<clus scale="   91.472">  7  8 -1 -1</clus>
<clus scale="   94.750">  5  6 -1 -1</clus>
<clus scale="   98.405">  1  7  2 -1</clus>
<clus scale="   37.773">  1  5  2 -1</clus>
</clustering>
</event>
<event>
 9    1  0.1234700E-005  0.1165009E+03  0.7546771E-02  0.1252501E+00
         -1   -1    0    0    0  501 -0.00000000000E+00  0.00000000000E+00  0.71881930571E+02  0.71881930571E+02  0.00000000000E+00 0.  1.
          1   -1    0    0  502    0  0.00000000000E+00 -0.00000000000E+00 -0.27719310699E+03  0.27719310699E+03  0.00000000000E+00 0. -1.
         23    2    1    2    0    0 -0.64777376674E+02 -0.79069444750E+01 -0.30818943023E+02  0.10753813037E+03  0.79724613102E+02 0.  0.
         23    2    1    2    0    0  0.90053312669E+02  0.16173509606E+00 -0.98492363323E+02  0.16107050762E+03  0.90185018224E+02 0.  0.
        -11    1    4    4    0    0  0.13617286444E+02 -0.37769003571E+02 -0.18871656695E+02  0.44362907335E+02  0.00000000000E+00 0.  1.
         11    1    4    4    0    0  0.76436026225E+02  0.37930738667E+02 -0.79620706628E+02  0.11670760029E+03  0.00000000000E+00 0. -1.
        -13    1    3    3    0    0 -0.44635177260E+02  0.30029264910E+02 -0.35314047516E+02  0.64351672488E+02  0.00000000000E+00 0. -1.
         13    1    3    3    0    0 -0.20142199414E+02 -0.37936209385E+02  0.44951044924E+01  0.43186457879E+02  0.00000000000E+00 0.  1.
         21    1    1    2  502  501 -0.25275935996E+02  0.77452093790E+01 -0.75999870069E+02  0.80466399567E+02  0.00000000000E+00 0. -1.
<scales pt_clust_5="13000.00000" pt_clust_6="13000.00000" pt_clust_7="13000.00000" pt_clust_8="13000.00000" pt_clust_9="26.43598"></scales>
<clustering>
<clus scale="   26.436">  2  9  1 -1</clus>
<clus scale="   79.725">  7  8 -1 -1</clus>
<clus scale="   90.185">  5  6 -1 -1</clus>
<clus scale="  108.605">  1  7  2 -1</clus>
<clus scale="   26.436">  2  5  1 -1</clus>
</clustering>
</event>
<event>
 9    1  0.1234700E-005  0.1130741E+03  0.7546771E-02  0.1256273E+00
         -1   -1    0    0    0  501 -0.00000000000E+00  0.00000000000E+00  0.47175326056E+02  0.47175326056E+02  0.00000000000E+00 0.  1.
          1   -1    0    0  502    0  0.00000000000E+00 -0.00000000000E+00 -0.41637748013E+03  0.41637748013E+03  0.00000000000E+00 0. -1.
         23    2    1    2    0    0 -0.83895561683E+01 -0.61702006406E+02 -0.15104901576E+03  0.18609290494E+03  0.89091199674E+02 0.  0.
         23    2    1    2    0    0 -0.41334468254E+02  0.73477704104E+02 -0.14515353284E+03  0.18835272948E+03  0.85438231139E+02 0.  0.
        -13    1    4    4    0    0 -0.61384087374E+02  0.22973640743E+02 -0.84020167242E+02  0.10656070033E+03  0.00000000000E+00 0.  1.
         13    1    4    4    0    0  0.20049619120E+02  0.50504063361E+02 -0.61133365601E+02  0.81792029150E+02  0.00000000000E+00 0. -1.
        -13    1    3    3    0    0 -0.35354537326E+02 -0.26147011170E+02 -0.21251459904E+02  0.48838858000E+02  0.00000000000E+00 0.  1.
         13    1    3    3    0    0  0.26964981157E+02 -0.35554995235E+02 -0.12979755586E+03  0.13725404694E+03  0.00000000000E+00 0. -1.
         21    1    1    2  502  501  0.49724024422E+02 -0.11775697698E+02 -0.72999605464E+02  0.89107171759E+02  0.00000000000E+00 0.  1.
<scales pt_clust_5="13000.00000" pt_clust_6="13000.00000" pt_clust_7="13000.00000" pt_clust_8="13000.00000" pt_clust_9="51.09937"></scales>
<clustering>
<clus scale="   51.099">  2  9  1 -1</clus>
<clus scale="   85.438">  5  6 -1 -1</clus>
<clus scale="   89.091">  7  8 -1 -1</clus>
<clus scale="  110.219">  2  5  1 -1</clus>
<clus scale="   51.099">  2  5  1 -1</clus>
</clustering>
</event>
<event>
 9    1  0.1234700E-005  0.1271892E+03  0.7546771E-02  0.1232567E+00
         -1   -1    0    0    0  501 -0.00000000000E+00  0.00000000000E+00  0.37943888893E+03  0.37943888893E+03  0.00000000000E+00 0.  1.
          1   -1    0    0  502    0  0.00000000000E+00 -0.00000000000E+00 -0.21072801519E+03  0.21072801519E+03  0.00000000000E+00 0. -1.
         23    2    1    2    0    0  0.87130726506E+02 -0.18663016350E+02  0.33860571840E+03  0.36232258262E+03  0.93186638839E+02 0.  0.
         23    2    1    2    0    0 -0.60957121939E+02  0.14465909815E+02 -0.84617699939E+02  0.13854222359E+03  0.90048649704E+02 0.  0.
        -13    1    3    3    0    0  0.30199620002E+02  0.21266458263E+02  0.35104007813E+02  0.50956556593E+02  0.00000000000E+00 0. -1.
         13    1    3    3    0    0  0.56931106504E+02 -0.39929474613E+02  0.30350171059E+03  0.31136602602E+03  0.00000000000E+00 0.  1.
        -13    1    4    4    0    0  0.88438371275E+01  0.25952394464E+02  0.10560319778E+01  0.27438211259E+02  0.00000000000E+00 0.  1.
         13    1    4    4    0    0 -0.69800959067E+02 -0.11486484650E+02 -0.85673731917E+02  0.11110401233E+03  0.00000000000E+00 0. -1.
         21    1    1    2  502  501 -0.26173604567E+02  0.41971065359E+01 -0.85277144725E+02  0.89302097914E+02  0.00000000000E+00 0. -1.
<scales pt_clust_5="13000.00000" pt_clust_6="13000.00000" pt_clust_7="13000.00000" pt_clust_8="13000.00000" pt_clust_9="26.50799"></scales>
<clustering>
<clus scale="   26.508">  2  9  1 -1</clus>
<clus scale="   90.049">  7  8 -1 -1</clus>
<clus scale="   93.187">  5  6 -1 -1</clus>
<clus scale="  124.908">  2  7  1 -1</clus>
<clus scale="   26.508">  2  5  1 -1</clus>
</clustering>
</event>
<event>
 9    1  0.1234700E-005  0.1306188E+03  0.7546771E-02  0.1226807E+00
          1   -1    0    0  502    0  0.00000000000E+00  0.00000000000E+00  0.18992978812E+03  0.18992978812E+03  0.00000000000E+00 0. -1.
         -1   -1    0    0    0  501 -0.00000000000E+00 -0.00000000000E+00 -0.17069845099E+03  0.17069845099E+03  0.00000000000E+00 0.  1.
         23    2    1    2    0    0 -0.36019413673E+02  0.95587109759E+02 -0.86627101767E+02  0.16201169985E+03  0.91155046008E+02 0.  0.
         23    2    1    2    0    0  0.20046043868E+02 -0.69613114367E+02  0.36397695200E+02  0.12275751281E+03  0.92178008055E+02 0.  0.
        -11    1    3    3    0    0 -0.15674588643E+02  0.15428424310E+02 -0.75412845887E+02  0.78554607316E+02  0.00000000000E+00 0.  1.
         11    1    3    3    0    0 -0.20344825030E+02  0.80158685449E+02 -0.11214255880E+02  0.83457092529E+02  0.00000000000E+00 0. -1.
        -13    1    4    4    0    0 -0.15381102372E+02 -0.78328050596E+02  0.17703477601E+02  0.81763530621E+02  0.00000000000E+00 0. -1.
         13    1    4    4    0    0  0.35427146240E+02  0.87149362293E+01  0.18694217599E+02  0.40993982190E+02  0.00000000000E+00 0.  1.
         21    1    1    2  502  501  0.15973369805E+02 -0.25973995392E+02  0.69460743701E+02  0.75859026457E+02  0.00000000000E+00 0. -1.
<scales pt_clust_5="13000.00000" pt_clust_6="13000.00000" pt_clust_7="13000.00000" pt_clust_8="13000.00000" pt_clust_9="30.49257"></scales>
<clustering>
<clus scale="   30.493">  1  9  2 -1</clus>
<clus scale="   91.155">  5  6 -1 -1</clus>
<clus scale="   92.178">  7  8 -1 -1</clus>
<clus scale="  129.899">  2  5  1 -1</clus>
<clus scale="   30.493">  1  5  2 -1</clus>
</clustering>
</event>
<event>
 9    1  0.1234700E-005  0.2298723E+03  0.7546771E-02  0.1126900E+00
          2   -1    0    0  502    0  0.00000000000E+00  0.00000000000E+00  0.58423286525E+03  0.58423286525E+03  0.00000000000E+00 0. -1.
         -2   -1    0    0    0  501 -0.00000000000E+00 -0.00000000000E+00 -0.14738213096E+03  0.14738213096E+03  0.00000000000E+00 0.  1.
         23    2    1    2    0    0  0.38190880280E+02 -0.21028545811E+03  0.18061994532E+02  0.23232276606E+03  0.89269898371E+02 0.  0.
         23    2    1    2    0    0 -0.60937087193E+02  0.19882902872E+03  0.28608772460E+03  0.36416932636E+03  0.86757137127E+02 0.  0.
        -13    1    3    3    0    0 -0.64653219339E+01 -0.12379615111E+03 -0.24032887882E+02  0.12627298650E+03  0.00000000000E+00 0.  1.
         13    1    3    3    0    0  0.44656202214E+02 -0.86489306993E+02  0.42094882414E+02  0.10604977956E+03  0.00000000000E+00 0. -1.
        -13    1    4    4    0    0  0.46639151055E+00  0.50965555327E+02  0.22382556200E+02  0.55665825898E+02  0.00000000000E+00 0.  1.
         13    1    4    4    0    0 -0.61403478703E+02  0.14786347339E+03  0.26370516840E+03  0.30850350047E+03  0.00000000000E+00 0. -1.
         21    1    1    2  502  501  0.22746206913E+02  0.11456429390E+02  0.13270101516E+03  0.13512290379E+03  0.00000000000E+00 0. -1.
<scales pt_clust_5="13000.00000" pt_clust_6="13000.00000" pt_clust_7="13000.00000" pt_clust_8="13000.00000" pt_clust_9="25.46841"></scales>
<clustering>
<clus scale="   25.468">  1  9  2 -1</clus>
<clus scale="   86.757">  7  8 -1 -1</clus>
<clus scale="   89.270">  5  6 -1 -1</clus>
<clus scale="  228.908">  1  7  2 -1</clus>
<clus scale="   25.468">  1  5  2 -1</clus>
</clustering>
</event>
<event>
 9    1  0.1234700E-005  0.1333957E+03  0.7546771E-02  0.1222730E+00
          2   -1    0    0  502    0  0.00000000000E+00  0.00000000000E+00  0.85415195985E+03  0.85415195985E+03  0.00000000000E+00 0. -1.
         -2   -1    0    0    0  501 -0.00000000000E+00 -0.00000000000E+00 -0.43178754450E+02  0.43178754450E+02  0.00000000000E+00 0.  1.
         23    2    1    2    0    0 -0.10229207590E+03  0.22421085021E+02  0.11820637619E+03  0.18193643447E+03  0.90342376381E+02 0.  0.
         23    2    1    2    0    0  0.81495389562E+02  0.19126708805E+02  0.39309431333E+03  0.41214135222E+03  0.91268973483E+02 0.  0.
        -11    1    4    4    0    0  0.74315642107E+02 -0.24009363022E+02  0.21461993453E+03  0.22838778529E+03  0.00000000000E+00 0. -1.
         11    1    4    4    0    0  0.71797474543E+01  0.43136071827E+02  0.17847437881E+03  0.18375356692E+03  0.00000000000E+00 0.  1.
        -11    1    3    3    0    0 -0.67305959986E+01  0.40375111967E+02  0.38788107762E+02  0.56391204036E+02  0.00000000000E+00 0. -1.
         11    1    3    3    0    0 -0.95561479903E+02 -0.17954026946E+02  0.79418268426E+02  0.12554523043E+03  0.00000000000E+00 0.  1.
         21    1    1    2  502  501  0.20796686340E+02 -0.41547793827E+02  0.29967251588E+03  0.30325292762E+03  0.00000000000E+00 0. -1.
<scales pt_clust_5="13000.00000" pt_clust_6="13000.00000" pt_clust_7="13000.00000" pt_clust_8="13000.00000" pt_clust_9="46.46204"></scales>
<clustering>
<clus scale="   46.462">  1  9  2 -1</clus>
<clus scale="   90.342">  7  8 -1 -1</clus>
<clus scale="   91.269">  5  6 -1 -1</clus>
<clus scale="  132.763">  2  7  1 -1</clus>
<clus scale="   46.462">  1  5  2 -1</clus>
</clustering>
</event>
<event>
 9    1  0.1234700E-005  0.9665827E+02  0.7546771E-02  0.1287939E+00
         -1   -1    0    0    0  501 -0.00000000000E+00  0.00000000000E+00  0.27879018781E+03  0.27879018781E+03  0.00000000000E+00 0.  1.
          1   -1    0    0  502    0  0.00000000000E+00 -0.00000000000E+00 -0.18612884447E+03  0.18612884447E+03  0.00000000000E+00 0. -1.
         23    2    1    2    0    0  0.25157356764E+02 -0.16540618137E+02  0.24915095124E+03  0.26701973061E+03  0.91196794801E+02 0.  0.
         23    2    1    2    0    0 -0.34744553181E+01  0.28069057513E+02 -0.12985927280E+03  0.16167461565E+03  0.92061429419E+02 0.  0.
        -13    1    4    4    0    0 -0.45639130441E+02  0.11067334132E+02 -0.43179747012E+02  0.63795820116E+02  0.00000000000E+00 0. -1.
         13    1    4    4    0    0  0.42164675123E+02  0.17001723381E+02 -0.86679525784E+02  0.97878795539E+02  0.00000000000E+00 0.  1.
        -13    1    3    3    0    0 -0.23008041749E+02  0.11035884396E+01  0.15403736592E+02  0.27710340914E+02  0.00000000000E+00 0. -1.
         13    1    3    3    0    0  0.48165398513E+02 -0.17644206577E+02  0.23374721465E+03  0.23930938969E+03  0.00000000000E+00 0.  1.
         21    1    1    2  502  501 -0.21682901446E+02 -0.11528439376E+02 -0.26630335106E+02  0.36224686022E+02  0.00000000000E+00 0. -1.
<scales pt_clust_5="13000.00000" pt_clust_6="13000.00000" pt_clust_7="13000.00000" pt_clust_8="13000.00000" pt_clust_9="24.55714"></scales>
<clustering>
<clus scale="   24.557">  2  9  1 -1</clus>
<clus scale="   91.197">  7  8 -1 -1</clus>
<clus scale="   92.061">  5  6 -1 -1</clus>
<clus scale="   95.835">  1  7  2 -1</clus>
<clus scale="   24.557">  2  5  1 -1</clus>
</clustering>
</event>
<event>
 9    1  0.1234700E-005  0.1497935E+03  0.7546771E-02  0.1201264E+00
         -1   -1    0    0    0  501 -0.00000000000E+00  0.00000000000E+00  0.41059293323E+03  0.41059293323E+03  0.00000000000E+00 0.  1.
          1   -1    0    0  502    0  0.00000000000E+00 -0.00000000000E+00 -0.69738134519E+02  0.69738134519E+02  0.00000000000E+00 0. -1.
         23    2    1    2    0    0 -0.19036524029E+02  0.10954448963E+03  0.22308580275E+03  0.26508008768E+03  0.90209716979E+02 0.  0.
         23    2    1    2    0    0  0.28900331057E+02 -0.12703078824E+03  0.10558030735E+03  0.19176418681E+03  0.93028230905E+02 0.  0.
        -11    1    4    4    0    0 -0.25258679134E+02 -0.51839763214E+02  0.74106366401E+02  0.93899496606E+02  0.00000000000E+00 0.  1.
         11    1    4    4    0    0  0.54159010192E+02 -0.75191025023E+02  0.31473940952E+02  0.97864690201E+02  0.00000000000E+00 0. -1.
        -13    1    3    3    0    0 -0.35759522797E+02  0.27829191117E+02  0.14080765423E+03  0.14791890629E+03  0.00000000000E+00 0.  1.
         13    1    3    3    0    0  0.16722998768E+02  0.81715298516E+02  0.82278148523E+02  0.11716118139E+03  0.00000000000E+00 0. -1.
         21    1    1    2  502  501 -0.98638070287E+01  0.17486298604E+02  0.12188688606E+02  0.23486793266E+02  0.00000000000E+00 0.  1.
<scales pt_clust_5="13000.00000" pt_clust_6="13000.00000" pt_clust_7="13000.00000" pt_clust_8="13000.00000" pt_clust_9="20.07649"></scales>
<clustering>
<clus scale="   20.076">  2  9  1 -1</clus>
<clus scale="   90.210">  7  8 -1 -1</clus>
<clus scale="   93.028">  5  6 -1 -1</clus>
<clus scale="  148.060">  1  7  2 -1</clus>
<clus scale="   20.076">  2  5  1 -1</clus>
</clustering>
</event>
<event>
 9    1  0.1234700E-005  0.1644059E+03  0.7546771E-02  0.1184091E+00
         -1   -1    0    0    0  501 -0.00000000000E+00  0.00000000000E+00  0.49313357845E+02  0.49313357845E+02  0.00000000000E+00 0.  1.
          1   -1    0    0  502    0  0.00000000000E+00 -0.00000000000E+00 -0.10943424110E+04  0.10943424110E+04  0.00000000000E+00 0. -1.
         23    2    1    2    0    0 -0.79795407608E+02  0.63862438443E+02 -0.24547061901E+03  0.28169429273E+03  0.93006083905E+02 0.  0.
         23    2    1    2    0    0  0.13176575908E+03 -0.14226211022E+03 -0.42747461346E+03  0.47817273789E+03  0.91180583670E+02 0.  0.
        -11    1    4    4    0    0  0.79549039004E+02 -0.71122149878E+02 -0.13163885650E+03  0.16945559404E+03  0.00000000000E+00 0.  1.
         11    1    4    4    0    0  0.52216720080E+02 -0.71139960338E+02 -0.29583575696E+03  0.30871714385E+03  0.00000000000E+00 0. -1.
        -11    1    3    3    0    0 -0.37849333139E+02  0.83489141004E+02 -0.15564320809E+03  0.18063171624E+03  0.00000000000E+00 0. -1.
         11    1    3    3    0    0 -0.41946074469E+02 -0.19626702561E+02 -0.89827410916E+02  0.10106257650E+03  0.00000000000E+00 0.  1.
         21    1    1    2  502  501 -0.51970351477E+02  0.78399671774E+02 -0.37208382066E+03  0.38378873819E+03  0.00000000000E+00 0. -1.
<scales pt_clust_5="13000.00000" pt_clust_6="13000.00000" pt_clust_7="13000.00000" pt_clust_8="13000.00000" pt_clust_9="94.06076"></scales>
<clustering>
<clus scale="   91.181">  5  6 -1 -1</clus>
<clus scale="   93.006">  7  8 -1 -1</clus>
<clus scale="   94.061">  2  9  1 -1</clus>
<clus scale="  163.380">  2  5  1 -1</clus>
<clus scale="   94.061">  2  5  1 -1</clus>
</clustering>
</event>
<event>
 9    1  0.1234700E-005  0.1122934E+03  0.7546771E-02  0.1256740E+00
         -1   -1    0    0    0  501 -0.00000000000E+00  0.00000000000E+00  0.12871989183E+03  0.12871989183E+03  0.00000000000E+00 0.  1.
          1   -1    0    0  502    0  0.00000000000E+00 -0.00000000000E+00 -0.26790996436E+03  0.26790996436E+03  0.00000000000E+00 0. -1.
         23    2    1    2    0    0  0.62098690155E+02  0.25464478267E+02  0.80507919351E+02  0.13904618427E+03  0.91365361650E+02 0.  0.
         23    2    1    2    0    0 -0.57880974107E+02 -0.86780456476E+00 -0.15780707281E+03  0.19085083631E+03  0.90388103436E+02 0.  0.
        -11    1    3    3    0    0  0.23094738921E+02 -0.34631032679E+02  0.26800353761E+02  0.49506912164E+02  0.00000000000E+00 0. -1.
         11    1    3    3    0    0  0.39003951234E+02  0.60095510946E+02  0.53707565590E+02  0.89539272106E+02  0.00000000000E+00 0.  1.
        -11    1    4    4    0    0  0.23687898192E+02 -0.57021728129E+01 -0.24921894912E+02  0.34853007640E+02  0.00000000000E+00 0.  1.
         11    1    4    4    0    0 -0.81568872299E+02  0.48343682481E+01 -0.13288517790E+03  0.15599782867E+03  0.00000000000E+00 0. -1.
         21    1    1    2  502  501 -0.42177160480E+01 -0.24596673702E+02 -0.61890919073E+02  0.66732835618E+02  0.00000000000E+00 0. -1.
<scales pt_clust_5="13000.00000" pt_clust_6="13000.00000" pt_clust_7="13000.00000" pt_clust_8="13000.00000" pt_clust_9="24.95567"></scales>
<clustering>
<clus scale="   24.956">  2  9  1 -1</clus>
<clus scale="   90.388">  7  8 -1 -1</clus>
<clus scale="   91.365">  5  6 -1 -1</clus>
<clus scale="  111.500">  2  7  1 -1</clus>
<clus scale="   24.956">  2  5  1 -1</clus>
</clustering>
</event>
<event>
 9    1  0.1234700E-005  0.1381439E+03  0.7546771E-02  0.1218422E+00
         -1   -1    0    0    0  501 -0.00000000000E+00  0.00000000000E+00  0.77756961249E+02  0.77756961249E+02  0.00000000000E+00 0.  1.
          1   -1    0    0  502    0  0.00000000000E+00 -0.00000000000E+00 -0.60039476690E+03  0.60039476690E+03  0.00000000000E+00 0. -1.
         23    2    1    2    0    0 -0.82283127915E+02  0.52031725966E+02 -0.90330405526E+01  0.13605637180E+03  0.94614622756E+02 0.  0.
         23    2    1    2    0    0  0.10744958279E+03 -0.57142975333E+02 -0.44395367755E+03  0.46786093497E+03  0.83595778511E+02 0.  0.
        -11    1    4    4    0    0  0.74852928910E+02  0.43757962657E+01 -0.18265098004E+03  0.19744236899E+03  0.00000000000E+00 0.  1.
         11    1    4    4    0    0  0.32596653884E+02 -0.61518771599E+02 -0.26130269750E+03  0.27041856598E+03  0.00000000000E+00 0. -1.
        -11    1    3    3    0    0 -0.80297274478E+02  0.12949926635E+02  0.24047443337E+02  0.84815284115E+02  0.00000000000E+00 0.  1.
         11    1    3    3    0    0 -0.19858534367E+01  0.39081799331E+02 -0.33080483889E+02  0.51241087685E+02  0.00000000000E+00 0. -1.
         21    1    1    2  502  501 -0.25166454879E+02  0.51112493679E+01 -0.69651087554E+02  0.74234421388E+02  0.00000000000E+00 0.  1.
<scales pt_clust_5="13000.00000" pt_clust_6="13000.00000" pt_clust_7="13000.00000" pt_clust_8="13000.00000" pt_clust_9="25.68025"></scales>
<clustering>
<clus scale="   25.680">  2  9  1 -1</clus>
<clus scale="   83.596">  5  6 -1 -1</clus>
<clus scale="   94.615">  7  8 -1 -1</clus>
<clus scale="  130.844">  2  5  1 -1</clus>
<clus scale="   25.680">  2  5  1 -1</clus>
</clustering>
</event>
<event>
 9    1  0.1234700E-005  0.1269304E+03  0.7546771E-02  0.1232619E+00
         -2   -1    0    0    0  501 -0.00000000000E+00  0.00000000000E+00  0.78649923807E+02  0.78649923807E+02  0.00000000000E+00 0.  1.
          2   -1    0    0  502    0  0.00000000000E+00 -0.00000000000E+00 -0.63906338490E+03  0.63906338490E+03  0.00000000000E+00 0. -1.
         23    2    1    2    0    0 -0.33781388359E+02 -0.76927569256E+02  0.92178162486E+01  0.12584359599E+03  0.93234164357E+02 0.  0.
         23    2    1    2    0    0  0.50254478598E+02  0.91251411636E+02 -0.47782627118E+03  0.49750502484E+03  0.91328919652E+02 0.  0.
        -11    1    4    4    0    0  0.73415708040E+02  0.68115726401E+02 -0.28896272525E+03  0.30582523596E+03  0.00000000000E+00 0.  1.
         11    1    4    4    0    0 -0.23161229442E+02  0.23135685235E+02 -0.18886354594E+03  0.19167978888E+03  0.00000000000E+00 0. -1.
        -13    1    3    3    0    0 -0.47750761455E+02 -0.31116777428E+02 -0.29574298828E+02  0.64210810680E+02  0.00000000000E+00 0.  1.
         13    1    3    3    0    0  0.13969373096E+02 -0.45810791828E+02  0.38792115076E+02  0.61632785307E+02  0.00000000000E+00 0. -1.
         21    1    1    2  502  501 -0.16473090239E+02 -0.14323842380E+02 -0.91805006156E+02  0.94364687876E+02  0.00000000000E+00 0.  1.
<scales pt_clust_5="13000.00000" pt_clust_6="13000.00000" pt_clust_7="13000.00000" pt_clust_8="13000.00000" pt_clust_9="21.82969"></scales>
<clustering>
<clus scale="   21.830">  2  9  1 -1</clus>
<clus scale="   91.329">  5  6 -1 -1</clus>
<clus scale="   93.234">  7  8 -1 -1</clus>
<clus scale="  125.538">  2  5  1 -1</clus>
<clus scale="   21.830">  2  5  1 -1</clus>
</clustering>
</event>
<event>
 9    1  0.1234700E-005  0.1475919E+03  0.7546771E-02  0.1203511E+00
         -2   -1    0    0    0  501 -0.00000000000E+00  0.00000000000E+00  0.13708729508E+03  0.13708729508E+03  0.00000000000E+00 0.  1.
          2   -1    0    0  502    0  0.00000000000E+00 -0.00000000000E+00 -0.19723645099E+03  0.19723645099E+03  0.00000000000E+00 0. -1.
         23    2    1    2    0    0 -0.62246811608E+02  0.96831104264E+02 -0.62981336716E+01  0.14655673736E+03  0.90489129009E+02 0.  0.
         23    2    1    2    0    0  0.87484355543E+02 -0.82245918675E+02 -0.41566547789E+02  0.15613522763E+03  0.90733278387E+02 0.  0.
        -11    1    3    3    0    0 -0.84307239627E+02  0.82607092012E+02  0.46324751372E+01  0.11812324974E+03  0.00000000000E+00 0.  1.
         11    1    3    3    0    0  0.22060428019E+02  0.14224012252E+02 -0.10930608809E+02  0.28433487613E+02  0.00000000000E+00 0. -1.
        -11    1    4    4    0    0  0.60078275004E+02 -0.99287381208E+02 -0.43181346436E+02  0.12382250149E+03  0.00000000000E+00 0. -1.
         11    1    4    4    0    0  0.27406080540E+02  0.17041462533E+02  0.16147986462E+01  0.32312726138E+02  0.00000000000E+00 0.  1.
         21    1    1    2  502  501 -0.25237543936E+02 -0.14585185589E+02 -0.12284474452E+02  0.31631781093E+02  0.00000000000E+00 0. -1.
<scales pt_clust_5="13000.00000" pt_clust_6="13000.00000" pt_clust_7="13000.00000" pt_clust_8="13000.00000" pt_clust_9="29.14895"></scales>
<clustering>
<clus scale="   29.149">  2  9  1 -1</clus>
<clus scale="   90.489">  5  6 -1 -1</clus>
<clus scale="   90.733">  7  8 -1 -1</clus>
<clus scale="  147.442">  1  5  2 -1</clus>
<clus scale="   29.149">  2  5  1 -1</clus>
</clustering>
</event>
<event>
 9    1  0.1234700E-005  0.1025606E+03  0.7546771E-02  0.1276277E+00
         -3   -1    0    0    0  501 -0.00000000000E+00  0.00000000000E+00  0.21541583601E+03  0.21541583601E+03  0.00000000000E+00 0.  1.
          3   -1    0    0  502    0  0.00000000000E+00 -0.00000000000E+00 -0.83901032962E+02  0.83901032962E+02  0.00000000000E+00 0. -1.
         23    2    1    2    0    0 -0.21481087006E+02 -0.42552669323E+02  0.13823741282E+03  0.17265578736E+03  0.91805619874E+02 0.  0.
         23    2    1    2    0    0 -0.37444987012E+01  0.45105465645E+02  0.18655985686E+01  0.99891616430E+02  0.89029940320E+02 0.  0.
        -11    1    4    4    0    0 -0.25031057378E+02  0.90427202229E+00  0.33267606792E+02  0.41642588812E+02  0.00000000000E+00 0.  1.
         11    1    4    4    0    0  0.21286558677E+02  0.44201193622E+02 -0.31402008223E+02  0.58249027617E+02  0.00000000000E+00 0. -1.
        -13    1    3    3    0    0 -0.18346249563E+02 -0.68806107253E+02  0.12303596822E+03  0.14215735909E+03  0.00000000000E+00 0.  1.
         13    1    3    3    0    0 -0.31348374434E+01  0.26253437930E+02  0.15201444602E+02  0.30498428269E+02  0.00000000000E+00 0. -1.
         21    1    1    2  502  501  0.25225585707E+02 -0.25527963211E+01 -0.85882083444E+01  0.26769465178E+02  0.00000000000E+00 0. -1.
<scales pt_clust_5="13000.00000" pt_clust_6="13000.00000" pt_clust_7="13000.00000" pt_clust_8="13000.00000" pt_clust_9="25.35443"></scales>
<clustering>
<clus scale="   25.354">  2  9  1 -1</clus>
<clus scale="   89.030">  5  6 -1 -1</clus>
<clus scale="   91.806">  7  8 -1 -1</clus>
<clus scale="  100.084">  2  5  1 -1</clus>
<clus scale="   25.354">  2  5  1 -1</clus>
</clustering>
</event>
<event>
 9    1  0.1234700E-005  0.1385519E+03  0.7546771E-02  0.1215382E+00
          2   -1    0    0  502    0  0.00000000000E+00  0.00000000000E+00  0.28379407062E+03  0.28379407062E+03  0.00000000000E+00 0. -1.
         -2   -1    0    0    0  501 -0.00000000000E+00 -0.00000000000E+00 -0.17869324862E+03  0.17869324862E+03  0.00000000000E+00 0.  1.
         23    2    1    2    0    0 -0.48917465389E+02  0.95364843679E+02 -0.52343788743E+02  0.15047655844E+03  0.91738490234E+02 0.  0.
         23    2    1    2    0    0  0.43188800143E+01 -0.10406881417E+03 -0.91174377602E+01  0.13936166893E+03  0.92138896722E+02 0.  0.
        -11    1    3    3    0    0 -0.74777187904E+02  0.55962083353E+02 -0.28455266620E+02  0.97637517392E+02  0.00000000000E+00 0.  1.
         11    1    3    3    0    0  0.25859722515E+02  0.39402760326E+02 -0.23888522123E+02  0.52839041049E+02  0.00000000000E+00 0. -1.
        -13    1    4    4    0    0  0.10098013967E+02 -0.40437453021E+02 -0.48778240414E+02  0.64159755539E+02  0.00000000000E+00 0.  1.
         13    1    4    4    0    0 -0.57791339529E+01 -0.63631361148E+02  0.39660802654E+02  0.75201913393E+02  0.00000000000E+00 0. -1.
         21    1    1    2  502  501  0.44598585375E+02  0.87039704900E+01  0.16656204851E+03  0.17264909187E+03  0.00000000000E+00 0. -1.
<scales pt_clust_5="13000.00000" pt_clust_6="13000.00000" pt_clust_7="13000.00000" pt_clust_8="13000.00000" pt_clust_9="45.43999"></scales>
<clustering>
<clus scale="   45.440">  1  9  2 -1</clus>
<clus scale="   91.738">  5  6 -1 -1</clus>
<clus scale="   92.139">  7  8 -1 -1</clus>
<clus scale="  138.286">  2  5  1 -1</clus>
<clus scale="   45.440">  1  5  2 -1</clus>
</clustering>
</event>
<event>
 9    1  0.1234700E-005  0.9864446E+02  0.7546771E-02  0.1283626E+00
         -2   -1    0    0    0  501 -0.00000000000E+00  0.00000000000E+00  0.51719800890E+02  0.51719800890E+02  0.00000000000E+00 0.  1.
          2   -1    0    0  502    0  0.00000000000E+00 -0.00000000000E+00 -0.46031765673E+03  0.46031765673E+03  0.00000000000E+00 0. -1.
         23    2    1    2    0    0 -0.18042841394E+02 -0.29649274963E+02 -0.26824434074E+02  0.10171911525E+03  0.91774748775E+02 0.  0.
         23    2    1    2    0    0 -0.48469744722E+01  0.47289699297E+02 -0.18577474743E+03  0.21220067889E+03  0.90868380185E+02 0.  0.
        -13    1    4    4    0    0 -0.77734024978E+01 -0.25145650961E+02 -0.77931881583E+02  0.82256353650E+02  0.00000000000E+00 0.  1.
         13    1    4    4    0    0  0.29264280256E+01  0.72435350258E+02 -0.10784286584E+03  0.12994432524E+03  0.00000000000E+00 0. -1.
        -13    1    3    3    0    0 -0.46665774675E+02  0.77811440085E+01  0.37621218895E+00  0.47311544719E+02  0.00000000000E+00 0.  1.
         13    1    3    3    0    0  0.28622933281E+02 -0.37430418972E+02 -0.27200646263E+02  0.54407570532E+02  0.00000000000E+00 0. -1.
         21    1    1    2  502  501  0.22889815867E+02 -0.17640424333E+02 -0.19599867433E+03  0.19811766348E+03  0.00000000000E+00 0.  1.
<scales pt_clust_5="13000.00000" pt_clust_6="13000.00000" pt_clust_7="13000.00000" pt_clust_8="13000.00000" pt_clust_9="28.89859"></scales>
<clustering>
<clus scale="   28.899">  2  9  1 -1</clus>
<clus scale="   90.868">  5  6 -1 -1</clus>
<clus scale="   91.775">  7  8 -1 -1</clus>
<clus scale="   97.802">  2  5  1 -1</clus>
<clus scale="   28.899">  2  5  1 -1</clus>
</clustering>
</event>
<event>
 9    1  0.1234700E-005  0.1615404E+03  0.7546771E-02  0.1188247E+00
          1   -1    0    0  502    0  0.00000000000E+00  0.00000000000E+00  0.42841992267E+03  0.42841992267E+03  0.00000000000E+00 0. -1.
         -1   -1    0    0    0  501 -0.00000000000E+00 -0.00000000000E+00 -0.11286818084E+03  0.11286818084E+03  0.00000000000E+00 0.  1.
         23    2    1    2    0    0  0.10549063245E+03  0.21382915180E+02  0.56014098082E+02  0.15218191529E+03  0.91849080338E+02 0.  0.
         23    2    1    2    0    0 -0.16685431420E+03 -0.29559037327E+02  0.91367719038E+02  0.20990386126E+03  0.83650893810E+02 0.  0.
        -11    1    3    3    0    0  0.21420157076E+02 -0.32694481677E+02  0.34378600503E+01  0.39237369217E+02  0.00000000000E+00 0.  1.
         11    1    3    3    0    0  0.84070475378E+02  0.54077396858E+02  0.52576238032E+02  0.11294454607E+03  0.00000000000E+00 0. -1.
        -13    1    4    4    0    0 -0.41785776722E+02 -0.92286020346E+01 -0.14087156737E+02  0.45051817019E+02  0.00000000000E+00 0. -1.
         13    1    4    4    0    0 -0.12506853748E+03 -0.20330435292E+02  0.10545487578E+03  0.16485204424E+03  0.00000000000E+00 0.  1.
         21    1    1    2  502  501  0.61363681748E+02  0.81761221463E+01  0.16816992471E+03  0.17920232696E+03  0.00000000000E+00 0. -1.
<scales pt_clust_5="13000.00000" pt_clust_6="13000.00000" pt_clust_7="13000.00000" pt_clust_8="13000.00000" pt_clust_9="61.90598"></scales>
<clustering>
<clus scale="   61.906">  1  9  2 -1</clus>
<clus scale="   83.651">  7  8 -1 -1</clus>
<clus scale="   91.849">  5  6 -1 -1</clus>
<clus scale="  157.024">  1  7  2 -1</clus>
<clus scale="   61.906">  1  5  2 -1</clus>
</clustering>
</event>
<event>
 9    1  0.1234700E-005  0.9912418E+02  0.7546771E-02  0.1282793E+00
          2   -1    0    0  502    0  0.00000000000E+00  0.00000000000E+00  0.70133019811E+02  0.70133019811E+02  0.00000000000E+00 0. -1.
         -2   -1    0    0    0  501 -0.00000000000E+00 -0.00000000000E+00 -0.33550992226E+03  0.33550992226E+03  0.00000000000E+00 0.  1.
         23    2    1    2    0    0 -0.30300457325E+02 -0.38728145189E+02 -0.24766665176E+03  0.26769507622E+03  0.88903860981E+02 0.  0.
         23    2    1    2    0    0  0.81361388788E+01  0.14113969607E+02 -0.37840168719E+02  0.99187986437E+02  0.90227364978E+02 0.  0.
        -11    1    4    4    0    0  0.31571142900E+02  0.43673728961E+02 -0.24213508696E+02  0.59079824549E+02  0.00000000000E+00 0. -1.
         11    1    4    4    0    0 -0.23435004022E+02 -0.29559759355E+02 -0.13626660024E+02  0.40108161888E+02  0.00000000000E+00 0.  1.
        -13    1    3    3    0    0 -0.79428897057E+00  0.25531458880E+02 -0.33308500925E+02  0.41975499061E+02  0.00000000000E+00 0. -1.
         13    1    3    3    0    0 -0.29506168355E+02 -0.64259604070E+02 -0.21435815083E+03  0.22571957716E+03  0.00000000000E+00 0.  1.
         21    1    1    2  502  501  0.22164318446E+02  0.24614175583E+02  0.20129918031E+02  0.38759879408E+02  0.00000000000E+00 0. -1.
<scales pt_clust_5="13000.00000" pt_clust_6="13000.00000" pt_clust_7="13000.00000" pt_clust_8="13000.00000" pt_clust_9="33.12272"></scales>
<clustering>
<clus scale="   33.123">  1  9  2 -1</clus>
<clus scale="   88.904">  7  8 -1 -1</clus>
<clus scale="   90.227">  5  6 -1 -1</clus>
<clus scale="   97.921">  2  7  1 -1</clus>
<clus scale="   33.123">  1  5  2 -1</clus>
</clustering>
</event>
<event>
 9    1  0.1234700E-005  0.1029792E+03  0.7546771E-02  0.1274860E+00
         -2   -1    0    0    0  501 -0.00000000000E+00  0.00000000000E+00  0.43341404360E+02  0.43341404360E+02  0.00000000000E+00 0.  1.
          2   -1    0    0  502    0  0.00000000000E+00 -0.00000000000E+00 -0.46224559631E+03  0.46224559631E+03  0.00000000000E+00 0. -1.
         23    2    1    2    0    0 -0.26546435722E+02  0.28782535311E+02 -0.56843131417E+02  0.11518492007E+03  0.92213212897E+02 0.  0.
         23    2    1    2    0    0  0.33881411983E+02 -0.57674620237E+02 -0.24596883322E+03  0.27054399915E+03  0.90659123433E+02 0.  0.
        -11    1    3    3    0    0 -0.12830216878E+02  0.60831770532E+02 -0.49713236068E+02  0.79602290241E+02  0.00000000000E+00 0. -1.
         11    1    3    3    0    0 -0.13716218844E+02 -0.32049235221E+02 -0.71298953492E+01  0.35582629826E+02  0.00000000000E+00 0.  1.
        -11    1    4    4    0    0  0.16444986423E+01 -0.58630280330E+02 -0.68552060468E+02  0.90219727010E+02  0.00000000000E+00 0.  1.
         11    1    4    4    0    0  0.32236913341E+02  0.95566009343E+00 -0.17741677276E+03  0.18032427214E+03  0.00000000000E+00 0. -1.
         21    1    1    2  502  501 -0.73349762610E+01  0.28892084925E+02 -0.11609222731E+03  0.11985808145E+03  0.00000000000E+00 0. -1.
<scales pt_clust_5="13000.00000" pt_clust_6="13000.00000" pt_clust_7="13000.00000" pt_clust_8="13000.00000" pt_clust_9="29.80863"></scales>
<clustering>
<clus scale="   29.809">  2  9  1 -1</clus>
<clus scale="   90.659">  7  8 -1 -1</clus>
<clus scale="   92.213">  5  6 -1 -1</clus>
<clus scale="  101.590">  2  7  1 -1</clus>
<clus scale="   29.809">  2  5  1 -1</clus>
</clustering>
</event>
<event>
 9    1  0.1234700E-005  0.1086848E+03  0.7546771E-02  0.1267180E+00
          2   -1    0    0  502    0  0.00000000000E+00  0.00000000000E+00  0.10967677829E+03  0.10967677829E+03  0.00000000000E+00 0. -1.
         -2   -1    0    0    0  501 -0.00000000000E+00 -0.00000000000E+00 -0.23860942124E+03  0.23860942124E+03  0.00000000000E+00 0.  1.
         23    2    1    2    0    0  0.36666024997E+02  0.13921419311E+02 -0.16182246867E+03  0.19544978923E+03  0.10235187072E+03 0.  0.
         23    2    1    2    0    0 -0.20609107564E+02 -0.26448707389E+02 -0.15469527783E+02  0.10036370678E+03  0.93323619262E+02 0.  0.
        -11    1    3    3    0    0 -0.27635200822E+02  0.18551992321E+02 -0.10276349089E+03  0.10801951585E+03  0.00000000000E+00 0.  1.
         11    1    3    3    0    0  0.64301225819E+02 -0.46305730101E+01 -0.59058977774E+02  0.87430273384E+02  0.00000000000E+00 0. -1.
        -11    1    4    4    0    0  0.10210261578E+02  0.25434304831E+02  0.16582729089E+02  0.32033423292E+02  0.00000000000E+00 0. -1.
         11    1    4    4    0    0 -0.30819369142E+02 -0.51883012220E+02 -0.32052256872E+02  0.68330283491E+02  0.00000000000E+00 0.  1.
         21    1    1    2  502  501 -0.16056917433E+02  0.12527288078E+02  0.48359353491E+02  0.52472703515E+02  0.00000000000E+00 0.  1.
<scales pt_clust_5="13000.00000" pt_clust_6="13000.00000" pt_clust_7="13000.00000" pt_clust_8="13000.00000" pt_clust_9="20.36560"></scales>
<clustering>
<clus scale="   20.366">  1  9  2 -1</clus>
<clus scale="   93.324">  7  8 -1 -1</clus>
<clus scale="  100.229">  1  7  2 -1</clus>
<clus scale="  102.352">  5  6 -1 -1</clus>
<clus scale="   20.366">  1  5  2 -1</clus>
</clustering>
</event>
<event>
 9    1  0.1234700E-005  0.1186527E+03  0.7546771E-02  0.1246437E+00
         -4   -1    0    0    0  501 -0.00000000000E+00  0.00000000000E+00  0.17724789727E+02  0.17724789727E+02  0.00000000000E+00 0.  1.
          4   -1    0    0  502    0  0.00000000000E+00 -0.00000000000E+00 -0.11288825173E+04  0.11288825173E+04  0.00000000000E+00 0. -1.
         23    2    1    2    0    0 -0.80857426347E+02  0.35863412946E+02 -0.38358867245E+03  0.40451807908E+03  0.93115513682E+02 0.  0.
         23    2    1    2    0    0  0.43113916064E+02 -0.37049802520E+02 -0.47720166709E+03  0.48889007890E+03  0.89780735928E+02 0.  0.
        -11    1    4    4    0    0 -0.23463254720E+02 -0.22905858181E+02 -0.90791677437E+02  0.96531504458E+02  0.00000000000E+00 0.  1.
         11    1    4    4    0    0  0.66577170784E+02 -0.14143944338E+02 -0.38640998965E+03  0.39235857444E+03  0.00000000000E+00 0. -1.
        -13    1    3    3    0    0 -0.63936630878E+02 -0.13703031143E+02 -0.28990579616E+03  0.29718855374E+03  0.00000000000E+00 0.  1.
         13    1    3    3    0    0 -0.16920795470E+02  0.49566444088E+02 -0.93682876294E+02  0.10732952534E+03  0.00000000000E+00 0. -1.
         21    1    1    2  502  501  0.37743510283E+02  0.11863895739E+01 -0.25036738803E+03  0.25319914904E+03  0.00000000000E+00 0. -1.
<scales pt_clust_5="13000.00000" pt_clust_6="13000.00000" pt_clust_7="13000.00000" pt_clust_8="13000.00000" pt_clust_9="37.76215"></scales>
<clustering>
<clus scale="   37.762">  2  9  1 -1</clus>
<clus scale="   89.781">  5  6 -1 -1</clus>
<clus scale="   93.116">  7  8 -1 -1</clus>
<clus scale="  116.054">  2  5  1 -1</clus>
<clus scale="   37.762">  2  5  1 -1</clus>
</clustering>
</event>
<event>
 9    1  0.1234700E-005  0.2194750E+03  0.7546771E-02  0.1156038E+00
         -1   -1    0    0    0  501 -0.00000000000E+00  0.00000000000E+00  0.53731424260E+03  0.53731424260E+03  0.00000000000E+00 0.  1.
          1   -1    0    0  502    0  0.00000000000E+00 -0.00000000000E+00 -0.38631857360E+03  0.38631857360E+03  0.00000000000E+00 0. -1.
         23    2    1    2    0    0 -0.30187661788E+02  0.89500465853E+02  0.38247952928E+03  0.40411644408E+03  0.89988231130E+02 0.  0.
         23    2    1    2    0    0 -0.11465325769E+03 -0.20608771576E+03 -0.51134269933E+02  0.26048461050E+03  0.98081612231E+02 0.  0.
        -11    1    3    3    0    0  0.27268349196E+02  0.59166041289E+02  0.17693111200E+03  0.18854389861E+03  0.00000000000E+00 0. -1.
         11    1    3    3    0    0 -0.57456010985E+02  0.30334424564E+02  0.20554841728E+03  0.21557254547E+03  0.00000000000E+00 0.  1.
        -13    1    4    4    0    0 -0.10580935185E+03 -0.10936737110E+03 -0.58616961717E+02  0.16307295607E+03  0.00000000000E+00 0. -1.
         13    1    4    4    0    0 -0.88439058413E+01 -0.96720344664E+02  0.74826917847E+01  0.97411654430E+02  0.00000000000E+00 0.  1.
         21    1    1    2  502  501  0.14484091948E+03  0.11658724991E+03 -0.18034959034E+03  0.25903176163E+03  0.00000000000E+00 0.  1.
<scales pt_clust_5="13000.00000" pt_clust_6="13000.00000" pt_clust_7="13000.00000" pt_clust_8="13000.00000" pt_clust_9="196.33968"></scales>
<clustering>
<clus scale="   89.988">  5  6 -1 -1</clus>
<clus scale="   98.082">  7  8 -1 -1</clus>
<clus scale="  130.459">  1  5  2 -1</clus>
<clus scale="  196.340">  2  9  1 -1</clus>
<clus scale="  196.340">  2  5  1 -1</clus>
</clustering>
</event>
<event>
 9    1  0.1234700E-005  0.9991214E+02  0.7546771E-02  0.1281165E+00
          1   -1    0    0  502    0  0.00000000000E+00  0.00000000000E+00  0.43124864984E+03  0.43124864984E+03  0.00000000000E+00 0. -1.
         -1   -1    0    0    0  501 -0.00000000000E+00 -0.00000000000E+00 -0.35666390363E+02  0.35666390363E+02  0.00000000000E+00 0.  1.
         23    2    1    2    0    0 -0.45676571829E+02  0.51928601915E+01  0.13472937338E+03  0.17036491008E+03  0.93588907053E+02 0.  0.
         23    2    1    2    0    0  0.12505474878E+02 -0.31230203448E+02  0.16804033556E+03  0.19460683974E+03  0.92209300997E+02 0.  0.
        -11    1    4    4    0    0  0.43876567160E+02  0.11171263261E+02  0.72587121599E+02  0.85550222037E+02  0.00000000000E+00 0.  1.
         11    1    4    4    0    0 -0.31371092281E+02 -0.42401466709E+02  0.95453213959E+02  0.10905661770E+03  0.00000000000E+00 0. -1.
        -13    1    3    3    0    0 -0.62068010571E+02 -0.12876498131E+02  0.45943467113E+02  0.78288213102E+02  0.00000000000E+00 0. -1.
         13    1    3    3    0    0  0.16391438742E+02  0.18069358322E+02  0.88785906270E+02  0.92076696978E+02  0.00000000000E+00 0.  1.
         21    1    1    2  502  501  0.33171096951E+02  0.26037343256E+02  0.92812550531E+02  0.10194329038E+03  0.00000000000E+00 0.  1.
<scales pt_clust_5="13000.00000" pt_clust_6="13000.00000" pt_clust_7="13000.00000" pt_clust_8="13000.00000" pt_clust_9="42.16948"></scales>
<clustering>
<clus scale="   42.169">  1  9  2 -1</clus>
<clus scale="   92.209">  5  6 -1 -1</clus>
<clus scale="   93.589">  7  8 -1 -1</clus>
<clus scale="   98.621">  1  5  2 -1</clus>
<clus scale="   42.169">  1  5  2 -1</clus>
</clustering>
</event>
<event>
 9    1  0.1234700E-005  0.9740011E+02  0.7546771E-02  0.1286017E+00
         -2   -1    0    0    0  501 -0.00000000000E+00  0.00000000000E+00  0.60533373112E+02  0.60533373112E+02  0.00000000000E+00 0.  1.
          2   -1    0    0  502    0  0.00000000000E+00 -0.00000000000E+00 -0.40451092089E+03  0.40451092089E+03  0.00000000000E+00 0. -1.
         23    2    1    2    0    0  0.21143090869E+02  0.39191699565E+01 -0.21533998939E+02  0.95909118889E+02  0.90953041681E+02 0.  0.
         23    2    1    2    0    0 -0.68091414790E+02 -0.43021813340E+01 -0.13877205788E+03  0.17955799187E+03  0.91260280858E+02 0.  0.
        -13    1    4    4    0    0 -0.39755474402E+02  0.27199369434E+02 -0.17754467704E+02  0.51337360334E+02  0.00000000000E+00 0.  1.
         13    1    4    4    0    0 -0.28335940388E+02 -0.31501550769E+02 -0.12101759018E+03  0.12822063153E+03  0.00000000000E+00 0. -1.
        -13    1    3    3    0    0  0.25185432145E+02 -0.40932628254E+02 -0.68734192208E+01  0.48549252722E+02  0.00000000000E+00 0. -1.
         13    1    3    3    0    0 -0.40423412757E+01  0.44851798210E+02 -0.14660579718E+02  0.47359866167E+02  0.00000000000E+00 0.  1.
         21    1    1    2  502  501  0.46948323921E+02  0.38301137754E+00 -0.18367149096E+03  0.18957718325E+03  0.00000000000E+00 0. -1.
<scales pt_clust_5="13000.00000" pt_clust_6="13000.00000" pt_clust_7="13000.00000" pt_clust_8="13000.00000" pt_clust_9="46.94989"></scales>
<clustering>
<clus scale="   46.950">  2  9  1 -1</clus>
<clus scale="   90.953">  7  8 -1 -1</clus>
<clus scale="   91.260">  5  6 -1 -1</clus>
<clus scale="   97.112">  1  7  2 -1</clus>
<clus scale="   46.950">  2  5  1 -1</clus>
</clustering>
</event>
<event>
 9    1  0.1234700E-005  0.1448899E+03  0.7546771E-02  0.1207542E+00
         -2   -1    0    0    0  501 -0.00000000000E+00  0.00000000000E+00  0.11009587648E+03  0.11009587648E+03  0.00000000000E+00 0. -1.
          2   -1    0    0  502    0  0.00000000000E+00 -0.00000000000E+00 -0.24608284990E+03  0.24608284990E+03  0.00000000000E+00 0.  1.
         23    2    1    2    0    0 -0.10207055383E+03 -0.34861628609E+02 -0.94813829336E+01  0.14036873353E+03  0.89329466706E+02 0.  0.
         23    2    1    2    0    0  0.11762349417E+03  0.13042251484E+02 -0.11709359320E+03  0.18740990722E+03  0.86059148550E+02 0.  0.
        -11    1    4    4    0    0  0.11562370443E+03  0.37407371440E+02 -0.92409046993E+02  0.15266821683E+03  0.00000000000E+00 0.  1.
         11    1    4    4    0    0  0.19997897458E+01 -0.24365119957E+02 -0.24684546211E+02  0.34741690390E+02  0.00000000000E+00 0. -1.
        -13    1    3    3    0    0 -0.23819038899E+02  0.62591836272E+01 -0.39895616309E+02  0.46884797050E+02  0.00000000000E+00 0.  1.
         13    1    3    3    0    0 -0.78251514928E+02 -0.41120812237E+02  0.30414233376E+02  0.93483936478E+02  0.00000000000E+00 0. -1.
         21    1    1    2  502  501 -0.15552940344E+02  0.21819377125E+02 -0.94119972821E+01  0.28400085639E+02  0.00000000000E+00 0.  1.
<scales pt_clust_5="13000.00000" pt_clust_6="13000.00000" pt_clust_7="13000.00000" pt_clust_8="13000.00000" pt_clust_9="26.79513"></scales>
<clustering>
<clus scale="   26.795">  1  9  2 -1</clus>
<clus scale="   86.059">  5  6 -1 -1</clus>
<clus scale="   89.329">  7  8 -1 -1</clus>
<clus scale="  142.897">  2  5  1 -1</clus>
<clus scale="  142.897">  2  5  1 -1</clus>
</clustering>
</event>
<event>
 9    1  0.1234700E-005  0.9376466E+02  0.7546771E-02  0.1294533E+00
         -2   -1    0    0    0  501 -0.00000000000E+00  0.00000000000E+00  0.30832438925E+02  0.30832438925E+02  0.00000000000E+00 0.  1.
          2   -1    0    0  502    0  0.00000000000E+00 -0.00000000000E+00 -0.66741539146E+03  0.66741539146E+03  0.00000000000E+00 0. -1.
         23    2    1    2    0    0  0.20619771901E+01 -0.22996169801E+02 -0.17178356523E+03  0.19629528585E+03  0.92136694025E+02 0.  0.
         23    2    1    2    0    0  0.31111762111E+02 -0.63681556835E+02 -0.25147517402E+03  0.26931388643E+03  0.65321695115E+02 0.  0.
        -11    1    4    4    0    0  0.32273345704E+02 -0.25497110093E+02 -0.52439168158E+02  0.66644863441E+02  0.00000000000E+00 0.  1.
         11    1    4    4    0    0 -0.11615835932E+01 -0.38184446742E+02 -0.19903600586E+03  0.20266902298E+03  0.00000000000E+00 0. -1.
        -13    1    3    3    0    0 -0.11311841354E+02 -0.52394926580E+02 -0.62491838914E+02  0.82331136377E+02  0.00000000000E+00 0. -1.
         13    1    3    3    0    0  0.13373818544E+02  0.29398756779E+02 -0.10929172632E+03  0.11396414947E+03  0.00000000000E+00 0.  1.
         21    1    1    2  502  501 -0.33173739301E+02  0.86677726636E+02 -0.21332421328E+03  0.23263865811E+03  0.00000000000E+00 0. -1.
<scales pt_clust_5="13000.00000" pt_clust_6="13000.00000" pt_clust_7="13000.00000" pt_clust_8="13000.00000" pt_clust_9="92.80908"></scales>
<clustering>
<clus scale="   65.322">  5  6 -1 -1</clus>
<clus scale="   92.137">  7  8 -1 -1</clus>
<clus scale="   92.809">  2  9  1 -1</clus>
<clus scale="   92.809">  2  5  1 -1</clus>
<clus scale="   92.809">  2  5  1 -1</clus>
</clustering>
</event>
<event>
 9    1  0.1234700E-005  0.1102241E+03  0.7546771E-02  0.1262201E+00
         -2   -1    0    0    0  501 -0.00000000000E+00  0.00000000000E+00  0.47324335751E+02  0.47324335751E+02  0.00000000000E+00 0.  1.
          2   -1    0    0  502    0  0.00000000000E+00 -0.00000000000E+00 -0.45873378418E+03  0.45873378418E+03  0.00000000000E+00 0. -1.
         23    2    1    2    0    0 -0.84747655881E+01  0.65288783422E+02 -0.50507468392E+02  0.12448160335E+03  0.92791262066E+02 0.  0.
         23    2    1    2    0    0  0.11525948816E+02 -0.37617314190E+02 -0.27614364740E+03  0.29236331756E+03  0.87596150792E+02 0.  0.
        -13    1    3    3    0    0  0.85799022309E+01  0.49936029630E+02  0.16791771306E+02  0.53377760922E+02  0.00000000000E+00 0.  1.
         13    1    3    3    0    0 -0.17054667819E+02  0.15352753792E+02 -0.67299239699E+02  0.71103842424E+02  0.00000000000E+00 0. -1.
        -13    1    4    4    0    0  0.16843206272E+02  0.19717423227E+02 -0.30371811029E+02  0.39936415480E+02  0.00000000000E+00 0.  1.
         13    1    4    4    0    0 -0.53172574559E+01 -0.57334737417E+02 -0.24577183637E+03  0.25242690208E+03  0.00000000000E+00 0. -1.
         21    1    1    2  502  501 -0.30511832278E+01 -0.27671469232E+02 -0.84758332637E+02  0.89213199023E+02  0.00000000000E+00 0. -1.
<scales pt_clust_5="13000.00000" pt_clust_6="13000.00000" pt_clust_7="13000.00000" pt_clust_8="13000.00000" pt_clust_9="27.83918"></scales>
<clustering>
<clus scale="   27.839">  2  9  1 -1</clus>
<clus scale="   87.596">  7  8 -1 -1</clus>
<clus scale="   92.791">  5  6 -1 -1</clus>
<clus scale="  105.888">  2  7  1 -1</clus>
<clus scale="   27.839">  2  5  1 -1</clus>
</clustering>
</event>
<event>
 9    1  0.1234700E-005  0.1652051E+03  0.7546771E-02  0.1183335E+00
          2   -1    0    0  502    0  0.00000000000E+00  0.00000000000E+00  0.29140569227E+03  0.29140569227E+03  0.00000000000E+00 0. -1.
         -2   -1    0    0    0  501 -0.00000000000E+00 -0.00000000000E+00 -0.19569669784E+03  0.19569669784E+03  0.00000000000E+00 0.  1.
         23    2    1    2    0    0  0.10541027698E+03 -0.74261647371E+02 -0.76049891129E+02  0.17696511684E+03  0.94376627798E+02 0.  0.
         23    2    1    2    0    0 -0.13113597040E+03  0.75305711300E+02  0.47422468992E+02  0.18316307961E+03  0.91827176143E+02 0.  0.
        -13    1    3    3    0    0  0.88862564957E+02 -0.29997463842E+02 -0.80182696996E+01  0.94131269707E+02  0.00000000000E+00 0.  1.
         13    1    3    3    0    0  0.16547712024E+02 -0.44264183529E+02 -0.68031621430E+02  0.82833847134E+02  0.00000000000E+00 0. -1.
        -13    1    4    4    0    0 -0.76001221784E+02 -0.35189747782E+01  0.38160539265E+00  0.76083602168E+02  0.00000000000E+00 0.  1.
         13    1    4    4    0    0 -0.55134748615E+02  0.78824686078E+02  0.47040863599E+02  0.10707947744E+03  0.00000000000E+00 0. -1.
         21    1    1    2  502  501  0.25725693419E+02 -0.10440639291E+01  0.12433641657E+03  0.12697419366E+03  0.00000000000E+00 0. -1.
<scales pt_clust_5="13000.00000" pt_clust_6="13000.00000" pt_clust_7="13000.00000" pt_clust_8="13000.00000" pt_clust_9="25.74687"></scales>
<clustering>
<clus scale="   25.747">  1  9  2 -1</clus>
<clus scale="   91.827">  7  8 -1 -1</clus>
<clus scale="   94.377">  5  6 -1 -1</clus>
<clus scale="  163.762">  1  7  2 -1</clus>
<clus scale="   25.747">  1  5  2 -1</clus>
</clustering>
</event>
<event>
 9    1  0.1234700E-005  0.1014137E+03  0.7546771E-02  0.1277665E+00
         -1   -1    0    0    0  501 -0.00000000000E+00  0.00000000000E+00  0.20179580468E+03  0.20179580468E+03  0.00000000000E+00 0.  1.
          1   -1    0    0  502    0  0.00000000000E+00 -0.00000000000E+00 -0.95522976390E+02  0.95522976390E+02  0.00000000000E+00 0. -1.
         23    2    1    2    0    0  0.46338237525E+02 -0.43946798932E+02  0.30415828909E+02  0.11416446993E+03  0.89609431156E+02 0.  0.
         23    2    1    2    0    0  0.10684862708E+02  0.45808483499E+02  0.18558060899E+02  0.10229475277E+03  0.88922614491E+02 0.  0.
        -11    1    3    3    0    0  0.12886232653E+01 -0.50979148656E+02  0.43174902968E+02  0.66817710181E+02  0.00000000000E+00 0.  1.
         11    1    3    3    0    0  0.45049614260E+02  0.70323497231E+01 -0.12759074059E+02  0.47346759746E+02  0.00000000000E+00 0. -1.
        -13    1    4    4    0    0 -0.97608174658E+01 -0.24905005518E+02  0.80776720412E+01  0.27942470239E+02  0.00000000000E+00 0.  1.
         13    1    4    4    0    0  0.20445680173E+02  0.70713489017E+02  0.10480388858E+02  0.74352282529E+02  0.00000000000E+00 0. -1.
         21    1    1    2  502  501 -0.57023100233E+02 -0.18616845665E+01  0.57298938486E+02  0.80859558378E+02  0.00000000000E+00 0.  1.
<scales pt_clust_5="13000.00000" pt_clust_6="13000.00000" pt_clust_7="13000.00000" pt_clust_8="13000.00000" pt_clust_9="57.05348"></scales>
<clustering>
<clus scale="   57.053">  1  9  2 -1</clus>
<clus scale="   88.923">  7  8 -1 -1</clus>
<clus scale="   89.609">  5  6 -1 -1</clus>
<clus scale="  100.807">  2  7  1 -1</clus>
<clus scale="  100.807">  2  5  1 -1</clus>
</clustering>
</event>
<event>
 9    1  0.1234700E-005  0.1284915E+03  0.7546771E-02  0.1229762E+00
          1   -1    0    0  502    0  0.00000000000E+00  0.00000000000E+00  0.83559770875E+02  0.83559770875E+02  0.00000000000E+00 0. -1.
         -1   -1    0    0    0  501 -0.00000000000E+00 -0.00000000000E+00 -0.40014857431E+03  0.40014857431E+03  0.00000000000E+00 0.  1.
         23    2    1    2    0    0 -0.91131187169E+02 -0.15518162624E+02 -0.30171311383E+03  0.32848740990E+03  0.91254965647E+02 0.  0.
         23    2    1    2    0    0  0.84810525419E+02 -0.44983579605E+01 -0.31498971568E+02  0.12844509983E+03  0.91065350243E+02 0.  0.
        -11    1    4    4    0    0  0.20994420329E+02 -0.24330942098E+02 -0.49699171543E+02  0.59184187756E+02  0.00000000000E+00 0. -1.
         11    1    4    4    0    0  0.63816105090E+02  0.19832584137E+02  0.18200199975E+02  0.69260912076E+02  0.00000000000E+00 0.  1.
        -13    1    3    3    0    0 -0.33146448742E+02 -0.23968890085E+02 -0.23971400776E+03  0.24317894701E+03  0.00000000000E+00 0.  1.
         13    1    3    3    0    0 -0.57984738427E+02  0.84507274615E+01 -0.61999106078E+02  0.85308462883E+02  0.00000000000E+00 0. -1.
         21    1    1    2  502  501  0.63206617495E+01  0.20016520584E+02  0.16623281964E+02  0.26775835458E+02  0.00000000000E+00 0. -1.
<scales pt_clust_5="13000.00000" pt_clust_6="13000.00000" pt_clust_7="13000.00000" pt_clust_8="13000.00000" pt_clust_9="20.99076"></scales>
<clustering>
<clus scale="   20.991">  1  9  2 -1</clus>
<clus scale="   91.065">  5  6 -1 -1</clus>
<clus scale="   91.255">  7  8 -1 -1</clus>
<clus scale="  128.357">  1  5  2 -1</clus>
<clus scale="   20.991">  1  5  2 -1</clus>
</clustering>
</event>
<event>
 9    1  0.1234700E-005  0.1003178E+03  0.7546771E-02  0.1280665E+00
          1   -1    0    0  502    0  0.00000000000E+00  0.00000000000E+00  0.10709306772E+03  0.10709306772E+03  0.00000000000E+00 0. -1.
         -1   -1    0    0    0  501 -0.00000000000E+00 -0.00000000000E+00 -0.19420675944E+03  0.19420675944E+03  0.00000000000E+00 0.  1.
         23    2    1    2    0    0 -0.63693554976E+01 -0.46998425079E+02 -0.13868668682E+03  0.17125549830E+03  0.88572162384E+02 0.  0.
         23    2    1    2    0    0  0.20145903016E+01  0.24226531309E+02  0.30649823619E+02  0.98814499677E+02  0.90740896322E+02 0.  0.
        -11    1    3    3    0    0 -0.63467266780E+01  0.23098581415E+02 -0.66284293438E+02  0.70480018158E+02  0.00000000000E+00 0. -1.
         11    1    3    3    0    0 -0.22628819563E-01 -0.70097006494E+02 -0.72402393377E+02  0.10077548014E+03  0.00000000000E+00 0.  1.
        -11    1    4    4    0    0  0.31500137539E+02 -0.21331357144E+02  0.36963620815E+01  0.38222356746E+02  0.00000000000E+00 0.  1.
         11    1    4    4    0    0 -0.29485547237E+02  0.45557888453E+02  0.26953461537E+02  0.60592142931E+02  0.00000000000E+00 0. -1.
         21    1    1    2  502  501  0.43547651960E+01  0.22771893771E+02  0.20923171473E+02  0.31229829175E+02  0.00000000000E+00 0. -1.
<scales pt_clust_5="13000.00000" pt_clust_6="13000.00000" pt_clust_7="13000.00000" pt_clust_8="13000.00000" pt_clust_9="23.18454"></scales>
<clustering>
<clus scale="   23.185">  1  9  2 -1</clus>
<clus scale="   88.572">  5  6 -1 -1</clus>
<clus scale="   90.741">  7  8 -1 -1</clus>
<clus scale="   98.360">  2  5  1 -1</clus>
<clus scale="   23.185">  1  5  2 -1</clus>
</clustering>
</event>
<event>
 9    1  0.1234700E-005  0.1956955E+03  0.7546771E-02  0.1153650E+00
         -1   -1    0    0    0  501 -0.00000000000E+00  0.00000000000E+00  0.60908455680E+02  0.60908455680E+02  0.00000000000E+00 0.  1.
          1   -1    0    0  502    0  0.00000000000E+00 -0.00000000000E+00 -0.10026544439E+04  0.10026544439E+04  0.00000000000E+00 0. -1.
         23    2    1    2    0    0  0.15320442725E+03  0.11109183065E+03 -0.32110884583E+03  0.38356291493E+03  0.90535227794E+02 0.  0.
         23    2    1    2    0    0 -0.16364663148E+03 -0.44009050939E+02 -0.54903182851E+03  0.58132648294E+03  0.88246895038E+02 0.  0.
        -11    1    3    3    0    0  0.11316529162E+02  0.50103311800E+02 -0.11554328403E+03  0.12644625803E+03  0.00000000000E+00 0. -1.
         11    1    3    3    0    0  0.14188789809E+03  0.60988518849E+02 -0.20556556180E+03  0.25711665689E+03  0.00000000000E+00 0.  1.
        -11    1    4    4    0    0 -0.10798737470E+03  0.10128447343E+02 -0.38254791303E+03  0.39762641298E+03  0.00000000000E+00 0. -1.
         11    1    4    4    0    0 -0.55659256778E+02 -0.54137498282E+02 -0.16648391549E+03  0.18370006995E+03  0.00000000000E+00 0.  1.
         21    1    1    2  502  501  0.10442204226E+02 -0.67082779709E+02 -0.71605313832E+02  0.98673501669E+02  0.00000000000E+00 0.  1.
<scales pt_clust_5="13000.00000" pt_clust_6="13000.00000" pt_clust_7="13000.00000" pt_clust_8="13000.00000" pt_clust_9="67.89064"></scales>
<clustering>
<clus scale="   67.891">  1  9  2 -1</clus>
<clus scale="   88.247">  7  8 -1 -1</clus>
<clus scale="   90.535">  5  6 -1 -1</clus>
<clus scale="  194.647">  2  7  1 -1</clus>
<clus scale="  194.647">  2  5  1 -1</clus>
</clustering>
</event>
<event>
 9    1  0.1234700E-005  0.9598557E+02  0.7546771E-02  0.1289198E+00
          2   -1    0    0  502    0  0.00000000000E+00  0.00000000000E+00  0.50566999857E+02  0.50566999857E+02  0.00000000000E+00 0. -1.
         -2   -1    0    0    0  501 -0.00000000000E+00 -0.00000000000E+00 -0.25539111037E+03  0.25539111037E+03  0.00000000000E+00 0.  1.
         23    2    1    2    0    0  0.18826666562E+02 -0.10477540246E+02 -0.13628830432E+03  0.16569932307E+03  0.91747160988E+02 0.  0.
         23    2    1    2    0    0 -0.22486135449E+02  0.32318791831E+02 -0.56314847901E+02  0.11496483917E+03  0.92170611138E+02 0.  0.
        -11    1    4    4    0    0 -0.38896930817E+02  0.92305027198E+01 -0.72170299718E+02  0.82502882185E+02  0.00000000000E+00 0.  1.
         11    1    4    4    0    0  0.16410795368E+02  0.23088289112E+02  0.15855451817E+02  0.32461956981E+02  0.00000000000E+00 0. -1.
        -11    1    3    3    0    0  0.36357172768E+01 -0.49943794993E+02 -0.57260492881E+02  0.76068161167E+02  0.00000000000E+00 0.  1.
         11    1    3    3    0    0  0.15190949286E+02  0.39466254746E+02 -0.79027811438E+02  0.89631161906E+02  0.00000000000E+00 0. -1.
         21    1    1    2  502  501  0.36594688871E+01 -0.21841251585E+02 -0.12220958299E+02  0.25293947993E+02  0.00000000000E+00 0. -1.
<scales pt_clust_5="13000.00000" pt_clust_6="13000.00000" pt_clust_7="13000.00000" pt_clust_8="13000.00000" pt_clust_9="22.14570"></scales>
<clustering>
<clus scale="   22.146">  1  9  2 -1</clus>
<clus scale="   91.747">  7  8 -1 -1</clus>
<clus scale="   92.171">  5  6 -1 -1</clus>
<clus scale="   95.579">  2  7  1 -1</clus>
<clus scale="   22.146">  1  5  2 -1</clus>
</clustering>
</event>
<event>
 9    1  0.1234700E-005  0.1078737E+03  0.7546771E-02  0.1264879E+00
          1   -1    0    0  502    0  0.00000000000E+00  0.00000000000E+00  0.36878260464E+03  0.36878260464E+03  0.00000000000E+00 0. -1.
         -1   -1    0    0    0  501 -0.00000000000E+00 -0.00000000000E+00 -0.42941120629E+02  0.42941120629E+02  0.00000000000E+00 0.  1.
         23    2    1    2    0    0  0.43151616725E+02  0.25916127325E+02  0.10545899516E+03  0.14832995652E+03  0.91359009741E+02 0.  0.
         23    2    1    2    0    0 -0.47123483112E+02 -0.47908538973E+02  0.13897843336E+03  0.17897776230E+03  0.90565908006E+02 0.  0.
        -11    1    3    3    0    0  0.35487436996E+02 -0.30224821431E+02  0.58059341057E+02  0.74456598761E+02  0.00000000000E+00 0. -1.
         11    1    3    3    0    0  0.76641797290E+01  0.56140948756E+02  0.47399654098E+02  0.73873357760E+02  0.00000000000E+00 0.  1.
        -13    1    4    4    0    0  0.22526710075E+02 -0.36936903541E+01  0.80113885589E+01  0.24192526984E+02  0.00000000000E+00 0.  1.
         13    1    4    4    0    0 -0.69650193186E+02 -0.44214848619E+02  0.13096704480E+03  0.15478523532E+03  0.00000000000E+00 0. -1.
         21    1    1    2  502  501  0.39718663865E+01  0.21992411648E+02  0.81404055501E+02  0.84416006448E+02  0.00000000000E+00 0.  1.
<scales pt_clust_5="13000.00000" pt_clust_6="13000.00000" pt_clust_7="13000.00000" pt_clust_8="13000.00000" pt_clust_9="22.34820"></scales>
<clustering>
<clus scale="   22.348">  1  9  2 -1</clus>
<clus scale="   90.566">  7  8 -1 -1</clus>
<clus scale="   91.359">  5  6 -1 -1</clus>
<clus scale="  107.203">  1  7  2 -1</clus>
<clus scale="   22.348">  1  5  2 -1</clus>
</clustering>
</event>
<event>
 9    1  0.1234700E-005  0.1211909E+03  0.7546771E-02  0.1241350E+00
          2   -1    0    0  502    0  0.00000000000E+00  0.00000000000E+00  0.66696955778E+03  0.66696955778E+03  0.00000000000E+00 0. -1.
         -2   -1    0    0    0  501 -0.00000000000E+00 -0.00000000000E+00 -0.33421787280E+02  0.33421787280E+02  0.00000000000E+00 0.  1.
         23    2    1    2    0    0 -0.47370128297E+02 -0.66719838724E+02  0.14130605243E+03  0.18768412840E+03  0.92533592100E+02 0.  0.
         23    2    1    2    0    0  0.56947925529E+02  0.44519152190E+02  0.36754203996E+03  0.38568511463E+03  0.91874019046E+02 0.  0.
        -11    1    3    3    0    0 -0.32614747455E+02 -0.34745046701E+02  0.61903608986E+01  0.48054766567E+02  0.00000000000E+00 0.  1.
         11    1    3    3    0    0 -0.14755380842E+02 -0.31974792023E+02  0.13511569153E+03  0.13962936184E+03  0.00000000000E+00 0. -1.
        -13    1    4    4    0    0 -0.11031019774E+02  0.20612938179E+02  0.20046633653E+02  0.30796820266E+02  0.00000000000E+00 0.  1.
         13    1    4    4    0    0  0.67978945303E+02  0.23906214011E+02  0.34749540631E+03  0.35488829436E+03  0.00000000000E+00 0. -1.
         21    1    1    2  502  501 -0.95777972320E+01  0.22200686533E+02  0.12469967811E+03  0.12702210203E+03  0.00000000000E+00 0. -1.
<scales pt_clust_5="13000.00000" pt_clust_6="13000.00000" pt_clust_7="13000.00000" pt_clust_8="13000.00000" pt_clust_9="24.17860"></scales>
<clustering>
<clus scale="   24.179">  1  9  2 -1</clus>
<clus scale="   91.874">  7  8 -1 -1</clus>
<clus scale="   92.534">  5  6 -1 -1</clus>
<clus scale="  120.688">  1  7  2 -1</clus>
<clus scale="   24.179">  1  5  2 -1</clus>
</clustering>
</event>
<event>
 9    1  0.1234700E-005  0.9303853E+02  0.7546771E-02  0.1300678E+00
         -2   -1    0    0    0  501 -0.00000000000E+00  0.00000000000E+00  0.46222018224E+02  0.46222018224E+02  0.00000000000E+00 0.  1.
          2   -1    0    0  502    0  0.00000000000E+00 -0.00000000000E+00 -0.26076447330E+03  0.26076447330E+03  0.00000000000E+00 0. -1.
         23    2    1    2    0    0  0.24950361329E+02 -0.13598151440E+02 -0.88272173716E+02  0.12521575902E+03  0.84140236517E+02 0.  0.
         23    2    1    2    0    0  0.48642848305E+01 -0.89423990706E+01 -0.96106692117E+02  0.13374124511E+03  0.92447804769E+02 0.  0.
        -11    1    3    3    0    0 -0.25155861360E+02 -0.18507289202E+02 -0.11242420906E+02  0.33192305467E+02  0.00000000000E+00 0.  1.
         11    1    3    3    0    0  0.50106222689E+02  0.49091377616E+01 -0.77029752810E+02  0.92023453553E+02  0.00000000000E+00 0. -1.
        -13    1    4    4    0    0 -0.11324129383E+02  0.39464362494E+02 -0.52210690070E+02  0.66420087104E+02  0.00000000000E+00 0. -1.
         13    1    4    4    0    0  0.16188414213E+02 -0.48406761564E+02 -0.43896002047E+02  0.67321158009E+02  0.00000000000E+00 0.  1.
         21    1    1    2  502  501 -0.29814646160E+02  0.22540550511E+02 -0.30163589239E+02  0.48029487388E+02  0.00000000000E+00 0. -1.
<scales pt_clust_5="13000.00000" pt_clust_6="13000.00000" pt_clust_7="13000.00000" pt_clust_8="13000.00000" pt_clust_9="37.37632"></scales>
<clustering>
<clus scale="   37.376">  1  9  2 -1</clus>
<clus scale="   84.140">  5  6 -1 -1</clus>
<clus scale="   84.789">  1  5  2 -1</clus>
<clus scale="   92.448">  7  8 -1 -1</clus>
<clus scale="   93.039">  2  5  1 -1</clus>
</clustering>
</event>
<event>
 9    1  0.1234700E-005  0.1112856E+03  0.7546771E-02  0.1261640E+00
         -3   -1    0    0    0  501 -0.00000000000E+00  0.00000000000E+00  0.13045188895E+03  0.13045188895E+03  0.00000000000E+00 0.  1.
          3   -1    0    0  502    0  0.00000000000E+00 -0.00000000000E+00 -0.17525551566E+03  0.17525551566E+03  0.00000000000E+00 0. -1.
         23    2    1    2    0    0  0.50940598692E+01  0.41346551055E+02  0.21462102155E+02  0.11381370184E+03  0.10371812844E+03 0.  0.
         23    2    1    2    0    0  0.32064535646E+02 -0.34874043582E+02  0.93843633775E+01  0.10736210495E+03  0.95886505524E+02 0.  0.
        -13    1    3    3    0    0 -0.12801441232E+02  0.52958668603E+02  0.52821905234E+02  0.75885776997E+02  0.00000000000E+00 0.  1.
         13    1    3    3    0    0  0.17895501101E+02 -0.11612117548E+02 -0.31359803078E+02  0.37927924841E+02  0.00000000000E+00 0. -1.
        -13    1    4    4    0    0  0.66076676178E+02 -0.22179345920E+02 -0.62867211269E+00  0.69702551953E+02  0.00000000000E+00 0. -1.
         13    1    4    4    0    0 -0.34012140532E+02 -0.12694697662E+02  0.10013035490E+02  0.37659552998E+02  0.00000000000E+00 0.  1.
         21    1    1    2  502  501 -0.37158595515E+02 -0.64725074735E+01 -0.75650092247E+02  0.84531597824E+02  0.00000000000E+00 0. -1.
<scales pt_clust_5="13000.00000" pt_clust_6="13000.00000" pt_clust_7="13000.00000" pt_clust_8="13000.00000" pt_clust_9="37.71809"></scales>
<clustering>
<clus scale="   37.718">  2  9  1 -1</clus>
<clus scale="   95.887">  7  8 -1 -1</clus>
<clus scale="  103.718">  5  6 -1 -1</clus>
<clus scale="  104.025">  2  7  1 -1</clus>
<clus scale="   37.718">  2  5  1 -1</clus>
</clustering>
</event>
<event>
 9    1  0.1234700E-005  0.2410507E+03  0.7546771E-02  0.1119499E+00
          1   -1    0    0  502    0  0.00000000000E+00  0.00000000000E+00  0.60063769897E+03  0.60063769897E+03  0.00000000000E+00 0. -1.
         -1   -1    0    0    0  501 -0.00000000000E+00 -0.00000000000E+00 -0.42607674538E+03  0.42607674538E+03  0.00000000000E+00 0.  1.
         23    2    1    2    0    0  0.21479102121E+03  0.15378752231E+02 -0.31490190192E+03  0.39205592509E+03  0.90404379027E+02 0.  0.
         23    2    1    2    0    0 -0.27145389171E+03 -0.96787862175E+02  0.35076294028E+03  0.46414227207E+03  0.96634894599E+02 0.  0.
        -11    1    3    3    0    0  0.43762101971E+02  0.11986181308E+02 -0.16847269777E+02  0.48400626135E+02  0.00000000000E+00 0. -1.
         11    1    3    3    0    0  0.17102891924E+03  0.33925709229E+01 -0.29805463215E+03  0.34365529895E+03  0.00000000000E+00 0.  1.
        -13    1    4    4    0    0 -0.13136490177E+03 -0.96963573945E+02  0.20325145020E+03  0.26071023013E+03  0.00000000000E+00 0.  1.
         13    1    4    4    0    0 -0.14008898995E+03  0.17571176906E+00  0.14751149008E+03  0.20343204193E+03  0.00000000000E+00 0. -1.
         21    1    1    2  502  501  0.56662870501E+02  0.81409109945E+02  0.13869991523E+03  0.17051624720E+03  0.00000000000E+00 0. -1.
<scales pt_clust_5="13000.00000" pt_clust_6="13000.00000" pt_clust_7="13000.00000" pt_clust_8="13000.00000" pt_clust_9="99.18732"></scales>
<clustering>
<clus scale="   90.404">  5  6 -1 -1</clus>
<clus scale="   96.635">  7  8 -1 -1</clus>
<clus scale="   99.187">  1  9  2 -1</clus>
<clus scale="  238.621">  2  5  1 -1</clus>
<clus scale="   99.187">  1  5  2 -1</clus>
</clustering>
</event>
<event>
 9    1  0.1234700E-005  0.1027847E+03  0.7546771E-02  0.1275340E+00
         -2   -1    0    0    0  501 -0.00000000000E+00  0.00000000000E+00  0.12556103781E+03  0.12556103781E+03  0.00000000000E+00 0. -1.
          2   -1    0    0  502    0  0.00000000000E+00 -0.00000000000E+00 -0.14374068612E+03  0.14374068612E+03  0.00000000000E+00 0.  1.
         23    2    1    2    0    0 -0.19919873564E+01 -0.38279345523E+02 -0.19671497925E+02  0.10066099203E+03  0.90974673279E+02 0.  0.
         23    2    1    2    0    0  0.32480539075E+02  0.49845752933E+02 -0.41236772007E+02  0.11489067449E+03  0.89217774094E+02 0.  0.
        -11    1    3    3    0    0  0.22026026501E+02 -0.32210314638E+02 -0.48761081528E+02  0.62452328093E+02  0.00000000000E+00 0.  1.
         11    1    3    3    0    0 -0.24018013857E+02 -0.60690308858E+01  0.29089583603E+02  0.38208663935E+02  0.00000000000E+00 0. -1.
        -13    1    4    4    0    0  0.71397086316E+01 -0.24500697571E+02  0.13245281182E+01  0.25554138520E+02  0.00000000000E+00 0.  1.
         13    1    4    4    0    0  0.25340830443E+02  0.74346450503E+02 -0.42561300125E+02  0.89336535965E+02  0.00000000000E+00 0. -1.
         21    1    1    2  502  501 -0.30488551718E+02 -0.11566407409E+02  0.42728621625E+02  0.53750057416E+02  0.00000000000E+00 0.  1.
<scales pt_clust_5="13000.00000" pt_clust_6="13000.00000" pt_clust_7="13000.00000" pt_clust_8="13000.00000" pt_clust_9="32.60880"></scales>
<clustering>
<clus scale="   32.609">  1  9  2 -1</clus>
<clus scale="   89.218">  7  8 -1 -1</clus>
<clus scale="   90.975">  5  6 -1 -1</clus>
<clus scale="  101.233">  2  7  1 -1</clus>
<clus scale="  101.233">  2  5  1 -1</clus>
</clustering>
</event>
<event>
 9    1  0.1234700E-005  0.1777693E+03  0.7546771E-02  0.1200102E+00
         -2   -1    0    0    0  501 -0.00000000000E+00  0.00000000000E+00  0.69254112203E+02  0.69254112203E+02  0.00000000000E+00 0.  1.
          2   -1    0    0  502    0  0.00000000000E+00 -0.00000000000E+00 -0.73659767154E+03  0.73659767154E+03  0.00000000000E+00 0. -1.
         23    2    1    2    0    0  0.14539465950E+03  0.34016201248E+02 -0.16632826149E+03  0.24517632991E+03  0.10074538808E+03 0.  0.
         23    2    1    2    0    0 -0.50596788663E+01 -0.45080130440E+01 -0.30206076570E+03  0.31542548784E+03  0.90590339847E+02 0.  0.
        -11    1    3    3    0    0  0.10683353091E+03  0.14156278976E+02 -0.45827238667E+02  0.11710652998E+03  0.00000000000E+00 0.  1.
         11    1    3    3    0    0  0.38561128586E+02  0.19859922272E+02 -0.12050102282E+03  0.12806979992E+03  0.00000000000E+00 0. -1.
        -11    1    4    4    0    0 -0.34995752012E+02 -0.31835677386E+02 -0.12183936123E+03  0.13070211536E+03  0.00000000000E+00 0. -1.
         11    1    4    4    0    0  0.29936073146E+02  0.27327664342E+02 -0.18022140447E+03  0.18472337249E+03  0.00000000000E+00 0.  1.
         21    1    1    2  502  501 -0.14033498063E+03 -0.29508188204E+02 -0.19895453215E+03  0.24524996600E+03  0.00000000000E+00 0. -1.
<scales pt_clust_5="13000.00000" pt_clust_6="13000.00000" pt_clust_7="13000.00000" pt_clust_8="13000.00000" pt_clust_9="146.46605"></scales>
<clustering>
<clus scale="   90.590">  7  8 -1 -1</clus>
<clus scale="   90.843">  2  7  1 -1</clus>
<clus scale="  100.745">  5  6 -1 -1</clus>
<clus scale="  146.466">  2  9  1 -1</clus>
<clus scale="   90.843">  2  5  1 -1</clus>
</clustering>
</event>
<event>
 9    1  0.1234700E-005  0.9575662E+02  0.7546771E-02  0.1290358E+00
         -2   -1    0    0    0  501 -0.00000000000E+00  0.00000000000E+00  0.48244743655E+03  0.48244743655E+03  0.00000000000E+00 0.  1.
          2   -1    0    0  502    0  0.00000000000E+00 -0.00000000000E+00 -0.31922610743E+02  0.31922610743E+02  0.00000000000E+00 0. -1.
         23    2    1    2    0    0 -0.22194287560E+02 -0.11159021097E+01  0.26746741462E+03  0.28303941664E+03  0.89881376571E+02 0.  0.
         23    2    1    2    0    0  0.34633773523E+02 -0.31356022708E+02  0.15799202614E+03  0.18846525721E+03  0.91514886345E+02 0.  0.
        -11    1    4    4    0    0 -0.99663767493E+01 -0.51374018322E+02  0.97808869507E+02  0.11092877615E+03  0.00000000000E+00 0.  1.
         11    1    4    4    0    0  0.44600150272E+02  0.20017995614E+02  0.60183156636E+02  0.77536481061E+02  0.00000000000E+00 0. -1.
        -11    1    3    3    0    0 -0.31913754795E+02 -0.33139531817E+02  0.77346605407E+02  0.89995631462E+02  0.00000000000E+00 0. -1.
         11    1    3    3    0    0  0.97194672341E+01  0.32023629707E+02  0.19012080921E+03  0.19304378518E+03  0.00000000000E+00 0.  1.
         21    1    1    2  502  501 -0.12439485962E+02  0.32471924817E+02  0.25065385049E+02  0.42865373438E+02  0.00000000000E+00 0.  1.
<scales pt_clust_5="13000.00000" pt_clust_6="13000.00000" pt_clust_7="13000.00000" pt_clust_8="13000.00000" pt_clust_9="34.77307"></scales>
<clustering>
<clus scale="   34.773">  2  9  1 -1</clus>
<clus scale="   89.881">  7  8 -1 -1</clus>
<clus scale="   91.515">  5  6 -1 -1</clus>
<clus scale="   94.197">  1  7  2 -1</clus>
<clus scale="   34.773">  2  5  1 -1</clus>
</clustering>
</event>
<event>
 9    1  0.1234700E-005  0.1600248E+03  0.7546771E-02  0.1188779E+00
          1   -1    0    0  502    0  0.00000000000E+00  0.00000000000E+00  0.54809298495E+03  0.54809298495E+03  0.00000000000E+00 0. -1.
         -1   -1    0    0    0  501 -0.00000000000E+00 -0.00000000000E+00 -0.64985353149E+02  0.64985353149E+02  0.00000000000E+00 0.  1.
         23    2    1    2    0    0  0.58216623327E+02 -0.12765601923E+03  0.18009280241E+03  0.24502530562E+03  0.88987349865E+02 0.  0.
         23    2    1    2    0    0 -0.92703027131E+02  0.93127640871E+02  0.25079874028E+03  0.29658247265E+03  0.88286727358E+02 0.  0.
        -11    1    3    3    0    0 -0.37376840060E+01 -0.83037564305E+02  0.59223421907E+02  0.10206184924E+03  0.00000000000E+00 0.  1.
         11    1    3    3    0    0  0.61954307333E+02 -0.44618454926E+02  0.12086938051E+03  0.14296345638E+03  0.00000000000E+00 0. -1.
        -13    1    4    4    0    0 -0.65927341421E+02  0.32964275038E+02  0.60976159717E+02  0.95661642415E+02  0.00000000000E+00 0.  1.
         13    1    4    4    0    0 -0.26775685709E+02  0.60163365833E+02  0.18982258056E+03  0.20092083024E+03  0.00000000000E+00 0. -1.
         21    1    1    2  502  501  0.34486403803E+02  0.34528378360E+02  0.52216089107E+02  0.71470559821E+02  0.00000000000E+00 0. -1.
<scales pt_clust_5="13000.00000" pt_clust_6="13000.00000" pt_clust_7="13000.00000" pt_clust_8="13000.00000" pt_clust_9="48.80083"></scales>
<clustering>
<clus scale="   48.801">  2  9  1 -1</clus>
<clus scale="   88.287">  7  8 -1 -1</clus>
<clus scale="   88.987">  5  6 -1 -1</clus>
<clus scale="  159.636">  1  7  2 -1</clus>
<clus scale="  159.636">  1  5  2 -1</clus>
</clustering>
</event>
<event>
 9    1  0.1234700E-005  0.1230467E+03  0.7546771E-02  0.1250888E+00
         -2   -1    0    0    0  501 -0.00000000000E+00  0.00000000000E+00  0.14357612992E+03  0.14357612992E+03  0.00000000000E+00 0.  1.
          2   -1    0    0  502    0  0.00000000000E+00 -0.00000000000E+00 -0.12333547967E+03  0.12333547967E+03  0.00000000000E+00 0. -1.
         23    2    1    2    0    0 -0.86995172240E+01  0.12828982607E+02  0.33511962327E+02  0.99273526524E+02  0.92151598222E+02 0.  0.
         23    2    1    2    0    0 -0.74096903794E+01 -0.44412244438E+02  0.24359435521E+01  0.12886016567E+03  0.12071312070E+03 0.  0.
        -11    1    3    3    0    0  0.38513199351E+02 -0.11197783989E+02  0.18788883216E+02  0.44290845815E+02  0.00000000000E+00 0.  1.
         11    1    3    3    0    0 -0.47212716575E+02  0.24026766596E+02  0.14723079111E+02  0.54982680709E+02  0.00000000000E+00 0. -1.
        -13    1    4    4    0    0  0.24519621366E+02 -0.77823996791E+02  0.93561666257E+01  0.82129922455E+02  0.00000000000E+00 0.  1.
         13    1    4    4    0    0 -0.31929311745E+02  0.33411752353E+02 -0.69202230736E+01  0.46730243218E+02  0.00000000000E+00 0. -1.
         21    1    1    2  502  501  0.16109207603E+02  0.31583261831E+02 -0.15707255632E+02  0.38777917389E+02  0.00000000000E+00 0. -1.
<scales pt_clust_5="13000.00000" pt_clust_6="13000.00000" pt_clust_7="13000.00000" pt_clust_8="13000.00000" pt_clust_9="35.45432"></scales>
<clustering>
<clus scale="   35.454">  2  9  1 -1</clus>
<clus scale="   92.152">  5  6 -1 -1</clus>
<clus scale="   95.188">  1  5  2 -1</clus>
<clus scale="  120.713">  7  8 -1 -1</clus>
<clus scale="   35.454">  2  5  1 -1</clus>
</clustering>
</event>
<event>
 9    1  0.1234700E-005  0.1503785E+03  0.7546771E-02  0.1200654E+00
         -2   -1    0    0    0  501 -0.00000000000E+00  0.00000000000E+00  0.51840575640E+02  0.51840575640E+02  0.00000000000E+00 0.  1.
          2   -1    0    0  502    0  0.00000000000E+00 -0.00000000000E+00 -0.96138635885E+03  0.96138635885E+03  0.00000000000E+00 0. -1.
         23    2    1    2    0    0  0.25336569132E+02  0.97143528018E+02 -0.89548991174E+02  0.16115654213E+03  0.88733322259E+02 0.  0.
         23    2    1    2    0    0 -0.65526464211E+02 -0.10470583599E+03 -0.77922886249E+03  0.79432578008E+03  0.92188910187E+02 0.  0.
        -13    1    3    3    0    0  0.55585014796E+02  0.81719711945E+02 -0.75677513515E+02  0.12447847702E+03  0.00000000000E+00 0.  1.
         13    1    3    3    0    0 -0.30248445664E+02  0.15423816072E+02 -0.13871477660E+02  0.36678065104E+02  0.00000000000E+00 0. -1.
        -13    1    4    4    0    0 -0.81047666055E+02 -0.48323979003E+02 -0.52941438538E+03  0.53775786611E+03  0.00000000000E+00 0. -1.
         13    1    4    4    0    0  0.15521201843E+02 -0.56381856985E+02 -0.24981447710E+03  0.25656791396E+03  0.00000000000E+00 0.  1.
         21    1    1    2  502  501  0.40189895080E+02  0.75623079705E+01 -0.40767929550E+02  0.57744612287E+02  0.00000000000E+00 0.  1.
<scales pt_clust_5="13000.00000" pt_clust_6="13000.00000" pt_clust_7="13000.00000" pt_clust_8="13000.00000" pt_clust_9="40.89519"></scales>
<clustering>
<clus scale="   40.895">  1  9  2 -1</clus>
<clus scale="   88.733">  5  6 -1 -1</clus>
<clus scale="   92.189">  7  8 -1 -1</clus>
<clus scale="  148.285">  1  5  2 -1</clus>
<clus scale="  150.379">  2  5  1 -1</clus>
</clustering>
</event>
<event>
 9    1  0.1234700E-005  0.1075061E+03  0.7546771E-02  0.1270272E+00
          4   -1    0    0  502    0  0.00000000000E+00  0.00000000000E+00  0.66287456468E+02  0.66287456468E+02  0.00000000000E+00 0. -1.
         -4   -1    0    0    0  501 -0.00000000000E+00 -0.00000000000E+00 -0.47872824215E+03  0.47872824215E+03  0.00000000000E+00 0.  1.
         23    2    1    2    0    0 -0.28877290170E+02 -0.24788929182E+01 -0.33136312990E+03  0.34847772592E+03  0.10389975364E+03 0.  0.
         23    2    1    2    0    0  0.12854341220E+02 -0.61756171774E+02 -0.51650571128E+02  0.12408915118E+03  0.93548260815E+02 0.  0.
        -11    1    4    4    0    0  0.35013249611E+02 -0.15015487455E+02 -0.60612814227E+02  0.71591240808E+02  0.00000000000E+00 0.  1.
         11    1    4    4    0    0 -0.22158908391E+02 -0.46740684319E+02  0.89622430999E+01  0.52497910369E+02  0.00000000000E+00 0. -1.
        -11    1    3    3    0    0  0.26342857952E+02 -0.27849182197E+02 -0.20130832062E+03  0.20492575012E+03  0.00000000000E+00 0. -1.
         11    1    3    3    0    0 -0.55220148121E+02  0.25370289279E+02 -0.13005480928E+03  0.14355197579E+03  0.00000000000E+00 0.  1.
         21    1    1    2  502  501  0.16022948949E+02  0.64235064692E+02 -0.29427084654E+02  0.72448821525E+02  0.00000000000E+00 0.  1.
<scales pt_clust_5="13000.00000" pt_clust_6="13000.00000" pt_clust_7="13000.00000" pt_clust_8="13000.00000" pt_clust_9="66.20331"></scales>
<clustering>
<clus scale="   66.203">  1  9  2 -1</clus>
<clus scale="   93.548">  5  6 -1 -1</clus>
<clus scale="   97.538">  1  5  2 -1</clus>
<clus scale="  103.900">  7  8 -1 -1</clus>
<clus scale="   66.203">  1  5  2 -1</clus>
</clustering>
</event>
<event>
 9    1  0.1234700E-005  0.1207271E+03  0.7546771E-02  0.1242117E+00
          2   -1    0    0  502    0  0.00000000000E+00  0.00000000000E+00  0.12179774090E+04  0.12179774090E+04  0.00000000000E+00 0. -1.
         -2   -1    0    0    0  501 -0.00000000000E+00 -0.00000000000E+00 -0.32293906621E+02  0.32293906621E+02  0.00000000000E+00 0.  1.
         23    2    1    2    0    0 -0.18405742605E+02 -0.84434455738E+02  0.20902472878E+03  0.24408253920E+03  0.91744209782E+02 0.  0.
         23    2    1    2    0    0  0.91972339326E+02  0.28758406893E+02  0.38054937904E+03  0.40298211460E+03  0.91053817245E+02 0.  0.
        -13    1    4    4    0    0  0.86461053032E+02 -0.11541847131E+02  0.20507871218E+03  0.22285871335E+03  0.00000000000E+00 0.  1.
         13    1    4    4    0    0  0.55112862940E+01  0.40300254024E+02  0.17547066686E+03  0.18012340125E+03  0.00000000000E+00 0. -1.
        -13    1    3    3    0    0  0.31130451717E+02 -0.22881341760E+02  0.31784490315E+02  0.50029138004E+02  0.00000000000E+00 0.  1.
         13    1    3    3    0    0 -0.49536194321E+02 -0.61553113978E+02  0.17724023846E+03  0.19405340120E+03  0.00000000000E+00 0. -1.
         21    1    1    2  502  501 -0.73566596721E+02  0.55676048845E+02  0.59610939454E+03  0.60320666179E+03  0.00000000000E+00 0. -1.
<scales pt_clust_5="13000.00000" pt_clust_6="13000.00000" pt_clust_7="13000.00000" pt_clust_8="13000.00000" pt_clust_9="92.25978"></scales>
<clustering>
<clus scale="   91.054">  5  6 -1 -1</clus>
<clus scale="   91.744">  7  8 -1 -1</clus>
<clus scale="   92.260">  1  9  2 -1</clus>
<clus scale="  120.203">  1  5  2 -1</clus>
<clus scale="   92.260">  1  5  2 -1</clus>
</clustering>
</event>
<event>
 9    1  0.1234700E-005  0.1472848E+03  0.7546771E-02  0.1207082E+00
         -1   -1    0    0    0  501 -0.00000000000E+00  0.00000000000E+00  0.50607089985E+02  0.50607089985E+02  0.00000000000E+00 0.  1.
          1   -1    0    0  502    0  0.00000000000E+00 -0.00000000000E+00 -0.78089675969E+03  0.78089675969E+03  0.00000000000E+00 0. -1.
         23    2    1    2    0    0  0.43059003577E+02  0.97556583673E+02 -0.10064498974E+03  0.18047626677E+03  0.10521836389E+03 0.  0.
         23    2    1    2    0    0 -0.15059539345E+02 -0.92984649387E+02 -0.43292445238E+03  0.45227215400E+03  0.90849243611E+02 0.  0.
        -11    1    3    3    0    0 -0.67404248388E+01  0.36854131261E+02 -0.94575425712E+02  0.10172596260E+03  0.00000000000E+00 0. -1.
         11    1    3    3    0    0  0.49799428416E+02  0.60702452412E+02 -0.60695640290E+01  0.78750304170E+02  0.00000000000E+00 0.  1.
        -13    1    4    4    0    0 -0.53325919247E+02 -0.49247807003E+02 -0.22903766029E+03  0.24026495788E+03  0.00000000000E+00 0. -1.
         13    1    4    4    0    0  0.38266379902E+02 -0.43736842384E+02 -0.20388679210E+03  0.21200719611E+03  0.00000000000E+00 0.  1.
         21    1    1    2  502  501 -0.27999464232E+02 -0.45719342854E+01 -0.19672022759E+03  0.19875542891E+03  0.00000000000E+00 0.  1.
<scales pt_clust_5="13000.00000" pt_clust_6="13000.00000" pt_clust_7="13000.00000" pt_clust_8="13000.00000" pt_clust_9="28.37028"></scales>
<clustering>
<clus scale="   28.370">  2  9  1 -1</clus>
<clus scale="   90.849">  7  8 -1 -1</clus>
<clus scale="  105.218">  5  6 -1 -1</clus>
<clus scale="  137.388">  2  7  1 -1</clus>
<clus scale="   28.370">  2  5  1 -1</clus>
</clustering>
</event>
<event>
 9    1  0.1234700E-005  0.9960812E+02  0.7546771E-02  0.1281886E+00
          2   -1    0    0  502    0  0.00000000000E+00  0.00000000000E+00  0.28043686963E+03  0.28043686963E+03  0.00000000000E+00 0. -1.
         -2   -1    0    0    0  501 -0.00000000000E+00 -0.00000000000E+00 -0.66781988990E+02  0.66781988990E+02  0.00000000000E+00 0.  1.
         23    2    1    2    0    0 -0.31667280681E+02  0.22349833005E+02  0.13532306944E+02  0.10008456431E+03  0.91276858955E+02 0.  0.
         23    2    1    2    0    0  0.41297670279E+02  0.18261288913E+02  0.14538000144E+03  0.17829566530E+03  0.92817170834E+02 0.  0.
        -13    1    3    3    0    0 -0.32929812273E+02  0.56027570001E+02  0.13537507719E+02  0.66383169944E+02  0.00000000000E+00 0.  1.
         13    1    3    3    0    0  0.12625315919E+01 -0.33677736996E+02 -0.52007750498E-02  0.33701394366E+02  0.00000000000E+00 0. -1.
        -13    1    4    4    0    0  0.38905536537E+02  0.54435459137E+02  0.91471523638E+02  0.11333092968E+03  0.00000000000E+00 0.  1.
         13    1    4    4    0    0  0.23921337426E+01 -0.36174170224E+02  0.53908477803E+02  0.64964735621E+02  0.00000000000E+00 0. -1.
         21    1    1    2  502  501 -0.96303895980E+01 -0.40611121918E+02  0.54742572250E+02  0.68838629009E+02  0.00000000000E+00 0. -1.
<scales pt_clust_5="13000.00000" pt_clust_6="13000.00000" pt_clust_7="13000.00000" pt_clust_8="13000.00000" pt_clust_9="41.73736"></scales>
<clustering>
<clus scale="   41.737">  1  9  2 -1</clus>
<clus scale="   91.277">  5  6 -1 -1</clus>
<clus scale="   92.817">  7  8 -1 -1</clus>
<clus scale="   98.174">  2  5  1 -1</clus>
<clus scale="   41.737">  1  5  2 -1</clus>
</clustering>
</event>
<event>
 9    1  0.1234700E-005  0.1610576E+03  0.7546771E-02  0.1187757E+00
          1   -1    0    0  502    0  0.00000000000E+00  0.00000000000E+00  0.29514017636E+03  0.29514017636E+03  0.00000000000E+00 0. -1.
         -1   -1    0    0    0  501 -0.00000000000E+00 -0.00000000000E+00 -0.17734157908E+03  0.17734157908E+03  0.00000000000E+00 0.  1.
         23    2    1    2    0    0 -0.13134482792E+03  0.41017387972E+02 -0.99147682468E+02  0.19251150195E+03  0.91085265029E+02 0.  0.
         23    2    1    2    0    0  0.10830072754E+03 -0.37432280511E+02  0.14923685296E+03  0.20835705615E+03  0.89503080148E+02 0.  0.
        -11    1    3    3    0    0 -0.16460673189E+01  0.32499773989E+02 -0.34207687815E+02  0.47213459443E+02  0.00000000000E+00 0.  1.
         11    1    3    3    0    0 -0.12969876060E+03  0.85176139831E+01 -0.64939994653E+02  0.14529804250E+03  0.00000000000E+00 0. -1.
        -13    1    4    4    0    0  0.12116191086E+03 -0.21011243966E+02  0.13732905661E+03  0.18433922753E+03  0.00000000000E+00 0.  1.
         13    1    4    4    0    0 -0.12861183323E+02 -0.16421036545E+02  0.11907796352E+02  0.24017828621E+02  0.00000000000E+00 0. -1.
         21    1    1    2  502  501  0.23044100382E+02 -0.35851074607E+01  0.67709426785E+02  0.71613197342E+02  0.00000000000E+00 0. -1.
<scales pt_clust_5="13000.00000" pt_clust_6="13000.00000" pt_clust_7="13000.00000" pt_clust_8="13000.00000" pt_clust_9="23.32131"></scales>
<clustering>
<clus scale="   23.321">  1  9  2 -1</clus>
<clus scale="   89.503">  7  8 -1 -1</clus>
<clus scale="   91.085">  5  6 -1 -1</clus>
<clus scale="  160.168">  1  7  2 -1</clus>
<clus scale="   23.321">  1  5  2 -1</clus>
</clustering>
</event>
<event>
 9    1  0.1234700E-005  0.2091743E+03  0.7546771E-02  0.1142230E+00
         -2   -1    0    0    0  501 -0.00000000000E+00  0.00000000000E+00  0.18523531295E+03  0.18523531295E+03  0.00000000000E+00 0.  1.
          2   -1    0    0  502    0  0.00000000000E+00 -0.00000000000E+00 -0.73008334424E+03  0.73008334424E+03  0.00000000000E+00 0. -1.
         23    2    1    2    0    0 -0.94368487526E+02  0.31647708159E+02  0.90640367755E+02  0.16288412914E+03  0.91698279096E+02 0.  0.
         23    2    1    2    0    0  0.17461175826E+03 -0.10177682624E+03 -0.60058702775E+03  0.64029541169E+03  0.91791327736E+02 0.  0.
        -13    1    4    4    0    0  0.12201547100E+03 -0.97115421813E+02 -0.52791135868E+03  0.55046306228E+03  0.00000000000E+00 0. -1.
         13    1    4    4    0    0  0.52596287260E+02 -0.46614044247E+01 -0.72675669070E+02  0.89832349404E+02  0.00000000000E+00 0.  1.
        -13    1    3    3    0    0 -0.39580805532E+02  0.10898135152E+02 -0.13651319583E+02  0.43263934665E+02  0.00000000000E+00 0. -1.
         13    1    3    3    0    0 -0.54787681994E+02  0.20749573007E+02  0.10429168734E+03  0.11962019447E+03  0.00000000000E+00 0.  1.
         21    1    1    2  502  501 -0.80243270735E+02  0.70129118078E+02 -0.34901371296E+02  0.11213911636E+03  0.00000000000E+00 0.  1.
<scales pt_clust_5="13000.00000" pt_clust_6="13000.00000" pt_clust_7="13000.00000" pt_clust_8="13000.00000" pt_clust_9="106.56958"></scales>
<clustering>
<clus scale="   91.698">  7  8 -1 -1</clus>
<clus scale="   91.791">  5  6 -1 -1</clus>
<clus scale="  106.570">  1  9  2 -1</clus>
<clus scale="  209.133">  1  7  2 -1</clus>
<clus scale="  209.174">  2  5  1 -1</clus>
</clustering>
</event>
<event>
 9    1  0.1234700E-005  0.1087444E+03  0.7546771E-02  0.1265198E+00
          1   -1    0    0  502    0  0.00000000000E+00  0.00000000000E+00  0.33976207753E+02  0.33976207753E+02  0.00000000000E+00 0. -1.
         -1   -1    0    0    0  501 -0.00000000000E+00 -0.00000000000E+00 -0.65066004253E+03  0.65066004253E+03  0.00000000000E+00 0.  1.
         23    2    1    2    0    0  0.32646313288E+02 -0.61269273617E+02 -0.46347097097E+03  0.47617113643E+03  0.84343965888E+02 0.  0.
         23    2    1    2    0    0 -0.11999707826E+02  0.39292877358E+02 -0.14765762889E+03  0.17780398300E+03  0.90130781666E+02 0.  0.
        -11    1    3    3    0    0  0.25247197784E+02  0.16871453627E+02 -0.14794220330E+03  0.15102636346E+03  0.00000000000E+00 0. -1.
         11    1    3    3    0    0  0.73991155041E+01 -0.78140727244E+02 -0.31552876767E+03  0.32514477297E+03  0.00000000000E+00 0.  1.
        -11    1    4    4    0    0 -0.24603646816E+02 -0.22071377210E+02 -0.74412956297E+02  0.81423419196E+02  0.00000000000E+00 0.  1.
         11    1    4    4    0    0  0.12603938990E+02  0.61364254569E+02 -0.73244672592E+02  0.96380563808E+02  0.00000000000E+00 0. -1.
         21    1    1    2  502  501 -0.20646605462E+02  0.21976396259E+02 -0.55552349177E+01  0.30661130844E+02  0.00000000000E+00 0.  1.
<scales pt_clust_5="13000.00000" pt_clust_6="13000.00000" pt_clust_7="13000.00000" pt_clust_8="13000.00000" pt_clust_9="30.15368"></scales>
<clustering>
<clus scale="   30.154">  1  9  2 -1</clus>
<clus scale="   84.344">  5  6 -1 -1</clus>
<clus scale="   90.131">  7  8 -1 -1</clus>
<clus scale="  103.999">  2  5  1 -1</clus>
<clus scale="   30.154">  1  5  2 -1</clus>
</clustering>
</event>
<event>
 9    1  0.1234700E-005  0.1310181E+03  0.7546771E-02  0.1226871E+00
         -1   -1    0    0    0  501 -0.00000000000E+00  0.00000000000E+00  0.49308010198E+02  0.49308010198E+02  0.00000000000E+00 0.  1.
          1   -1    0    0  502    0  0.00000000000E+00 -0.00000000000E+00 -0.67588842391E+03  0.67588842391E+03  0.00000000000E+00 0. -1.
         23    2    1    2    0    0 -0.51709550210E+02  0.85297041784E+02 -0.79941342168E+02  0.15755644656E+03  0.92108374998E+02 0.  0.
         23    2    1    2    0    0  0.16277171533E+02 -0.71388821577E+02 -0.40874108248E+03  0.42458493718E+03  0.88553860525E+02 0.  0.
        -11    1    3    3    0    0 -0.26940261722E+02  0.85032952000E+02 -0.18206814186E+02  0.91037732344E+02  0.00000000000E+00 0.  1.
         11    1    3    3    0    0 -0.24769288488E+02  0.26408978350E+00 -0.61734527983E+02  0.66518714215E+02  0.00000000000E+00 0. -1.
        -11    1    4    4    0    0  0.42665165651E+02 -0.45012259226E+01 -0.16131840393E+03  0.16692574649E+03  0.00000000000E+00 0.  1.
         11    1    4    4    0    0 -0.26387994117E+02 -0.66887595654E+02 -0.24742267854E+03  0.25765919068E+03  0.00000000000E+00 0. -1.
         21    1    1    2  502  501  0.35432378677E+02 -0.13908220207E+02 -0.13789798906E+03  0.14305505037E+03  0.00000000000E+00 0. -1.
<scales pt_clust_5="13000.00000" pt_clust_6="13000.00000" pt_clust_7="13000.00000" pt_clust_8="13000.00000" pt_clust_9="38.06431"></scales>
<clustering>
<clus scale="   38.064">  2  9  1 -1</clus>
<clus scale="   88.554">  7  8 -1 -1</clus>
<clus scale="   92.108">  5  6 -1 -1</clus>
<clus scale="  128.544">  2  7  1 -1</clus>
<clus scale="   38.064">  2  5  1 -1</clus>
</clustering>
</event>
<event>
 9    1  0.1234700E-005  0.1114590E+03  0.7546771E-02  0.1259080E+00
          3   -1    0    0  502    0  0.00000000000E+00  0.00000000000E+00  0.35534978934E+03  0.35534978934E+03  0.00000000000E+00 0. -1.
         -3   -1    0    0    0  501 -0.00000000000E+00 -0.00000000000E+00 -0.19852181552E+03  0.19852181552E+03  0.00000000000E+00 0.  1.
         23    2    1    2    0    0 -0.45870487327E+02  0.85311546043E+00 -0.94166890974E+02  0.13980911600E+03  0.92597819338E+02 0.  0.
         23    2    1    2    0    0  0.81807804642E+02 -0.46634724700E+01 -0.31063312285E+02  0.12969859374E+03  0.95616583142E+02 0.  0.
        -11    1    4    4    0    0  0.26403511880E+02  0.44319021153E+02 -0.17759348019E+02  0.54559284431E+02  0.00000000000E+00 0.  1.
         11    1    4    4    0    0  0.55404292761E+02 -0.48982493623E+02 -0.13303964267E+02  0.75139309307E+02  0.00000000000E+00 0. -1.
        -13    1    3    3    0    0 -0.28461689035E+02 -0.36689048888E+02 -0.85844650564E+02  0.97598453274E+02  0.00000000000E+00 0. -1.
         13    1    3    3    0    0 -0.17408798292E+02  0.37542164348E+02 -0.83222404100E+01  0.42210662721E+02  0.00000000000E+00 0.  1.
         21    1    1    2  502  501 -0.35937317314E+02  0.38103570096E+01  0.28205817708E+03  0.28436389513E+03  0.00000000000E+00 0. -1.
<scales pt_clust_5="13000.00000" pt_clust_6="13000.00000" pt_clust_7="13000.00000" pt_clust_8="13000.00000" pt_clust_9="36.13875"></scales>
<clustering>
<clus scale="   36.139">  1  9  2 -1</clus>
<clus scale="   92.598">  7  8 -1 -1</clus>
<clus scale="   95.617">  5  6 -1 -1</clus>
<clus scale="  108.880">  2  7  1 -1</clus>
<clus scale="   36.139">  1  5  2 -1</clus>
</clustering>
</event>
<event>
 9    1  0.1234700E-005  0.1019694E+03  0.7546771E-02  0.1276460E+00
         -2   -1    0    0    0  501 -0.00000000000E+00  0.00000000000E+00  0.31378183638E+02  0.31378183638E+02  0.00000000000E+00 0.  1.
          2   -1    0    0  502    0  0.00000000000E+00 -0.00000000000E+00 -0.65418365819E+03  0.65418365819E+03  0.00000000000E+00 0. -1.
         23    2    1    2    0    0 -0.40514200137E+02 -0.39086834906E+02 -0.11340309086E+03  0.15641807694E+03  0.91854083749E+02 0.  0.
         23    2    1    2    0    0  0.26009692005E+02 -0.41268527290E+01 -0.29422184573E+03  0.30918816147E+03  0.91308760259E+02 0.  0.
        -11    1    4    4    0    0 -0.28526684348E+02 -0.21334038734E+02 -0.14687842873E+03  0.15113631515E+03  0.00000000000E+00 0. -1.
         11    1    4    4    0    0  0.54536376353E+02  0.17207186005E+02 -0.14734341699E+03  0.15805184632E+03  0.00000000000E+00 0.  1.
        -13    1    3    3    0    0  0.17505946514E+02 -0.43448924477E+02 -0.68204214140E+02  0.82741054067E+02  0.00000000000E+00 0.  1.
         13    1    3    3    0    0 -0.58020146651E+02  0.43620895711E+01 -0.45198876721E+02  0.73677022875E+02  0.00000000000E+00 0. -1.
         21    1    1    2  502  501  0.14504508132E+02  0.43213687635E+02 -0.21518053796E+03  0.21995560341E+03  0.00000000000E+00 0.  1.
<scales pt_clust_5="13000.00000" pt_clust_6="13000.00000" pt_clust_7="13000.00000" pt_clust_8="13000.00000" pt_clust_9="45.58293"></scales>
<clustering>
<clus scale="   45.583">  2  9  1 -1</clus>
<clus scale="   91.309">  5  6 -1 -1</clus>
<clus scale="   91.854">  7  8 -1 -1</clus>
<clus scale="  101.478">  2  5  1 -1</clus>
<clus scale="   45.583">  2  5  1 -1</clus>
</clustering>
</event>
<event>
 9    1  0.1234700E-005  0.1211176E+03  0.7546771E-02  0.1241436E+00
         -2   -1    0    0    0  501 -0.00000000000E+00  0.00000000000E+00  0.32487259510E+03  0.32487259510E+03  0.00000000000E+00 0.  1.
          2   -1    0    0  502    0  0.00000000000E+00 -0.00000000000E+00 -0.19421762319E+03  0.19421762319E+03  0.00000000000E+00 0. -1.
         23    2    1    2    0    0 -0.52200989125E+02 -0.56689838946E+02  0.26523201743E+03  0.29083019052E+03  0.91079610999E+02 0.  0.
         23    2    1    2    0    0  0.54308923714E+02  0.93892619222E+02 -0.80543853008E+02  0.16262409141E+03  0.90520714269E+02 0.  0.
        -11    1    4    4    0    0  0.59651905319E+02  0.27252294453E+02 -0.68243396852E+02  0.94647760539E+02  0.00000000000E+00 0.  1.
         11    1    4    4    0    0 -0.53429816045E+01  0.66640324769E+02 -0.12300456156E+02  0.67976330876E+02  0.00000000000E+00 0. -1.
        -11    1    3    3    0    0  0.22687168791E+02 -0.30773205937E+02  0.11154502719E+03  0.11791518529E+03  0.00000000000E+00 0. -1.
         11    1    3    3    0    0 -0.74888157916E+02 -0.25916633010E+02  0.15368699024E+03  0.17291500522E+03  0.00000000000E+00 0.  1.
         21    1    1    2  502  501 -0.21079345889E+01 -0.37202780275E+02 -0.54033192514E+02  0.65635936358E+02  0.00000000000E+00 0.  1.
<scales pt_clust_5="13000.00000" pt_clust_6="13000.00000" pt_clust_7="13000.00000" pt_clust_8="13000.00000" pt_clust_9="37.26245"></scales>
<clustering>
<clus scale="   37.262">  2  9  1 -1</clus>
<clus scale="   90.521">  5  6 -1 -1</clus>
<clus scale="   91.080">  7  8 -1 -1</clus>
<clus scale="  120.698">  2  5  1 -1</clus>
<clus scale="   37.262">  2  5  1 -1</clus>
</clustering>
</event>
<event>
 9    1  0.1234700E-005  0.1045727E+03  0.7546771E-02  0.1271016E+00
         -2   -1    0    0    0  501 -0.00000000000E+00  0.00000000000E+00  0.21015856133E+03  0.21015856133E+03  0.00000000000E+00 0.  1.
          2   -1    0    0  502    0  0.00000000000E+00 -0.00000000000E+00 -0.36710497753E+03  0.36710497753E+03  0.00000000000E+00 0. -1.
         23    2    1    2    0    0  0.37507066658E+02  0.41714578871E+02  0.17018665353E+03  0.20047368925E+03  0.89885020456E+02 0.  0.
         23    2    1    2    0    0 -0.21568607362E+02  0.21764205592E+02 -0.28117773687E+03  0.29681808471E+03  0.90006501036E+02 0.  0.
        -13    1    3    3    0    0  0.58932412639E+02  0.52247102249E+02  0.10648849414E+03  0.13244843652E+03  0.00000000000E+00 0.  1.
         13    1    3    3    0    0 -0.21425345981E+02 -0.10532523378E+02  0.63698159394E+02  0.68025252732E+02  0.00000000000E+00 0. -1.
        -13    1    4    4    0    0 -0.19677171586E+02  0.54968451838E+02 -0.21453457409E+03  0.22233714323E+03  0.00000000000E+00 0.  1.
         13    1    4    4    0    0 -0.18914357763E+01 -0.33204246246E+02 -0.66643162782E+02  0.74480941479E+02  0.00000000000E+00 0. -1.
         21    1    1    2  502  501 -0.15938459296E+02 -0.63478784464E+02 -0.45955332870E+02  0.79971764898E+02  0.00000000000E+00 0.  1.
<scales pt_clust_5="13000.00000" pt_clust_6="13000.00000" pt_clust_7="13000.00000" pt_clust_8="13000.00000" pt_clust_9="65.44914"></scales>
<clustering>
<clus scale="   65.449">  2  9  1 -1</clus>
<clus scale="   89.885">  5  6 -1 -1</clus>
<clus scale="   90.007">  7  8 -1 -1</clus>
<clus scale="  104.468">  1  5  2 -1</clus>
<clus scale="   65.449">  2  5  1 -1</clus>
</clustering>
</event>
<event>
 9    1  0.1234700E-005  0.2084549E+03  0.7546771E-02  0.1142869E+00
          2   -1    0    0  502    0  0.00000000000E+00  0.00000000000E+00  0.75024402277E+02  0.75024402277E+02  0.00000000000E+00 0. -1.
         -2   -1    0    0    0  501 -0.00000000000E+00 -0.00000000000E+00 -0.94270371608E+03  0.94270371608E+03  0.00000000000E+00 0.  1.
         23    2    1    2    0    0  0.16159973544E+03  0.72487153334E+02 -0.57694180414E+03  0.61040610909E+03  0.91459886060E+02 0.  0.
         23    2    1    2    0    0 -0.20867317318E+03 -0.61247003646E+02 -0.23068433012E+03  0.33019462192E+03  0.92290516955E+02 0.  0.
        -11    1    3    3    0    0  0.12686221242E+02  0.46271335068E+02 -0.14935639229E+03  0.15687354326E+03  0.00000000000E+00 0. -1.
         11    1    3    3    0    0  0.14891351420E+03  0.26215818266E+02 -0.42758541185E+03  0.45353256583E+03  0.00000000000E+00 0.  1.
        -13    1    4    4    0    0 -0.20721323777E+03 -0.37205787308E+02 -0.21764868704E+03  0.30280777316E+03  0.00000000000E+00 0. -1.
         13    1    4    4    0    0 -0.14599354125E+01 -0.24041216338E+02 -0.13035643079E+02  0.27386848758E+02  0.00000000000E+00 0.  1.
         21    1    1    2  502  501  0.47073437743E+02 -0.11240149688E+02 -0.60053179552E+02  0.77127387355E+02  0.00000000000E+00 0. -1.
<scales pt_clust_5="13000.00000" pt_clust_6="13000.00000" pt_clust_7="13000.00000" pt_clust_8="13000.00000" pt_clust_9="48.39679"></scales>
<clustering>
<clus scale="   48.397">  1  9  2 -1</clus>
<clus scale="   91.460">  5  6 -1 -1</clus>
<clus scale="   92.291">  7  8 -1 -1</clus>
<clus scale="  208.088">  2  5  1 -1</clus>
<clus scale="   48.397">  1  5  2 -1</clus>
</clustering>
</event>
<event>
 9    1  0.1234700E-005  0.1605250E+03  0.7546771E-02  0.1207864E+00
          1   -1    0    0  502    0  0.00000000000E+00  0.00000000000E+00  0.12633856381E+04  0.12633856381E+04  0.00000000000E+00 0. -1.
         -1   -1    0    0    0  501 -0.00000000000E+00 -0.00000000000E+00 -0.32943900162E+02  0.32943900162E+02  0.00000000000E+00 0.  1.
         23    2    1    2    0    0 -0.13542582954E+03  0.46518196581E+02  0.43203613812E+03  0.46420431576E+03  0.91248694265E+02 0.  0.
         23    2    1    2    0    0  0.40895828886E+02  0.39170260331E+02  0.42083778249E+03  0.43358301727E+03  0.87652812734E+02 0.  0.
        -13    1    4    4    0    0  0.36557394541E+02  0.66790662029E+02  0.29392076321E+03  0.30362287574E+03  0.00000000000E+00 0.  1.
         13    1    4    4    0    0  0.43384343452E+01 -0.27620401698E+02  0.12691701928E+03  0.12996014153E+03  0.00000000000E+00 0. -1.
        -13    1    3    3    0    0 -0.63536029353E+02 -0.23093668069E+02  0.21113953951E+03  0.22169810481E+03  0.00000000000E+00 0.  1.
         13    1    3    3    0    0 -0.71889800183E+02  0.69611864651E+02  0.22089659861E+03  0.24250621095E+03  0.00000000000E+00 0. -1.
         21    1    1    2  502  501  0.94530000649E+02 -0.85688456912E+02  0.37756781728E+03  0.39854220519E+03  0.00000000000E+00 0.  1.
<scales pt_clust_5="13000.00000" pt_clust_6="13000.00000" pt_clust_7="13000.00000" pt_clust_8="13000.00000" pt_clust_9="132.06792"></scales>
<clustering>
<clus scale="   87.653">  5  6 -1 -1</clus>
<clus scale="   91.249">  7  8 -1 -1</clus>
<clus scale="  104.354">  1  5  2 -1</clus>
<clus scale="  132.068">  1  9  2 -1</clus>
<clus scale="  104.354">  1  5  2 -1</clus>
</clustering>
</event>
<event>
 9    1  0.4600500E-005  0.9886938E+02  0.7546771E-02  0.1282871E+00
         -2   -1    0    0    0  501 -0.00000000000E+00  0.00000000000E+00  0.11481562000E+03  0.11481562000E+03  0.00000000000E+00 0.  1.
          2   -1    0    0  502    0  0.00000000000E+00 -0.00000000000E+00 -0.46847129364E+03  0.46847129364E+03  0.00000000000E+00 0. -1.
         23    2    1    2    0    0  0.84943542087E+01  0.34891268658E+02  0.75362164575E+02  0.12424814806E+03  0.92024951856E+02 0.  0.
         23    2    1    2    0    0  0.33014644519E+02 -0.31517400030E+02 -0.38454052188E+03  0.39810756148E+03  0.92384545690E+02 0.  0.
        -11    1    3    3    0    0  0.34692606633E+02  0.26716781858E+02 -0.27232130570E+00  0.43788554974E+02  0.00000000000E+00 0. -1.
         11    1    3    3    0    0 -0.26198252425E+02  0.81744868000E+01  0.75634485881E+02  0.80459593082E+02  0.00000000000E+00 0.  1.
        -13    1    4    4    0    0 -0.18469252123E+02 -0.39562212481E+02 -0.10440170637E+03  0.11316359053E+03  0.00000000000E+00 0. -1.
         13    1    4    4    0    0  0.51483896642E+02  0.80448124514E+01 -0.28013881552E+03  0.28494397095E+03  0.00000000000E+00 0.  1.
         21    1    1    2  502  501 -0.41508998728E+02 -0.33738686279E+01 -0.44477316329E+02  0.60931204097E+02  0.00000000000E+00 0. -1.
<scales pt_clust_5="13000.00000" pt_clust_6="13000.00000" pt_clust_7="13000.00000" pt_clust_8="13000.00000" pt_clust_9="41.64589"></scales>
<clustering>
<clus scale="   41.646">  2  9  1 -1</clus>
<clus scale="   92.025">  5  6 -1 -1</clus>
<clus scale="   92.385">  7  8 -1 -1</clus>
<clus scale="   98.533">  1  5  2 -1</clus>
<clus scale="   41.646">  2  5  1 -1</clus>
</clustering>
</event>
<event>
 9    1  0.1234700E-005  0.1016434E+03  0.7546771E-02  0.1278203E+00
          2   -1    0    0  502    0  0.00000000000E+00  0.00000000000E+00  0.28195503925E+03  0.28195503925E+03  0.00000000000E+00 0. -1.
         -2   -1    0    0    0  501 -0.00000000000E+00 -0.00000000000E+00 -0.73893363995E+02  0.73893363995E+02  0.00000000000E+00 0.  1.
         23    2    1    2    0    0  0.33982499994E+02  0.32093655614E+02 -0.86488612736E+00  0.10177032234E+03  0.90397109710E+02 0.  0.
         23    2    1    2    0    0 -0.34524750929E+02  0.11818484823E+02  0.15555971925E+03  0.18496520257E+03  0.93175452221E+02 0.  0.
        -11    1    3    3    0    0 -0.92631702936E+00  0.53220666758E+02 -0.19793209543E+02  0.56789687246E+02  0.00000000000E+00 0.  1.
         11    1    3    3    0    0  0.34908817023E+02 -0.21127011144E+02  0.18928323416E+02  0.44980635091E+02  0.00000000000E+00 0. -1.
        -13    1    4    4    0    0 -0.62774060586E+02 -0.10671404236E+02  0.10583213490E+03  0.12351073771E+03  0.00000000000E+00 0. -1.
         13    1    4    4    0    0  0.28249309657E+02  0.22489889059E+02  0.49727584349E+02  0.61454464859E+02  0.00000000000E+00 0.  1.
         21    1    1    2  502  501  0.54225093543E+00 -0.43912140437E+02  0.53366842136E+02  0.69112878347E+02  0.00000000000E+00 0. -1.
<scales pt_clust_5="13000.00000" pt_clust_6="13000.00000" pt_clust_7="13000.00000" pt_clust_8="13000.00000" pt_clust_9="43.91549"></scales>
<clustering>
<clus scale="   43.915">  1  9  2 -1</clus>
<clus scale="   90.397">  5  6 -1 -1</clus>
<clus scale="   93.175">  7  8 -1 -1</clus>
<clus scale="   99.103">  2  5  1 -1</clus>
<clus scale="   43.915">  1  5  2 -1</clus>
</clustering>
</event>
<event>
 9    1  0.1234700E-005  0.1006259E+03  0.7546771E-02  0.1280147E+00
          4   -1    0    0  502    0  0.00000000000E+00  0.00000000000E+00  0.25074405498E+03  0.25074405498E+03  0.00000000000E+00 0. -1.
         -4   -1    0    0    0  501 -0.00000000000E+00 -0.00000000000E+00 -0.15076760953E+03  0.15076760953E+03  0.00000000000E+00 0.  1.
         23    2    1    2    0    0  0.31995644571E+02  0.18054850758E+02 -0.61421809206E+02  0.11611683672E+03  0.91437313039E+02 0.  0.
         23    2    1    2    0    0 -0.15723728301E+02 -0.38068257357E+02 -0.18115737628E+02  0.10403721111E+03  0.93803696603E+02 0.  0.
        -13    1    3    3    0    0  0.28662226263E+01  0.35888648009E+02 -0.71883432694E+02  0.80395510969E+02  0.00000000000E+00 0.  1.
         13    1    3    3    0    0  0.29129421945E+02 -0.17833797252E+02  0.10461623488E+02  0.35721325749E+02  0.00000000000E+00 0. -1.
        -13    1    4    4    0    0 -0.40943489692E+02  0.13083568188E+02  0.33190067552E+01  0.43111076425E+02  0.00000000000E+00 0.  1.
         13    1    4    4    0    0  0.25219761391E+02 -0.51151825545E+02 -0.21434744383E+02  0.60926134687E+02  0.00000000000E+00 0. -1.
         21    1    1    2  502  501 -0.16271916271E+02  0.20013406599E+02  0.17951399228E+03  0.18135761668E+03  0.00000000000E+00 0.  1.
<scales pt_clust_5="13000.00000" pt_clust_6="13000.00000" pt_clust_7="13000.00000" pt_clust_8="13000.00000" pt_clust_9="25.79364"></scales>
<clustering>
<clus scale="   25.794">  1  9  2 -1</clus>
<clus scale="   91.437">  5  6 -1 -1</clus>
<clus scale="   93.804">  7  8 -1 -1</clus>
<clus scale="   98.424">  2  5  1 -1</clus>
<clus scale="   25.794">  1  5  2 -1</clus>
</clustering>
</event>
<event>
 9    1  0.1234700E-005  0.1069745E+03  0.7546771E-02  0.1271734E+00
          1   -1    0    0  502    0  0.00000000000E+00  0.00000000000E+00  0.25740227157E+03  0.25740227157E+03  0.00000000000E+00 0. -1.
         -1   -1    0    0    0  501 -0.00000000000E+00 -0.00000000000E+00 -0.21990284174E+03  0.21990284174E+03  0.00000000000E+00 0.  1.
         23    2    1    2    0    0 -0.29288905980E+01  0.29412526259E+02 -0.18836061354E+03  0.21175485926E+03  0.92123420404E+02 0.  0.
         23    2    1    2    0    0 -0.14172892807E+02 -0.65401809575E+01  0.13741633196E+03  0.17260992230E+03  0.10328258387E+03 0.  0.
        -13    1    4    4    0    0 -0.29659747766E+02  0.38069921717E+02  0.10432802349E+03  0.11494936304E+03  0.00000000000E+00 0.  1.
         13    1    4    4    0    0  0.15486854959E+02 -0.44610102674E+02  0.33088308463E+02  0.57660559259E+02  0.00000000000E+00 0. -1.
        -13    1    3    3    0    0  0.38398577076E+02  0.37242223382E+02 -0.12163689562E+03  0.13287952551E+03  0.00000000000E+00 0.  1.
         13    1    3    3    0    0 -0.41327467674E+02 -0.78296971233E+01 -0.66723717921E+02  0.78875333752E+02  0.00000000000E+00 0. -1.
         21    1    1    2  502  501  0.17101783405E+02 -0.22872345301E+02  0.88443711423E+02  0.92940331748E+02  0.00000000000E+00 0. -1.
<scales pt_clust_5="13000.00000" pt_clust_6="13000.00000" pt_clust_7="13000.00000" pt_clust_8="13000.00000" pt_clust_9="28.55898"></scales>
<clustering>
<clus scale="   28.559">  1  9  2 -1</clus>
<clus scale="   92.123">  7  8 -1 -1</clus>
<clus scale="   96.244">  2  7  1 -1</clus>
<clus scale="  103.283">  5  6 -1 -1</clus>
<clus scale="   28.559">  1  5  2 -1</clus>
</clustering>
</event>
<event>
 9    1  0.1234700E-005  0.1455713E+03  0.7546771E-02  0.1206295E+00
          1   -1    0    0  502    0  0.00000000000E+00  0.00000000000E+00  0.13669211658E+03  0.13669211658E+03  0.00000000000E+00 0. -1.
         -1   -1    0    0    0  501 -0.00000000000E+00 -0.00000000000E+00 -0.30634182687E+03  0.30634182687E+03  0.00000000000E+00 0.  1.
         23    2    1    2    0    0 -0.50481263259E+02 -0.11940064887E+03 -0.15999047276E+03  0.22518147767E+03  0.91131079342E+02 0.  0.
         23    2    1    2    0    0  0.41843294832E+02  0.81737501024E+02 -0.68678106046E+02  0.14730918796E+03  0.92473965041E+02 0.  0.
        -11    1    3    3    0    0 -0.19405868615E+02  0.10638415020E+02 -0.10101720866E+02  0.24327111939E+02  0.00000000000E+00 0. -1.
         11    1    3    3    0    0 -0.31075394644E+02 -0.13003906389E+03 -0.14988875189E+03  0.20085436574E+03  0.00000000000E+00 0.  1.
        -13    1    4    4    0    0  0.27981938566E+02 -0.54476942232E+00 -0.56409037975E+02  0.62970351952E+02  0.00000000000E+00 0.  1.
         13    1    4    4    0    0  0.13861356266E+02  0.82282270447E+02 -0.12269068070E+02  0.84338836005E+02  0.00000000000E+00 0. -1.
         21    1    1    2  502  501  0.86379684271E+01  0.37663147850E+02  0.59018868518E+02  0.70543277820E+02  0.00000000000E+00 0.  1.
<scales pt_clust_5="13000.00000" pt_clust_6="13000.00000" pt_clust_7="13000.00000" pt_clust_8="13000.00000" pt_clust_9="38.64100"></scales>
<clustering>
<clus scale="   38.641">  1  9  2 -1</clus>
<clus scale="   91.131">  5  6 -1 -1</clus>
<clus scale="   92.474">  7  8 -1 -1</clus>
<clus scale="  144.722">  2  5  1 -1</clus>
<clus scale="   38.641">  1  5  2 -1</clus>
</clustering>
</event>
<event>
 9    1  0.1234700E-005  0.9365116E+02  0.7546771E-02  0.1294633E+00
         -1   -1    0    0    0  501 -0.00000000000E+00  0.00000000000E+00  0.32220193581E+02  0.32220193581E+02  0.00000000000E+00 0.  1.
          1   -1    0    0  502    0  0.00000000000E+00 -0.00000000000E+00 -0.42479229004E+03  0.42479229004E+03  0.00000000000E+00 0. -1.
         23    2    1    2    0    0  0.59707656373E-01 -0.77937585345E+01 -0.10876848351E+03  0.14208500924E+03  0.91086884932E+02 0.  0.
         23    2    1    2    0    0  0.12342905063E+02  0.31442015026E+02 -0.15416692912E+03  0.18256911752E+03  0.91777410212E+02 0.  0.
        -11    1    4    4    0    0  0.10580819965E+02 -0.25138643499E+02 -0.12483671402E+02  0.29995786367E+02  0.00000000000E+00 0. -1.
         11    1    4    4    0    0  0.17620850975E+01  0.56580658525E+02 -0.14168325772E+03  0.15257333116E+03  0.00000000000E+00 0.  1.
        -13    1    3    3    0    0  0.30588640774E+01  0.41670972815E+02 -0.46784262680E+02  0.62726341033E+02  0.00000000000E+00 0.  1.
         13    1    3    3    0    0 -0.29991564210E+01 -0.49464731350E+02 -0.61984220834E+02  0.79358668204E+02  0.00000000000E+00 0. -1.
         21    1    1    2  502  501 -0.12402612719E+02 -0.23648256491E+02 -0.12963668383E+03  0.13235835686E+03  0.00000000000E+00 0. -1.
<scales pt_clust_5="13000.00000" pt_clust_6="13000.00000" pt_clust_7="13000.00000" pt_clust_8="13000.00000" pt_clust_9="26.70327"></scales>
<clustering>
<clus scale="   26.703">  2  9  1 -1</clus>
<clus scale="   91.087">  7  8 -1 -1</clus>
<clus scale="   91.777">  5  6 -1 -1</clus>
<clus scale="   92.975">  1  7  2 -1</clus>
<clus scale="   26.703">  2  5  1 -1</clus>
</clustering>
</event>
<event>
 9    1  0.1234700E-005  0.1083646E+03  0.7546771E-02  0.1271526E+00
          2   -1    0    0  502    0  0.00000000000E+00  0.00000000000E+00  0.27953527648E+03  0.27953527648E+03  0.00000000000E+00 0. -1.
         -2   -1    0    0    0  501 -0.00000000000E+00 -0.00000000000E+00 -0.14782406160E+03  0.14782406160E+03  0.00000000000E+00 0.  1.
         23    2    1    2    0    0 -0.37323229796E+01  0.18920787120E+02 -0.87731197921E+02  0.13926522032E+03  0.10642420816E+03 0.  0.
         23    2    1    2    0    0 -0.20956830360E+02 -0.23601225451E+02  0.35398621663E+02  0.10234273054E+03  0.90690492870E+02 0.  0.
        -11    1    3    3    0    0  0.32508533435E+02 -0.16501206348E+02 -0.80114438673E+02  0.88019417408E+02  0.00000000000E+00 0.  1.
         11    1    3    3    0    0 -0.36240856415E+02  0.35421993468E+02 -0.76167592481E+01  0.51245802915E+02  0.00000000000E+00 0. -1.
        -11    1    4    4    0    0 -0.17765984349E+02 -0.58166996017E+02  0.17500445148E+02  0.63287401637E+02  0.00000000000E+00 0.  1.
         11    1    4    4    0    0 -0.31908460102E+01  0.34565770566E+02  0.17898176515E+02  0.39055328902E+02  0.00000000000E+00 0. -1.
         21    1    1    2  502  501  0.24689153339E+02  0.46804383312E+01  0.18404379114E+03  0.18575138721E+03  0.00000000000E+00 0. -1.
<scales pt_clust_5="13000.00000" pt_clust_6="13000.00000" pt_clust_7="13000.00000" pt_clust_8="13000.00000" pt_clust_9="25.12888"></scales>
<clustering>
<clus scale="   25.129">  1  9  2 -1</clus>
<clus scale="   90.690">  7  8 -1 -1</clus>
<clus scale="   92.960">  1  7  2 -1</clus>
<clus scale="  106.424">  5  6 -1 -1</clus>
<clus scale="   25.129">  1  5  2 -1</clus>
</clustering>
</event>
<event>
 9    1  0.1234700E-005  0.1102602E+03  0.7546771E-02  0.1260512E+00
         -1   -1    0    0    0  501 -0.00000000000E+00  0.00000000000E+00  0.30638294511E+02  0.30638294511E+02  0.00000000000E+00 0.  1.
          1   -1    0    0  502    0  0.00000000000E+00 -0.00000000000E+00 -0.69052267325E+03  0.69052267325E+03  0.00000000000E+00 0. -1.
         23    2    1    2    0    0 -0.37943831060E+02  0.44581413488E+02 -0.12314031493E+03  0.16385071059E+03  0.90864082321E+02 0.  0.
         23    2    1    2    0    0  0.65789950409E+02 -0.29392691180E+02 -0.38731554100E+03  0.40455232096E+03  0.91961971596E+02 0.  0.
        -11    1    3    3    0    0  0.90160219915E+01  0.28771278872E+02 -0.10786505246E+03  0.11199975304E+03  0.00000000000E+00 0. -1.
         11    1    3    3    0    0 -0.46959853052E+02  0.15810134615E+02 -0.15275262479E+02  0.51850957551E+02  0.00000000000E+00 0.  1.
        -11    1    4    4    0    0  0.25814657249E+01 -0.45324257090E+02 -0.22692661479E+03  0.23142307738E+03  0.00000000000E+00 0. -1.
         11    1    4    4    0    0  0.63208484684E+02  0.15931565910E+02 -0.16038892622E+03  0.17312924358E+03  0.00000000000E+00 0.  1.
         21    1    1    2  502  501 -0.27846119349E+02 -0.15188722308E+02 -0.14942852280E+03  0.15275793621E+03  0.00000000000E+00 0.  1.
<scales pt_clust_5="13000.00000" pt_clust_6="13000.00000" pt_clust_7="13000.00000" pt_clust_8="13000.00000" pt_clust_9="31.71914"></scales>
<clustering>
<clus scale="   31.719">  2  9  1 -1</clus>
<clus scale="   90.864">  5  6 -1 -1</clus>
<clus scale="   91.962">  7  8 -1 -1</clus>
<clus scale="  109.346">  1  5  2 -1</clus>
<clus scale="   31.719">  2  5  1 -1</clus>
</clustering>
</event>
<event>
 9    1  0.1234700E-005  0.9464160E+02  0.7546771E-02  0.1292133E+00
         -2   -1    0    0    0  501 -0.00000000000E+00  0.00000000000E+00  0.12096929124E+03  0.12096929124E+03  0.00000000000E+00 0.  1.
          2   -1    0    0  502    0  0.00000000000E+00 -0.00000000000E+00 -0.22025000754E+03  0.22025000754E+03  0.00000000000E+00 0. -1.
         23    2    1    2    0    0  0.30666093405E+02  0.14117344870E+01  0.47198096361E+02  0.10752092524E+03  0.91600692054E+02 0.  0.
         23    2    1    2    0    0  0.44559831920E+01 -0.39828284178E+02 -0.26930667389E+02  0.10330991319E+03  0.91331973098E+02 0.  0.
        -11    1    4    4    0    0 -0.81994403853E+01 -0.22486155922E+02  0.32361431409E+02  0.40250717678E+02  0.00000000000E+00 0.  1.
         11    1    4    4    0    0  0.12655423577E+02 -0.17342128256E+02 -0.59292098798E+02  0.63059195509E+02  0.00000000000E+00 0. -1.
        -13    1    3    3    0    0  0.35816198905E+02 -0.40101233086E+02  0.34176510891E+02  0.63709833587E+02  0.00000000000E+00 0.  1.
         13    1    3    3    0    0 -0.51501054995E+01  0.41512967573E+02  0.13021585470E+02  0.43811091650E+02  0.00000000000E+00 0. -1.
         21    1    1    2  502  501 -0.35122076597E+02  0.38416549691E+02 -0.11954814527E+03  0.13038846035E+03  0.00000000000E+00 0. -1.
<scales pt_clust_5="13000.00000" pt_clust_6="13000.00000" pt_clust_7="13000.00000" pt_clust_8="13000.00000" pt_clust_9="52.05182"></scales>
<clustering>
<clus scale="   52.052">  2  9  1 -1</clus>
<clus scale="   91.332">  5  6 -1 -1</clus>
<clus scale="   91.601">  7  8 -1 -1</clus>
<clus scale="   94.382">  2  5  1 -1</clus>
<clus scale="   52.052">  2  5  1 -1</clus>
</clustering>
</event>
<event>
 9    1  0.1234700E-005  0.9887168E+02  0.7546771E-02  0.1288822E+00
          1   -1    0    0  502    0  0.00000000000E+00  0.00000000000E+00  0.55901102366E+03  0.55901102366E+03  0.00000000000E+00 0. -1.
         -1   -1    0    0    0  501 -0.00000000000E+00 -0.00000000000E+00 -0.22173720794E+03  0.22173720794E+03  0.00000000000E+00 0.  1.
         23    2    1    2    0    0  0.16833641428E+01  0.15199785586E+02 -0.19363834976E+03  0.21745692003E+03  0.97764177356E+02 0.  0.
         23    2    1    2    0    0 -0.47837366593E+02  0.33078043025E+01  0.15442907050E+03  0.18353843978E+03  0.86825490783E+02 0.  0.
        -11    1    3    3    0    0 -0.28580360459E+02 -0.83990638790E+01 -0.16954861405E+03  0.17214561802E+03  0.00000000000E+00 0.  1.
         11    1    3    3    0    0  0.30263724602E+02  0.23598849465E+02 -0.24089735706E+02  0.45311302003E+02  0.00000000000E+00 0. -1.
        -13    1    4    4    0    0  0.53570664629E+01  0.32541854711E+02  0.27878938386E+02  0.43184553658E+02  0.00000000000E+00 0.  1.
         13    1    4    4    0    0 -0.53194433056E+02 -0.29234050409E+02  0.12655013212E+03  0.14035388612E+03  0.00000000000E+00 0. -1.
         21    1    1    2  502  501  0.46154002450E+02 -0.18507589888E+02  0.37648309498E+03  0.37975287179E+03  0.00000000000E+00 0. -1.
<scales pt_clust_5="13000.00000" pt_clust_6="13000.00000" pt_clust_7="13000.00000" pt_clust_8="13000.00000" pt_clust_9="49.72648"></scales>
<clustering>
<clus scale="   49.726">  1  9  2 -1</clus>
<clus scale="   86.825">  7  8 -1 -1</clus>
<clus scale="   88.071">  1  7  2 -1</clus>
<clus scale="   97.764">  5  6 -1 -1</clus>
<clus scale="   49.726">  1  5  2 -1</clus>
</clustering>
</event>
<event>
 9    1  0.1234700E-005  0.1153085E+03  0.7546771E-02  0.1251922E+00
         -1   -1    0    0    0  501 -0.00000000000E+00  0.00000000000E+00  0.87161860437E+02  0.87161860437E+02  0.00000000000E+00 0.  1.
          1   -1    0    0  502    0  0.00000000000E+00 -0.00000000000E+00 -0.50213111107E+03  0.50213111107E+03  0.00000000000E+00 0. -1.
         23    2    1    2    0    0  0.12571709258E+02 -0.11307986117E+03 -0.12206736151E+03  0.19102605852E+03  0.92980704510E+02 0.  0.
         23    2    1    2    0    0  0.17104758522E+02  0.55386091614E+02 -0.31252592996E+03  0.33048515464E+03  0.90486400263E+02 0.  0.
        -11    1    4    4    0    0  0.50271215579E+02  0.47914984068E+02 -0.16364018465E+03  0.17776712532E+03  0.00000000000E+00 0. -1.
         11    1    4    4    0    0 -0.33166457058E+02  0.74711075463E+01 -0.14888574531E+03  0.15271802931E+03  0.00000000000E+00 0.  1.
        -13    1    3    3    0    0  0.31253965822E+02 -0.99774040173E+02 -0.50962715410E+02  0.11631366142E+03  0.00000000000E+00 0.  1.
         13    1    3    3    0    0 -0.18682256564E+02 -0.13305821000E+02 -0.71104646100E+02  0.74712397095E+02  0.00000000000E+00 0. -1.
         21    1    1    2  502  501 -0.29676467779E+02  0.57693769559E+02  0.19624040836E+02  0.67781758346E+02  0.00000000000E+00 0. -1.
<scales pt_clust_5="13000.00000" pt_clust_6="13000.00000" pt_clust_7="13000.00000" pt_clust_8="13000.00000" pt_clust_9="64.87884"></scales>
<clustering>
<clus scale="   64.879">  1  9  2 -1</clus>
<clus scale="   90.486">  5  6 -1 -1</clus>
<clus scale="   92.981">  7  8 -1 -1</clus>
<clus scale="  113.307">  2  5  1 -1</clus>
<clus scale="  113.307">  2  5  1 -1</clus>
</clustering>
</event>
<event>
 9    1  0.1234700E-005  0.1091927E+03  0.7546771E-02  0.1262566E+00
          1   -1    0    0  502    0  0.00000000000E+00  0.00000000000E+00  0.81382256657E+03  0.81382256657E+03  0.00000000000E+00 0. -1.
         -1   -1    0    0    0  501 -0.00000000000E+00 -0.00000000000E+00 -0.20547975831E+02  0.20547975831E+02  0.00000000000E+00 0.  1.
         23    2    1    2    0    0  0.58077207704E+02 -0.34642996770E+02  0.26926329106E+03  0.29258595453E+03  0.92361905563E+02 0.  0.
         23    2    1    2    0    0 -0.24804237027E+02  0.41064645934E+02  0.41755299108E+03  0.43006306073E+03  0.91116302192E+02 0.  0.
        -13    1    4    4    0    0 -0.25758775544E+02 -0.25444162779E+02  0.16184952353E+03  0.16584989661E+03  0.00000000000E+00 0.  1.
         13    1    4    4    0    0  0.95453851700E+00  0.66508808713E+02  0.25570346754E+03  0.26421316412E+03  0.00000000000E+00 0. -1.
        -13    1    3    3    0    0 -0.13136191685E+02 -0.30749224580E+02  0.38204801693E+02  0.50770869765E+02  0.00000000000E+00 0.  1.
         13    1    3    3    0    0  0.71213399389E+02 -0.38937721902E+01  0.23105848936E+03  0.24181508477E+03  0.00000000000E+00 0. -1.
         21    1    1    2  502  501 -0.33272970677E+02 -0.64216491637E+01  0.10645830860E+03  0.11172152714E+03  0.00000000000E+00 0.  1.
<scales pt_clust_5="13000.00000" pt_clust_6="13000.00000" pt_clust_7="13000.00000" pt_clust_8="13000.00000" pt_clust_9="33.88699"></scales>
<clustering>
<clus scale="   33.887">  1  9  2 -1</clus>
<clus scale="   91.116">  5  6 -1 -1</clus>
<clus scale="   92.362">  7  8 -1 -1</clus>
<clus scale="  108.141">  1  5  2 -1</clus>
<clus scale="   33.887">  1  5  2 -1</clus>
</clustering>
</event>
<event>
 9    1  0.1234700E-005  0.9507008E+02  0.7546771E-02  0.1292647E+00
          2   -1    0    0  502    0  0.00000000000E+00  0.00000000000E+00  0.23512621987E+02  0.23512621987E+02  0.00000000000E+00 0. -1.
         -2   -1    0    0    0  501 -0.00000000000E+00 -0.00000000000E+00 -0.53956043666E+03  0.53956043666E+03  0.00000000000E+00 0.  1.
         23    2    1    2    0    0 -0.36027879864E+01  0.10956110546E+02 -0.28008104888E+03  0.29494285451E+03  0.91721737058E+02 0.  0.
         23    2    1    2    0    0 -0.16527518449E+02 -0.44676012655E+01 -0.22417897102E+03  0.24391694133E+03  0.94584062581E+02 0.  0.
        -11    1    3    3    0    0 -0.43657883788E+02  0.32443246748E+01 -0.20371002884E+03  0.20836101437E+03  0.00000000000E+00 0. -1.
         11    1    3    3    0    0  0.40055095802E+02  0.77117858711E+01 -0.76371020033E+02  0.86581840139E+02  0.00000000000E+00 0.  1.
        -13    1    4    4    0    0 -0.25958329762E+01 -0.38450366970E+02 -0.18958543945E+03  0.19346267837E+03  0.00000000000E+00 0.  1.
         13    1    4    4    0    0 -0.13931685473E+02  0.33982765704E+02 -0.34593531569E+02  0.50454262966E+02  0.00000000000E+00 0. -1.
         21    1    1    2  502  501  0.20130306436E+02 -0.64885092804E+01 -0.11787794780E+02  0.24213262805E+02  0.00000000000E+00 0. -1.
<scales pt_clust_5="13000.00000" pt_clust_6="13000.00000" pt_clust_7="13000.00000" pt_clust_8="13000.00000" pt_clust_9="21.15018"></scales>
<clustering>
<clus scale="   21.150">  1  9  2 -1</clus>
<clus scale="   91.722">  5  6 -1 -1</clus>
<clus scale="   92.223">  2  5  1 -1</clus>
<clus scale="   94.584">  7  8 -1 -1</clus>
<clus scale="   21.150">  1  5  2 -1</clus>
</clustering>
</event>
<event>
 9    1  0.1234700E-005  0.9669942E+02  0.7546771E-02  0.1290669E+00
         -1   -1    0    0    0  501 -0.00000000000E+00  0.00000000000E+00  0.45140486189E+02  0.45140486189E+02  0.00000000000E+00 0.  1.
          1   -1    0    0  502    0  0.00000000000E+00 -0.00000000000E+00 -0.29379754908E+03  0.29379754908E+03  0.00000000000E+00 0. -1.
         23    2    1    2    0    0 -0.29209913620E+02 -0.36162268903E+02 -0.52428984044E+02  0.10841775128E+03  0.82732591390E+02 0.  0.
         23    2    1    2    0    0  0.14506374276E+02  0.17490956684E+02 -0.12298350456E+03  0.15351652024E+03  0.89028147980E+02 0.  0.
        -11    1    3    3    0    0 -0.10592175966E+02 -0.59300678438E+02 -0.17834018087E+02  0.62823696613E+02  0.00000000000E+00 0.  1.
         11    1    3    3    0    0 -0.18617737654E+02  0.23138409535E+02 -0.34594965957E+02  0.45594054665E+02  0.00000000000E+00 0. -1.
        -11    1    4    4    0    0  0.22182310675E+02 -0.13018320304E+02 -0.11906734468E+03  0.12181364513E+03  0.00000000000E+00 0. -1.
         11    1    4    4    0    0 -0.76759363996E+01  0.30509276988E+02 -0.39161598754E+01  0.31702875108E+02  0.00000000000E+00 0.  1.
         21    1    1    2  502  501  0.14703539344E+02  0.18671312220E+02 -0.73244574286E+02  0.77003763749E+02  0.00000000000E+00 0. -1.
<scales pt_clust_5="13000.00000" pt_clust_6="13000.00000" pt_clust_7="13000.00000" pt_clust_8="13000.00000" pt_clust_9="23.76577"></scales>
<clustering>
<clus scale="   23.766">  2  9  1 -1</clus>
<clus scale="   82.733">  5  6 -1 -1</clus>
<clus scale="   89.028">  7  8 -1 -1</clus>
<clus scale="   90.937">  1  5  2 -1</clus>
<clus scale="   23.766">  2  5  1 -1</clus>
</clustering>
</event>
<event>
 9    1  0.1234700E-005  0.1325065E+03  0.7546771E-02  0.1225687E+00
          1   -1    0    0  502    0  0.00000000000E+00  0.00000000000E+00  0.17717857378E+03  0.17717857378E+03  0.00000000000E+00 0. -1.
         -1   -1    0    0    0  501 -0.00000000000E+00 -0.00000000000E+00 -0.13072511026E+03  0.13072511026E+03  0.00000000000E+00 0.  1.
         23    2    1    2    0    0 -0.96699781699E+02  0.19201365992E+02  0.23532909347E+02  0.13581623803E+03  0.90403055559E+02 0.  0.
         23    2    1    2    0    0  0.97031254832E+02  0.16686849438E+02  0.36616898504E+02  0.13367307722E+03  0.82669093136E+02 0.  0.
        -11    1    3    3    0    0 -0.29500245686E+02 -0.24713837108E+02  0.38184701333E+02  0.54213556018E+02  0.00000000000E+00 0. -1.
         11    1    3    3    0    0 -0.67199536013E+02  0.43915203100E+02 -0.14651791986E+02  0.81602682015E+02  0.00000000000E+00 0.  1.
        -13    1    4    4    0    0  0.14482724946E+02  0.37855158566E+02 -0.94676822227E+00  0.40542061146E+02  0.00000000000E+00 0. -1.
         13    1    4    4    0    0  0.82548529886E+02 -0.21168309128E+02  0.37563666726E+02  0.93131016077E+02  0.00000000000E+00 0.  1.
         21    1    1    2  502  501 -0.33147313235E+00 -0.35888215430E+02 -0.13696344330E+02  0.38414368785E+02  0.00000000000E+00 0.  1.
<scales pt_clust_5="13000.00000" pt_clust_6="13000.00000" pt_clust_7="13000.00000" pt_clust_8="13000.00000" pt_clust_9="35.88975"></scales>
<clustering>
<clus scale="   35.890">  2  9  1 -1</clus>
<clus scale="   82.669">  7  8 -1 -1</clus>
<clus scale="   90.403">  5  6 -1 -1</clus>
<clus scale="  127.356">  1  7  2 -1</clus>
<clus scale="  127.356">  1  5  2 -1</clus>
</clustering>
</event>
<event>
 9    1  0.1234700E-005  0.1038846E+03  0.7546771E-02  0.1272908E+00
          2   -1    0    0  502    0  0.00000000000E+00  0.00000000000E+00  0.13723381293E+03  0.13723381293E+03  0.00000000000E+00 0. -1.
         -2   -1    0    0    0  501 -0.00000000000E+00 -0.00000000000E+00 -0.23160333858E+03  0.23160333858E+03  0.00000000000E+00 0.  1.
         23    2    1    2    0    0  0.47522513228E+02 -0.48516478133E+01 -0.18044711341E+03  0.20773640293E+03  0.91166466500E+02 0.  0.
         23    2    1    2    0    0 -0.66522471960E+02 -0.91783090648E+01  0.75507770357E+02  0.13522490730E+03  0.89860288981E+02 0.  0.
        -11    1    3    3    0    0  0.28487223838E+01 -0.27737568824E+02 -0.93203086082E+01  0.29399933606E+02  0.00000000000E+00 0.  1.
         11    1    3    3    0    0  0.44673790844E+02  0.22885921011E+02 -0.17112680480E+03  0.17833646933E+03  0.00000000000E+00 0. -1.
        -13    1    4    4    0    0 -0.22064142206E+01 -0.40423532486E+02  0.31135028884E+02  0.51071716888E+02  0.00000000000E+00 0. -1.
         13    1    4    4    0    0 -0.64316057739E+02  0.31245223421E+02  0.44372741473E+02  0.84153190407E+02  0.00000000000E+00 0.  1.
         21    1    1    2  502  501  0.18999958732E+02  0.14029956878E+02  0.10569817413E+02  0.25875841281E+02  0.00000000000E+00 0. -1.
<scales pt_clust_5="13000.00000" pt_clust_6="13000.00000" pt_clust_7="13000.00000" pt_clust_8="13000.00000" pt_clust_9="23.61860"></scales>
<clustering>
<clus scale="   23.619">  1  9  2 -1</clus>
<clus scale="   89.860">  7  8 -1 -1</clus>
<clus scale="   91.166">  5  6 -1 -1</clus>
<clus scale="  102.740">  1  7  2 -1</clus>
<clus scale="   23.619">  1  5  2 -1</clus>
</clustering>
</event>
<event>
 9    1  0.1234700E-005  0.9537098E+02  0.7546771E-02  0.1292401E+00
          1   -1    0    0  502    0  0.00000000000E+00  0.00000000000E+00  0.32574459898E+03  0.32574459898E+03  0.00000000000E+00 0. -1.
         -1   -1    0    0    0  501 -0.00000000000E+00 -0.00000000000E+00 -0.44969209074E+02  0.44969209074E+02  0.00000000000E+00 0.  1.
         23    2    1    2    0    0 -0.56743148869E+01 -0.82712077354E+01  0.55074795192E+02  0.10719663137E+03  0.91418127227E+02 0.  0.
         23    2    1    2    0    0  0.11833129372E+02 -0.12350995482E+02  0.11235141751E+03  0.14814281976E+03  0.95030963324E+02 0.  0.
        -11    1    3    3    0    0  0.36289348338E+02 -0.11790229657E+02  0.36694002002E+00  0.38158366882E+02  0.00000000000E+00 0.  1.
         11    1    3    3    0    0 -0.41963663225E+02  0.35190219216E+01  0.54707855172E+02  0.69038264492E+02  0.00000000000E+00 0. -1.
        -13    1    4    4    0    0 -0.92441145122E+00 -0.40548406273E+02  0.10788850771E+02  0.41969358927E+02  0.00000000000E+00 0.  1.
         13    1    4    4    0    0  0.12757540823E+02  0.28197410790E+02  0.10156256674E+03  0.10617346083E+03  0.00000000000E+00 0. -1.
         21    1    1    2  502  501 -0.61588144850E+01  0.20622203217E+02  0.11334917721E+03  0.11537435692E+03  0.00000000000E+00 0. -1.
<scales pt_clust_5="13000.00000" pt_clust_6="13000.00000" pt_clust_7="13000.00000" pt_clust_8="13000.00000" pt_clust_9="21.52223"></scales>
<clustering>
<clus scale="   21.522">  1  9  2 -1</clus>
<clus scale="   91.418">  5  6 -1 -1</clus>
<clus scale="   91.772">  2  5  1 -1</clus>
<clus scale="   95.031">  7  8 -1 -1</clus>
<clus scale="   21.522">  1  5  2 -1</clus>
</clustering>
</event>
<event>
 9    1  0.1234700E-005  0.9564595E+02  0.7546771E-02  0.1289914E+00
         -2   -1    0    0    0  501 -0.00000000000E+00  0.00000000000E+00  0.10558308786E+03  0.10558308786E+03  0.00000000000E+00 0.  1.
          2   -1    0    0  502    0  0.00000000000E+00 -0.00000000000E+00 -0.50544149344E+03  0.50544149344E+03  0.00000000000E+00 0. -1.
         23    2    1    2    0    0 -0.31268554073E+02 -0.66828166904E+01  0.15442018716E+02  0.98547817570E+02  0.91928417223E+02 0.  0.
         23    2    1    2    0    0 -0.10962622584E+02  0.41125717034E+02 -0.84224179369E+01  0.10196549991E+03  0.92274169481E+02 0.  0.
        -11    1    4    4    0    0  0.15363985739E+02  0.61614869913E+02  0.93182135361E+01  0.64181565544E+02  0.00000000000E+00 0.  1.
         11    1    4    4    0    0 -0.26326608323E+02 -0.20489152879E+02 -0.17740631473E+02  0.37783934371E+02  0.00000000000E+00 0. -1.
        -13    1    3    3    0    0  0.24635648687E+02  0.23075560911E+02  0.87046497871E+01  0.34859254517E+02  0.00000000000E+00 0. -1.
         13    1    3    3    0    0 -0.55904202760E+02 -0.29758377602E+02  0.67373689291E+01  0.63688563053E+02  0.00000000000E+00 0.  1.
         21    1    1    2  502  501  0.42231176657E+02 -0.34442900344E+02 -0.40687800635E+03  0.41051126382E+03  0.00000000000E+00 0. -1.
<scales pt_clust_5="13000.00000" pt_clust_6="13000.00000" pt_clust_7="13000.00000" pt_clust_8="13000.00000" pt_clust_9="54.49574"></scales>
<clustering>
<clus scale="   54.496">  2  9  1 -1</clus>
<clus scale="   91.928">  7  8 -1 -1</clus>
<clus scale="   92.274">  5  6 -1 -1</clus>
<clus scale="   95.312">  1  7  2 -1</clus>
<clus scale="   54.496">  2  5  1 -1</clus>
</clustering>
</event>
<event>
 9    1  0.1234700E-005  0.1250379E+03  0.7546771E-02  0.1241477E+00
         -1   -1    0    0    0  501 -0.00000000000E+00  0.00000000000E+00  0.28586254786E+02  0.28586254786E+02  0.00000000000E+00 0.  1.
          1   -1    0    0  502    0  0.00000000000E+00 -0.00000000000E+00 -0.74804796339E+03  0.74804796339E+03  0.00000000000E+00 0. -1.
         23    2    1    2    0    0  0.54889400380E+02  0.46758950810E+01 -0.17694413450E+03  0.20617374010E+03  0.90353052541E+02 0.  0.
         23    2    1    2    0    0 -0.70084715293E+02 -0.33310040753E+02 -0.33795012052E+03  0.36334057329E+03  0.10855718358E+03 0.  0.
        -11    1    3    3    0    0  0.58959481847E+02 -0.28239308002E+02 -0.14934518133E+03  0.16302656900E+03  0.00000000000E+00 0. -1.
         11    1    3    3    0    0 -0.40700814669E+01  0.32915203083E+02 -0.27598953174E+02  0.43147171094E+02  0.00000000000E+00 0.  1.
        -11    1    4    4    0    0 -0.35738607449E+02  0.10800814606E+02 -0.23846965758E+02  0.44301054552E+02  0.00000000000E+00 0.  1.
         11    1    4    4    0    0 -0.34346107844E+02 -0.44110855359E+02 -0.31410315476E+03  0.31903951874E+03  0.00000000000E+00 0. -1.
         21    1    1    2  502  501  0.15195314913E+02  0.28634145672E+02 -0.20456745358E+03  0.20711990479E+03  0.00000000000E+00 0. -1.
<scales pt_clust_5="13000.00000" pt_clust_6="13000.00000" pt_clust_7="13000.00000" pt_clust_8="13000.00000" pt_clust_9="32.41623"></scales>
<clustering>
<clus scale="   32.416">  2  9  1 -1</clus>
<clus scale="   90.353">  5  6 -1 -1</clus>
<clus scale="  108.557">  7  8 -1 -1</clus>
<clus scale="  109.606">  1  5  2 -1</clus>
<clus scale="   32.416">  2  5  1 -1</clus>
</clustering>
</event>
<event>
 9    1  0.1234700E-005  0.1906159E+03  0.7546771E-02  0.1157911E+00
         -2   -1    0    0    0  501 -0.00000000000E+00  0.00000000000E+00  0.87467291461E+02  0.87467291461E+02  0.00000000000E+00 0.  1.
          2   -1    0    0  502    0  0.00000000000E+00 -0.00000000000E+00 -0.87567261175E+03  0.87567261175E+03  0.00000000000E+00 0. -1.
         23    2    1    2    0    0  0.12486986917E+03  0.63279053490E+02 -0.12712810554E+03  0.21031139801E+03  0.92046760278E+02 0.  0.
         23    2    1    2    0    0 -0.20395619829E+03 -0.95280253737E+02 -0.32406207181E+03  0.40518223262E+03  0.92086685626E+02 0.  0.
        -11    1    3    3    0    0  0.11602920172E+03  0.21653415490E+02 -0.11777589994E+03  0.16674174240E+03  0.00000000000E+00 0. -1.
         11    1    3    3    0    0  0.88406674502E+01  0.41625638000E+02 -0.93522056009E+01  0.43569655604E+02  0.00000000000E+00 0.  1.
        -11    1    4    4    0    0 -0.90655566710E+02 -0.66018084463E+02 -0.91113074248E+02  0.14449363844E+03  0.00000000000E+00 0.  1.
         11    1    4    4    0    0 -0.11330063158E+03 -0.29262169274E+02 -0.23294899757E+03  0.26068859418E+03  0.00000000000E+00 0. -1.
         21    1    1    2  502  501  0.79086329128E+02  0.32001200247E+02 -0.33701514293E+03  0.34764627258E+03  0.00000000000E+00 0. -1.
<scales pt_clust_5="13000.00000" pt_clust_6="13000.00000" pt_clust_7="13000.00000" pt_clust_8="13000.00000" pt_clust_9="85.31544"></scales>
<clustering>
<clus scale="   85.315">  2  9  1 -1</clus>
<clus scale="   92.047">  5  6 -1 -1</clus>
<clus scale="   92.087">  7  8 -1 -1</clus>
<clus scale="  190.597">  1  5  2 -1</clus>
<clus scale="   85.315">  2  5  1 -1</clus>
</clustering>
</event>
<event>
 9    1  0.1234700E-005  0.9746780E+02  0.7546771E-02  0.1287700E+00
          1   -1    0    0  502    0  0.00000000000E+00  0.00000000000E+00  0.15367166618E+03  0.15367166618E+03  0.00000000000E+00 0. -1.
         -1   -1    0    0    0  501 -0.00000000000E+00 -0.00000000000E+00 -0.76667151063E+02  0.76667151063E+02  0.00000000000E+00 0.  1.
         23    2    1    2    0    0  0.13339597732E+02 -0.17977930215E+02  0.34917097752E+02  0.98821245026E+02  0.89695506635E+02 0.  0.
         23    2    1    2    0    0 -0.19368933253E+01  0.35336878606E+02  0.46627950428E+02  0.11025795798E+03  0.93435565983E+02 0.  0.
        -11    1    4    4    0    0  0.42649245017E+02  0.31735086437E+01  0.31867637333E+02  0.53334562591E+02  0.00000000000E+00 0.  1.
         11    1    4    4    0    0 -0.44586138342E+02  0.32163369962E+02  0.14760313096E+02  0.56923395386E+02  0.00000000000E+00 0. -1.
        -13    1    3    3    0    0  0.46978997307E+02 -0.25636550902E+02  0.60926358442E+01  0.53864451558E+02  0.00000000000E+00 0.  1.
         13    1    3    3    0    0 -0.33639399575E+02  0.76586206874E+01  0.28824461908E+02  0.44956793467E+02  0.00000000000E+00 0. -1.
         21    1    1    2  502  501 -0.11402704407E+02 -0.17358948391E+02 -0.45405330651E+01  0.21259614238E+02  0.00000000000E+00 0.  1.
<scales pt_clust_5="13000.00000" pt_clust_6="13000.00000" pt_clust_7="13000.00000" pt_clust_8="13000.00000" pt_clust_9="20.76908"></scales>
<clustering>
<clus scale="   20.769">  2  9  1 -1</clus>
<clus scale="   89.696">  7  8 -1 -1</clus>
<clus scale="   93.436">  5  6 -1 -1</clus>
<clus scale="   93.889">  2  7  1 -1</clus>
<clus scale="   97.468">  1  5  2 -1</clus>
</clustering>
</event>
<event>
 9    1  0.1234700E-005  0.2437535E+03  0.7546771E-02  0.1117367E+00
          1   -1    0    0  502    0  0.00000000000E+00  0.00000000000E+00  0.82300441875E+03  0.82300441875E+03  0.00000000000E+00 0. -1.
         -1   -1    0    0    0  501 -0.00000000000E+00 -0.00000000000E+00 -0.20004948778E+03  0.20004948778E+03  0.00000000000E+00 0.  1.
         23    2    1    2    0    0 -0.18190213132E+03 -0.18638262035E+03  0.69597951679E+01  0.27608991012E+03  0.91380157458E+02 0.  0.
         23    2    1    2    0    0  0.11044891901E+03  0.14795379176E+03  0.10874108816E+03  0.23326271621E+03  0.92182331896E+02 0.  0.
        -11    1    3    3    0    0 -0.17295022469E+03 -0.15447360857E+03  0.32621431287E+02  0.23417522018E+03  0.00000000000E+00 0.  1.
         11    1    3    3    0    0 -0.89519066247E+01 -0.31909011775E+02 -0.25661636120E+02  0.41914689943E+02  0.00000000000E+00 0. -1.
        -13    1    4    4    0    0  0.55809649569E+02  0.13447201989E+03  0.55565654478E+02  0.15583639843E+03  0.00000000000E+00 0. -1.
         13    1    4    4    0    0  0.54639269443E+02  0.13481771869E+02  0.53175433677E+02  0.77426317779E+02  0.00000000000E+00 0.  1.
         21    1    1    2  502  501  0.71453212306E+02  0.38428828585E+02  0.50725404765E+03  0.51370128020E+03  0.00000000000E+00 0. -1.
<scales pt_clust_5="13000.00000" pt_clust_6="13000.00000" pt_clust_7="13000.00000" pt_clust_8="13000.00000" pt_clust_9="81.13160"></scales>
<clustering>
<clus scale="   81.132">  1  9  2 -1</clus>
<clus scale="   91.380">  5  6 -1 -1</clus>
<clus scale="   92.182">  7  8 -1 -1</clus>
<clus scale="  243.451">  2  5  1 -1</clus>
<clus scale="   81.132">  1  5  2 -1</clus>
</clustering>
</event>
<event>
 9    1  0.1234700E-005  0.9435073E+02  0.7546771E-02  0.1292768E+00
          1   -1    0    0  502    0  0.00000000000E+00  0.00000000000E+00  0.55943517103E+02  0.55943517103E+02  0.00000000000E+00 0. -1.
         -1   -1    0    0    0  501 -0.00000000000E+00 -0.00000000000E+00 -0.49545804268E+03  0.49545804268E+03  0.00000000000E+00 0.  1.
         23    2    1    2    0    0  0.27981719889E+02  0.24953806101E+01 -0.27634018403E+03  0.29233364060E+03  0.91136472096E+02 0.  0.
         23    2    1    2    0    0 -0.13919597404E+02  0.28300521766E+02 -0.19189598238E+03  0.21467125777E+03  0.90912079140E+02 0.  0.
        -11    1    4    4    0    0 -0.29106608155E+02 -0.26245421426E+02 -0.88431684261E+02  0.96727346523E+02  0.00000000000E+00 0. -1.
         11    1    4    4    0    0  0.15187010751E+02  0.54545943192E+02 -0.10346429812E+03  0.11794391125E+03  0.00000000000E+00 0.  1.
        -13    1    3    3    0    0  0.28394063866E+02 -0.30944703466E+02 -0.23703326243E+03  0.24072508185E+03  0.00000000000E+00 0.  1.
         13    1    3    3    0    0 -0.41234397705E+00  0.33440084076E+02 -0.39306921606E+02  0.51608558755E+02  0.00000000000E+00 0. -1.
         21    1    1    2  502  501 -0.14062122486E+02 -0.30795902376E+02  0.28721640837E+02  0.44396661410E+02  0.00000000000E+00 0. -1.
<scales pt_clust_5="13000.00000" pt_clust_6="13000.00000" pt_clust_7="13000.00000" pt_clust_8="13000.00000" pt_clust_9="33.85455"></scales>
<clustering>
<clus scale="   33.855">  1  9  2 -1</clus>
<clus scale="   90.912">  5  6 -1 -1</clus>
<clus scale="   91.136">  7  8 -1 -1</clus>
<clus scale="   94.134">  1  5  2 -1</clus>
<clus scale="   33.855">  1  5  2 -1</clus>
</clustering>
</event>
<event>
 9    1  0.1234700E-005  0.1309494E+03  0.7546771E-02  0.1227329E+00
         -1   -1    0    0    0  501 -0.00000000000E+00  0.00000000000E+00  0.19725269016E+03  0.19725269016E+03  0.00000000000E+00 0.  1.
          1   -1    0    0  502    0  0.00000000000E+00 -0.00000000000E+00 -0.19492706074E+03  0.19492706074E+03  0.00000000000E+00 0. -1.
         23    2    1    2    0    0 -0.19998305104E+02  0.85548883778E+02  0.73213501984E+02  0.14457669005E+03  0.88451448317E+02 0.  0.
         23    2    1    2    0    0  0.88454560971E+02 -0.73258977689E+02  0.43248599827E+00  0.14798431610E+03  0.93317113113E+02 0.  0.
        -11    1    4    4    0    0  0.29539880349E+02 -0.47367654014E+02 -0.42898434616E+02  0.70402946460E+02  0.00000000000E+00 0. -1.
         11    1    4    4    0    0  0.58914680622E+02 -0.25891323675E+02  0.43330920614E+02  0.77581369643E+02  0.00000000000E+00 0.  1.
        -13    1    3    3    0    0  0.21796783935E+02  0.17232461523E+01  0.39273902838E+02  0.44950070204E+02  0.00000000000E+00 0. -1.
         13    1    3    3    0    0 -0.41795089038E+02  0.83825637626E+02  0.33939599146E+02  0.99626619842E+02  0.00000000000E+00 0.  1.
         21    1    1    2  502  501 -0.68456255868E+02 -0.12289906088E+02 -0.71320358566E+02  0.99618744748E+02  0.00000000000E+00 0. -1.
<scales pt_clust_5="13000.00000" pt_clust_6="13000.00000" pt_clust_7="13000.00000" pt_clust_8="13000.00000" pt_clust_9="69.55071"></scales>
<clustering>
<clus scale="   69.551">  2  9  1 -1</clus>
<clus scale="   88.451">  7  8 -1 -1</clus>
<clus scale="   93.317">  5  6 -1 -1</clus>
<clus scale="  127.528">  1  7  2 -1</clus>
<clus scale="   69.551">  2  5  1 -1</clus>
</clustering>
</event>
<event>
 9    1  0.1234700E-005  0.1139800E+03  0.7546771E-02  0.1257081E+00
          1   -1    0    0  502    0  0.00000000000E+00  0.00000000000E+00  0.22737577927E+03  0.22737577927E+03  0.00000000000E+00 0. -1.
         -1   -1    0    0    0  501 -0.00000000000E+00 -0.00000000000E+00 -0.75473235273E+02  0.75473235273E+02  0.00000000000E+00 0.  1.
         23    2    1    2    0    0 -0.34385595040E+02  0.63207256953E+02  0.44862597392E+02  0.12460881502E+03  0.91308146722E+02 0.  0.
         23    2    1    2    0    0  0.10038168077E+02 -0.41301938018E+02  0.88962307876E+02  0.14083109342E+03  0.10056087584E+03 0.  0.
        -11    1    4    4    0    0 -0.22276944109E+02 -0.61702286191E+02  0.76183695713E+02  0.10053551538E+03  0.00000000000E+00 0. -1.
         11    1    4    4    0    0  0.32315112186E+02  0.20400348173E+02  0.12778612163E+02  0.40295578045E+02  0.00000000000E+00 0.  1.
        -13    1    3    3    0    0  0.19942686581E+02 -0.10879968213E+02  0.83739168969E+00  0.22732920648E+02  0.00000000000E+00 0.  1.
         13    1    3    3    0    0 -0.54328281621E+02  0.74087225166E+02  0.44025205703E+02  0.10187589437E+03  0.00000000000E+00 0. -1.
         21    1    1    2  502  501  0.24347426963E+02 -0.21905318935E+02  0.18077638732E+02  0.37409106104E+02  0.00000000000E+00 0.  1.
<scales pt_clust_5="13000.00000" pt_clust_6="13000.00000" pt_clust_7="13000.00000" pt_clust_8="13000.00000" pt_clust_9="32.75119"></scales>
<clustering>
<clus scale="   32.751">  2  9  1 -1</clus>
<clus scale="   91.308">  7  8 -1 -1</clus>
<clus scale="  100.561">  5  6 -1 -1</clus>
<clus scale="  105.906">  2  7  1 -1</clus>
<clus scale="  113.980">  1  5  2 -1</clus>
</clustering>
</event>
<event>
 9    1  0.1234700E-005  0.9754750E+02  0.7546771E-02  0.1285803E+00
         -2   -1    0    0    0  501 -0.00000000000E+00  0.00000000000E+00  0.95430920567E+02  0.95430920567E+02  0.00000000000E+00 0.  1.
          2   -1    0    0  502    0  0.00000000000E+00 -0.00000000000E+00 -0.19025476794E+03  0.19025476794E+03  0.00000000000E+00 0. -1.
         23    2    1    2    0    0  0.20432774997E+02  0.10503674942E+02  0.17918631426E+02  0.97056850066E+02  0.92580393773E+02 0.  0.
         23    2    1    2    0    0 -0.25429912049E+02 -0.52459716732E+02 -0.81492278239E+02  0.13607547645E+03  0.92069764702E+02 0.  0.
        -11    1    4    4    0    0  0.30387435789E+02  0.25775751953E+01 -0.20365354828E+02  0.36671348830E+02  0.00000000000E+00 0.  1.
         11    1    4    4    0    0 -0.55817347838E+02 -0.55037291927E+02 -0.61126923411E+02  0.99404127620E+02  0.00000000000E+00 0. -1.
        -13    1    3    3    0    0  0.41570659585E+02  0.36361627019E+02 -0.66035547178E+01  0.55622788429E+02  0.00000000000E+00 0.  1.
         13    1    3    3    0    0 -0.21137884587E+02 -0.25857952077E+02  0.24522186144E+02  0.41434061637E+02  0.00000000000E+00 0. -1.
         21    1    1    2  502  501  0.49971370512E+01  0.41956041790E+02 -0.31250200558E+02  0.52553361989E+02  0.00000000000E+00 0.  1.
<scales pt_clust_5="13000.00000" pt_clust_6="13000.00000" pt_clust_7="13000.00000" pt_clust_8="13000.00000" pt_clust_9="42.25258"></scales>
<clustering>
<clus scale="   42.253">  2  9  1 -1</clus>
<clus scale="   92.070">  5  6 -1 -1</clus>
<clus scale="   92.580">  7  8 -1 -1</clus>
<clus scale="   97.063">  2  5  1 -1</clus>
<clus scale="   42.253">  2  5  1 -1</clus>
</clustering>
</event>
<event>
 9    1  0.1234700E-005  0.1132999E+03  0.7546771E-02  0.1254724E+00
          2   -1    0    0  502    0  0.00000000000E+00  0.00000000000E+00  0.36410293261E+03  0.36410293261E+03  0.00000000000E+00 0. -1.
         -2   -1    0    0    0  501 -0.00000000000E+00 -0.00000000000E+00 -0.85637708854E+02  0.85637708854E+02  0.00000000000E+00 0.  1.
         23    2    1    2    0    0 -0.27819542644E+02 -0.43091803609E+02  0.12730784349E+02  0.10546408957E+03  0.91267578182E+02 0.  0.
         23    2    1    2    0    0  0.81319740384E+02  0.82251750335E+02  0.14503076620E+03  0.20656253913E+03  0.90862031773E+02 0.  0.
        -13    1    4    4    0    0  0.36074596849E+02 -0.14660516131E+02  0.27620247602E+02  0.47740814285E+02  0.00000000000E+00 0.  1.
         13    1    4    4    0    0  0.45245143536E+02  0.96912266467E+02  0.11741051859E+03  0.15882172484E+03  0.00000000000E+00 0. -1.
        -13    1    3    3    0    0  0.31887315570E+02 -0.29498564097E+02  0.42937923383E+01  0.43650920159E+02  0.00000000000E+00 0. -1.
         13    1    3    3    0    0 -0.59706858215E+02 -0.13593239512E+02  0.84369920106E+01  0.61813169410E+02  0.00000000000E+00 0.  1.
         21    1    1    2  502  501 -0.53500197740E+02 -0.39159946727E+02  0.12070367322E+03  0.13771401277E+03  0.00000000000E+00 0.  1.
<scales pt_clust_5="13000.00000" pt_clust_6="13000.00000" pt_clust_7="13000.00000" pt_clust_8="13000.00000" pt_clust_9="66.30062"></scales>
<clustering>
<clus scale="   66.301">  1  9  2 -1</clus>
<clus scale="   90.862">  5  6 -1 -1</clus>
<clus scale="   91.268">  7  8 -1 -1</clus>
<clus scale="  112.973">  1  5  2 -1</clus>
<clus scale="   66.301">  1  5  2 -1</clus>
</clustering>
</event>
<event>
 9    1  0.1234700E-005  0.9992099E+02  0.7546771E-02  0.1280860E+00
         -2   -1    0    0    0  501 -0.00000000000E+00  0.00000000000E+00  0.64273712294E+02  0.64273712294E+02  0.00000000000E+00 0.  1.
          2   -1    0    0  502    0  0.00000000000E+00 -0.00000000000E+00 -0.19799912314E+03  0.19799912314E+03  0.00000000000E+00 0. -1.
         23    2    1    2    0    0 -0.47235508375E+02  0.11261690900E+02 -0.58991701262E+02  0.11592404022E+03  0.87179948096E+02 0.  0.
         23    2    1    2    0    0  0.47261443697E+02  0.13643230099E+02 -0.61949351907E+02  0.11835423210E+03  0.88035335332E+02 0.  0.
        -11    1    4    4    0    0  0.33741078334E+02 -0.36029814059E+02 -0.29783253313E+02  0.57651106201E+02  0.00000000000E+00 0.  1.
         11    1    4    4    0    0  0.13520365363E+02  0.49673044158E+02 -0.32166098593E+02  0.60703125901E+02  0.00000000000E+00 0. -1.
        -11    1    3    3    0    0 -0.40786339214E+02  0.43465263139E+02 -0.15799746221E+02  0.61663494443E+02  0.00000000000E+00 0.  1.
         11    1    3    3    0    0 -0.64491691603E+01 -0.32203572239E+02 -0.43191955041E+02  0.54260545777E+02  0.00000000000E+00 0. -1.
         21    1    1    2  502  501 -0.25935321831E-01 -0.24904920999E+02 -0.12784357678E+02  0.27994563112E+02  0.00000000000E+00 0.  1.
<scales pt_clust_5="13000.00000" pt_clust_6="13000.00000" pt_clust_7="13000.00000" pt_clust_8="13000.00000" pt_clust_9="24.90493"></scales>
<clustering>
<clus scale="   24.905">  1  9  2 -1</clus>
<clus scale="   87.180">  7  8 -1 -1</clus>
<clus scale="   88.035">  5  6 -1 -1</clus>
<clus scale="   99.168">  1  7  2 -1</clus>
<clus scale="   99.921">  2  5  1 -1</clus>
</clustering>
</event>
<event>
 9    1  0.1234700E-005  0.1225211E+03  0.7546771E-02  0.1240692E+00
         -1   -1    0    0    0  501 -0.00000000000E+00  0.00000000000E+00  0.12269962477E+03  0.12269962477E+03  0.00000000000E+00 0.  1.
          1   -1    0    0  502    0  0.00000000000E+00 -0.00000000000E+00 -0.33463233154E+03  0.33463233154E+03  0.00000000000E+00 0. -1.
         23    2    1    2    0    0  0.26054160578E+02 -0.72077253800E+02  0.68678107565E+02  0.13867583025E+03  0.92953502558E+02 0.  0.
         23    2    1    2    0    0 -0.48964389233E+01  0.57161257916E+02 -0.16638209193E+03  0.20153082076E+03  0.98184961579E+02 0.  0.
        -11    1    3    3    0    0  0.83607081166E+01 -0.91409519664E+02  0.40913312843E+02  0.10049627303E+03  0.00000000000E+00 0.  1.
         11    1    3    3    0    0  0.17693452462E+02  0.19332265864E+02  0.27764794722E+02  0.38179557218E+02  0.00000000000E+00 0. -1.
        -13    1    4    4    0    0 -0.55380473218E+01  0.77278145407E+02 -0.16385129414E+03  0.18124521598E+03  0.00000000000E+00 0. -1.
         13    1    4    4    0    0  0.64160839847E+00 -0.20116887491E+02 -0.25307977898E+01  0.20285604776E+02  0.00000000000E+00 0.  1.
         21    1    1    2  502  501 -0.21157721655E+02  0.14915995884E+02 -0.11422872241E+03  0.11712530530E+03  0.00000000000E+00 0.  1.
<scales pt_clust_5="13000.00000" pt_clust_6="13000.00000" pt_clust_7="13000.00000" pt_clust_8="13000.00000" pt_clust_9="25.88699"></scales>
<clustering>
<clus scale="   25.887">  2  9  1 -1</clus>
<clus scale="   92.954">  5  6 -1 -1</clus>
<clus scale="   98.185">  7  8 -1 -1</clus>
<clus scale="  118.370">  1  5  2 -1</clus>
<clus scale="   25.887">  2  5  1 -1</clus>
</clustering>
</event>
<event>
 9    1  0.1234700E-005  0.1308797E+03  0.7546771E-02  0.1226778E+00
         -1   -1    0    0    0  501 -0.00000000000E+00  0.00000000000E+00  0.15488035498E+03  0.15488035498E+03  0.00000000000E+00 0.  1.
          1   -1    0    0  502    0  0.00000000000E+00 -0.00000000000E+00 -0.39068923952E+03  0.39068923952E+03  0.00000000000E+00 0. -1.
         23    2    1    2    0    0  0.78434143895E+02  0.51643480679E+02  0.89806281783E+02  0.15771344107E+03  0.89383428107E+02 0.  0.
         23    2    1    2    0    0 -0.34595464238E+02 -0.10364189768E+03 -0.21849942697E+03  0.26097255788E+03  0.91794266059E+02 0.  0.
        -11    1    3    3    0    0  0.52800002197E+02  0.56950300676E+02  0.10251825791E+03  0.12861248067E+03  0.00000000000E+00 0.  1.
         11    1    3    3    0    0  0.25634141698E+02 -0.53068199979E+01 -0.12711976125E+02  0.29100960398E+02  0.00000000000E+00 0. -1.
        -13    1    4    4    0    0 -0.39947990259E+02 -0.26618986346E+01 -0.45677437482E+02  0.60740068530E+02  0.00000000000E+00 0.  1.
         13    1    4    4    0    0  0.53525260210E+01 -0.10097999904E+03 -0.17282198949E+03  0.20023248935E+03  0.00000000000E+00 0. -1.
         21    1    1    2  502  501 -0.43838679656E+02  0.51998417000E+02 -0.10711573935E+03  0.12688359555E+03  0.00000000000E+00 0.  1.
<scales pt_clust_5="13000.00000" pt_clust_6="13000.00000" pt_clust_7="13000.00000" pt_clust_8="13000.00000" pt_clust_9="68.01224"></scales>
<clustering>
<clus scale="   68.012">  2  9  1 -1</clus>
<clus scale="   89.383">  5  6 -1 -1</clus>
<clus scale="   91.794">  7  8 -1 -1</clus>
<clus scale="  129.200">  1  5  2 -1</clus>
<clus scale="   68.012">  2  5  1 -1</clus>
</clustering>
</event>
<event>
 9    1  0.1234700E-005  0.1248766E+03  0.7546771E-02  0.1236406E+00
         -1   -1    0    0    0  501 -0.00000000000E+00  0.00000000000E+00  0.23732872118E+02  0.23732872118E+02  0.00000000000E+00 0.  1.
          1   -1    0    0  502    0  0.00000000000E+00 -0.00000000000E+00 -0.80935565572E+03  0.80935565572E+03  0.00000000000E+00 0. -1.
         23    2    1    2    0    0  0.50514786280E+01  0.74625039911E+02 -0.25949777839E+03  0.28481260696E+03  0.90469387504E+02 0.  0.
         23    2    1    2    0    0 -0.14718410119E+02 -0.93075413737E+02 -0.46178488646E+03  0.48064814005E+03  0.94327561894E+02 0.  0.
        -11    1    3    3    0    0 -0.20661618619E+02 -0.98122280063E+01 -0.23252180968E+02  0.32616655595E+02  0.00000000000E+00 0.  1.
         11    1    3    3    0    0  0.25713097247E+02  0.84437267918E+02 -0.23624559742E+03  0.25219595136E+03  0.00000000000E+00 0. -1.
        -11    1    4    4    0    0 -0.50890922236E+02 -0.54365378589E+02 -0.33613979783E+03  0.34428976755E+03  0.00000000000E+00 0.  1.
         11    1    4    4    0    0  0.36172512117E+02 -0.38710035149E+02 -0.12564508864E+03  0.13635837251E+03  0.00000000000E+00 0. -1.
         21    1    1    2  502  501  0.96669314907E+01  0.18450373826E+02 -0.64340118757E+02  0.67627780834E+02  0.00000000000E+00 0.  1.
<scales pt_clust_5="13000.00000" pt_clust_6="13000.00000" pt_clust_7="13000.00000" pt_clust_8="13000.00000" pt_clust_9="20.82945"></scales>
<clustering>
<clus scale="   20.829">  2  9  1 -1</clus>
<clus scale="   90.469">  5  6 -1 -1</clus>
<clus scale="   94.328">  7  8 -1 -1</clus>
<clus scale="  121.989">  1  5  2 -1</clus>
<clus scale="   20.829">  2  5  1 -1</clus>
</clustering>
</event>
<event>
 9    1  0.1234700E-005  0.1187510E+03  0.7546771E-02  0.1254499E+00
         -1   -1    0    0    0  501 -0.00000000000E+00  0.00000000000E+00  0.51324819799E+02  0.51324819799E+02  0.00000000000E+00 0.  1.
          1   -1    0    0  502    0  0.00000000000E+00 -0.00000000000E+00 -0.42106810245E+03  0.42106810245E+03  0.00000000000E+00 0. -1.
         23    2    1    2    0    0  0.97813805931E+01 -0.41259942557E+02 -0.39378049268E+02  0.10790934637E+03  0.91080942050E+02 0.  0.
         23    2    1    2    0    0  0.17777662627E+02  0.25969515986E+02 -0.21331520870E+03  0.24326473952E+03  0.11262279602E+03 0.  0.
        -11    1    3    3    0    0  0.40856856097E+02 -0.44049917336E+02 -0.46419757504E+02  0.75924118659E+02  0.00000000000E+00 0. -1.
         11    1    3    3    0    0 -0.31075475504E+02  0.27899747793E+01  0.70417082362E+01  0.31985227715E+02  0.00000000000E+00 0.  1.
        -13    1    4    4    0    0 -0.26675194108E+02 -0.30450987962E+02 -0.11183317129E+03  0.11893480083E+03  0.00000000000E+00 0.  1.
         13    1    4    4    0    0  0.44452856735E+02  0.56420503947E+02 -0.10148203741E+03  0.12432993869E+03  0.00000000000E+00 0. -1.
         21    1    1    2  502  501 -0.27559043220E+02  0.15290426571E+02 -0.11705002469E+03  0.12121883636E+03  0.00000000000E+00 0. -1.
<scales pt_clust_5="13000.00000" pt_clust_6="13000.00000" pt_clust_7="13000.00000" pt_clust_8="13000.00000" pt_clust_9="31.51663"></scales>
<clustering>
<clus scale="   31.517">  2  9  1 -1</clus>
<clus scale="   91.081">  5  6 -1 -1</clus>
<clus scale="   98.558">  1  5  2 -1</clus>
<clus scale="  112.623">  7  8 -1 -1</clus>
<clus scale="   31.517">  2  5  1 -1</clus>
</clustering>
</event>
<event>
 9    1  0.1234700E-005  0.9430001E+02  0.7546771E-02  0.1294472E+00
          2   -1    0    0  502    0  0.00000000000E+00  0.00000000000E+00  0.39014146864E+02  0.39014146864E+02  0.00000000000E+00 0. -1.
         -2   -1    0    0    0  501 -0.00000000000E+00 -0.00000000000E+00 -0.31014730417E+03  0.31014730417E+03  0.00000000000E+00 0.  1.
         23    2    1    2    0    0 -0.81113974526E+00  0.35573971239E+01 -0.18017032888E+03  0.20318130657E+03  0.93850854602E+02 0.  0.
         23    2    1    2    0    0 -0.15016332706E+02 -0.16687371487E+02 -0.74661553797E+02  0.11973825685E+03  0.90878731962E+02 0.  0.
        -11    1    4    4    0    0 -0.87029595569E+01 -0.44483093505E+02 -0.78829227377E+02  0.90931480806E+02  0.00000000000E+00 0.  1.
         11    1    4    4    0    0 -0.63133731489E+01  0.27795722017E+02  0.41676735795E+01  0.28806776044E+02  0.00000000000E+00 0. -1.
        -13    1    3    3    0    0  0.30816351150E+02 -0.25976353463E+02 -0.13387778105E+03  0.13981301333E+03  0.00000000000E+00 0.  1.
         13    1    3    3    0    0 -0.31627490895E+02  0.29533750587E+02 -0.46292547838E+02  0.63368293250E+02  0.00000000000E+00 0. -1.
         21    1    1    2  502  501  0.15827472451E+02  0.13129974363E+02 -0.16301274628E+02  0.26241887613E+02  0.00000000000E+00 0.  1.
<scales pt_clust_5="13000.00000" pt_clust_6="13000.00000" pt_clust_7="13000.00000" pt_clust_8="13000.00000" pt_clust_9="20.56466"></scales>
<clustering>
<clus scale="   20.565">  1  9  2 -1</clus>
<clus scale="   90.879">  5  6 -1 -1</clus>
<clus scale="   91.343">  1  5  2 -1</clus>
<clus scale="   93.851">  7  8 -1 -1</clus>
<clus scale="   20.565">  1  5  2 -1</clus>
</clustering>
</event>
<event>
 9    1  0.1234700E-005  0.1105931E+03  0.7546771E-02  0.1259830E+00
          2   -1    0    0  502    0  0.00000000000E+00  0.00000000000E+00  0.17195257330E+03  0.17195257330E+03  0.00000000000E+00 0. -1.
         -2   -1    0    0    0  501 -0.00000000000E+00 -0.00000000000E+00 -0.19878042539E+03  0.19878042539E+03  0.00000000000E+00 0.  1.
         23    2    1    2    0    0  0.24284821518E+02  0.38420622516E+01 -0.17343228383E+01  0.95659747080E+02  0.92429785985E+02 0.  0.
         23    2    1    2    0    0 -0.68769652596E+02  0.78909556218E+02  0.57045293300E+02  0.15027935462E+03  0.91508118524E+02 0.  0.
        -11    1    4    4    0    0 -0.79917351517E+02  0.29532604287E+02  0.51006644757E+02  0.99300733124E+02  0.00000000000E+00 0. -1.
         11    1    4    4    0    0  0.11147698921E+02  0.49376951930E+02  0.60386485432E+01  0.50978621494E+02  0.00000000000E+00 0.  1.
        -13    1    3    3    0    0  0.51771468838E+02  0.11603892650E+02  0.23047540374E+02  0.57845694978E+02  0.00000000000E+00 0.  1.
         13    1    3    3    0    0 -0.27486647320E+02 -0.77618303986E+01 -0.24781863212E+02  0.37814052101E+02  0.00000000000E+00 0. -1.
         21    1    1    2  502  501  0.44484831078E+02 -0.82751618469E+02 -0.82138822556E+02  0.12479389699E+03  0.00000000000E+00 0.  1.
<scales pt_clust_5="13000.00000" pt_clust_6="13000.00000" pt_clust_7="13000.00000" pt_clust_8="13000.00000" pt_clust_9="93.95068"></scales>
<clustering>
<clus scale="   91.508">  5  6 -1 -1</clus>
<clus scale="   92.430">  7  8 -1 -1</clus>
<clus scale="   93.951">  2  9  1 -1</clus>
<clus scale="  109.824">  1  5  2 -1</clus>
<clus scale="  109.824">  1  5  2 -1</clus>
</clustering>
</event>
<event>
 9    1  0.1234700E-005  0.1511874E+03  0.7546771E-02  0.1199050E+00
          2   -1    0    0  502    0  0.00000000000E+00  0.00000000000E+00  0.15132949541E+04  0.15132949541E+04  0.00000000000E+00 0. -1.
         -2   -1    0    0    0  501 -0.00000000000E+00 -0.00000000000E+00 -0.34149995099E+02  0.34149995099E+02  0.00000000000E+00 0.  1.
         23    2    1    2    0    0 -0.75721045428E+02 -0.29931444846E+02  0.33974549159E+03  0.36121412378E+03  0.91755523265E+02 0.  0.
         23    2    1    2    0    0  0.16233179925E+03  0.51269981261E+02  0.43340179568E+03  0.47462035029E+03  0.91908304260E+02 0.  0.
        -11    1    3    3    0    0 -0.47343187765E+01  0.20986091205E+02  0.18731070465E+02  0.28525125751E+02  0.00000000000E+00 0. -1.
         11    1    3    3    0    0 -0.70986726652E+02 -0.50917536050E+02  0.32101442113E+03  0.33268899803E+03  0.00000000000E+00 0.  1.
        -11    1    4    4    0    0  0.10906383522E+03  0.77717198770E+02  0.29424677159E+03  0.32328941482E+03  0.00000000000E+00 0.  1.
         11    1    4    4    0    0  0.53267964026E+02 -0.26447217510E+02  0.13915502408E+03  0.15133093548E+03  0.00000000000E+00 0. -1.
         21    1    1    2  502  501 -0.86610753823E+02 -0.21338536415E+02  0.70599767170E+03  0.71161047509E+03  0.00000000000E+00 0. -1.
<scales pt_clust_5="13000.00000" pt_clust_6="13000.00000" pt_clust_7="13000.00000" pt_clust_8="13000.00000" pt_clust_9="89.20065"></scales>
<clustering>
<clus scale="   89.201">  1  9  2 -1</clus>
<clus scale="   91.756">  5  6 -1 -1</clus>
<clus scale="   91.908">  7  8 -1 -1</clus>
<clus scale="  151.095">  2  5  1 -1</clus>
<clus scale="   89.201">  1  5  2 -1</clus>
</clustering>
</event>
<event>
 9    1  0.1234700E-005  0.1239798E+03  0.7546771E-02  0.1236716E+00
          1   -1    0    0  502    0  0.00000000000E+00  0.00000000000E+00  0.22543903083E+03  0.22543903083E+03  0.00000000000E+00 0. -1.
         -1   -1    0    0    0  501 -0.00000000000E+00 -0.00000000000E+00 -0.16322845437E+03  0.16322845437E+03  0.00000000000E+00 0.  1.
         23    2    1    2    0    0 -0.68151141651E+02 -0.54241549645E+02 -0.10353693798E+03  0.16353378718E+03  0.91851391977E+02 0.  0.
         23    2    1    2    0    0  0.59054279395E+02  0.35559116264E+02  0.87799840085E+02  0.14446383898E+03  0.91701309635E+02 0.  0.
        -13    1    4    4    0    0  0.12405191024E+02  0.45264277491E+02  0.84552864178E+02  0.96705379487E+02  0.00000000000E+00 0. -1.
         13    1    4    4    0    0  0.46649088371E+02 -0.97051612271E+01  0.32469759074E+01  0.47758459490E+02  0.00000000000E+00 0.  1.
        -13    1    3    3    0    0 -0.67322275132E+02 -0.28101890831E+02 -0.11401780549E+03  0.13535902247E+03  0.00000000000E+00 0.  1.
         13    1    3    3    0    0 -0.82886651938E+00 -0.26139658814E+02  0.10480867509E+02  0.28174764708E+02  0.00000000000E+00 0. -1.
         21    1    1    2  502  501  0.90968622554E+01  0.18682433381E+02  0.77947674358E+02  0.80669859041E+02  0.00000000000E+00 0. -1.
<scales pt_clust_5="13000.00000" pt_clust_6="13000.00000" pt_clust_7="13000.00000" pt_clust_8="13000.00000" pt_clust_9="20.77947"></scales>
<clustering>
<clus scale="   20.779">  1  9  2 -1</clus>
<clus scale="   91.701">  5  6 -1 -1</clus>
<clus scale="   91.851">  7  8 -1 -1</clus>
<clus scale="  123.869">  1  5  2 -1</clus>
<clus scale="   20.779">  1  5  2 -1</clus>
</clustering>
</event>
<event>
 9    1  0.1234700E-005  0.9382507E+02  0.7546771E-02  0.1294436E+00
         -1   -1    0    0    0  501 -0.00000000000E+00  0.00000000000E+00  0.91639683687E+02  0.91639683687E+02  0.00000000000E+00 0.  1.
          1   -1    0    0  502    0  0.00000000000E+00 -0.00000000000E+00 -0.31069744727E+03  0.31069744727E+03  0.00000000000E+00 0. -1.
         23    2    1    2    0    0 -0.30673700743E+02 -0.28728140144E+01  0.15187396391E+02  0.96826740032E+02  0.90529727706E+02 0.  0.
         23    2    1    2    0    0 -0.28793623470E+02 -0.56809192164E+02 -0.12469327738E+03  0.16730793259E+03  0.91581514600E+02 0.  0.
        -11    1    4    4    0    0  0.24127435421E+02  0.95730250895E+01 -0.37544138665E+02  0.45643600838E+02  0.00000000000E+00 0.  1.
         11    1    4    4    0    0 -0.52921058891E+02 -0.66382217253E+02 -0.87149138711E+02  0.12166433175E+03  0.00000000000E+00 0. -1.
        -13    1    3    3    0    0  0.13099483313E+02 -0.37558910505E+02  0.64801947858E+01  0.40302123342E+02  0.00000000000E+00 0.  1.
         13    1    3    3    0    0 -0.43773184057E+02  0.34686096490E+02  0.87072016050E+01  0.56524616690E+02  0.00000000000E+00 0. -1.
         21    1    1    2  502  501  0.59467324213E+02  0.59682006178E+02 -0.10955188260E+03  0.13820245834E+03  0.00000000000E+00 0.  1.
<scales pt_clust_5="13000.00000" pt_clust_6="13000.00000" pt_clust_7="13000.00000" pt_clust_8="13000.00000" pt_clust_9="84.25144"></scales>
<clustering>
<clus scale="   84.251">  2  9  1 -1</clus>
<clus scale="   90.530">  7  8 -1 -1</clus>
<clus scale="   91.582">  5  6 -1 -1</clus>
<clus scale="   92.799">  1  7  2 -1</clus>
<clus scale="   84.251">  2  5  1 -1</clus>
</clustering>
</event>
<event>
 9    1  0.1241379E-005  0.1071294E+03  0.7546771E-02  0.1266919E+00
          4   -1    0    0  502    0  0.00000000000E+00  0.00000000000E+00  0.12085443093E+03  0.12085443093E+03  0.00000000000E+00 0. -1.
         -4   -1    0    0    0  501 -0.00000000000E+00 -0.00000000000E+00 -0.33772195211E+03  0.33772195211E+03  0.00000000000E+00 0.  1.
         23    2    1    2    0    0  0.15245086623E+02 -0.53269342723E+02 -0.28354580087E+03  0.30365149019E+03  0.93466415185E+02 0.  0.
         23    2    1    2    0    0 -0.44525906833E+01  0.35132933090E+02  0.14883943201E+02  0.98995825127E+02  0.91238659987E+02 0.  0.
        -11    1    3    3    0    0 -0.36520020666E+02 -0.35709135870E+02 -0.17213889598E+03  0.17955682611E+03  0.00000000000E+00 0. -1.
         11    1    3    3    0    0  0.51765107289E+02 -0.17560206852E+02 -0.11140690489E+03  0.12409466408E+03  0.00000000000E+00 0.  1.
        -11    1    4    4    0    0  0.30516670799E+02  0.98686846974E+01 -0.24672839987E+02  0.40464888080E+02  0.00000000000E+00 0.  1.
         11    1    4    4    0    0 -0.34969261483E+02  0.25264248392E+02  0.39556783188E+02  0.58530937047E+02  0.00000000000E+00 0. -1.
         21    1    1    2  502  501 -0.10792495940E+02  0.18136409633E+02  0.51794336489E+02  0.55929067714E+02  0.00000000000E+00 0.  1.
<scales pt_clust_5="13000.00000" pt_clust_6="13000.00000" pt_clust_7="13000.00000" pt_clust_8="13000.00000" pt_clust_9="21.10468"></scales>
<clustering>
<clus scale="   21.105">  1  9  2 -1</clus>
<clus scale="   91.239">  7  8 -1 -1</clus>
<clus scale="   93.466">  5  6 -1 -1</clus>
<clus scale="  105.191">  1  7  2 -1</clus>
<clus scale="   21.105">  1  5  2 -1</clus>
</clustering>
</event>
<event>
 9    1  0.1234700E-005  0.9997170E+02  0.7546771E-02  0.1282020E+00
          1   -1    0    0  502    0  0.00000000000E+00  0.00000000000E+00  0.15721542000E+03  0.15721542000E+03  0.00000000000E+00 0. -1.
         -1   -1    0    0    0  501 -0.00000000000E+00 -0.00000000000E+00 -0.26375959396E+03  0.26375959396E+03  0.00000000000E+00 0.  1.
         23    2    1    2    0    0  0.29565685006E+02  0.26350109826E+02 -0.21649608513E+03  0.23754954796E+03  0.89391134033E+02 0.  0.
         23    2    1    2    0    0 -0.31269815158E+02  0.39540086020E+01  0.37539344597E+02  0.10490907630E+03  0.92753848289E+02 0.  0.
        -11    1    4    4    0    0 -0.29358507745E+02  0.46640054310E+02  0.18531952698E+02  0.58143356575E+02  0.00000000000E+00 0. -1.
         11    1    4    4    0    0 -0.19113074135E+01 -0.42686045708E+02  0.19007391900E+02  0.46765719721E+02  0.00000000000E+00 0.  1.
        -11    1    3    3    0    0  0.37517733476E+02  0.55504191704E+02 -0.16046754724E+03  0.17389114221E+03  0.00000000000E+00 0.  1.
         11    1    3    3    0    0 -0.79520484705E+01 -0.29154081878E+02 -0.56028537884E+02  0.63658405749E+02  0.00000000000E+00 0. -1.
         21    1    1    2  502  501  0.17041301526E+01 -0.30304118428E+02  0.72412566571E+02  0.78516389695E+02  0.00000000000E+00 0. -1.
<scales pt_clust_5="13000.00000" pt_clust_6="13000.00000" pt_clust_7="13000.00000" pt_clust_8="13000.00000" pt_clust_9="30.35200"></scales>
<clustering>
<clus scale="   30.352">  1  9  2 -1</clus>
<clus scale="   89.391">  7  8 -1 -1</clus>
<clus scale="   92.754">  5  6 -1 -1</clus>
<clus scale="   96.860">  2  7  1 -1</clus>
<clus scale="   30.352">  1  5  2 -1</clus>
</clustering>
</event>
<event>
 9    1  0.1234700E-005  0.1405931E+03  0.7546771E-02  0.1213357E+00
         -1   -1    0    0    0  501 -0.00000000000E+00  0.00000000000E+00  0.20239023433E+03  0.20239023433E+03  0.00000000000E+00 0.  1.
          1   -1    0    0  502    0  0.00000000000E+00 -0.00000000000E+00 -0.17564160568E+03  0.17564160568E+03  0.00000000000E+00 0. -1.
         23    2    1    2    0    0 -0.34999104776E+02 -0.10210032511E+03  0.71914993774E+02  0.16083805454E+03  0.95119397263E+02 0.  0.
         23    2    1    2    0    0  0.14305701925E+02  0.98136982745E+02  0.30774172316E+02  0.13838458404E+03  0.91475258556E+02 0.  0.
        -13    1    3    3    0    0 -0.46089626208E+02 -0.73829493225E+02  0.90237130621E+02  0.12537060045E+03  0.00000000000E+00 0.  1.
         13    1    3    3    0    0  0.11090521432E+02 -0.28270831885E+02 -0.18322136847E+02  0.35467454092E+02  0.00000000000E+00 0. -1.
        -13    1    4    4    0    0  0.52691864051E+02  0.67648068308E+02  0.22713953838E+02  0.88705227478E+02  0.00000000000E+00 0. -1.
         13    1    4    4    0    0 -0.38386162126E+02  0.30488914437E+02  0.80602184779E+01  0.49679356560E+02  0.00000000000E+00 0.  1.
         21    1    1    2  502  501  0.20693402851E+02  0.39633423655E+01 -0.75940537436E+02  0.78809201432E+02  0.00000000000E+00 0. -1.
<scales pt_clust_5="13000.00000" pt_clust_6="13000.00000" pt_clust_7="13000.00000" pt_clust_8="13000.00000" pt_clust_9="21.06953"></scales>
<clustering>
<clus scale="   21.070">  2  9  1 -1</clus>
<clus scale="   91.475">  7  8 -1 -1</clus>
<clus scale="   95.119">  5  6 -1 -1</clus>
<clus scale="  138.154">  2  7  1 -1</clus>
<clus scale="   21.070">  2  5  1 -1</clus>
</clustering>
</event>
<event>
 9    1  0.1234700E-005  0.9301269E+02  0.7546771E-02  0.1296176E+00
         -2   -1    0    0    0  501 -0.00000000000E+00  0.00000000000E+00  0.12097781977E+03  0.12097781977E+03  0.00000000000E+00 0.  1.
          2   -1    0    0  502    0  0.00000000000E+00 -0.00000000000E+00 -0.11075409053E+03  0.11075409053E+03  0.00000000000E+00 0. -1.
         23    2    1    2    0    0  0.11133210701E+02 -0.12735169016E+02  0.30242865340E+02  0.97419259253E+02  0.91048054670E+02 0.  0.
         23    2    1    2    0    0 -0.29544902409E+02 -0.12005698795E+02  0.31156198084E+01  0.95759857851E+02  0.90239709811E+02 0.  0.
        -11    1    3    3    0    0 -0.24611293709E+02 -0.32687191468E+02 -0.76636011699E+01  0.41628104052E+02  0.00000000000E+00 0. -1.
         11    1    3    3    0    0  0.35744504410E+02  0.19952022453E+02  0.37906466509E+02  0.55791155201E+02  0.00000000000E+00 0.  1.
        -13    1    4    4    0    0 -0.27137885476E+02  0.31407683186E+02  0.23543599345E+02  0.47720105421E+02  0.00000000000E+00 0. -1.
         13    1    4    4    0    0 -0.24070169325E+01 -0.43413381981E+02 -0.20427979537E+02  0.48039752430E+02  0.00000000000E+00 0.  1.
         21    1    1    2  502  501  0.18411691708E+02  0.24740867811E+02 -0.23134755909E+02  0.38552793187E+02  0.00000000000E+00 0. -1.
<scales pt_clust_5="13000.00000" pt_clust_6="13000.00000" pt_clust_7="13000.00000" pt_clust_8="13000.00000" pt_clust_9="30.83992"></scales>
<clustering>
<clus scale="   30.840">  2  9  1 -1</clus>
<clus scale="   90.240">  7  8 -1 -1</clus>
<clus scale="   91.048">  5  6 -1 -1</clus>
<clus scale="   92.222">  2  7  1 -1</clus>
<clus scale="   30.840">  2  5  1 -1</clus>
</clustering>
</event>
<event>
 9    1  0.1234700E-005  0.9823815E+02  0.7546771E-02  0.1284308E+00
          1   -1    0    0  502    0  0.00000000000E+00  0.00000000000E+00  0.24600950749E+03  0.24600950749E+03  0.00000000000E+00 0. -1.
         -1   -1    0    0    0  501 -0.00000000000E+00 -0.00000000000E+00 -0.55728300279E+02  0.55728300279E+02  0.00000000000E+00 0.  1.
         23    2    1    2    0    0  0.27532934187E+02 -0.26242834721E+02  0.55071117409E+02  0.11356084216E+03  0.91741419540E+02 0.  0.
         23    2    1    2    0    0 -0.34240807506E+02 -0.29080151421E+00  0.81027194044E+02  0.12747428355E+03  0.92259250642E+02 0.  0.
        -11    1    3    3    0    0  0.11850718751E+02 -0.57168994129E+02  0.52953221753E+02  0.78821171767E+02  0.00000000000E+00 0.  1.
         11    1    3    3    0    0  0.15682215436E+02  0.30926159408E+02  0.21178956555E+01  0.34739670388E+02  0.00000000000E+00 0. -1.
        -13    1    4    4    0    0  0.22742471646E+02 -0.15111787667E+02 -0.10108793275E-01  0.27305425198E+02  0.00000000000E+00 0.  1.
         13    1    4    4    0    0 -0.56983279152E+02  0.14820986152E+02  0.81037302837E+02  0.10016885836E+03  0.00000000000E+00 0. -1.
         21    1    1    2  502  501  0.67078733192E+01  0.26533636235E+02  0.54182895758E+02  0.60702682058E+02  0.00000000000E+00 0. -1.
<scales pt_clust_5="13000.00000" pt_clust_6="13000.00000" pt_clust_7="13000.00000" pt_clust_8="13000.00000" pt_clust_9="27.36840"></scales>
<clustering>
<clus scale="   27.368">  1  9  2 -1</clus>
<clus scale="   91.741">  5  6 -1 -1</clus>
<clus scale="   92.259">  7  8 -1 -1</clus>
<clus scale="   97.752">  2  5  1 -1</clus>
<clus scale="   27.368">  1  5  2 -1</clus>
</clustering>
</event>
<event>
 9    1  0.1234700E-005  0.1208587E+03  0.7546771E-02  0.1242674E+00
         -1   -1    0    0    0  501 -0.00000000000E+00  0.00000000000E+00  0.19254141824E+03  0.19254141824E+03  0.00000000000E+00 0.  1.
          1   -1    0    0  502    0  0.00000000000E+00 -0.00000000000E+00 -0.43600530595E+03  0.43600530595E+03  0.00000000000E+00 0. -1.
         23    2    1    2    0    0 -0.52719242195E+02 -0.53722386929E+02  0.14966495919E+03  0.19082754953E+03  0.91379102065E+02 0.  0.
         23    2    1    2    0    0  0.26168458450E+02  0.82589804596E+02 -0.37137270970E+03  0.39286829478E+03  0.94456039996E+02 0.  0.
        -13    1    4    4    0    0 -0.20313515361E+02  0.77308921915E+02 -0.20464118471E+03  0.21969825396E+03  0.00000000000E+00 0. -1.
         13    1    4    4    0    0  0.46481973811E+02  0.52808826801E+01 -0.16673152499E+03  0.17317004082E+03  0.00000000000E+00 0.  1.
        -13    1    3    3    0    0 -0.58535858979E+02 -0.13234120269E+02  0.13436070153E+03  0.14715429604E+03  0.00000000000E+00 0.  1.
         13    1    3    3    0    0  0.58166167835E+01 -0.40488266660E+02  0.15304257656E+02  0.43673253490E+02  0.00000000000E+00 0. -1.
         21    1    1    2  502  501  0.26550783745E+02 -0.28867417667E+02 -0.21756137204E+02  0.44850879883E+02  0.00000000000E+00 0. -1.
<scales pt_clust_5="13000.00000" pt_clust_6="13000.00000" pt_clust_7="13000.00000" pt_clust_8="13000.00000" pt_clust_9="39.22081"></scales>
<clustering>
<clus scale="   39.221">  2  9  1 -1</clus>
<clus scale="   91.379">  7  8 -1 -1</clus>
<clus scale="   94.456">  5  6 -1 -1</clus>
<clus scale="  118.469">  1  7  2 -1</clus>
<clus scale="   39.221">  2  5  1 -1</clus>
</clustering>
</event>
<event>
 9    1  0.1234700E-005  0.3516622E+03  0.7546771E-02  0.1061954E+00
         -2   -1    0    0    0  501 -0.00000000000E+00  0.00000000000E+00  0.24317398445E+03  0.24317398445E+03  0.00000000000E+00 0.  1.
          2   -1    0    0  502    0  0.00000000000E+00 -0.00000000000E+00 -0.62303597513E+03  0.62303597513E+03  0.00000000000E+00 0. -1.
         23    2    1    2    0    0 -0.29453088817E+03 -0.17520281035E+03 -0.32331878296E+02  0.35593547254E+03  0.90555184390E+02 0.  0.
         23    2    1    2    0    0  0.29872286775E+03  0.14942626555E+03 -0.31136299158E+03  0.46566435834E+03  0.91284289742E+02 0.  0.
        -13    1    4    4    0    0  0.37496684109E+02  0.52831348622E+02 -0.84317983213E+02  0.10633285010E+03  0.00000000000E+00 0.  1.
         13    1    4    4    0    0  0.26122618364E+03  0.96594916924E+02 -0.22704500837E+03  0.35933150825E+03  0.00000000000E+00 0. -1.
        -13    1    3    3    0    0 -0.63753407145E+02 -0.83524667702E+02  0.29736233993E+01  0.10511759831E+03  0.00000000000E+00 0. -1.
         13    1    3    3    0    0 -0.23077748102E+03 -0.91678142648E+02 -0.35305501695E+02  0.25081787424E+03  0.00000000000E+00 0.  1.
         21    1    1    2  502  501 -0.41919795806E+01  0.25776544804E+02 -0.36167120805E+02  0.44610128695E+02  0.00000000000E+00 0. -1.
<scales pt_clust_5="13000.00000" pt_clust_6="13000.00000" pt_clust_7="13000.00000" pt_clust_8="13000.00000" pt_clust_9="26.11519"></scales>
<clustering>
<clus scale="   26.115">  2  9  1 -1</clus>
<clus scale="   90.555">  7  8 -1 -1</clus>
<clus scale="   91.284">  5  6 -1 -1</clus>
<clus scale="  351.474">  1  7  2 -1</clus>
<clus scale="   26.115">  2  5  1 -1</clus>
</clustering>
</event>
<event>
 9    1  0.1234700E-005  0.1076794E+03  0.7546771E-02  0.1265291E+00
          2   -1    0    0  502    0  0.00000000000E+00  0.00000000000E+00  0.13025540813E+03  0.13025540813E+03  0.00000000000E+00 0. -1.
         -2   -1    0    0    0  501 -0.00000000000E+00 -0.00000000000E+00 -0.17004719816E+03  0.17004719816E+03  0.00000000000E+00 0.  1.
         23    2    1    2    0    0  0.47889100419E+02 -0.40370003740E+02 -0.10013983078E+03  0.15034178309E+03  0.93013777976E+02 0.  0.
         23    2    1    2    0    0 -0.14832797477E+02  0.32141431500E+02  0.27087660894E+02  0.10235114526E+03  0.92135400707E+02 0.  0.
        -13    1    4    4    0    0  0.25754620995E+02  0.49406204853E+01  0.43513397180E+02  0.50804782919E+02  0.00000000000E+00 0.  1.
         13    1    4    4    0    0 -0.40587418471E+02  0.27200811015E+02 -0.16425736286E+02  0.51546362341E+02  0.00000000000E+00 0. -1.
        -13    1    3    3    0    0 -0.18576902069E+02  0.16177480847E+02 -0.26217584286E+02  0.35974628599E+02  0.00000000000E+00 0. -1.
         13    1    3    3    0    0  0.66466002488E+02 -0.56547484587E+02 -0.73922246497E+02  0.11436715449E+03  0.00000000000E+00 0.  1.
         21    1    1    2  502  501 -0.33056302942E+02  0.82285722394E+01  0.33260379857E+02  0.47609677940E+02  0.00000000000E+00 0. -1.
<scales pt_clust_5="13000.00000" pt_clust_6="13000.00000" pt_clust_7="13000.00000" pt_clust_8="13000.00000" pt_clust_9="34.06506"></scales>
<clustering>
<clus scale="   34.065">  1  9  2 -1</clus>
<clus scale="   92.135">  5  6 -1 -1</clus>
<clus scale="   93.014">  7  8 -1 -1</clus>
<clus scale="  106.922">  1  5  2 -1</clus>
<clus scale="   34.065">  1  5  2 -1</clus>
</clustering>
</event>
<event>
 9    1  0.1234700E-005  0.2536315E+03  0.7546771E-02  0.1111294E+00
         -2   -1    0    0    0  501 -0.00000000000E+00  0.00000000000E+00  0.11551941379E+03  0.11551941379E+03  0.00000000000E+00 0.  1.
          2   -1    0    0  502    0  0.00000000000E+00 -0.00000000000E+00 -0.77734619531E+03  0.77734619531E+03  0.00000000000E+00 0. -1.
         23    2    1    2    0    0 -0.13164353892E+03 -0.20328534703E+03 -0.14030436532E+03  0.29575807622E+03  0.95564486420E+02 0.  0.
         23    2    1    2    0    0  0.83785620615E+02  0.20672243157E+03 -0.40717278306E+03  0.47309933762E+03  0.90989637084E+02 0.  0.
        -13    1    3    3    0    0 -0.44775183516E+02 -0.89409734055E+02 -0.72356527430E+01  0.10025603360E+03  0.00000000000E+00 0.  1.
         13    1    3    3    0    0 -0.86868355399E+02 -0.11387561297E+03 -0.13306871258E+03  0.19550204262E+03  0.00000000000E+00 0. -1.
        -13    1    4    4    0    0  0.60878861743E+02  0.20224017149E+03 -0.39195043538E+03  0.44523304748E+03  0.00000000000E+00 0. -1.
         13    1    4    4    0    0  0.22906758872E+02  0.44822600810E+01 -0.15222347676E+02  0.27866290141E+02  0.00000000000E+00 0.  1.
         21    1    1    2  502  501  0.47857918300E+02 -0.34370845410E+01 -0.11434963313E+03  0.12400819526E+03  0.00000000000E+00 0. -1.
<scales pt_clust_5="13000.00000" pt_clust_6="13000.00000" pt_clust_7="13000.00000" pt_clust_8="13000.00000" pt_clust_9="47.98118"></scales>
<clustering>
<clus scale="   47.981">  2  9  1 -1</clus>
<clus scale="   90.990">  7  8 -1 -1</clus>
<clus scale="   95.564">  5  6 -1 -1</clus>
<clus scale="  251.943">  2  7  1 -1</clus>
<clus scale="   47.981">  2  5  1 -1</clus>
</clustering>
</event>
<event>
 9    1  0.1234700E-005  0.1352080E+03  0.7546771E-02  0.1220085E+00
          2   -1    0    0  502    0  0.00000000000E+00  0.00000000000E+00  0.26695032226E+03  0.26695032226E+03  0.00000000000E+00 0. -1.
         -2   -1    0    0    0  501 -0.00000000000E+00 -0.00000000000E+00 -0.24084492750E+03  0.24084492750E+03  0.00000000000E+00 0.  1.
         23    2    1    2    0    0  0.13183184113E+03  0.22942860735E+02 -0.14476502510E+03  0.21648582163E+03  0.89460545944E+02 0.  0.
         23    2    1    2    0    0 -0.97179750564E+02  0.77723134053E+01  0.19743366027E+03  0.23792595649E+03  0.90135441371E+02 0.  0.
        -13    1    4    4    0    0 -0.13443169904E+02 -0.34601482667E+02  0.74786653198E+02  0.83492663847E+02  0.00000000000E+00 0.  1.
         13    1    4    4    0    0 -0.83736580661E+02  0.42373796072E+02  0.12264700707E+03  0.15443329264E+03  0.00000000000E+00 0. -1.
        -13    1    3    3    0    0  0.19732503605E+02  0.42307841476E+02 -0.50222949072E+02  0.68568722916E+02  0.00000000000E+00 0. -1.
         13    1    3    3    0    0  0.11209933752E+03 -0.19364980741E+02 -0.94542076029E+02  0.14791709872E+03  0.00000000000E+00 0.  1.
         21    1    1    2  502  501 -0.34652090565E+02 -0.30715174140E+02 -0.26563240411E+02  0.53383471638E+02  0.00000000000E+00 0. -1.
<scales pt_clust_5="13000.00000" pt_clust_6="13000.00000" pt_clust_7="13000.00000" pt_clust_8="13000.00000" pt_clust_9="46.30539"></scales>
<clustering>
<clus scale="   46.305">  2  9  1 -1</clus>
<clus scale="   89.461">  7  8 -1 -1</clus>
<clus scale="   90.135">  5  6 -1 -1</clus>
<clus scale="  134.759">  2  7  1 -1</clus>
<clus scale="  135.208">  1  5  2 -1</clus>
</clustering>
</event>
<event>
 9    1  0.1234700E-005  0.1083185E+03  0.7546771E-02  0.1269892E+00
         -1   -1    0    0    0  501 -0.00000000000E+00  0.00000000000E+00  0.48425779063E+02  0.48425779063E+02  0.00000000000E+00 0.  1.
          1   -1    0    0  502    0  0.00000000000E+00 -0.00000000000E+00 -0.40243460444E+03  0.40243460444E+03  0.00000000000E+00 0. -1.
         23    2    1    2    0    0  0.17875760547E+01 -0.22249709182E+02 -0.32015212629E+02  0.10031561579E+03  0.92412141762E+02 0.  0.
         23    2    1    2    0    0  0.60592518435E+01  0.40757577783E+02 -0.22785939725E+03  0.25428800465E+03  0.10509324295E+03 0.  0.
        -11    1    3    3    0    0 -0.78834961705E+00 -0.58372492891E+02 -0.14838835995E+02  0.60234213493E+02  0.00000000000E+00 0. -1.
         11    1    3    3    0    0  0.25759256717E+01  0.36122783709E+02 -0.17176376634E+02  0.40081402298E+02  0.00000000000E+00 0.  1.
        -11    1    4    4    0    0  0.18433147462E+02  0.72408092829E+02 -0.18549445152E+03  0.19997725965E+03  0.00000000000E+00 0.  1.
         11    1    4    4    0    0 -0.12373895618E+02 -0.31650515047E+02 -0.42364945728E+02  0.54310744996E+02  0.00000000000E+00 0. -1.
         21    1    1    2  502  501 -0.78468278982E+01 -0.18507868601E+02 -0.94134215497E+02  0.96256763063E+02  0.00000000000E+00 0.  1.
<scales pt_clust_5="13000.00000" pt_clust_6="13000.00000" pt_clust_7="13000.00000" pt_clust_8="13000.00000" pt_clust_9="20.10258"></scales>
<clustering>
<clus scale="   20.103">  2  9  1 -1</clus>
<clus scale="   92.412">  5  6 -1 -1</clus>
<clus scale="   96.064">  1  5  2 -1</clus>
<clus scale="  105.093">  7  8 -1 -1</clus>
<clus scale="   20.103">  2  5  1 -1</clus>
</clustering>
</event>
<event>
 9    1  0.1234700E-005  0.1058418E+03  0.7546771E-02  0.1268803E+00
          2   -1    0    0  502    0  0.00000000000E+00  0.00000000000E+00  0.19687855096E+03  0.19687855096E+03  0.00000000000E+00 0. -1.
         -2   -1    0    0    0  501 -0.00000000000E+00 -0.00000000000E+00 -0.15880304497E+03  0.15880304497E+03  0.00000000000E+00 0.  1.
         23    2    1    2    0    0 -0.46050062714E+02 -0.16701145827E+02 -0.10952857251E+03  0.15303323123E+03  0.94990131677E+02 0.  0.
         23    2    1    2    0    0  0.39839267076E+02 -0.17756353922E+02  0.11070802110E+03  0.15178371761E+03  0.94231500530E+02 0.  0.
        -11    1    4    4    0    0 -0.25664635765E+02  0.15780358110E+02  0.28916535144E+02  0.41759540656E+02  0.00000000000E+00 0. -1.
         11    1    4    4    0    0  0.65503902841E+02 -0.33536712032E+02  0.81791485952E+02  0.11002417696E+03  0.00000000000E+00 0.  1.
        -13    1    3    3    0    0 -0.88364671961E+01 -0.25110043390E+02 -0.11169183191E+03  0.11482013215E+03  0.00000000000E+00 0.  1.
         13    1    3    3    0    0 -0.37213595518E+02  0.84088975629E+01  0.21632594044E+01  0.38213099074E+02  0.00000000000E+00 0. -1.
         21    1    1    2  502  501  0.62107956376E+01  0.34457499749E+02  0.36896057407E+02  0.50864647090E+02  0.00000000000E+00 0. -1.
<scales pt_clust_5="13000.00000" pt_clust_6="13000.00000" pt_clust_7="13000.00000" pt_clust_8="13000.00000" pt_clust_9="35.01276"></scales>
<clustering>
<clus scale="   35.013">  1  9  2 -1</clus>
<clus scale="   94.232">  5  6 -1 -1</clus>
<clus scale="   94.990">  7  8 -1 -1</clus>
<clus scale="  105.161">  1  5  2 -1</clus>
<clus scale="   35.013">  1  5  2 -1</clus>
</clustering>
</event>
<event>
 9    1  0.1234700E-005  0.9428139E+02  0.7546771E-02  0.1293208E+00
          2   -1    0    0  502    0  0.00000000000E+00  0.00000000000E+00  0.33095587231E+02  0.33095587231E+02  0.00000000000E+00 0. -1.
         -2   -1    0    0    0  501 -0.00000000000E+00 -0.00000000000E+00 -0.61445253896E+03  0.61445253896E+03  0.00000000000E+00 0.  1.
         23    2    1    2    0    0  0.13858032206E+02 -0.20529789042E+02 -0.43665688483E+03  0.44673846678E+03  0.91063194237E+02 0.  0.
         23    2    1    2    0    0  0.24540596152E+02  0.22178319033E+02 -0.12183538665E+03  0.15608868095E+03  0.91791591041E+02 0.  0.
        -11    1    3    3    0    0  0.42406394456E+02 -0.40744738760E+02 -0.24913668013E+03  0.25598343972E+03  0.00000000000E+00 0.  1.
         11    1    3    3    0    0 -0.28548362250E+02  0.20214949719E+02 -0.18752020470E+03  0.19075502706E+03  0.00000000000E+00 0. -1.
        -11    1    4    4    0    0  0.50681117786E+02  0.87928271989E+01 -0.11493530024E+03  0.12592066054E+03  0.00000000000E+00 0.  1.
         11    1    4    4    0    0 -0.26140521634E+02  0.13385491834E+02 -0.69000864131E+01  0.30168020410E+02  0.00000000000E+00 0. -1.
         21    1    1    2  502  501 -0.38398628358E+02 -0.16485299913E+01 -0.22864680248E+02  0.44720978452E+02  0.00000000000E+00 0. -1.
<scales pt_clust_5="13000.00000" pt_clust_6="13000.00000" pt_clust_7="13000.00000" pt_clust_8="13000.00000" pt_clust_9="38.43400"></scales>
<clustering>
<clus scale="   38.434">  1  9  2 -1</clus>
<clus scale="   91.063">  5  6 -1 -1</clus>
<clus scale="   91.792">  7  8 -1 -1</clus>
<clus scale="   93.572">  2  5  1 -1</clus>
<clus scale="   38.434">  1  5  2 -1</clus>
</clustering>
</event>
<event>
 9    1  0.1234700E-005  0.1209703E+03  0.7546771E-02  0.1242339E+00
          3   -1    0    0  502    0  0.00000000000E+00  0.00000000000E+00  0.38412166914E+02  0.38412166914E+02  0.00000000000E+00 0. -1.
         -3   -1    0    0    0  501 -0.00000000000E+00 -0.00000000000E+00 -0.74837203923E+03  0.74837203923E+03  0.00000000000E+00 0.  1.
         23    2    1    2    0    0 -0.48666677769E+02 -0.77271268208E+02 -0.53935938803E+03  0.55476881430E+03  0.92307060663E+02 0.  0.
         23    2    1    2    0    0  0.26705705872E+02  0.44881104402E+02 -0.16131885546E+03  0.19179654512E+03  0.89636116246E+02 0.  0.
        -11    1    4    4    0    0  0.39109019492E+02  0.77340135686E+01 -0.18953141790E+02  0.44142405408E+02  0.00000000000E+00 0. -1.
         11    1    4    4    0    0 -0.12403313620E+02  0.37147090833E+02 -0.14236571367E+03  0.14765413971E+03  0.00000000000E+00 0.  1.
        -13    1    3    3    0    0  0.25096504542E+02 -0.38285224393E+01 -0.90078103511E+02  0.93587161814E+02  0.00000000000E+00 0. -1.
         13    1    3    3    0    0 -0.73763182311E+02 -0.73442745768E+02 -0.44928128452E+03  0.46118165249E+03  0.00000000000E+00 0.  1.
         21    1    1    2  502  501  0.21960971897E+02  0.32390163806E+02 -0.92816288286E+01  0.40218846723E+02  0.00000000000E+00 0.  1.
<scales pt_clust_5="13000.00000" pt_clust_6="13000.00000" pt_clust_7="13000.00000" pt_clust_8="13000.00000" pt_clust_9="39.13320"></scales>
<clustering>
<clus scale="   39.133">  1  9  2 -1</clus>
<clus scale="   89.636">  5  6 -1 -1</clus>
<clus scale="   92.307">  7  8 -1 -1</clus>
<clus scale="  118.945">  1  5  2 -1</clus>
<clus scale="   39.133">  1  5  2 -1</clus>
</clustering>
</event>
<event>
 9    1  0.1234700E-005  0.1149897E+03  0.7546771E-02  0.1252928E+00
         -3   -1    0    0    0  501 -0.00000000000E+00  0.00000000000E+00  0.14048198479E+03  0.14048198479E+03  0.00000000000E+00 0.  1.
          3   -1    0    0  502    0  0.00000000000E+00 -0.00000000000E+00 -0.17826456082E+03  0.17826456082E+03  0.00000000000E+00 0. -1.
         23    2    1    2    0    0 -0.64268174309E+02  0.45538339835E+02  0.27804244166E+02  0.12421842112E+03  0.91940206268E+02 0.  0.
         23    2    1    2    0    0  0.34048335263E+02 -0.51756940657E+02  0.14484207045E+02  0.10871857331E+03  0.88158186741E+02 0.  0.
        -11    1    3    3    0    0 -0.56393447241E+02  0.65910357328E+02 -0.26003114642E+01  0.86782243083E+02  0.00000000000E+00 0. -1.
         11    1    3    3    0    0 -0.78747270678E+01 -0.20372017493E+02  0.30404555631E+02  0.37436178040E+02  0.00000000000E+00 0.  1.
        -13    1    4    4    0    0  0.12611546782E+02 -0.28036577571E+02  0.51394033856E+02  0.59886956093E+02  0.00000000000E+00 0.  1.
         13    1    4    4    0    0  0.21436788481E+02 -0.23720363086E+02 -0.36909826811E+02  0.48831617222E+02  0.00000000000E+00 0. -1.
         21    1    1    2  502  501  0.30219839046E+02  0.62186008225E+01 -0.80071027248E+02  0.85809551174E+02  0.00000000000E+00 0. -1.
<scales pt_clust_5="13000.00000" pt_clust_6="13000.00000" pt_clust_7="13000.00000" pt_clust_8="13000.00000" pt_clust_9="30.85303"></scales>
<clustering>
<clus scale="   30.853">  2  9  1 -1</clus>
<clus scale="   88.158">  7  8 -1 -1</clus>
<clus scale="   91.940">  5  6 -1 -1</clus>
<clus scale="  111.989">  2  7  1 -1</clus>
<clus scale="   30.853">  2  5  1 -1</clus>
</clustering>
</event>
<event>
 9    1  0.1234700E-005  0.9408562E+02  0.7546771E-02  0.1295535E+00
          2   -1    0    0  502    0  0.00000000000E+00  0.00000000000E+00  0.22137005802E+03  0.22137005802E+03  0.00000000000E+00 0. -1.
         -2   -1    0    0    0  501 -0.00000000000E+00 -0.00000000000E+00 -0.63616989346E+02  0.63616989346E+02  0.00000000000E+00 0.  1.
         23    2    1    2    0    0 -0.97112445918E+01  0.87924302847E+01  0.33984071083E+01  0.90887155666E+02  0.89873860451E+02 0.  0.
         23    2    1    2    0    0 -0.54585052265E+01  0.67415867920E+01  0.11080367087E+03  0.14543660177E+03  0.93803557420E+02 0.  0.
        -13    1    4    4    0    0  0.92945574449E+01  0.35204613733E+02  0.10715280362E+03  0.11317012393E+03  0.00000000000E+00 0. -1.
         13    1    4    4    0    0 -0.14753062671E+02 -0.28463026941E+02  0.36508672511E+01  0.32266477845E+02  0.00000000000E+00 0.  1.
        -13    1    3    3    0    0 -0.29516974098E+02  0.22186722888E+02 -0.31532367631E+02  0.48557107007E+02  0.00000000000E+00 0. -1.
         13    1    3    3    0    0  0.19805729506E+02 -0.13394292603E+02  0.34930774740E+02  0.42330048660E+02  0.00000000000E+00 0.  1.
         21    1    1    2  502  501  0.15169749818E+02 -0.15534017077E+02  0.43550990693E+02  0.48663289926E+02  0.00000000000E+00 0. -1.
<scales pt_clust_5="13000.00000" pt_clust_6="13000.00000" pt_clust_7="13000.00000" pt_clust_8="13000.00000" pt_clust_9="21.71237"></scales>
<clustering>
<clus scale="   21.712">  1  9  2 -1</clus>
<clus scale="   89.874">  7  8 -1 -1</clus>
<clus scale="   90.168">  2  7  1 -1</clus>
<clus scale="   93.804">  5  6 -1 -1</clus>
<clus scale="   21.712">  1  5  2 -1</clus>
</clustering>
</event>
<event>
 9    1  0.1234700E-005  0.9329793E+02  0.7546771E-02  0.1297633E+00
         -1   -1    0    0    0  501 -0.00000000000E+00  0.00000000000E+00  0.29155226443E+03  0.29155226443E+03  0.00000000000E+00 0.  1.
          1   -1    0    0  502    0  0.00000000000E+00 -0.00000000000E+00 -0.70119972319E+02  0.70119972319E+02  0.00000000000E+00 0. -1.
         23    2    1    2    0    0  0.81602456431E+01 -0.26167399596E+02  0.21741443133E+03  0.23506817895E+03  0.85068745111E+02 0.  0.
         23    2    1    2    0    0 -0.29068906601E+02  0.90809208713E+01  0.17775175010E+02  0.96299214077E+02  0.89610921937E+02 0.  0.
        -13    1    3    3    0    0  0.25502818243E+02 -0.49997214491E+02  0.17202563913E+03  0.18095009178E+03  0.00000000000E+00 0.  1.
         13    1    3    3    0    0 -0.17342572600E+02  0.23829814895E+02  0.45388792195E+02  0.54118087173E+02  0.00000000000E+00 0. -1.
        -13    1    4    4    0    0  0.17845015892E+02 -0.26913260875E+02  0.18397037692E+02  0.37164757485E+02  0.00000000000E+00 0.  1.
         13    1    4    4    0    0 -0.46913922493E+02  0.35994181746E+02 -0.62186268271E+00  0.59134456592E+02  0.00000000000E+00 0. -1.
         21    1    1    2  502  501  0.20908660958E+02  0.17086478724E+02 -0.13757314227E+02  0.30304843721E+02  0.00000000000E+00 0.  1.
<scales pt_clust_5="13000.00000" pt_clust_6="13000.00000" pt_clust_7="13000.00000" pt_clust_8="13000.00000" pt_clust_9="27.00222"></scales>
<clustering>
<clus scale="   27.002">  2  9  1 -1</clus>
<clus scale="   85.069">  5  6 -1 -1</clus>
<clus scale="   88.944">  1  5  2 -1</clus>
<clus scale="   89.611">  7  8 -1 -1</clus>
<clus scale="   27.002">  2  5  1 -1</clus>
</clustering>
</event>
<event>
 9    1  0.1234700E-005  0.1565682E+03  0.7546771E-02  0.1193445E+00
          1   -1    0    0  502    0  0.00000000000E+00  0.00000000000E+00  0.13651645551E+03  0.13651645551E+03  0.00000000000E+00 0. -1.
         -1   -1    0    0    0  501 -0.00000000000E+00 -0.00000000000E+00 -0.44949056042E+03  0.44949056042E+03  0.00000000000E+00 0.  1.
         23    2    1    2    0    0  0.99731200207E+02 -0.62974238376E+00 -0.13660593629E+03  0.18957571949E+03  0.85621625315E+02 0.  0.
         23    2    1    2    0    0 -0.16018512679E+03  0.12282665656E+02 -0.24342952561E+03  0.30539452660E+03  0.90541395025E+02 0.  0.
        -11    1    4    4    0    0 -0.13321244507E+03 -0.25964704114E+02 -0.19891031479E+03  0.24080081958E+03  0.00000000000E+00 0.  1.
         11    1    4    4    0    0 -0.26972681725E+02  0.38247369770E+02 -0.44519210829E+02  0.64593707020E+02  0.00000000000E+00 0. -1.
        -11    1    3    3    0    0  0.86371311983E+02 -0.19837326525E+02 -0.14024433374E+03  0.16589754731E+03  0.00000000000E+00 0.  1.
         11    1    3    3    0    0  0.13359888225E+02  0.19207584141E+02  0.36383974509E+01  0.23678172183E+02  0.00000000000E+00 0. -1.
         21    1    1    2  502  501  0.60453926587E+02 -0.11652923272E+02  0.67061357001E+02  0.91036769842E+02  0.00000000000E+00 0. -1.
<scales pt_clust_5="13000.00000" pt_clust_6="13000.00000" pt_clust_7="13000.00000" pt_clust_8="13000.00000" pt_clust_9="61.56678"></scales>
<clustering>
<clus scale="   61.567">  1  9  2 -1</clus>
<clus scale="   85.622">  7  8 -1 -1</clus>
<clus scale="   90.541">  5  6 -1 -1</clus>
<clus scale="  153.776">  2  7  1 -1</clus>
<clus scale="   61.567">  1  5  2 -1</clus>
</clustering>
</event>
<event>
 9    1  0.1234700E-005  0.1417200E+03  0.7546771E-02  0.1231760E+00
          1   -1    0    0  502    0  0.00000000000E+00  0.00000000000E+00  0.67654694670E+03  0.67654694670E+03  0.00000000000E+00 0. -1.
         -1   -1    0    0    0  501 -0.00000000000E+00 -0.00000000000E+00 -0.83043482929E+02  0.83043482929E+02  0.00000000000E+00 0.  1.
         23    2    1    2    0    0 -0.10579445165E+02  0.10661451747E+02  0.90166398235E+02  0.12867681594E+03  0.90565735113E+02 0.  0.
         23    2    1    2    0    0  0.47083873103E+01 -0.11708512500E+03  0.38555982646E+02  0.15406780783E+03  0.92299676089E+02 0.  0.
        -13    1    3    3    0    0 -0.27032009967E+02  0.26866086387E+02  0.26934292889E+01  0.38206945991E+02  0.00000000000E+00 0. -1.
         13    1    3    3    0    0  0.16452564802E+02 -0.16204634640E+02  0.87472968946E+02  0.90469869949E+02  0.00000000000E+00 0.  1.
        -13    1    4    4    0    0 -0.16149698642E+01 -0.39163953036E+02 -0.30572782670E+02  0.49710344852E+02  0.00000000000E+00 0. -1.
         13    1    4    4    0    0  0.63233571745E+01 -0.77921171962E+02  0.69128765317E+02  0.10435746298E+03  0.00000000000E+00 0.  1.
         21    1    1    2  502  501  0.58710578543E+01  0.10642367325E+03  0.46478108289E+03  0.47684580585E+03  0.00000000000E+00 0. -1.
<scales pt_clust_5="13000.00000" pt_clust_6="13000.00000" pt_clust_7="13000.00000" pt_clust_8="13000.00000" pt_clust_9="107.54226"></scales>
<clustering>
<clus scale="   90.566">  5  6 -1 -1</clus>
<clus scale="   91.803">  2  5  1 -1</clus>
<clus scale="   92.300">  7  8 -1 -1</clus>
<clus scale="  107.542">  1  9  2 -1</clus>
<clus scale="  107.542">  1  5  2 -1</clus>
</clustering>
</event>
<event>
 9    1  0.1234700E-005  0.1659298E+03  0.7546771E-02  0.1182367E+00
          3   -1    0    0  502    0  0.00000000000E+00  0.00000000000E+00  0.12180053831E+04  0.12180053831E+04  0.00000000000E+00 0. -1.
         -3   -1    0    0    0  501 -0.00000000000E+00 -0.00000000000E+00 -0.29694702924E+02  0.29694702924E+02  0.00000000000E+00 0.  1.
         23    2    1    2    0    0  0.21906097364E+02 -0.15709507806E+03  0.56564459234E+03  0.59444125967E+03  0.90817760951E+02 0.  0.
         23    2    1    2    0    0 -0.34996965427E+02  0.11785812458E+03  0.52891488452E+03  0.55078835515E+03  0.92203752538E+02 0.  0.
        -11    1    3    3    0    0  0.35508710675E+02 -0.27184170481E+02  0.81246019127E+02  0.92740300208E+02  0.00000000000E+00 0.  1.
         11    1    3    3    0    0 -0.13602613311E+02 -0.12991090758E+03  0.48439857321E+03  0.50170095946E+03  0.00000000000E+00 0. -1.
        -13    1    4    4    0    0 -0.35506248119E+02  0.49385000735E+00  0.14812264636E+03  0.15231958478E+03  0.00000000000E+00 0. -1.
         13    1    4    4    0    0  0.50928269173E+00  0.11736427458E+03  0.38079223815E+03  0.39846877036E+03  0.00000000000E+00 0.  1.
         21    1    1    2  502  501  0.13090868063E+02  0.39236953477E+02  0.93751203296E+02  0.10247047118E+03  0.00000000000E+00 0.  1.
<scales pt_clust_5="13000.00000" pt_clust_6="13000.00000" pt_clust_7="13000.00000" pt_clust_8="13000.00000" pt_clust_9="41.36314"></scales>
<clustering>
<clus scale="   41.363">  2  9  1 -1</clus>
<clus scale="   90.818">  5  6 -1 -1</clus>
<clus scale="   92.204">  7  8 -1 -1</clus>
<clus scale="  165.164">  2  5  1 -1</clus>
<clus scale="  165.930">  1  5  2 -1</clus>
</clustering>
</event>
<event>
 9    1  0.1234700E-005  0.1124745E+03  0.7546771E-02  0.1256145E+00
          2   -1    0    0  502    0  0.00000000000E+00  0.00000000000E+00  0.37427969512E+03  0.37427969512E+03  0.00000000000E+00 0. -1.
         -2   -1    0    0    0  501 -0.00000000000E+00 -0.00000000000E+00 -0.49039813347E+03  0.49039813347E+03  0.00000000000E+00 0.  1.
         23    2    1    2    0    0  0.61249520019E+02  0.21523793347E+02 -0.44585817335E+03  0.45957950268E+03  0.90603703892E+02 0.  0.
         23    2    1    2    0    0 -0.10546619193E+03  0.14866802758E+02  0.11005841995E+03  0.17807570645E+03  0.90851317880E+02 0.  0.
        -13    1    3    3    0    0  0.81348672457E+02  0.58268366338E+01 -0.38588336101E+03  0.39440781793E+03  0.00000000000E+00 0.  1.
         13    1    3    3    0    0 -0.20099152438E+02  0.15696956713E+02 -0.59974812342E+02  0.65171684758E+02  0.00000000000E+00 0. -1.
        -13    1    4    4    0    0 -0.87122088148E+02 -0.28287933733E+00  0.26302535511E+02  0.91006382405E+02  0.00000000000E+00 0.  1.
         13    1    4    4    0    0 -0.18344103783E+02  0.15149682096E+02  0.83755884441E+02  0.87069324046E+02  0.00000000000E+00 0. -1.
         21    1    1    2  502  501  0.44216671912E+02 -0.36390596106E+02  0.21968131506E+03  0.22702261946E+03  0.00000000000E+00 0. -1.
<scales pt_clust_5="13000.00000" pt_clust_6="13000.00000" pt_clust_7="13000.00000" pt_clust_8="13000.00000" pt_clust_9="57.26595"></scales>
<clustering>
<clus scale="   57.266">  1  9  2 -1</clus>
<clus scale="   90.604">  5  6 -1 -1</clus>
<clus scale="   90.851">  7  8 -1 -1</clus>
<clus scale="  112.275">  2  5  1 -1</clus>
<clus scale="   57.266">  1  5  2 -1</clus>
</clustering>
</event>
<event>
 9    1  0.1234700E-005  0.1106580E+03  0.7546771E-02  0.1261045E+00
          1   -1    0    0  502    0  0.00000000000E+00  0.00000000000E+00  0.15272513253E+03  0.15272513253E+03  0.00000000000E+00 0. -1.
         -1   -1    0    0    0  501 -0.00000000000E+00 -0.00000000000E+00 -0.12208181780E+03  0.12208181780E+03  0.00000000000E+00 0.  1.
         23    2    1    2    0    0 -0.58792558941E+02  0.91594738771E+01 -0.32035922526E+02  0.11326430684E+03  0.90895775060E+02 0.  0.
         23    2    1    2    0    0  0.52979606397E+02  0.12234508234E+02  0.17145988405E+02  0.11089908874E+03  0.95121506917E+02 0.  0.
        -11    1    3    3    0    0 -0.59880416105E+02 -0.10961442998E+02  0.14477902764E+02  0.62573374002E+02  0.00000000000E+00 0. -1.
         11    1    3    3    0    0  0.10878571639E+01  0.20120916875E+02 -0.46513825290E+02  0.50690932840E+02  0.00000000000E+00 0.  1.
        -13    1    4    4    0    0 -0.18917769101E+02  0.27934808536E+02  0.15900394638E+02  0.37296890827E+02  0.00000000000E+00 0. -1.
         13    1    4    4    0    0  0.71897375498E+02 -0.15700300302E+02  0.12455937676E+01  0.73602197909E+02  0.00000000000E+00 0.  1.
         21    1    1    2  502  501  0.58129525437E+01 -0.21393982111E+02  0.45533248851E+02  0.50643554760E+02  0.00000000000E+00 0.  1.
<scales pt_clust_5="13000.00000" pt_clust_6="13000.00000" pt_clust_7="13000.00000" pt_clust_8="13000.00000" pt_clust_9="22.16964"></scales>
<clustering>
<clus scale="   22.170">  1  9  2 -1</clus>
<clus scale="   90.896">  5  6 -1 -1</clus>
<clus scale="   95.122">  7  8 -1 -1</clus>
<clus scale="  107.047">  2  5  1 -1</clus>
<clus scale="   22.170">  1  5  2 -1</clus>
</clustering>
</event>
<event>
 9    1  0.1234700E-005  0.1185333E+03  0.7546771E-02  0.1246708E+00
         -1   -1    0    0    0  501 -0.00000000000E+00  0.00000000000E+00  0.93302835413E+02  0.93302835413E+02  0.00000000000E+00 0.  1.
          1   -1    0    0  502    0  0.00000000000E+00 -0.00000000000E+00 -0.50837185630E+03  0.50837185630E+03  0.00000000000E+00 0. -1.
         23    2    1    2    0    0  0.90161756509E+00  0.47598453198E+02 -0.20409984835E+02  0.10390174534E+03  0.90069859236E+02 0.  0.
         23    2    1    2    0    0 -0.17280147011E+02 -0.12698508309E+03 -0.89833927881E+02  0.18235443106E+03  0.93590539693E+02 0.  0.
        -13    1    4    4    0    0  0.15805089416E+02 -0.68719759007E+02 -0.91269189950E+02  0.11533547227E+03  0.00000000000E+00 0. -1.
         13    1    4    4    0    0 -0.33085236428E+02 -0.58265324083E+02  0.14352620689E+01  0.67018958789E+02  0.00000000000E+00 0.  1.
        -13    1    3    3    0    0 -0.19972026309E+02 -0.12648542519E+02 -0.31293204722E+02  0.39219027583E+02  0.00000000000E+00 0.  1.
         13    1    3    3    0    0  0.20873643875E+02  0.60246995716E+02  0.10883219887E+02  0.64682717758E+02  0.00000000000E+00 0. -1.
         21    1    1    2  502  501  0.16378529446E+02  0.79386629892E+02 -0.30482510817E+03  0.31541851532E+03  0.00000000000E+00 0. -1.
<scales pt_clust_5="13000.00000" pt_clust_6="13000.00000" pt_clust_7="13000.00000" pt_clust_8="13000.00000" pt_clust_9="81.05858"></scales>
<clustering>
<clus scale="   81.059">  2  9  1 -1</clus>
<clus scale="   90.070">  7  8 -1 -1</clus>
<clus scale="   93.591">  5  6 -1 -1</clus>
<clus scale="  115.774">  1  7  2 -1</clus>
<clus scale="   81.059">  2  5  1 -1</clus>
</clustering>
</event>
<event>
 9    1  0.1234700E-005  0.1600446E+03  0.7546771E-02  0.1192089E+00
         -1   -1    0    0    0  501 -0.00000000000E+00  0.00000000000E+00  0.44570030942E+03  0.44570030942E+03  0.00000000000E+00 0.  1.
          1   -1    0    0  502    0  0.00000000000E+00 -0.00000000000E+00 -0.11895618688E+03  0.11895618688E+03  0.00000000000E+00 0. -1.
         23    2    1    2    0    0 -0.81533775185E+02 -0.77798706272E+02  0.34695898151E+03  0.38116209887E+03  0.11046997590E+03 0.  0.
         23    2    1    2    0    0  0.10013690387E+03  0.85438452606E+02 -0.10981809465E+02  0.16136542718E+03  0.92688037255E+02 0.  0.
        -11    1    4    4    0    0  0.32131539541E+02  0.25705047950E+02  0.40079781501E+02  0.57441920307E+02  0.00000000000E+00 0.  1.
         11    1    4    4    0    0  0.68005364328E+02  0.59733404655E+02 -0.51061590966E+02  0.10392350687E+03  0.00000000000E+00 0. -1.
        -13    1    3    3    0    0 -0.96956962239E+02 -0.29058773420E+02  0.27381077407E+03  0.29192020286E+03  0.00000000000E+00 0.  1.
         13    1    3    3    0    0  0.15423187054E+02 -0.48739932852E+02  0.73148207435E+02  0.89241896015E+02  0.00000000000E+00 0. -1.
         21    1    1    2  502  501 -0.18603128683E+02 -0.76397463333E+01 -0.92330495084E+01  0.22128970244E+02  0.00000000000E+00 0. -1.
<scales pt_clust_5="13000.00000" pt_clust_6="13000.00000" pt_clust_7="13000.00000" pt_clust_8="13000.00000" pt_clust_9="20.11075"></scales>
<clustering>
<clus scale="   20.111">  2  9  1 -1</clus>
<clus scale="   92.688">  5  6 -1 -1</clus>
<clus scale="  110.470">  7  8 -1 -1</clus>
<clus scale="  148.330">  2  5  1 -1</clus>
<clus scale="   20.111">  2  5  1 -1</clus>
</clustering>
</event>
<event>
 9    1  0.1234700E-005  0.1562307E+03  0.7546771E-02  0.1193625E+00
         -1   -1    0    0    0  501 -0.00000000000E+00  0.00000000000E+00  0.36102558254E+03  0.36102558254E+03  0.00000000000E+00 0.  1.
          1   -1    0    0  502    0  0.00000000000E+00 -0.00000000000E+00 -0.91451778456E+02  0.91451778456E+02  0.00000000000E+00 0. -1.
         23    2    1    2    0    0  0.66122714767E+02 -0.94450959243E+02  0.16194645606E+03  0.21739142950E+03  0.87972620064E+02 0.  0.
         23    2    1    2    0    0 -0.76057211306E+02  0.12515619390E+03  0.10626544709E+03  0.20278484125E+03  0.91545476841E+02 0.  0.
        -11    1    3    3    0    0 -0.13217778402E+02 -0.30094482994E+02  0.79788893994E+02  0.86294004295E+02  0.00000000000E+00 0. -1.
         11    1    3    3    0    0  0.79340493169E+02 -0.64356476249E+02  0.82157562069E+02  0.13109742521E+03  0.00000000000E+00 0.  1.
        -13    1    4    4    0    0 -0.55607149613E+02  0.13740995604E+03  0.97292629925E+02  0.17731189172E+03  0.00000000000E+00 0. -1.
         13    1    4    4    0    0 -0.20450061693E+02 -0.12253762138E+02  0.89728171693E+01  0.25472949530E+02  0.00000000000E+00 0.  1.
         21    1    1    2  502  501  0.99344965392E+01 -0.30705234659E+02  0.13619009318E+01  0.32301090247E+02  0.00000000000E+00 0.  1.
<scales pt_clust_5="13000.00000" pt_clust_6="13000.00000" pt_clust_7="13000.00000" pt_clust_8="13000.00000" pt_clust_9="32.27237"></scales>
<clustering>
<clus scale="   32.272">  2  9  1 -1</clus>
<clus scale="   87.973">  5  6 -1 -1</clus>
<clus scale="   91.545">  7  8 -1 -1</clus>
<clus scale="  154.164">  1  5  2 -1</clus>
<clus scale="   32.272">  2  5  1 -1</clus>
</clustering>
</event>
<event>
 9    1  0.1234700E-005  0.1963850E+03  0.7546771E-02  0.1153829E+00
         -1   -1    0    0    0  501 -0.00000000000E+00  0.00000000000E+00  0.10403586053E+03  0.10403586053E+03  0.00000000000E+00 0.  1.
          1   -1    0    0  502    0  0.00000000000E+00 -0.00000000000E+00 -0.62134872589E+03  0.62134872589E+03  0.00000000000E+00 0. -1.
         23    2    1    2    0    0 -0.11158759450E+03 -0.12930342760E+03 -0.38320784734E+02  0.19613028421E+03  0.88472810554E+02 0.  0.
         23    2    1    2    0    0  0.12824332777E+03  0.11072597751E+03 -0.38361837041E+03  0.43067093798E+03  0.98019434249E+02 0.  0.
        -13    1    4    4    0    0  0.13392388707E+03  0.68397524905E+02 -0.26637553731E+03  0.30589173872E+03  0.00000000000E+00 0. -1.
         13    1    4    4    0    0 -0.56805592983E+01  0.42328452609E+02 -0.11724283310E+03  0.12477919926E+03  0.00000000000E+00 0.  1.
        -13    1    3    3    0    0 -0.10015774583E+03 -0.79413500401E+02  0.66564151969E+01  0.12799369499E+03  0.00000000000E+00 0.  1.
         13    1    3    3    0    0 -0.11429848673E+02 -0.49889927201E+02 -0.44977199931E+02  0.68136589219E+02  0.00000000000E+00 0. -1.
         21    1    1    2  502  501 -0.16655733275E+02  0.18577450088E+02 -0.95373710214E+02  0.98583364229E+02  0.00000000000E+00 0. -1.
<scales pt_clust_5="13000.00000" pt_clust_6="13000.00000" pt_clust_7="13000.00000" pt_clust_8="13000.00000" pt_clust_9="24.95065"></scales>
<clustering>
<clus scale="   24.951">  2  9  1 -1</clus>
<clus scale="   88.473">  7  8 -1 -1</clus>
<clus scale="   98.019">  5  6 -1 -1</clus>
<clus scale="  191.799">  1  7  2 -1</clus>
<clus scale="   24.951">  2  5  1 -1</clus>
</clustering>
</event>
<event>
 9    1  0.1234700E-005  0.1384546E+03  0.7546771E-02  0.1225918E+00
          2   -1    0    0  502    0  0.00000000000E+00  0.00000000000E+00  0.42809311392E+03  0.42809311392E+03  0.00000000000E+00 0. -1.
         -2   -1    0    0    0  501 -0.00000000000E+00 -0.00000000000E+00 -0.47459166185E+02  0.47459166185E+02  0.00000000000E+00 0.  1.
         23    2    1    2    0    0  0.54916625492E+02 -0.11114700983E+02  0.10899415568E+03  0.15314445505E+03  0.91837496738E+02 0.  0.
         23    2    1    2    0    0 -0.67687710454E+02  0.31673322917E+02  0.19911591594E+03  0.24595215061E+03  0.12353334320E+03 0.  0.
        -11    1    3    3    0    0  0.52881919233E+01 -0.23354662507E+02  0.97969538029E+02  0.10085353547E+03  0.00000000000E+00 0. -1.
         11    1    3    3    0    0  0.49628433569E+02  0.12239961524E+02  0.11024617652E+02  0.52290919585E+02  0.00000000000E+00 0.  1.
        -13    1    4    4    0    0 -0.86472695483E+02  0.63033482756E+02  0.15925379897E+03  0.19186588936E+03  0.00000000000E+00 0.  1.
         13    1    4    4    0    0  0.18784985029E+02 -0.31360159839E+02  0.39862116964E+02  0.54086261255E+02  0.00000000000E+00 0. -1.
         21    1    1    2  502  501  0.12771084962E+02 -0.20558621934E+02  0.72523876122E+02  0.76455674444E+02  0.00000000000E+00 0. -1.
<scales pt_clust_5="13000.00000" pt_clust_6="13000.00000" pt_clust_7="13000.00000" pt_clust_8="13000.00000" pt_clust_9="24.20243"></scales>
<clustering>
<clus scale="   24.202">  1  9  2 -1</clus>
<clus scale="   91.837">  5  6 -1 -1</clus>
<clus scale="  111.100">  2  5  1 -1</clus>
<clus scale="  123.533">  7  8 -1 -1</clus>
<clus scale="   24.202">  1  5  2 -1</clus>
</clustering>
</event>
<event>
 9    1  0.1234700E-005  0.1008403E+03  0.7546771E-02  0.1279881E+00
         -2   -1    0    0    0  501 -0.00000000000E+00  0.00000000000E+00  0.44894069186E+02  0.44894069186E+02  0.00000000000E+00 0.  1.
          2   -1    0    0  502    0  0.00000000000E+00 -0.00000000000E+00 -0.36327818885E+03  0.36327818885E+03  0.00000000000E+00 0. -1.
         23    2    1    2    0    0 -0.26281043131E+02 -0.43639460655E+01 -0.62447056924E+02  0.11606263020E+03  0.94133745055E+02 0.  0.
         23    2    1    2    0    0  0.56903755552E+02  0.14262401249E+02 -0.19600464546E+03  0.22408298179E+03  0.91399716625E+02 0.  0.
        -13    1    4    4    0    0 -0.11400936323E+02 -0.24315862669E+02 -0.77000368494E+02  0.81549367102E+02  0.00000000000E+00 0.  1.
         13    1    4    4    0    0  0.68304691875E+02  0.38578263918E+02 -0.11900427697E+03  0.14253361469E+03  0.00000000000E+00 0. -1.
        -13    1    3    3    0    0 -0.68325465604E+01 -0.47543884394E+02 -0.44315443868E+02  0.65352606689E+02  0.00000000000E+00 0. -1.
         13    1    3    3    0    0 -0.19448496570E+02  0.43179938329E+02 -0.18131613056E+02  0.50710023515E+02  0.00000000000E+00 0.  1.
         21    1    1    2  502  501 -0.30622712421E+02 -0.98984551836E+01 -0.59932417275E+02  0.68026646040E+02  0.00000000000E+00 0.  1.
<scales pt_clust_5="13000.00000" pt_clust_6="13000.00000" pt_clust_7="13000.00000" pt_clust_8="13000.00000" pt_clust_9="32.18276"></scales>
<clustering>
<clus scale="   32.183">  2  9  1 -1</clus>
<clus scale="   91.400">  5  6 -1 -1</clus>
<clus scale="   94.134">  7  8 -1 -1</clus>
<clus scale="   98.293">  2  5  1 -1</clus>
<clus scale="   32.183">  2  5  1 -1</clus>
</clustering>
</event>
<event>
 9    1  0.1234700E-005  0.1086885E+03  0.7546771E-02  0.1266234E+00
         -2   -1    0    0    0  501 -0.00000000000E+00  0.00000000000E+00  0.34531979345E+02  0.34531979345E+02  0.00000000000E+00 0.  1.
          2   -1    0    0  502    0  0.00000000000E+00 -0.00000000000E+00 -0.64227407094E+03  0.64227407094E+03  0.00000000000E+00 0. -1.
         23    2    1    2    0    0 -0.34517551431E+02  0.33027555794E+02 -0.11919253442E+03  0.15356864529E+03  0.84227001349E+02 0.  0.
         23    2    1    2    0    0  0.18250785640E+02 -0.84164788055E+02 -0.26704526503E+03  0.29532563340E+03  0.92126290728E+02 0.  0.
        -11    1    3    3    0    0  0.66192892111E+01  0.32928505592E+02 -0.10469688479E+03  0.10995244042E+03  0.00000000000E+00 0.  1.
         11    1    3    3    0    0 -0.41136840642E+02  0.99050202175E-01 -0.14495649632E+02  0.43616204869E+02  0.00000000000E+00 0. -1.
        -13    1    4    4    0    0  0.22658680276E+02 -0.59564481961E+02 -0.26224419853E+03  0.26987656987E+03  0.00000000000E+00 0. -1.
         13    1    4    4    0    0 -0.44078946355E+01 -0.24600306094E+02 -0.48010665033E+01  0.25449063531E+02  0.00000000000E+00 0.  1.
         21    1    1    2  502  501  0.16266765790E+02  0.51137232261E+02 -0.22150429214E+03  0.22791177159E+03  0.00000000000E+00 0.  1.
<scales pt_clust_5="13000.00000" pt_clust_6="13000.00000" pt_clust_7="13000.00000" pt_clust_8="13000.00000" pt_clust_9="53.66213"></scales>
<clustering>
<clus scale="   53.662">  2  9  1 -1</clus>
<clus scale="   84.227">  5  6 -1 -1</clus>
<clus scale="   92.126">  7  8 -1 -1</clus>
<clus scale="  102.079">  1  5  2 -1</clus>
<clus scale="   53.662">  2  5  1 -1</clus>
</clustering>
</event>
<event>
 9    1  0.1234700E-005  0.2591385E+03  0.7546771E-02  0.1107834E+00
          2   -1    0    0  502    0  0.00000000000E+00  0.00000000000E+00  0.30062142948E+03  0.30062142948E+03  0.00000000000E+00 0. -1.
         -2   -1    0    0    0  501 -0.00000000000E+00 -0.00000000000E+00 -0.67372930798E+03  0.67372930798E+03  0.00000000000E+00 0.  1.
         23    2    1    2    0    0 -0.56531185415E+02 -0.23812569829E+03 -0.50267979783E+03  0.56697995575E+03  0.94231990157E+02 0.  0.
         23    2    1    2    0    0 -0.65368742174E+02  0.23929598578E+03  0.92086804360E+02  0.27983217671E+03  0.91051778255E+02 0.  0.
        -11    1    3    3    0    0 -0.73935335596E+02 -0.11189534117E+03 -0.27868986836E+03  0.30928149630E+03  0.00000000000E+00 0.  1.
         11    1    3    3    0    0  0.17404150181E+02 -0.12623035712E+03 -0.22398992947E+03  0.25769845946E+03  0.00000000000E+00 0. -1.
        -13    1    4    4    0    0 -0.71790424904E+02  0.97681496691E+02  0.28870763736E+02  0.12461565272E+03  0.00000000000E+00 0.  1.
         13    1    4    4    0    0  0.64216827307E+01  0.14161448909E+03  0.63216040624E+02  0.15521652399E+03  0.00000000000E+00 0. -1.
         21    1    1    2  502  501  0.12189992759E+03 -0.11702874857E+01  0.37485114977E+02  0.12753860499E+03  0.00000000000E+00 0. -1.
<scales pt_clust_5="13000.00000" pt_clust_6="13000.00000" pt_clust_7="13000.00000" pt_clust_8="13000.00000" pt_clust_9="121.90555"></scales>
<clustering>
<clus scale="   91.052">  7  8 -1 -1</clus>
<clus scale="   94.232">  5  6 -1 -1</clus>
<clus scale="  121.906">  1  9  2 -1</clus>
<clus scale="  257.999">  1  7  2 -1</clus>
<clus scale="  121.906">  1  5  2 -1</clus>
</clustering>
</event>
<event>
 9    1  0.1234700E-005  0.9563682E+02  0.7546771E-02  0.1290667E+00
         -1   -1    0    0    0  501 -0.00000000000E+00  0.00000000000E+00  0.87957186153E+02  0.87957186153E+02  0.00000000000E+00 0.  1.
          1   -1    0    0  502    0  0.00000000000E+00 -0.00000000000E+00 -0.17459268346E+03  0.17459268346E+03  0.00000000000E+00 0. -1.
         23    2    1    2    0    0  0.15387956664E+02 -0.16284455370E+02  0.14538843931E+02  0.93801799414E+02  0.89919001849E+02 0.  0.
         23    2    1    2    0    0 -0.37614623617E+02  0.13100718317E+02 -0.47614172067E+02  0.11067180459E+03  0.91622323804E+02 0.  0.
        -13    1    3    3    0    0 -0.35515882626E+02  0.39033058747E+00 -0.67630153792E+01  0.36156170341E+02  0.00000000000E+00 0. -1.
         13    1    3    3    0    0  0.50903839290E+02 -0.16674785958E+02  0.21301859310E+02  0.57645629074E+02  0.00000000000E+00 0.  1.
        -13    1    4    4    0    0 -0.42675846114E+02 -0.27686572953E+02 -0.47459518926E+02  0.69571402890E+02  0.00000000000E+00 0. -1.
         13    1    4    4    0    0  0.50612224968E+01  0.40787291269E+02 -0.15465314053E+00  0.41100401699E+02  0.00000000000E+00 0.  1.
         21    1    1    2  502  501  0.22226666952E+02  0.31837370538E+01 -0.53560169172E+02  0.58076265609E+02  0.00000000000E+00 0.  1.
<scales pt_clust_5="13000.00000" pt_clust_6="13000.00000" pt_clust_7="13000.00000" pt_clust_8="13000.00000" pt_clust_9="22.45353"></scales>
<clustering>
<clus scale="   22.454">  2  9  1 -1</clus>
<clus scale="   89.919">  5  6 -1 -1</clus>
<clus scale="   91.622">  7  8 -1 -1</clus>
<clus scale="   94.006">  1  5  2 -1</clus>
<clus scale="   22.454">  2  5  1 -1</clus>
</clustering>
</event>
<event>
 9    1  0.1234700E-005  0.1599825E+03  0.7546771E-02  0.1189606E+00
         -2   -1    0    0    0  501 -0.00000000000E+00  0.00000000000E+00  0.28775002799E+03  0.28775002799E+03  0.00000000000E+00 0.  1.
          2   -1    0    0  502    0  0.00000000000E+00 -0.00000000000E+00 -0.18632081487E+03  0.18632081487E+03  0.00000000000E+00 0. -1.
         23    2    1    2    0    0 -0.17130619718E+02  0.12988455012E+03  0.21777859190E+03  0.26993355867E+03  0.90956893710E+02 0.  0.
         23    2    1    2    0    0  0.18003196196E+02 -0.10880395634E+03 -0.10539128102E+03  0.18036266054E+03  0.96233836101E+02 0.  0.
        -11    1    3    3    0    0 -0.54544057908E+02  0.85013043825E+02  0.14150589835E+03  0.17385681218E+03  0.00000000000E+00 0.  1.
         11    1    3    3    0    0  0.37413438190E+02  0.44871506293E+02  0.76272693553E+02  0.96076746490E+02  0.00000000000E+00 0. -1.
        -13    1    4    4    0    0 -0.20965445560E+02 -0.82839169811E+02 -0.28025747284E+02  0.89929530597E+02  0.00000000000E+00 0.  1.
         13    1    4    4    0    0  0.38968641756E+02 -0.25964786534E+02 -0.77365533739E+02  0.90433129940E+02  0.00000000000E+00 0. -1.
         21    1    1    2  502  501 -0.87257647815E+00 -0.21080593774E+02 -0.10958097754E+02  0.23774623655E+02  0.00000000000E+00 0. -1.
<scales pt_clust_5="13000.00000" pt_clust_6="13000.00000" pt_clust_7="13000.00000" pt_clust_8="13000.00000" pt_clust_9="21.09865"></scales>
<clustering>
<clus scale="   21.099">  2  9  1 -1</clus>
<clus scale="   90.957">  5  6 -1 -1</clus>
<clus scale="   96.234">  7  8 -1 -1</clus>
<clus scale="  156.865">  1  5  2 -1</clus>
<clus scale="   21.099">  2  5  1 -1</clus>
</clustering>
</event>
<event>
 9    1  0.1234700E-005  0.9412451E+02  0.7546771E-02  0.1293539E+00
         -2   -1    0    0    0  501 -0.00000000000E+00  0.00000000000E+00  0.16678986148E+02  0.16678986148E+02  0.00000000000E+00 0.  1.
          2   -1    0    0  502    0  0.00000000000E+00 -0.00000000000E+00 -0.92437714201E+03  0.92437714201E+03  0.00000000000E+00 0. -1.
         23    2    1    2    0    0  0.31017773478E+02  0.51135442156E+01 -0.25920359951E+03  0.27640487169E+03  0.90691215076E+02 0.  0.
         23    2    1    2    0    0  0.14505460550E+01 -0.28148878341E+02 -0.32677528776E+03  0.34047829927E+03  0.91372425534E+02 0.  0.
        -11    1    3    3    0    0  0.55232414686E+02  0.18302824705E+02 -0.10770313185E+03  0.12241559392E+03  0.00000000000E+00 0.  1.
         11    1    3    3    0    0 -0.24214641208E+02 -0.13189280490E+02 -0.15150046766E+03  0.15398927778E+03  0.00000000000E+00 0. -1.
        -11    1    4    4    0    0  0.45377059234E+02 -0.43841527736E+01 -0.14858903234E+03  0.15542521942E+03  0.00000000000E+00 0.  1.
         11    1    4    4    0    0 -0.43926513179E+02 -0.23764725567E+02 -0.17818625542E+03  0.18505307985E+03  0.00000000000E+00 0. -1.
         21    1    1    2  502  501 -0.32468319533E+02  0.23035334125E+02 -0.32171926860E+03  0.32417295720E+03  0.00000000000E+00 0. -1.
<scales pt_clust_5="13000.00000" pt_clust_6="13000.00000" pt_clust_7="13000.00000" pt_clust_8="13000.00000" pt_clust_9="39.80978"></scales>
<clustering>
<clus scale="   39.810">  2  9  1 -1</clus>
<clus scale="   90.691">  5  6 -1 -1</clus>
<clus scale="   91.372">  7  8 -1 -1</clus>
<clus scale="   93.463">  1  5  2 -1</clus>
<clus scale="   39.810">  2  5  1 -1</clus>
</clustering>
</event>
<event>
 9    1  0.1234700E-005  0.1942187E+03  0.7546771E-02  0.1154782E+00
          2   -1    0    0  502    0  0.00000000000E+00  0.00000000000E+00  0.47968154589E+03  0.47968154589E+03  0.00000000000E+00 0. -1.
         -2   -1    0    0    0  501 -0.00000000000E+00 -0.00000000000E+00 -0.13690587365E+03  0.13690587365E+03  0.00000000000E+00 0.  1.
         23    2    1    2    0    0 -0.16642621081E+02 -0.15459362019E+03  0.55569083469E+02  0.18973874429E+03  0.93470336502E+02 0.  0.
         23    2    1    2    0    0  0.82304697910E+02  0.18144609152E+03  0.13246205856E+03  0.25661814573E+03  0.92789699510E+02 0.  0.
        -11    1    3    3    0    0 -0.38762027421E+02 -0.24368700696E+02 -0.15866307520E+01  0.45813161215E+02  0.00000000000E+00 0. -1.
         11    1    3    3    0    0  0.22119406340E+02 -0.13022491950E+03  0.57155714221E+02  0.14392558307E+03  0.00000000000E+00 0.  1.
        -11    1    4    4    0    0  0.83647784581E+02  0.12996129113E+03  0.55913975955E+02  0.16435711656E+03  0.00000000000E+00 0.  1.
         11    1    4    4    0    0 -0.13430866717E+01  0.51484800385E+02  0.76548082601E+02  0.92261029164E+02  0.00000000000E+00 0. -1.
         21    1    1    2  502  501 -0.65662076829E+02 -0.26852471323E+02  0.15474453021E+03  0.17023052952E+03  0.00000000000E+00 0. -1.
<scales pt_clust_5="13000.00000" pt_clust_6="13000.00000" pt_clust_7="13000.00000" pt_clust_8="13000.00000" pt_clust_9="70.94056"></scales>
<clustering>
<clus scale="   70.941">  1  9  2 -1</clus>
<clus scale="   92.790">  7  8 -1 -1</clus>
<clus scale="   93.470">  5  6 -1 -1</clus>
<clus scale="  193.892">  1  7  2 -1</clus>
<clus scale="   70.941">  1  5  2 -1</clus>
</clustering>
</event>
<event>
 9    1  0.1234700E-005  0.2023822E+03  0.7546771E-02  0.1147962E+00
         -2   -1    0    0    0  501 -0.00000000000E+00  0.00000000000E+00  0.15368976586E+03  0.15368976586E+03  0.00000000000E+00 0.  1.
          2   -1    0    0  502    0  0.00000000000E+00 -0.00000000000E+00 -0.75542490658E+03  0.75542490658E+03  0.00000000000E+00 0. -1.
         23    2    1    2    0    0 -0.15685526305E+03  0.11750215016E+03  0.25702910919E+02  0.21862836618E+03  0.93420522519E+02 0.  0.
         23    2    1    2    0    0  0.10860955589E+03 -0.87700795538E+02 -0.20488109614E+03  0.26414119999E+03  0.91141893834E+02 0.  0.
        -11    1    3    3    0    0 -0.67802601588E+02  0.44487743542E+01  0.30845278107E+02  0.74621816896E+02  0.00000000000E+00 0. -1.
         11    1    3    3    0    0 -0.89052661462E+02  0.11305337581E+03 -0.51423671879E+01  0.14400654928E+03  0.00000000000E+00 0.  1.
        -11    1    4    4    0    0  0.15710323707E+02 -0.58379550853E+02 -0.12232073809E+03  0.13644540739E+03  0.00000000000E+00 0.  1.
         11    1    4    4    0    0  0.92899232179E+02 -0.29321244685E+02 -0.82560358041E+02  0.12769579261E+03  0.00000000000E+00 0. -1.
         21    1    1    2  502  501  0.48245707165E+02 -0.29801354626E+02 -0.42255695550E+03  0.42634510627E+03  0.00000000000E+00 0. -1.
<scales pt_clust_5="13000.00000" pt_clust_6="13000.00000" pt_clust_7="13000.00000" pt_clust_8="13000.00000" pt_clust_9="56.70775"></scales>
<clustering>
<clus scale="   56.708">  2  9  1 -1</clus>
<clus scale="   91.142">  7  8 -1 -1</clus>
<clus scale="   93.421">  5  6 -1 -1</clus>
<clus scale="  201.341">  2  7  1 -1</clus>
<clus scale="   56.708">  2  5  1 -1</clus>
</clustering>
</event>
<event>
 9    1  0.1234700E-005  0.1399285E+03  0.7546771E-02  0.1213801E+00
         -1   -1    0    0    0  501 -0.00000000000E+00  0.00000000000E+00  0.33929138674E+03  0.33929138674E+03  0.00000000000E+00 0.  1.
          1   -1    0    0  502    0  0.00000000000E+00 -0.00000000000E+00 -0.23731364839E+03  0.23731364839E+03  0.00000000000E+00 0. -1.
         23    2    1    2    0    0 -0.56404103833E+02 -0.10198142057E+03  0.22933117799E+03  0.27328275776E+03  0.92244476358E+02 0.  0.
         23    2    1    2    0    0  0.27324530617E+02  0.78810008926E+02  0.41887971216E+02  0.13004449160E+03  0.90550097637E+02 0.  0.
        -11    1    4    4    0    0  0.59991617986E+02  0.57063201953E+02  0.20273251981E+02  0.85242055299E+02  0.00000000000E+00 0.  1.
         11    1    4    4    0    0 -0.32667087369E+02  0.21746806972E+02  0.21614719235E+02  0.44802436298E+02  0.00000000000E+00 0. -1.
        -13    1    3    3    0    0 -0.22822661001E+02 -0.10776546108E+03  0.19996648894E+03  0.22829994559E+03  0.00000000000E+00 0.  1.
         13    1    3    3    0    0 -0.33581442833E+02  0.57840405136E+01  0.29364689048E+02  0.44982812165E+02  0.00000000000E+00 0. -1.
         21    1    1    2  502  501  0.29079573216E+02  0.23171411645E+02 -0.16924141085E+03  0.17327778578E+03  0.00000000000E+00 0. -1.
<scales pt_clust_5="13000.00000" pt_clust_6="13000.00000" pt_clust_7="13000.00000" pt_clust_8="13000.00000" pt_clust_9="37.18247"></scales>
<clustering>
<clus scale="   37.182">  2  9  1 -1</clus>
<clus scale="   90.550">  5  6 -1 -1</clus>
<clus scale="   92.244">  7  8 -1 -1</clus>
<clus scale="  138.817">  2  5  1 -1</clus>
<clus scale="   37.182">  2  5  1 -1</clus>
</clustering>
</event>
<event>
 9    1  0.1234700E-005  0.1268972E+03  0.7546771E-02  0.1233533E+00
          2   -1    0    0  502    0  0.00000000000E+00  0.00000000000E+00  0.13810202040E+03  0.13810202040E+03  0.00000000000E+00 0. -1.
         -2   -1    0    0    0  501 -0.00000000000E+00 -0.00000000000E+00 -0.14852122001E+03  0.14852122001E+03  0.00000000000E+00 0.  1.
         23    2    1    2    0    0 -0.76088926545E+02  0.12629757556E+02 -0.17531505763E+02  0.12053006254E+03  0.90945625311E+02 0.  0.
         23    2    1    2    0    0  0.98659180730E+02  0.89804854505E+01  0.19391304490E+02  0.13251948613E+03  0.85855159734E+02 0.  0.
        -11    1    3    3    0    0 -0.12230384786E+02  0.30746885632E+02 -0.38643210441E+02  0.50874856277E+02  0.00000000000E+00 0.  1.
         11    1    3    3    0    0 -0.63858541759E+02 -0.18117128076E+02  0.21111704678E+02  0.69655206264E+02  0.00000000000E+00 0. -1.
        -13    1    4    4    0    0  0.71876923870E+02 -0.31805418863E+02  0.27060342288E+02  0.83127245707E+02  0.00000000000E+00 0. -1.
         13    1    4    4    0    0  0.26782256860E+02  0.40785904314E+02 -0.76690377983E+01  0.49392240422E+02  0.00000000000E+00 0.  1.
         21    1    1    2  502  501 -0.22570254185E+02 -0.21610243006E+02 -0.12278998341E+02  0.33573691740E+02  0.00000000000E+00 0.  1.
<scales pt_clust_5="13000.00000" pt_clust_6="13000.00000" pt_clust_7="13000.00000" pt_clust_8="13000.00000" pt_clust_9="31.24770"></scales>
<clustering>
<clus scale="   31.248">  2  9  1 -1</clus>
<clus scale="   85.855">  7  8 -1 -1</clus>
<clus scale="   90.946">  5  6 -1 -1</clus>
<clus scale="  123.300">  1  7  2 -1</clus>
<clus scale="  123.300">  1  5  2 -1</clus>
</clustering>
</event>
<event>
 9    1  0.1234700E-005  0.9772911E+02  0.7546771E-02  0.1287422E+00
         -4   -1    0    0    0  501 -0.00000000000E+00  0.00000000000E+00  0.21650660104E+03  0.21650660104E+03  0.00000000000E+00 0.  1.
          4   -1    0    0  502    0  0.00000000000E+00 -0.00000000000E+00 -0.22668758760E+03  0.22668758760E+03  0.00000000000E+00 0. -1.
         23    2    1    2    0    0 -0.20153883100E+02  0.14547768135E+02  0.10966149677E+03  0.14381114390E+03  0.89655923805E+02 0.  0.
         23    2    1    2    0    0  0.53129880251E+01 -0.36294891393E+02  0.60187852534E+02  0.11743769205E+03  0.93933417582E+02 0.  0.
        -11    1    3    3    0    0  0.15604070239E+02  0.22482441964E+02 -0.85791751184E+00  0.27380343809E+02  0.00000000000E+00 0. -1.
         11    1    3    3    0    0 -0.35757953339E+02 -0.79346738280E+01  0.11051941428E+03  0.11643080009E+03  0.00000000000E+00 0.  1.
        -11    1    4    4    0    0  0.36726289149E+02  0.12976862327E+02  0.95247159344E+01  0.40099120740E+02  0.00000000000E+00 0. -1.
         11    1    4    4    0    0 -0.31413301124E+02 -0.49271753721E+02  0.50663136600E+02  0.77338571311E+02  0.00000000000E+00 0.  1.
         21    1    1    2  502  501  0.14840895075E+02  0.21747123258E+02 -0.18003033587E+03  0.18194535270E+03  0.00000000000E+00 0. -1.
<scales pt_clust_5="13000.00000" pt_clust_6="13000.00000" pt_clust_7="13000.00000" pt_clust_8="13000.00000" pt_clust_9="26.32849"></scales>
<clustering>
<clus scale="   26.328">  2  9  1 -1</clus>
<clus scale="   89.656">  5  6 -1 -1</clus>
<clus scale="   93.625">  1  5  2 -1</clus>
<clus scale="   93.933">  7  8 -1 -1</clus>
<clus scale="   26.328">  2  5  1 -1</clus>
</clustering>
</event>
<event>
 9    1  0.1234700E-005  0.1242767E+03  0.7546771E-02  0.1236413E+00
          2   -1    0    0  502    0  0.00000000000E+00  0.00000000000E+00  0.60995839570E+03  0.60995839570E+03  0.00000000000E+00 0.  1.
         -2   -1    0    0    0  501 -0.00000000000E+00 -0.00000000000E+00 -0.39814476045E+02  0.39814476045E+02  0.00000000000E+00 0. -1.
         23    2    1    2    0    0  0.67916832928E+02 -0.52971543396E+02  0.12015962238E+03  0.17349071495E+03  0.90785531436E+02 0.  0.
         23    2    1    2    0    0 -0.50403613604E+02  0.64092970633E+02  0.28828515894E+03  0.31325758707E+03  0.91507102703E+02 0.  0.
        -11    1    3    3    0    0  0.17993399866E+02 -0.67369124980E+02  0.48342292912E+02  0.84848917043E+02  0.00000000000E+00 0. -1.
         11    1    3    3    0    0  0.49923433062E+02  0.14397581584E+02  0.71817329464E+02  0.88641797903E+02  0.00000000000E+00 0.  1.
        -11    1    4    4    0    0  0.18920075028E+02  0.40033477163E+02  0.15389992724E+03  0.16014317387E+03  0.00000000000E+00 0.  1.
         11    1    4    4    0    0 -0.69323688631E+02  0.24059493469E+02  0.13438523170E+03  0.15311441321E+03  0.00000000000E+00 0. -1.
         21    1    1    2  502  501 -0.17513219324E+02 -0.11121427237E+02  0.16169913834E+03  0.16302456972E+03  0.00000000000E+00 0.  1.
<scales pt_clust_5="13000.00000" pt_clust_6="13000.00000" pt_clust_7="13000.00000" pt_clust_8="13000.00000" pt_clust_9="20.74606"></scales>
<clustering>
<clus scale="   20.746">  1  9  2 -1</clus>
<clus scale="   90.786">  5  6 -1 -1</clus>
<clus scale="   91.507">  7  8 -1 -1</clus>
<clus scale="  123.746">  2  5  1 -1</clus>
<clus scale="   20.746">  1  5  2 -1</clus>
</clustering>
</event>
<event>
 9    1  0.1234700E-005  0.1449073E+03  0.7546771E-02  0.1207739E+00
          3   -1    0    0  502    0  0.00000000000E+00  0.00000000000E+00  0.28317609451E+03  0.28317609451E+03  0.00000000000E+00 0. -1.
         -3   -1    0    0    0  501 -0.00000000000E+00 -0.00000000000E+00 -0.13614168349E+03  0.13614168349E+03  0.00000000000E+00 0.  1.
         23    2    1    2    0    0 -0.10877095409E+03 -0.88330621370E+01 -0.38770541939E+02  0.14775364913E+03  0.91754250407E+02 0.  0.
         23    2    1    2    0    0  0.10055080987E+03  0.56290490019E+02  0.13937885986E+03  0.20466748954E+03  0.95829171290E+02 0.  0.
        -11    1    4    4    0    0  0.81975209169E+02  0.38087675407E+02  0.15115301804E+03  0.17611882579E+03  0.00000000000E+00 0. -1.
         11    1    4    4    0    0  0.18575600696E+02  0.18202814611E+02 -0.11774158184E+02  0.28548663750E+02  0.00000000000E+00 0.  1.
        -13    1    3    3    0    0 -0.52781793473E+02  0.14781924183E+02 -0.61949497355E+02  0.82717369562E+02  0.00000000000E+00 0.  1.
         13    1    3    3    0    0 -0.55989160618E+02 -0.23614986320E+02  0.23178955415E+02  0.65036279566E+02  0.00000000000E+00 0. -1.
         21    1    1    2  502  501  0.82201442248E+01 -0.47457427882E+02  0.46426093109E+02  0.66896639329E+02  0.00000000000E+00 0.  1.
<scales pt_clust_5="13000.00000" pt_clust_6="13000.00000" pt_clust_7="13000.00000" pt_clust_8="13000.00000" pt_clust_9="48.16408"></scales>
<clustering>
<clus scale="   48.164">  1  9  2 -1</clus>
<clus scale="   91.754">  7  8 -1 -1</clus>
<clus scale="   95.829">  5  6 -1 -1</clus>
<clus scale="  142.245">  2  7  1 -1</clus>
<clus scale="   48.164">  1  5  2 -1</clus>
</clustering>
</event>
<event>
 9    1  0.1234700E-005  0.9262109E+02  0.7546771E-02  0.1298137E+00
          3   -1    0    0  502    0  0.00000000000E+00  0.00000000000E+00  0.58137448508E+02  0.58137448508E+02  0.00000000000E+00 0. -1.
         -3   -1    0    0    0  501 -0.00000000000E+00 -0.00000000000E+00 -0.19647079051E+03  0.19647079051E+03  0.00000000000E+00 0.  1.
         23    2    1    2    0    0 -0.76212455095E+01 -0.16868368664E+02 -0.57793010187E+02  0.10634784136E+03  0.87333877107E+02 0.  0.
         23    2    1    2    0    0  0.31321339994E+02  0.32300312448E+01 -0.51374914975E+02  0.10828139985E+03  0.89966772892E+02 0.  0.
        -13    1    4    4    0    0 -0.20206343980E+02 -0.28229108312E+02 -0.22410736465E+02  0.41320939027E+02  0.00000000000E+00 0.  1.
         13    1    4    4    0    0  0.51527683974E+02  0.31459139557E+02 -0.28964178510E+02  0.66960460827E+02  0.00000000000E+00 0. -1.
        -13    1    3    3    0    0 -0.18568090716E+02 -0.42024456862E+02 -0.63448713925E+02  0.78336251290E+02  0.00000000000E+00 0.  1.
         13    1    3    3    0    0  0.10946845207E+02  0.25156088198E+02  0.56557037381E+01  0.28011590069E+02  0.00000000000E+00 0. -1.
         21    1    1    2  502  501 -0.23700094485E+02  0.13638337419E+02 -0.29165416842E+02  0.39978997808E+02  0.00000000000E+00 0.  1.
<scales pt_clust_5="13000.00000" pt_clust_6="13000.00000" pt_clust_7="13000.00000" pt_clust_8="13000.00000" pt_clust_9="27.34408"></scales>
<clustering>
<clus scale="   27.344">  2  9  1 -1</clus>
<clus scale="   87.334">  7  8 -1 -1</clus>
<clus scale="   89.967">  5  6 -1 -1</clus>
<clus scale="   90.066">  2  7  1 -1</clus>
<clus scale="   92.621">  1  5  2 -1</clus>
</clustering>
</event>
<event>
 9    1  0.1234700E-005  0.1135273E+03  0.7546771E-02  0.1254274E+00
         -2   -1    0    0    0  501 -0.00000000000E+00  0.00000000000E+00  0.74744131256E+02  0.74744131256E+02  0.00000000000E+00 0.  1.
          2   -1    0    0  502    0  0.00000000000E+00 -0.00000000000E+00 -0.53345015803E+03  0.53345015803E+03  0.00000000000E+00 0. -1.
         23    2    1    2    0    0  0.64997139339E+02  0.81854477934E+01  0.13796592466E+02  0.11335403266E+03  0.91472187455E+02 0.  0.
         23    2    1    2    0    0 -0.77193520507E+02 -0.26663894519E+02 -0.36191997485E+03  0.38206292758E+03  0.91193253906E+02 0.  0.
        -13    1    4    4    0    0 -0.29900978789E+02  0.32354252718E+02 -0.96545392053E+02  0.10612200021E+03  0.00000000000E+00 0.  1.
         13    1    4    4    0    0 -0.47292541717E+02 -0.59018147237E+02 -0.26537458280E+03  0.27594092738E+03  0.00000000000E+00 0. -1.
        -13    1    3    3    0    0  0.28570064739E+02  0.77495118954E+01 -0.39152171393E+02  0.49083562000E+02  0.00000000000E+00 0. -1.
         13    1    3    3    0    0  0.36427074600E+02  0.43593589803E+00  0.52948763860E+02  0.64270470655E+02  0.00000000000E+00 0.  1.
         21    1    1    2  502  501  0.12196381168E+02  0.18478446726E+02 -0.11058264439E+03  0.11277732904E+03  0.00000000000E+00 0. -1.
<scales pt_clust_5="13000.00000" pt_clust_6="13000.00000" pt_clust_7="13000.00000" pt_clust_8="13000.00000" pt_clust_9="22.14057"></scales>
<clustering>
<clus scale="   22.141">  2  9  1 -1</clus>
<clus scale="   91.193">  5  6 -1 -1</clus>
<clus scale="   91.472">  7  8 -1 -1</clus>
<clus scale="  113.303">  2  5  1 -1</clus>
<clus scale="   22.141">  2  5  1 -1</clus>
</clustering>
</event>
<event>
 9    1  0.1234700E-005  0.2061859E+03  0.7546771E-02  0.1144660E+00
         -1   -1    0    0    0  501 -0.00000000000E+00  0.00000000000E+00  0.13013876856E+04  0.13013876856E+04  0.00000000000E+00 0.  1.
          1   -1    0    0  502    0  0.00000000000E+00 -0.00000000000E+00 -0.47261526737E+02  0.47261526737E+02  0.00000000000E+00 0. -1.
         23    2    1    2    0    0 -0.12085477785E+03  0.12346461103E+03  0.72113875071E+03  0.74695920240E+03  0.89763939127E+02 0.  0.
         23    2    1    2    0    0  0.16220473009E+03 -0.14187069502E+03  0.43017303029E+03  0.48935391256E+03  0.89335027710E+02 0.  0.
        -11    1    4    4    0    0  0.12387974257E+02 -0.54408168756E+02  0.69497196755E+02  0.89126713674E+02  0.00000000000E+00 0.  1.
         11    1    4    4    0    0  0.14981675583E+03 -0.87462526268E+02  0.36067583353E+03  0.40022719888E+03  0.00000000000E+00 0. -1.
        -11    1    3    3    0    0 -0.12497231402E+03  0.84968926809E+02  0.63125418870E+03  0.64909140231E+03  0.00000000000E+00 0.  1.
         11    1    3    3    0    0  0.41175361686E+01  0.38495684219E+02  0.89884562008E+02  0.97867800092E+02  0.00000000000E+00 0. -1.
         21    1    1    2  502  501 -0.41349952238E+02  0.18406083997E+02  0.10281437782E+03  0.11233609734E+03  0.00000000000E+00 0.  1.
<scales pt_clust_5="13000.00000" pt_clust_6="13000.00000" pt_clust_7="13000.00000" pt_clust_8="13000.00000" pt_clust_9="45.26149"></scales>
<clustering>
<clus scale="   45.261">  2  9  1 -1</clus>
<clus scale="   89.335">  5  6 -1 -1</clus>
<clus scale="   89.764">  7  8 -1 -1</clus>
<clus scale="  206.000">  2  5  1 -1</clus>
<clus scale="   45.261">  2  5  1 -1</clus>
</clustering>
</event>
<event>
 9    1  0.1234700E-005  0.2263960E+03  0.7546771E-02  0.1129465E+00
          2   -1    0    0  502    0  0.00000000000E+00  0.00000000000E+00  0.19920644489E+03  0.19920644489E+03  0.00000000000E+00 0. -1.
         -2   -1    0    0    0  501 -0.00000000000E+00 -0.00000000000E+00 -0.29466314765E+03  0.29466314765E+03  0.00000000000E+00 0.  1.
         23    2    1    2    0    0 -0.20912955867E+03 -0.42114168535E+02 -0.98027671587E+02  0.25173095732E+03  0.90831024298E+02 0.  0.
         23    2    1    2    0    0  0.19428032960E+03  0.23431164229E+02 -0.42962385075E+01  0.21730493250E+03  0.94388082387E+02 0.  0.
        -13    1    3    3    0    0 -0.12425346700E+03 -0.65921500367E+02 -0.40145870605E+02  0.14627460203E+03  0.00000000000E+00 0. -1.
         13    1    3    3    0    0 -0.84876091678E+02  0.23807331832E+02 -0.57881800982E+02  0.10545635530E+03  0.00000000000E+00 0.  1.
        -13    1    4    4    0    0  0.79804264652E+02  0.12665233577E+02 -0.48360674570E+02  0.94169441132E+02  0.00000000000E+00 0.  1.
         13    1    4    4    0    0  0.11447606495E+03  0.10765930652E+02  0.44064436063E+02  0.12313549137E+03  0.00000000000E+00 0. -1.
         21    1    1    2  502  501  0.14849229075E+02  0.18683004306E+02  0.68672073320E+01  0.24833702715E+02  0.00000000000E+00 0. -1.
<scales pt_clust_5="13000.00000" pt_clust_6="13000.00000" pt_clust_7="13000.00000" pt_clust_8="13000.00000" pt_clust_9="23.86534"></scales>
<clustering>
<clus scale="   23.865">  1  9  2 -1</clus>
<clus scale="   90.831">  5  6 -1 -1</clus>
<clus scale="   94.388">  7  8 -1 -1</clus>
<clus scale="  224.936">  2  5  1 -1</clus>
<clus scale="   23.865">  1  5  2 -1</clus>
</clustering>
</event>
<event>
 9    1  0.1234700E-005  0.1438874E+03  0.7546771E-02  0.1209290E+00
          1   -1    0    0  502    0  0.00000000000E+00  0.00000000000E+00  0.72168884056E+02  0.72168884056E+02  0.00000000000E+00 0. -1.
         -1   -1    0    0    0  501 -0.00000000000E+00 -0.00000000000E+00 -0.67238233010E+03  0.67238233010E+03  0.00000000000E+00 0.  1.
         23    2    1    2    0    0  0.10983690308E+03 -0.46291390124E+02 -0.36985640879E+03  0.39841110137E+03  0.87923856245E+02 0.  0.
         23    2    1    2    0    0 -0.10596541239E+03 -0.21994560422E+02 -0.23775506044E+03  0.27734556191E+03  0.93170073720E+02 0.  0.
        -13    1    3    3    0    0  0.54790725272E+02 -0.64436636319E+02 -0.27016068058E+03  0.28309167597E+03  0.00000000000E+00 0.  1.
         13    1    3    3    0    0  0.55046177804E+02  0.18145246195E+02 -0.99695728210E+02  0.11531942540E+03  0.00000000000E+00 0. -1.
        -13    1    4    4    0    0 -0.10850903619E+03 -0.45102401068E+02 -0.21379817402E+03  0.24396331022E+03  0.00000000000E+00 0.  1.
         13    1    4    4    0    0  0.25436238038E+01  0.23107840646E+02 -0.23956886420E+02  0.33382251696E+02  0.00000000000E+00 0. -1.
         21    1    1    2  502  501 -0.38714906867E+01  0.68285950546E+02  0.73980231880E+01  0.68794550869E+02  0.00000000000E+00 0. -1.
<scales pt_clust_5="13000.00000" pt_clust_6="13000.00000" pt_clust_7="13000.00000" pt_clust_8="13000.00000" pt_clust_9="68.39561"></scales>
<clustering>
<clus scale="   68.396">  1  9  2 -1</clus>
<clus scale="   87.924">  5  6 -1 -1</clus>
<clus scale="   93.170">  7  8 -1 -1</clus>
<clus scale="  140.547">  2  5  1 -1</clus>
<clus scale="   68.396">  1  5  2 -1</clus>
</clustering>
</event>
<event>
 9    1  0.1234700E-005  0.1484542E+03  0.7546771E-02  0.1206847E+00
         -1   -1    0    0    0  501 -0.00000000000E+00  0.00000000000E+00  0.12084765623E+03  0.12084765623E+03  0.00000000000E+00 0.  1.
          1   -1    0    0  502    0  0.00000000000E+00 -0.00000000000E+00 -0.43391736642E+03  0.43391736642E+03  0.00000000000E+00 0. -1.
         23    2    1    2    0    0  0.78987016828E+02 -0.57197422537E+02  0.55075997086E+02  0.14491988927E+03  0.91966922738E+02 0.  0.
         23    2    1    2    0    0 -0.99544182357E+02  0.43829202126E+02 -0.31079002451E+03  0.34746740724E+03  0.11096448334E+03 0.  0.
        -11    1    3    3    0    0  0.43568998273E+02 -0.11647159372E+02 -0.20744583647E+02  0.49641229665E+02  0.00000000000E+00 0.  1.
         11    1    3    3    0    0  0.35418018554E+02 -0.45550263165E+02  0.75820580734E+02  0.95278659602E+02  0.00000000000E+00 0. -1.
        -13    1    4    4    0    0 -0.11114347897E+03  0.24229743292E+02 -0.30258320593E+03  0.32325926110E+03  0.00000000000E+00 0. -1.
         13    1    4    4    0    0  0.11599296608E+02  0.19599458834E+02 -0.82068185751E+01  0.24208146140E+02  0.00000000000E+00 0.  1.
         21    1    1    2  502  501  0.20557165530E+02  0.13368220411E+02 -0.57355682776E+02  0.62377726139E+02  0.00000000000E+00 0.  1.
<scales pt_clust_5="13000.00000" pt_clust_6="13000.00000" pt_clust_7="13000.00000" pt_clust_8="13000.00000" pt_clust_9="24.52155"></scales>
<clustering>
<clus scale="   24.522">  2  9  1 -1</clus>
<clus scale="   91.967">  5  6 -1 -1</clus>
<clus scale="  110.964">  7  8 -1 -1</clus>
<clus scale="  134.846">  1  5  2 -1</clus>
<clus scale="   24.522">  2  5  1 -1</clus>
</clustering>
</event>
<event>
 9    1  0.1234700E-005  0.1078153E+03  0.7546771E-02  0.1267008E+00
          1   -1    0    0  502    0  0.00000000000E+00  0.00000000000E+00  0.47908024419E+02  0.47908024419E+02  0.00000000000E+00 0. -1.
         -1   -1    0    0    0  501 -0.00000000000E+00 -0.00000000000E+00 -0.37570643367E+03  0.37570643367E+03  0.00000000000E+00 0.  1.
         23    2    1    2    0    0  0.14283640687E+02 -0.46962611699E+02 -0.24921236869E+03  0.26960065788E+03  0.90378098757E+02 0.  0.
         23    2    1    2    0    0 -0.89627252077E+00  0.62201533278E+02 -0.43864721813E+02  0.11380165860E+03  0.84598283865E+02 0.  0.
        -11    1    3    3    0    0  0.37524302526E+01 -0.73661883006E+02 -0.18952264694E+03  0.20336909166E+03  0.00000000000E+00 0.  1.
         11    1    3    3    0    0  0.10531210434E+02  0.26699271307E+02 -0.59689721747E+02  0.66231566219E+02  0.00000000000E+00 0. -1.
        -13    1    4    4    0    0  0.26548809400E+02  0.23585179967E+02 -0.54687016103E+02  0.65205595810E+02  0.00000000000E+00 0.  1.
         13    1    4    4    0    0 -0.27445081921E+02  0.38616353310E+02  0.10822294289E+02  0.48596062786E+02  0.00000000000E+00 0. -1.
         21    1    1    2  502  501 -0.13387368166E+02 -0.15238921578E+02 -0.34721318757E+02  0.40212141618E+02  0.00000000000E+00 0.  1.
<scales pt_clust_5="13000.00000" pt_clust_6="13000.00000" pt_clust_7="13000.00000" pt_clust_8="13000.00000" pt_clust_9="20.28414"></scales>
<clustering>
<clus scale="   20.284">  2  9  1 -1</clus>
<clus scale="   84.598">  7  8 -1 -1</clus>
<clus scale="   90.378">  5  6 -1 -1</clus>
<clus scale="  103.018">  1  7  2 -1</clus>
<clus scale="  103.018">  1  5  2 -1</clus>
</clustering>
</event>
<event>
 9    1  0.1234700E-005  0.9321347E+02  0.7546771E-02  0.1302664E+00
          1   -1    0    0  502    0  0.00000000000E+00  0.00000000000E+00  0.18998190680E+02  0.18998190680E+02  0.00000000000E+00 0. -1.
         -1   -1    0    0    0  501 -0.00000000000E+00 -0.00000000000E+00 -0.63114500636E+03  0.63114500636E+03  0.00000000000E+00 0.  1.
         23    2    1    2    0    0  0.10922467743E+02  0.42156468364E+00 -0.38926585127E+03  0.40008601768E+03  0.91768407183E+02 0.  0.
         23    2    1    2    0    0 -0.18685580788E+02  0.24476683434E+02 -0.18824212832E+03  0.20669777843E+03  0.79627971045E+02 0.  0.
        -11    1    3    3    0    0  0.44786586170E+02 -0.23698917671E+02 -0.20165744925E+03  0.20792595758E+03  0.00000000000E+00 0.  1.
         11    1    3    3    0    0 -0.33864118427E+02  0.24120482355E+02 -0.18760840203E+03  0.19216006010E+03  0.00000000000E+00 0. -1.
        -13    1    4    4    0    0 -0.42358216884E+02 -0.33792993395E+01 -0.61234398615E+02  0.74533816321E+02  0.00000000000E+00 0. -1.
         13    1    4    4    0    0  0.23672636096E+02  0.27855982774E+02 -0.12700772970E+03  0.13216396211E+03  0.00000000000E+00 0.  1.
         21    1    1    2  502  501  0.77631130449E+01 -0.24898248118E+02 -0.34638836088E+02  0.43359400930E+02  0.00000000000E+00 0. -1.
<scales pt_clust_5="13000.00000" pt_clust_6="13000.00000" pt_clust_7="13000.00000" pt_clust_8="13000.00000" pt_clust_9="26.08043"></scales>
<clustering>
<clus scale="   26.080">  1  9  2 -1</clus>
<clus scale="   79.628">  7  8 -1 -1</clus>
<clus scale="   81.289">  1  7  2 -1</clus>
<clus scale="   91.768">  5  6 -1 -1</clus>
<clus scale="   26.080">  1  5  2 -1</clus>
</clustering>
</event>
<event>
 9    1  0.1234700E-005  0.1023402E+03  0.7546771E-02  0.1277401E+00
         -1   -1    0    0    0  501 -0.00000000000E+00  0.00000000000E+00  0.43273451567E+03  0.43273451567E+03  0.00000000000E+00 0.  1.
          1   -1    0    0  502    0  0.00000000000E+00 -0.00000000000E+00 -0.93321089577E+02  0.93321089577E+02  0.00000000000E+00 0. -1.
         23    2    1    2    0    0 -0.37394796043E+02  0.10527766680E+02  0.36871702076E+03  0.38171123907E+03  0.90785593531E+02 0.  0.
         23    2    1    2    0    0  0.25442587647E+02 -0.31060617252E+02 -0.48461176404E+02  0.11382443537E+03  0.94844236825E+02 0.  0.
        -11    1    3    3    0    0 -0.58599111796E+02  0.33427282952E+02  0.24501326419E+03  0.25413134159E+03  0.00000000000E+00 0.  1.
         11    1    3    3    0    0  0.21204315753E+02 -0.22899516272E+02  0.12370375656E+03  0.12757989748E+03  0.00000000000E+00 0. -1.
        -13    1    4    4    0    0  0.46040500174E+02 -0.25686707366E+02  0.81460513794E+01  0.53346909420E+02  0.00000000000E+00 0.  1.
         13    1    4    4    0    0 -0.20597912527E+02 -0.53739098866E+01 -0.56607227784E+02  0.60477525952E+02  0.00000000000E+00 0. -1.
         21    1    1    2  502  501  0.11952208396E+02  0.20532850573E+02  0.19157581736E+02  0.30519930802E+02  0.00000000000E+00 0.  1.
<scales pt_clust_5="13000.00000" pt_clust_6="13000.00000" pt_clust_7="13000.00000" pt_clust_8="13000.00000" pt_clust_9="23.75822"></scales>
<clustering>
<clus scale="   23.758">  2  9  1 -1</clus>
<clus scale="   90.786">  5  6 -1 -1</clus>
<clus scale="   94.844">  7  8 -1 -1</clus>
<clus scale="   98.591">  1  5  2 -1</clus>
<clus scale="   23.758">  2  5  1 -1</clus>
</clustering>
</event>
<event>
 9    1  0.1234700E-005  0.1009695E+03  0.7546771E-02  0.1278880E+00
         -4   -1    0    0    0  501 -0.00000000000E+00  0.00000000000E+00  0.22531464680E+03  0.22531464680E+03  0.00000000000E+00 0.  1.
          4   -1    0    0  502    0  0.00000000000E+00 -0.00000000000E+00 -0.14128558474E+03  0.14128558474E+03  0.00000000000E+00 0. -1.
         23    2    1    2    0    0  0.62838168642E+02  0.14312938906E+02  0.13737776276E+03  0.17664380108E+03  0.90426141699E+02 0.  0.
         23    2    1    2    0    0  0.14979739367E+02  0.18726141616E+02 -0.11095608691E+02  0.95444360146E+02  0.91713970474E+02 0.  0.
        -11    1    4    4    0    0  0.37162923574E+02 -0.78256433541E+01  0.24981668332E+02  0.45457753300E+02  0.00000000000E+00 0.  1.
         11    1    4    4    0    0 -0.22183184206E+02  0.26551784970E+02 -0.36077277022E+02  0.49986606846E+02  0.00000000000E+00 0. -1.
        -13    1    3    3    0    0  0.56059424484E+02 -0.22433580670E+02  0.12221623800E+03  0.13631850002E+03  0.00000000000E+00 0.  1.
         13    1    3    3    0    0  0.67787441582E+01  0.36746519576E+02  0.15161524755E+02  0.40325301068E+02  0.00000000000E+00 0. -1.
         21    1    1    2  502  501 -0.77817908009E+02 -0.33039080522E+02 -0.42253092009E+02  0.94512070303E+02  0.00000000000E+00 0. -1.
<scales pt_clust_5="13000.00000" pt_clust_6="13000.00000" pt_clust_7="13000.00000" pt_clust_8="13000.00000" pt_clust_9="84.54116"></scales>
<clustering>
<clus scale="   84.541">  2  9  1 -1</clus>
<clus scale="   90.426">  7  8 -1 -1</clus>
<clus scale="   91.714">  5  6 -1 -1</clus>
<clus scale="   99.801">  1  7  2 -1</clus>
<clus scale="   84.541">  2  5  1 -1</clus>
</clustering>
</event>
<event>
 9    1  0.1234700E-005  0.1002526E+03  0.7546771E-02  0.1279832E+00
         -2   -1    0    0    0  501 -0.00000000000E+00  0.00000000000E+00  0.53177498571E+02  0.53177498571E+02  0.00000000000E+00 0.  1.
          2   -1    0    0  502    0  0.00000000000E+00 -0.00000000000E+00 -0.51886567600E+03  0.51886567600E+03  0.00000000000E+00 0. -1.
         23    2    1    2    0    0  0.30838850184E+02 -0.34907652014E+02 -0.16732390572E+02  0.10289280984E+03  0.90207419724E+02 0.  0.
         23    2    1    2    0    0  0.18209167905E+01  0.39911516204E+02 -0.27584162068E+03  0.29291128402E+03  0.90067617633E+02 0.  0.
        -11    1    3    3    0    0 -0.16899587235E+02  0.12190768988E+02 -0.27988238936E+02  0.34893443739E+02  0.00000000000E+00 0.  1.
         11    1    3    3    0    0  0.47738437420E+02 -0.47098421002E+02  0.11255848364E+02  0.67999366104E+02  0.00000000000E+00 0. -1.
        -11    1    4    4    0    0  0.12888679893E+02  0.66181163872E+02 -0.22166928624E+03  0.23169664862E+03  0.00000000000E+00 0. -1.
         11    1    4    4    0    0 -0.11067763103E+02 -0.26269647668E+02 -0.54172334435E+02  0.61214635398E+02  0.00000000000E+00 0.  1.
         21    1    1    2  502  501 -0.32659766975E+02 -0.50038641896E+01 -0.17311416618E+03  0.17623908071E+03  0.00000000000E+00 0.  1.
<scales pt_clust_5="13000.00000" pt_clust_6="13000.00000" pt_clust_7="13000.00000" pt_clust_8="13000.00000" pt_clust_9="33.04087"></scales>
<clustering>
<clus scale="   33.041">  2  9  1 -1</clus>
<clus scale="   90.068">  7  8 -1 -1</clus>
<clus scale="   90.207">  5  6 -1 -1</clus>
<clus scale="  100.127">  2  7  1 -1</clus>
<clus scale="   33.041">  2  5  1 -1</clus>
</clustering>
</event>
<event>
 9    1  0.1234700E-005  0.1848602E+03  0.7546771E-02  0.1163945E+00
         -1   -1    0    0    0  501 -0.00000000000E+00  0.00000000000E+00  0.18979318824E+03  0.18979318824E+03  0.00000000000E+00 0.  1.
          1   -1    0    0  502    0  0.00000000000E+00 -0.00000000000E+00 -0.41676584248E+03  0.41676584248E+03  0.00000000000E+00 0. -1.
         23    2    1    2    0    0 -0.64729613008E+02  0.14890679419E+03  0.10917692843E+03  0.21656587839E+03  0.92833301261E+02 0.  0.
         23    2    1    2    0    0  0.76679169906E+02 -0.12432757600E+03 -0.30064414699E+03  0.34518728396E+03  0.86199284447E+02 0.  0.
        -11    1    4    4    0    0  0.57785170141E+02 -0.52652893026E+02 -0.22948742330E+03  0.24243747748E+03  0.00000000000E+00 0. -1.
         11    1    4    4    0    0  0.18893999765E+02 -0.71674682977E+02 -0.71156723688E+02  0.10274980649E+03  0.00000000000E+00 0.  1.
        -11    1    3    3    0    0 -0.42495565267E+02  0.11271730322E+03  0.12274173640E+03  0.17197847937E+03  0.00000000000E+00 0.  1.
         11    1    3    3    0    0 -0.22234047741E+02  0.36189490972E+02 -0.13564807968E+02  0.44587399015E+02  0.00000000000E+00 0. -1.
         21    1    1    2  502  501 -0.11949556898E+02 -0.24579218187E+02 -0.35505435690E+02  0.44805868369E+02  0.00000000000E+00 0. -1.
<scales pt_clust_5="13000.00000" pt_clust_6="13000.00000" pt_clust_7="13000.00000" pt_clust_8="13000.00000" pt_clust_9="27.33002"></scales>
<clustering>
<clus scale="   27.330">  2  9  1 -1</clus>
<clus scale="   86.199">  5  6 -1 -1</clus>
<clus scale="   92.833">  7  8 -1 -1</clus>
<clus scale="  181.619">  2  5  1 -1</clus>
<clus scale="   27.330">  2  5  1 -1</clus>
</clustering>
</event>
<event>
 9    1  0.1234700E-005  0.9467948E+02  0.7546771E-02  0.1292051E+00
         -1   -1    0    0    0  501 -0.00000000000E+00  0.00000000000E+00  0.20973516242E+03  0.20973516242E+03  0.00000000000E+00 0.  1.
          1   -1    0    0  502    0  0.00000000000E+00 -0.00000000000E+00 -0.10461448133E+03  0.10461448133E+03  0.00000000000E+00 0. -1.
         23    2    1    2    0    0  0.20110374781E+01 -0.28039648293E+02  0.98833596202E+02  0.13670061982E+03  0.90159378732E+02 0.  0.
         23    2    1    2    0    0 -0.63733505358E+02  0.34027183683E+01 -0.17581267957E+01  0.11070601243E+03  0.90438885340E+02 0.  0.
        -11    1    3    3    0    0  0.43347055234E+02 -0.30543606319E+02  0.55124155123E+02  0.76488898296E+02  0.00000000000E+00 0. -1.
         11    1    3    3    0    0 -0.41336017756E+02  0.25039580259E+01  0.43709441079E+02  0.60211721526E+02  0.00000000000E+00 0.  1.
        -13    1    4    4    0    0 -0.39020525593E+02 -0.28668301612E+02  0.31959926015E+02  0.58016461507E+02  0.00000000000E+00 0.  1.
         13    1    4    4    0    0 -0.24712979765E+02  0.32071019980E+02 -0.33718052811E+02  0.52689550926E+02  0.00000000000E+00 0. -1.
         21    1    1    2  502  501  0.61722467880E+02  0.24636929925E+02  0.80452116781E+01  0.66943011497E+02  0.00000000000E+00 0. -1.
<scales pt_clust_5="13000.00000" pt_clust_6="13000.00000" pt_clust_7="13000.00000" pt_clust_8="13000.00000" pt_clust_9="66.45782"></scales>
<clustering>
<clus scale="   66.458">  2  9  1 -1</clus>
<clus scale="   90.159">  5  6 -1 -1</clus>
<clus scale="   90.439">  7  8 -1 -1</clus>
<clus scale="   94.413">  1  5  2 -1</clus>
<clus scale="   66.458">  2  5  1 -1</clus>
</clustering>
</event>
<event>
 9    1  0.1234700E-005  0.1244369E+03  0.7546771E-02  0.1237273E+00
          1   -1    0    0  502    0  0.00000000000E+00  0.00000000000E+00  0.33474896311E+03  0.33474896311E+03  0.00000000000E+00 0. -1.
         -1   -1    0    0    0  501 -0.00000000000E+00 -0.00000000000E+00 -0.11171590978E+03  0.11171590978E+03  0.00000000000E+00 0.  1.
         23    2    1    2    0    0  0.86118286888E+02 -0.89076508756E+01 -0.47774621016E+02  0.13240421484E+03  0.88049736596E+02 0.  0.
         23    2    1    2    0    0 -0.67527490869E+02 -0.27759016636E+02  0.20437276514E+03  0.23593473812E+03  0.92555110575E+02 0.  0.
        -13    1    4    4    0    0 -0.74458451959E+02  0.12475208806E+02  0.15013583277E+03  0.16804898150E+03  0.00000000000E+00 0. -1.
         13    1    4    4    0    0  0.69309610899E+01 -0.40234225442E+02  0.54236932369E+02  0.67885756616E+02  0.00000000000E+00 0.  1.
        -13    1    3    3    0    0  0.31119803704E+02  0.30308880074E+02 -0.48156850688E+02  0.64854858431E+02  0.00000000000E+00 0.  1.
         13    1    3    3    0    0  0.54998483184E+02 -0.39216530950E+02  0.38222967215E+00  0.67549356413E+02  0.00000000000E+00 0. -1.
         21    1    1    2  502  501 -0.18590796019E+02  0.36666667511E+02  0.66434909205E+02  0.78125919925E+02  0.00000000000E+00 0. -1.
<scales pt_clust_5="13000.00000" pt_clust_6="13000.00000" pt_clust_7="13000.00000" pt_clust_8="13000.00000" pt_clust_9="41.11037"></scales>
<clustering>
<clus scale="   41.110">  1  9  2 -1</clus>
<clus scale="   88.050">  7  8 -1 -1</clus>
<clus scale="   92.555">  5  6 -1 -1</clus>
<clus scale="  121.123">  2  7  1 -1</clus>
<clus scale="   41.110">  1  5  2 -1</clus>
</clustering>
</event>
<event>
 9    1  0.1234700E-005  0.1182532E+03  0.7546771E-02  0.1246486E+00
         -2   -1    0    0    0  501 -0.00000000000E+00  0.00000000000E+00  0.24746004899E+02  0.24746004899E+02  0.00000000000E+00 0.  1.
          2   -1    0    0  502    0  0.00000000000E+00 -0.00000000000E+00 -0.72576537854E+03  0.72576537854E+03  0.00000000000E+00 0. -1.
         23    2    1    2    0    0 -0.33132189428E+02 -0.66048157394E+02 -0.29458659761E+03  0.31726889363E+03  0.91750674679E+02 0.  0.
         23    2    1    2    0    0  0.66863587576E+01  0.73939589966E+02 -0.36024261932E+03  0.37943554560E+03  0.93192371646E+02 0.  0.
        -13    1    3    3    0    0  0.13020841198E+02 -0.56892018155E+02 -0.89456585577E+02  0.10681163204E+03  0.00000000000E+00 0.  1.
         13    1    3    3    0    0 -0.46153030626E+02 -0.91561392385E+01 -0.20513001203E+03  0.21045726159E+03  0.00000000000E+00 0. -1.
        -13    1    4    4    0    0  0.81393160877E+01 -0.21732443578E+02 -0.80733226260E+02  0.84002389207E+02  0.00000000000E+00 0.  1.
         13    1    4    4    0    0 -0.14529573301E+01  0.95672033544E+02 -0.27950939306E+03  0.29543315639E+03  0.00000000000E+00 0. -1.
         21    1    1    2  502  501  0.26445830671E+02 -0.78914325720E+01 -0.46190156715E+02  0.53806944210E+02  0.00000000000E+00 0.  1.
<scales pt_clust_5="13000.00000" pt_clust_6="13000.00000" pt_clust_7="13000.00000" pt_clust_8="13000.00000" pt_clust_9="27.59813"></scales>
<clustering>
<clus scale="   27.598">  1  9  2 -1</clus>
<clus scale="   91.751">  5  6 -1 -1</clus>
<clus scale="   93.192">  7  8 -1 -1</clus>
<clus scale="  117.120">  1  5  2 -1</clus>
<clus scale="  118.253">  2  5  1 -1</clus>
</clustering>
</event>
<event>
 9    1  0.1234700E-005  0.9489432E+02  0.7546771E-02  0.1292634E+00
         -2   -1    0    0    0  501 -0.00000000000E+00  0.00000000000E+00  0.47113533255E+02  0.47113533255E+02  0.00000000000E+00 0.  1.
          2   -1    0    0  502    0  0.00000000000E+00 -0.00000000000E+00 -0.38151919075E+03  0.38151919075E+03  0.00000000000E+00 0. -1.
         23    2    1    2    0    0 -0.99124227521E+01 -0.16623690955E+02 -0.38651104833E+02  0.10076651424E+03  0.91024058699E+02 0.  0.
         23    2    1    2    0    0  0.39332454015E+02  0.27938477702E+02 -0.16601802514E+03  0.19435542663E+03  0.88794407003E+02 0.  0.
        -13    1    3    3    0    0 -0.21619869071E+02  0.28807961243E+01  0.24997298913E+02  0.33175030941E+02  0.00000000000E+00 0.  1.
         13    1    3    3    0    0  0.11707446319E+02 -0.19504487079E+02 -0.63648403746E+02  0.67591483302E+02  0.00000000000E+00 0. -1.
        -13    1    4    4    0    0  0.64642329481E+02  0.90119335711E+01 -0.13560689251E+03  0.15049609630E+03  0.00000000000E+00 0.  1.
         13    1    4    4    0    0 -0.25309875466E+02  0.18926544131E+02 -0.30411132634E+02  0.43859330330E+02  0.00000000000E+00 0. -1.
         21    1    1    2  502  501 -0.29420031263E+02 -0.11314786747E+02 -0.12973652752E+03  0.13351078313E+03  0.00000000000E+00 0. -1.
<scales pt_clust_5="13000.00000" pt_clust_6="13000.00000" pt_clust_7="13000.00000" pt_clust_8="13000.00000" pt_clust_9="31.52083"></scales>
<clustering>
<clus scale="   31.521">  2  9  1 -1</clus>
<clus scale="   88.794">  7  8 -1 -1</clus>
<clus scale="   91.024">  5  6 -1 -1</clus>
<clus scale="   92.758">  2  7  1 -1</clus>
<clus scale="   31.521">  2  5  1 -1</clus>
</clustering>
</event>
<event>
 9    1  0.1234700E-005  0.1220936E+03  0.7546771E-02  0.1240083E+00
         -1   -1    0    0    0  501 -0.00000000000E+00  0.00000000000E+00  0.90707094532E+02  0.90707094532E+02  0.00000000000E+00 0.  1.
          1   -1    0    0  502    0  0.00000000000E+00 -0.00000000000E+00 -0.38907584818E+03  0.38907584818E+03  0.00000000000E+00 0. -1.
         23    2    1    2    0    0  0.26640410378E+02 -0.67270239759E+02  0.16726895240E+02  0.12163865269E+03  0.96338861221E+02 0.  0.
         23    2    1    2    0    0 -0.55112381116E+02  0.74887151711E+02 -0.29145070781E+03  0.32035866175E+03  0.95082580066E+02 0.  0.
        -11    1    4    4    0    0  0.27223866520E+02  0.16513071731E+02 -0.62290710880E+02  0.69956794583E+02  0.00000000000E+00 0.  1.
         11    1    4    4    0    0 -0.82336247637E+02  0.58374079981E+02 -0.22915999693E+03  0.25040186717E+03  0.00000000000E+00 0. -1.
        -11    1    3    3    0    0  0.43971870020E+02 -0.53985604737E+02 -0.25459006916E+02  0.74135901593E+02  0.00000000000E+00 0. -1.
         11    1    3    3    0    0 -0.17331459642E+02 -0.13284635022E+02  0.42185902156E+02  0.47502751096E+02  0.00000000000E+00 0.  1.
         21    1    1    2  502  501  0.28471970738E+02 -0.76169119528E+01 -0.23644941079E+02  0.37785628274E+02  0.00000000000E+00 0. -1.
<scales pt_clust_5="13000.00000" pt_clust_6="13000.00000" pt_clust_7="13000.00000" pt_clust_8="13000.00000" pt_clust_9="29.47322"></scales>
<clustering>
<clus scale="   29.473">  2  9  1 -1</clus>
<clus scale="   95.083">  5  6 -1 -1</clus>
<clus scale="   96.339">  7  8 -1 -1</clus>
<clus scale="  121.105">  2  5  1 -1</clus>
<clus scale="   29.473">  2  5  1 -1</clus>
</clustering>
</event>
<event>
 9    1  0.1234700E-005  0.1307237E+03  0.7546771E-02  0.1226431E+00
         -1   -1    0    0    0  501 -0.00000000000E+00  0.00000000000E+00  0.50948049526E+02  0.50948049526E+02  0.00000000000E+00 0.  1.
          1   -1    0    0  502    0  0.00000000000E+00 -0.00000000000E+00 -0.45547156902E+03  0.45547156902E+03  0.00000000000E+00 0. -1.
         23    2    1    2    0    0 -0.81298432212E+02 -0.18428576569E+02 -0.13027893790E+03  0.17930898109E+03  0.90719686533E+02 0.  0.
         23    2    1    2    0    0  0.10735827624E+03  0.14734977923E+02 -0.17733449271E+03  0.22668990519E+03  0.90542099369E+02 0.  0.
        -11    1    3    3    0    0 -0.71699913239E+02  0.16020251655E+02 -0.12229734889E+03  0.14266803274E+03  0.00000000000E+00 0. -1.
         11    1    3    3    0    0 -0.95985189727E+01 -0.34448828224E+02 -0.79815890075E+01  0.36640948344E+02  0.00000000000E+00 0.  1.
        -11    1    4    4    0    0  0.60782093315E+02  0.43421185660E+02 -0.14509606202E+03  0.16319537201E+03  0.00000000000E+00 0.  1.
         11    1    4    4    0    0  0.46576182924E+02 -0.28686207737E+02 -0.32238430690E+02  0.63494533178E+02  0.00000000000E+00 0. -1.
         21    1    1    2  502  501 -0.26059844027E+02  0.36935986452E+01 -0.96910088888E+02  0.10042073227E+03  0.00000000000E+00 0. -1.
<scales pt_clust_5="13000.00000" pt_clust_6="13000.00000" pt_clust_7="13000.00000" pt_clust_8="13000.00000" pt_clust_9="26.32030"></scales>
<clustering>
<clus scale="   26.320">  2  9  1 -1</clus>
<clus scale="   90.542">  7  8 -1 -1</clus>
<clus scale="   90.720">  5  6 -1 -1</clus>
<clus scale="  130.601">  2  7  1 -1</clus>
<clus scale="   26.320">  2  5  1 -1</clus>
</clustering>
</event>
<event>
 9    1  0.1234700E-005  0.1068475E+03  0.7546771E-02  0.1267233E+00
         -2   -1    0    0    0  501 -0.00000000000E+00  0.00000000000E+00  0.23503984390E+02  0.23503984390E+02  0.00000000000E+00 0.  1.
          2   -1    0    0  502    0  0.00000000000E+00 -0.00000000000E+00 -0.68094162405E+03  0.68094162405E+03  0.00000000000E+00 0. -1.
         23    2    1    2    0    0 -0.32405002273E+02  0.53521681449E+02 -0.20752041985E+03  0.23491316179E+03  0.90580430395E+02 0.  0.
         23    2    1    2    0    0  0.29405137705E+01 -0.44261980994E+02 -0.31940626007E+03  0.33541679228E+03  0.92283779653E+02 0.  0.
        -11    1    4    4    0    0 -0.17843746632E+02  0.21855518279E+02 -0.51848850746E+02  0.59028521045E+02  0.00000000000E+00 0.  1.
         11    1    4    4    0    0  0.20784260403E+02 -0.66117499273E+02 -0.26755740932E+03  0.27638827123E+03  0.00000000000E+00 0. -1.
        -13    1    3    3    0    0 -0.55536121545E+02  0.19574140350E+02 -0.16755409146E+03  0.17760006006E+03  0.00000000000E+00 0.  1.
         13    1    3    3    0    0  0.23131119272E+02  0.33947541099E+02 -0.39966328383E+02  0.57313101730E+02  0.00000000000E+00 0. -1.
         21    1    1    2  502  501  0.29464488503E+02 -0.92597004553E+01 -0.13051095975E+03  0.13411565438E+03  0.00000000000E+00 0. -1.
<scales pt_clust_5="13000.00000" pt_clust_6="13000.00000" pt_clust_7="13000.00000" pt_clust_8="13000.00000" pt_clust_9="30.88524"></scales>
<clustering>
<clus scale="   30.885">  2  9  1 -1</clus>
<clus scale="   90.580">  7  8 -1 -1</clus>
<clus scale="   92.284">  5  6 -1 -1</clus>
<clus scale="  105.380">  1  7  2 -1</clus>
<clus scale="   30.885">  2  5  1 -1</clus>
</clustering>
</event>
<event>
 9    1  0.1234700E-005  0.9562167E+02  0.7546771E-02  0.1292466E+00
          1   -1    0    0  502    0  0.00000000000E+00  0.00000000000E+00  0.23846751960E+03  0.23846751960E+03  0.00000000000E+00 0. -1.
         -1   -1    0    0    0  501 -0.00000000000E+00 -0.00000000000E+00 -0.46092826765E+02  0.46092826765E+02  0.00000000000E+00 0.  1.
         23    2    1    2    0    0  0.18182005753E+02  0.17939890201E+02  0.84789285840E+02  0.12925040218E+03  0.94148916488E+02 0.  0.
         23    2    1    2    0    0  0.27222395925E+01 -0.11892391808E+02  0.85252266280E+02  0.12412775561E+03  0.89391896925E+02 0.  0.
        -11    1    4    4    0    0 -0.25294273258E+02 -0.27400187249E+02  0.48764085463E+01  0.37607843347E+02  0.00000000000E+00 0.  1.
         11    1    4    4    0    0  0.28016512851E+02  0.15507795440E+02  0.80375857734E+02  0.86519912264E+02  0.00000000000E+00 0. -1.
        -11    1    3    3    0    0 -0.36444672342E+02  0.13187337804E+02  0.17710661601E+02  0.42612058796E+02  0.00000000000E+00 0.  1.
         11    1    3    3    0    0  0.54626678095E+02  0.47525523971E+01  0.67078624238E+02  0.86638343381E+02  0.00000000000E+00 0. -1.
         21    1    1    2  502  501 -0.20904245346E+02 -0.60474983922E+01  0.22333140713E+02  0.31182188576E+02  0.00000000000E+00 0.  1.
<scales pt_clust_5="13000.00000" pt_clust_6="13000.00000" pt_clust_7="13000.00000" pt_clust_8="13000.00000" pt_clust_9="21.76143"></scales>
<clustering>
<clus scale="   21.761">  1  9  2 -1</clus>
<clus scale="   89.392">  5  6 -1 -1</clus>
<clus scale="   90.942">  1  5  2 -1</clus>
<clus scale="   94.149">  7  8 -1 -1</clus>
<clus scale="   21.761">  1  5  2 -1</clus>
</clustering>
</event>
<event>
 9    1  0.1234700E-005  0.1034619E+03  0.7546771E-02  0.1274602E+00
         -1   -1    0    0    0  501 -0.00000000000E+00  0.00000000000E+00  0.44921109772E+03  0.44921109772E+03  0.00000000000E+00 0.  1.
          1   -1    0    0  502    0  0.00000000000E+00 -0.00000000000E+00 -0.35128434942E+02  0.35128434942E+02  0.00000000000E+00 0. -1.
         23    2    1    2    0    0 -0.26932334038E+02  0.26781389621E+02  0.26377050605E+03  0.28195351009E+03  0.92088590738E+02 0.  0.
         23    2    1    2    0    0  0.16710624005E+02 -0.45716489736E+02  0.14517639067E+03  0.18026369300E+03  0.95129239552E+02 0.  0.
        -11    1    3    3    0    0  0.19050368581E+02  0.43521772785E+02  0.94778097649E+02  0.10601862593E+03  0.00000000000E+00 0. -1.
         11    1    3    3    0    0 -0.45982702619E+02 -0.16740383165E+02  0.16899240841E+03  0.17593488417E+03  0.00000000000E+00 0.  1.
        -11    1    4    4    0    0  0.35517589082E+02 -0.26166122436E+02  0.13958555357E+02  0.46271009986E+02  0.00000000000E+00 0. -1.
         11    1    4    4    0    0 -0.18806965076E+02 -0.19550367300E+02  0.13121783531E+03  0.13399268301E+03  0.00000000000E+00 0.  1.
         21    1    1    2  502  501  0.10221710033E+02  0.18935100115E+02  0.51357660504E+01  0.22122329563E+02  0.00000000000E+00 0. -1.
<scales pt_clust_5="13000.00000" pt_clust_6="13000.00000" pt_clust_7="13000.00000" pt_clust_8="13000.00000" pt_clust_9="21.51793"></scales>
<clustering>
<clus scale="   21.518">  2  9  1 -1</clus>
<clus scale="   92.089">  5  6 -1 -1</clus>
<clus scale="   95.129">  7  8 -1 -1</clus>
<clus scale="  100.673">  1  5  2 -1</clus>
<clus scale="   21.518">  2  5  1 -1</clus>
</clustering>
</event>
<event>
 9    1  0.1234700E-005  0.1363854E+03  0.7546771E-02  0.1218692E+00
          1   -1    0    0  502    0  0.00000000000E+00  0.00000000000E+00  0.50856650983E+03  0.50856650983E+03  0.00000000000E+00 0. -1.
         -1   -1    0    0    0  501 -0.00000000000E+00 -0.00000000000E+00 -0.98866202817E+02  0.98866202817E+02  0.00000000000E+00 0.  1.
         23    2    1    2    0    0 -0.37438336307E+02  0.92163900776E+02 -0.12796289588E+02  0.13580163864E+03  0.91556137966E+02 0.  0.
         23    2    1    2    0    0 -0.10997801373E+02 -0.11843172461E+03  0.25555168018E+03  0.29582816413E+03  0.89780935733E+02 0.  0.
        -11    1    4    4    0    0  0.35556516278E+02 -0.23677190009E+02  0.60884522393E+02  0.74376073059E+02  0.00000000000E+00 0.  1.
         11    1    4    4    0    0 -0.46554317652E+02 -0.94754534597E+02  0.19466715779E+03  0.22145209107E+03  0.00000000000E+00 0. -1.
        -11    1    3    3    0    0 -0.56373105624E+02  0.21294175032E+02  0.45193141480E+01  0.60430068082E+02  0.00000000000E+00 0. -1.
         11    1    3    3    0    0  0.18934769317E+02  0.70869725744E+02 -0.17315603736E+02  0.75371570561E+02  0.00000000000E+00 0.  1.
         21    1    1    2  502  501  0.48436137680E+02  0.26267823831E+02  0.16694491641E+03  0.17580290987E+03  0.00000000000E+00 0.  1.
<scales pt_clust_5="13000.00000" pt_clust_6="13000.00000" pt_clust_7="13000.00000" pt_clust_8="13000.00000" pt_clust_9="55.10044"></scales>
<clustering>
<clus scale="   55.100">  1  9  2 -1</clus>
<clus scale="   89.781">  5  6 -1 -1</clus>
<clus scale="   91.556">  7  8 -1 -1</clus>
<clus scale="  135.200">  1  5  2 -1</clus>
<clus scale="   55.100">  1  5  2 -1</clus>
</clustering>
</event>
<event>
 9    1  0.1234700E-005  0.9141355E+02  0.7546771E-02  0.1299488E+00
          1   -1    0    0  502    0  0.00000000000E+00  0.00000000000E+00  0.17857840750E+03  0.17857840750E+03  0.00000000000E+00 0. -1.
         -1   -1    0    0    0  501 -0.00000000000E+00 -0.00000000000E+00 -0.10593921687E+03  0.10593921687E+03  0.00000000000E+00 0.  1.
         23    2    1    2    0    0  0.87919416565E+01 -0.11296822680E+02 -0.58345416957E+02  0.10862499932E+03  0.90500200869E+02 0.  0.
         23    2    1    2    0    0 -0.15113682868E+02 -0.10050781089E+02  0.11894403054E+03  0.15058136087E+03  0.90540721398E+02 0.  0.
        -11    1    3    3    0    0 -0.16589781853E+02  0.27665534217E+02  0.21419394192E+01  0.32329406891E+02  0.00000000000E+00 0. -1.
         11    1    3    3    0    0  0.25381723510E+02 -0.38962356897E+02 -0.60487356376E+02  0.76295592432E+02  0.00000000000E+00 0.  1.
        -13    1    4    4    0    0 -0.43670953910E+01 -0.49902120278E+02  0.75949820472E+02  0.90981692445E+02  0.00000000000E+00 0.  1.
         13    1    4    4    0    0 -0.10746587477E+02  0.39851339189E+02  0.42994210069E+02  0.59599668430E+02  0.00000000000E+00 0. -1.
         21    1    1    2  502  501  0.63217412113E+01  0.21347603770E+02  0.12040577041E+02  0.25311264175E+02  0.00000000000E+00 0.  1.
<scales pt_clust_5="13000.00000" pt_clust_6="13000.00000" pt_clust_7="13000.00000" pt_clust_8="13000.00000" pt_clust_9="22.26398"></scales>
<clustering>
<clus scale="   22.264">  1  9  2 -1</clus>
<clus scale="   90.500">  5  6 -1 -1</clus>
<clus scale="   90.541">  7  8 -1 -1</clus>
<clus scale="   91.373">  2  5  1 -1</clus>
<clus scale="   22.264">  1  5  2 -1</clus>
</clustering>
</event>
<event>
 9    1  0.1234700E-005  0.1032833E+03  0.7546771E-02  0.1276473E+00
         -2   -1    0    0    0  501 -0.00000000000E+00  0.00000000000E+00  0.56753283860E+02  0.56753283860E+02  0.00000000000E+00 0.  1.
          2   -1    0    0  502    0  0.00000000000E+00 -0.00000000000E+00 -0.30986002002E+03  0.30986002002E+03  0.00000000000E+00 0. -1.
         23    2    1    2    0    0 -0.44624410998E+02 -0.51907371771E+00 -0.16036276768E+02  0.10028660273E+03  0.88366469997E+02 0.  0.
         23    2    1    2    0    0  0.29055417259E+02  0.13260075431E+02 -0.21078356703E+03  0.23322492777E+03  0.94573293974E+02 0.  0.
        -11    1    4    4    0    0 -0.40554858721E+01  0.41174258035E+02 -0.41928846529E+02  0.58904962963E+02  0.00000000000E+00 0.  1.
         11    1    4    4    0    0  0.33110903131E+02 -0.27914182604E+02 -0.16885472050E+03  0.17431996481E+03  0.00000000000E+00 0. -1.
        -13    1    3    3    0    0  0.79175113357E+01  0.34453068314E+02 -0.81474783371E+00  0.35360496547E+02  0.00000000000E+00 0. -1.
         13    1    3    3    0    0 -0.52541922333E+02 -0.34972142032E+02 -0.15221528935E+02  0.64926106181E+02  0.00000000000E+00 0.  1.
         21    1    1    2  502  501  0.15568993738E+02 -0.12741001714E+02 -0.26286892361E+02  0.33101773377E+02  0.00000000000E+00 0. -1.
<scales pt_clust_5="13000.00000" pt_clust_6="13000.00000" pt_clust_7="13000.00000" pt_clust_8="13000.00000" pt_clust_9="20.11782"></scales>
<clustering>
<clus scale="   20.118">  2  9  1 -1</clus>
<clus scale="   88.366">  7  8 -1 -1</clus>
<clus scale="   94.573">  5  6 -1 -1</clus>
<clus scale="   97.632">  1  7  2 -1</clus>
<clus scale="   20.118">  2  5  1 -1</clus>
</clustering>
</event>
<event>
 9    1  0.1234700E-005  0.1010868E+03  0.7546771E-02  0.1279616E+00
          3   -1    0    0  502    0  0.00000000000E+00  0.00000000000E+00  0.28422384275E+03  0.28422384275E+03  0.00000000000E+00 0. -1.
         -3   -1    0    0    0  501 -0.00000000000E+00 -0.00000000000E+00 -0.10190544723E+03  0.10190544723E+03  0.00000000000E+00 0.  1.
         23    2    1    2    0    0  0.24761850606E+02 -0.32444948999E+02 -0.24757033249E+02  0.10369864934E+03  0.92057999205E+02 0.  0.
         23    2    1    2    0    0 -0.75827456068E+02 -0.19162638039E+02  0.11286656643E+03  0.16349221606E+03  0.88734621795E+02 0.  0.
        -11    1    3    3    0    0  0.51538513108E+02 -0.44966476138E+02 -0.28111814578E+02  0.73949147585E+02  0.00000000000E+00 0. -1.
         11    1    3    3    0    0 -0.26776662502E+02  0.12521527138E+02  0.33547813289E+01  0.29749501750E+02  0.00000000000E+00 0.  1.
        -13    1    4    4    0    0 -0.21018786904E+02  0.31747831156E+02  0.16494152844E+02  0.41494231696E+02  0.00000000000E+00 0.  1.
         13    1    4    4    0    0 -0.54808669164E+02 -0.50910469195E+02  0.96372413587E+02  0.12199798437E+03  0.00000000000E+00 0. -1.
         21    1    1    2  502  501  0.51065605462E+02  0.51607587038E+02  0.94208862336E+02  0.11893842459E+03  0.00000000000E+00 0. -1.
<scales pt_clust_5="13000.00000" pt_clust_6="13000.00000" pt_clust_7="13000.00000" pt_clust_8="13000.00000" pt_clust_9="72.60192"></scales>
<clustering>
<clus scale="   72.602">  1  9  2 -1</clus>
<clus scale="   88.735">  7  8 -1 -1</clus>
<clus scale="   92.058">  5  6 -1 -1</clus>
<clus scale="   98.070">  1  7  2 -1</clus>
<clus scale="   72.602">  1  5  2 -1</clus>
</clustering>
</event>
<event>
 9    1  0.1234700E-005  0.1145133E+03  0.7546771E-02  0.1252956E+00
         -1   -1    0    0    0  501 -0.00000000000E+00  0.00000000000E+00  0.12643636499E+03  0.12643636499E+03  0.00000000000E+00 0.  1.
          1   -1    0    0  502    0  0.00000000000E+00 -0.00000000000E+00 -0.16992311184E+03  0.16992311184E+03  0.00000000000E+00 0. -1.
         23    2    1    2    0    0 -0.17197113166E+02  0.63863672039E+02  0.46527320751E+02  0.12080856480E+03  0.89753041426E+02 0.  0.
         23    2    1    2    0    0 -0.38344981431E+01 -0.81287796316E+02 -0.81526754615E+02  0.14695085499E+03  0.91244357955E+02 0.  0.
        -11    1    3    3    0    0  0.31265454695E+02  0.15645936491E+02  0.38451620852E+02  0.51969713604E+02  0.00000000000E+00 0.  1.
         11    1    3    3    0    0 -0.48462567861E+02  0.48217735548E+02  0.80756998985E+01  0.68838851195E+02  0.00000000000E+00 0. -1.
        -11    1    4    4    0    0 -0.39812015891E+02 -0.14126967838E+02 -0.47322938575E+02  0.63435229526E+02  0.00000000000E+00 0. -1.
         11    1    4    4    0    0  0.35977517748E+02 -0.67160828478E+02 -0.34203816040E+02  0.83515625465E+02  0.00000000000E+00 0.  1.
         21    1    1    2  502  501  0.21031611309E+02  0.17424124277E+02 -0.84873129806E+01  0.28600057040E+02  0.00000000000E+00 0. -1.
<scales pt_clust_5="13000.00000" pt_clust_6="13000.00000" pt_clust_7="13000.00000" pt_clust_8="13000.00000" pt_clust_9="27.31170"></scales>
<clustering>
<clus scale="   27.312">  2  9  1 -1</clus>
<clus scale="   89.753">  5  6 -1 -1</clus>
<clus scale="   91.244">  7  8 -1 -1</clus>
<clus scale="  113.329">  1  5  2 -1</clus>
<clus scale="   27.312">  2  5  1 -1</clus>
</clustering>
</event>
<event>
 9    1  0.1234700E-005  0.9807952E+02  0.7546771E-02  0.1284559E+00
         -1   -1    0    0    0  501 -0.00000000000E+00  0.00000000000E+00  0.50364152461E+02  0.50364152461E+02  0.00000000000E+00 0.  1.
          1   -1    0    0  502    0  0.00000000000E+00 -0.00000000000E+00 -0.47229427422E+03  0.47229427422E+03  0.00000000000E+00 0. -1.
         23    2    1    2    0    0  0.51902496531E+02  0.18209345881E+02 -0.47912520070E+02  0.11611421856E+03  0.90340759063E+02 0.  0.
         23    2    1    2    0    0  0.36756497666E+01  0.18096798817E+02 -0.20328252992E+03  0.22335706005E+03  0.90683983001E+02 0.  0.
        -11    1    3    3    0    0 -0.16720357394E+02  0.26067384423E+02 -0.33374532717E+02  0.45529532351E+02  0.00000000000E+00 0.  1.
         11    1    3    3    0    0  0.68622853925E+02 -0.78580385413E+01 -0.14537987353E+02  0.70584686206E+02  0.00000000000E+00 0. -1.
        -13    1    4    4    0    0  0.12467521057E+02 -0.34241498410E+02 -0.11186863872E+03  0.11765420359E+03  0.00000000000E+00 0. -1.
         13    1    4    4    0    0 -0.87918712902E+01  0.52338297227E+02 -0.91413891207E+02  0.10570285646E+03  0.00000000000E+00 0.  1.
         21    1    1    2  502  501 -0.55578146298E+02 -0.36306144698E+02 -0.17073507177E+03  0.18318714808E+03  0.00000000000E+00 0.  1.
<scales pt_clust_5="13000.00000" pt_clust_6="13000.00000" pt_clust_7="13000.00000" pt_clust_8="13000.00000" pt_clust_9="66.38574"></scales>
<clustering>
<clus scale="   66.386">  2  9  1 -1</clus>
<clus scale="   90.341">  5  6 -1 -1</clus>
<clus scale="   90.684">  7  8 -1 -1</clus>
<clus scale="   97.762">  1  5  2 -1</clus>
<clus scale="   66.386">  2  5  1 -1</clus>
</clustering>
</event>
<event>
 9    1  0.1234700E-005  0.9358700E+02  0.7546771E-02  0.1317015E+00
         -1   -1    0    0    0  501 -0.00000000000E+00  0.00000000000E+00  0.21442126431E+02  0.21442126431E+02  0.00000000000E+00 0.  1.
          1   -1    0    0  502    0  0.00000000000E+00 -0.00000000000E+00 -0.57212735088E+03  0.57212735088E+03  0.00000000000E+00 0. -1.
         23    2    1    2    0    0 -0.50880127282E+00  0.79940168971E+01 -0.50194578157E+02  0.79916148707E+02  0.61667916804E+02 0.  0.
         23    2    1    2    0    0  0.58551498737E+01  0.12219937336E+02 -0.39704740760E+03  0.40811806899E+03  0.93435029361E+02 0.  0.
        -11    1    3    3    0    0 -0.29084520732E+02  0.14270098036E+02 -0.21142428991E+02  0.38685234235E+02  0.00000000000E+00 0.  1.
         11    1    3    3    0    0  0.28575719459E+02 -0.62760811386E+01 -0.29052149165E+02  0.41230914472E+02  0.00000000000E+00 0. -1.
        -11    1    4    4    0    0  0.49143130592E+02 -0.32200144755E+00 -0.19381299541E+03  0.19994656326E+03  0.00000000000E+00 0. -1.
         11    1    4    4    0    0 -0.43287980718E+02  0.12541938784E+02 -0.20323441219E+03  0.20817150574E+03  0.00000000000E+00 0.  1.
         21    1    1    2  502  501 -0.53463486009E+01 -0.20213954234E+02 -0.10344323869E+03  0.10553525961E+03  0.00000000000E+00 0. -1.
<scales pt_clust_5="13000.00000" pt_clust_6="13000.00000" pt_clust_7="13000.00000" pt_clust_8="13000.00000" pt_clust_9="20.90903"></scales>
<clustering>
<clus scale="   20.909">  2  9  1 -1</clus>
<clus scale="   61.668">  5  6 -1 -1</clus>
<clus scale="   61.898">  1  5  2 -1</clus>
<clus scale="   93.435">  7  8 -1 -1</clus>
<clus scale="   20.909">  2  5  1 -1</clus>
</clustering>
</event>
<event>
 9    1  0.1234700E-005  0.2347988E+03  0.7546771E-02  0.1123344E+00
         -1   -1    0    0    0  501 -0.00000000000E+00  0.00000000000E+00  0.54829132094E+03  0.54829132094E+03  0.00000000000E+00 0.  1.
          1   -1    0    0  502    0  0.00000000000E+00 -0.00000000000E+00 -0.22893201026E+03  0.22893201026E+03  0.00000000000E+00 0. -1.
         23    2    1    2    0    0  0.16639393267E+03 -0.13565083822E+03  0.30700316009E+03  0.38527740742E+03  0.89998053425E+02 0.  0.
         23    2    1    2    0    0 -0.14049986675E+03  0.17362326375E+03  0.12412361293E+03  0.27109736820E+03  0.90564129138E+02 0.  0.
        -11    1    4    4    0    0 -0.85272402602E+02  0.71377590162E+02  0.10572844295E+03  0.15344264946E+03  0.00000000000E+00 0. -1.
         11    1    4    4    0    0 -0.55227464146E+02  0.10224567359E+03  0.18395169972E+02  0.11765471874E+03  0.00000000000E+00 0.  1.
        -11    1    3    3    0    0  0.27677927514E+02 -0.97446131062E+01  0.48196127113E+01  0.29736405680E+02  0.00000000000E+00 0.  1.
         11    1    3    3    0    0  0.13871600516E+03 -0.12590622511E+03  0.30218354738E+03  0.35554100174E+03  0.00000000000E+00 0. -1.
         21    1    1    2  502  501 -0.25894065926E+02 -0.37972425537E+02 -0.11176746233E+03  0.12084855558E+03  0.00000000000E+00 0. -1.
<scales pt_clust_5="13000.00000" pt_clust_6="13000.00000" pt_clust_7="13000.00000" pt_clust_8="13000.00000" pt_clust_9="45.96094"></scales>
<clustering>
<clus scale="   45.961">  2  9  1 -1</clus>
<clus scale="   89.998">  7  8 -1 -1</clus>
<clus scale="   90.564">  5  6 -1 -1</clus>
<clus scale="  234.581">  1  7  2 -1</clus>
<clus scale="   45.961">  2  5  1 -1</clus>
</clustering>
</event>
<event>
 9    1  0.1234700E-005  0.1198694E+03  0.7546771E-02  0.1243917E+00
         -2   -1    0    0    0  501 -0.00000000000E+00  0.00000000000E+00  0.35760594287E+02  0.35760594287E+02  0.00000000000E+00 0.  1.
          2   -1    0    0  502    0  0.00000000000E+00 -0.00000000000E+00 -0.61797523569E+03  0.61797523569E+03  0.00000000000E+00 0. -1.
         23    2    1    2    0    0  0.86902236216E+02 -0.42357701725E+01 -0.12665556148E+03  0.17741146785E+03  0.88675009227E+02 0.  0.
         23    2    1    2    0    0 -0.66084619117E+02 -0.15291687794E+02 -0.34476521152E+03  0.36191292882E+03  0.86700082891E+02 0.  0.
        -11    1    3    3    0    0  0.28444523315E+02  0.24500899192E+02 -0.10038353478E+03  0.10717387285E+03  0.00000000000E+00 0. -1.
         11    1    3    3    0    0  0.58457712901E+02 -0.28736669364E+02 -0.26272026707E+02  0.70237594997E+02  0.00000000000E+00 0.  1.
        -13    1    4    4    0    0 -0.85267130170E+02 -0.23236776477E+02 -0.25871562425E+03  0.27339386515E+03  0.00000000000E+00 0. -1.
         13    1    4    4    0    0  0.19182511052E+02  0.79450886830E+01 -0.86049587263E+02  0.88519063667E+02  0.00000000000E+00 0.  1.
         21    1    1    2  502  501 -0.20817617099E+02  0.19527457967E+02 -0.11079386841E+03  0.11441143331E+03  0.00000000000E+00 0. -1.
<scales pt_clust_5="13000.00000" pt_clust_6="13000.00000" pt_clust_7="13000.00000" pt_clust_8="13000.00000" pt_clust_9="28.54286"></scales>
<clustering>
<clus scale="   28.543">  2  9  1 -1</clus>
<clus scale="   86.700">  7  8 -1 -1</clus>
<clus scale="   88.675">  5  6 -1 -1</clus>
<clus scale="  118.416">  2  7  1 -1</clus>
<clus scale="   28.543">  2  5  1 -1</clus>
</clustering>
</event>
<event>
 9    1  0.1234700E-005  0.1656114E+03  0.7546771E-02  0.1182560E+00
          1   -1    0    0  502    0  0.00000000000E+00  0.00000000000E+00  0.35707389636E+03  0.35707389636E+03  0.00000000000E+00 0. -1.
         -1   -1    0    0    0  501 -0.00000000000E+00 -0.00000000000E+00 -0.19648318174E+03  0.19648318174E+03  0.00000000000E+00 0.  1.
         23    2    1    2    0    0  0.10176512749E+03  0.98816566293E+02 -0.12827838924E+03  0.21135311082E+03  0.89966312366E+02 0.  0.
         23    2    1    2    0    0 -0.88238824560E+02 -0.77168035067E+02  0.27698675280E+03  0.31404708461E+03  0.90348847960E+02 0.  0.
        -13    1    4    4    0    0 -0.99492973757E+02 -0.37006576608E+02  0.20486130449E+03  0.23073034612E+03  0.00000000000E+00 0.  1.
         13    1    4    4    0    0  0.11254149196E+02 -0.40161458459E+02  0.72125448309E+02  0.83316738495E+02  0.00000000000E+00 0. -1.
        -13    1    3    3    0    0 -0.38196521876E+01  0.39370234177E+02 -0.74804712376E+01  0.40256211098E+02  0.00000000000E+00 0. -1.
         13    1    3    3    0    0  0.10558477967E+03  0.59446332115E+02 -0.12079791800E+03  0.17109689972E+03  0.00000000000E+00 0.  1.
         21    1    1    2  502  501 -0.13526302925E+02 -0.21648531226E+02  0.11882351060E+02  0.28156882672E+02  0.00000000000E+00 0.  1.
<scales pt_clust_5="13000.00000" pt_clust_6="13000.00000" pt_clust_7="13000.00000" pt_clust_8="13000.00000" pt_clust_9="25.52684"></scales>
<clustering>
<clus scale="   25.527">  1  9  2 -1</clus>
<clus scale="   89.966">  7  8 -1 -1</clus>
<clus scale="   90.349">  5  6 -1 -1</clus>
<clus scale="  165.403">  2  7  1 -1</clus>
<clus scale="   25.527">  1  5  2 -1</clus>
</clustering>
</event>
<event>
 9    1  0.1234700E-005  0.1005622E+03  0.7546771E-02  0.1283426E+00
          2   -1    0    0  502    0  0.00000000000E+00  0.00000000000E+00  0.31242035674E+03  0.31242035674E+03  0.00000000000E+00 0. -1.
         -2   -1    0    0    0  501 -0.00000000000E+00 -0.00000000000E+00 -0.52366448103E+02  0.52366448103E+02  0.00000000000E+00 0.  1.
         23    2    1    2    0    0  0.12573527034E+02  0.36191594581E+02  0.28948226461E+02  0.98433492872E+02  0.85925709793E+02 0.  0.
         23    2    1    2    0    0  0.17265547118E+02 -0.29452006357E+02  0.15907701079E+03  0.18809782081E+03  0.94391604685E+02 0.  0.
        -11    1    3    3    0    0  0.17348740755E+02 -0.19743550443E+02  0.32954712114E+02  0.42152101257E+02  0.00000000000E+00 0. -1.
         11    1    3    3    0    0 -0.47752137206E+01  0.55935145024E+02 -0.40064856521E+01  0.56281391616E+02  0.00000000000E+00 0.  1.
        -13    1    4    4    0    0  0.20032160037E+02  0.32433125645E+02  0.53564486989E+02  0.65744576516E+02  0.00000000000E+00 0.  1.
         13    1    4    4    0    0 -0.27666129183E+01 -0.61885132002E+02  0.10551252380E+03  0.12235324429E+03  0.00000000000E+00 0. -1.
         21    1    1    2  502  501 -0.29839074152E+02 -0.67395882237E+01  0.72028671385E+02  0.78255491163E+02  0.00000000000E+00 0.  1.
<scales pt_clust_5="13000.00000" pt_clust_6="13000.00000" pt_clust_7="13000.00000" pt_clust_8="13000.00000" pt_clust_9="30.59072"></scales>
<clustering>
<clus scale="   30.591">  1  9  2 -1</clus>
<clus scale="   85.926">  5  6 -1 -1</clus>
<clus scale="   92.662">  2  5  1 -1</clus>
<clus scale="   94.392">  7  8 -1 -1</clus>
<clus scale="   30.591">  1  5  2 -1</clus>
</clustering>
</event>
<event>
 9    1  0.1234700E-005  0.1238133E+03  0.7546771E-02  0.1243185E+00
         -2   -1    0    0    0  501 -0.00000000000E+00  0.00000000000E+00  0.83146064377E+02  0.83146064377E+02  0.00000000000E+00 0.  1.
          2   -1    0    0  502    0  0.00000000000E+00 -0.00000000000E+00 -0.39420545916E+03  0.39420545916E+03  0.00000000000E+00 0. -1.
         23    2    1    2    0    0  0.21866256838E+02  0.25270940273E+02  0.13356690899E+01  0.12453746240E+03  0.11996266886E+03 0.  0.
         23    2    1    2    0    0  0.25114179841E+02 -0.39344434113E+02 -0.20829768888E+03  0.23774239590E+03  0.10466524300E+03 0.  0.
        -11    1    3    3    0    0  0.61829832235E+02  0.21938535605E+02 -0.31434613404E+02  0.72748624857E+02  0.00000000000E+00 0.  1.
         11    1    3    3    0    0 -0.39963575397E+02  0.33324046686E+01  0.32770282494E+02  0.51788837544E+02  0.00000000000E+00 0. -1.
        -13    1    4    4    0    0 -0.34468172097E+02 -0.33762696140E+02 -0.13349972492E+03  0.14195122786E+03  0.00000000000E+00 0. -1.
         13    1    4    4    0    0  0.59582351939E+02 -0.55817379729E+01 -0.74797963959E+02  0.95791168036E+02  0.00000000000E+00 0.  1.
         21    1    1    2  502  501 -0.46980436680E+02  0.14073493840E+02 -0.10409737500E+03  0.11507166524E+03  0.00000000000E+00 0. -1.
<scales pt_clust_5="13000.00000" pt_clust_6="13000.00000" pt_clust_7="13000.00000" pt_clust_8="13000.00000" pt_clust_9="49.04309"></scales>
<clustering>
<clus scale="   49.043">  2  9  1 -1</clus>
<clus scale="  104.665">  7  8 -1 -1</clus>
<clus scale="  109.057">  2  7  1 -1</clus>
<clus scale="  119.963">  5  6 -1 -1</clus>
<clus scale="   49.043">  2  5  1 -1</clus>
</clustering>
</event>
<event>
 9    1  0.1234700E-005  0.1222071E+03  0.7546771E-02  0.1262283E+00
         -2   -1    0    0    0  501 -0.00000000000E+00  0.00000000000E+00  0.15925895106E+02  0.15925895106E+02  0.00000000000E+00 0.  1.
          2   -1    0    0  502    0  0.00000000000E+00 -0.00000000000E+00 -0.85280943007E+03  0.85280943007E+03  0.00000000000E+00 0. -1.
         23    2    1    2    0    0 -0.17039607845E+02 -0.22020447318E+02 -0.32329340732E+03  0.34546796472E+03  0.11855057610E+03 0.  0.
         23    2    1    2    0    0  0.17909582378E+01  0.35184904554E+02 -0.42157615495E+03  0.42907396674E+03  0.71671678307E+02 0.  0.
        -13    1    3    3    0    0  0.43385585716E+02 -0.39419391876E+02 -0.16764087802E+03  0.17759409193E+03  0.00000000000E+00 0.  1.
         13    1    3    3    0    0 -0.60425193561E+02  0.17398944558E+02 -0.15565252930E+03  0.16787387279E+03  0.00000000000E+00 0. -1.
        -13    1    4    4    0    0 -0.34272813256E+02  0.12561184574E+02 -0.16495389317E+03  0.16894435758E+03  0.00000000000E+00 0. -1.
         13    1    4    4    0    0  0.36063771494E+02  0.22623719980E+02 -0.25662226179E+03  0.26012960917E+03  0.00000000000E+00 0.  1.
         21    1    1    2  502  501  0.15248649607E+02 -0.13164457236E+02 -0.92013972683E+02  0.94193393708E+02  0.00000000000E+00 0.  1.
<scales pt_clust_5="13000.00000" pt_clust_6="13000.00000" pt_clust_7="13000.00000" pt_clust_8="13000.00000" pt_clust_9="20.14508"></scales>
<clustering>
<clus scale="   20.145">  2  9  1 -1</clus>
<clus scale="   71.672">  7  8 -1 -1</clus>
<clus scale="   77.570">  2  7  1 -1</clus>
<clus scale="  118.551">  5  6 -1 -1</clus>
<clus scale="   20.145">  2  5  1 -1</clus>
</clustering>
</event>
<event>
 9    1  0.1234700E-005  0.1095799E+03  0.7546771E-02  0.1261434E+00
          3   -1    0    0  502    0  0.00000000000E+00  0.00000000000E+00  0.17829817573E+03  0.17829817573E+03  0.00000000000E+00 0. -1.
         -3   -1    0    0    0  501 -0.00000000000E+00 -0.00000000000E+00 -0.13377118154E+03  0.13377118154E+03  0.00000000000E+00 0.  1.
         23    2    1    2    0    0  0.33368141135E+02  0.37175928770E+02 -0.57310460127E+02  0.12038154728E+03  0.93336732115E+02 0.  0.
         23    2    1    2    0    0 -0.44410938825E+02 -0.71921285483E+02  0.75190078493E+02  0.14652957893E+03  0.93125543249E+02 0.  0.
        -13    1    4    4    0    0  0.18428521899E+02 -0.21565994825E+02  0.57450974966E+02  0.64072748316E+02  0.00000000000E+00 0. -1.
         13    1    4    4    0    0 -0.62839460724E+02 -0.50355290658E+02  0.17739103527E+02  0.82456830616E+02  0.00000000000E+00 0.  1.
        -13    1    3    3    0    0 -0.23736916990E+02  0.40021768317E+02 -0.13806199747E+02  0.48536525616E+02  0.00000000000E+00 0.  1.
         13    1    3    3    0    0  0.57105058125E+02 -0.28458395464E+01 -0.43504260380E+02  0.71845021661E+02  0.00000000000E+00 0. -1.
         21    1    1    2  502  501  0.11042797690E+02  0.34745356713E+02  0.26647375831E+02  0.45158231061E+02  0.00000000000E+00 0.  1.
<scales pt_clust_5="13000.00000" pt_clust_6="13000.00000" pt_clust_7="13000.00000" pt_clust_8="13000.00000" pt_clust_9="36.45796"></scales>
<clustering>
<clus scale="   36.458">  1  9  2 -1</clus>
<clus scale="   93.126">  5  6 -1 -1</clus>
<clus scale="   93.337">  7  8 -1 -1</clus>
<clus scale="  109.400">  1  5  2 -1</clus>
<clus scale="   36.458">  1  5  2 -1</clus>
</clustering>
</event>
<event>
 9    1  0.1234700E-005  0.1008727E+03  0.7546771E-02  0.1279501E+00
          1   -1    0    0  502    0  0.00000000000E+00  0.00000000000E+00  0.29610643055E+03  0.29610643055E+03  0.00000000000E+00 0. -1.
         -1   -1    0    0    0  501 -0.00000000000E+00 -0.00000000000E+00 -0.47443829325E+02  0.47443829325E+02  0.00000000000E+00 0.  1.
         23    2    1    2    0    0 -0.15860567894E+02  0.19336528225E+02  0.95261812974E+02  0.13517436761E+03  0.92584219550E+02 0.  0.
         23    2    1    2    0    0  0.27295805419E+02 -0.50703429862E+02  0.10987843274E+03  0.15352297434E+03  0.90444098072E+02 0.  0.
        -11    1    4    4    0    0  0.59300078992E+02 -0.32365172633E+02  0.86878135285E+02  0.11005368762E+03  0.00000000000E+00 0.  1.
         11    1    4    4    0    0 -0.32004273573E+02 -0.18338257229E+02  0.23000297456E+02  0.43469286723E+02  0.00000000000E+00 0. -1.
        -13    1    3    3    0    0  0.33582089204E+02  0.30218656362E+02  0.41848037437E+02  0.61580696205E+02  0.00000000000E+00 0. -1.
         13    1    3    3    0    0 -0.49442657099E+02 -0.10882128137E+02  0.53413775536E+02  0.73593671405E+02  0.00000000000E+00 0.  1.
         21    1    1    2  502  501 -0.11435237524E+02  0.31366901637E+02  0.43522355508E+02  0.54852917921E+02  0.00000000000E+00 0. -1.
<scales pt_clust_5="13000.00000" pt_clust_6="13000.00000" pt_clust_7="13000.00000" pt_clust_8="13000.00000" pt_clust_9="33.38633"></scales>
<clustering>
<clus scale="   33.386">  1  9  2 -1</clus>
<clus scale="   90.444">  5  6 -1 -1</clus>
<clus scale="   92.584">  7  8 -1 -1</clus>
<clus scale="   98.912">  1  5  2 -1</clus>
<clus scale="   33.386">  1  5  2 -1</clus>
</clustering>
</event>
<event>
 9    1  0.1234700E-005  0.1127405E+03  0.7546771E-02  0.1256871E+00
          1   -1    0    0  502    0  0.00000000000E+00  0.00000000000E+00  0.20387143900E+03  0.20387143900E+03  0.00000000000E+00 0. -1.
         -1   -1    0    0    0  501 -0.00000000000E+00 -0.00000000000E+00 -0.12410166753E+03  0.12410166753E+03  0.00000000000E+00 0.  1.
         23    2    1    2    0    0  0.18519598625E+02 -0.55639751741E+02 -0.26251146221E+02  0.11095039749E+03  0.90455019305E+02 0.  0.
         23    2    1    2    0    0 -0.52506806221E+02  0.50878355296E+02  0.15244693226E+02  0.11997568897E+03  0.93894587360E+02 0.  0.
        -11    1    4    4    0    0 -0.32753576135E+02  0.63409322281E+02  0.43276906476E+02  0.83465139644E+02  0.00000000000E+00 0. -1.
         11    1    4    4    0    0 -0.19753230087E+02 -0.12530966985E+02 -0.28032213251E+02  0.36510549327E+02  0.00000000000E+00 0.  1.
        -11    1    3    3    0    0  0.53412816028E+02 -0.26444454973E+02 -0.25603974758E+01  0.59655626307E+02  0.00000000000E+00 0. -1.
         11    1    3    3    0    0 -0.34893217404E+02 -0.29195296768E+02 -0.23690748745E+02  0.51294771179E+02  0.00000000000E+00 0.  1.
         21    1    1    2  502  501  0.33987207596E+02  0.47613964450E+01  0.90776224467E+02  0.97047020072E+02  0.00000000000E+00 0. -1.
<scales pt_clust_5="13000.00000" pt_clust_6="13000.00000" pt_clust_7="13000.00000" pt_clust_8="13000.00000" pt_clust_9="34.31911"></scales>
<clustering>
<clus scale="   34.319">  1  9  2 -1</clus>
<clus scale="   90.455">  7  8 -1 -1</clus>
<clus scale="   93.895">  5  6 -1 -1</clus>
<clus scale="  109.892">  2  7  1 -1</clus>
<clus scale="   34.319">  1  5  2 -1</clus>
</clustering>
</event>
<event>
 9    1  0.1234700E-005  0.1021628E+03  0.7546771E-02  0.1286926E+00
          1   -1    0    0  502    0  0.00000000000E+00  0.00000000000E+00  0.54834181084E+02  0.54834181084E+02  0.00000000000E+00 0. -1.
         -1   -1    0    0    0  501 -0.00000000000E+00 -0.00000000000E+00 -0.23376031258E+03  0.23376031258E+03  0.00000000000E+00 0.  1.
         23    2    1    2    0    0 -0.43988321843E+02  0.16074098398E+02 -0.12241874324E+03  0.16286266816E+03  0.96667217230E+02 0.  0.
         23    2    1    2    0    0  0.20491083167E+02  0.21523194650E+01 -0.55072268592E+02  0.95959655582E+02  0.75833922246E+02 0.  0.
        -13    1    4    4    0    0 -0.26155309581E+02  0.40834181651E+01 -0.37869628632E+02  0.46204797326E+02  0.00000000000E+00 0.  1.
         13    1    4    4    0    0  0.46646392747E+02 -0.19310987001E+01 -0.17202639959E+02  0.49754858256E+02  0.00000000000E+00 0. -1.
        -13    1    3    3    0    0  0.13441258277E+02 -0.29158993350E+02 -0.53491997884E+02  0.62388365541E+02  0.00000000000E+00 0. -1.
         13    1    3    3    0    0 -0.57429580120E+02  0.45233091749E+02 -0.68926745353E+02  0.10047430262E+03  0.00000000000E+00 0.  1.
         21    1    1    2  502  501  0.23497238676E+02 -0.18226417863E+02 -0.14351196707E+01  0.29772169925E+02  0.00000000000E+00 0. -1.
<scales pt_clust_5="13000.00000" pt_clust_6="13000.00000" pt_clust_7="13000.00000" pt_clust_8="13000.00000" pt_clust_9="29.73756"></scales>
<clustering>
<clus scale="   29.738">  1  9  2 -1</clus>
<clus scale="   75.834">  5  6 -1 -1</clus>
<clus scale="   82.725">  1  5  2 -1</clus>
<clus scale="   96.667">  7  8 -1 -1</clus>
<clus scale="   29.738">  1  5  2 -1</clus>
</clustering>
</event>
<event>
 9    1  0.1234700E-005  0.1302212E+03  0.7546771E-02  0.1231578E+00
         -2   -1    0    0    0  501 -0.00000000000E+00  0.00000000000E+00  0.50336483863E+03  0.50336483863E+03  0.00000000000E+00 0.  1.
          2   -1    0    0  502    0  0.00000000000E+00 -0.00000000000E+00 -0.92412657477E+02  0.92412657477E+02  0.00000000000E+00 0. -1.
         23    2    1    2    0    0 -0.68950714593E+02 -0.17595374818E+02  0.34155133619E+03  0.36499345937E+03  0.10723391195E+03 0.  0.
         23    2    1    2    0    0  0.81554317602E+02  0.64971865679E-02  0.12210501762E+03  0.17381080407E+03  0.93002438259E+02 0.  0.
        -11    1    3    3    0    0 -0.82190119271E+02 -0.42732237323E+02  0.30465018661E+03  0.31842266881E+03  0.00000000000E+00 0.  1.
         11    1    3    3    0    0  0.13239404678E+02  0.25136862505E+02  0.36901149576E+02  0.46570790554E+02  0.00000000000E+00 0. -1.
        -11    1    4    4    0    0  0.35886314044E+02 -0.19582352589E+02  0.11690563973E+03  0.12384758645E+03  0.00000000000E+00 0.  1.
         11    1    4    4    0    0  0.45668003558E+02  0.19588849776E+02  0.51993778876E+01  0.49963217620E+02  0.00000000000E+00 0. -1.
         21    1    1    2  502  501 -0.12603603009E+02  0.17588877632E+02 -0.52704172656E+02  0.56973232667E+02  0.00000000000E+00 0. -1.
<scales pt_clust_5="13000.00000" pt_clust_6="13000.00000" pt_clust_7="13000.00000" pt_clust_8="13000.00000" pt_clust_9="21.63838"></scales>
<clustering>
<clus scale="   21.638">  2  9  1 -1</clus>
<clus scale="   93.002">  7  8 -1 -1</clus>
<clus scale="  107.234">  5  6 -1 -1</clus>
<clus scale="  118.777">  2  7  1 -1</clus>
<clus scale="   21.638">  2  5  1 -1</clus>
</clustering>
</event>
<event>
 9    1  0.1234700E-005  0.1111004E+03  0.7546771E-02  0.1258803E+00
          1   -1    0    0  502    0  0.00000000000E+00  0.00000000000E+00  0.18677082632E+03  0.18677082632E+03  0.00000000000E+00 0. -1.
         -1   -1    0    0    0  501 -0.00000000000E+00 -0.00000000000E+00 -0.23509617855E+03  0.23509617855E+03  0.00000000000E+00 0.  1.
         23    2    1    2    0    0 -0.29660639573E+02  0.58740483455E+02 -0.19204834602E+03  0.22222415293E+03  0.90392527335E+02 0.  0.
         23    2    1    2    0    0  0.41901663996E+02 -0.36856636583E+02  0.13822474869E+03  0.17397232152E+03  0.89700202899E+02 0.  0.
        -11    1    4    4    0    0  0.41850692035E+02 -0.11715978512E+02  0.14204348147E+03  0.14854324355E+03  0.00000000000E+00 0. -1.
         11    1    4    4    0    0  0.50971961339E-01 -0.25140658070E+02 -0.38187327837E+01  0.25429077970E+02  0.00000000000E+00 0.  1.
        -11    1    3    3    0    0  0.29377615407E+01  0.55559064081E+02 -0.44956797891E+02  0.71530089620E+02  0.00000000000E+00 0. -1.
         11    1    3    3    0    0 -0.32598401114E+02  0.31814193738E+01 -0.14709154813E+03  0.15069406331E+03  0.00000000000E+00 0.  1.
         21    1    1    2  502  501 -0.12241024423E+02 -0.21883846872E+02  0.54982450970E+01  0.25670530419E+02  0.00000000000E+00 0. -1.
<scales pt_clust_5="13000.00000" pt_clust_6="13000.00000" pt_clust_7="13000.00000" pt_clust_8="13000.00000" pt_clust_9="25.07480"></scales>
<clustering>
<clus scale="   25.075">  1  9  2 -1</clus>
<clus scale="   89.700">  5  6 -1 -1</clus>
<clus scale="   90.393">  7  8 -1 -1</clus>
<clus scale="  110.538">  1  5  2 -1</clus>
<clus scale="   25.075">  1  5  2 -1</clus>
</clustering>
</event>
<event>
 9    1  0.1234700E-005  0.1978613E+03  0.7546771E-02  0.1153742E+00
         -2   -1    0    0    0  501 -0.00000000000E+00  0.00000000000E+00  0.45727304264E+03  0.45727304264E+03  0.00000000000E+00 0.  1.
          2   -1    0    0  502    0  0.00000000000E+00 -0.00000000000E+00 -0.28301173361E+03  0.28301173361E+03  0.00000000000E+00 0. -1.
         23    2    1    2    0    0  0.12132928859E+03  0.11503655697E+03  0.37672699533E+03  0.42511634945E+03  0.10414641542E+03 0.  0.
         23    2    1    2    0    0 -0.10962759507E+03 -0.13966456232E+03 -0.12422011554E+03  0.23230807668E+03  0.83737720383E+02 0.  0.
        -11    1    3    3    0    0  0.49886655373E+02 -0.43278479953E+00  0.17481454340E+03  0.18179381252E+03  0.00000000000E+00 0.  1.
         11    1    3    3    0    0  0.71442633216E+02  0.11546934177E+03  0.20191245194E+03  0.24332253693E+03  0.00000000000E+00 0. -1.
        -11    1    4    4    0    0 -0.55597042061E+02 -0.12582480258E+03 -0.10589755089E+03  0.17360070079E+03  0.00000000000E+00 0. -1.
         11    1    4    4    0    0 -0.54030553012E+02 -0.13839759746E+02 -0.18322564648E+02  0.58707375890E+02  0.00000000000E+00 0.  1.
         21    1    1    2  502  501 -0.11701693515E+02  0.24628005351E+02 -0.78245570765E+02  0.82860350126E+02  0.00000000000E+00 0. -1.
<scales pt_clust_5="13000.00000" pt_clust_6="13000.00000" pt_clust_7="13000.00000" pt_clust_8="13000.00000" pt_clust_9="27.26661"></scales>
<clustering>
<clus scale="   27.267">  2  9  1 -1</clus>
<clus scale="   83.738">  7  8 -1 -1</clus>
<clus scale="  104.146">  5  6 -1 -1</clus>
<clus scale="  187.922">  2  7  1 -1</clus>
<clus scale="   27.267">  2  5  1 -1</clus>
</clustering>
</event>
<event>
 9    1  0.1234700E-005  0.9198448E+02  0.7546771E-02  0.1300725E+00
         -1   -1    0    0    0  501 -0.00000000000E+00  0.00000000000E+00  0.47364787390E+02  0.47364787390E+02  0.00000000000E+00 0.  1.
          1   -1    0    0  502    0  0.00000000000E+00 -0.00000000000E+00 -0.26406813523E+03  0.26406813523E+03  0.00000000000E+00 0. -1.
         23    2    1    2    0    0  0.14046937176E+02  0.71997238871E+01 -0.49836415997E+02  0.10196321896E+03  0.87542430811E+02 0.  0.
         23    2    1    2    0    0  0.13076062679E+02  0.81482071863E+01 -0.14087290733E+03  0.16888762117E+03  0.91872062506E+02 0.  0.
        -11    1    4    4    0    0 -0.30305346348E+02  0.10895298428E+02 -0.14631890083E+02  0.35372499948E+02  0.00000000000E+00 0.  1.
         11    1    4    4    0    0  0.43381409027E+02 -0.27470912418E+01 -0.12624101725E+03  0.13351512122E+03  0.00000000000E+00 0. -1.
        -13    1    3    3    0    0  0.29732164707E+02 -0.32157174827E+02 -0.37974184913E+02  0.57966578568E+02  0.00000000000E+00 0.  1.
         13    1    3    3    0    0 -0.15685227532E+02  0.39356898714E+02 -0.11862231084E+02  0.43996640388E+02  0.00000000000E+00 0. -1.
         21    1    1    2  502  501 -0.27122999855E+02 -0.15347931073E+02 -0.25994024518E+02  0.40582082499E+02  0.00000000000E+00 0. -1.
<scales pt_clust_5="13000.00000" pt_clust_6="13000.00000" pt_clust_7="13000.00000" pt_clust_8="13000.00000" pt_clust_9="31.16434"></scales>
<clustering>
<clus scale="   31.164">  1  9  2 -1</clus>
<clus scale="   87.542">  7  8 -1 -1</clus>
<clus scale="   87.660">  1  7  2 -1</clus>
<clus scale="   91.872">  5  6 -1 -1</clus>
<clus scale="   91.984">  2  5  1 -1</clus>
</clustering>
</event>
<event>
 9    1  0.1234700E-005  0.1074592E+03  0.7546771E-02  0.1266563E+00
          2   -1    0    0  502    0  0.00000000000E+00  0.00000000000E+00  0.42601815021E+02  0.42601815021E+02  0.00000000000E+00 0. -1.
         -2   -1    0    0    0  501 -0.00000000000E+00 -0.00000000000E+00 -0.39848352075E+03  0.39848352075E+03  0.00000000000E+00 0.  1.
         23    2    1    2    0    0 -0.19632487068E+01 -0.39181146510E+02 -0.17968980122E+03  0.20515696236E+03  0.90895203148E+02 0.  0.
         23    2    1    2    0    0  0.96257847082E+01  0.73575357806E+02 -0.15096521734E+03  0.19259176102E+03  0.93782197435E+02 0.  0.
        -13    1    4    4    0    0 -0.83000953676E+01  0.91826331144E+02 -0.10305726632E+03  0.13828147676E+03  0.00000000000E+00 0. -1.
         13    1    4    4    0    0  0.17925880076E+02 -0.18250973338E+02 -0.47907951023E+02  0.54310284252E+02  0.00000000000E+00 0.  1.
        -13    1    3    3    0    0 -0.23959476075E+02  0.22872684276E+02 -0.57468707761E+02  0.66331504969E+02  0.00000000000E+00 0. -1.
         13    1    3    3    0    0  0.21996227368E+02 -0.62053830786E+02 -0.12222109345E+03  0.13882545739E+03  0.00000000000E+00 0.  1.
         21    1    1    2  502  501 -0.76625360014E+01 -0.34394211296E+02 -0.25226687170E+02  0.43336612399E+02  0.00000000000E+00 0.  1.
<scales pt_clust_5="13000.00000" pt_clust_6="13000.00000" pt_clust_7="13000.00000" pt_clust_8="13000.00000" pt_clust_9="35.23743"></scales>
<clustering>
<clus scale="   35.237">  1  9  2 -1</clus>
<clus scale="   90.895">  7  8 -1 -1</clus>
<clus scale="   93.782">  5  6 -1 -1</clus>
<clus scale="  104.949">  2  7  1 -1</clus>
<clus scale="   35.237">  1  5  2 -1</clus>
</clustering>
</event>
<event>
 9    1  0.1234700E-005  0.1013293E+03  0.7546771E-02  0.1278777E+00
         -1   -1    0    0    0  501 -0.00000000000E+00  0.00000000000E+00  0.12461497860E+03  0.12461497860E+03  0.00000000000E+00 0.  1.
          1   -1    0    0  502    0  0.00000000000E+00 -0.00000000000E+00 -0.15559215285E+03  0.15559215285E+03  0.00000000000E+00 0. -1.
         23    2    1    2    0    0 -0.11309127157E+02 -0.37527380221E+02  0.67059371759E+02  0.12246563816E+03  0.94681954801E+02 0.  0.
         23    2    1    2    0    0 -0.81141230291E+01  0.29114686453E+02 -0.59431789221E+02  0.11371464568E+03  0.92116117551E+02 0.  0.
        -11    1    4    4    0    0  0.19045115382E+02  0.50551416086E+02 -0.12569323083E+02  0.55463050502E+02  0.00000000000E+00 0.  1.
         11    1    4    4    0    0 -0.27159238411E+02 -0.21436729633E+02 -0.46862466138E+02  0.58251595179E+02  0.00000000000E+00 0. -1.
        -13    1    3    3    0    0 -0.51951987893E+02 -0.22833268204E+02  0.51194767327E+02  0.76428210659E+02  0.00000000000E+00 0. -1.
         13    1    3    3    0    0  0.40642860736E+02 -0.14694112017E+02  0.15864604432E+02  0.46037427497E+02  0.00000000000E+00 0.  1.
         21    1    1    2  502  501  0.19423250186E+02  0.84126937679E+01 -0.38604756782E+02  0.44026847610E+02  0.00000000000E+00 0.  1.
<scales pt_clust_5="13000.00000" pt_clust_6="13000.00000" pt_clust_7="13000.00000" pt_clust_8="13000.00000" pt_clust_9="21.16686"></scales>
<clustering>
<clus scale="   21.167">  2  9  1 -1</clus>
<clus scale="   92.116">  5  6 -1 -1</clus>
<clus scale="   94.682">  7  8 -1 -1</clus>
<clus scale="   98.936">  2  5  1 -1</clus>
<clus scale="   21.167">  2  5  1 -1</clus>
</clustering>
</event>
<event>
 9    1  0.1234700E-005  0.9944254E+02  0.7546771E-02  0.1282247E+00
          2   -1    0    0  502    0  0.00000000000E+00  0.00000000000E+00  0.32514852047E+03  0.32514852047E+03  0.00000000000E+00 0. -1.
         -2   -1    0    0    0  501 -0.00000000000E+00 -0.00000000000E+00 -0.75757810288E+02  0.75757810288E+02  0.00000000000E+00 0.  1.
         23    2    1    2    0    0 -0.60273780157E+02 -0.42919036425E+01 -0.32045324327E+01  0.10709554785E+03  0.88361973325E+02 0.  0.
         23    2    1    2    0    0  0.12787130002E+02 -0.95634655231E+01  0.99654649798E+02  0.13306944370E+03  0.86726334264E+02 0.  0.
        -11    1    4    4    0    0 -0.33515183414E+02 -0.15331722058E+02  0.23351949749E+02  0.43630754951E+02  0.00000000000E+00 0.  1.
         11    1    4    4    0    0  0.46302313416E+02  0.57682565350E+01  0.76302700049E+02  0.89438688753E+02  0.00000000000E+00 0. -1.
        -13    1    3    3    0    0 -0.27659431218E+02 -0.41119471541E+02 -0.22278453161E+02  0.54334009150E+02  0.00000000000E+00 0.  1.
         13    1    3    3    0    0 -0.32614348939E+02  0.36827567898E+02  0.19073920728E+02  0.52761538700E+02  0.00000000000E+00 0. -1.
         21    1    1    2  502  501  0.47486650155E+02  0.13855369166E+02  0.15294059281E+03  0.16074133920E+03  0.00000000000E+00 0. -1.
<scales pt_clust_5="13000.00000" pt_clust_6="13000.00000" pt_clust_7="13000.00000" pt_clust_8="13000.00000" pt_clust_9="49.46669"></scales>
<clustering>
<clus scale="   49.467">  1  9  2 -1</clus>
<clus scale="   86.726">  5  6 -1 -1</clus>
<clus scale="   88.362">  7  8 -1 -1</clus>
<clus scale="   97.992">  1  5  2 -1</clus>
<clus scale="   49.467">  1  5  2 -1</clus>
</clustering>
</event>
<event>
 9    1  0.1234700E-005  0.9518902E+02  0.7546771E-02  0.1291166E+00
         -1   -1    0    0    0  501 -0.00000000000E+00  0.00000000000E+00  0.46702783843E+03  0.46702783843E+03  0.00000000000E+00 0.  1.
          1   -1    0    0  502    0  0.00000000000E+00 -0.00000000000E+00 -0.33910750061E+02  0.33910750061E+02  0.00000000000E+00 0. -1.
         23    2    1    2    0    0  0.12596245736E+02 -0.18596340177E+02  0.29442571451E+03  0.30893168482E+03  0.90817373036E+02 0.  0.
         23    2    1    2    0    0 -0.33650754532E+02  0.14860471531E+02  0.13917617337E+03  0.17061802605E+03  0.91582185421E+02 0.  0.
        -11    1    4    4    0    0 -0.54165781538E+02  0.21379375409E+02  0.13714586128E+03  0.14899663368E+03  0.00000000000E+00 0. -1.
         11    1    4    4    0    0  0.20515027005E+02 -0.65189038780E+01  0.20303120852E+01  0.21621392369E+02  0.00000000000E+00 0.  1.
        -13    1    3    3    0    0 -0.24882583092E+02  0.23173349220E+02  0.15396766971E+03  0.15767748848E+03  0.00000000000E+00 0. -1.
         13    1    3    3    0    0  0.37478828828E+02 -0.41769689398E+02  0.14045804480E+03  0.15125419634E+03  0.00000000000E+00 0.  1.
         21    1    1    2  502  501  0.21054508797E+02  0.37358686460E+01 -0.48479950845E+00  0.21388877619E+02  0.00000000000E+00 0.  1.
<scales pt_clust_5="13000.00000" pt_clust_6="13000.00000" pt_clust_7="13000.00000" pt_clust_8="13000.00000" pt_clust_9="21.38338"></scales>
<clustering>
<clus scale="   21.383">  2  9  1 -1</clus>
<clus scale="   90.817">  7  8 -1 -1</clus>
<clus scale="   91.582">  5  6 -1 -1</clus>
<clus scale="   94.453">  1  7  2 -1</clus>
<clus scale="   21.383">  2  5  1 -1</clus>
</clustering>
</event>
<event>
 9    1  0.1234700E-005  0.9803860E+02  0.7546771E-02  0.1284555E+00
         -1   -1    0    0    0  501 -0.00000000000E+00  0.00000000000E+00  0.82522527404E+02  0.82522527404E+02  0.00000000000E+00 0.  1.
          1   -1    0    0  502    0  0.00000000000E+00 -0.00000000000E+00 -0.22052566868E+03  0.22052566868E+03  0.00000000000E+00 0. -1.
         23    2    1    2    0    0 -0.42915153857E+02  0.36249973260E+01  0.17826608771E+02  0.10243742951E+03  0.91218353133E+02 0.  0.
         23    2    1    2    0    0  0.12351520538E+02  0.79546151762E+01 -0.12744821740E+03  0.15732411156E+03  0.91060375550E+02 0.  0.
        -11    1    4    4    0    0  0.11487232542E+02  0.35675170626E+02 -0.13165199133E+02  0.39724007588E+02  0.00000000000E+00 0.  1.
         11    1    4    4    0    0  0.86428799598E+00 -0.27720555450E+02 -0.11428301827E+03  0.11760010397E+03  0.00000000000E+00 0. -1.
        -13    1    3    3    0    0 -0.42259805184E+02 -0.39379367691E+02  0.12487849016E+02  0.59097987334E+02  0.00000000000E+00 0. -1.
         13    1    3    3    0    0 -0.65534867328E+00  0.43004365017E+02  0.53387597552E+01  0.43339442176E+02  0.00000000000E+00 0.  1.
         21    1    1    2  502  501  0.30563633319E+02 -0.11579612502E+02 -0.28381532642E+02  0.43286655016E+02  0.00000000000E+00 0. -1.
<scales pt_clust_5="13000.00000" pt_clust_6="13000.00000" pt_clust_7="13000.00000" pt_clust_8="13000.00000" pt_clust_9="32.68368"></scales>
<clustering>
<clus scale="   32.684">  2  9  1 -1</clus>
<clus scale="   91.060">  5  6 -1 -1</clus>
<clus scale="   91.218">  7  8 -1 -1</clus>
<clus scale="   97.892">  2  5  1 -1</clus>
<clus scale="   32.684">  2  5  1 -1</clus>
</clustering>
</event>
<event>
 9    1  0.1234700E-005  0.1028150E+03  0.7546771E-02  0.1275260E+00
          1   -1    0    0  502    0  0.00000000000E+00  0.00000000000E+00  0.73618706507E+03  0.73618706507E+03  0.00000000000E+00 0. -1.
         -1   -1    0    0    0  501 -0.00000000000E+00 -0.00000000000E+00 -0.27054816437E+02  0.27054816437E+02  0.00000000000E+00 0.  1.
         23    2    1    2    0    0 -0.54238970070E+01  0.24857668062E+02  0.18698518401E+03  0.20955288586E+03  0.91113284508E+02 0.  0.
         23    2    1    2    0    0  0.33029463725E+02 -0.77244081801E+02  0.30877265197E+03  0.33225041809E+03  0.89399083127E+02 0.  0.
        -13    1    4    4    0    0  0.19120967630E+02 -0.93094674141E+02  0.19974215502E+03  0.22119936313E+03  0.00000000000E+00 0. -1.
         13    1    4    4    0    0  0.13908496095E+02  0.15850592340E+02  0.10903049695E+03  0.11105105495E+03  0.00000000000E+00 0.  1.
        -13    1    3    3    0    0 -0.34841578723E+02  0.46478727863E+02  0.11408055625E+03  0.12801789353E+03  0.00000000000E+00 0.  1.
         13    1    3    3    0    0  0.29417681716E+02 -0.21621059801E+02  0.72904627765E+02  0.81534992329E+02  0.00000000000E+00 0. -1.
         21    1    1    2  502  501 -0.27605566718E+02  0.52386413738E+02  0.21337441265E+03  0.22143857756E+03  0.00000000000E+00 0. -1.
<scales pt_clust_5="13000.00000" pt_clust_6="13000.00000" pt_clust_7="13000.00000" pt_clust_8="13000.00000" pt_clust_9="59.21489"></scales>
<clustering>
<clus scale="   59.215">  1  9  2 -1</clus>
<clus scale="   89.399">  5  6 -1 -1</clus>
<clus scale="   91.113">  7  8 -1 -1</clus>
<clus scale="  101.299">  1  5  2 -1</clus>
<clus scale="   59.215">  1  5  2 -1</clus>
</clustering>
</event>
<event>
 9    1  0.1234700E-005  0.9920408E+02  0.7546771E-02  0.1282904E+00
         -1   -1    0    0    0  501 -0.00000000000E+00  0.00000000000E+00  0.75178623732E+02  0.75178623732E+02  0.00000000000E+00 0.  1.
          1   -1    0    0  502    0  0.00000000000E+00 -0.00000000000E+00 -0.26459361945E+03  0.26459361945E+03  0.00000000000E+00 0. -1.
         23    2    1    2    0    0 -0.34964034963E+02 -0.11381336500E+01  0.13389474044E+02  0.97410719804E+02  0.89921027733E+02 0.  0.
         23    2    1    2    0    0  0.49662513553E+02 -0.18186830074E+02 -0.18103272998E+03  0.20975005072E+03  0.91788389316E+02 0.  0.
        -11    1    3    3    0    0 -0.16999923938E+02 -0.18082154204E+02  0.48502572017E+02  0.54483586582E+02  0.00000000000E+00 0.  1.
         11    1    3    3    0    0 -0.17964111025E+02  0.16944020554E+02 -0.35113097973E+02  0.42927133223E+02  0.00000000000E+00 0. -1.
        -11    1    4    4    0    0 -0.20970734916E+01 -0.45376290236E+02 -0.99933777179E+02  0.10977324471E+03  0.00000000000E+00 0.  1.
         11    1    4    4    0    0  0.51759587045E+02  0.27189460162E+02 -0.81098952799E+02  0.99976806010E+02  0.00000000000E+00 0. -1.
         21    1    1    2  502  501 -0.14698478591E+02  0.19324963724E+02 -0.21771739789E+02  0.32611472663E+02  0.00000000000E+00 0.  1.
<scales pt_clust_5="13000.00000" pt_clust_6="13000.00000" pt_clust_7="13000.00000" pt_clust_8="13000.00000" pt_clust_9="24.27961"></scales>
<clustering>
<clus scale="   24.280">  2  9  1 -1</clus>
<clus scale="   89.921">  5  6 -1 -1</clus>
<clus scale="   91.788">  7  8 -1 -1</clus>
<clus scale="   97.479">  1  5  2 -1</clus>
<clus scale="   24.280">  2  5  1 -1</clus>
</clustering>
</event>
<event>
 9    1  0.1244680E-005  0.1203742E+03  0.7546771E-02  0.1242693E+00
          2   -1    0    0  502    0  0.00000000000E+00  0.00000000000E+00  0.21714624705E+03  0.21714624705E+03  0.00000000000E+00 0. -1.
         -2   -1    0    0    0  501 -0.00000000000E+00 -0.00000000000E+00 -0.19273665757E+03  0.19273665757E+03  0.00000000000E+00 0.  1.
         23    2    1    2    0    0  0.48602656315E+02 -0.69379656672E+02 -0.13103932577E+03  0.18047459910E+03  0.90686388507E+02 0.  0.
         23    2    1    2    0    0 -0.45212272399E+00  0.51641336001E+02  0.14286812295E+03  0.17657462081E+03  0.90001467544E+02 0.  0.
        -11    1    3    3    0    0 -0.24971908357E+02 -0.25076725525E+02 -0.56947309973E+02  0.67048001336E+02  0.00000000000E+00 0.  1.
         11    1    3    3    0    0  0.73574564672E+02 -0.44302931147E+02 -0.74092015801E+02  0.11342659776E+03  0.00000000000E+00 0. -1.
        -13    1    4    4    0    0  0.17297712578E+02 -0.21835082918E+02  0.32530680050E+02  0.42827874696E+02  0.00000000000E+00 0.  1.
         13    1    4    4    0    0 -0.17749835302E+02  0.73476418919E+02  0.11033744290E+03  0.13374674612E+03  0.00000000000E+00 0. -1.
         21    1    1    2  502  501 -0.48150533591E+02  0.17738320671E+02  0.12580792303E+02  0.52833684712E+02  0.00000000000E+00 0. -1.
<scales pt_clust_5="13000.00000" pt_clust_6="13000.00000" pt_clust_7="13000.00000" pt_clust_8="13000.00000" pt_clust_9="51.31395"></scales>
<clustering>
<clus scale="   51.314">  1  9  2 -1</clus>
<clus scale="   90.001">  7  8 -1 -1</clus>
<clus scale="   90.686">  5  6 -1 -1</clus>
<clus scale="  119.859">  1  7  2 -1</clus>
<clus scale="   51.314">  1  5  2 -1</clus>
</clustering>
</event>
<event>
 9    1  0.1234700E-005  0.1049745E+03  0.7546771E-02  0.1270895E+00
         -3   -1    0    0    0  501 -0.00000000000E+00  0.00000000000E+00  0.12674722062E+03  0.12674722062E+03  0.00000000000E+00 0.  1.
          3   -1    0    0  502    0  0.00000000000E+00 -0.00000000000E+00 -0.38704555444E+03  0.38704555444E+03  0.00000000000E+00 0. -1.
         23    2    1    2    0    0  0.72093784893E+02  0.25121126029E+02  0.43072503257E+02  0.12696872985E+03  0.91854412138E+02 0.  0.
         23    2    1    2    0    0 -0.14038414674E+02 -0.12189908477E+02 -0.16117100538E+02  0.93477234151E+02  0.90180715341E+02 0.  0.
        -11    1    3    3    0    0  0.66061016593E+02  0.46443920110E+02  0.58716310491E+02  0.99843381083E+02  0.00000000000E+00 0.  1.
         11    1    3    3    0    0  0.60327683000E+01 -0.21322794082E+02 -0.15643807234E+02  0.27125348764E+02  0.00000000000E+00 0. -1.
        -11    1    4    4    0    0  0.28333438240E+02  0.22019119040E+02  0.23842385166E+01  0.35962618357E+02  0.00000000000E+00 0.  1.
         11    1    4    4    0    0 -0.42371852915E+02 -0.34209027517E+02 -0.18501339054E+02  0.57514615794E+02  0.00000000000E+00 0. -1.
         21    1    1    2  502  501 -0.58055370218E+02 -0.12931217551E+02 -0.28725373654E+03  0.29334681106E+03  0.00000000000E+00 0. -1.
<scales pt_clust_5="13000.00000" pt_clust_6="13000.00000" pt_clust_7="13000.00000" pt_clust_8="13000.00000" pt_clust_9="59.47808"></scales>
<clustering>
<clus scale="   59.478">  2  9  1 -1</clus>
<clus scale="   90.181">  7  8 -1 -1</clus>
<clus scale="   91.854">  5  6 -1 -1</clus>
<clus scale="  103.513">  2  7  1 -1</clus>
<clus scale="   59.478">  2  5  1 -1</clus>
</clustering>
</event>
<event>
 9    1  0.1234700E-005  0.1012112E+03  0.7546771E-02  0.1278871E+00
          3   -1    0    0  502    0  0.00000000000E+00  0.00000000000E+00  0.27866694429E+03  0.27866694429E+03  0.00000000000E+00 0. -1.
         -3   -1    0    0    0  501 -0.00000000000E+00 -0.00000000000E+00 -0.63135931205E+02  0.63135931205E+02  0.00000000000E+00 0.  1.
         23    2    1    2    0    0  0.30328558567E+01 -0.34320657725E+02  0.17956453374E+02  0.99906984825E+02  0.92042738104E+02 0.  0.
         23    2    1    2    0    0 -0.77744524616E+01  0.62077727830E+02  0.13875806393E+03  0.17668609190E+03  0.89722284650E+02 0.  0.
        -11    1    4    4    0    0  0.55964707509E+01  0.79184302973E+02  0.74525218066E+02  0.10888288410E+03  0.00000000000E+00 0. -1.
         11    1    4    4    0    0 -0.13370923213E+02 -0.17106575142E+02  0.64232845863E+02  0.67803207803E+02  0.00000000000E+00 0.  1.
        -11    1    3    3    0    0  0.44479572049E+02 -0.11380057743E+02  0.24573874534E+02  0.52075074206E+02  0.00000000000E+00 0. -1.
         11    1    3    3    0    0 -0.41446716192E+02 -0.22940599982E+02 -0.66174211601E+01  0.47831910619E+02  0.00000000000E+00 0.  1.
         21    1    1    2  502  501  0.47415966049E+01 -0.27757070105E+02  0.58816495777E+02  0.65209798763E+02  0.00000000000E+00 0.  1.
<scales pt_clust_5="13000.00000" pt_clust_6="13000.00000" pt_clust_7="13000.00000" pt_clust_8="13000.00000" pt_clust_9="28.15915"></scales>
<clustering>
<clus scale="   28.159">  1  9  2 -1</clus>
<clus scale="   89.722">  5  6 -1 -1</clus>
<clus scale="   92.043">  7  8 -1 -1</clus>
<clus scale="   99.106">  1  5  2 -1</clus>
<clus scale="   28.159">  1  5  2 -1</clus>
</clustering>
</event>
<event>
 9    1  0.1234700E-005  0.1088749E+03  0.7546771E-02  0.1262882E+00
         -3   -1    0    0    0  501 -0.00000000000E+00  0.00000000000E+00  0.57771100517E+02  0.57771100517E+02  0.00000000000E+00 0.  1.
          3   -1    0    0  502    0  0.00000000000E+00 -0.00000000000E+00 -0.63809750380E+03  0.63809750380E+03  0.00000000000E+00 0. -1.
         23    2    1    2    0    0 -0.22275608831E+02 -0.53433187625E+02 -0.15149578664E+02  0.10951250034E+03  0.91717881069E+02 0.  0.
         23    2    1    2    0    0  0.57881632163E+02  0.35968965365E+02 -0.37770619988E+03  0.39473662925E+03  0.92254990273E+02 0.  0.
        -11    1    3    3    0    0  0.35014884214E+02 -0.14441475698E+02 -0.13443244975E+02  0.40191033481E+02  0.00000000000E+00 0. -1.
         11    1    3    3    0    0 -0.57290493045E+02 -0.38991711927E+02 -0.17063336888E+01  0.69321466855E+02  0.00000000000E+00 0.  1.
        -13    1    4    4    0    0  0.53028118219E+02 -0.12317704232E+02 -0.11077056546E+03  0.12342538366E+03  0.00000000000E+00 0.  1.
         13    1    4    4    0    0  0.48535139434E+01  0.48286669596E+02 -0.26693563442E+03  0.27131124559E+03  0.00000000000E+00 0. -1.
         21    1    1    2  502  501 -0.35606023332E+02  0.17464222261E+02 -0.18747062474E+03  0.19161947473E+03  0.00000000000E+00 0. -1.
<scales pt_clust_5="13000.00000" pt_clust_6="13000.00000" pt_clust_7="13000.00000" pt_clust_8="13000.00000" pt_clust_9="39.65839"></scales>
<clustering>
<clus scale="   39.658">  2  9  1 -1</clus>
<clus scale="   91.718">  5  6 -1 -1</clus>
<clus scale="   92.255">  7  8 -1 -1</clus>
<clus scale="  108.420">  1  5  2 -1</clus>
<clus scale="   39.658">  2  5  1 -1</clus>
</clustering>
</event>
<event>
 9    1  0.1234700E-005  0.1766802E+03  0.7546771E-02  0.1171518E+00
         -2   -1    0    0    0  501 -0.00000000000E+00  0.00000000000E+00  0.88814630419E+03  0.88814630419E+03  0.00000000000E+00 0.  1.
          2   -1    0    0  502    0  0.00000000000E+00 -0.00000000000E+00 -0.53476938955E+02  0.53476938955E+02  0.00000000000E+00 0. -1.
         23    2    1    2    0    0  0.72466003853E+02 -0.12918167583E+03  0.61789910163E+03  0.64436259920E+03  0.10707302356E+03 0.  0.
         23    2    1    2    0    0 -0.52860355004E+02  0.11360930536E+03  0.21811179135E+03  0.27218715425E+03  0.10397981542E+03 0.  0.
        -13    1    4    4    0    0 -0.34208993453E+02  0.31712941890E+01  0.98851821875E+01  0.35749533798E+02  0.00000000000E+00 0. -1.
         13    1    4    4    0    0 -0.18651361552E+02  0.11043801117E+03  0.20822660916E+03  0.23643762045E+03  0.00000000000E+00 0.  1.
        -13    1    3    3    0    0 -0.22896980287E+02 -0.53145423396E+02  0.25617973671E+03  0.26263428039E+03  0.00000000000E+00 0. -1.
         13    1    3    3    0    0  0.95362984140E+02 -0.76036252432E+02  0.36171936492E+03  0.38172831881E+03  0.00000000000E+00 0.  1.
         21    1    1    2  502  501 -0.19605648849E+02  0.15572370465E+02 -0.13415277476E+01  0.25073489693E+02  0.00000000000E+00 0. -1.
<scales pt_clust_5="13000.00000" pt_clust_6="13000.00000" pt_clust_7="13000.00000" pt_clust_8="13000.00000" pt_clust_9="25.03758"></scales>
<clustering>
<clus scale="   25.038">  2  9  1 -1</clus>
<clus scale="  103.980">  5  6 -1 -1</clus>
<clus scale="  107.073">  7  8 -1 -1</clus>
<clus scale="  174.823">  2  5  1 -1</clus>
<clus scale="   25.038">  2  5  1 -1</clus>
</clustering>
</event>
<event>
 9    1  0.1234700E-005  0.1181304E+03  0.7546771E-02  0.1252957E+00
          4   -1    0    0  502    0  0.00000000000E+00  0.00000000000E+00  0.78307267203E+03  0.78307267203E+03  0.00000000000E+00 0. -1.
         -4   -1    0    0    0  501 -0.00000000000E+00 -0.00000000000E+00 -0.57191947918E+02  0.57191947918E+02  0.00000000000E+00 0.  1.
         23    2    1    2    0    0  0.55725433025E+02 -0.10897830170E+03  0.15137151161E+03  0.21497006554E+03  0.91198686524E+02 0.  0.
         23    2    1    2    0    0 -0.65637165735E+01  0.18205331281E+02  0.44727530657E+03  0.46144989218E+03  0.11183151013E+03 0.  0.
        -11    1    3    3    0    0  0.31502280913E+02 -0.85797536402E+02  0.15632025334E+03  0.18107907820E+03  0.00000000000E+00 0. -1.
         11    1    3    3    0    0  0.24223152112E+02 -0.23180765300E+02 -0.49487417374E+01  0.33890987341E+02  0.00000000000E+00 0.  1.
        -13    1    4    4    0    0 -0.49614014803E+02 -0.18111199735E+02  0.15372432611E+03  0.16254456145E+03  0.00000000000E+00 0.  1.
         13    1    4    4    0    0  0.43050298230E+02  0.36316531016E+02  0.29355098047E+03  0.29890533072E+03  0.00000000000E+00 0. -1.
         21    1    1    2  502  501 -0.49161716451E+02  0.90772970420E+02  0.12723390593E+03  0.16384466223E+03  0.00000000000E+00 0.  1.
<scales pt_clust_5="13000.00000" pt_clust_6="13000.00000" pt_clust_7="13000.00000" pt_clust_8="13000.00000" pt_clust_9="103.23084"></scales>
<clustering>
<clus scale="   91.199">  5  6 -1 -1</clus>
<clus scale="  103.231">  2  9  1 -1</clus>
<clus scale="  103.231">  2  5  1 -1</clus>
<clus scale="  111.832">  7  8 -1 -1</clus>
<clus scale="  118.130">  1  5  2 -1</clus>
</clustering>
</event>
<event>
 9    1  0.1234700E-005  0.1179246E+03  0.7546771E-02  0.1254201E+00
          2   -1    0    0  502    0  0.00000000000E+00  0.00000000000E+00  0.31996941778E+03  0.31996941778E+03  0.00000000000E+00 0. -1.
         -2   -1    0    0    0  501 -0.00000000000E+00 -0.00000000000E+00 -0.72887289047E+02  0.72887289047E+02  0.00000000000E+00 0.  1.
         23    2    1    2    0    0  0.10411456676E+02  0.44054166153E+02  0.10076115349E+01  0.11957104860E+03  0.11066640140E+03 0.  0.
         23    2    1    2    0    0 -0.14758738953E+02 -0.22348667889E+02  0.19266832378E+03  0.21547347081E+03  0.92684682136E+02 0.  0.
        -13    1    4    4    0    0 -0.20749187364E+02  0.33898037952E+02  0.73318345587E+02  0.83397755083E+02  0.00000000000E+00 0.  1.
         13    1    4    4    0    0  0.59904484112E+01 -0.56246705840E+02  0.11934997820E+03  0.13207571573E+03  0.00000000000E+00 0. -1.
        -13    1    3    3    0    0 -0.46580417940E+02 -0.46155864309E+00 -0.57635966903E+01  0.46937910250E+02  0.00000000000E+00 0. -1.
         13    1    3    3    0    0  0.56991874616E+02  0.44515724796E+02  0.67712082252E+01  0.72633138354E+02  0.00000000000E+00 0.  1.
         21    1    1    2  502  501  0.43472822761E+01 -0.21705498264E+02  0.53406193411E+02  0.57812187407E+02  0.00000000000E+00 0.  1.
<scales pt_clust_5="13000.00000" pt_clust_6="13000.00000" pt_clust_7="13000.00000" pt_clust_8="13000.00000" pt_clust_9="22.13657"></scales>
<clustering>
<clus scale="   22.137">  1  9  2 -1</clus>
<clus scale="   92.685">  5  6 -1 -1</clus>
<clus scale="  101.240">  1  5  2 -1</clus>
<clus scale="  110.666">  7  8 -1 -1</clus>
<clus scale="   22.137">  1  5  2 -1</clus>
</clustering>
</event>
<event>
 9    1  0.1234700E-005  0.1030217E+03  0.7546771E-02  0.1274639E+00
          1   -1    0    0  502    0  0.00000000000E+00  0.00000000000E+00  0.28606281136E+03  0.28606281136E+03  0.00000000000E+00 0. -1.
         -1   -1    0    0    0  501 -0.00000000000E+00 -0.00000000000E+00 -0.11834050157E+03  0.11834050157E+03  0.00000000000E+00 0.  1.
         23    2    1    2    0    0 -0.20903235500E+01 -0.51248664656E+02 -0.66034640294E+02  0.12269099999E+03  0.89787040710E+02 0.  0.
         23    2    1    2    0    0  0.32699190525E+02  0.44085160792E+02  0.10022400711E+03  0.14452898530E+03  0.88493149603E+02 0.  0.
        -13    1    3    3    0    0  0.37869038979E+02 -0.41727974324E+01 -0.10195217205E+02  0.39438798225E+02  0.00000000000E+00 0. -1.
         13    1    3    3    0    0 -0.39959362529E+02 -0.47075867223E+02 -0.55839423089E+02  0.83252201770E+02  0.00000000000E+00 0.  1.
        -13    1    4    4    0    0  0.52911902930E+02  0.49817958274E+02  0.99873557491E+02  0.12351609581E+03  0.00000000000E+00 0. -1.
         13    1    4    4    0    0 -0.20212712405E+02 -0.57327974825E+01  0.35044962232E+00  0.21012889489E+02  0.00000000000E+00 0.  1.
         21    1    1    2  502  501 -0.30608866975E+02  0.71635038639E+01  0.13353294296E+03  0.13718332764E+03  0.00000000000E+00 0.  1.
<scales pt_clust_5="13000.00000" pt_clust_6="13000.00000" pt_clust_7="13000.00000" pt_clust_8="13000.00000" pt_clust_9="31.43594"></scales>
<clustering>
<clus scale="   31.436">  1  9  2 -1</clus>
<clus scale="   88.493">  7  8 -1 -1</clus>
<clus scale="   89.787">  5  6 -1 -1</clus>
<clus scale="  101.896">  1  7  2 -1</clus>
<clus scale="   31.436">  1  5  2 -1</clus>
</clustering>
</event>
<event>
 9    1  0.1234700E-005  0.1199319E+03  0.7546771E-02  0.1243735E+00
          1   -1    0    0  502    0  0.00000000000E+00  0.00000000000E+00  0.22684377210E+03  0.22684377210E+03  0.00000000000E+00 0. -1.
         -1   -1    0    0    0  501 -0.00000000000E+00 -0.00000000000E+00 -0.10739194148E+03  0.10739194148E+03  0.00000000000E+00 0.  1.
         23    2    1    2    0    0  0.82804556976E+02 -0.48461822714E+02 -0.10531898672E+02  0.13187895050E+03  0.89866533136E+02 0.  0.
         23    2    1    2    0    0 -0.33754554329E+02  0.32956102870E+02  0.77620719391E+02  0.12895230196E+03  0.91532756148E+02 0.  0.
        -11    1    4    4    0    0 -0.88896741410E+01 -0.31105105124E+02  0.36910797595E+02  0.49081165942E+02  0.00000000000E+00 0.  1.
         11    1    4    4    0    0 -0.24864880188E+02  0.64061207994E+02  0.40709921796E+02  0.79871136019E+02  0.00000000000E+00 0. -1.
        -13    1    3    3    0    0  0.33346982960E+02 -0.63172720463E+02 -0.28969580361E+02  0.77084696727E+02  0.00000000000E+00 0.  1.
         13    1    3    3    0    0  0.49457574016E+02  0.14710897749E+02  0.18437681689E+02  0.54794253770E+02  0.00000000000E+00 0. -1.
         21    1    1    2  502  501 -0.49050002648E+02  0.15505719844E+02  0.52363009894E+02  0.73404461123E+02  0.00000000000E+00 0. -1.
<scales pt_clust_5="13000.00000" pt_clust_6="13000.00000" pt_clust_7="13000.00000" pt_clust_8="13000.00000" pt_clust_9="51.44249"></scales>
<clustering>
<clus scale="   51.442">  1  9  2 -1</clus>
<clus scale="   89.867">  7  8 -1 -1</clus>
<clus scale="   91.533">  5  6 -1 -1</clus>
<clus scale="  118.665">  2  7  1 -1</clus>
<clus scale="   51.442">  1  5  2 -1</clus>
</clustering>
</event>
<event>
 9    1  0.1234700E-005  0.9607547E+02  0.7546771E-02  0.1288846E+00
         -1   -1    0    0    0  501 -0.00000000000E+00  0.00000000000E+00  0.44339231289E+02  0.44339231289E+02  0.00000000000E+00 0.  1.
          1   -1    0    0  502    0  0.00000000000E+00 -0.00000000000E+00 -0.27977488609E+03  0.27977488609E+03  0.00000000000E+00 0. -1.
         23    2    1    2    0    0  0.22903730457E+02  0.20015142978E+02 -0.64680438897E+02  0.11520377483E+03  0.90350228235E+02 0.  0.
         23    2    1    2    0    0 -0.82954252437E+01 -0.34463659443E+02 -0.15528849136E+03  0.18319299864E+03  0.90490890714E+02 0.  0.
        -13    1    4    4    0    0  0.30752566179E+02 -0.46390757941E+02 -0.10024543806E+03  0.11466023984E+03  0.00000000000E+00 0. -1.
         13    1    4    4    0    0 -0.39047991423E+02  0.11927098497E+02 -0.55043053299E+02  0.68532758803E+02  0.00000000000E+00 0.  1.
        -13    1    3    3    0    0 -0.97057056633E+01  0.20228672216E+02  0.16413080647E+02  0.27799084848E+02  0.00000000000E+00 0.  1.
         13    1    3    3    0    0  0.32609436120E+02 -0.21352923854E+00 -0.81093519544E+02  0.87404689982E+02  0.00000000000E+00 0. -1.
         21    1    1    2  502  501 -0.14608305213E+02  0.14448516466E+02 -0.15466724549E+02  0.25717343905E+02  0.00000000000E+00 0.  1.
<scales pt_clust_5="13000.00000" pt_clust_6="13000.00000" pt_clust_7="13000.00000" pt_clust_8="13000.00000" pt_clust_9="20.54659"></scales>
<clustering>
<clus scale="   20.547">  1  9  2 -1</clus>
<clus scale="   90.350">  7  8 -1 -1</clus>
<clus scale="   90.491">  5  6 -1 -1</clus>
<clus scale="   95.943">  1  7  2 -1</clus>
<clus scale="   96.075">  2  5  1 -1</clus>
</clustering>
</event>
<event>
 9    1  0.1234700E-005  0.9318363E+02  0.7546771E-02  0.1298270E+00
         -4   -1    0    0    0  501 -0.00000000000E+00  0.00000000000E+00  0.49776993758E+03  0.49776993758E+03  0.00000000000E+00 0.  1.
          4   -1    0    0  502    0  0.00000000000E+00 -0.00000000000E+00 -0.13727810547E+03  0.13727810547E+03  0.00000000000E+00 0. -1.
         23    2    1    2    0    0 -0.79082226287E+01  0.85172819764E+01  0.45899880530E+03  0.46743730947E+03  0.87650732702E+02 0.  0.
         23    2    1    2    0    0 -0.25203762707E+02  0.11723586228E+02 -0.72914429186E+02  0.12112337372E+03  0.92637387424E+02 0.  0.
        -11    1    3    3    0    0  0.37577380240E+02  0.18192165743E+02  0.23145098440E+03  0.23518625084E+03  0.00000000000E+00 0. -1.
         11    1    3    3    0    0 -0.45485602868E+02 -0.96748837662E+01  0.22754782089E+03  0.23225105863E+03  0.00000000000E+00 0.  1.
        -11    1    4    4    0    0 -0.58883545775E+02 -0.19628445654E+01 -0.34684941659E+02  0.68367901092E+02  0.00000000000E+00 0.  1.
         11    1    4    4    0    0  0.33679783069E+02  0.13686430793E+02 -0.38229487527E+02  0.52755472626E+02  0.00000000000E+00 0. -1.
         21    1    1    2  502  501  0.33111985335E+02 -0.20240868204E+02 -0.25592543995E+02  0.46487359859E+02  0.00000000000E+00 0. -1.
<scales pt_clust_5="13000.00000" pt_clust_6="13000.00000" pt_clust_7="13000.00000" pt_clust_8="13000.00000" pt_clust_9="38.80846"></scales>
<clustering>
<clus scale="   38.808">  2  9  1 -1</clus>
<clus scale="   87.651">  5  6 -1 -1</clus>
<clus scale="   88.228">  1  5  2 -1</clus>
<clus scale="   92.637">  7  8 -1 -1</clus>
<clus scale="   38.808">  2  5  1 -1</clus>
</clustering>
</event>
<event>
 9    1  0.1234700E-005  0.1030895E+03  0.7546771E-02  0.1274841E+00
          3   -1    0    0  502    0  0.00000000000E+00  0.00000000000E+00  0.10399089375E+03  0.10399089375E+03  0.00000000000E+00 0. -1.
         -3   -1    0    0    0  501 -0.00000000000E+00 -0.00000000000E+00 -0.16115608218E+03  0.16115608218E+03  0.00000000000E+00 0.  1.
         23    2    1    2    0    0  0.67392819353E+02  0.40350782121E+01 -0.43736235948E+02  0.12135197543E+03  0.90859064758E+02 0.  0.
         23    2    1    2    0    0 -0.19176457390E+02 -0.50260605988E+01 -0.90005559144E+01  0.95365564167E+02  0.92847094833E+02 0.  0.
        -11    1    3    3    0    0  0.52340824740E+02  0.23732238462E+02 -0.66362923597E+02  0.87788488455E+02  0.00000000000E+00 0.  1.
         11    1    3    3    0    0  0.15051994613E+02 -0.19697160250E+02  0.22626687649E+02  0.33563486972E+02  0.00000000000E+00 0. -1.
        -13    1    4    4    0    0  0.23764397443E+02 -0.34189882425E+02 -0.12114426707E+02  0.43364201602E+02  0.00000000000E+00 0.  1.
         13    1    4    4    0    0 -0.42940854834E+02  0.29163821827E+02  0.31138707921E+01  0.52001362566E+02  0.00000000000E+00 0. -1.
         21    1    1    2  502  501 -0.48216361963E+02  0.99098238666E+00 -0.44283965654E+01  0.48429436329E+02  0.00000000000E+00 0. -1.
<scales pt_clust_5="13000.00000" pt_clust_6="13000.00000" pt_clust_7="13000.00000" pt_clust_8="13000.00000" pt_clust_9="48.22654"></scales>
<clustering>
<clus scale="   48.227">  1  9  2 -1</clus>
<clus scale="   90.859">  5  6 -1 -1</clus>
<clus scale="   92.847">  7  8 -1 -1</clus>
<clus scale="  101.303">  2  5  1 -1</clus>
<clus scale="   48.227">  1  5  2 -1</clus>
</clustering>
</event>
<event>
 9    1  0.1234700E-005  0.1004290E+03  0.7546771E-02  0.1280957E+00
          2   -1    0    0  502    0  0.00000000000E+00  0.00000000000E+00  0.29953759925E+03  0.29953759925E+03  0.00000000000E+00 0. -1.
         -2   -1    0    0    0  501 -0.00000000000E+00 -0.00000000000E+00 -0.83129353952E+02  0.83129353952E+02  0.00000000000E+00 0.  1.
         23    2    1    2    0    0  0.73630790577E+01  0.95566036594E+00  0.22419098277E+02  0.95706542844E+02  0.92746957663E+02 0.  0.
         23    2    1    2    0    0 -0.58249472410E+02  0.84962147823E+01  0.32039148944E+02  0.11694110307E+03  0.95830724829E+02 0.  0.
        -13    1    4    4    0    0 -0.12715294040E+02  0.45753387730E+02 -0.44738190250E+01  0.47697654533E+02  0.00000000000E+00 0.  1.
         13    1    4    4    0    0 -0.45534178369E+02 -0.37257172948E+02  0.36512967969E+02  0.69243448540E+02  0.00000000000E+00 0. -1.
        -13    1    3    3    0    0  0.39057972373E+02 -0.29364574735E+02  0.15747804919E+02  0.51340011833E+02  0.00000000000E+00 0. -1.
         13    1    3    3    0    0 -0.31694893315E+02  0.30320235101E+02  0.66712933580E+01  0.44366531011E+02  0.00000000000E+00 0.  1.
         21    1    1    2  502  501  0.50886393352E+02 -0.94518751483E+01  0.16194999807E+03  0.17001930728E+03  0.00000000000E+00 0. -1.
<scales pt_clust_5="13000.00000" pt_clust_6="13000.00000" pt_clust_7="13000.00000" pt_clust_8="13000.00000" pt_clust_9="51.75677"></scales>
<clustering>
<clus scale="   51.757">  1  9  2 -1</clus>
<clus scale="   92.747">  7  8 -1 -1</clus>
<clus scale="   95.831">  5  6 -1 -1</clus>
<clus scale="   97.491">  2  7  1 -1</clus>
<clus scale="   51.757">  1  5  2 -1</clus>
</clustering>
</event>
<event>
 9    1  0.1234700E-005  0.9629885E+02  0.7546771E-02  0.1288379E+00
         -1   -1    0    0    0  501 -0.00000000000E+00  0.00000000000E+00  0.14496220110E+03  0.14496220110E+03  0.00000000000E+00 0.  1.
          1   -1    0    0  502    0  0.00000000000E+00 -0.00000000000E+00 -0.35431700823E+03  0.35431700823E+03  0.00000000000E+00 0. -1.
         23    2    1    2    0    0 -0.53150111337E+01 -0.31281853542E+02  0.11088168179E+03  0.14678832278E+03  0.90803417577E+02 0.  0.
         23    2    1    2    0    0 -0.29001288635E+02  0.41757176924E+02 -0.27961022409E+03  0.29828909484E+03  0.90607781786E+02 0.  0.
        -11    1    4    4    0    0 -0.11123386693E+02  0.67422926234E+02 -0.22720922235E+03  0.23726274767E+03  0.00000000000E+00 0. -1.
         11    1    4    4    0    0 -0.17877901942E+02 -0.25665749310E+02 -0.52401001744E+02  0.61026347173E+02  0.00000000000E+00 0.  1.
        -13    1    3    3    0    0  0.23392995401E+02 -0.37064435873E+02  0.14670973544E+02  0.46219499187E+02  0.00000000000E+00 0.  1.
         13    1    3    3    0    0 -0.28708006534E+02  0.57825823311E+01  0.96210708245E+02  0.10056882359E+03  0.00000000000E+00 0. -1.
         21    1    1    2  502  501  0.34316299769E+02 -0.10475323382E+02 -0.40626264831E+02  0.54201791703E+02  0.00000000000E+00 0. -1.
<scales pt_clust_5="13000.00000" pt_clust_6="13000.00000" pt_clust_7="13000.00000" pt_clust_8="13000.00000" pt_clust_9="35.87953"></scales>
<clustering>
<clus scale="   35.880">  2  9  1 -1</clus>
<clus scale="   90.608">  5  6 -1 -1</clus>
<clus scale="   90.803">  7  8 -1 -1</clus>
<clus scale="   96.114">  2  5  1 -1</clus>
<clus scale="   35.880">  2  5  1 -1</clus>
</clustering>
</event>
<event>
 9    1  0.1234700E-005  0.1104071E+03  0.7546771E-02  0.1260106E+00
          3   -1    0    0  502    0  0.00000000000E+00  0.00000000000E+00  0.12427640847E+03  0.12427640847E+03  0.00000000000E+00 0. -1.
         -3   -1    0    0    0  501 -0.00000000000E+00 -0.00000000000E+00 -0.20540635492E+03  0.20540635492E+03  0.00000000000E+00 0.  1.
         23    2    1    2    0    0  0.36244119639E+02 -0.54729737517E+02 -0.11890240040E+03  0.16371295679E+03  0.91406624606E+02 0.  0.
         23    2    1    2    0    0  0.92366815860E+01  0.63544115098E+02  0.90429179062E+01  0.11145758070E+03  0.90652341836E+02 0.  0.
        -11    1    3    3    0    0  0.14083346164E+02 -0.49650075269E+02 -0.12892156259E+03  0.13886770652E+03  0.00000000000E+00 0.  1.
         11    1    3    3    0    0  0.22160773475E+02 -0.50796622481E+01  0.10019162194E+02  0.24845250263E+02  0.00000000000E+00 0. -1.
        -11    1    4    4    0    0 -0.11180719387E+02 -0.20013127409E+02 -0.69773448729E+01  0.23962827383E+02  0.00000000000E+00 0.  1.
         11    1    4    4    0    0  0.20417400973E+02  0.83557242508E+02  0.16020262779E+02  0.87494753314E+02  0.00000000000E+00 0. -1.
         21    1    1    2  502  501 -0.45480801225E+02 -0.88143775818E+01  0.28729536039E+02  0.54512225906E+02  0.00000000000E+00 0. -1.
<scales pt_clust_5="13000.00000" pt_clust_6="13000.00000" pt_clust_7="13000.00000" pt_clust_8="13000.00000" pt_clust_9="46.32706"></scales>
<clustering>
<clus scale="   46.327">  1  9  2 -1</clus>
<clus scale="   90.652">  7  8 -1 -1</clus>
<clus scale="   91.407">  5  6 -1 -1</clus>
<clus scale="  109.783">  1  7  2 -1</clus>
<clus scale="   46.327">  1  5  2 -1</clus>
</clustering>
</event>
<event>
 9    1  0.1234700E-005  0.1230846E+03  0.7546771E-02  0.1238297E+00
          2   -1    0    0  502    0  0.00000000000E+00  0.00000000000E+00  0.30810512723E+03  0.30810512723E+03  0.00000000000E+00 0. -1.
         -2   -1    0    0    0  501 -0.00000000000E+00 -0.00000000000E+00 -0.20505125057E+03  0.20505125057E+03  0.00000000000E+00 0.  1.
         23    2    1    2    0    0 -0.57267341445E+02 -0.63350795232E+02 -0.66307444537E+02  0.14234473434E+03  0.92587658689E+02 0.  0.
         23    2    1    2    0    0  0.84135316635E+02  0.12852546524E+02 -0.56133752783E+02  0.13817460942E+03  0.93259235629E+02 0.  0.
        -11    1    3    3    0    0 -0.21792911411E+02  0.22031968625E+02 -0.29634967327E+02  0.42878548457E+02  0.00000000000E+00 0. -1.
         11    1    3    3    0    0 -0.35474430034E+02 -0.85382763857E+02 -0.36672477210E+02  0.99466185887E+02  0.00000000000E+00 0.  1.
        -11    1    4    4    0    0 -0.15579845392E+01  0.34011456235E+02 -0.91669893313E+00  0.34059459890E+02  0.00000000000E+00 0.  1.
         11    1    4    4    0    0  0.85693301174E+02 -0.21158909711E+02 -0.55217053850E+02  0.10411514953E+03  0.00000000000E+00 0. -1.
         21    1    1    2  502  501 -0.26867975190E+02  0.50498248708E+02  0.22549507399E+03  0.23263703404E+03  0.00000000000E+00 0. -1.
<scales pt_clust_5="13000.00000" pt_clust_6="13000.00000" pt_clust_7="13000.00000" pt_clust_8="13000.00000" pt_clust_9="57.20106"></scales>
<clustering>
<clus scale="   57.201">  1  9  2 -1</clus>
<clus scale="   92.588">  5  6 -1 -1</clus>
<clus scale="   93.259">  7  8 -1 -1</clus>
<clus scale="  122.577">  2  5  1 -1</clus>
<clus scale="   57.201">  1  5  2 -1</clus>
</clustering>
</event>
<event>
 9    1  0.1234700E-005  0.2727704E+03  0.7546771E-02  0.1099706E+00
          2   -1    0    0  502    0  0.00000000000E+00  0.00000000000E+00  0.70418848714E+03  0.70418848714E+03  0.00000000000E+00 0. -1.
         -2   -1    0    0    0  501 -0.00000000000E+00 -0.00000000000E+00 -0.14692812588E+03  0.14692812588E+03  0.00000000000E+00 0.  1.
         23    2    1    2    0    0 -0.10813590665E+03  0.23406295711E+03  0.73700742454E+02  0.28239780796E+03  0.88531803912E+02 0.  0.
         23    2    1    2    0    0  0.12835586059E+03 -0.22415333884E+03  0.46620749624E+03  0.54029094498E+03  0.88571606165E+02 0.  0.
        -13    1    4    4    0    0  0.11790595269E+03 -0.14272323603E+03  0.37064372984E+03  0.41430485183E+03  0.00000000000E+00 0. -1.
         13    1    4    4    0    0  0.10449907899E+02 -0.81430102806E+02  0.95563766400E+02  0.12598609315E+03  0.00000000000E+00 0.  1.
        -13    1    3    3    0    0 -0.55088113473E+02  0.81499612644E+02  0.70175216442E+02  0.12083645191E+03  0.00000000000E+00 0. -1.
         13    1    3    3    0    0 -0.53047793182E+02  0.15256334446E+03  0.35255260117E+01  0.16156135605E+03  0.00000000000E+00 0.  1.
         21    1    1    2  502  501 -0.20219953934E+02 -0.99096182653E+01  0.17352122564E+02  0.28427860080E+02  0.00000000000E+00 0.  1.
<scales pt_clust_5="13000.00000" pt_clust_6="13000.00000" pt_clust_7="13000.00000" pt_clust_8="13000.00000" pt_clust_9="22.51771"></scales>
<clustering>
<clus scale="   22.518">  2  9  1 -1</clus>
<clus scale="   88.532">  7  8 -1 -1</clus>
<clus scale="   88.572">  5  6 -1 -1</clus>
<clus scale="  272.757">  2  7  1 -1</clus>
<clus scale="  272.770">  1  5  2 -1</clus>
</clustering>
</event>
<event>
 9    1  0.1234700E-005  0.9505194E+02  0.7546771E-02  0.1291699E+00
          1   -1    0    0  502    0  0.00000000000E+00  0.00000000000E+00  0.27383003875E+03  0.27383003875E+03  0.00000000000E+00 0. -1.
         -1   -1    0    0    0  501 -0.00000000000E+00 -0.00000000000E+00 -0.83819972846E+02  0.83819972846E+02  0.00000000000E+00 0.  1.
         23    2    1    2    0    0 -0.31254925344E+02  0.21077922999E+02  0.36775168133E+01  0.98496595546E+02  0.90922527505E+02 0.  0.
         23    2    1    2    0    0  0.16163572552E+02 -0.47717608302E+01  0.22792606131E+02  0.94111140264E+02  0.89740587520E+02 0.  0.
        -13    1    4    4    0    0  0.50975939545E+02 -0.65643227945E+01 -0.18365399093E+01  0.51429657057E+02  0.00000000000E+00 0.  1.
         13    1    4    4    0    0 -0.34812366992E+02  0.17925619643E+01  0.24629146040E+02  0.42681483206E+02  0.00000000000E+00 0. -1.
        -13    1    3    3    0    0  0.73057857285E+01 -0.25677863761E+02 -0.20075126134E+02  0.33402662794E+02  0.00000000000E+00 0.  1.
         13    1    3    3    0    0 -0.38560711072E+02  0.46755786760E+02  0.23752642948E+02  0.65093932751E+02  0.00000000000E+00 0. -1.
         21    1    1    2  502  501  0.15091352791E+02 -0.16306162169E+02  0.16353994296E+03  0.16504227579E+03  0.00000000000E+00 0. -1.
<scales pt_clust_5="13000.00000" pt_clust_6="13000.00000" pt_clust_7="13000.00000" pt_clust_8="13000.00000" pt_clust_9="22.21801"></scales>
<clustering>
<clus scale="   22.218">  1  9  2 -1</clus>
<clus scale="   89.741">  5  6 -1 -1</clus>
<clus scale="   90.923">  7  8 -1 -1</clus>
<clus scale="   93.922">  1  5  2 -1</clus>
<clus scale="   22.218">  1  5  2 -1</clus>
</clustering>
</event>
<event>
 9    1  0.1234700E-005  0.1045023E+03  0.7546771E-02  0.1271883E+00
         -1   -1    0    0    0  501 -0.00000000000E+00  0.00000000000E+00  0.21164629418E+03  0.21164629418E+03  0.00000000000E+00 0.  1.
          1   -1    0    0  502    0  0.00000000000E+00 -0.00000000000E+00 -0.73563646274E+02  0.73563646274E+02  0.00000000000E+00 0. -1.
         23    2    1    2    0    0 -0.45109653977E+02 -0.27582608805E+02  0.90122533206E+02  0.13843875069E+03  0.90815943045E+02 0.  0.
         23    2    1    2    0    0  0.16380071582E+02  0.45502519255E+02  0.31336806368E+02  0.10905055251E+03  0.92581000023E+02 0.  0.
        -11    1    3    3    0    0  0.26999546807E+02 -0.12190297718E+02  0.15108274123E+02  0.33254155127E+02  0.00000000000E+00 0. -1.
         11    1    3    3    0    0 -0.72109200784E+02 -0.15392311087E+02  0.75014259082E+02  0.10518459556E+03  0.00000000000E+00 0.  1.
        -13    1    4    4    0    0  0.50065654426E+02  0.49616550008E+02  0.19956195621E+02  0.73257228527E+02  0.00000000000E+00 0. -1.
         13    1    4    4    0    0 -0.33685582844E+02 -0.41140307534E+01  0.11380610747E+02  0.35793323980E+02  0.00000000000E+00 0.  1.
         21    1    1    2  502  501  0.28729582395E+02 -0.17919910449E+02  0.16623308333E+02  0.37720637256E+02  0.00000000000E+00 0. -1.
<scales pt_clust_5="13000.00000" pt_clust_6="13000.00000" pt_clust_7="13000.00000" pt_clust_8="13000.00000" pt_clust_9="33.86018"></scales>
<clustering>
<clus scale="   33.860">  2  9  1 -1</clus>
<clus scale="   90.816">  5  6 -1 -1</clus>
<clus scale="   92.581">  7  8 -1 -1</clus>
<clus scale="  102.942">  1  5  2 -1</clus>
<clus scale="   33.860">  2  5  1 -1</clus>
</clustering>
</event>
<event>
 9    1  0.1234700E-005  0.1034601E+03  0.7546771E-02  0.1273510E+00
         -1   -1    0    0    0  501 -0.00000000000E+00  0.00000000000E+00  0.15597440960E+03  0.15597440960E+03  0.00000000000E+00 0.  1.
          1   -1    0    0  502    0  0.00000000000E+00 -0.00000000000E+00 -0.86026121525E+02  0.86026121525E+02  0.00000000000E+00 0. -1.
         23    2    1    2    0    0  0.10600849177E+02 -0.51323879993E+02  0.47512411997E+02  0.11413183773E+03  0.89566335353E+02 0.  0.
         23    2    1    2    0    0 -0.30476044977E+02  0.43556908138E+02  0.12284389069E+02  0.10423816339E+03  0.88818325408E+02 0.  0.
        -11    1    4    4    0    0 -0.59095128308E+02  0.10906996047E+02  0.68873488596E+01  0.60486629323E+02  0.00000000000E+00 0. -1.
         11    1    4    4    0    0  0.28619083332E+02  0.32649912090E+02  0.53970402091E+01  0.43751534068E+02  0.00000000000E+00 0.  1.
        -13    1    3    3    0    0  0.27643628110E+02 -0.37323814963E+02 -0.14222871166E+02  0.48574966831E+02  0.00000000000E+00 0. -1.
         13    1    3    3    0    0 -0.17042778933E+02 -0.14000065030E+02  0.61735283163E+02  0.65556870897E+02  0.00000000000E+00 0.  1.
         21    1    1    2  502  501  0.19875195800E+02  0.77669718557E+01  0.10151487008E+02  0.23630530006E+02  0.00000000000E+00 0. -1.
<scales pt_clust_5="13000.00000" pt_clust_6="13000.00000" pt_clust_7="13000.00000" pt_clust_8="13000.00000" pt_clust_9="21.33891"></scales>
<clustering>
<clus scale="   21.339">  1  9  2 -1</clus>
<clus scale="   88.818">  5  6 -1 -1</clus>
<clus scale="   89.566">  7  8 -1 -1</clus>
<clus scale="  102.813">  2  5  1 -1</clus>
<clus scale="  102.813">  2  5  1 -1</clus>
</clustering>
</event>
<event>
 9    1  0.1234700E-005  0.2007791E+03  0.7546771E-02  0.1149674E+00
          1   -1    0    0  502    0  0.00000000000E+00  0.00000000000E+00  0.42258401639E+03  0.42258401639E+03  0.00000000000E+00 0. -1.
         -1   -1    0    0    0  501 -0.00000000000E+00 -0.00000000000E+00 -0.39853757423E+03  0.39853757423E+03  0.00000000000E+00 0.  1.
         23    2    1    2    0    0  0.20712670852E+03  0.37237374852E+02 -0.22796179860E+03  0.32490360824E+03  0.96476305692E+02 0.  0.
         23    2    1    2    0    0 -0.13496840060E+03 -0.16765193813E+02 -0.60968269829E+02  0.17437915970E+03  0.90517515038E+02 0.  0.
        -11    1    4    4    0    0 -0.10660011053E+03 -0.42668581669E+02 -0.17134041459E+02  0.11609378451E+03  0.00000000000E+00 0.  1.
         11    1    4    4    0    0 -0.28368290070E+02  0.25903387856E+02 -0.43834228370E+02  0.58285375187E+02  0.00000000000E+00 0. -1.
        -13    1    3    3    0    0  0.14405732883E+03  0.25805687782E+02 -0.21407518117E+03  0.25931955327E+03  0.00000000000E+00 0.  1.
         13    1    3    3    0    0  0.63069379688E+02  0.11431687070E+02 -0.13886617426E+02  0.65584054975E+02  0.00000000000E+00 0. -1.
         21    1    1    2  502  501 -0.72158307924E+02 -0.20472181039E+02  0.31297651060E+03  0.32183882268E+03  0.00000000000E+00 0. -1.
<scales pt_clust_5="13000.00000" pt_clust_6="13000.00000" pt_clust_7="13000.00000" pt_clust_8="13000.00000" pt_clust_9="75.00621"></scales>
<clustering>
<clus scale="   75.006">  1  9  2 -1</clus>
<clus scale="   90.518">  5  6 -1 -1</clus>
<clus scale="   96.476">  7  8 -1 -1</clus>
<clus scale="  197.985">  1  5  2 -1</clus>
<clus scale="   75.006">  1  5  2 -1</clus>
</clustering>
</event>
<event>
 9    1  0.1332458E-005  0.1037574E+03  0.7546771E-02  0.1273148E+00
         -1   -1    0    0    0  501 -0.00000000000E+00  0.00000000000E+00  0.44291784879E+03  0.44291784879E+03  0.00000000000E+00 0.  1.
          1   -1    0    0  502    0  0.00000000000E+00 -0.00000000000E+00 -0.43209252203E+02  0.43209252203E+02  0.00000000000E+00 0. -1.
         23    2    1    2    0    0  0.39038677534E+02  0.35120497453E+02  0.32521852665E+03  0.34212116920E+03  0.92316502611E+02 0.  0.
         23    2    1    2    0    0 -0.27894990986E+02 -0.12439899034E+02  0.47921870614E+02  0.10733904605E+03  0.91061976225E+02 0.  0.
        -11    1    4    4    0    0  0.33349191526E+02 -0.12692187663E+01  0.21567856156E+02  0.39736027870E+02  0.00000000000E+00 0.  1.
         11    1    4    4    0    0 -0.61244182512E+02 -0.11170680268E+02  0.26354014458E+02  0.67603018182E+02  0.00000000000E+00 0. -1.
        -11    1    3    3    0    0  0.52852059208E+02  0.86271675942E+01  0.29427202410E+03  0.29910498550E+03  0.00000000000E+00 0.  1.
         11    1    3    3    0    0 -0.13813381674E+02  0.26493329858E+02  0.30946502557E+02  0.43016183707E+02  0.00000000000E+00 0. -1.
         21    1    1    2  502  501 -0.11143686548E+02 -0.22680598419E+02  0.26568199315E+02  0.36666885733E+02  0.00000000000E+00 0. -1.
<scales pt_clust_5="13000.00000" pt_clust_6="13000.00000" pt_clust_7="13000.00000" pt_clust_8="13000.00000" pt_clust_9="25.27036"></scales>
<clustering>
<clus scale="   25.270">  2  9  1 -1</clus>
<clus scale="   91.062">  5  6 -1 -1</clus>
<clus scale="   92.317">  7  8 -1 -1</clus>
<clus scale="  102.643">  2  5  1 -1</clus>
<clus scale="   25.270">  2  5  1 -1</clus>
</clustering>
</event>
<event>
 9    1  0.1234700E-005  0.1294475E+03  0.7546771E-02  0.1228887E+00
         -1   -1    0    0    0  501 -0.00000000000E+00  0.00000000000E+00  0.70416810950E+03  0.70416810950E+03  0.00000000000E+00 0.  1.
          1   -1    0    0  502    0  0.00000000000E+00 -0.00000000000E+00 -0.38505799861E+02  0.38505799861E+02  0.00000000000E+00 0. -1.
         23    2    1    2    0    0  0.95023163658E+02 -0.19940496661E+01  0.41499086045E+03  0.43546202650E+03  0.91522589559E+02 0.  0.
         23    2    1    2    0    0 -0.84618783871E+02  0.26084435830E+02  0.25127846401E+03  0.28096371547E+03  0.89213264482E+02 0.  0.
        -11    1    3    3    0    0  0.54689846003E+02 -0.42360811017E+02  0.28878863527E+03  0.29695840353E+03  0.00000000000E+00 0.  1.
         11    1    3    3    0    0  0.40333317655E+02  0.40366761351E+02  0.12620222518E+03  0.13850362296E+03  0.00000000000E+00 0. -1.
        -13    1    4    4    0    0 -0.27141674832E+02 -0.32464313193E+02  0.10572441937E+03  0.11387824636E+03  0.00000000000E+00 0.  1.
         13    1    4    4    0    0 -0.57477109039E+02  0.58548749023E+02  0.14555404464E+03  0.16708546911E+03  0.00000000000E+00 0. -1.
         21    1    1    2  502  501 -0.10404379787E+02 -0.24090386164E+02 -0.60701482382E+00  0.26248167389E+02  0.00000000000E+00 0. -1.
<scales pt_clust_5="13000.00000" pt_clust_6="13000.00000" pt_clust_7="13000.00000" pt_clust_8="13000.00000" pt_clust_9="26.24115"></scales>
<clustering>
<clus scale="   26.241">  2  9  1 -1</clus>
<clus scale="   89.213">  7  8 -1 -1</clus>
<clus scale="   91.523">  5  6 -1 -1</clus>
<clus scale="  127.825">  2  7  1 -1</clus>
<clus scale="   26.241">  2  5  1 -1</clus>
</clustering>
</event>
<event>
 9    1  0.1234700E-005  0.9978131E+02  0.7546771E-02  0.1281172E+00
          2   -1    0    0  502    0  0.00000000000E+00  0.00000000000E+00  0.10882838585E+04  0.10882838585E+04  0.00000000000E+00 0. -1.
         -2   -1    0    0    0  501 -0.00000000000E+00 -0.00000000000E+00 -0.23031383547E+02  0.23031383547E+02  0.00000000000E+00 0.  1.
         23    2    1    2    0    0 -0.11819727848E+01  0.28212589648E+02  0.16444666769E+03  0.18986218946E+03  0.90595790187E+02 0.  0.
         23    2    1    2    0    0 -0.41396112615E+02 -0.69530628975E+02  0.42111158838E+03  0.43810367857E+03  0.89731359079E+02 0.  0.
        -11    1    4    4    0    0 -0.24346595056E+02 -0.90307351862E+02  0.31105470208E+03  0.32481256469E+03  0.00000000000E+00 0.  1.
         11    1    4    4    0    0 -0.17049517559E+02  0.20776722887E+02  0.11005688630E+03  0.11329111388E+03  0.00000000000E+00 0. -1.
        -11    1    3    3    0    0  0.30639684091E+02  0.46749246733E+02  0.11815054747E+03  0.13070514213E+03  0.00000000000E+00 0.  1.
         11    1    3    3    0    0 -0.31821656876E+02 -0.18536657084E+02  0.46296120220E+02  0.59157047337E+02  0.00000000000E+00 0. -1.
         21    1    1    2  502  501  0.42578085400E+02  0.41318039327E+02  0.47969421890E+03  0.48334937403E+03  0.00000000000E+00 0. -1.
<scales pt_clust_5="13000.00000" pt_clust_6="13000.00000" pt_clust_7="13000.00000" pt_clust_8="13000.00000" pt_clust_9="59.33021"></scales>
<clustering>
<clus scale="   59.330">  1  9  2 -1</clus>
<clus scale="   89.731">  5  6 -1 -1</clus>
<clus scale="   90.596">  7  8 -1 -1</clus>
<clus scale="   98.997">  1  5  2 -1</clus>
<clus scale="   59.330">  1  5  2 -1</clus>
</clustering>
</event>
<event>
 9    1  0.1234700E-005  0.1016944E+03  0.7546771E-02  0.1277870E+00
         -2   -1    0    0    0  501 -0.00000000000E+00  0.00000000000E+00  0.31785467384E+03  0.31785467384E+03  0.00000000000E+00 0.  1.
          2   -1    0    0  502    0  0.00000000000E+00 -0.00000000000E+00 -0.60347081979E+02  0.60347081979E+02  0.00000000000E+00 0. -1.
         23    2    1    2    0    0 -0.31166733139E+02 -0.70076002191E+02  0.16872953878E+03  0.20628642150E+03  0.90567207666E+02 0.  0.
         23    2    1    2    0    0 -0.11877519366E+01  0.36504529974E+02  0.37359538151E+02  0.10250553580E+03  0.88191033081E+02 0.  0.
        -11    1    3    3    0    0  0.27528126280E+02 -0.40571682832E+00  0.36725383673E+02  0.45898977641E+02  0.00000000000E+00 0.  1.
         11    1    3    3    0    0 -0.58694859419E+02 -0.69670285363E+02  0.13200415510E+03  0.16038744386E+03  0.00000000000E+00 0. -1.
        -13    1    4    4    0    0 -0.44390053381E+02  0.13478427723E+02  0.20617889847E+02  0.50766546413E+02  0.00000000000E+00 0. -1.
         13    1    4    4    0    0  0.43202301444E+02  0.23026102252E+02  0.16741648304E+02  0.51738989388E+02  0.00000000000E+00 0.  1.
         21    1    1    2  502  501  0.32354485076E+02  0.33571472217E+02  0.51418514930E+02  0.69409798508E+02  0.00000000000E+00 0.  1.
<scales pt_clust_5="13000.00000" pt_clust_6="13000.00000" pt_clust_7="13000.00000" pt_clust_8="13000.00000" pt_clust_9="46.62463"></scales>
<clustering>
<clus scale="   46.625">  1  9  2 -1</clus>
<clus scale="   88.191">  7  8 -1 -1</clus>
<clus scale="   90.567">  5  6 -1 -1</clus>
<clus scale="   99.584">  2  7  1 -1</clus>
<clus scale="   99.584">  2  5  1 -1</clus>
</clustering>
</event>
<event>
 9    1  0.1234700E-005  0.9691888E+02  0.7546771E-02  0.1287979E+00
         -1   -1    0    0    0  501 -0.00000000000E+00  0.00000000000E+00  0.60487794728E+02  0.60487794728E+02  0.00000000000E+00 0.  1.
          1   -1    0    0  502    0  0.00000000000E+00 -0.00000000000E+00 -0.23834124616E+03  0.23834124616E+03  0.00000000000E+00 0. -1.
         23    2    1    2    0    0 -0.33578912152E+02 -0.40404377360E+01 -0.28452565012E+02  0.10233097575E+03  0.92294158337E+02 0.  0.
         23    2    1    2    0    0  0.16700393445E+02  0.24111443084E+02 -0.86777550542E+02  0.12860541572E+03  0.90270398498E+02 0.  0.
        -11    1    4    4    0    0  0.27625266757E+02  0.44519530249E+02 -0.16991647117E+02  0.55080486643E+02  0.00000000000E+00 0.  1.
         11    1    4    4    0    0 -0.10924873312E+02 -0.20408087166E+02 -0.69785903425E+02  0.73524929075E+02  0.00000000000E+00 0. -1.
        -11    1    3    3    0    0 -0.11270340203E+02  0.28153524157E+02  0.22717578225E+02  0.37891025998E+02  0.00000000000E+00 0.  1.
         11    1    3    3    0    0 -0.22308571949E+02 -0.32193961893E+02 -0.51170143237E+02  0.64439949749E+02  0.00000000000E+00 0. -1.
         21    1    1    2  502  501  0.16878518707E+02 -0.20071005348E+02 -0.62623335876E+02  0.67892649423E+02  0.00000000000E+00 0.  1.
<scales pt_clust_5="13000.00000" pt_clust_6="13000.00000" pt_clust_7="13000.00000" pt_clust_8="13000.00000" pt_clust_9="26.22460"></scales>
<clustering>
<clus scale="   26.225">  2  9  1 -1</clus>
<clus scale="   90.270">  5  6 -1 -1</clus>
<clus scale="   92.294">  7  8 -1 -1</clus>
<clus scale="   94.994">  2  5  1 -1</clus>
<clus scale="   26.225">  2  5  1 -1</clus>
</clustering>
</event>
<event>
 9    1  0.1234700E-005  0.9436428E+02  0.7546771E-02  0.1293394E+00
          1   -1    0    0  502    0  0.00000000000E+00  0.00000000000E+00  0.10136473081E+03  0.10136473081E+03  0.00000000000E+00 0. -1.
         -1   -1    0    0    0  501 -0.00000000000E+00 -0.00000000000E+00 -0.15941407585E+03  0.15941407585E+03  0.00000000000E+00 0.  1.
         23    2    1    2    0    0 -0.17220327264E+02  0.14069327600E-01 -0.91492034963E+02  0.13028988268E+03  0.91148895757E+02 0.  0.
         23    2    1    2    0    0  0.17786635280E+02 -0.24008969534E+02  0.11412464658E+02  0.97909685719E+02  0.92537923011E+02 0.  0.
        -11    1    3    3    0    0  0.35754281874E+02 -0.13258170390E+02 -0.36426277797E+02  0.52735391044E+02  0.00000000000E+00 0.  1.
         11    1    3    3    0    0 -0.52974609138E+02  0.13272239717E+02 -0.55065757166E+02  0.77554491635E+02  0.00000000000E+00 0. -1.
        -13    1    4    4    0    0  0.56714833363E+01  0.31269203471E+02  0.24137103988E+02  0.39906498191E+02  0.00000000000E+00 0. -1.
         13    1    4    4    0    0  0.12115151944E+02 -0.55278173005E+02 -0.12724639329E+02  0.58003187528E+02  0.00000000000E+00 0.  1.
         21    1    1    2  502  501 -0.56630801638E+00  0.23994900206E+02  0.22030225262E+02  0.32579238263E+02  0.00000000000E+00 0.  1.
<scales pt_clust_5="13000.00000" pt_clust_6="13000.00000" pt_clust_7="13000.00000" pt_clust_8="13000.00000" pt_clust_9="24.00158"></scales>
<clustering>
<clus scale="   24.002">  1  9  2 -1</clus>
<clus scale="   91.149">  5  6 -1 -1</clus>
<clus scale="   92.538">  7  8 -1 -1</clus>
<clus scale="   93.003">  2  5  1 -1</clus>
<clus scale="   24.002">  1  5  2 -1</clus>
</clustering>
</event>
<event>
 9    1  0.1234700E-005  0.9250984E+02  0.7546771E-02  0.1300848E+00
         -2   -1    0    0    0  501 -0.00000000000E+00  0.00000000000E+00  0.32676224288E+03  0.32676224288E+03  0.00000000000E+00 0.  1.
          2   -1    0    0  502    0  0.00000000000E+00 -0.00000000000E+00 -0.58527664673E+02  0.58527664673E+02  0.00000000000E+00 0. -1.
         23    2    1    2    0    0  0.10330226991E+02 -0.16624634430E+02  0.23741588514E+03  0.25274287142E+03  0.84436748396E+02 0.  0.
         23    2    1    2    0    0 -0.18616290692E+02 -0.16323981836E+02  0.17157597784E+02  0.95928793546E+02  0.91076405327E+02 0.  0.
        -11    1    3    3    0    0 -0.31012751852E+02 -0.20536535783E+02  0.60510054876E+02  0.71028211440E+02  0.00000000000E+00 0. -1.
         11    1    3    3    0    0  0.41342978843E+02  0.39119013532E+01  0.17690583026E+03  0.18171465998E+03  0.00000000000E+00 0.  1.
        -13    1    4    4    0    0 -0.37596506527E+02  0.38076723333E+01  0.43572248912E+02  0.57676134985E+02  0.00000000000E+00 0.  1.
         13    1    4    4    0    0  0.18980215835E+02 -0.20131654170E+02 -0.26414651128E+02  0.38252658561E+02  0.00000000000E+00 0. -1.
         21    1    1    2  502  501  0.82860637010E+01  0.32948616266E+02  0.13661095283E+02  0.36618242583E+02  0.00000000000E+00 0. -1.
<scales pt_clust_5="13000.00000" pt_clust_6="13000.00000" pt_clust_7="13000.00000" pt_clust_8="13000.00000" pt_clust_9="33.97455"></scales>
<clustering>
<clus scale="   33.975">  2  9  1 -1</clus>
<clus scale="   84.437">  5  6 -1 -1</clus>
<clus scale="   85.981">  1  5  2 -1</clus>
<clus scale="   91.076">  7  8 -1 -1</clus>
<clus scale="   33.975">  2  5  1 -1</clus>
</clustering>
</event>
<event>
 9    1  0.1234700E-005  0.1791540E+03  0.7546771E-02  0.1169908E+00
         -1   -1    0    0    0  501 -0.00000000000E+00  0.00000000000E+00  0.14296374693E+03  0.14296374693E+03  0.00000000000E+00 0.  1.
          1   -1    0    0  502    0  0.00000000000E+00 -0.00000000000E+00 -0.78432272124E+03  0.78432272124E+03  0.00000000000E+00 0. -1.
         23    2    1    2    0    0  0.73597757199E+02 -0.12395294797E+03  0.55215356121E+02  0.18483802485E+03  0.10166315313E+03 0.  0.
         23    2    1    2    0    0 -0.88484225432E+02  0.15935820142E+03 -0.65376433560E+03  0.68493466614E+03  0.92212774962E+02 0.  0.
        -11    1    3    3    0    0  0.59805912377E+02 -0.77314794468E+02  0.83518071084E+02  0.12856746399E+03  0.00000000000E+00 0.  1.
         11    1    3    3    0    0  0.13791844823E+02 -0.46638153503E+02 -0.28302714963E+02  0.56270560865E+02  0.00000000000E+00 0. -1.
        -13    1    4    4    0    0 -0.59231289103E+02  0.16389224175E+03 -0.54271500546E+03  0.57000753475E+03  0.00000000000E+00 0. -1.
         13    1    4    4    0    0 -0.29252936328E+02 -0.45340403343E+01 -0.11104933014E+03  0.11492713139E+03  0.00000000000E+00 0.  1.
         21    1    1    2  502  501  0.14886468232E+02 -0.35405253449E+02 -0.42809994825E+02  0.57513777177E+02  0.00000000000E+00 0.  1.
<scales pt_clust_5="13000.00000" pt_clust_6="13000.00000" pt_clust_7="13000.00000" pt_clust_8="13000.00000" pt_clust_9="38.40754"></scales>
<clustering>
<clus scale="   38.408">  2  9  1 -1</clus>
<clus scale="   92.213">  7  8 -1 -1</clus>
<clus scale="  101.663">  5  6 -1 -1</clus>
<clus scale="  173.965">  2  7  1 -1</clus>
<clus scale="   38.408">  2  5  1 -1</clus>
</clustering>
</event>
<event>
 9    1  0.1234700E-005  0.1963646E+03  0.7546771E-02  0.1182976E+00
         -1   -1    0    0    0  501 -0.00000000000E+00  0.00000000000E+00  0.46640348759E+03  0.46640348759E+03  0.00000000000E+00 0.  1.
          1   -1    0    0  502    0  0.00000000000E+00 -0.00000000000E+00 -0.23597643175E+03  0.23597643175E+03  0.00000000000E+00 0. -1.
         23    2    1    2    0    0  0.10429090216E+03 -0.16552930221E+03  0.19261451581E+03  0.29075455671E+03  0.95714776187E+02 0.  0.
         23    2    1    2    0    0 -0.29953614970E+02  0.27135803959E+02 -0.14209348630E+03  0.17278447221E+03  0.89612187124E+02 0.  0.
        -11    1    3    3    0    0  0.11470769353E+03 -0.14544081985E+03  0.19381328634E+03  0.26809415696E+03  0.00000000000E+00 0.  1.
         11    1    3    3    0    0 -0.10416791367E+02 -0.20088482360E+02 -0.11987705302E+01  0.22660399747E+02  0.00000000000E+00 0. -1.
        -13    1    4    4    0    0 -0.17775591400E+02 -0.29697553548E+02 -0.82854230267E+02  0.89792760340E+02  0.00000000000E+00 0.  1.
         13    1    4    4    0    0 -0.12178023570E+02  0.56833357507E+02 -0.59239256038E+02  0.82991711872E+02  0.00000000000E+00 0. -1.
         21    1    1    2  502  501 -0.74337287192E+02  0.13839349826E+03  0.17990602634E+03  0.23884089042E+03  0.00000000000E+00 0. -1.
<scales pt_clust_5="13000.00000" pt_clust_6="13000.00000" pt_clust_7="13000.00000" pt_clust_8="13000.00000" pt_clust_9="171.45772"></scales>
<clustering>
<clus scale="   89.612">  7  8 -1 -1</clus>
<clus scale="   95.715">  5  6 -1 -1</clus>
<clus scale="   98.305">  2  7  1 -1</clus>
<clus scale="  171.458">  1  9  2 -1</clus>
<clus scale="   98.305">  2  5  1 -1</clus>
</clustering>
</event>
<event>
 9    1  0.1234700E-005  0.1407234E+03  0.7546771E-02  0.1212462E+00
         -1   -1    0    0    0  501 -0.00000000000E+00  0.00000000000E+00  0.37531221138E+03  0.37531221138E+03  0.00000000000E+00 0.  1.
          1   -1    0    0  502    0  0.00000000000E+00 -0.00000000000E+00 -0.10324304140E+03  0.10324304140E+03  0.00000000000E+00 0. -1.
         23    2    1    2    0    0  0.78487722121E+02 -0.93433179136E+02  0.25917532488E+03  0.30030663933E+03  0.90122955535E+02 0.  0.
         23    2    1    2    0    0 -0.67187529073E+02  0.36372667684E+02  0.17923787635E+02  0.11986285618E+03  0.90601915600E+02 0.  0.
        -11    1    3    3    0    0  0.51094125401E+02 -0.73359935712E+02  0.86757061188E+02  0.12457558944E+03  0.00000000000E+00 0.  1.
         11    1    3    3    0    0  0.27393596720E+02 -0.20073243424E+02  0.17241826369E+03  0.17573104989E+03  0.00000000000E+00 0. -1.
        -13    1    4    4    0    0  0.20175964550E+02  0.19835870242E+02  0.12054435327E+02  0.30754523323E+02  0.00000000000E+00 0.  1.
         13    1    4    4    0    0 -0.87363493622E+02  0.16536797441E+02  0.58693523079E+01  0.89108332854E+02  0.00000000000E+00 0. -1.
         21    1    1    2  502  501 -0.11300193048E+02  0.57060511453E+02 -0.50299425343E+01  0.58385757271E+02  0.00000000000E+00 0. -1.
<scales pt_clust_5="13000.00000" pt_clust_6="13000.00000" pt_clust_7="13000.00000" pt_clust_8="13000.00000" pt_clust_9="58.16869"></scales>
<clustering>
<clus scale="   58.169">  2  9  1 -1</clus>
<clus scale="   90.123">  5  6 -1 -1</clus>
<clus scale="   90.602">  7  8 -1 -1</clus>
<clus scale="  140.415">  1  5  2 -1</clus>
<clus scale="   58.169">  2  5  1 -1</clus>
</clustering>
</event>
<event>
 9    1  0.1234700E-005  0.9992027E+02  0.7546771E-02  0.1282836E+00
         -2   -1    0    0    0  501 -0.00000000000E+00  0.00000000000E+00  0.26069090100E+03  0.26069090100E+03  0.00000000000E+00 0.  1.
          2   -1    0    0  502    0  0.00000000000E+00 -0.00000000000E+00 -0.72153675858E+02  0.72153675858E+02  0.00000000000E+00 0. -1.
         23    2    1    2    0    0 -0.34577098622E+02 -0.30423638096E+02  0.15362709666E+03  0.18528060434E+03  0.92770922236E+02 0.  0.
         23    2    1    2    0    0  0.19739082760E+02  0.13319186007E+02  0.63485942528E+02  0.11110432161E+03  0.88015187765E+02 0.  0.
        -11    1    4    4    0    0  0.15027747322E+02 -0.28860035893E+02  0.60330522416E+02  0.68545654832E+02  0.00000000000E+00 0. -1.
         11    1    4    4    0    0  0.47113354377E+01  0.42179221900E+02  0.31554201118E+01  0.42558666777E+02  0.00000000000E+00 0.  1.
        -13    1    3    3    0    0  0.18642078886E+02 -0.34395647120E+02  0.26079541047E+02  0.47018401793E+02  0.00000000000E+00 0. -1.
         13    1    3    3    0    0 -0.53219177508E+02  0.39720090235E+01  0.12754755561E+03  0.13826220255E+03  0.00000000000E+00 0.  1.
         21    1    1    2  502  501  0.14838015862E+02  0.17104452089E+02 -0.28575814046E+02  0.36459650909E+02  0.00000000000E+00 0. -1.
<scales pt_clust_5="13000.00000" pt_clust_6="13000.00000" pt_clust_7="13000.00000" pt_clust_8="13000.00000" pt_clust_9="22.64352"></scales>
<clustering>
<clus scale="   22.644">  2  9  1 -1</clus>
<clus scale="   88.015">  5  6 -1 -1</clus>
<clus scale="   92.771">  7  8 -1 -1</clus>
<clus scale="   95.521">  2  5  1 -1</clus>
<clus scale="   22.644">  2  5  1 -1</clus>
</clustering>
</event>
<event>
 9    1  0.1234700E-005  0.1697361E+03  0.7546771E-02  0.1178356E+00
          1   -1    0    0  502    0  0.00000000000E+00  0.00000000000E+00  0.14649607837E+04  0.14649607837E+04  0.00000000000E+00 0. -1.
         -1   -1    0    0    0  501 -0.00000000000E+00 -0.00000000000E+00 -0.26857145897E+02  0.26857145897E+02  0.00000000000E+00 0.  1.
         23    2    1    2    0    0 -0.91582560062E+02 -0.97729023298E+02  0.48777333516E+03  0.51416264107E+03  0.92206657441E+02 0.  0.
         23    2    1    2    0    0  0.74526790894E+02  0.14063472967E+03  0.77605092167E+03  0.79736357620E+03  0.90560862835E+02 0.  0.
        -11    1    3    3    0    0 -0.67689564630E+02 -0.11436885714E+03  0.38214085611E+03  0.40459083844E+03  0.00000000000E+00 0.  1.
         11    1    3    3    0    0 -0.23892995432E+02  0.16639833839E+02  0.10563247904E+03  0.10957180262E+03  0.00000000000E+00 0. -1.
        -13    1    4    4    0    0  0.18908666253E+02  0.10431488473E+03  0.59801027497E+03  0.60733468681E+03  0.00000000000E+00 0. -1.
         13    1    4    4    0    0  0.55618124641E+02  0.36319844938E+02  0.17804064670E+03  0.19002888939E+03  0.00000000000E+00 0.  1.
         21    1    1    2  502  501  0.17055769168E+02 -0.42905706373E+02  0.17427938101E+03  0.18029171236E+03  0.00000000000E+00 0.  1.
<scales pt_clust_5="13000.00000" pt_clust_6="13000.00000" pt_clust_7="13000.00000" pt_clust_8="13000.00000" pt_clust_9="46.17141"></scales>
<clustering>
<clus scale="   46.171">  1  9  2 -1</clus>
<clus scale="   90.561">  7  8 -1 -1</clus>
<clus scale="   92.207">  5  6 -1 -1</clus>
<clus scale="  168.848">  1  7  2 -1</clus>
<clus scale="   46.171">  1  5  2 -1</clus>
</clustering>
</event>
<event>
 9    1  0.1234700E-005  0.9601026E+02  0.7546771E-02  0.1290090E+00
          1   -1    0    0  502    0  0.00000000000E+00  0.00000000000E+00  0.75286442299E+03  0.75286442299E+03  0.00000000000E+00 0. -1.
         -1   -1    0    0    0  501 -0.00000000000E+00 -0.00000000000E+00 -0.16324132262E+02  0.16324132262E+02  0.00000000000E+00 0.  1.
         23    2    1    2    0    0  0.11975518692E+02  0.27362667287E+02  0.25024975469E+03  0.26813781011E+03  0.91546801563E+02 0.  0.
         23    2    1    2    0    0  0.61394854844E+01 -0.11264259800E+02  0.34633352976E+03  0.35901104751E+03  0.93688001175E+02 0.  0.
        -11    1    3    3    0    0  0.42450070740E+02  0.33679718012E+02  0.91299612904E+02  0.10616944583E+03  0.00000000000E+00 0. -1.
         11    1    3    3    0    0 -0.30474552048E+02 -0.63170507244E+01  0.15895014179E+03  0.16196836428E+03  0.00000000000E+00 0.  1.
        -11    1    4    4    0    0 -0.37614060963E+02  0.11789862376E+02  0.94920691428E+02  0.10278013475E+03  0.00000000000E+00 0.  1.
         11    1    4    4    0    0  0.43753546448E+02 -0.23054122176E+02  0.25141283833E+03  0.25623091276E+03  0.00000000000E+00 0. -1.
         21    1    1    2  502  501 -0.18115004176E+02 -0.16098407488E+02  0.13995700627E+03  0.14203969764E+03  0.00000000000E+00 0.  1.
<scales pt_clust_5="13000.00000" pt_clust_6="13000.00000" pt_clust_7="13000.00000" pt_clust_8="13000.00000" pt_clust_9="24.23452"></scales>
<clustering>
<clus scale="   24.235">  1  9  2 -1</clus>
<clus scale="   91.547">  5  6 -1 -1</clus>
<clus scale="   93.688">  7  8 -1 -1</clus>
<clus scale="   93.922">  2  5  1 -1</clus>
<clus scale="   24.235">  1  5  2 -1</clus>
</clustering>
</event>
<event>
 9    1  0.1234700E-005  0.2809535E+03  0.7546771E-02  0.1095206E+00
         -1   -1    0    0    0  501 -0.00000000000E+00  0.00000000000E+00  0.25310370568E+03  0.25310370568E+03  0.00000000000E+00 0.  1.
          1   -1    0    0  502    0  0.00000000000E+00 -0.00000000000E+00 -0.72892872048E+03  0.72892872048E+03  0.00000000000E+00 0. -1.
         23    2    1    2    0    0  0.23942836295E+03 -0.12173919745E+03  0.12042071859E+03  0.30826814902E+03  0.91551783469E+02 0.  0.
         23    2    1    2    0    0 -0.23017139224E+03  0.96364388776E+02 -0.43242614608E+03  0.50773286562E+03  0.92386826960E+02 0.  0.
        -11    1    4    4    0    0 -0.65738739024E+02  0.32286963825E+02 -0.56689725603E+02  0.92616169379E+02  0.00000000000E+00 0. -1.
         11    1    4    4    0    0 -0.16443265321E+03  0.64077424950E+02 -0.37573642047E+03  0.41511669624E+03  0.00000000000E+00 0.  1.
        -13    1    3    3    0    0  0.12872116584E+03 -0.11519632461E+03  0.77942704153E+02  0.18951094129E+03  0.00000000000E+00 0.  1.
         13    1    3    3    0    0  0.11070719712E+03 -0.65428728355E+01  0.42478014437E+02  0.11875720773E+03  0.00000000000E+00 0. -1.
         21    1    1    2  502  501 -0.92569707142E+01  0.25374808672E+02 -0.16381958732E+03  0.16603141152E+03  0.00000000000E+00 0. -1.
<scales pt_clust_5="13000.00000" pt_clust_6="13000.00000" pt_clust_7="13000.00000" pt_clust_8="13000.00000" pt_clust_9="27.01060"></scales>
<clustering>
<clus scale="   27.011">  2  9  1 -1</clus>
<clus scale="   91.552">  7  8 -1 -1</clus>
<clus scale="   92.387">  5  6 -1 -1</clus>
<clus scale="  280.680">  1  7  2 -1</clus>
<clus scale="   27.011">  2  5  1 -1</clus>
</clustering>
</event>
<event>
 9    1  0.1234700E-005  0.9431785E+02  0.7546771E-02  0.1295824E+00
         -3   -1    0    0    0  501 -0.00000000000E+00  0.00000000000E+00  0.27591681867E+03  0.27591681867E+03  0.00000000000E+00 0.  1.
          3   -1    0    0  502    0  0.00000000000E+00 -0.00000000000E+00 -0.80059456202E+02  0.80059456202E+02  0.00000000000E+00 0. -1.
         23    2    1    2    0    0 -0.18022004015E+01  0.19599509486E+02  0.18754485509E+03  0.21030582137E+03  0.93102508716E+02 0.  0.
         23    2    1    2    0    0  0.30157952725E+02  0.15631474949E+02 -0.14206786097E+02  0.95149274457E+02  0.87736574682E+02 0.  0.
        -13    1    3    3    0    0  0.10945706772E+02  0.45777187124E+02  0.46056398758E+02  0.65852495961E+02  0.00000000000E+00 0. -1.
         13    1    3    3    0    0 -0.12747907174E+02 -0.26177677638E+02  0.14148845634E+03  0.14445332540E+03  0.00000000000E+00 0.  1.
        -13    1    4    4    0    0  0.49751559880E+02  0.39092602102E+02 -0.63624276696E+01  0.63591899920E+02  0.00000000000E+00 0.  1.
         13    1    4    4    0    0 -0.19593607154E+02 -0.23461127152E+02 -0.78443584274E+01  0.31557374538E+02  0.00000000000E+00 0. -1.
         21    1    1    2  502  501 -0.28355752324E+02 -0.35230984436E+02  0.22519293470E+02  0.50521179049E+02  0.00000000000E+00 0. -1.
<scales pt_clust_5="13000.00000" pt_clust_6="13000.00000" pt_clust_7="13000.00000" pt_clust_8="13000.00000" pt_clust_9="45.22467"></scales>
<clustering>
<clus scale="   45.225">  2  9  1 -1</clus>
<clus scale="   87.737">  7  8 -1 -1</clus>
<clus scale="   89.025">  2  7  1 -1</clus>
<clus scale="   93.103">  5  6 -1 -1</clus>
<clus scale="   45.225">  2  5  1 -1</clus>
</clustering>
</event>
<event>
 9    1  0.1234700E-005  0.9956188E+02  0.7546771E-02  0.1281445E+00
         -1   -1    0    0    0  501 -0.00000000000E+00  0.00000000000E+00  0.33982305770E+02  0.33982305770E+02  0.00000000000E+00 0.  1.
          1   -1    0    0  502    0  0.00000000000E+00 -0.00000000000E+00 -0.58207780977E+03  0.58207780977E+03  0.00000000000E+00 0. -1.
         23    2    1    2    0    0 -0.30873519307E+02 -0.18593093507E+02 -0.70132380170E+02  0.12123124114E+03  0.92084666259E+02 0.  0.
         23    2    1    2    0    0  0.25883663857E+02  0.41733694262E+02 -0.37191051275E+03  0.38616635843E+03  0.91626205819E+02 0.  0.
        -11    1    3    3    0    0 -0.51837007465E+02 -0.15509974434E+02 -0.69032826300E+01  0.54546218576E+02  0.00000000000E+00 0.  1.
         11    1    3    3    0    0  0.20963488158E+02 -0.30831190733E+01 -0.63229097540E+02  0.66685022566E+02  0.00000000000E+00 0. -1.
        -11    1    4    4    0    0 -0.25662243532E+02 -0.44032264215E+01 -0.44763829763E+02  0.51785515359E+02  0.00000000000E+00 0.  1.
         11    1    4    4    0    0  0.51545907389E+02  0.46136920684E+02 -0.32714668299E+03  0.33438084307E+03  0.00000000000E+00 0. -1.
         21    1    1    2  502  501  0.49898554497E+01 -0.23140600755E+02 -0.10605261107E+03  0.10866251597E+03  0.00000000000E+00 0.  1.
<scales pt_clust_5="13000.00000" pt_clust_6="13000.00000" pt_clust_7="13000.00000" pt_clust_8="13000.00000" pt_clust_9="23.67247"></scales>
<clustering>
<clus scale="   23.672">  2  9  1 -1</clus>
<clus scale="   91.626">  7  8 -1 -1</clus>
<clus scale="   92.085">  5  6 -1 -1</clus>
<clus scale="   99.138">  2  7  1 -1</clus>
<clus scale="   23.672">  2  5  1 -1</clus>
</clustering>
</event>
<event>
 9    1  0.1234700E-005  0.2508256E+03  0.7546771E-02  0.1143412E+00
         -4   -1    0    0    0  501 -0.00000000000E+00  0.00000000000E+00  0.18029893871E+03  0.18029893871E+03  0.00000000000E+00 0.  1.
          4   -1    0    0  502    0  0.00000000000E+00 -0.00000000000E+00 -0.91531303724E+03  0.91531303724E+03  0.00000000000E+00 0. -1.
         23    2    1    2    0    0 -0.63353958654E+02 -0.41968124745E+02  0.40538348531E+02  0.12467222069E+03  0.90137435833E+02 0.  0.
         23    2    1    2    0    0  0.27727831613E+03 -0.21052542752E+02 -0.20182587453E+03  0.35539331892E+03  0.90797870852E+02 0.  0.
        -13    1    4    4    0    0  0.16005703752E+03 -0.31200516069E+02 -0.66600869164E+02  0.17614597139E+03  0.00000000000E+00 0.  1.
         13    1    4    4    0    0  0.11722127861E+03  0.10147973317E+02 -0.13522500536E+03  0.17924734753E+03  0.00000000000E+00 0. -1.
        -13    1    3    3    0    0 -0.23575466005E+01 -0.55000880302E+02  0.13448801733E+02  0.56670319639E+02  0.00000000000E+00 0.  1.
         13    1    3    3    0    0 -0.60996412054E+02  0.13032755557E+02  0.27089546798E+02  0.68001901051E+02  0.00000000000E+00 0. -1.
         21    1    1    2  502  501 -0.21392435748E+03  0.63020667497E+02 -0.57372657254E+03  0.61554643634E+03  0.00000000000E+00 0. -1.
<scales pt_clust_5="13000.00000" pt_clust_6="13000.00000" pt_clust_7="13000.00000" pt_clust_8="13000.00000" pt_clust_9="233.81455"></scales>
<clustering>
<clus scale="   90.137">  7  8 -1 -1</clus>
<clus scale="   90.798">  5  6 -1 -1</clus>
<clus scale="  117.897">  1  7  2 -1</clus>
<clus scale="  233.815">  2  9  1 -1</clus>
<clus scale="  233.815">  2  5  1 -1</clus>
</clustering>
</event>
<event>
 9    1  0.1234700E-005  0.1810835E+03  0.7546771E-02  0.1167957E+00
          4   -1    0    0  502    0  0.00000000000E+00  0.00000000000E+00  0.86264950918E+02  0.86264950918E+02  0.00000000000E+00 0. -1.
         -4   -1    0    0    0  501 -0.00000000000E+00 -0.00000000000E+00 -0.10586778166E+04  0.10586778166E+04  0.00000000000E+00 0.  1.
         23    2    1    2    0    0  0.24477565933E+02 -0.15484034091E+03 -0.87081636618E+03  0.89043365490E+03  0.99881268382E+02 0.  0.
         23    2    1    2    0    0 -0.73728610438E+02  0.11245047131E+03 -0.97883499398E+02  0.18942184194E+03  0.90655602442E+02 0.  0.
        -11    1    4    4    0    0  0.19784706197E+02  0.14788534780E+02 -0.27578420398E+02  0.37023028400E+02  0.00000000000E+00 0.  1.
         11    1    4    4    0    0 -0.93513316635E+02  0.97661936530E+02 -0.70305078999E+02  0.15239881354E+03  0.00000000000E+00 0. -1.
        -13    1    3    3    0    0  0.56929442799E+02 -0.10926575628E+03 -0.69788230813E+03  0.70867459596E+03  0.00000000000E+00 0.  1.
         13    1    3    3    0    0 -0.32451876866E+02 -0.45574584632E+02 -0.17293405805E+03  0.18175905895E+03  0.00000000000E+00 0. -1.
         21    1    1    2  502  501  0.49251044505E+02  0.42389869603E+02 -0.37130000708E+01  0.65087270640E+02  0.00000000000E+00 0. -1.
<scales pt_clust_5="13000.00000" pt_clust_6="13000.00000" pt_clust_7="13000.00000" pt_clust_8="13000.00000" pt_clust_9="64.98128"></scales>
<clustering>
<clus scale="   64.981">  1  9  2 -1</clus>
<clus scale="   90.656">  5  6 -1 -1</clus>
<clus scale="   99.881">  7  8 -1 -1</clus>
<clus scale="  176.163">  1  5  2 -1</clus>
<clus scale="   64.981">  1  5  2 -1</clus>
</clustering>
</event>
<event>
 9    1  0.1234700E-005  0.1131690E+03  0.7546771E-02  0.1255285E+00
         -1   -1    0    0    0  501 -0.00000000000E+00  0.00000000000E+00  0.33786493419E+03  0.33786493419E+03  0.00000000000E+00 0.  1.
          1   -1    0    0  502    0  0.00000000000E+00 -0.00000000000E+00 -0.11245336261E+03  0.11245336261E+03  0.00000000000E+00 0. -1.
         23    2    1    2    0    0 -0.74898467739E+02  0.14592021596E+02  0.24927237050E+03  0.27657511496E+03  0.92381664600E+02 0.  0.
         23    2    1    2    0    0  0.37983939774E+02  0.92463852830E+01  0.30627244631E+02  0.10374390393E+03  0.91085093006E+02 0.  0.
        -11    1    3    3    0    0 -0.14521537881E+02  0.41486764893E+02  0.15723535081E+03  0.16326353625E+03  0.00000000000E+00 0.  1.
         11    1    3    3    0    0 -0.60376929857E+02 -0.26894743296E+02  0.92037019691E+02  0.11331157871E+03  0.00000000000E+00 0. -1.
        -13    1    4    4    0    0  0.10010810804E+02 -0.38078591658E+02 -0.26857329904E+01  0.39464016994E+02  0.00000000000E+00 0. -1.
         13    1    4    4    0    0  0.27973128970E+02  0.47324976941E+02  0.33312977621E+02  0.64279886938E+02  0.00000000000E+00 0.  1.
         21    1    1    2  502  501  0.36914527965E+02 -0.23838406879E+02 -0.54488043554E+02  0.69999277909E+02  0.00000000000E+00 0.  1.
<scales pt_clust_5="13000.00000" pt_clust_6="13000.00000" pt_clust_7="13000.00000" pt_clust_8="13000.00000" pt_clust_9="43.94260"></scales>
<clustering>
<clus scale="   43.943">  2  9  1 -1</clus>
<clus scale="   91.085">  7  8 -1 -1</clus>
<clus scale="   92.382">  5  6 -1 -1</clus>
<clus scale="  112.113">  2  7  1 -1</clus>
<clus scale="   43.943">  2  5  1 -1</clus>
</clustering>
</event>
<event>
 9    1  0.1234700E-005  0.1260280E+03  0.7546771E-02  0.1233473E+00
          1   -1    0    0  502    0  0.00000000000E+00  0.00000000000E+00  0.67488652821E+03  0.67488652821E+03  0.00000000000E+00 0. -1.
         -1   -1    0    0    0  501 -0.00000000000E+00 -0.00000000000E+00 -0.51762086503E+02  0.51762086503E+02  0.00000000000E+00 0.  1.
         23    2    1    2    0    0  0.22568089993E+02  0.10238539938E+03  0.82909207085E+02  0.16099500917E+03  0.89740557526E+02 0.  0.
         23    2    1    2    0    0 -0.29940942446E+02 -0.36531977956E+02  0.33282053352E+03  0.34792994097E+03  0.89747929486E+02 0.  0.
        -11    1    4    4    0    0 -0.42859478382E+02  0.16846290353E+02  0.16819332302E+03  0.17438384757E+03  0.00000000000E+00 0.  1.
         11    1    4    4    0    0  0.12918535936E+02 -0.53378268309E+02  0.16462721049E+03  0.17354609340E+03  0.00000000000E+00 0. -1.
        -11    1    3    3    0    0  0.12061691655E+02  0.25351797002E+02  0.78221362855E+02  0.83107037149E+02  0.00000000000E+00 0. -1.
         11    1    3    3    0    0  0.10506398338E+02  0.77033602382E+02  0.46878442299E+01  0.77887972021E+02  0.00000000000E+00 0.  1.
         21    1    1    2  502  501  0.73728524528E+01 -0.65853421428E+02  0.20739470111E+03  0.21772366458E+03  0.00000000000E+00 0. -1.
<scales pt_clust_5="13000.00000" pt_clust_6="13000.00000" pt_clust_7="13000.00000" pt_clust_8="13000.00000" pt_clust_9="66.26486"></scales>
<clustering>
<clus scale="   66.265">  1  9  2 -1</clus>
<clus scale="   89.741">  7  8 -1 -1</clus>
<clus scale="   89.748">  5  6 -1 -1</clus>
<clus scale="  126.023">  2  7  1 -1</clus>
<clus scale="   66.265">  1  5  2 -1</clus>
</clustering>
</event>
<event>
 9    1  0.1234700E-005  0.1281164E+03  0.7546771E-02  0.1230360E+00
         -2   -1    0    0    0  501 -0.00000000000E+00  0.00000000000E+00  0.26748995526E+02  0.26748995526E+02  0.00000000000E+00 0.  1.
          2   -1    0    0  502    0  0.00000000000E+00 -0.00000000000E+00 -0.87027372623E+03  0.87027372623E+03  0.00000000000E+00 0. -1.
         23    2    1    2    0    0 -0.56143624536E+02  0.63232968851E+02 -0.21936954361E+03  0.25214400546E+03  0.91121281262E+02 0.  0.
         23    2    1    2    0    0  0.53660367616E+02 -0.86379921455E+02 -0.49021002586E+03  0.50892558394E+03  0.91424584507E+02 0.  0.
        -13    1    3    3    0    0  0.24349792218E+02  0.23313552938E+02 -0.72815069420E+02  0.80240067711E+02  0.00000000000E+00 0.  1.
         13    1    3    3    0    0 -0.80493416754E+02  0.39919415914E+02 -0.14655447419E+03  0.17190393774E+03  0.00000000000E+00 0. -1.
        -13    1    4    4    0    0  0.78500211985E+02 -0.67861058317E+02 -0.33698253107E+03  0.35259698348E+03  0.00000000000E+00 0.  1.
         13    1    4    4    0    0 -0.24839844369E+02 -0.18518863138E+02 -0.15322749479E+03  0.15632860046E+03  0.00000000000E+00 0. -1.
         21    1    1    2  502  501  0.24832569197E+01  0.23146952603E+02 -0.13394516124E+03  0.13595313236E+03  0.00000000000E+00 0. -1.
<scales pt_clust_5="13000.00000" pt_clust_6="13000.00000" pt_clust_7="13000.00000" pt_clust_8="13000.00000" pt_clust_9="23.27978"></scales>
<clustering>
<clus scale="   23.280">  2  9  1 -1</clus>
<clus scale="   91.121">  5  6 -1 -1</clus>
<clus scale="   91.425">  7  8 -1 -1</clus>
<clus scale="  127.900">  1  5  2 -1</clus>
<clus scale="   23.280">  2  5  1 -1</clus>
</clustering>
</event>
<event>
 9    1  0.1234700E-005  0.9079669E+02  0.7546771E-02  0.1302762E+00
          4   -1    0    0  502    0  0.00000000000E+00  0.00000000000E+00  0.82146481556E+02  0.82146481556E+02  0.00000000000E+00 0. -1.
         -4   -1    0    0    0  501 -0.00000000000E+00 -0.00000000000E+00 -0.17529116189E+03  0.17529116189E+03  0.00000000000E+00 0.  1.
         23    2    1    2    0    0 -0.94072258017E+01 -0.16237053995E+02 -0.10414396093E+03  0.13781675337E+03  0.88291308127E+02 0.  0.
         23    2    1    2    0    0 -0.98513344516E+01  0.33140097762E+02  0.55889122378E+00  0.91951290115E+02  0.85202186147E+02 0.  0.
        -11    1    3    3    0    0  0.45624634015E+00  0.34939082814E+02 -0.60377476697E+02  0.69759496564E+02  0.00000000000E+00 0.  1.
         11    1    3    3    0    0 -0.98634721418E+01 -0.51176136809E+02 -0.43766484232E+02  0.68057256802E+02  0.00000000000E+00 0. -1.
        -13    1    4    4    0    0 -0.44759216778E+02  0.62828060127E+01  0.11356793969E+02  0.46602981742E+02  0.00000000000E+00 0. -1.
         13    1    4    4    0    0  0.34907882326E+02  0.26857291749E+02 -0.10797902745E+02  0.45348308373E+02  0.00000000000E+00 0.  1.
         21    1    1    2  502  501  0.19258560253E+02 -0.16903043767E+02  0.10440389376E+02  0.27669599960E+02  0.00000000000E+00 0.  1.
<scales pt_clust_5="13000.00000" pt_clust_6="13000.00000" pt_clust_7="13000.00000" pt_clust_8="13000.00000" pt_clust_9="25.62431"></scales>
<clustering>
<clus scale="   25.624">  1  9  2 -1</clus>
<clus scale="   85.202">  7  8 -1 -1</clus>
<clus scale="   87.796">  1  7  2 -1</clus>
<clus scale="   88.291">  5  6 -1 -1</clus>
<clus scale="   25.624">  1  5  2 -1</clus>
</clustering>
</event>
<event>
 9    1  0.1234700E-005  0.1521464E+03  0.7546771E-02  0.1212811E+00
         -3   -1    0    0    0  501 -0.00000000000E+00  0.00000000000E+00  0.15418977642E+03  0.15418977642E+03  0.00000000000E+00 0.  1.
          3   -1    0    0  502    0  0.00000000000E+00 -0.00000000000E+00 -0.25638561754E+03  0.25638561754E+03  0.00000000000E+00 0. -1.
         23    2    1    2    0    0  0.44407178918E+02 -0.45338927561E+02  0.18739289757E+01  0.11029905066E+03  0.90192865989E+02 0.  0.
         23    2    1    2    0    0 -0.11171691850E+03 -0.59190054795E+02 -0.70803836622E+02  0.17157695897E+03  0.91876749526E+02 0.  0.
        -13    1    3    3    0    0  0.69836265479E+02 -0.47118539006E+02  0.60746437968E+01  0.84463968599E+02  0.00000000000E+00 0. -1.
         13    1    3    3    0    0 -0.25429086561E+02  0.17796114446E+01 -0.42007148211E+01  0.25835082064E+02  0.00000000000E+00 0.  1.
        -13    1    4    4    0    0 -0.12116542255E+03 -0.38176615645E+02 -0.40152475808E+02  0.13323188401E+03  0.00000000000E+00 0.  1.
         13    1    4    4    0    0  0.94485040517E+01 -0.21013439150E+02 -0.30651360814E+02  0.38345074957E+02  0.00000000000E+00 0. -1.
         21    1    1    2  502  501  0.67309739583E+02  0.10452898236E+03 -0.33265933470E+02  0.12869938432E+03  0.00000000000E+00 0. -1.
<scales pt_clust_5="13000.00000" pt_clust_6="13000.00000" pt_clust_7="13000.00000" pt_clust_8="13000.00000" pt_clust_9="121.27320"></scales>
<clustering>
<clus scale="   90.193">  5  6 -1 -1</clus>
<clus scale="   91.877">  7  8 -1 -1</clus>
<clus scale="  110.283">  1  5  2 -1</clus>
<clus scale="  121.273">  1  9  2 -1</clus>
<clus scale="  152.146">  2  5  1 -1</clus>
</clustering>
</event>
<event>
 9    1  0.1234700E-005  0.1136089E+03  0.7546771E-02  0.1254263E+00
         -2   -1    0    0    0  501 -0.00000000000E+00  0.00000000000E+00  0.40195314765E+03  0.40195314765E+03  0.00000000000E+00 0.  1.
          2   -1    0    0  502    0  0.00000000000E+00 -0.00000000000E+00 -0.44465777414E+02  0.44465777414E+02  0.00000000000E+00 0. -1.
         23    2    1    2    0    0  0.16693704859E+02 -0.69583232092E+02  0.22733124053E+03  0.25548303181E+03  0.92041189984E+02 0.  0.
         23    2    1    2    0    0  0.11101560696E+02  0.60427532653E+02  0.97458575287E+02  0.14705498984E+03  0.91390725933E+02 0.  0.
        -13    1    4    4    0    0  0.41629950637E+02  0.10684450320E+00  0.46376014665E+02  0.62320132718E+02  0.00000000000E+00 0.  1.
         13    1    4    4    0    0 -0.30528389941E+02  0.60320688150E+02  0.51082560622E+02  0.84734857119E+02  0.00000000000E+00 0. -1.
        -13    1    3    3    0    0 -0.46579509041E+01 -0.86611750287E+02  0.19314812820E+03  0.21172975989E+03  0.00000000000E+00 0.  1.
         13    1    3    3    0    0  0.21351655763E+02  0.17028518195E+02  0.34183112328E+02  0.43753271925E+02  0.00000000000E+00 0. -1.
         21    1    1    2  502  501 -0.27795265555E+02  0.91556994395E+01  0.32697554427E+02  0.43880903421E+02  0.00000000000E+00 0.  1.
<scales pt_clust_5="13000.00000" pt_clust_6="13000.00000" pt_clust_7="13000.00000" pt_clust_8="13000.00000" pt_clust_9="29.26437"></scales>
<clustering>
<clus scale="   29.264">  2  9  1 -1</clus>
<clus scale="   91.391">  5  6 -1 -1</clus>
<clus scale="   92.041">  7  8 -1 -1</clus>
<clus scale="  113.083">  2  5  1 -1</clus>
<clus scale="   29.264">  2  5  1 -1</clus>
</clustering>
</event>
<event>
 9    1  0.1234700E-005  0.1283420E+03  0.7546771E-02  0.1237106E+00
         -1   -1    0    0    0  501 -0.00000000000E+00  0.00000000000E+00  0.65334825963E+02  0.65334825963E+02  0.00000000000E+00 0.  1.
          1   -1    0    0  502    0  0.00000000000E+00 -0.00000000000E+00 -0.61649320589E+03  0.61649320589E+03  0.00000000000E+00 0. -1.
         23    2    1    2    0    0 -0.73520343364E+02  0.31931320166E+01 -0.13404030683E+02  0.11515492904E+03  0.87553141937E+02 0.  0.
         23    2    1    2    0    0  0.27918359199E+02  0.23940424264E+02 -0.44695484582E+03  0.46150504370E+03  0.10892975930E+03 0.  0.
        -11    1    4    4    0    0 -0.24517958409E+02  0.49952032647E+02 -0.19086250211E+03  0.19880852739E+03  0.00000000000E+00 0.  1.
         11    1    4    4    0    0  0.52436317608E+02 -0.26011608383E+02 -0.25609234371E+03  0.26269651631E+03  0.00000000000E+00 0. -1.
        -13    1    3    3    0    0 -0.41125571356E+02 -0.39386628418E+02  0.80531089876E+01  0.57510622339E+02  0.00000000000E+00 0.  1.
         13    1    3    3    0    0 -0.32394772008E+02  0.42579760434E+02 -0.21457139670E+02  0.57644306700E+02  0.00000000000E+00 0. -1.
         21    1    1    2  502  501  0.45601984165E+02 -0.27133556281E+02 -0.90799503422E+02  0.10516805911E+03  0.00000000000E+00 0. -1.
<scales pt_clust_5="13000.00000" pt_clust_6="13000.00000" pt_clust_7="13000.00000" pt_clust_8="13000.00000" pt_clust_9="53.06384"></scales>
<clustering>
<clus scale="   53.064">  2  9  1 -1</clus>
<clus scale="   87.553">  7  8 -1 -1</clus>
<clus scale="  108.930">  5  6 -1 -1</clus>
<clus scale="  110.777">  1  7  2 -1</clus>
<clus scale="   53.064">  2  5  1 -1</clus>
</clustering>
</event>
<event>
 9    1  0.1234700E-005  0.1641134E+03  0.7546771E-02  0.1192290E+00
         -2   -1    0    0    0  501 -0.00000000000E+00  0.00000000000E+00  0.25727021575E+03  0.25727021575E+03  0.00000000000E+00 0.  1.
          2   -1    0    0  502    0  0.00000000000E+00 -0.00000000000E+00 -0.12546140236E+03  0.12546140236E+03  0.00000000000E+00 0. -1.
         23    2    1    2    0    0 -0.10592215064E+02 -0.78214569932E+02  0.93879149025E+02  0.17676670261E+03  0.12729280640E+03 0.  0.
         23    2    1    2    0    0  0.42854516599E+02  0.11018105186E+03  0.24979469861E+01  0.14836180217E+03  0.89602515715E+02 0.  0.
        -11    1    3    3    0    0 -0.39813536028E+02 -0.72764912776E+02  0.11391976659E+03  0.14091686699E+03  0.00000000000E+00 0.  1.
         11    1    3    3    0    0  0.29221320964E+02 -0.54496571560E+01 -0.20040617565E+02  0.35849835625E+02  0.00000000000E+00 0. -1.
        -13    1    4    4    0    0  0.62666852097E+02  0.54841669191E+02  0.22519713721E+02  0.86266334902E+02  0.00000000000E+00 0.  1.
         13    1    4    4    0    0 -0.19812335498E+02  0.55339382673E+02 -0.20021766735E+02  0.62095467272E+02  0.00000000000E+00 0. -1.
         21    1    1    2  502  501 -0.32262301535E+02 -0.31966481932E+02  0.35431717387E+02  0.57603113322E+02  0.00000000000E+00 0.  1.
<scales pt_clust_5="13000.00000" pt_clust_6="13000.00000" pt_clust_7="13000.00000" pt_clust_8="13000.00000" pt_clust_9="45.41709"></scales>
<clustering>
<clus scale="   45.417">  1  9  2 -1</clus>
<clus scale="   89.603">  7  8 -1 -1</clus>
<clus scale="  127.293">  5  6 -1 -1</clus>
<clus scale="  136.961">  2  7  1 -1</clus>
<clus scale="  136.961">  2  5  1 -1</clus>
</clustering>
</event>
<event>
 9    1  0.1234700E-005  0.1200808E+03  0.7546771E-02  0.1247153E+00
         -1   -1    0    0    0  501 -0.00000000000E+00  0.00000000000E+00  0.22203604394E+03  0.22203604394E+03  0.00000000000E+00 0.  1.
          1   -1    0    0  502    0  0.00000000000E+00 -0.00000000000E+00 -0.75907111951E+02  0.75907111951E+02  0.00000000000E+00 0. -1.
         23    2    1    2    0    0 -0.13126028171E+02 -0.56241997508E+02  0.65400757716E+02  0.12588110665E+03  0.90737748491E+02 0.  0.
         23    2    1    2    0    0  0.39985764920E+02  0.57814626547E+02  0.58898986008E+02  0.13741479711E+03  0.10233446864E+03 0.  0.
        -11    1    4    4    0    0  0.23943099333E+02 -0.21965471054E+02  0.43980971725E+02  0.54681622125E+02  0.00000000000E+00 0.  1.
         11    1    4    4    0    0  0.16042665587E+02  0.79780097601E+02  0.14918014282E+02  0.82733174982E+02  0.00000000000E+00 0. -1.
        -11    1    3    3    0    0  0.29221292249E+02 -0.54288863391E+02  0.54060475190E+02  0.81998168192E+02  0.00000000000E+00 0.  1.
         11    1    3    3    0    0 -0.42347320420E+02 -0.19531341170E+01  0.11340282526E+02  0.43882938454E+02  0.00000000000E+00 0. -1.
         21    1    1    2  502  501 -0.26859736750E+02 -0.15726290396E+01  0.21829188264E+02  0.34647252137E+02  0.00000000000E+00 0.  1.
<scales pt_clust_5="13000.00000" pt_clust_6="13000.00000" pt_clust_7="13000.00000" pt_clust_8="13000.00000" pt_clust_9="26.90574"></scales>
<clustering>
<clus scale="   26.906">  1  9  2 -1</clus>
<clus scale="   90.738">  7  8 -1 -1</clus>
<clus scale="  102.334">  5  6 -1 -1</clus>
<clus scale="  110.365">  1  7  2 -1</clus>
<clus scale="  120.081">  2  5  1 -1</clus>
</clustering>
</event>
<event>
 9    1  0.1234700E-005  0.9595278E+02  0.7546771E-02  0.1292432E+00
         -2   -1    0    0    0  501 -0.00000000000E+00  0.00000000000E+00  0.34743143074E+03  0.34743143074E+03  0.00000000000E+00 0.  1.
          2   -1    0    0  502    0  0.00000000000E+00 -0.00000000000E+00 -0.43600235075E+02  0.43600235075E+02  0.00000000000E+00 0. -1.
         23    2    1    2    0    0  0.16340626757E+02 -0.33739205256E+02  0.23326909777E+03  0.25321315146E+03  0.91088298061E+02 0.  0.
         23    2    1    2    0    0  0.37619800388E-01  0.16973561461E+02  0.74329737154E+02  0.11407975117E+03  0.84859746629E+02 0.  0.
        -13    1    3    3    0    0  0.37831363375E+02  0.70193357332E+01  0.17366021520E+03  0.17787173320E+03  0.00000000000E+00 0.  1.
         13    1    3    3    0    0 -0.21490736617E+02 -0.40758540989E+02  0.59608882572E+02  0.75341418260E+02  0.00000000000E+00 0. -1.
        -13    1    4    4    0    0  0.21411909564E+02  0.45025500960E+02  0.53457317688E+02  0.73098908489E+02  0.00000000000E+00 0.  1.
         13    1    4    4    0    0 -0.21374289763E+02 -0.28051939500E+02  0.20872419466E+02  0.40980842682E+02  0.00000000000E+00 0. -1.
         21    1    1    2  502  501 -0.16378246557E+02  0.16765643796E+02 -0.37676392548E+01  0.23738763189E+02  0.00000000000E+00 0. -1.
<scales pt_clust_5="13000.00000" pt_clust_6="13000.00000" pt_clust_7="13000.00000" pt_clust_8="13000.00000" pt_clust_9="23.43787"></scales>
<clustering>
<clus scale="   23.438">  2  9  1 -1</clus>
<clus scale="   84.860">  7  8 -1 -1</clus>
<clus scale="   90.061">  2  7  1 -1</clus>
<clus scale="   91.088">  5  6 -1 -1</clus>
<clus scale="   23.438">  2  5  1 -1</clus>
</clustering>
</event>
<event>
 9    1  0.1234700E-005  0.2437236E+03  0.7546771E-02  0.1117415E+00
          1   -1    0    0  502    0  0.00000000000E+00  0.00000000000E+00  0.72848174069E+03  0.72848174069E+03  0.00000000000E+00 0. -1.
         -1   -1    0    0    0  501 -0.00000000000E+00 -0.00000000000E+00 -0.98505176100E+02  0.98505176100E+02  0.00000000000E+00 0.  1.
         23    2    1    2    0    0  0.99246506162E+01  0.20972422617E+03  0.25111426836E+03  0.33991433216E+03  0.91654938234E+02 0.  0.
         23    2    1    2    0    0  0.73746897710E+01 -0.24425860481E+03  0.28815003446E+03  0.38847945647E+03  0.90383591802E+02 0.  0.
        -13    1    4    4    0    0  0.23590933996E+02 -0.76986969048E+02  0.43073194858E+02  0.91317170813E+02  0.00000000000E+00 0. -1.
         13    1    4    4    0    0 -0.16216244225E+02 -0.16727163576E+03  0.24507683960E+03  0.29716228566E+03  0.00000000000E+00 0.  1.
        -13    1    3    3    0    0  0.36037402250E+02  0.90408347205E+02  0.64066005959E+02  0.11651959803E+03  0.00000000000E+00 0.  1.
         13    1    3    3    0    0 -0.26112751634E+02  0.11931587896E+03  0.18704826240E+03  0.22339473414E+03  0.00000000000E+00 0. -1.
         21    1    1    2  502  501 -0.17299340387E+02  0.34534378635E+02  0.90712261768E+02  0.98593128161E+02  0.00000000000E+00 0. -1.
<scales pt_clust_5="13000.00000" pt_clust_6="13000.00000" pt_clust_7="13000.00000" pt_clust_8="13000.00000" pt_clust_9="38.62500"></scales>
<clustering>
<clus scale="   38.625">  1  9  2 -1</clus>
<clus scale="   90.384">  5  6 -1 -1</clus>
<clus scale="   91.655">  7  8 -1 -1</clus>
<clus scale="  243.248">  1  5  2 -1</clus>
<clus scale="   38.625">  1  5  2 -1</clus>
</clustering>
</event>
<event>
 9    1  0.1234700E-005  0.1101203E+03  0.7546771E-02  0.1260362E+00
          3   -1    0    0  502    0  0.00000000000E+00  0.00000000000E+00  0.82816103930E+02  0.82816103930E+02  0.00000000000E+00 0. -1.
         -3   -1    0    0    0  501 -0.00000000000E+00 -0.00000000000E+00 -0.18935033867E+03  0.18935033867E+03  0.00000000000E+00 0.  1.
         23    2    1    2    0    0  0.98245570764E+01  0.70672933472E+02 -0.61587301800E+02  0.13111637240E+03  0.91144511194E+02 0.  0.
         23    2    1    2    0    0  0.94399522252E+01 -0.52717546357E+02 -0.44451726619E+02  0.11471069902E+03  0.91182981298E+02 0.  0.
        -11    1    4    4    0    0  0.39131492857E+02 -0.61642421034E+02 -0.40392277526E+02  0.83442182905E+02  0.00000000000E+00 0.  1.
         11    1    4    4    0    0 -0.29691540632E+02  0.89248746773E+01 -0.40594490929E+01  0.31268516115E+02  0.00000000000E+00 0. -1.
        -11    1    3    3    0    0 -0.29972914871E+02 -0.35744911993E+01 -0.25326642524E+02  0.39402936879E+02  0.00000000000E+00 0.  1.
         11    1    3    3    0    0  0.39797471947E+02  0.74247424671E+02 -0.36260659276E+02  0.91713435519E+02  0.00000000000E+00 0. -1.
         21    1    1    2  502  501 -0.19264509302E+02 -0.17955387114E+02 -0.49520632445E+00  0.26339371184E+02  0.00000000000E+00 0. -1.
<scales pt_clust_5="13000.00000" pt_clust_6="13000.00000" pt_clust_7="13000.00000" pt_clust_8="13000.00000" pt_clust_9="26.33472"></scales>
<clustering>
<clus scale="   26.335">  1  9  2 -1</clus>
<clus scale="   91.145">  7  8 -1 -1</clus>
<clus scale="   91.183">  5  6 -1 -1</clus>
<clus scale="  110.088">  2  7  1 -1</clus>
<clus scale="   26.335">  1  5  2 -1</clus>
</clustering>
</event>
<event>
 9    1  0.1234700E-005  0.1841377E+03  0.7546771E-02  0.1163892E+00
         -1   -1    0    0    0  501 -0.00000000000E+00  0.00000000000E+00  0.81891864777E+02  0.81891864777E+02  0.00000000000E+00 0.  1.
          1   -1    0    0  502    0  0.00000000000E+00 -0.00000000000E+00 -0.53512574895E+03  0.53512574895E+03  0.00000000000E+00 0. -1.
         23    2    1    2    0    0 -0.65879492959E+02 -0.15984589963E+03 -0.18304956518E+03  0.26772389132E+03  0.90984171435E+02 0.  0.
         23    2    1    2    0    0  0.28224845039E+02  0.15017321328E+03 -0.24616887192E+03  0.30359716816E+03  0.90683466806E+02 0.  0.
        -11    1    4    4    0    0  0.43883696757E+02  0.73142861188E+02 -0.18593609877E+03  0.20456756784E+03  0.00000000000E+00 0. -1.
         11    1    4    4    0    0 -0.15658851718E+02  0.77030352088E+02 -0.60232773144E+02  0.99029600325E+02  0.00000000000E+00 0.  1.
        -13    1    3    3    0    0  0.21075680887E+02 -0.25386746588E+02 -0.48024831812E+02  0.58267106481E+02  0.00000000000E+00 0. -1.
         13    1    3    3    0    0 -0.86955173846E+02 -0.13445915304E+03 -0.13502473337E+03  0.20945678484E+03  0.00000000000E+00 0.  1.
         21    1    1    2  502  501  0.37654647920E+02  0.96726863522E+01 -0.24015447070E+02  0.45696554238E+02  0.00000000000E+00 0. -1.
<scales pt_clust_5="13000.00000" pt_clust_6="13000.00000" pt_clust_7="13000.00000" pt_clust_8="13000.00000" pt_clust_9="38.87716"></scales>
<clustering>
<clus scale="   38.877">  1  9  2 -1</clus>
<clus scale="   90.683">  5  6 -1 -1</clus>
<clus scale="   90.984">  7  8 -1 -1</clus>
<clus scale="  183.989">  2  5  1 -1</clus>
<clus scale="  183.989">  2  5  1 -1</clus>
</clustering>
</event>
<event>
 9    1  0.1234700E-005  0.9241222E+02  0.7546771E-02  0.1298447E+00
         -4   -1    0    0    0  501 -0.00000000000E+00  0.00000000000E+00  0.60943058670E+02  0.60943058670E+02  0.00000000000E+00 0. -1.
          4   -1    0    0  502    0  0.00000000000E+00 -0.00000000000E+00 -0.17551607672E+03  0.17551607672E+03  0.00000000000E+00 0.  1.
         23    2    1    2    0    0  0.11601774711E+02 -0.96316517704E+01 -0.47596452483E+02  0.10403636635E+03  0.91273070188E+02 0.  0.
         23    2    1    2    0    0  0.89288864836E+01  0.19371483693E+02 -0.53577964536E+02  0.10604294940E+03  0.88991738037E+02 0.  0.
        -13    1    4    4    0    0 -0.27411555437E+02 -0.30145848331E+01 -0.56901308666E+02  0.63231637818E+02  0.00000000000E+00 0. -1.
         13    1    4    4    0    0  0.36340441920E+02  0.22386068526E+02  0.33233441300E+01  0.42811311580E+02  0.00000000000E+00 0.  1.
        -13    1    3    3    0    0  0.20956843408E+02 -0.29170294132E+02 -0.66308038445E+02  0.75411214735E+02  0.00000000000E+00 0.  1.
         13    1    3    3    0    0 -0.93550686970E+01  0.19538642361E+02  0.18711585962E+02  0.28625151613E+02  0.00000000000E+00 0. -1.
         21    1    1    2  502  501 -0.20530661195E+02 -0.97398319222E+01 -0.13398601032E+02  0.26379819646E+02  0.00000000000E+00 0. -1.
<scales pt_clust_5="13000.00000" pt_clust_6="13000.00000" pt_clust_7="13000.00000" pt_clust_8="13000.00000" pt_clust_9="22.72383"></scales>
<clustering>
<clus scale="   22.724">  2  9  1 -1</clus>
<clus scale="   88.992">  5  6 -1 -1</clus>
<clus scale="   90.160">  2  5  1 -1</clus>
<clus scale="   91.273">  7  8 -1 -1</clus>
<clus scale="   22.724">  2  5  1 -1</clus>
</clustering>
</event>
<event>
 9    1  0.1234700E-005  0.1239793E+03  0.7546771E-02  0.1237312E+00
         -3   -1    0    0    0  501 -0.00000000000E+00  0.00000000000E+00  0.18370929546E+03  0.18370929546E+03  0.00000000000E+00 0.  1.
          3   -1    0    0  502    0  0.00000000000E+00 -0.00000000000E+00 -0.19279800462E+03  0.19279800462E+03  0.00000000000E+00 0. -1.
         23    2    1    2    0    0 -0.75560274534E+02 -0.17500222374E+02  0.82244907858E+02  0.14548592072E+03  0.91576827798E+02 0.  0.
         23    2    1    2    0    0  0.74758398348E+02  0.57589554708E+02 -0.18982324738E+01  0.13300869864E+03  0.93714116831E+02 0.  0.
        -11    1    3    3    0    0 -0.33465081728E+02  0.12092927059E+02 -0.12462703359E+02  0.37702381290E+02  0.00000000000E+00 0. -1.
         11    1    3    3    0    0 -0.42095192806E+02 -0.29593149432E+02  0.94707611216E+02  0.10778353943E+03  0.00000000000E+00 0.  1.
        -11    1    4    4    0    0  0.46751974741E+02  0.82748894763E+02 -0.54161142935E+01  0.95196959094E+02  0.00000000000E+00 0. -1.
         11    1    4    4    0    0  0.28006423607E+02 -0.25159340056E+02  0.35178818196E+01  0.37811739550E+02  0.00000000000E+00 0.  1.
         21    1    1    2  502  501  0.80187618531E+00 -0.40089332334E+02 -0.89435384544E+02  0.98012680715E+02  0.00000000000E+00 0. -1.
<scales pt_clust_5="13000.00000" pt_clust_6="13000.00000" pt_clust_7="13000.00000" pt_clust_8="13000.00000" pt_clust_9="40.09735"></scales>
<clustering>
<clus scale="   40.097">  2  9  1 -1</clus>
<clus scale="   91.577">  5  6 -1 -1</clus>
<clus scale="   93.714">  7  8 -1 -1</clus>
<clus scale="  122.372">  1  5  2 -1</clus>
<clus scale="   40.097">  2  5  1 -1</clus>
</clustering>
</event>
<event>
 9    1  0.1234700E-005  0.1212196E+03  0.7546771E-02  0.1242279E+00
         -1   -1    0    0    0  501 -0.00000000000E+00  0.00000000000E+00  0.17310818089E+03  0.17310818089E+03  0.00000000000E+00 0.  1.
          1   -1    0    0  502    0  0.00000000000E+00 -0.00000000000E+00 -0.10565813091E+03  0.10565813091E+03  0.00000000000E+00 0. -1.
         23    2    1    2    0    0 -0.48221562580E+02 -0.52659663346E+02  0.59377516558E+02  0.13091869207E+03  0.92280307860E+02 0.  0.
         23    2    1    2    0    0  0.54565335159E+02  0.72427909896E+02  0.93814918158E+01  0.12704520655E+03  0.88483298902E+02 0.  0.
        -11    1    4    4    0    0  0.54511443069E+02  0.19550971910E+02 -0.25940394894E+02  0.63455827276E+02  0.00000000000E+00 0. -1.
         11    1    4    4    0    0  0.53892090558E-01  0.52876937986E+02  0.35321886710E+02  0.63589379269E+02  0.00000000000E+00 0.  1.
        -13    1    3    3    0    0 -0.56272964034E+02  0.66869257739E+01  0.31836557710E+02  0.64999445108E+02  0.00000000000E+00 0. -1.
         13    1    3    3    0    0  0.80514014541E+01 -0.59346589120E+02  0.27540958848E+02  0.65919246960E+02  0.00000000000E+00 0.  1.
         21    1    1    2  502  501 -0.63437725798E+01 -0.19768246551E+02 -0.13089583939E+01  0.20802413185E+02  0.00000000000E+00 0. -1.
<scales pt_clust_5="13000.00000" pt_clust_6="13000.00000" pt_clust_7="13000.00000" pt_clust_8="13000.00000" pt_clust_9="20.76119"></scales>
<clustering>
<clus scale="   20.761">  2  9  1 -1</clus>
<clus scale="   88.483">  5  6 -1 -1</clus>
<clus scale="   92.280">  7  8 -1 -1</clus>
<clus scale="  118.355">  2  5  1 -1</clus>
<clus scale="   20.761">  2  5  1 -1</clus>
</clustering>
</event>
<event>
 9    1  0.1234700E-005  0.1498771E+03  0.7546771E-02  0.1204958E+00
          2   -1    0    0  502    0  0.00000000000E+00  0.00000000000E+00  0.17672074774E+03  0.17672074774E+03  0.00000000000E+00 0. -1.
         -2   -1    0    0    0  501 -0.00000000000E+00 -0.00000000000E+00 -0.27243270821E+03  0.27243270821E+03  0.00000000000E+00 0.  1.
         23    2    1    2    0    0  0.40746633835E+02 -0.90679257390E+02 -0.16741839095E+03  0.22357185529E+03  0.10987466023E+03 0.  0.
         23    2    1    2    0    0 -0.96200779010E+02  0.77044894554E+02  0.70385859384E+02  0.16846065901E+03  0.90743147260E+02 0.  0.
        -11    1    4    4    0    0 -0.81537514141E+01  0.62010907076E+02  0.18780675648E+02  0.65303522389E+02  0.00000000000E+00 0.  1.
         11    1    4    4    0    0 -0.88047027596E+02  0.15033987478E+02  0.51605183736E+02  0.10315713662E+03  0.00000000000E+00 0. -1.
        -11    1    3    3    0    0  0.22848513604E+02 -0.44337652293E+02 -0.99118809609E+00  0.49888520108E+02  0.00000000000E+00 0. -1.
         11    1    3    3    0    0  0.17898120231E+02 -0.46341605097E+02 -0.16642720285E+03  0.17368333518E+03  0.00000000000E+00 0.  1.
         21    1    1    2  502  501  0.55454145175E+02  0.13634362836E+02  0.13205710878E+01  0.57120941650E+02  0.00000000000E+00 0.  1.
<scales pt_clust_5="13000.00000" pt_clust_6="13000.00000" pt_clust_7="13000.00000" pt_clust_8="13000.00000" pt_clust_9="57.10567"></scales>
<clustering>
<clus scale="   57.106">  1  9  2 -1</clus>
<clus scale="   90.743">  5  6 -1 -1</clus>
<clus scale="  109.875">  7  8 -1 -1</clus>
<clus scale="  136.474">  1  5  2 -1</clus>
<clus scale="   57.106">  1  5  2 -1</clus>
</clustering>
</event>
<event>
 9    1  0.1234700E-005  0.1703724E+03  0.7546771E-02  0.1177699E+00
          1   -1    0    0  502    0  0.00000000000E+00  0.00000000000E+00  0.11144205078E+03  0.11144205078E+03  0.00000000000E+00 0. -1.
         -1   -1    0    0    0  501 -0.00000000000E+00 -0.00000000000E+00 -0.58914925498E+03  0.58914925498E+03  0.00000000000E+00 0.  1.
         23    2    1    2    0    0 -0.15012189736E+03  0.24521839030E+02 -0.46910533453E+03  0.50163929681E+03  0.91892679593E+02 0.  0.
         23    2    1    2    0    0  0.10552116943E+03 -0.26424493736E+02 -0.34179223618E+02  0.14750255742E+03  0.93572506922E+02 0.  0.
        -11    1    3    3    0    0 -0.14273145194E+03  0.44052867977E+02 -0.34736369336E+03  0.37811963453E+03  0.00000000000E+00 0.  1.
         11    1    3    3    0    0 -0.73904454142E+01 -0.19531028948E+02 -0.12174164117E+03  0.12351966228E+03  0.00000000000E+00 0. -1.
        -13    1    4    4    0    0  0.10418597597E+02  0.28739251718E+02  0.46143753288E+01  0.30915760137E+02  0.00000000000E+00 0.  1.
         13    1    4    4    0    0  0.95102571837E+02 -0.55163745453E+02 -0.38793598947E+02  0.11658679729E+03  0.00000000000E+00 0. -1.
         21    1    1    2  502  501  0.44600727923E+02  0.19026547060E+01  0.25577353958E+02  0.51449451519E+02  0.00000000000E+00 0. -1.
<scales pt_clust_5="13000.00000" pt_clust_6="13000.00000" pt_clust_7="13000.00000" pt_clust_8="13000.00000" pt_clust_9="44.64129"></scales>
<clustering>
<clus scale="   44.641">  1  9  2 -1</clus>
<clus scale="   91.893">  5  6 -1 -1</clus>
<clus scale="   93.573">  7  8 -1 -1</clus>
<clus scale="  169.456">  2  5  1 -1</clus>
<clus scale="   44.641">  1  5  2 -1</clus>
</clustering>
</event>
<event>
 9    1  0.1234700E-005  0.1029104E+03  0.7546771E-02  0.1278649E+00
         -2   -1    0    0    0  501 -0.00000000000E+00  0.00000000000E+00  0.29024562223E+02  0.29024562223E+02  0.00000000000E+00 0.  1.
          2   -1    0    0  502    0  0.00000000000E+00 -0.00000000000E+00 -0.60515534065E+03  0.60515534065E+03  0.00000000000E+00 0. -1.
         23    2    1    2    0    0 -0.36729003628E+02  0.17945916788E+02 -0.13625951396E+03  0.17304022024E+03  0.98514907713E+02 0.  0.
         23    2    1    2    0    0  0.14198554058E+02  0.20883387959E+02 -0.30779381769E+03  0.32164133851E+03  0.89879928780E+02 0.  0.
        -11    1    4    4    0    0 -0.91520304427E+01  0.48215287603E+02 -0.23936949371E+03  0.24434857916E+03  0.00000000000E+00 0.  1.
         11    1    4    4    0    0  0.23350584500E+02 -0.27331899645E+02 -0.68424323980E+02  0.77292759343E+02  0.00000000000E+00 0. -1.
        -13    1    3    3    0    0  0.10905687207E+02  0.47632360156E+02 -0.48362608154E+02  0.68751128099E+02  0.00000000000E+00 0.  1.
         13    1    3    3    0    0 -0.47634690835E+02 -0.29686443368E+02 -0.87896905802E+02  0.10428909214E+03  0.00000000000E+00 0. -1.
         21    1    1    2  502  501  0.22530449571E+02 -0.38829304747E+02 -0.13207744678E+03  0.13949834412E+03  0.00000000000E+00 0. -1.
<scales pt_clust_5="13000.00000" pt_clust_6="13000.00000" pt_clust_7="13000.00000" pt_clust_8="13000.00000" pt_clust_9="44.89249"></scales>
<clustering>
<clus scale="   44.892">  2  9  1 -1</clus>
<clus scale="   89.880">  5  6 -1 -1</clus>
<clus scale="   94.677">  2  5  1 -1</clus>
<clus scale="   98.515">  7  8 -1 -1</clus>
<clus scale="   44.892">  2  5  1 -1</clus>
</clustering>
</event>
<event>
 9    1  0.1234700E-005  0.3054165E+03  0.7546771E-02  0.1082586E+00
          2   -1    0    0  502    0  0.00000000000E+00  0.00000000000E+00  0.78180587791E+03  0.78180587791E+03  0.00000000000E+00 0. -1.
         -2   -1    0    0    0  501 -0.00000000000E+00 -0.00000000000E+00 -0.27850009122E+03  0.27850009122E+03  0.00000000000E+00 0.  1.
         23    2    1    2    0    0 -0.15099314696E+03  0.24649856095E+03 -0.11531227840E+03  0.32380442750E+03  0.89397509685E+02 0.  0.
         23    2    1    2    0    0  0.11307609172E+03 -0.28651546636E+03  0.40960489915E+03  0.52034058462E+03  0.90004642196E+02 0.  0.
        -11    1    4    4    0    0 -0.10342974183E+02 -0.72533628312E+02  0.80624664887E+02  0.10894237440E+03  0.00000000000E+00 0.  1.
         11    1    4    4    0    0  0.12341906590E+03 -0.21398183805E+03  0.32898023426E+03  0.41139821022E+03  0.00000000000E+00 0. -1.
        -11    1    3    3    0    0 -0.11911063177E+03  0.13476373051E+03 -0.10221736392E+03  0.20687434628E+03  0.00000000000E+00 0.  1.
         11    1    3    3    0    0 -0.31882515190E+02  0.11173483044E+03 -0.13094914477E+02  0.11693008122E+03  0.00000000000E+00 0. -1.
         21    1    1    2  502  501  0.37917055239E+02  0.40016905407E+02  0.20901316594E+03  0.21616095701E+03  0.00000000000E+00 0. -1.
<scales pt_clust_5="13000.00000" pt_clust_6="13000.00000" pt_clust_7="13000.00000" pt_clust_8="13000.00000" pt_clust_9="55.12763"></scales>
<clustering>
<clus scale="   55.128">  1  9  2 -1</clus>
<clus scale="   89.398">  7  8 -1 -1</clus>
<clus scale="   90.005">  5  6 -1 -1</clus>
<clus scale="  305.238">  2  7  1 -1</clus>
<clus scale="   55.128">  1  5  2 -1</clus>
</clustering>
</event>
<event>
 9    1  0.1234700E-005  0.1248111E+03  0.7546771E-02  0.1236632E+00
         -1   -1    0    0    0  501 -0.00000000000E+00  0.00000000000E+00  0.69125461581E+02  0.69125461581E+02  0.00000000000E+00 0.  1.
          1   -1    0    0  502    0  0.00000000000E+00 -0.00000000000E+00 -0.62942594388E+03  0.62942594388E+03  0.00000000000E+00 0. -1.
         23    2    1    2    0    0  0.31395612147E+02 -0.43039246147E+02 -0.89325281569E+02  0.14124893310E+03  0.95572977371E+02 0.  0.
         23    2    1    2    0    0 -0.41398171581E+02  0.10322496088E+03 -0.86306078510E+02  0.16782499542E+03  0.91363497866E+02 0.  0.
        -11    1    4    4    0    0 -0.66296516159E+02  0.89788864845E+02 -0.51360954643E+02  0.12286258978E+03  0.00000000000E+00 0.  1.
         11    1    4    4    0    0  0.24898344577E+02  0.13436096032E+02 -0.34945123868E+02  0.44962405645E+02  0.00000000000E+00 0. -1.
        -11    1    3    3    0    0 -0.27873516863E+02 -0.21485401518E+02 -0.64491368511E+02  0.73468986879E+02  0.00000000000E+00 0.  1.
         11    1    3    3    0    0  0.59269129010E+02 -0.21553844629E+02 -0.24833913059E+02  0.67779946221E+02  0.00000000000E+00 0. -1.
         21    1    1    2  502  501  0.10002559434E+02 -0.60185714730E+02 -0.38466912222E+03  0.38947747694E+03  0.00000000000E+00 0. -1.
<scales pt_clust_5="13000.00000" pt_clust_6="13000.00000" pt_clust_7="13000.00000" pt_clust_8="13000.00000" pt_clust_9="61.01124"></scales>
<clustering>
<clus scale="   61.011">  2  9  1 -1</clus>
<clus scale="   91.363">  5  6 -1 -1</clus>
<clus scale="   95.573">  7  8 -1 -1</clus>
<clus scale="  121.618">  2  5  1 -1</clus>
<clus scale="   61.011">  2  5  1 -1</clus>
</clustering>
</event>
<event>
 9    1  0.1234700E-005  0.9649048E+02  0.7546771E-02  0.1299290E+00
          1   -1    0    0  502    0  0.00000000000E+00  0.00000000000E+00  0.13202098567E+02  0.13202098567E+02  0.00000000000E+00 0. -1.
         -1   -1    0    0    0  501 -0.00000000000E+00 -0.00000000000E+00 -0.78159912474E+03  0.78159912474E+03  0.00000000000E+00 0.  1.
         23    2    1    2    0    0 -0.46810725757E+00  0.24293076430E+02 -0.31459077094E+03  0.32404893852E+03  0.73824038818E+02 0.  0.
         23    2    1    2    0    0  0.26407790337E+02 -0.19894023960E+02 -0.35993290098E+03  0.37326164185E+03  0.93163386005E+02 0.  0.
        -11    1    4    4    0    0 -0.32340372090E+02 -0.20949519453E+02 -0.17611583959E+03  0.18028192086E+03  0.00000000000E+00 0.  1.
         11    1    4    4    0    0  0.58748162427E+02  0.10554954927E+01 -0.18381706139E+03  0.19297972100E+03  0.00000000000E+00 0. -1.
        -13    1    3    3    0    0  0.32709639357E+02  0.29181002103E+02 -0.16283084786E+03  0.16862780437E+03  0.00000000000E+00 0. -1.
         13    1    3    3    0    0 -0.33177746615E+02 -0.48879256729E+01 -0.15175992308E+03  0.15542113415E+03  0.00000000000E+00 0.  1.
         21    1    1    2  502  501 -0.25939683079E+02 -0.43990524699E+01 -0.93873354249E+02  0.97490642929E+02  0.00000000000E+00 0.  1.
<scales pt_clust_5="13000.00000" pt_clust_6="13000.00000" pt_clust_7="13000.00000" pt_clust_8="13000.00000" pt_clust_9="26.31005"></scales>
<clustering>
<clus scale="   26.310">  1  9  2 -1</clus>
<clus scale="   73.824">  7  8 -1 -1</clus>
<clus scale="   77.981">  2  7  1 -1</clus>
<clus scale="   93.163">  5  6 -1 -1</clus>
<clus scale="   26.310">  1  5  2 -1</clus>
</clustering>
</event>
<event>
 9    1  0.1234700E-005  0.2397100E+03  0.7546771E-02  0.1119991E+00
         -2   -1    0    0    0  501 -0.00000000000E+00  0.00000000000E+00  0.37189139522E+03  0.37189139522E+03  0.00000000000E+00 0.  1.
          2   -1    0    0  502    0  0.00000000000E+00 -0.00000000000E+00 -0.22594034630E+03  0.22594034630E+03  0.00000000000E+00 0. -1.
         23    2    1    2    0    0 -0.14713194275E+02  0.26188377213E+03  0.12172225409E+03  0.30342282965E+03  0.91921260985E+02 0.  0.
         23    2    1    2    0    0  0.41793717736E+02 -0.17486946399E+03  0.96953547615E+01  0.20212638129E+03  0.91842418471E+02 0.  0.
        -11    1    3    3    0    0  0.37665944924E+00  0.20466608650E+03  0.50459732644E+02  0.21079500339E+03  0.00000000000E+00 0. -1.
         11    1    3    3    0    0 -0.15089853724E+02  0.57217685624E+02  0.71262521449E+02  0.92627826255E+02  0.00000000000E+00 0.  1.
        -13    1    4    4    0    0  0.44936960400E+02 -0.31607357800E+02 -0.14454085895E+02  0.56809119656E+02  0.00000000000E+00 0.  1.
         13    1    4    4    0    0 -0.31432426635E+01 -0.14326210619E+03  0.24149440657E+02  0.14531726163E+03  0.00000000000E+00 0. -1.
         21    1    1    2  502  501 -0.27080523461E+02 -0.87014308141E+02  0.14533440063E+02  0.92282530591E+02  0.00000000000E+00 0. -1.
<scales pt_clust_5="13000.00000" pt_clust_6="13000.00000" pt_clust_7="13000.00000" pt_clust_8="13000.00000" pt_clust_9="91.13092"></scales>
<clustering>
<clus scale="   91.131">  2  9  1 -1</clus>
<clus scale="   91.842">  7  8 -1 -1</clus>
<clus scale="   91.921">  5  6 -1 -1</clus>
<clus scale="  239.680">  2  7  1 -1</clus>
<clus scale="   91.131">  2  5  1 -1</clus>
</clustering>
</event>
<event>
 9    1  0.1234700E-005  0.9380747E+02  0.7546771E-02  0.1294585E+00
         -1   -1    0    0    0  501 -0.00000000000E+00  0.00000000000E+00  0.67567481733E+03  0.67567481733E+03  0.00000000000E+00 0.  1.
          1   -1    0    0  502    0  0.00000000000E+00 -0.00000000000E+00 -0.25609990927E+02  0.25609990927E+02  0.00000000000E+00 0. -1.
         23    2    1    2    0    0 -0.18733054076E+02 -0.20495140824E+02  0.35032337821E+03  0.36282376469E+03  0.90242100999E+02 0.  0.
         23    2    1    2    0    0  0.18860638266E+02 -0.46513631801E+01  0.29901836018E+03  0.31330382199E+03  0.91487410570E+02 0.  0.
        -11    1    3    3    0    0 -0.49275492339E+02 -0.83564705206E+01  0.28859841549E+03  0.29289409378E+03  0.00000000000E+00 0.  1.
         11    1    3    3    0    0  0.30542438263E+02 -0.12138670303E+02  0.61724962714E+02  0.69929670912E+02  0.00000000000E+00 0. -1.
        -13    1    4    4    0    0  0.50085020749E+02 -0.24998489835E+02  0.16743483698E+03  0.17654421099E+03  0.00000000000E+00 0. -1.
         13    1    4    4    0    0 -0.31224382482E+02  0.20347126655E+02  0.13158352320E+03  0.13675961100E+03  0.00000000000E+00 0.  1.
         21    1    1    2  502  501 -0.12758419028E+00  0.25146504004E+02  0.72308801633E+00  0.25157221580E+02  0.00000000000E+00 0. -1.
<scales pt_clust_5="13000.00000" pt_clust_6="13000.00000" pt_clust_7="13000.00000" pt_clust_8="13000.00000" pt_clust_9="25.14683"></scales>
<clustering>
<clus scale="   25.147">  2  9  1 -1</clus>
<clus scale="   90.242">  5  6 -1 -1</clus>
<clus scale="   91.487">  7  8 -1 -1</clus>
<clus scale="   92.593">  1  5  2 -1</clus>
<clus scale="   25.147">  2  5  1 -1</clus>
</clustering>
</event>
<event>
 9    1  0.1234700E-005  0.2496602E+03  0.7546771E-02  0.1115723E+00
         -1   -1    0    0    0  501 -0.00000000000E+00  0.00000000000E+00  0.37832864334E+03  0.37832864334E+03  0.00000000000E+00 0.  1.
          1   -1    0    0  502    0  0.00000000000E+00 -0.00000000000E+00 -0.46008198232E+03  0.46008198232E+03  0.00000000000E+00 0. -1.
         23    2    1    2    0    0 -0.72761657591E+02 -0.20064015222E+03  0.25494505595E+03  0.35424693879E+03  0.12224231097E+03 0.  0.
         23    2    1    2    0    0  0.32992255502E+02  0.24086071820E+03 -0.17593981334E+03  0.31374473011E+03  0.91534492167E+02 0.  0.
        -13    1    3    3    0    0 -0.46535755971E+02 -0.19361328964E+03  0.25910098836E+03  0.32677974949E+03  0.00000000000E+00 0.  1.
         13    1    3    3    0    0 -0.26225901620E+02 -0.70268625859E+01 -0.41559324171E+01  0.27467189296E+02  0.00000000000E+00 0. -1.
        -13    1    4    4    0    0  0.61173698716E+02  0.14801117688E+03 -0.87723025886E+02  0.18260574790E+03  0.00000000000E+00 0. -1.
         13    1    4    4    0    0 -0.28181443214E+02  0.92849541321E+02 -0.88216787456E+02  0.13113898221E+03  0.00000000000E+00 0.  1.
         21    1    1    2  502  501  0.39769402089E+02 -0.40220565976E+02 -0.16075858159E+03  0.17041895676E+03  0.00000000000E+00 0. -1.
<scales pt_clust_5="13000.00000" pt_clust_6="13000.00000" pt_clust_7="13000.00000" pt_clust_8="13000.00000" pt_clust_9="56.56235"></scales>
<clustering>
<clus scale="   56.562">  2  9  1 -1</clus>
<clus scale="   91.534">  7  8 -1 -1</clus>
<clus scale="  122.242">  5  6 -1 -1</clus>
<clus scale="  236.147">  2  7  1 -1</clus>
<clus scale="   56.562">  2  5  1 -1</clus>
</clustering>
</event>
<event>
 9    1  0.1234700E-005  0.1235438E+03  0.7546771E-02  0.1237828E+00
          2   -1    0    0  502    0  0.00000000000E+00  0.00000000000E+00  0.50790924607E+03  0.50790924607E+03  0.00000000000E+00 0. -1.
         -2   -1    0    0    0  501 -0.00000000000E+00 -0.00000000000E+00 -0.63855277350E+02  0.63855277350E+02  0.00000000000E+00 0.  1.
         23    2    1    2    0    0 -0.33207131457E+02 -0.66751612175E+02  0.81600653726E+02  0.14356546794E+03  0.91618150971E+02 0.  0.
         23    2    1    2    0    0  0.82640188791E+02  0.51527555611E+02  0.12053772014E+03  0.18081564034E+03  0.93169007850E+02 0.  0.
        -11    1    4    4    0    0  0.61221757748E+02  0.69689640428E+02  0.12132350839E+03  0.15272243873E+03  0.00000000000E+00 0. -1.
         11    1    4    4    0    0  0.21418431043E+02 -0.18162084817E+02 -0.78578824945E+00  0.28093201605E+02  0.00000000000E+00 0.  1.
        -11    1    3    3    0    0 -0.37782555679E+02 -0.47021911299E+02  0.86358769013E+00  0.60326838468E+02  0.00000000000E+00 0.  1.
         11    1    3    3    0    0  0.45754242224E+01 -0.19729700877E+02  0.80737066036E+02  0.83238629467E+02  0.00000000000E+00 0. -1.
         21    1    1    2  502  501 -0.49433057334E+02  0.15224056564E+02  0.24191559486E+03  0.24738341515E+03  0.00000000000E+00 0. -1.
<scales pt_clust_5="13000.00000" pt_clust_6="13000.00000" pt_clust_7="13000.00000" pt_clust_8="13000.00000" pt_clust_9="51.72426"></scales>
<clustering>
<clus scale="   51.724">  1  9  2 -1</clus>
<clus scale="   91.618">  7  8 -1 -1</clus>
<clus scale="   93.169">  5  6 -1 -1</clus>
<clus scale="  122.378">  2  7  1 -1</clus>
<clus scale="   51.724">  1  5  2 -1</clus>
</clustering>
</event>
<event>
 9    1  0.1234700E-005  0.1730508E+03  0.7546771E-02  0.1174761E+00
         -1   -1    0    0    0  501 -0.00000000000E+00  0.00000000000E+00  0.70805450346E+02  0.70805450346E+02  0.00000000000E+00 0.  1.
          1   -1    0    0  502    0  0.00000000000E+00 -0.00000000000E+00 -0.57443365011E+03  0.57443365011E+03  0.00000000000E+00 0. -1.
         23    2    1    2    0    0  0.16022327963E+03  0.10473395868E+02 -0.13416199302E+03  0.22881545780E+03  0.92606058136E+02 0.  0.
         23    2    1    2    0    0 -0.12054105892E+03 -0.74206334385E+01 -0.30286495074E+03  0.33883675395E+03  0.92184351978E+02 0.  0.
        -11    1    3    3    0    0  0.90362811001E+02  0.22797384387E+02 -0.21439265651E+02  0.95628450047E+02  0.00000000000E+00 0.  1.
         11    1    3    3    0    0  0.69860468625E+02 -0.12323988518E+02 -0.11272272737E+03  0.13318700775E+03  0.00000000000E+00 0. -1.
        -11    1    4    4    0    0 -0.80581553251E+02 -0.10115001998E+02 -0.28242928286E+03  0.29387412238E+03  0.00000000000E+00 0. -1.
         11    1    4    4    0    0 -0.39959505670E+02  0.26943685595E+01 -0.20435667886E+02  0.44962631565E+02  0.00000000000E+00 0.  1.
         21    1    1    2  502  501 -0.39682220704E+02 -0.30527624300E+01 -0.66601256000E+02  0.77586888707E+02  0.00000000000E+00 0. -1.
<scales pt_clust_5="13000.00000" pt_clust_6="13000.00000" pt_clust_7="13000.00000" pt_clust_8="13000.00000" pt_clust_9="39.79947"></scales>
<clustering>
<clus scale="   39.799">  2  9  1 -1</clus>
<clus scale="   92.184">  7  8 -1 -1</clus>
<clus scale="   92.606">  5  6 -1 -1</clus>
<clus scale="  172.826">  2  7  1 -1</clus>
<clus scale="   39.799">  2  5  1 -1</clus>
</clustering>
</event>
<event>
 9    1  0.1234700E-005  0.1280408E+03  0.7546771E-02  0.1236714E+00
          1   -1    0    0  502    0  0.00000000000E+00  0.00000000000E+00  0.37164808288E+03  0.37164808288E+03  0.00000000000E+00 0. -1.
         -1   -1    0    0    0  501 -0.00000000000E+00 -0.00000000000E+00 -0.13783064183E+03  0.13783064183E+03  0.00000000000E+00 0.  1.
         23    2    1    2    0    0 -0.74419836837E+01 -0.59033655104E+02 -0.87304841355E+02  0.15641338162E+03  0.11533713656E+03 0.  0.
         23    2    1    2    0    0  0.23274677934E+02  0.30355533983E+02  0.18164679371E+03  0.20979454780E+03  0.97749810974E+02 0.  0.
        -11    1    3    3    0    0 -0.39502631159E+02  0.10310986982E+02 -0.65120908951E+02  0.76860309026E+02  0.00000000000E+00 0. -1.
         11    1    3    3    0    0  0.32060647476E+02 -0.69344642085E+02 -0.22183932404E+02  0.79553072595E+02  0.00000000000E+00 0.  1.
        -11    1    4    4    0    0 -0.22577301040E+02  0.32409264345E+02  0.14720266240E+03  0.15240970690E+03  0.00000000000E+00 0. -1.
         11    1    4    4    0    0  0.45851978975E+02 -0.20537303617E+01  0.34444131312E+02  0.57384840909E+02  0.00000000000E+00 0.  1.
         21    1    1    2  502  501 -0.15832694251E+02  0.28678121120E+02  0.13947548869E+03  0.14327079529E+03  0.00000000000E+00 0.  1.
<scales pt_clust_5="13000.00000" pt_clust_6="13000.00000" pt_clust_7="13000.00000" pt_clust_8="13000.00000" pt_clust_9="32.75834"></scales>
<clustering>
<clus scale="   32.758">  1  9  2 -1</clus>
<clus scale="   97.750">  7  8 -1 -1</clus>
<clus scale="  112.458">  1  7  2 -1</clus>
<clus scale="  115.337">  5  6 -1 -1</clus>
<clus scale="   32.758">  1  5  2 -1</clus>
</clustering>
</event>
<event>
 9    1  0.1289807E-005  0.1205696E+03  0.7546771E-02  0.1244400E+00
         -1   -1    0    0    0  501 -0.00000000000E+00  0.00000000000E+00  0.94783250037E+02  0.94783250037E+02  0.00000000000E+00 0.  1.
          1   -1    0    0  502    0  0.00000000000E+00 -0.00000000000E+00 -0.44992219265E+03  0.44992219265E+03  0.00000000000E+00 0. -1.
         23    2    1    2    0    0 -0.77804723148E+02  0.29777316691E+02  0.35070421773E+02  0.12787727723E+03  0.90456619514E+02 0.  0.
         23    2    1    2    0    0  0.40706465691E+02 -0.48181184012E+02 -0.29739757096E+03  0.31519641826E+03  0.83216729288E+02 0.  0.
        -13    1    4    4    0    0 -0.95535643481E+01  0.18483321665E+02 -0.65720865316E+02  0.68935737535E+02  0.00000000000E+00 0.  1.
         13    1    4    4    0    0  0.50260030039E+02 -0.66664505677E+02 -0.23167670564E+03  0.24626068073E+03  0.00000000000E+00 0. -1.
        -13    1    3    3    0    0 -0.65573342836E+02  0.13797443593E+02  0.63983448382E+02  0.92650495990E+02  0.00000000000E+00 0.  1.
         13    1    3    3    0    0 -0.12231380312E+02  0.15979873097E+02 -0.28913026608E+02  0.35226781235E+02  0.00000000000E+00 0. -1.
         21    1    1    2  502  501  0.37098257457E+02  0.18403867321E+02 -0.92811793424E+02  0.10163174719E+03  0.00000000000E+00 0. -1.
<scales pt_clust_5="13000.00000" pt_clust_6="13000.00000" pt_clust_7="13000.00000" pt_clust_8="13000.00000" pt_clust_9="41.41235"></scales>
<clustering>
<clus scale="   41.412">  2  9  1 -1</clus>
<clus scale="   83.217">  5  6 -1 -1</clus>
<clus scale="   90.457">  7  8 -1 -1</clus>
<clus scale="  115.237">  2  5  1 -1</clus>
<clus scale="   41.412">  2  5  1 -1</clus>
</clustering>
</event>
<event>
 9    1  0.1234700E-005  0.9469808E+02  0.7546771E-02  0.1297494E+00
          1   -1    0    0  502    0  0.00000000000E+00  0.00000000000E+00  0.19140734894E+03  0.19140734894E+03  0.00000000000E+00 0. -1.
         -1   -1    0    0    0  501 -0.00000000000E+00 -0.00000000000E+00 -0.98737299539E+02  0.98737299539E+02  0.00000000000E+00 0.  1.
         23    2    1    2    0    0 -0.73601103578E+00 -0.20664728110E+02 -0.19260481509E+02  0.94316904762E+02  0.89984107907E+02 0.  0.
         23    2    1    2    0    0  0.44132915525E+02  0.30209668626E+02  0.26966153833E+02  0.99945823728E+02  0.80010348811E+02 0.  0.
        -13    1    3    3    0    0 -0.54698453630E+01 -0.52768795032E+02 -0.28967672858E+02  0.60444941957E+02  0.00000000000E+00 0.  1.
         13    1    3    3    0    0  0.47338343272E+01  0.32104066921E+02  0.97071913494E+01  0.33871962804E+02  0.00000000000E+00 0. -1.
        -13    1    4    4    0    0 -0.13113901567E+02 -0.17314507414E+02  0.40543105651E+01  0.22095339225E+02  0.00000000000E+00 0. -1.
         13    1    4    4    0    0  0.57246817092E+02  0.47524176040E+02  0.22911843268E+02  0.77850484503E+02  0.00000000000E+00 0.  1.
         21    1    1    2  502  501 -0.43396904490E+02 -0.95449405157E+01  0.84964377076E+02  0.95881919988E+02  0.00000000000E+00 0. -1.
<scales pt_clust_5="13000.00000" pt_clust_6="13000.00000" pt_clust_7="13000.00000" pt_clust_8="13000.00000" pt_clust_9="44.43419"></scales>
<clustering>
<clus scale="   44.434">  1  9  2 -1</clus>
<clus scale="   80.010">  7  8 -1 -1</clus>
<clus scale="   85.277">  1  7  2 -1</clus>
<clus scale="   89.984">  5  6 -1 -1</clus>
<clus scale="   44.434">  1  5  2 -1</clus>
</clustering>
</event>
<event>
 9    1  0.1234700E-005  0.1015680E+03  0.7546771E-02  0.1279239E+00
         -1   -1    0    0    0  501 -0.00000000000E+00  0.00000000000E+00  0.44047518723E+02  0.44047518723E+02  0.00000000000E+00 0.  1.
          1   -1    0    0  502    0  0.00000000000E+00 -0.00000000000E+00 -0.53179207992E+03  0.53179207992E+03  0.00000000000E+00 0. -1.
         23    2    1    2    0    0  0.28498260249E+02  0.50343978425E+02 -0.64407534206E+02  0.12706411188E+03  0.93006940946E+02 0.  0.
         23    2    1    2    0    0 -0.78389097845E+01  0.15008514621E+01 -0.20455433115E+03  0.22298672897E+03  0.88413267345E+02 0.  0.
        -11    1    3    3    0    0  0.15956297565E+01 -0.26864711593E+02 -0.23069617194E+02  0.35446664170E+02  0.00000000000E+00 0. -1.
         11    1    3    3    0    0  0.26902630493E+02  0.77208690018E+02 -0.41337917012E+02  0.91617447708E+02  0.00000000000E+00 0.  1.
        -13    1    4    4    0    0 -0.17545682993E+02  0.41404578332E+02 -0.13407704511E+03  0.14141726954E+03  0.00000000000E+00 0.  1.
         13    1    4    4    0    0  0.97067732087E+01 -0.39903726870E+02 -0.70477286043E+02  0.81569459433E+02  0.00000000000E+00 0. -1.
         21    1    1    2  502  501 -0.20659350465E+02 -0.51844829887E+02 -0.21878269584E+03  0.22578875780E+03  0.00000000000E+00 0. -1.
<scales pt_clust_5="13000.00000" pt_clust_6="13000.00000" pt_clust_7="13000.00000" pt_clust_8="13000.00000" pt_clust_9="55.80945"></scales>
<clustering>
<clus scale="   55.809">  2  9  1 -1</clus>
<clus scale="   88.413">  7  8 -1 -1</clus>
<clus scale="   93.007">  5  6 -1 -1</clus>
<clus scale="   97.379">  2  7  1 -1</clus>
<clus scale="   55.809">  2  5  1 -1</clus>
</clustering>
</event>
<event>
 9    1  0.1234700E-005  0.1013077E+03  0.7546771E-02  0.1282781E+00
          1   -1    0    0  502    0  0.00000000000E+00  0.00000000000E+00  0.35423153812E+02  0.35423153812E+02  0.00000000000E+00 0. -1.
         -1   -1    0    0    0  501 -0.00000000000E+00 -0.00000000000E+00 -0.41358820264E+03  0.41358820264E+03  0.00000000000E+00 0.  1.
         23    2    1    2    0    0 -0.23620448987E+02 -0.24886853157E+02 -0.25517990032E+03  0.27550380598E+03  0.98021857318E+02 0.  0.
         23    2    1    2    0    0  0.61352741822E+01  0.12185616380E+02 -0.12297992162E+03  0.15189614652E+03  0.88103617235E+02 0.  0.
        -11    1    4    4    0    0  0.41745736215E+02  0.26112509828E+02 -0.83484654308E+02  0.96923976221E+02  0.00000000000E+00 0. -1.
         11    1    4    4    0    0 -0.35610462032E+02 -0.13926893447E+02 -0.39495267310E+02  0.54972170297E+02  0.00000000000E+00 0.  1.
        -13    1    3    3    0    0 -0.60210423902E+02 -0.21762749548E+02 -0.19239565395E+03  0.20276834090E+03  0.00000000000E+00 0.  1.
         13    1    3    3    0    0  0.36589974915E+02 -0.31241036094E+01 -0.62784246377E+02  0.72735465083E+02  0.00000000000E+00 0. -1.
         21    1    1    2  502  501  0.17485174804E+02  0.12701236777E+02 -0.52268917358E-02  0.21611403955E+02  0.00000000000E+00 0.  1.
<scales pt_clust_5="13000.00000" pt_clust_6="13000.00000" pt_clust_7="13000.00000" pt_clust_8="13000.00000" pt_clust_9="21.61140"></scales>
<clustering>
<clus scale="   21.611">  1  9  2 -1</clus>
<clus scale="   88.104">  5  6 -1 -1</clus>
<clus scale="   91.745">  1  5  2 -1</clus>
<clus scale="   98.022">  7  8 -1 -1</clus>
<clus scale="   21.611">  1  5  2 -1</clus>
</clustering>
</event>
<event>
 9    1  0.1234700E-005  0.1018614E+03  0.7546771E-02  0.1276516E+00
         -2   -1    0    0    0  501 -0.00000000000E+00  0.00000000000E+00  0.18972515995E+03  0.18972515995E+03  0.00000000000E+00 0.  1.
          2   -1    0    0  502    0  0.00000000000E+00 -0.00000000000E+00 -0.73017039301E+02  0.73017039301E+02  0.00000000000E+00 0. -1.
         23    2    1    2    0    0  0.18034885550E+02 -0.36761972073E+02  0.72489962309E+02  0.12477200229E+03  0.92933084702E+02 0.  0.
         23    2    1    2    0    0 -0.35899106372E+02  0.26194450119E+02  0.52324060731E+02  0.11568772494E+03  0.93117921559E+02 0.  0.
        -13    1    4    4    0    0 -0.63876187259E+02  0.62948587428E+01  0.16936192746E+02  0.66382431185E+02  0.00000000000E+00 0. -1.
         13    1    4    4    0    0  0.27977080887E+02  0.19899591376E+02  0.35387867986E+02  0.49305293757E+02  0.00000000000E+00 0.  1.
        -13    1    3    3    0    0  0.19263031888E+02  0.19541501804E+02 -0.60782218258E+01  0.28104794446E+02  0.00000000000E+00 0. -1.
         13    1    3    3    0    0 -0.12281463375E+01 -0.56303473877E+02  0.78568184134E+02  0.96667207843E+02  0.00000000000E+00 0.  1.
         21    1    1    2  502  501  0.17864220822E+02  0.10567521954E+02 -0.81059023891E+01  0.22282472021E+02  0.00000000000E+00 0. -1.
<scales pt_clust_5="13000.00000" pt_clust_6="13000.00000" pt_clust_7="13000.00000" pt_clust_8="13000.00000" pt_clust_9="20.75579"></scales>
<clustering>
<clus scale="   20.756">  2  9  1 -1</clus>
<clus scale="   92.933">  7  8 -1 -1</clus>
<clus scale="   93.118">  5  6 -1 -1</clus>
<clus scale="  101.692">  1  7  2 -1</clus>
<clus scale="   20.756">  2  5  1 -1</clus>
</clustering>
</event>
<event>
 9    1  0.1234700E-005  0.1055175E+03  0.7546771E-02  0.1269563E+00
          4   -1    0    0  502    0  0.00000000000E+00  0.00000000000E+00  0.25028686559E+03  0.25028686559E+03  0.00000000000E+00 0. -1.
         -4   -1    0    0    0  501 -0.00000000000E+00 -0.00000000000E+00 -0.81680786670E+02  0.81680786670E+02  0.00000000000E+00 0.  1.
         23    2    1    2    0    0  0.45629197436E+02 -0.27787676935E+02 -0.46338092608E+01  0.10700819459E+03  0.92601851349E+02 0.  0.
         23    2    1    2    0    0 -0.49977820113E+02 -0.17364253387E+01  0.94472926129E+02  0.14072871836E+03  0.91534915322E+02 0.  0.
        -13    1    4    4    0    0 -0.32735288727E+02 -0.43739999584E+02  0.31404110081E+02  0.63015909274E+02  0.00000000000E+00 0. -1.
         13    1    4    4    0    0 -0.17242531386E+02  0.42003574245E+02  0.63068816049E+02  0.77712809084E+02  0.00000000000E+00 0.  1.
        -13    1    3    3    0    0 -0.44601506256E+01 -0.29357043084E+02 -0.36931297788E+02  0.47388286301E+02  0.00000000000E+00 0.  1.
         13    1    3    3    0    0  0.50089348062E+02  0.15693661493E+01  0.32297488527E+02  0.59619908290E+02  0.00000000000E+00 0. -1.
         21    1    1    2  502  501  0.43486226774E+01  0.29524102274E+02  0.78766962054E+02  0.84230739315E+02  0.00000000000E+00 0. -1.
<scales pt_clust_5="13000.00000" pt_clust_6="13000.00000" pt_clust_7="13000.00000" pt_clust_8="13000.00000" pt_clust_9="29.84264"></scales>
<clustering>
<clus scale="   29.843">  1  9  2 -1</clus>
<clus scale="   91.535">  5  6 -1 -1</clus>
<clus scale="   92.602">  7  8 -1 -1</clus>
<clus scale="  104.582">  1  5  2 -1</clus>
<clus scale="   29.843">  1  5  2 -1</clus>
</clustering>
</event>
<event>
 9    1  0.1234700E-005  0.1494702E+03  0.7546771E-02  0.1201165E+00
          1   -1    0    0  502    0  0.00000000000E+00  0.00000000000E+00  0.13405743698E+03  0.13405743698E+03  0.00000000000E+00 0. -1.
         -1   -1    0    0    0  501 -0.00000000000E+00 -0.00000000000E+00 -0.41812770386E+03  0.41812770386E+03  0.00000000000E+00 0.  1.
         23    2    1    2    0    0  0.11644983751E+03 -0.17565422645E+02 -0.33101113100E+03  0.36343742614E+03  0.93001533016E+02 0.  0.
         23    2    1    2    0    0 -0.10621761762E+03  0.43789742911E+02  0.57778384718E+02  0.15858374364E+03  0.92794063005E+02 0.  0.
        -11    1    4    4    0    0 -0.10132543118E+03  0.68442075794E+02  0.44208838542E+02  0.13002146803E+03  0.00000000000E+00 0. -1.
         11    1    4    4    0    0 -0.48921864423E+01 -0.24652332883E+02  0.13569546177E+02  0.28562275613E+02  0.00000000000E+00 0.  1.
        -13    1    3    3    0    0  0.86034279905E+02 -0.42530411527E+02 -0.29455594617E+03  0.30979660851E+03  0.00000000000E+00 0.  1.
         13    1    3    3    0    0  0.30415557605E+02  0.24964988882E+02 -0.36455184830E+02  0.53640817623E+02  0.00000000000E+00 0. -1.
         21    1    1    2  502  501 -0.10232219885E+02 -0.26224320266E+02 -0.10837520607E+02  0.30163971059E+02  0.00000000000E+00 0.  1.
<scales pt_clust_5="13000.00000" pt_clust_6="13000.00000" pt_clust_7="13000.00000" pt_clust_8="13000.00000" pt_clust_9="28.14984"></scales>
<clustering>
<clus scale="   28.150">  1  9  2 -1</clus>
<clus scale="   92.794">  5  6 -1 -1</clus>
<clus scale="   93.002">  7  8 -1 -1</clus>
<clus scale="  149.341">  1  5  2 -1</clus>
<clus scale="   28.150">  1  5  2 -1</clus>
</clustering>
</event>
<event>
 9    1  0.1234700E-005  0.1445360E+03  0.7546771E-02  0.1248241E+00
          1   -1    0    0  502    0  0.00000000000E+00  0.00000000000E+00  0.15933661817E+03  0.15933661817E+03  0.00000000000E+00 0. -1.
         -1   -1    0    0    0  501 -0.00000000000E+00 -0.00000000000E+00 -0.22792320839E+03  0.22792320839E+03  0.00000000000E+00 0.  1.
         23    2    1    2    0    0  0.94199250172E+02  0.52834410897E+02 -0.10368390682E+03  0.17527070366E+03  0.91128992760E+02 0.  0.
         23    2    1    2    0    0  0.17240607585E+02 -0.12683978682E+02  0.65047952635E+02  0.89809174865E+02  0.58106194874E+02 0.  0.
        -11    1    3    3    0    0  0.93054431587E+02  0.24035026848E+02 -0.37648275044E+02  0.10321919573E+03  0.00000000000E+00 0. -1.
         11    1    3    3    0    0  0.11448185849E+01  0.28799384049E+02 -0.66035631778E+02  0.72051507934E+02  0.00000000000E+00 0.  1.
        -13    1    4    4    0    0 -0.21059689229E+02 -0.31469957949E+01  0.14887450122E+02  0.25981729428E+02  0.00000000000E+00 0.  1.
         13    1    4    4    0    0  0.38300296813E+02 -0.95369828874E+01  0.50160502513E+02  0.63827445437E+02  0.00000000000E+00 0. -1.
         21    1    1    2  502  501 -0.11143985776E+03 -0.40150432215E+02 -0.29950636029E+02  0.12217994804E+03  0.00000000000E+00 0.  1.
<scales pt_clust_5="13000.00000" pt_clust_6="13000.00000" pt_clust_7="13000.00000" pt_clust_8="13000.00000" pt_clust_9="112.18805"></scales>
<clustering>
<clus scale="   58.106">  7  8 -1 -1</clus>
<clus scale="   61.923">  1  7  2 -1</clus>
<clus scale="   91.129">  5  6 -1 -1</clus>
<clus scale="  112.188">  1  9  2 -1</clus>
<clus scale="   61.923">  1  5  2 -1</clus>
</clustering>
</event>
<event>
 9    1  0.1234700E-005  0.1177604E+03  0.7546771E-02  0.1251817E+00
         -2   -1    0    0    0  501 -0.00000000000E+00  0.00000000000E+00  0.16268313891E+03  0.16268313891E+03  0.00000000000E+00 0.  1.
          2   -1    0    0  502    0  0.00000000000E+00 -0.00000000000E+00 -0.12868608200E+03  0.12868608200E+03  0.00000000000E+00 0. -1.
         23    2    1    2    0    0 -0.34307940293E+02 -0.21920192116E+02  0.84049718795E+02  0.14145173384E+03  0.10623892030E+03 0.  0.
         23    2    1    2    0    0  0.53598145057E+02  0.91922626900E+01 -0.61004100848E+02  0.12434316005E+03  0.93714792237E+02 0.  0.
        -11    1    3    3    0    0 -0.55033471178E+02 -0.48947137055E+02  0.34514411977E+02  0.81337259665E+02  0.00000000000E+00 0. -1.
         11    1    3    3    0    0  0.20725530884E+02  0.27026944939E+02  0.49535306818E+02  0.60114474170E+02  0.00000000000E+00 0.  1.
        -13    1    4    4    0    0 -0.41339854912E+00  0.20229122652E+02  0.18620327352E+02  0.27497361552E+02  0.00000000000E+00 0. -1.
         13    1    4    4    0    0  0.54011543606E+02 -0.11036859962E+02 -0.79624428200E+02  0.96845798498E+02  0.00000000000E+00 0.  1.
         21    1    1    2  502  501 -0.19290204763E+02  0.12727929425E+02  0.10951438960E+02  0.25574327021E+02  0.00000000000E+00 0.  1.
<scales pt_clust_5="13000.00000" pt_clust_6="13000.00000" pt_clust_7="13000.00000" pt_clust_8="13000.00000" pt_clust_9="23.11087"></scales>
<clustering>
<clus scale="   23.111">  1  9  2 -1</clus>
<clus scale="   93.715">  7  8 -1 -1</clus>
<clus scale="  106.239">  5  6 -1 -1</clus>
<clus scale="  106.599">  2  7  1 -1</clus>
<clus scale="  106.599">  2  5  1 -1</clus>
</clustering>
</event>
<event>
 9    1  0.1234700E-005  0.3588734E+03  0.7546771E-02  0.1059676E+00
         -2   -1    0    0    0  501 -0.00000000000E+00  0.00000000000E+00  0.16746742021E+03  0.16746742021E+03  0.00000000000E+00 0.  1.
          2   -1    0    0  502    0  0.00000000000E+00 -0.00000000000E+00 -0.10822800072E+04  0.10822800072E+04  0.00000000000E+00 0. -1.
         23    2    1    2    0    0  0.20967980234E+03 -0.28383788345E+03 -0.15205778503E+03  0.40049511506E+03  0.11289465710E+03 0.  0.
         23    2    1    2    0    0 -0.16404264404E+03  0.26379788131E+03 -0.65661986613E+03  0.73199628263E+03  0.90385828230E+02 0.  0.
        -11    1    4    4    0    0 -0.10120101717E+03  0.19686283290E+03 -0.37135389526E+03  0.43231971547E+03  0.00000000000E+00 0. -1.
         11    1    4    4    0    0 -0.62841626862E+02  0.66935048404E+02 -0.28526597087E+03  0.29967656716E+03  0.00000000000E+00 0.  1.
        -13    1    3    3    0    0  0.70238043518E+02 -0.43997937531E+02  0.24990701932E+01  0.82918312912E+02  0.00000000000E+00 0. -1.
         13    1    3    3    0    0  0.13944175882E+03 -0.23983994592E+03 -0.15455685523E+03  0.31757680215E+03  0.00000000000E+00 0.  1.
         21    1    1    2  502  501 -0.45637158306E+02  0.20040002144E+02 -0.10613493585E+03  0.11725602975E+03  0.00000000000E+00 0. -1.
<scales pt_clust_5="13000.00000" pt_clust_6="13000.00000" pt_clust_7="13000.00000" pt_clust_8="13000.00000" pt_clust_9="49.84327"></scales>
<clustering>
<clus scale="   49.843">  2  9  1 -1</clus>
<clus scale="   90.386">  5  6 -1 -1</clus>
<clus scale="  112.895">  7  8 -1 -1</clus>
<clus scale="  352.441">  2  5  1 -1</clus>
<clus scale="   49.843">  2  5  1 -1</clus>
</clustering>
</event>
<event>
 9    1  0.1234700E-005  0.1004646E+03  0.7546771E-02  0.1279537E+00
          2   -1    0    0  502    0  0.00000000000E+00  0.00000000000E+00  0.18186200545E+03  0.18186200545E+03  0.00000000000E+00 0. -1.
         -2   -1    0    0    0  501 -0.00000000000E+00 -0.00000000000E+00 -0.36592235412E+03  0.36592235412E+03  0.00000000000E+00 0.  1.
         23    2    1    2    0    0 -0.21264699552E+02 -0.42687823225E+02 -0.25642743497E+03  0.27596604021E+03  0.90154246976E+02 0.  0.
         23    2    1    2    0    0  0.78096654827E+02 -0.28843156861E+02 -0.37775032338E+02  0.12871752080E+03  0.90610329980E+02 0.  0.
        -11    1    4    4    0    0  0.74207360332E+02  0.16125456848E+02 -0.12423342356E+02  0.76948697983E+02  0.00000000000E+00 0. -1.
         11    1    4    4    0    0  0.38892944950E+01 -0.44968613709E+02 -0.25351689981E+02  0.51768822813E+02  0.00000000000E+00 0.  1.
        -13    1    3    3    0    0  0.91090397403E+01 -0.60437148866E+02 -0.11504677966E+03  0.13027426867E+03  0.00000000000E+00 0. -1.
         13    1    3    3    0    0 -0.30373739293E+02  0.17749325641E+02 -0.14138065530E+03  0.14569177154E+03  0.00000000000E+00 0.  1.
         21    1    1    2  502  501 -0.56831955275E+02  0.71530980086E+02  0.11014211864E+03  0.14310079857E+03  0.00000000000E+00 0. -1.
<scales pt_clust_5="13000.00000" pt_clust_6="13000.00000" pt_clust_7="13000.00000" pt_clust_8="13000.00000" pt_clust_9="91.35947"></scales>
<clustering>
<clus scale="   90.154">  7  8 -1 -1</clus>
<clus scale="   90.610">  5  6 -1 -1</clus>
<clus scale="   91.359">  1  9  2 -1</clus>
<clus scale="  100.053">  2  7  1 -1</clus>
<clus scale="   91.359">  1  5  2 -1</clus>
</clustering>
</event>
<event>
 9    1  0.2619917E-005  0.9271450E+02  0.7546771E-02  0.1297897E+00
         -2   -1    0    0    0  501 -0.00000000000E+00  0.00000000000E+00  0.30931105011E+03  0.30931105011E+03  0.00000000000E+00 0.  1.
          2   -1    0    0  502    0  0.00000000000E+00 -0.00000000000E+00 -0.13006008016E+03  0.13006008016E+03  0.00000000000E+00 0. -1.
         23    2    1    2    0    0 -0.32734992966E+01  0.33294257060E+01  0.27494861726E+03  0.29018140037E+03  0.92664459826E+02 0.  0.
         23    2    1    2    0    0 -0.14333316824E+02  0.93760256421E+01 -0.69151216662E+02  0.11489481121E+03  0.90141960533E+02 0.  0.
        -11    1    3    3    0    0 -0.16137063129E+02  0.37040231822E+02  0.22479691761E+03  0.22839885671E+03  0.00000000000E+00 0.  1.
         11    1    3    3    0    0  0.12863563832E+02 -0.33710806116E+02  0.50151699656E+02  0.61782543666E+02  0.00000000000E+00 0. -1.
        -13    1    4    4    0    0  0.20268053285E+02  0.29951613325E+02 -0.65053273897E+02  0.74429977626E+02  0.00000000000E+00 0. -1.
         13    1    4    4    0    0 -0.34601370109E+02 -0.20575587683E+02 -0.40979427649E+01  0.40464833582E+02  0.00000000000E+00 0.  1.
         21    1    1    2  502  501  0.17606816121E+02 -0.12705451348E+02 -0.26546430650E+02  0.34294918693E+02  0.00000000000E+00 0. -1.
<scales pt_clust_5="13000.00000" pt_clust_6="13000.00000" pt_clust_7="13000.00000" pt_clust_8="13000.00000" pt_clust_9="21.71240"></scales>
<clustering>
<clus scale="   21.712">  2  9  1 -1</clus>
<clus scale="   90.142">  7  8 -1 -1</clus>
<clus scale="   90.193">  2  7  1 -1</clus>
<clus scale="   92.664">  5  6 -1 -1</clus>
<clus scale="   21.712">  2  5  1 -1</clus>
</clustering>
</event>
<event>
 9    1  0.1234700E-005  0.1010409E+03  0.7546771E-02  0.1278301E+00
          1   -1    0    0  502    0  0.00000000000E+00  0.00000000000E+00  0.40520426789E+03  0.40520426789E+03  0.00000000000E+00 0. -1.
         -1   -1    0    0    0  501 -0.00000000000E+00 -0.00000000000E+00 -0.78353278084E+02  0.78353278084E+02  0.00000000000E+00 0.  1.
         23    2    1    2    0    0 -0.21612661708E+02  0.44025152420E+02 -0.22095805439E+02  0.10615539794E+03  0.91517335533E+02 0.  0.
         23    2    1    2    0    0 -0.28334458980E+01 -0.42682888824E+02  0.33370755089E+03  0.34856383294E+03  0.91138129772E+02 0.  0.
        -13    1    3    3    0    0 -0.21383663218E+02 -0.26050945313E+02 -0.87311841172E+01  0.34815892641E+02  0.00000000000E+00 0.  1.
         13    1    3    3    0    0 -0.22899848998E+00  0.70076097733E+02 -0.13364621321E+02  0.71339505303E+02  0.00000000000E+00 0. -1.
        -13    1    4    4    0    0 -0.20434355511E+02 -0.65573158997E+02  0.19124387372E+03  0.20320339884E+03  0.00000000000E+00 0. -1.
         13    1    4    4    0    0  0.17600909613E+02  0.22890270173E+02  0.14246367717E+03  0.14536043410E+03  0.00000000000E+00 0.  1.
         21    1    1    2  502  501  0.24446107606E+02 -0.13422635956E+01  0.15239244352E+02  0.28838315087E+02  0.00000000000E+00 0. -1.
<scales pt_clust_5="13000.00000" pt_clust_6="13000.00000" pt_clust_7="13000.00000" pt_clust_8="13000.00000" pt_clust_9="24.48293"></scales>
<clustering>
<clus scale="   24.483">  2  9  1 -1</clus>
<clus scale="   91.138">  7  8 -1 -1</clus>
<clus scale="   91.517">  5  6 -1 -1</clus>
<clus scale="  100.698">  1  7  2 -1</clus>
<clus scale="  100.698">  1  5  2 -1</clus>
</clustering>
</event>
<event>
 9    1  0.1234700E-005  0.9721020E+02  0.7546771E-02  0.1287335E+00
          2   -1    0    0  502    0  0.00000000000E+00  0.00000000000E+00  0.14453161976E+03  0.14453161976E+03  0.00000000000E+00 0. -1.
         -2   -1    0    0    0  501 -0.00000000000E+00 -0.00000000000E+00 -0.13119709792E+03  0.13119709792E+03  0.00000000000E+00 0.  1.
         23    2    1    2    0    0 -0.45025023097E+01 -0.30678585847E+02 -0.62256446303E+02  0.11249026016E+03  0.88412359820E+02 0.  0.
         23    2    1    2    0    0 -0.25759998801E+02  0.52102327115E+02  0.54090722996E+02  0.12037756387E+03  0.90480503647E+02 0.  0.
        -11    1    3    3    0    0 -0.39245155645E+02 -0.20987795701E+01 -0.49148358870E+01  0.39607357007E+02  0.00000000000E+00 0. -1.
         11    1    3    3    0    0  0.34742653335E+02 -0.28579806277E+02 -0.57341610416E+02  0.72882903158E+02  0.00000000000E+00 0.  1.
        -13    1    4    4    0    0 -0.33308586484E+02  0.74985607927E+02  0.49567493747E+02  0.95860522459E+02  0.00000000000E+00 0. -1.
         13    1    4    4    0    0  0.75485876834E+01 -0.22883280812E+02  0.45232292491E+01  0.24517041412E+02  0.00000000000E+00 0.  1.
         21    1    1    2  502  501  0.30262501111E+02 -0.21423741268E+02  0.21500245147E+02  0.42860893654E+02  0.00000000000E+00 0.  1.
<scales pt_clust_5="13000.00000" pt_clust_6="13000.00000" pt_clust_7="13000.00000" pt_clust_8="13000.00000" pt_clust_9="37.07824"></scales>
<clustering>
<clus scale="   37.078">  1  9  2 -1</clus>
<clus scale="   88.412">  5  6 -1 -1</clus>
<clus scale="   90.481">  7  8 -1 -1</clus>
<clus scale="   95.288">  2  5  1 -1</clus>
<clus scale="   37.078">  1  5  2 -1</clus>
</clustering>
</event>
<event>
 9    1  0.1234700E-005  0.1001223E+03  0.7546771E-02  0.1282708E+00
          1   -1    0    0  502    0  0.00000000000E+00  0.00000000000E+00  0.69531117667E+03  0.69531117667E+03  0.00000000000E+00 0. -1.
         -1   -1    0    0    0  501 -0.00000000000E+00 -0.00000000000E+00 -0.20222631542E+02  0.20222631542E+02  0.00000000000E+00 0.  1.
         23    2    1    2    0    0  0.22824537343E+01 -0.16835486929E+02  0.17444931045E+03  0.19805684877E+03  0.92224238751E+02 0.  0.
         23    2    1    2    0    0  0.59142453287E+01  0.35998883914E+02  0.34114188117E+03  0.35662352480E+03  0.97322440436E+02 0.  0.
        -11    1    3    3    0    0  0.40143137129E+02  0.16295710270E+02  0.86157219305E+02  0.96436964231E+02  0.00000000000E+00 0.  1.
         11    1    3    3    0    0 -0.37860683395E+02 -0.33131197199E+02  0.88292091149E+02  0.10161988454E+03  0.00000000000E+00 0. -1.
        -13    1    4    4    0    0 -0.48203825060E+01 -0.33381683566E+02  0.10986317317E+03  0.11492384307E+03  0.00000000000E+00 0.  1.
         13    1    4    4    0    0  0.10734627835E+02  0.69380567480E+02  0.23127870799E+03  0.24169968173E+03  0.00000000000E+00 0. -1.
         21    1    1    2  502  501 -0.81966990630E+01 -0.19163396985E+02  0.15949735351E+03  0.16085343464E+03  0.00000000000E+00 0. -1.
<scales pt_clust_5="13000.00000" pt_clust_6="13000.00000" pt_clust_7="13000.00000" pt_clust_8="13000.00000" pt_clust_9="20.84278"></scales>
<clustering>
<clus scale="   20.843">  1  9  2 -1</clus>
<clus scale="   92.224">  5  6 -1 -1</clus>
<clus scale="   95.174">  2  5  1 -1</clus>
<clus scale="   97.322">  7  8 -1 -1</clus>
<clus scale="   20.843">  1  5  2 -1</clus>
</clustering>
</event>
<event>
 9    1  0.1234700E-005  0.1224985E+03  0.7546771E-02  0.1239141E+00
          2   -1    0    0  502    0  0.00000000000E+00  0.00000000000E+00  0.46057423290E+03  0.46057423290E+03  0.00000000000E+00 0. -1.
         -2   -1    0    0    0  501 -0.00000000000E+00 -0.00000000000E+00 -0.53608329125E+02  0.53608329125E+02  0.00000000000E+00 0.  1.
         23    2    1    2    0    0  0.19327440524E+02 -0.66281923524E+02  0.12039490911E+03  0.16508567130E+03  0.89395197768E+02 0.  0.
         23    2    1    2    0    0  0.17942090893E+02  0.10875501235E+03  0.19140701703E+03  0.23842094987E+03  0.89768211686E+02 0.  0.
        -13    1    4    4    0    0 -0.23177169813E+02 -0.26121976606E+01  0.27983325967E+02  0.36428989957E+02  0.00000000000E+00 0.  1.
         13    1    4    4    0    0  0.41119260706E+02  0.11136721001E+03  0.16342369106E+03  0.20199195991E+03  0.00000000000E+00 0. -1.
        -13    1    3    3    0    0  0.41644106285E+02 -0.77443851069E+02  0.96150637811E+02  0.13029476892E+03  0.00000000000E+00 0.  1.
         13    1    3    3    0    0 -0.22316665761E+02  0.11161927545E+02  0.24244271300E+02  0.34790902375E+02  0.00000000000E+00 0. -1.
         21    1    1    2  502  501 -0.37269531417E+02 -0.42473088830E+02  0.95163977637E+02  0.11067594087E+03  0.00000000000E+00 0. -1.
<scales pt_clust_5="13000.00000" pt_clust_6="13000.00000" pt_clust_7="13000.00000" pt_clust_8="13000.00000" pt_clust_9="56.50647"></scales>
<clustering>
<clus scale="   56.506">  1  9  2 -1</clus>
<clus scale="   89.395">  7  8 -1 -1</clus>
<clus scale="   89.768">  5  6 -1 -1</clus>
<clus scale="  122.225">  2  7  1 -1</clus>
<clus scale="   56.506">  1  5  2 -1</clus>
</clustering>
</event>
<event>
 9    1  0.1234700E-005  0.2691950E+03  0.7546771E-02  0.1101803E+00
          1   -1    0    0  502    0  0.00000000000E+00  0.00000000000E+00  0.11256375014E+04  0.11256375014E+04  0.00000000000E+00 0. -1.
         -1   -1    0    0    0  501 -0.00000000000E+00 -0.00000000000E+00 -0.10005419286E+03  0.10005419286E+03  0.00000000000E+00 0.  1.
         23    2    1    2    0    0 -0.23581113740E+03  0.78064093168E+02  0.17100657857E+03  0.31541836624E+03  0.92437009272E+02 0.  0.
         23    2    1    2    0    0  0.24720053020E+03 -0.10461699577E+03  0.79563251372E+03  0.84462886493E+03  0.91181163891E+02 0.  0.
        -11    1    3    3    0    0 -0.52233608247E+02  0.22802211360E+02  0.91655403674E+02  0.10793055034E+03  0.00000000000E+00 0. -1.
         11    1    3    3    0    0 -0.18357752915E+03  0.55261881808E+02  0.79351174894E+02  0.20748781590E+03  0.00000000000E+00 0.  1.
        -13    1    4    4    0    0  0.43437663525E+02  0.14518693944E+02  0.16620954384E+03  0.17240427939E+03  0.00000000000E+00 0.  1.
         13    1    4    4    0    0  0.20376286667E+03 -0.11913568971E+03  0.62942296987E+03  0.67222458554E+03  0.00000000000E+00 0. -1.
         21    1    1    2  502  501 -0.11389392801E+02  0.26552902602E+02  0.58944216213E+02  0.65644463056E+02  0.00000000000E+00 0.  1.
<scales pt_clust_5="13000.00000" pt_clust_6="13000.00000" pt_clust_7="13000.00000" pt_clust_8="13000.00000" pt_clust_9="28.89247"></scales>
<clustering>
<clus scale="   28.892">  1  9  2 -1</clus>
<clus scale="   91.181">  7  8 -1 -1</clus>
<clus scale="   92.437">  5  6 -1 -1</clus>
<clus scale="  268.766">  1  7  2 -1</clus>
<clus scale="   28.892">  1  5  2 -1</clus>
</clustering>
</event>
<event>
 9    1  0.1234700E-005  0.1454876E+03  0.7546771E-02  0.1224608E+00
          2   -1    0    0  502    0  0.00000000000E+00  0.00000000000E+00  0.13168006887E+04  0.13168006887E+04  0.00000000000E+00 0. -1.
         -2   -1    0    0    0  501 -0.00000000000E+00 -0.00000000000E+00 -0.33610003528E+02  0.33610003528E+02  0.00000000000E+00 0.  1.
         23    2    1    2    0    0  0.37277472894E+02  0.14973628129E+02  0.17419391526E+03  0.20006635657E+03  0.89828767071E+02 0.  0.
         23    2    1    2    0    0  0.48636836880E+02  0.92918927414E+02  0.80081868605E+03  0.81271168981E+03  0.90500021334E+02 0.  0.
        -13    1    3    3    0    0 -0.40865719127E+01  0.46321076804E+02  0.82774289226E+02  0.94941693598E+02  0.00000000000E+00 0.  1.
         13    1    3    3    0    0  0.41364044807E+02 -0.31347448676E+02  0.91419626031E+02  0.10512466297E+03  0.00000000000E+00 0. -1.
        -13    1    4    4    0    0  0.14747853758E+02  0.10201154440E+03  0.62216176348E+03  0.63064182728E+03  0.00000000000E+00 0.  1.
         13    1    4    4    0    0  0.33888983122E+02 -0.90926169829E+01  0.17865692257E+03  0.18206986253E+03  0.00000000000E+00 0. -1.
         21    1    1    2  502  501 -0.85914309774E+02 -0.10789255554E+03  0.30817808386E+03  0.33763264584E+03  0.00000000000E+00 0. -1.
<scales pt_clust_5="13000.00000" pt_clust_6="13000.00000" pt_clust_7="13000.00000" pt_clust_8="13000.00000" pt_clust_9="113.91390"></scales>
<clustering>
<clus scale="   89.829">  5  6 -1 -1</clus>
<clus scale="   90.500">  7  8 -1 -1</clus>
<clus scale="   98.402">  2  5  1 -1</clus>
<clus scale="  113.914">  2  9  1 -1</clus>
<clus scale="  145.488">  1  5  2 -1</clus>
</clustering>
</event>
<event>
 9    1  0.1234700E-005  0.8957645E+02  0.7546771E-02  0.1304528E+00
          1   -1    0    0  502    0  0.00000000000E+00  0.00000000000E+00  0.13186225834E+03  0.13186225834E+03  0.00000000000E+00 0. -1.
         -1   -1    0    0    0  501 -0.00000000000E+00 -0.00000000000E+00 -0.78922810669E+02  0.78922810669E+02  0.00000000000E+00 0.  1.
         23    2    1    2    0    0  0.96804345632E+00 -0.65752924864E+01  0.10156941459E+02  0.88798247346E+02  0.87964729821E+02 0.  0.
         23    2    1    2    0    0 -0.20462241453E+02 -0.31441634937E+01  0.27755508377E+02  0.95523597295E+02  0.89026963924E+02 0.  0.
        -11    1    4    4    0    0 -0.45003470436E+02  0.62731021176E+01 -0.12788667435E+02  0.47203963565E+02  0.00000000000E+00 0.  1.
         11    1    4    4    0    0  0.24541228983E+02 -0.94172656113E+01  0.40544175811E+02  0.48319633730E+02  0.00000000000E+00 0. -1.
        -13    1    3    3    0    0  0.97978229691E+01  0.39156340389E+02 -0.27785958391E+01  0.40459077133E+02  0.00000000000E+00 0.  1.
         13    1    3    3    0    0 -0.88297795128E+01 -0.45731632876E+02  0.12935537298E+02  0.48339170213E+02  0.00000000000E+00 0. -1.
         21    1    1    2  502  501  0.19494197997E+02  0.97194559801E+01  0.15026997839E+02  0.26463224371E+02  0.00000000000E+00 0.  1.
<scales pt_clust_5="13000.00000" pt_clust_6="13000.00000" pt_clust_7="13000.00000" pt_clust_8="13000.00000" pt_clust_9="21.78283"></scales>
<clustering>
<clus scale="   21.783">  1  9  2 -1</clus>
<clus scale="   87.965">  7  8 -1 -1</clus>
<clus scale="   88.521">  2  7  1 -1</clus>
<clus scale="   89.027">  5  6 -1 -1</clus>
<clus scale="   21.783">  1  5  2 -1</clus>
</clustering>
</event>
<event>
 9    1  0.1234700E-005  0.1072047E+03  0.7546771E-02  0.1267233E+00
          1   -1    0    0  502    0  0.00000000000E+00  0.00000000000E+00  0.73918231346E+02  0.73918231346E+02  0.00000000000E+00 0. -1.
         -1   -1    0    0    0  501 -0.00000000000E+00 -0.00000000000E+00 -0.29951739056E+03  0.29951739056E+03  0.00000000000E+00 0.  1.
         23    2    1    2    0    0  0.35443654091E+02  0.52256801076E+02 -0.14429905025E+03  0.18061268482E+03  0.88383822849E+02 0.  0.
         23    2    1    2    0    0 -0.14794149927E+02 -0.45726823638E+02 -0.11372661555E+03  0.15382907915E+03  0.91759649275E+02 0.  0.
        -11    1    3    3    0    0  0.22573010355E+02 -0.67463244399E+01  0.66879188392E+00  0.23569068130E+02  0.00000000000E+00 0. -1.
         11    1    3    3    0    0  0.12870643736E+02  0.59003125516E+02 -0.14496784213E+03  0.15704361669E+03  0.00000000000E+00 0.  1.
        -13    1    4    4    0    0  0.16858576507E+02 -0.54423554072E+02 -0.10563561586E+03  0.12002090725E+03  0.00000000000E+00 0. -1.
         13    1    4    4    0    0 -0.31652726434E+02  0.86967304344E+01 -0.80909996906E+01  0.33808171896E+02  0.00000000000E+00 0.  1.
         21    1    1    2  502  501 -0.20649504164E+02 -0.65299774383E+01  0.32426506584E+02  0.38993857937E+02  0.00000000000E+00 0.  1.
<scales pt_clust_5="13000.00000" pt_clust_6="13000.00000" pt_clust_7="13000.00000" pt_clust_8="13000.00000" pt_clust_9="21.65739"></scales>
<clustering>
<clus scale="   21.657">  1  9  2 -1</clus>
<clus scale="   88.384">  5  6 -1 -1</clus>
<clus scale="   91.760">  7  8 -1 -1</clus>
<clus scale="  104.330">  2  5  1 -1</clus>
<clus scale="   21.657">  1  5  2 -1</clus>
</clustering>
</event>
<event>
 9    1  0.1234700E-005  0.1585337E+03  0.7546771E-02  0.1190374E+00
         -2   -1    0    0    0  501 -0.00000000000E+00  0.00000000000E+00  0.39171590572E+02  0.39171590572E+02  0.00000000000E+00 0.  1.
          2   -1    0    0  502    0  0.00000000000E+00 -0.00000000000E+00 -0.95565086478E+03  0.95565086478E+03  0.00000000000E+00 0. -1.
         23    2    1    2    0    0 -0.12031044834E+03 -0.61056471840E+02 -0.22736847767E+03  0.27976611407E+03  0.91488563293E+02 0.  0.
         23    2    1    2    0    0  0.11860917417E+03  0.25492387447E+02 -0.49784599517E+03  0.52050577542E+03  0.91420070688E+02 0.  0.
        -13    1    3    3    0    0 -0.47348914383E+02  0.19480563269E+01 -0.14638420108E+03  0.15386373498E+03  0.00000000000E+00 0. -1.
         13    1    3    3    0    0 -0.72961533957E+02 -0.63004528167E+02 -0.80984276594E+02  0.12590237910E+03  0.00000000000E+00 0.  1.
        -13    1    4    4    0    0  0.11408629280E+03 -0.41640336112E+01 -0.44810306363E+03  0.46241688661E+03  0.00000000000E+00 0.  1.
         13    1    4    4    0    0  0.45228813675E+01  0.29656421058E+02 -0.49742931538E+02  0.58088888815E+02  0.00000000000E+00 0. -1.
         21    1    1    2  502  501  0.17012741734E+01  0.35564084393E+02 -0.19126480137E+03  0.19455056585E+03  0.00000000000E+00 0. -1.
<scales pt_clust_5="13000.00000" pt_clust_6="13000.00000" pt_clust_7="13000.00000" pt_clust_8="13000.00000" pt_clust_9="35.60475"></scales>
<clustering>
<clus scale="   35.605">  2  9  1 -1</clus>
<clus scale="   91.420">  7  8 -1 -1</clus>
<clus scale="   91.489">  5  6 -1 -1</clus>
<clus scale="  158.494">  2  7  1 -1</clus>
<clus scale="   35.605">  2  5  1 -1</clus>
</clustering>
</event>
<event>
 9    1  0.1234700E-005  0.2410168E+03  0.7546771E-02  0.1156691E+00
         -2   -1    0    0    0  501 -0.00000000000E+00  0.00000000000E+00  0.73230333105E+02  0.73230333105E+02  0.00000000000E+00 0.  1.
          2   -1    0    0  502    0  0.00000000000E+00 -0.00000000000E+00 -0.12216822927E+04  0.12216822927E+04  0.00000000000E+00 0. -1.
         23    2    1    2    0    0 -0.14186191897E+02  0.19587895093E+02 -0.66461733220E+02  0.11759897150E+03  0.93954363606E+02 0.  0.
         23    2    1    2    0    0  0.22809021704E+03 -0.35372083058E+02 -0.61351403813E+03  0.66207195228E+03  0.93077729026E+02 0.  0.
        -11    1    3    3    0    0 -0.19221056106E+02 -0.36085989464E+02 -0.32101314416E+02  0.51982131744E+02  0.00000000000E+00 0. -1.
         11    1    3    3    0    0  0.50348642092E+01  0.55673884556E+02 -0.34360418804E+02  0.65616839756E+02  0.00000000000E+00 0.  1.
        -13    1    4    4    0    0  0.22960270307E+02  0.23225545778E+02 -0.12119259430E+03  0.12551591494E+03  0.00000000000E+00 0.  1.
         13    1    4    4    0    0  0.20512994673E+03 -0.58597628836E+02 -0.49232144383E+03  0.53655603734E+03  0.00000000000E+00 0. -1.
         21    1    1    2  502  501 -0.21390402514E+03  0.15784187965E+02 -0.46847618827E+03  0.51524170205E+03  0.00000000000E+00 0.  1.
<scales pt_clust_5="13000.00000" pt_clust_6="13000.00000" pt_clust_7="13000.00000" pt_clust_8="13000.00000" pt_clust_9="222.31880"></scales>
<clustering>
<clus scale="   93.078">  7  8 -1 -1</clus>
<clus scale="   93.954">  5  6 -1 -1</clus>
<clus scale="   97.017">  1  5  2 -1</clus>
<clus scale="  222.319">  1  9  2 -1</clus>
<clus scale="  241.017">  2  5  1 -1</clus>
</clustering>
</event>
<event>
 9    1  0.1234700E-005  0.9029226E+02  0.7546771E-02  0.1302683E+00
          3   -1    0    0  502    0  0.00000000000E+00  0.00000000000E+00  0.56710639059E+02  0.56710639059E+02  0.00000000000E+00 0. -1.
         -3   -1    0    0    0  501 -0.00000000000E+00 -0.00000000000E+00 -0.33610214970E+03  0.33610214970E+03  0.00000000000E+00 0.  1.
         23    2    1    2    0    0  0.17387502105E+01 -0.15841477305E+02 -0.25358550596E+03  0.26863804254E+03  0.87217047724E+02 0.  0.
         23    2    1    2    0    0  0.62413084279E+01  0.39275133141E+02 -0.21549669592E+02  0.99056347581E+02  0.88126509760E+02 0.  0.
        -13    1    4    4    0    0  0.23329209040E+02  0.78094122666E+01  0.28415723229E+02  0.37585798395E+02  0.00000000000E+00 0. -1.
         13    1    4    4    0    0 -0.17087900612E+02  0.31465720874E+02 -0.49965392821E+02  0.61470549186E+02  0.00000000000E+00 0.  1.
        -13    1    3    3    0    0 -0.29190881263E+02 -0.23689316828E+02 -0.21638643835E+03  0.21962782606E+03  0.00000000000E+00 0.  1.
         13    1    3    3    0    0  0.30929631474E+02  0.78478395232E+01 -0.37199067612E+02  0.49010216481E+02  0.00000000000E+00 0. -1.
         21    1    1    2  502  501 -0.79800586384E+01 -0.23433655836E+02 -0.42563350935E+01  0.25118398638E+02  0.00000000000E+00 0.  1.
<scales pt_clust_5="13000.00000" pt_clust_6="13000.00000" pt_clust_7="13000.00000" pt_clust_8="13000.00000" pt_clust_9="24.75515"></scales>
<clustering>
<clus scale="   24.755">  1  9  2 -1</clus>
<clus scale="   87.217">  7  8 -1 -1</clus>
<clus scale="   88.127">  5  6 -1 -1</clus>
<clus scale="   89.405">  2  7  1 -1</clus>
<clus scale="   24.755">  1  5  2 -1</clus>
</clustering>
</event>
<event>
 9    1  0.1234700E-005  0.1056111E+03  0.7546771E-02  0.1269260E+00
         -2   -1    0    0    0  501 -0.00000000000E+00  0.00000000000E+00  0.74436674082E+02  0.74436674082E+02  0.00000000000E+00 0.  1.
          2   -1    0    0  502    0  0.00000000000E+00 -0.00000000000E+00 -0.30115064540E+03  0.30115064540E+03  0.00000000000E+00 0. -1.
         23    2    1    2    0    0  0.59631245952E+02  0.62526753574E+01  0.74849097484E+01  0.10911642113E+03  0.90859165985E+02 0.  0.
         23    2    1    2    0    0 -0.30002899445E+02 -0.14920549212E+02 -0.17142812180E+03  0.19651992143E+03  0.90053771770E+02 0.  0.
        -11    1    4    4    0    0 -0.41376712973E+02 -0.40121659309E+02 -0.15245949960E+03  0.16298981238E+03  0.00000000000E+00 0. -1.
         11    1    4    4    0    0  0.11373813528E+02  0.25201110097E+02 -0.18968622197E+02  0.33530109042E+02  0.00000000000E+00 0.  1.
        -13    1    3    3    0    0  0.62213271040E+02  0.36865436813E+02  0.21363932198E+02  0.75405365352E+02  0.00000000000E+00 0.  1.
         13    1    3    3    0    0 -0.25820250886E+01 -0.30612761456E+02 -0.13879022449E+02  0.33711055778E+02  0.00000000000E+00 0. -1.
         21    1    1    2  502  501 -0.29628346507E+02  0.86678738542E+01 -0.62770759264E+02  0.69950976923E+02  0.00000000000E+00 0. -1.
<scales pt_clust_5="13000.00000" pt_clust_6="13000.00000" pt_clust_7="13000.00000" pt_clust_8="13000.00000" pt_clust_9="30.87023"></scales>
<clustering>
<clus scale="   30.870">  2  9  1 -1</clus>
<clus scale="   90.054">  5  6 -1 -1</clus>
<clus scale="   90.859">  7  8 -1 -1</clus>
<clus scale="  104.919">  2  5  1 -1</clus>
<clus scale="   30.870">  2  5  1 -1</clus>
</clustering>
</event>
<event>
 9    1  0.1234700E-005  0.1094104E+03  0.7546771E-02  0.1261862E+00
          1   -1    0    0  502    0  0.00000000000E+00  0.00000000000E+00  0.40228228971E+03  0.40228228971E+03  0.00000000000E+00 0. -1.
         -1   -1    0    0    0  501 -0.00000000000E+00 -0.00000000000E+00 -0.98160441186E+02  0.98160441186E+02  0.00000000000E+00 0.  1.
         23    2    1    2    0    0 -0.52449179933E+02 -0.31281542444E+02 -0.49924384831E+02  0.12198666930E+03  0.93052952194E+02 0.  0.
         23    2    1    2    0    0  0.35665026282E+02  0.79835575052E+01  0.22137282100E+03  0.24271093917E+03  0.92557781018E+02 0.  0.
        -11    1    3    3    0    0 -0.58894897741E+02 -0.54176059124E+02 -0.55714152250E+02  0.97507543929E+02  0.00000000000E+00 0.  1.
         11    1    3    3    0    0  0.64457178082E+01  0.22894516679E+02  0.57897674185E+01  0.24479125368E+02  0.00000000000E+00 0. -1.
        -13    1    4    4    0    0  0.17471015569E+02  0.50269994967E+02  0.12737370822E+03  0.13804481274E+03  0.00000000000E+00 0. -1.
         13    1    4    4    0    0  0.18194010713E+02 -0.42286437462E+02  0.93999112783E+02  0.10466612644E+03  0.00000000000E+00 0.  1.
         21    1    1    2  502  501  0.16784153651E+02  0.23297984939E+02  0.13267341235E+03  0.13574512242E+03  0.00000000000E+00 0. -1.
<scales pt_clust_5="13000.00000" pt_clust_6="13000.00000" pt_clust_7="13000.00000" pt_clust_8="13000.00000" pt_clust_9="28.71418"></scales>
<clustering>
<clus scale="   28.714">  1  9  2 -1</clus>
<clus scale="   92.558">  7  8 -1 -1</clus>
<clus scale="   93.053">  5  6 -1 -1</clus>
<clus scale="  108.990">  1  7  2 -1</clus>
<clus scale="   28.714">  1  5  2 -1</clus>
</clustering>
</event>
<event>
 9    1  0.1234700E-005  0.1420872E+03  0.7546771E-02  0.1210769E+00
         -1   -1    0    0    0  501 -0.00000000000E+00  0.00000000000E+00  0.15119848792E+03  0.15119848792E+03  0.00000000000E+00 0.  1.
          1   -1    0    0  502    0  0.00000000000E+00 -0.00000000000E+00 -0.27880007561E+03  0.27880007561E+03  0.00000000000E+00 0. -1.
         23    2    1    2    0    0  0.75668625047E+01  0.11766362018E+03  0.79730839596E+02  0.16797818504E+03  0.89205823497E+02 0.  0.
         23    2    1    2    0    0  0.19018274319E+01 -0.77619051311E+02 -0.15432448683E+03  0.19491549540E+03  0.90264439487E+02 0.  0.
        -11    1    4    4    0    0  0.23722431787E+02 -0.54482076946E+02 -0.15179506784E+03  0.16301163485E+03  0.00000000000E+00 0. -1.
         11    1    4    4    0    0 -0.21820604355E+02 -0.23136974365E+02 -0.25294189966E+01  0.31903860544E+02  0.00000000000E+00 0.  1.
        -13    1    3    3    0    0 -0.25239484898E+02  0.10121048065E+03  0.79706388517E+02  0.13127719285E+03  0.00000000000E+00 0.  1.
         13    1    3    3    0    0  0.32806347402E+02  0.16453139524E+02  0.24451079793E-01  0.36700992193E+02  0.00000000000E+00 0. -1.
         21    1    1    2  502  501 -0.94686899365E+01 -0.40044568866E+02 -0.53007940451E+02  0.67104883098E+02  0.00000000000E+00 0.  1.
<scales pt_clust_5="13000.00000" pt_clust_6="13000.00000" pt_clust_7="13000.00000" pt_clust_8="13000.00000" pt_clust_9="41.14880"></scales>
<clustering>
<clus scale="   41.149">  2  9  1 -1</clus>
<clus scale="   89.206">  7  8 -1 -1</clus>
<clus scale="   90.264">  5  6 -1 -1</clus>
<clus scale="  141.417">  1  7  2 -1</clus>
<clus scale="   41.149">  2  5  1 -1</clus>
</clustering>
</event>
<event>
 9    1  0.1234700E-005  0.9624031E+02  0.7546771E-02  0.1288820E+00
         -1   -1    0    0    0  501 -0.00000000000E+00  0.00000000000E+00  0.28676618175E+02  0.28676618175E+02  0.00000000000E+00 0.  1.
          1   -1    0    0  502    0  0.00000000000E+00 -0.00000000000E+00 -0.44476495562E+03  0.44476495562E+03  0.00000000000E+00 0. -1.
         23    2    1    2    0    0 -0.17060365222E+02  0.49042251044E+01 -0.15382931697E+03  0.18014749688E+03  0.92057342935E+02 0.  0.
         23    2    1    2    0    0  0.38741903863E+02 -0.30403116253E+01 -0.15632071534E+03  0.18514377508E+03  0.91279092882E+02 0.  0.
        -13    1    4    4    0    0 -0.64921614591E+01  0.36102192366E+02 -0.39542731080E+02  0.53936481488E+02  0.00000000000E+00 0. -1.
         13    1    4    4    0    0  0.45234065322E+02 -0.39142503991E+02 -0.11677798426E+03  0.13120729359E+03  0.00000000000E+00 0.  1.
        -13    1    3    3    0    0 -0.41361851041E+01 -0.31457088387E+02 -0.13277002092E+02  0.34393825340E+02  0.00000000000E+00 0. -1.
         13    1    3    3    0    0 -0.12924180118E+02  0.36361313491E+02 -0.14055231487E+03  0.14575367154E+03  0.00000000000E+00 0.  1.
         21    1    1    2  502  501 -0.21681538641E+02 -0.18639134792E+01 -0.10593830513E+03  0.10815030183E+03  0.00000000000E+00 0. -1.
<scales pt_clust_5="13000.00000" pt_clust_6="13000.00000" pt_clust_7="13000.00000" pt_clust_8="13000.00000" pt_clust_9="21.76151"></scales>
<clustering>
<clus scale="   21.762">  2  9  1 -1</clus>
<clus scale="   91.279">  5  6 -1 -1</clus>
<clus scale="   92.057">  7  8 -1 -1</clus>
<clus scale="   95.496">  2  5  1 -1</clus>
<clus scale="   21.762">  2  5  1 -1</clus>
</clustering>
</event>
<event>
 9    1  0.1234700E-005  0.1093145E+03  0.7546771E-02  0.1262193E+00
         -2   -1    0    0    0  501 -0.00000000000E+00  0.00000000000E+00  0.53293626851E+02  0.53293626851E+02  0.00000000000E+00 0.  1.
          2   -1    0    0  502    0  0.00000000000E+00 -0.00000000000E+00 -0.33753871642E+03  0.33753871642E+03  0.00000000000E+00 0. -1.
         23    2    1    2    0    0  0.77171695580E+01 -0.57209565254E+02 -0.94126195264E+02  0.14365626497E+03  0.91896097678E+02 0.  0.
         23    2    1    2    0    0  0.33081351303E+02  0.59211273557E+02 -0.11447317622E+03  0.16120631149E+03  0.91011076634E+02 0.  0.
        -11    1    4    4    0    0  0.28319843207E+01  0.77644328356E+02 -0.72318613075E+02  0.10614444714E+03  0.00000000000E+00 0.  1.
         11    1    4    4    0    0  0.30249366982E+02 -0.18433054799E+02 -0.42154563146E+02  0.55061864353E+02  0.00000000000E+00 0. -1.
        -13    1    3    3    0    0 -0.25550717537E+02  0.13636441007E+02 -0.35785499946E+02  0.46036873226E+02  0.00000000000E+00 0.  1.
         13    1    3    3    0    0  0.33267887095E+02 -0.70846006261E+02 -0.58340695318E+02  0.97619391747E+02  0.00000000000E+00 0. -1.
         21    1    1    2  502  501 -0.40798520861E+02 -0.20017083025E+01 -0.75645718079E+02  0.85969766803E+02  0.00000000000E+00 0. -1.
<scales pt_clust_5="13000.00000" pt_clust_6="13000.00000" pt_clust_7="13000.00000" pt_clust_8="13000.00000" pt_clust_9="40.84760"></scales>
<clustering>
<clus scale="   40.848">  2  9  1 -1</clus>
<clus scale="   91.011">  5  6 -1 -1</clus>
<clus scale="   91.896">  7  8 -1 -1</clus>
<clus scale="  108.572">  2  5  1 -1</clus>
<clus scale="   40.848">  2  5  1 -1</clus>
</clustering>
</event>
<event>
 9    1  0.1234700E-005  0.1349919E+03  0.7546771E-02  0.1236257E+00
         -2   -1    0    0    0  501 -0.00000000000E+00  0.00000000000E+00  0.14053875886E+03  0.14053875886E+03  0.00000000000E+00 0.  1.
          2   -1    0    0  502    0  0.00000000000E+00 -0.00000000000E+00 -0.31494035131E+03  0.31494035131E+03  0.00000000000E+00 0. -1.
         23    2    1    2    0    0 -0.13198839207E+02 -0.32952720319E+02 -0.35985186322E+02  0.10333349785E+03  0.90126505598E+02 0.  0.
         23    2    1    2    0    0 -0.65473608110E+02 -0.35027677205E+02  0.57450603564E+02  0.13039220445E+03  0.90486593500E+02 0.  0.
        -11    1    4    4    0    0 -0.86517630122E+02 -0.28529697364E+02  0.31585250801E+02  0.96420288435E+02  0.00000000000E+00 0.  1.
         11    1    4    4    0    0  0.21044022012E+02 -0.64979798418E+01  0.25865352763E+02  0.33971916019E+02  0.00000000000E+00 0. -1.
        -13    1    3    3    0    0 -0.12864721884E+02  0.19954066166E+02 -0.43830114055E+02  0.49847213802E+02  0.00000000000E+00 0. -1.
         13    1    3    3    0    0 -0.33411732330E+00 -0.52906786485E+02  0.78449277330E+01  0.53486284052E+02  0.00000000000E+00 0.  1.
         21    1    1    2  502  501  0.78672447317E+02  0.67980397524E+02 -0.19586700969E+03  0.22175340786E+03  0.00000000000E+00 0. -1.
<scales pt_clust_5="13000.00000" pt_clust_6="13000.00000" pt_clust_7="13000.00000" pt_clust_8="13000.00000" pt_clust_9="100.17484"></scales>
<clustering>
<clus scale="   90.127">  7  8 -1 -1</clus>
<clus scale="   90.487">  5  6 -1 -1</clus>
<clus scale="   96.865">  1  7  2 -1</clus>
<clus scale="  100.175">  2  9  1 -1</clus>
<clus scale="  100.175">  2  5  1 -1</clus>
</clustering>
</event>
<event>
 9    1  0.1234700E-005  0.1909103E+03  0.7546771E-02  0.1171868E+00
          2   -1    0    0  502    0  0.00000000000E+00  0.00000000000E+00  0.16998150047E+04  0.16998150047E+04  0.00000000000E+00 0. -1.
         -2   -1    0    0    0  501 -0.00000000000E+00 -0.00000000000E+00 -0.63869274258E+02  0.63869274258E+02  0.00000000000E+00 0.  1.
         23    2    1    2    0    0  0.19543069344E+02  0.10107954150E+03  0.78961867914E+02  0.15853431642E+03  0.91099657680E+02 0.  0.
         23    2    1    2    0    0 -0.16214418682E+03 -0.14690640888E+03  0.84098180795E+03  0.87364868253E+03  0.90218561878E+02 0.  0.
        -11    1    3    3    0    0  0.40454301282E+02  0.80306671394E+02  0.89845526476E+02  0.12711384893E+03  0.00000000000E+00 0.  1.
         11    1    3    3    0    0 -0.20911231938E+02  0.20772870109E+02 -0.10883658561E+02  0.31420467491E+02  0.00000000000E+00 0. -1.
        -13    1    4    4    0    0 -0.80208401057E+02 -0.11351724117E+03  0.38895750312E+03  0.41304659650E+03  0.00000000000E+00 0.  1.
         13    1    4    4    0    0 -0.81935785764E+02 -0.33389167705E+02  0.45202430483E+03  0.46060208604E+03  0.00000000000E+00 0. -1.
         21    1    1    2  502  501  0.14260111748E+03  0.45826867374E+02  0.71600205459E+03  0.73150128001E+03  0.00000000000E+00 0.  1.
<scales pt_clust_5="13000.00000" pt_clust_6="13000.00000" pt_clust_7="13000.00000" pt_clust_8="13000.00000" pt_clust_9="168.24793"></scales>
<clustering>
<clus scale="   90.219">  7  8 -1 -1</clus>
<clus scale="   91.100">  5  6 -1 -1</clus>
<clus scale="  137.471">  2  5  1 -1</clus>
<clus scale="  168.248">  1  9  2 -1</clus>
<clus scale="  168.248">  1  5  2 -1</clus>
</clustering>
</event>
<event>
 9    1  0.1234700E-005  0.1155229E+03  0.7546771E-02  0.1252397E+00
         -2   -1    0    0    0  501 -0.00000000000E+00  0.00000000000E+00  0.57573988925E+02  0.57573988925E+02  0.00000000000E+00 0.  1.
          2   -1    0    0  502    0  0.00000000000E+00 -0.00000000000E+00 -0.45930884421E+03  0.45930884421E+03  0.00000000000E+00 0. -1.
         23    2    1    2    0    0 -0.10354029472E+02 -0.57251258910E+02 -0.53858306862E+02  0.12186530081E+03  0.92550104005E+02 0.  0.
         23    2    1    2    0    0 -0.78843756000E+00  0.10556391875E+03 -0.26605892853E+03  0.29934940494E+03  0.87626195899E+02 0.  0.
        -11    1    3    3    0    0  0.10506875264E+02 -0.71031397386E+02 -0.11557488529E+02  0.72728463365E+02  0.00000000000E+00 0.  1.
         11    1    3    3    0    0 -0.20860904735E+02  0.13780138476E+02 -0.42300818333E+02  0.49136837448E+02  0.00000000000E+00 0. -1.
        -11    1    4    4    0    0 -0.23742532691E+02  0.10356261464E+03 -0.16924903295E+03  0.19983532762E+03  0.00000000000E+00 0. -1.
         11    1    4    4    0    0  0.22954095131E+02  0.20013041090E+01 -0.96809895584E+02  0.99514077318E+02  0.00000000000E+00 0.  1.
         21    1    1    2  502  501  0.11142467032E+02 -0.48312659844E+02 -0.81817619892E+02  0.95668127386E+02  0.00000000000E+00 0.  1.
<scales pt_clust_5="13000.00000" pt_clust_6="13000.00000" pt_clust_7="13000.00000" pt_clust_8="13000.00000" pt_clust_9="49.58092"></scales>
<clustering>
<clus scale="   49.581">  2  9  1 -1</clus>
<clus scale="   87.626">  7  8 -1 -1</clus>
<clus scale="   92.550">  5  6 -1 -1</clus>
<clus scale="  111.617">  2  7  1 -1</clus>
<clus scale="   49.581">  2  5  1 -1</clus>
</clustering>
</event>
<event>
 9    1  0.1896887E-005  0.1277491E+03  0.7546771E-02  0.1231412E+00
          4   -1    0    0  502    0  0.00000000000E+00  0.00000000000E+00  0.29374384367E+03  0.29374384367E+03  0.00000000000E+00 0. -1.
         -4   -1    0    0    0  501 -0.00000000000E+00 -0.00000000000E+00 -0.14001096515E+03  0.14001096515E+03  0.00000000000E+00 0.  1.
         23    2    1    2    0    0 -0.81520642806E+02  0.29941795782E+02 -0.84401710368E+02  0.15216118820E+03  0.92126283666E+02 0.  0.
         23    2    1    2    0    0  0.84060169514E+02 -0.95896062419E+01  0.22172936829E+03  0.25532972758E+03  0.94187495852E+02 0.  0.
        -11    1    3    3    0    0 -0.54158289719E+02  0.61629665572E+02 -0.70116967227E+02  0.10792462702E+03  0.00000000000E+00 0.  1.
         11    1    3    3    0    0 -0.27362353087E+02 -0.31687869790E+02 -0.14284743141E+02  0.44236561178E+02  0.00000000000E+00 0. -1.
        -11    1    4    4    0    0 -0.98713685180E+01 -0.29047723284E+02  0.54364981083E+02  0.62424076386E+02  0.00000000000E+00 0.  1.
         11    1    4    4    0    0  0.93931538032E+02  0.19458117042E+02  0.16736438721E+03  0.19290565119E+03  0.00000000000E+00 0. -1.
         21    1    1    2  502  501 -0.25395267080E+01 -0.20352189540E+02  0.16405220602E+02  0.26263893047E+02  0.00000000000E+00 0. -1.
<scales pt_clust_5="13000.00000" pt_clust_6="13000.00000" pt_clust_7="13000.00000" pt_clust_8="13000.00000" pt_clust_9="20.51002"></scales>
<clustering>
<clus scale="   20.510">  1  9  2 -1</clus>
<clus scale="   92.126">  5  6 -1 -1</clus>
<clus scale="   94.187">  7  8 -1 -1</clus>
<clus scale="  126.237">  2  5  1 -1</clus>
<clus scale="   20.510">  1  5  2 -1</clus>
</clustering>
</event>
<event>
 9    1  0.1234700E-005  0.1116440E+03  0.7546771E-02  0.1257599E+00
          1   -1    0    0  502    0  0.00000000000E+00  0.00000000000E+00  0.26363544710E+03  0.26363544710E+03  0.00000000000E+00 0. -1.
         -1   -1    0    0    0  501 -0.00000000000E+00 -0.00000000000E+00 -0.86304658119E+02  0.86304658119E+02  0.00000000000E+00 0.  1.
         23    2    1    2    0    0  0.50312653156E+02 -0.32580172731E+02 -0.10230663895E+02  0.10978820959E+03  0.91410906123E+02 0.  0.
         23    2    1    2    0    0 -0.55224771773E+02  0.58641507778E+02  0.16603844949E+03  0.20599692866E+03  0.91527952332E+02 0.  0.
        -13    1    3    3    0    0  0.76540283155E+02 -0.25352396911E+02  0.26033574467E+00  0.80630185100E+02  0.00000000000E+00 0.  1.
         13    1    3    3    0    0 -0.26227629999E+02 -0.72277758199E+01 -0.10490999639E+02  0.29158024489E+02  0.00000000000E+00 0. -1.
        -13    1    4    4    0    0 -0.57252469684E+02  0.15508660737E+02  0.36962641921E+02  0.69889918733E+02  0.00000000000E+00 0.  1.
         13    1    4    4    0    0  0.20276979118E+01  0.43132847041E+02  0.12907580757E+03  0.13610700993E+03  0.00000000000E+00 0. -1.
         21    1    1    2  502  501  0.49121186161E+01 -0.26061335047E+02  0.21523003388E+02  0.34154966968E+02  0.00000000000E+00 0. -1.
<scales pt_clust_5="13000.00000" pt_clust_6="13000.00000" pt_clust_7="13000.00000" pt_clust_8="13000.00000" pt_clust_9="26.52022"></scales>
<clustering>
<clus scale="   26.520">  1  9  2 -1</clus>
<clus scale="   91.411">  5  6 -1 -1</clus>
<clus scale="   91.528">  7  8 -1 -1</clus>
<clus scale="  111.548">  2  5  1 -1</clus>
<clus scale="   26.520">  1  5  2 -1</clus>
</clustering>
</event>
<event>
 9    1  0.1234700E-005  0.1161573E+03  0.7546771E-02  0.1250163E+00
         -1   -1    0    0    0  501 -0.00000000000E+00  0.00000000000E+00  0.66436336873E+02  0.66436336873E+02  0.00000000000E+00 0.  1.
          1   -1    0    0  502    0  0.00000000000E+00 -0.00000000000E+00 -0.29042545112E+03  0.29042545112E+03  0.00000000000E+00 0. -1.
         23    2    1    2    0    0  0.23725096237E+02  0.51064834764E+02 -0.80184961290E+02  0.13324091199E+03  0.90294047810E+02 0.  0.
         23    2    1    2    0    0 -0.38420200858E+02 -0.82185352564E+02 -0.76590330415E+02  0.14810842227E+03  0.88540849467E+02 0.  0.
        -13    1    4    4    0    0 -0.11340277982E+02 -0.94742186556E+02 -0.48148880625E+02  0.10687842871E+03  0.00000000000E+00 0. -1.
         13    1    4    4    0    0 -0.27079922875E+02  0.12556833992E+02 -0.28441449789E+02  0.41229993560E+02  0.00000000000E+00 0.  1.
        -13    1    3    3    0    0 -0.22258921142E+02  0.44887847999E+02 -0.69417990137E+02  0.85610956210E+02  0.00000000000E+00 0.  1.
         13    1    3    3    0    0  0.45984017379E+02  0.61769867644E+01 -0.10766971153E+02  0.47629955780E+02  0.00000000000E+00 0. -1.
         21    1    1    2  502  501  0.14695104620E+02  0.31120517801E+02 -0.67213822538E+02  0.75512453729E+02  0.00000000000E+00 0.  1.
<scales pt_clust_5="13000.00000" pt_clust_6="13000.00000" pt_clust_7="13000.00000" pt_clust_8="13000.00000" pt_clust_9="34.41559"></scales>
<clustering>
<clus scale="   34.416">  2  9  1 -1</clus>
<clus scale="   88.541">  5  6 -1 -1</clus>
<clus scale="   90.294">  7  8 -1 -1</clus>
<clus scale="  114.800">  2  5  1 -1</clus>
<clus scale="   34.416">  2  5  1 -1</clus>
</clustering>
</event>
<event>
 9    1  0.1234700E-005  0.3610485E+03  0.7546771E-02  0.1058312E+00
          1   -1    0    0  502    0  0.00000000000E+00  0.00000000000E+00  0.10984277252E+04  0.10984277252E+04  0.00000000000E+00 0. -1.
         -1   -1    0    0    0  501 -0.00000000000E+00 -0.00000000000E+00 -0.19299964004E+03  0.19299964004E+03  0.00000000000E+00 0.  1.
         23    2    1    2    0    0 -0.19234703298E+03  0.28502951170E+03  0.14967410258E+03  0.38587219953E+03  0.90861508612E+02 0.  0.
         23    2    1    2    0    0  0.15233744561E+03 -0.32868364587E+03  0.40557330668E+03  0.55040314716E+03  0.84936923162E+02 0.  0.
        -13    1    3    3    0    0 -0.15803250575E+03  0.20935638983E+03  0.71707988910E+02  0.27193088553E+03  0.00000000000E+00 0.  1.
         13    1    3    3    0    0 -0.34314527228E+02  0.75673121880E+02  0.77966113667E+02  0.11394131399E+03  0.00000000000E+00 0. -1.
        -13    1    4    4    0    0  0.25325960944E+02 -0.10229518153E+03  0.16914330305E+03  0.19928664137E+03  0.00000000000E+00 0.  1.
         13    1    4    4    0    0  0.12701148466E+03 -0.22638846433E+03  0.23643000363E+03  0.35111650579E+03  0.00000000000E+00 0. -1.
         21    1    1    2  502  501  0.40009587371E+02  0.43654134162E+02  0.35018067589E+03  0.35515201854E+03  0.00000000000E+00 0. -1.
<scales pt_clust_5="13000.00000" pt_clust_6="13000.00000" pt_clust_7="13000.00000" pt_clust_8="13000.00000" pt_clust_9="59.21529"></scales>
<clustering>
<clus scale="   59.215">  1  9  2 -1</clus>
<clus scale="   84.937">  7  8 -1 -1</clus>
<clus scale="   90.862">  5  6 -1 -1</clus>
<clus scale="  359.603">  1  7  2 -1</clus>
<clus scale="   59.215">  1  5  2 -1</clus>
</clustering>
</event>
<event>
 9    1  0.1234700E-005  0.1034610E+03  0.7546771E-02  0.1273654E+00
          2   -1    0    0  502    0  0.00000000000E+00  0.00000000000E+00  0.53776083729E+02  0.53776083729E+02  0.00000000000E+00 0. -1.
         -2   -1    0    0    0  501 -0.00000000000E+00 -0.00000000000E+00 -0.54833828488E+03  0.54833828488E+03  0.00000000000E+00 0.  1.
         23    2    1    2    0    0 -0.20370094830E+02  0.46378942065E+02 -0.46625594856E+03  0.47786154624E+03  0.91602951826E+02 0.  0.
         23    2    1    2    0    0  0.19200540559E+01 -0.31691798175E+02 -0.14821104479E+02  0.97087303414E+02  0.90544037170E+02 0.  0.
        -11    1    4    4    0    0 -0.38002584072E+02 -0.24028562906E+02 -0.29602445903E+02  0.53831896074E+02  0.00000000000E+00 0.  1.
         11    1    4    4    0    0  0.39922638127E+02 -0.76632352686E+01  0.14781341424E+02  0.43255407340E+02  0.00000000000E+00 0. -1.
        -13    1    3    3    0    0 -0.52895378739E+02  0.48728076100E+02 -0.33227890736E+03  0.33997296770E+03  0.00000000000E+00 0.  1.
         13    1    3    3    0    0  0.32525283910E+02 -0.23491340349E+01 -0.13397704120E+03  0.13788857854E+03  0.00000000000E+00 0. -1.
         21    1    1    2  502  501  0.18450040774E+02 -0.14687143890E+02 -0.13485148113E+02  0.27165518950E+02  0.00000000000E+00 0. -1.
<scales pt_clust_5="13000.00000" pt_clust_6="13000.00000" pt_clust_7="13000.00000" pt_clust_8="13000.00000" pt_clust_9="23.58212"></scales>
<clustering>
<clus scale="   23.582">  1  9  2 -1</clus>
<clus scale="   90.544">  5  6 -1 -1</clus>
<clus scale="   91.603">  7  8 -1 -1</clus>
<clus scale="  102.525">  1  5  2 -1</clus>
<clus scale="   23.582">  1  5  2 -1</clus>
</clustering>
</event>
<event>
 9    1  0.1234700E-005  0.1312750E+03  0.7546771E-02  0.1225900E+00
          1   -1    0    0  502    0  0.00000000000E+00  0.00000000000E+00  0.45236407167E+03  0.45236407167E+03  0.00000000000E+00 0. -1.
         -1   -1    0    0    0  501 -0.00000000000E+00 -0.00000000000E+00 -0.11799314200E+03  0.11799314200E+03  0.00000000000E+00 0.  1.
         23    2    1    2    0    0  0.31167397390E+02  0.10257354929E+03 -0.29406563814E+02  0.14447690064E+03  0.92282658980E+02 0.  0.
         23    2    1    2    0    0 -0.62686356328E+02 -0.79100783771E+01  0.25632292073E+03  0.27924776991E+03  0.91025978163E+02 0.  0.
        -11    1    4    4    0    0  0.88435954483E+01 -0.29407456098E+02  0.11931517427E+03  0.12320356515E+03  0.00000000000E+00 0.  1.
         11    1    4    4    0    0 -0.71529951776E+02  0.21497377721E+02  0.13700774645E+03  0.15604420476E+03  0.00000000000E+00 0. -1.
        -11    1    3    3    0    0  0.53243603995E+02  0.37435749640E+02 -0.37675017748E+02  0.75204545606E+02  0.00000000000E+00 0.  1.
         11    1    3    3    0    0 -0.22076206604E+02  0.65137799647E+02  0.82684539340E+01  0.69272355029E+02  0.00000000000E+00 0. -1.
         21    1    1    2  502  501  0.31518958938E+02 -0.94663470909E+02  0.10745457275E+03  0.14663254312E+03  0.00000000000E+00 0. -1.
<scales pt_clust_5="13000.00000" pt_clust_6="13000.00000" pt_clust_7="13000.00000" pt_clust_8="13000.00000" pt_clust_9="99.77283"></scales>
<clustering>
<clus scale="   91.026">  5  6 -1 -1</clus>
<clus scale="   92.283">  7  8 -1 -1</clus>
<clus scale="   99.773">  1  9  2 -1</clus>
<clus scale="  130.395">  1  5  2 -1</clus>
<clus scale="   99.773">  1  5  2 -1</clus>
</clustering>
</event>
<event>
 9    1  0.1234700E-005  0.1141580E+03  0.7546771E-02  0.1253421E+00
          1   -1    0    0  502    0  0.00000000000E+00  0.00000000000E+00  0.24119481647E+03  0.24119481647E+03  0.00000000000E+00 0. -1.
         -1   -1    0    0    0  501 -0.00000000000E+00 -0.00000000000E+00 -0.18814621709E+03  0.18814621709E+03  0.00000000000E+00 0.  1.
         23    2    1    2    0    0  0.25666212149E+02  0.69356920297E+02 -0.13984160525E+03  0.18182913931E+03  0.89649453450E+02 0.  0.
         23    2    1    2    0    0 -0.39362823707E+02 -0.19947885219E+02  0.14953709848E+03  0.18036770814E+03  0.90685259557E+02 0.  0.
        -11    1    4    4    0    0 -0.28485306180E+01 -0.30516740084E+02  0.13693049308E+03  0.14031872822E+03  0.00000000000E+00 0. -1.
         11    1    4    4    0    0 -0.36514293089E+02  0.10568854864E+02  0.12606605398E+02  0.40048979920E+02  0.00000000000E+00 0.  1.
        -11    1    3    3    0    0  0.35871129962E+02  0.23464159083E+02 -0.10390430631E+02  0.44105167213E+02  0.00000000000E+00 0. -1.
         11    1    3    3    0    0 -0.10204917812E+02  0.45892761214E+02 -0.12945117462E+03  0.13772397210E+03  0.00000000000E+00 0.  1.
         21    1    1    2  502  501  0.13696611558E+02 -0.49409035078E+02  0.43353106157E+02  0.67144186114E+02  0.00000000000E+00 0. -1.
<scales pt_clust_5="13000.00000" pt_clust_6="13000.00000" pt_clust_7="13000.00000" pt_clust_8="13000.00000" pt_clust_9="51.27231"></scales>
<clustering>
<clus scale="   51.272">  1  9  2 -1</clus>
<clus scale="   89.649">  7  8 -1 -1</clus>
<clus scale="   90.685">  5  6 -1 -1</clus>
<clus scale="  113.337">  2  7  1 -1</clus>
<clus scale="   51.272">  1  5  2 -1</clus>
</clustering>
</event>
<event>
 9    1  0.1234700E-005  0.1379204E+03  0.7546771E-02  0.1216252E+00
          1   -1    0    0  502    0  0.00000000000E+00  0.00000000000E+00  0.93370951482E+03  0.93370951482E+03  0.00000000000E+00 0. -1.
         -1   -1    0    0    0  501 -0.00000000000E+00 -0.00000000000E+00 -0.43924380771E+02  0.43924380771E+02  0.00000000000E+00 0.  1.
         23    2    1    2    0    0 -0.25393143529E+02 -0.11842308734E+03  0.14915431609E+03  0.21283085709E+03  0.91548480978E+02 0.  0.
         23    2    1    2    0    0 -0.16866978607E+02  0.69760171347E+02  0.35105538198E+03  0.36993215121E+03  0.91972489375E+02 0.  0.
        -11    1    4    4    0    0  0.13030363613E+02 -0.17716794655E+02  0.10019610853E+03  0.10258135968E+03  0.00000000000E+00 0.  1.
         11    1    4    4    0    0 -0.29897342220E+02  0.87476966002E+02  0.25085927345E+03  0.26735079152E+03  0.00000000000E+00 0. -1.
        -13    1    3    3    0    0  0.25773118826E+02 -0.22658815284E+02  0.88843524117E+01  0.35448656983E+02  0.00000000000E+00 0. -1.
         13    1    3    3    0    0 -0.51166262355E+02 -0.95764272055E+02  0.14026996368E+03  0.17738220011E+03  0.00000000000E+00 0.  1.
         21    1    1    2  502  501  0.42260122135E+02  0.48662915993E+02  0.38957543597E+03  0.39487088729E+03  0.00000000000E+00 0. -1.
<scales pt_clust_5="13000.00000" pt_clust_6="13000.00000" pt_clust_7="13000.00000" pt_clust_8="13000.00000" pt_clust_9="64.45151"></scales>
<clustering>
<clus scale="   64.452">  1  9  2 -1</clus>
<clus scale="   91.548">  7  8 -1 -1</clus>
<clus scale="   91.972">  5  6 -1 -1</clus>
<clus scale="  137.638">  2  7  1 -1</clus>
<clus scale="   64.452">  1  5  2 -1</clus>
</clustering>
</event>
<event>
 9    1  0.1234700E-005  0.9389433E+02  0.7546771E-02  0.1295170E+00
          2   -1    0    0  502    0  0.00000000000E+00  0.00000000000E+00  0.11621589295E+03  0.11621589295E+03  0.00000000000E+00 0. -1.
         -2   -1    0    0    0  501 -0.00000000000E+00 -0.00000000000E+00 -0.28520592534E+03  0.28520592534E+03  0.00000000000E+00 0.  1.
         23    2    1    2    0    0  0.26097459555E+02 -0.53662533694E+02 -0.17190265443E+03  0.20394373857E+03  0.92096585066E+02 0.  0.
         23    2    1    2    0    0 -0.42590825922E+01 -0.27987790360E+02  0.43811332035E+02  0.10358242165E+03  0.89489826606E+02 0.  0.
        -11    1    4    4    0    0 -0.44247594762E+02 -0.55736964337E+00  0.28887668750E+02  0.52845602551E+02  0.00000000000E+00 0. -1.
         11    1    4    4    0    0  0.39988512170E+02 -0.27430420717E+02  0.14923663285E+02  0.50736819097E+02  0.00000000000E+00 0.  1.
        -13    1    3    3    0    0  0.58353047212E+02 -0.38926506702E+02 -0.85799349059E+02  0.11082364072E+03  0.00000000000E+00 0.  1.
         13    1    3    3    0    0 -0.32255587658E+02 -0.14736026992E+02 -0.86103305375E+02  0.93120097848E+02  0.00000000000E+00 0. -1.
         21    1    1    2  502  501 -0.21838376962E+02  0.81650324054E+02 -0.40898709987E+02  0.93895658073E+02  0.00000000000E+00 0. -1.
<scales pt_clust_5="13000.00000" pt_clust_6="13000.00000" pt_clust_7="13000.00000" pt_clust_8="13000.00000" pt_clust_9="84.52035"></scales>
<clustering>
<clus scale="   84.520">  2  9  1 -1</clus>
<clus scale="   89.490">  5  6 -1 -1</clus>
<clus scale="   91.339">  1  5  2 -1</clus>
<clus scale="   92.097">  7  8 -1 -1</clus>
<clus scale="   91.339">  1  5  2 -1</clus>
</clustering>
</event>
<event>
 9    1  0.1234700E-005  0.1552882E+03  0.7546771E-02  0.1194391E+00
         -2   -1    0    0    0  501 -0.00000000000E+00  0.00000000000E+00  0.18669489275E+03  0.18669489275E+03  0.00000000000E+00 0.  1.
          2   -1    0    0  502    0  0.00000000000E+00 -0.00000000000E+00 -0.41942060527E+03  0.41942060527E+03  0.00000000000E+00 0. -1.
         23    2    1    2    0    0 -0.95205481413E+02  0.89637450802E+02  0.10241597474E+03  0.19023265631E+03  0.92738747936E+02 0.  0.
         23    2    1    2    0    0  0.61622457087E+02 -0.89120951054E+02 -0.88577589551E+02  0.16704164622E+03  0.91197867675E+02 0.  0.
        -11    1    4    4    0    0  0.50301037456E+02  0.45842398095E+00 -0.41507360880E+02  0.65217064707E+02  0.00000000000E+00 0.  1.
         11    1    4    4    0    0  0.11321419631E+02 -0.89579375035E+02 -0.47070228670E+02  0.10182458152E+03  0.00000000000E+00 0. -1.
        -11    1    3    3    0    0 -0.85513952362E+02  0.10860641412E+03  0.94778274977E+02  0.16760343268E+03  0.00000000000E+00 0.  1.
         11    1    3    3    0    0 -0.96915290515E+01 -0.18968963320E+02  0.76376997629E+01  0.22629223638E+02  0.00000000000E+00 0. -1.
         21    1    1    2  502  501  0.33583024326E+02 -0.51649974837E+00 -0.24656409770E+03  0.24884119548E+03  0.00000000000E+00 0. -1.
<scales pt_clust_5="13000.00000" pt_clust_6="13000.00000" pt_clust_7="13000.00000" pt_clust_8="13000.00000" pt_clust_9="33.58700"></scales>
<clustering>
<clus scale="   33.587">  2  9  1 -1</clus>
<clus scale="   91.198">  5  6 -1 -1</clus>
<clus scale="   92.739">  7  8 -1 -1</clus>
<clus scale="  154.373">  2  5  1 -1</clus>
<clus scale="   33.587">  2  5  1 -1</clus>
</clustering>
</event>
<event>
 9    1  0.1234700E-005  0.1024387E+03  0.7546771E-02  0.1278656E+00
         -1   -1    0    0    0  501 -0.00000000000E+00  0.00000000000E+00  0.26921370268E+03  0.26921370268E+03  0.00000000000E+00 0.  1.
          1   -1    0    0  502    0  0.00000000000E+00 -0.00000000000E+00 -0.16208461151E+03  0.16208461151E+03  0.00000000000E+00 0. -1.
         23    2    1    2    0    0  0.34824490610E+02 -0.37598798299E+02  0.12506749933E+03  0.15772521036E+03  0.81295435374E+02 0.  0.
         23    2    1    2    0    0 -0.52716107328E+02  0.15737572964E+02  0.10458474528E+03  0.14783549509E+03  0.88829643073E+02 0.  0.
        -13    1    4    4    0    0 -0.18949141412E+01  0.45534020056E+02  0.45334079963E+02  0.64281540804E+02  0.00000000000E+00 0. -1.
         13    1    4    4    0    0 -0.50821193186E+02 -0.29796447092E+02  0.59250665317E+02  0.83553954285E+02  0.00000000000E+00 0.  1.
        -13    1    3    3    0    0 -0.16260808883E+02  0.14934357992E+02  0.21177160829E+02  0.30592827508E+02  0.00000000000E+00 0. -1.
         13    1    3    3    0    0  0.51085299493E+02 -0.52533156291E+02  0.10389033851E+03  0.12713238285E+03  0.00000000000E+00 0.  1.
         21    1    1    2  502  501  0.17891616718E+02  0.21861225335E+02 -0.12252315345E+03  0.12573760875E+03  0.00000000000E+00 0. -1.
<scales pt_clust_5="13000.00000" pt_clust_6="13000.00000" pt_clust_7="13000.00000" pt_clust_8="13000.00000" pt_clust_9="28.24930"></scales>
<clustering>
<clus scale="   28.249">  2  9  1 -1</clus>
<clus scale="   81.295">  7  8 -1 -1</clus>
<clus scale="   88.830">  5  6 -1 -1</clus>
<clus scale="   95.979">  1  7  2 -1</clus>
<clus scale="   28.249">  2  5  1 -1</clus>
</clustering>
</event>
<event>
 9    1  0.1234700E-005  0.3649572E+03  0.7546771E-02  0.1056756E+00
         -2   -1    0    0    0  501 -0.00000000000E+00  0.00000000000E+00  0.11285198417E+03  0.11285198417E+03  0.00000000000E+00 0.  1.
          2   -1    0    0  502    0  0.00000000000E+00 -0.00000000000E+00 -0.25093032222E+04  0.25093032222E+04  0.00000000000E+00 0. -1.
         23    2    1    2    0    0  0.29859922921E+03 -0.13902469305E+03 -0.46709666725E+03  0.57850930823E+03  0.89467078753E+02 0.  0.
         23    2    1    2    0    0 -0.26646213404E+03  0.33786784155E+03 -0.98728353379E+03  0.10802824001E+04  0.84406994424E+02 0.  0.
        -13    1    4    4    0    0 -0.34778094441E+02  0.11612196632E+02 -0.11246442368E+03  0.11829034432E+03  0.00000000000E+00 0.  1.
         13    1    4    4    0    0 -0.23168403960E+03  0.32625564491E+03 -0.87481911011E+03  0.96199205582E+03  0.00000000000E+00 0. -1.
        -13    1    3    3    0    0  0.14466216845E+03 -0.22504401830E+02 -0.23155246981E+03  0.27395280133E+03  0.00000000000E+00 0. -1.
         13    1    3    3    0    0  0.15393706076E+03 -0.11652029122E+03 -0.23554419744E+03  0.30455650689E+03  0.00000000000E+00 0.  1.
         21    1    1    2  502  501 -0.32137095169E+02 -0.19884314849E+03 -0.94207103703E+03  0.96336349806E+03  0.00000000000E+00 0.  1.
<scales pt_clust_5="13000.00000" pt_clust_6="13000.00000" pt_clust_7="13000.00000" pt_clust_8="13000.00000" pt_clust_9="201.42341"></scales>
<clustering>
<clus scale="   84.407">  5  6 -1 -1</clus>
<clus scale="   89.467">  7  8 -1 -1</clus>
<clus scale="  201.423">  2  9  1 -1</clus>
<clus scale="  363.750">  2  5  1 -1</clus>
<clus scale="  201.423">  2  5  1 -1</clus>
</clustering>
</event>
<event>
 9    1  0.1234700E-005  0.1002691E+03  0.7546771E-02  0.1280029E+00
          1   -1    0    0  502    0  0.00000000000E+00  0.00000000000E+00  0.37492153555E+03  0.37492153555E+03  0.00000000000E+00 0. -1.
         -1   -1    0    0    0  501 -0.00000000000E+00 -0.00000000000E+00 -0.10779552904E+03  0.10779552904E+03  0.00000000000E+00 0.  1.
         23    2    1    2    0    0  0.12553648984E+01 -0.49725444997E+02 -0.60411657141E+02  0.11841873345E+03  0.88877625370E+02 0.  0.
         23    2    1    2    0    0 -0.38680868285E+02  0.15982045932E+02  0.14902249396E+03  0.17880722330E+03  0.89513596917E+02 0.  0.
        -11    1    4    4    0    0  0.17300197841E+02  0.32114025272E+02  0.83558232357E+02  0.91173382404E+02  0.00000000000E+00 0. -1.
         11    1    4    4    0    0 -0.55981066126E+02 -0.16131979340E+02  0.65464261603E+02  0.87633840891E+02  0.00000000000E+00 0.  1.
        -13    1    3    3    0    0  0.38711399019E+02 -0.48496345857E+02 -0.49526870613E+02  0.79393821474E+02  0.00000000000E+00 0.  1.
         13    1    3    3    0    0 -0.37456034120E+02 -0.12290991395E+01 -0.10884786528E+02  0.39024911973E+02  0.00000000000E+00 0. -1.
         21    1    1    2  502  501  0.37425503386E+02  0.33743399065E+02  0.17851516968E+03  0.18549110785E+03  0.00000000000E+00 0. -1.
<scales pt_clust_5="13000.00000" pt_clust_6="13000.00000" pt_clust_7="13000.00000" pt_clust_8="13000.00000" pt_clust_9="50.39132"></scales>
<clustering>
<clus scale="   50.391">  1  9  2 -1</clus>
<clus scale="   88.878">  7  8 -1 -1</clus>
<clus scale="   89.514">  5  6 -1 -1</clus>
<clus scale="   99.702">  2  7  1 -1</clus>
<clus scale="   50.391">  1  5  2 -1</clus>
</clustering>
</event>
<event>
 9    1  0.1234700E-005  0.9958270E+02  0.7546771E-02  0.1281632E+00
         -2   -1    0    0    0  501 -0.00000000000E+00  0.00000000000E+00  0.23255452796E+02  0.23255452796E+02  0.00000000000E+00 0.  1.
          2   -1    0    0  502    0  0.00000000000E+00 -0.00000000000E+00 -0.70681972820E+03  0.70681972820E+03  0.00000000000E+00 0. -1.
         23    2    1    2    0    0 -0.55057170287E+01 -0.41826056154E+02 -0.14085280563E+03  0.17403044207E+03  0.93098603748E+02 0.  0.
         23    2    1    2    0    0  0.93574041105E+01  0.15068506983E+02 -0.43191982222E+03  0.44200268046E+03  0.92179259027E+02 0.  0.
        -11    1    3    3    0    0 -0.28109614248E+02 -0.64067185309E+02 -0.10490618696E+03  0.12609545079E+03  0.00000000000E+00 0.  1.
         11    1    3    3    0    0  0.22603897219E+02  0.22241129154E+02 -0.35946618673E+02  0.47934991286E+02  0.00000000000E+00 0. -1.
        -11    1    4    4    0    0  0.16949491474E+02  0.52667362399E+02 -0.24128170088E+03  0.24754392641E+03  0.00000000000E+00 0. -1.
         11    1    4    4    0    0 -0.75920873632E+01 -0.37598855416E+02 -0.19063812134E+03  0.19445875405E+03  0.00000000000E+00 0.  1.
         21    1    1    2  502  501 -0.38516870818E+01  0.26757549172E+02 -0.11079164755E+03  0.11404205846E+03  0.00000000000E+00 0. -1.
<scales pt_clust_5="13000.00000" pt_clust_6="13000.00000" pt_clust_7="13000.00000" pt_clust_8="13000.00000" pt_clust_9="27.03335"></scales>
<clustering>
<clus scale="   27.033">  2  9  1 -1</clus>
<clus scale="   92.179">  7  8 -1 -1</clus>
<clus scale="   93.099">  5  6 -1 -1</clus>
<clus scale="   98.724">  2  7  1 -1</clus>
<clus scale="   27.033">  2  5  1 -1</clus>
</clustering>
</event>
<event>
 9    1  0.1234700E-005  0.9295835E+02  0.7546771E-02  0.1298888E+00
         -3   -1    0    0    0  501 -0.00000000000E+00  0.00000000000E+00  0.20164985122E+02  0.20164985122E+02  0.00000000000E+00 0.  1.
          3   -1    0    0  502    0  0.00000000000E+00 -0.00000000000E+00 -0.55231836796E+03  0.55231836796E+03  0.00000000000E+00 0. -1.
         23    2    1    2    0    0 -0.12952886937E+01  0.44545530572E+01 -0.19600970710E+03  0.21659296586E+03  0.92039050216E+02 0.  0.
         23    2    1    2    0    0  0.27078489418E+02 -0.26908319724E+01 -0.26031273144E+03  0.27577661647E+03  0.86888082476E+02 0.  0.
        -13    1    3    3    0    0  0.56829716851E+01 -0.31570537873E+02 -0.16633780874E+03  0.16940266127E+03  0.00000000000E+00 0. -1.
         13    1    3    3    0    0 -0.69782603788E+01  0.36025090930E+02 -0.29671898356E+02  0.47190304582E+02  0.00000000000E+00 0.  1.
        -13    1    4    4    0    0 -0.22442820764E+02 -0.24382314465E+02 -0.14010478373E+03  0.14397057994E+03  0.00000000000E+00 0. -1.
         13    1    4    4    0    0  0.49521310182E+02  0.21691482493E+02 -0.12020794771E+03  0.13180603653E+03  0.00000000000E+00 0.  1.
         21    1    1    2  502  501 -0.25783200724E+02 -0.17637210848E+01 -0.75830944303E+02  0.80113770761E+02  0.00000000000E+00 0. -1.
<scales pt_clust_5="13000.00000" pt_clust_6="13000.00000" pt_clust_7="13000.00000" pt_clust_8="13000.00000" pt_clust_9="25.84345"></scales>
<clustering>
<clus scale="   25.843">  2  9  1 -1</clus>
<clus scale="   86.888">  7  8 -1 -1</clus>
<clus scale="   87.861">  2  7  1 -1</clus>
<clus scale="   92.039">  5  6 -1 -1</clus>
<clus scale="   25.843">  2  5  1 -1</clus>
</clustering>
</event>
<event>
 9    1  0.1234700E-005  0.9702459E+02  0.7546771E-02  0.1287662E+00
          2   -1    0    0  502    0  0.00000000000E+00  0.00000000000E+00  0.88858259025E+03  0.88858259025E+03  0.00000000000E+00 0. -1.
         -2   -1    0    0    0  501 -0.00000000000E+00 -0.00000000000E+00 -0.21916944973E+02  0.21916944973E+02  0.00000000000E+00 0.  1.
         23    2    1    2    0    0 -0.59096540209E+02 -0.31278549857E+02  0.34721726213E+03  0.36517492438E+03  0.91225816114E+02 0.  0.
         23    2    1    2    0    0  0.15050015576E+02 -0.22773458898E+02  0.34595521867E+03  0.35834441376E+03  0.89334048095E+02 0.  0.
        -13    1    3    3    0    0 -0.36218544087E+02  0.21202093412E+02  0.23988580579E+03  0.24352928268E+03  0.00000000000E+00 0. -1.
         13    1    3    3    0    0 -0.22877996122E+02 -0.52480643270E+02  0.10733145634E+03  0.12164564170E+03  0.00000000000E+00 0.  1.
        -13    1    4    4    0    0  0.45137883804E+02  0.10283687624E+02  0.13536305218E+03  0.14306061192E+03  0.00000000000E+00 0. -1.
         13    1    4    4    0    0 -0.30087868229E+02 -0.33057146523E+02  0.21059216649E+03  0.21528380185E+03  0.00000000000E+00 0.  1.
         21    1    1    2  502  501  0.44046524633E+02  0.54052008755E+02  0.17349316447E+03  0.18698019708E+03  0.00000000000E+00 0. -1.
<scales pt_clust_5="13000.00000" pt_clust_6="13000.00000" pt_clust_7="13000.00000" pt_clust_8="13000.00000" pt_clust_9="69.72601"></scales>
<clustering>
<clus scale="   69.726">  2  9  1 -1</clus>
<clus scale="   89.334">  7  8 -1 -1</clus>
<clus scale="   91.226">  5  6 -1 -1</clus>
<clus scale="   95.248">  1  7  2 -1</clus>
<clus scale="   95.248">  1  5  2 -1</clus>
</clustering>
</event>
<event>
 9    1  0.1234700E-005  0.1602626E+03  0.7546771E-02  0.1189526E+00
         -3   -1    0    0    0  501 -0.00000000000E+00  0.00000000000E+00  0.79019332146E+02  0.79019332146E+02  0.00000000000E+00 0.  1.
          3   -1    0    0  502    0  0.00000000000E+00 -0.00000000000E+00 -0.37865653628E+03  0.37865653628E+03  0.00000000000E+00 0. -1.
         23    2    1    2    0    0 -0.19025595268E+00  0.13918197462E+03 -0.12338921744E+03  0.20719521594E+03  0.91286911829E+02 0.  0.
         23    2    1    2    0    0 -0.16031435769E+02 -0.12384761299E+03 -0.12928241411E+03  0.19848016271E+03  0.84173595712E+02 0.  0.
        -11    1    3    3    0    0  0.43933139493E+02  0.77462629167E+02 -0.52589410868E+02  0.10342255943E+03  0.00000000000E+00 0.  1.
         11    1    3    3    0    0 -0.44123395446E+02  0.61719345452E+02 -0.70799806569E+02  0.10377265651E+03  0.00000000000E+00 0. -1.
        -13    1    4    4    0    0 -0.26338418375E+01 -0.88298510377E+02 -0.31851323027E+02  0.93904583681E+02  0.00000000000E+00 0.  1.
         13    1    4    4    0    0 -0.13397593931E+02 -0.35549102616E+02 -0.97431091085E+02  0.10457557903E+03  0.00000000000E+00 0. -1.
         21    1    1    2  502  501  0.16221691721E+02 -0.15334361626E+02 -0.46965572585E+02  0.52000489776E+02  0.00000000000E+00 0.  1.
<scales pt_clust_5="13000.00000" pt_clust_6="13000.00000" pt_clust_7="13000.00000" pt_clust_8="13000.00000" pt_clust_9="22.32232"></scales>
<clustering>
<clus scale="   22.322">  2  9  1 -1</clus>
<clus scale="   84.174">  7  8 -1 -1</clus>
<clus scale="   91.287">  5  6 -1 -1</clus>
<clus scale="  156.320">  2  7  1 -1</clus>
<clus scale="   22.322">  2  5  1 -1</clus>
</clustering>
</event>
<event>
 9    1  0.1234700E-005  0.9484004E+02  0.7546771E-02  0.1292419E+00
          4   -1    0    0  502    0  0.00000000000E+00  0.00000000000E+00  0.12691225373E+03  0.12691225373E+03  0.00000000000E+00 0. -1.
         -4   -1    0    0    0  501 -0.00000000000E+00 -0.00000000000E+00 -0.15220838323E+03  0.15220838323E+03  0.00000000000E+00 0.  1.
         23    2    1    2    0    0  0.29071871754E+00 -0.16105396623E+01 -0.51482727562E+02  0.10407483111E+03  0.90434622123E+02 0.  0.
         23    2    1    2    0    0  0.20224964275E+02 -0.22974397390E+02  0.70835974375E+02  0.12010147781E+03  0.92031285943E+02 0.  0.
        -11    1    3    3    0    0 -0.39208141419E+02  0.51693995326E+01 -0.92321203777E+00  0.39558227532E+02  0.00000000000E+00 0.  1.
         11    1    3    3    0    0  0.39498860136E+02 -0.67799391949E+01 -0.50559515524E+02  0.64516603580E+02  0.00000000000E+00 0. -1.
        -13    1    4    4    0    0 -0.28011514685E+02 -0.35714477281E+02  0.22594578383E+02  0.50701911352E+02  0.00000000000E+00 0.  1.
         13    1    4    4    0    0  0.48236478960E+02  0.12740079891E+02  0.48241395991E+02  0.69399566463E+02  0.00000000000E+00 0. -1.
         21    1    1    2  502  501 -0.20515682993E+02  0.24584937053E+02 -0.44649376309E+02  0.54944328036E+02  0.00000000000E+00 0.  1.
<scales pt_clust_5="13000.00000" pt_clust_6="13000.00000" pt_clust_7="13000.00000" pt_clust_8="13000.00000" pt_clust_9="32.02050"></scales>
<clustering>
<clus scale="   32.020">  2  9  1 -1</clus>
<clus scale="   90.435">  5  6 -1 -1</clus>
<clus scale="   92.031">  7  8 -1 -1</clus>
<clus scale="   93.291">  2  5  1 -1</clus>
<clus scale="   94.840">  1  5  2 -1</clus>
</clustering>
</event>
<event>
 9    1  0.1234700E-005  0.9322158E+02  0.7546771E-02  0.1295839E+00
          2   -1    0    0  502    0  0.00000000000E+00  0.00000000000E+00  0.58412013350E+02  0.58412013350E+02  0.00000000000E+00 0. -1.
         -2   -1    0    0    0  501 -0.00000000000E+00 -0.00000000000E+00 -0.33102201695E+03  0.33102201695E+03  0.00000000000E+00 0.  1.
         23    2    1    2    0    0 -0.10322001362E+02 -0.27806721717E+02 -0.15825449585E+03  0.18494840047E+03  0.91003669687E+02 0.  0.
         23    2    1    2    0    0 -0.86795489738E+00 -0.75909674244E+00 -0.13790233253E+03  0.16581168429E+03  0.92060478803E+02 0.  0.
        -13    1    4    4    0    0  0.73559143972E+01 -0.26552505912E+02 -0.13590013150E+03  0.13866503088E+03  0.00000000000E+00 0. -1.
         13    1    4    4    0    0 -0.82238692946E+01  0.25793409170E+02 -0.20022010327E+01  0.27146653417E+02  0.00000000000E+00 0.  1.
        -13    1    3    3    0    0  0.28585384950E+02  0.19095944298E+02 -0.65359384030E+02  0.73848685853E+02  0.00000000000E+00 0.  1.
         13    1    3    3    0    0 -0.38907386312E+02 -0.46902666015E+02 -0.92895111819E+02  0.11109971462E+03  0.00000000000E+00 0. -1.
         21    1    1    2  502  501  0.11189956259E+02  0.28565818459E+02  0.23546824784E+02  0.38673945528E+02  0.00000000000E+00 0.  1.
<scales pt_clust_5="13000.00000" pt_clust_6="13000.00000" pt_clust_7="13000.00000" pt_clust_8="13000.00000" pt_clust_9="30.67933"></scales>
<clustering>
<clus scale="   30.679">  1  9  2 -1</clus>
<clus scale="   91.004">  7  8 -1 -1</clus>
<clus scale="   92.060">  5  6 -1 -1</clus>
<clus scale="   92.178">  2  7  1 -1</clus>
<clus scale="   30.679">  1  5  2 -1</clus>
</clustering>
</event>
<event>
 9    1  0.1234700E-005  0.5512660E+03  0.7546771E-02  0.1001229E+00
          1   -1    0    0  502    0  0.00000000000E+00  0.00000000000E+00  0.13867712187E+04  0.13867712187E+04  0.00000000000E+00 0. -1.
         -1   -1    0    0    0  501 -0.00000000000E+00 -0.00000000000E+00 -0.23014053970E+03  0.23014053970E+03  0.00000000000E+00 0.  1.
         23    2    1    2    0    0  0.29304843949E+03  0.47051419441E+03  0.53881293167E+03  0.77851145494E+03  0.92193899483E+02 0.  0.
         23    2    1    2    0    0 -0.28403315527E+03 -0.44916375695E+03  0.56893507124E+03  0.78430194351E+03  0.94971097959E+02 0.  0.
        -11    1    4    4    0    0 -0.73040157355E+01 -0.58424300389E+02  0.42018448387E+02  0.72334621909E+02  0.00000000000E+00 0. -1.
         11    1    4    4    0    0 -0.27672913953E+03 -0.39073945656E+03  0.52691662286E+03  0.71196732160E+03  0.00000000000E+00 0.  1.
        -13    1    3    3    0    0  0.19307716712E+02  0.92160776123E+02  0.75676904838E+02  0.12080310636E+03  0.00000000000E+00 0.  1.
         13    1    3    3    0    0  0.27374072278E+03  0.37835341829E+03  0.46313602684E+03  0.65770834858E+03  0.00000000000E+00 0. -1.
         21    1    1    2  502  501 -0.90152842254E+01 -0.21350437461E+02  0.48882676122E+02  0.54098359996E+02  0.00000000000E+00 0.  1.
<scales pt_clust_5="13000.00000" pt_clust_6="13000.00000" pt_clust_7="13000.00000" pt_clust_8="13000.00000" pt_clust_9="23.17577"></scales>
<clustering>
<clus scale="   23.176">  1  9  2 -1</clus>
<clus scale="   92.194">  7  8 -1 -1</clus>
<clus scale="   94.971">  5  6 -1 -1</clus>
<clus scale="  550.794">  2  7  1 -1</clus>
<clus scale="   23.176">  1  5  2 -1</clus>
</clustering>
</event>
<event>
 9    1  0.1234700E-005  0.1450164E+03  0.7546771E-02  0.1215349E+00
         -4   -1    0    0    0  501 -0.00000000000E+00  0.00000000000E+00  0.21351814726E+03  0.21351814726E+03  0.00000000000E+00 0.  1.
          4   -1    0    0  502    0  0.00000000000E+00 -0.00000000000E+00 -0.13272277557E+03  0.13272277557E+03  0.00000000000E+00 0. -1.
         23    2    1    2    0    0 -0.92994579130E+02  0.63727728634E+02  0.33726820809E+02  0.14772972896E+03  0.89316063689E+02 0.  0.
         23    2    1    2    0    0  0.49527531249E+02 -0.21371408446E+02  0.25991609560E+02  0.13426417396E+03  0.12017317168E+03 0.  0.
        -13    1    3    3    0    0 -0.36564646870E+02 -0.17132002770E+02  0.27650965176E+02  0.48939297040E+02  0.00000000000E+00 0. -1.
         13    1    3    3    0    0 -0.56429932259E+02  0.80859731404E+02  0.60758556336E+01  0.98790431922E+02  0.00000000000E+00 0.  1.
        -13    1    4    4    0    0  0.57307210173E+02  0.54011091213E+01  0.64675393426E+02  0.86580568446E+02  0.00000000000E+00 0.  1.
         13    1    4    4    0    0 -0.77796789238E+01 -0.26772517567E+02 -0.38683783867E+02  0.47683605519E+02  0.00000000000E+00 0. -1.
         21    1    1    2  502  501  0.43467047881E+02 -0.42356320188E+02  0.21076941320E+02  0.64247019906E+02  0.00000000000E+00 0.  1.
<scales pt_clust_5="13000.00000" pt_clust_6="13000.00000" pt_clust_7="13000.00000" pt_clust_8="13000.00000" pt_clust_9="60.69137"></scales>
<clustering>
<clus scale="   60.691">  1  9  2 -1</clus>
<clus scale="   89.316">  5  6 -1 -1</clus>
<clus scale="  120.173">  7  8 -1 -1</clus>
<clus scale="  120.688">  1  5  2 -1</clus>
<clus scale="  145.016">  2  5  1 -1</clus>
</clustering>
</event>
<event>
 9    1  0.1234700E-005  0.1202900E+03  0.7546771E-02  0.1243432E+00
         -2   -1    0    0    0  501 -0.00000000000E+00  0.00000000000E+00  0.16782531906E+03  0.16782531906E+03  0.00000000000E+00 0.  1.
          2   -1    0    0  502    0  0.00000000000E+00 -0.00000000000E+00 -0.33969171162E+03  0.33969171162E+03  0.00000000000E+00 0. -1.
         23    2    1    2    0    0 -0.69866716782E+02  0.40245223707E+02  0.12294833008E+03  0.17313672624E+03  0.91427555787E+02 0.  0.
         23    2    1    2    0    0  0.42903788789E+02  0.32041154256E+01 -0.16298796809E+03  0.19298321192E+03  0.93949139933E+02 0.  0.
        -11    1    4    4    0    0 -0.14261631501E+02 -0.32709847678E+02 -0.51696422263E+02  0.62815987957E+02  0.00000000000E+00 0.  1.
         11    1    4    4    0    0  0.57165420290E+02  0.35913963103E+02 -0.11129154583E+03  0.13016722397E+03  0.00000000000E+00 0. -1.
        -11    1    3    3    0    0  0.18523827310E+01  0.21844578861E+02  0.89040963837E+02  0.91700110079E+02  0.00000000000E+00 0. -1.
         11    1    3    3    0    0 -0.71719099513E+02  0.18400644846E+02  0.33907366245E+02  0.81436616159E+02  0.00000000000E+00 0.  1.
         21    1    1    2  502  501  0.26962927993E+02 -0.43449339133E+02 -0.13182675455E+03  0.14139709251E+03  0.00000000000E+00 0. -1.
<scales pt_clust_5="13000.00000" pt_clust_6="13000.00000" pt_clust_7="13000.00000" pt_clust_8="13000.00000" pt_clust_9="51.13555"></scales>
<clustering>
<clus scale="   51.136">  2  9  1 -1</clus>
<clus scale="   91.428">  7  8 -1 -1</clus>
<clus scale="   93.949">  5  6 -1 -1</clus>
<clus scale="  118.331">  1  7  2 -1</clus>
<clus scale="   51.136">  2  5  1 -1</clus>
</clustering>
</event>
<event>
 9    1  0.1234700E-005  0.1041584E+03  0.7546771E-02  0.1272085E+00
          1   -1    0    0  502    0  0.00000000000E+00  0.00000000000E+00  0.14413877075E+03  0.14413877075E+03  0.00000000000E+00 0. -1.
         -1   -1    0    0    0  501 -0.00000000000E+00 -0.00000000000E+00 -0.38736692804E+03  0.38736692804E+03  0.00000000000E+00 0.  1.
         23    2    1    2    0    0 -0.30655922899E+02 -0.53494786751E+02 -0.30784093470E+03  0.32691178514E+03  0.91125168696E+02 0.  0.
         23    2    1    2    0    0  0.19113340331E+02  0.31080697432E+00 -0.28508759004E+02  0.96735731465E+02  0.90441340229E+02 0.  0.
        -11    1    4    4    0    0 -0.12475050159E+02 -0.27508149247E+02 -0.42711352737E+02  0.52312377160E+02  0.00000000000E+00 0.  1.
         11    1    4    4    0    0  0.31588390489E+02  0.27818956221E+02  0.14202593733E+02  0.44423354305E+02  0.00000000000E+00 0. -1.
        -11    1    3    3    0    0 -0.13962387090E+02 -0.75159111294E+02 -0.17019332836E+03  0.18657333486E+03  0.00000000000E+00 0.  1.
         11    1    3    3    0    0 -0.16693535809E+02  0.21664324542E+02 -0.13764760635E+03  0.14033845028E+03  0.00000000000E+00 0. -1.
         21    1    1    2  502  501  0.11542582569E+02  0.53183979777E+02  0.93121536420E+02  0.10785818218E+03  0.00000000000E+00 0. -1.
<scales pt_clust_5="13000.00000" pt_clust_6="13000.00000" pt_clust_7="13000.00000" pt_clust_8="13000.00000" pt_clust_9="54.42212"></scales>
<clustering>
<clus scale="   54.422">  1  9  2 -1</clus>
<clus scale="   90.441">  5  6 -1 -1</clus>
<clus scale="   91.125">  7  8 -1 -1</clus>
<clus scale="  103.561">  1  5  2 -1</clus>
<clus scale="   54.422">  1  5  2 -1</clus>
</clustering>
</event>
<event>
 9    1  0.1234700E-005  0.1912276E+03  0.7546771E-02  0.1158154E+00
         -1   -1    0    0    0  501 -0.00000000000E+00  0.00000000000E+00  0.53372947058E+02  0.53372947058E+02  0.00000000000E+00 0.  1.
          1   -1    0    0  502    0  0.00000000000E+00 -0.00000000000E+00 -0.80795556381E+03  0.80795556381E+03  0.00000000000E+00 0. -1.
         23    2    1    2    0    0 -0.15146882778E+03  0.37845177540E+02 -0.28071251413E+03  0.33240008166E+03  0.85529149689E+02 0.  0.
         23    2    1    2    0    0  0.18033612028E+03 -0.30789482135E+02 -0.41115983032E+03  0.45953331651E+03  0.93001905509E+02 0.  0.
        -13    1    3    3    0    0 -0.45097597079E+02 -0.50434828797E+01 -0.24231409630E+02  0.51443086946E+02  0.00000000000E+00 0.  1.
         13    1    3    3    0    0 -0.10637123070E+03  0.42888660420E+02 -0.25648110450E+03  0.28095699472E+03  0.00000000000E+00 0. -1.
        -13    1    4    4    0    0  0.15424516284E+03 -0.50815812410E+02 -0.38382083014E+03  0.41676401800E+03  0.00000000000E+00 0.  1.
         13    1    4    4    0    0  0.26090957443E+02  0.20026330275E+02 -0.27339000185E+02  0.42769298518E+02  0.00000000000E+00 0. -1.
         21    1    1    2  502  501 -0.28867292498E+02 -0.70556954050E+01 -0.62710272303E+02  0.69395112696E+02  0.00000000000E+00 0. -1.
<scales pt_clust_5="13000.00000" pt_clust_6="13000.00000" pt_clust_7="13000.00000" pt_clust_8="13000.00000" pt_clust_9="29.71706"></scales>
<clustering>
<clus scale="   29.717">  2  9  1 -1</clus>
<clus scale="   85.529">  5  6 -1 -1</clus>
<clus scale="   93.002">  7  8 -1 -1</clus>
<clus scale="  187.707">  1  5  2 -1</clus>
<clus scale="   29.717">  2  5  1 -1</clus>
</clustering>
</event>
<event>
 9    1  0.1234700E-005  0.1272991E+03  0.7546771E-02  0.1231995E+00
         -1   -1    0    0    0  501 -0.00000000000E+00  0.00000000000E+00  0.14393931066E+03  0.14393931066E+03  0.00000000000E+00 0.  1.
          1   -1    0    0  502    0  0.00000000000E+00 -0.00000000000E+00 -0.24602706708E+03  0.24602706708E+03  0.00000000000E+00 0. -1.
         23    2    1    2    0    0  0.53837723670E+02  0.74810554547E+02  0.30706189051E+02  0.13231805802E+03  0.89833617711E+02 0.  0.
         23    2    1    2    0    0 -0.10402158925E+03 -0.10230671237E+02 -0.81068588246E+02  0.16087800261E+03  0.91566686409E+02 0.  0.
        -11    1    3    3    0    0  0.58894207184E+00  0.75447986767E+02  0.18444267985E+02  0.77671980672E+02  0.00000000000E+00 0.  1.
         11    1    3    3    0    0  0.53248781598E+02 -0.63743222003E+00  0.12261921066E+02  0.54646077350E+02  0.00000000000E+00 0. -1.
        -13    1    4    4    0    0 -0.48699561546E+02  0.40916533772E+02 -0.36179297886E+02  0.73176168431E+02  0.00000000000E+00 0.  1.
         13    1    4    4    0    0 -0.55322027707E+02 -0.51147205009E+02 -0.44889290360E+02  0.87701834182E+02  0.00000000000E+00 0. -1.
         21    1    1    2  502  501  0.50183865584E+02 -0.64579883310E+02 -0.51725357226E+02  0.96770317109E+02  0.00000000000E+00 0. -1.
<scales pt_clust_5="13000.00000" pt_clust_6="13000.00000" pt_clust_7="13000.00000" pt_clust_8="13000.00000" pt_clust_9="81.78620"></scales>
<clustering>
<clus scale="   81.786">  2  9  1 -1</clus>
<clus scale="   89.834">  5  6 -1 -1</clus>
<clus scale="   91.567">  7  8 -1 -1</clus>
<clus scale="  126.058">  1  5  2 -1</clus>
<clus scale="   81.786">  2  5  1 -1</clus>
</clustering>
</event>
<event>
 9    1  0.1234700E-005  0.2033568E+03  0.7546771E-02  0.1147081E+00
         -1   -1    0    0    0  501 -0.00000000000E+00  0.00000000000E+00  0.15778569361E+03  0.15778569361E+03  0.00000000000E+00 0.  1.
          1   -1    0    0  502    0  0.00000000000E+00 -0.00000000000E+00 -0.33162249198E+03  0.33162249198E+03  0.00000000000E+00 0. -1.
         23    2    1    2    0    0 -0.17522538484E+03 -0.28427318283E+02 -0.46678430269E+02  0.20422068567E+03  0.89527452140E+02 0.  0.
         23    2    1    2    0    0  0.18064160964E+03  0.48821277053E+02 -0.62689708588E+02  0.21735345902E+03  0.91091263895E+02 0.  0.
        -11    1    4    4    0    0  0.15078237115E+03  0.24499564949E+02 -0.82960309147E+02  0.17383315284E+03  0.00000000000E+00 0.  1.
         11    1    4    4    0    0  0.29859238491E+02  0.24321712105E+02  0.20270600559E+02  0.43520306180E+02  0.00000000000E+00 0. -1.
        -11    1    3    3    0    0 -0.15617123775E+03 -0.68475073368E+01 -0.86982092096E+01  0.15656309495E+03  0.00000000000E+00 0. -1.
         11    1    3    3    0    0 -0.19054147094E+02 -0.21579810946E+02 -0.37980221060E+02  0.47657590725E+02  0.00000000000E+00 0.  1.
         21    1    1    2  502  501 -0.54162248024E+01 -0.20393958770E+02 -0.64468659512E+02  0.67834040899E+02  0.00000000000E+00 0.  1.
<scales pt_clust_5="13000.00000" pt_clust_6="13000.00000" pt_clust_7="13000.00000" pt_clust_8="13000.00000" pt_clust_9="21.10093"></scales>
<clustering>
<clus scale="   21.101">  2  9  1 -1</clus>
<clus scale="   89.527">  7  8 -1 -1</clus>
<clus scale="   91.091">  5  6 -1 -1</clus>
<clus scale="  202.661">  1  7  2 -1</clus>
<clus scale="   21.101">  2  5  1 -1</clus>
</clustering>
</event>
<event>
 9    1  0.1234700E-005  0.1873589E+03  0.7546771E-02  0.1161777E+00
         -2   -1    0    0    0  501 -0.00000000000E+00  0.00000000000E+00  0.58540696140E+03  0.58540696140E+03  0.00000000000E+00 0.  1.
          2   -1    0    0  502    0  0.00000000000E+00 -0.00000000000E+00 -0.23835834176E+03  0.23835834176E+03  0.00000000000E+00 0. -1.
         23    2    1    2    0    0 -0.13853496718E+03 -0.56773921046E+02  0.49427905352E+03  0.52302293078E+03  0.82619538419E+02 0.  0.
         23    2    1    2    0    0  0.13953791780E+03  0.88196108474E+02 -0.17617443111E+03  0.25800930850E+03  0.91005434134E+02 0.  0.
        -11    1    4    4    0    0  0.11190476710E+03  0.42677675935E+02 -0.68712601519E+02  0.13807781332E+03  0.00000000000E+00 0.  1.
         11    1    4    4    0    0  0.27633150704E+02  0.45518432539E+02 -0.10746182959E+03  0.11993149518E+03  0.00000000000E+00 0. -1.
        -13    1    3    3    0    0 -0.29125390164E+02 -0.45576693539E+02  0.99981654168E+02  0.11367433535E+03  0.00000000000E+00 0. -1.
         13    1    3    3    0    0 -0.10940957701E+03 -0.11197227508E+02  0.39429739936E+03  0.40934859544E+03  0.00000000000E+00 0.  1.
         21    1    1    2  502  501 -0.10029506262E+01 -0.31422187428E+02  0.28943997226E+02  0.42733063875E+02  0.00000000000E+00 0.  1.
<scales pt_clust_5="13000.00000" pt_clust_6="13000.00000" pt_clust_7="13000.00000" pt_clust_8="13000.00000" pt_clust_9="31.43819"></scales>
<clustering>
<clus scale="   31.438">  1  9  2 -1</clus>
<clus scale="   82.620">  7  8 -1 -1</clus>
<clus scale="   91.005">  5  6 -1 -1</clus>
<clus scale="  183.432">  1  7  2 -1</clus>
<clus scale="  187.359">  2  5  1 -1</clus>
</clustering>
</event>
<event>
 9    1  0.1234700E-005  0.1046471E+03  0.7546771E-02  0.1271138E+00
          2   -1    0    0  502    0  0.00000000000E+00  0.00000000000E+00  0.13460453127E+03  0.13460453127E+03  0.00000000000E+00 0. -1.
         -2   -1    0    0    0  501 -0.00000000000E+00 -0.00000000000E+00 -0.17295702448E+03  0.17295702448E+03  0.00000000000E+00 0.  1.
         23    2    1    2    0    0 -0.41253972380E+02  0.22664249107E+01 -0.86277349905E+02  0.13344163649E+03  0.93036886895E+02 0.  0.
         23    2    1    2    0    0  0.71675566521E+02  0.30428339987E+02  0.46594368525E+02  0.12944116322E+03  0.92307685748E+02 0.  0.
        -11    1    3    3    0    0 -0.35610846735E+02 -0.17625295577E+02 -0.10068412837E+03  0.10824082942E+03  0.00000000000E+00 0.  1.
         11    1    3    3    0    0 -0.56431256443E+01  0.19891720488E+02  0.14406778463E+02  0.25200807064E+02  0.00000000000E+00 0. -1.
        -13    1    4    4    0    0  0.50518666472E+02 -0.27860217630E+02  0.13908469080E+02  0.59344527133E+02  0.00000000000E+00 0.  1.
         13    1    4    4    0    0  0.21156900048E+02  0.58288557617E+02  0.32685899444E+02  0.70096636091E+02  0.00000000000E+00 0. -1.
         21    1    1    2  502  501 -0.30421594141E+02 -0.32694764898E+02  0.13304881671E+01  0.44678756032E+02  0.00000000000E+00 0.  1.
<scales pt_clust_5="13000.00000" pt_clust_6="13000.00000" pt_clust_7="13000.00000" pt_clust_8="13000.00000" pt_clust_9="44.65894"></scales>
<clustering>
<clus scale="   44.659">  1  9  2 -1</clus>
<clus scale="   92.308">  7  8 -1 -1</clus>
<clus scale="   93.037">  5  6 -1 -1</clus>
<clus scale="  103.999">  1  7  2 -1</clus>
<clus scale="   44.659">  1  5  2 -1</clus>
</clustering>
</event>
<event>
 9    1  0.1234700E-005  0.1438861E+03  0.7546771E-02  0.1208573E+00
         -3   -1    0    0    0  501 -0.00000000000E+00  0.00000000000E+00  0.40271499661E+03  0.40271499661E+03  0.00000000000E+00 0.  1.
          3   -1    0    0  502    0  0.00000000000E+00 -0.00000000000E+00 -0.67096015802E+02  0.67096015802E+02  0.00000000000E+00 0. -1.
         23    2    1    2    0    0 -0.26696528487E+02  0.97929891043E+02  0.19244197662E+03  0.23525684255E+03  0.89492454486E+02 0.  0.
         23    2    1    2    0    0  0.26125883735E+02 -0.12527437620E+03  0.13087360320E+03  0.20456383509E+03  0.91335817049E+02 0.  0.
        -13    1    3    3    0    0  0.77803966202E+01  0.40001478105E+02  0.15036888665E+03  0.15579298731E+03  0.00000000000E+00 0.  1.
         13    1    3    3    0    0 -0.34476925108E+02  0.57928412938E+02  0.42073089963E+02  0.79463855238E+02  0.00000000000E+00 0. -1.
        -13    1    4    4    0    0  0.24322991803E+02 -0.55525330268E+01  0.61063663137E+02  0.65963698418E+02  0.00000000000E+00 0.  1.
         13    1    4    4    0    0  0.18028919319E+01 -0.11972184317E+03  0.69809940068E+02  0.13860013667E+03  0.00000000000E+00 0. -1.
         21    1    1    2  502  501  0.57064475221E+00  0.27344485158E+02  0.12303400983E+02  0.29990334772E+02  0.00000000000E+00 0.  1.
<scales pt_clust_5="13000.00000" pt_clust_6="13000.00000" pt_clust_7="13000.00000" pt_clust_8="13000.00000" pt_clust_9="27.35044"></scales>
<clustering>
<clus scale="   27.350">  2  9  1 -1</clus>
<clus scale="   89.492">  5  6 -1 -1</clus>
<clus scale="   91.336">  7  8 -1 -1</clus>
<clus scale="  142.723">  1  5  2 -1</clus>
<clus scale="   27.350">  2  5  1 -1</clus>
</clustering>
</event>
<event>
 9    1  0.1234700E-005  0.1337388E+03  0.7546771E-02  0.1222032E+00
          1   -1    0    0  502    0  0.00000000000E+00  0.00000000000E+00  0.19859817283E+03  0.19859817283E+03  0.00000000000E+00 0. -1.
         -1   -1    0    0    0  501 -0.00000000000E+00 -0.00000000000E+00 -0.12856666897E+03  0.12856666897E+03  0.00000000000E+00 0.  1.
         23    2    1    2    0    0 -0.75256791830E+02 -0.26387685382E+02 -0.35894507543E+02  0.12727443290E+03  0.92468756567E+02 0.  0.
         23    2    1    2    0    0  0.96648109489E+02  0.37162015527E+02  0.10788184718E+03  0.17585918016E+03  0.92553151377E+02 0.  0.
        -11    1    4    4    0    0 -0.90335579430E+00  0.24296311692E+02 -0.63137375410E+01  0.25119516223E+02  0.00000000000E+00 0.  1.
         11    1    4    4    0    0  0.97551465283E+02  0.12865703835E+02  0.11419558472E+03  0.15073966394E+03  0.00000000000E+00 0. -1.
        -11    1    3    3    0    0 -0.22646273004E+02  0.12856950590E+01  0.30594995330E+02  0.38086223651E+02  0.00000000000E+00 0. -1.
         11    1    3    3    0    0 -0.52610518826E+02 -0.27673380441E+02 -0.66489502873E+02  0.89188209246E+02  0.00000000000E+00 0.  1.
         21    1    1    2  502  501 -0.21391317659E+02 -0.10774330145E+02 -0.19558357829E+01  0.24031228742E+02  0.00000000000E+00 0. -1.
<scales pt_clust_5="13000.00000" pt_clust_6="13000.00000" pt_clust_7="13000.00000" pt_clust_8="13000.00000" pt_clust_9="23.95151"></scales>
<clustering>
<clus scale="   23.952">  2  9  1 -1</clus>
<clus scale="   92.469">  7  8 -1 -1</clus>
<clus scale="   92.553">  5  6 -1 -1</clus>
<clus scale="  133.680">  2  7  1 -1</clus>
<clus scale="  133.739">  1  5  2 -1</clus>
</clustering>
</event>
<event>
 9    1  0.1234700E-005  0.1112826E+03  0.7546771E-02  0.1258430E+00
          1   -1    0    0  502    0  0.00000000000E+00  0.00000000000E+00  0.45621646662E+02  0.45621646662E+02  0.00000000000E+00 0. -1.
         -1   -1    0    0    0  501 -0.00000000000E+00 -0.00000000000E+00 -0.42792739328E+03  0.42792739328E+03  0.00000000000E+00 0.  1.
         23    2    1    2    0    0  0.34114862544E+02 -0.50866023469E+02 -0.27748558177E+03  0.29863935580E+03  0.91847920793E+02 0.  0.
         23    2    1    2    0    0 -0.16451671466E+02  0.68116720010E+02 -0.90260640833E+02  0.14624691055E+03  0.91272287818E+02 0.  0.
        -11    1    4    4    0    0 -0.46851597467E+02  0.70253815726E+02 -0.62949630078E+02  0.10532486286E+03  0.00000000000E+00 0. -1.
         11    1    4    4    0    0  0.30399926001E+02 -0.21370957159E+01 -0.27311010755E+02  0.40922047694E+02  0.00000000000E+00 0.  1.
        -11    1    3    3    0    0  0.53377941121E+02 -0.32491514735E+02 -0.25848942346E+03  0.26593549062E+03  0.00000000000E+00 0.  1.
         11    1    3    3    0    0 -0.19263078577E+02 -0.18374508733E+02 -0.18996158303E+02  0.32703865180E+02  0.00000000000E+00 0. -1.
         21    1    1    2  502  501 -0.17663191078E+02 -0.17250696541E+02 -0.14559524015E+02  0.28662773588E+02  0.00000000000E+00 0.  1.
<scales pt_clust_5="13000.00000" pt_clust_6="13000.00000" pt_clust_7="13000.00000" pt_clust_8="13000.00000" pt_clust_9="24.68957"></scales>
<clustering>
<clus scale="   24.690">  1  9  2 -1</clus>
<clus scale="   91.272">  5  6 -1 -1</clus>
<clus scale="   91.848">  7  8 -1 -1</clus>
<clus scale="  110.808">  1  5  2 -1</clus>
<clus scale="   24.690">  1  5  2 -1</clus>
</clustering>
</event>
<event>
 9    1  0.1234700E-005  0.9910680E+02  0.7546771E-02  0.1282967E+00
          2   -1    0    0  502    0  0.00000000000E+00  0.00000000000E+00  0.49386693067E+03  0.49386693067E+03  0.00000000000E+00 0. -1.
         -2   -1    0    0    0  501 -0.00000000000E+00 -0.00000000000E+00 -0.24742327146E+02  0.24742327146E+02  0.00000000000E+00 0.  1.
         23    2    1    2    0    0  0.26992018935E+02  0.27685969650E+01  0.20139961992E+03  0.22249239813E+03  0.90580495165E+02 0.  0.
         23    2    1    2    0    0 -0.43246825863E+02 -0.18379938448E+02  0.20850690454E+03  0.23275509189E+03  0.92150385101E+02 0.  0.
        -11    1    4    4    0    0 -0.24302654853E+02  0.19234040374E+02  0.14477627024E+02  0.34207733428E+02  0.00000000000E+00 0.  1.
         11    1    4    4    0    0 -0.18944171010E+02 -0.37613978823E+02  0.19402927752E+03  0.19854735846E+03  0.00000000000E+00 0. -1.
        -11    1    3    3    0    0 -0.32333605622E+02 -0.97057941315E+01  0.65651330710E+02  0.73822501422E+02  0.00000000000E+00 0. -1.
         11    1    3    3    0    0  0.59325624557E+02  0.12474391097E+02  0.13574828921E+03  0.14866989671E+03  0.00000000000E+00 0.  1.
         21    1    1    2  502  501  0.16254806928E+02  0.15611341483E+02  0.59218079059E+02  0.63361767799E+02  0.00000000000E+00 0.  1.
<scales pt_clust_5="13000.00000" pt_clust_6="13000.00000" pt_clust_7="13000.00000" pt_clust_8="13000.00000" pt_clust_9="22.53736"></scales>
<clustering>
<clus scale="   22.537">  1  9  2 -1</clus>
<clus scale="   90.580">  7  8 -1 -1</clus>
<clus scale="   92.150">  5  6 -1 -1</clus>
<clus scale="   97.649">  2  7  1 -1</clus>
<clus scale="   22.537">  1  5  2 -1</clus>
</clustering>
</event>
<event>
 9    1  0.1234700E-005  0.1093885E+03  0.7546771E-02  0.1269237E+00
          1   -1    0    0  502    0  0.00000000000E+00  0.00000000000E+00  0.35991090041E+03  0.35991090041E+03  0.00000000000E+00 0. -1.
         -1   -1    0    0    0  501 -0.00000000000E+00 -0.00000000000E+00 -0.41204168592E+02  0.41204168592E+02  0.00000000000E+00 0.  1.
         23    2    1    2    0    0  0.68641949126E+01 -0.23340985232E+02  0.67321908343E+02  0.11589296009E+03  0.91142855414E+02 0.  0.
         23    2    1    2    0    0 -0.26612435195E+02  0.16249593027E+02  0.18656794366E+03  0.21709348977E+03  0.10653503985E+03 0.  0.
        -11    1    3    3    0    0  0.44765430990E+02  0.57885506506E+01  0.22803356425E+02  0.50571179486E+02  0.00000000000E+00 0.  1.
         11    1    3    3    0    0 -0.37901236078E+02 -0.29129535882E+02  0.44518551918E+02  0.65321780608E+02  0.00000000000E+00 0. -1.
        -11    1    4    4    0    0 -0.30566893147E+01 -0.28998097025E+02  0.15362782906E+03  0.15637053061E+03  0.00000000000E+00 0. -1.
         11    1    4    4    0    0 -0.23555745880E+02  0.45247690051E+02  0.32940114604E+02  0.60722959160E+02  0.00000000000E+00 0.  1.
         21    1    1    2  502  501  0.19748240283E+02  0.70913922050E+01  0.64816879817E+02  0.68128619147E+02  0.00000000000E+00 0.  1.
<scales pt_clust_5="13000.00000" pt_clust_6="13000.00000" pt_clust_7="13000.00000" pt_clust_8="13000.00000" pt_clust_9="20.98287"></scales>
<clustering>
<clus scale="   20.983">  1  9  2 -1</clus>
<clus scale="   91.143">  5  6 -1 -1</clus>
<clus scale="   94.462">  2  5  1 -1</clus>
<clus scale="  106.535">  7  8 -1 -1</clus>
<clus scale="   20.983">  1  5  2 -1</clus>
</clustering>
</event>
<event>
 9    1  0.1234700E-005  0.1096910E+03  0.7546771E-02  0.1261598E+00
          1   -1    0    0  502    0  0.00000000000E+00  0.00000000000E+00  0.18190858248E+03  0.18190858248E+03  0.00000000000E+00 0. -1.
         -1   -1    0    0    0  501 -0.00000000000E+00 -0.00000000000E+00 -0.47844343023E+03  0.47844343023E+03  0.00000000000E+00 0.  1.
         23    2    1    2    0    0  0.62093700167E+02  0.67544045915E+02 -0.24698523967E+03  0.27903852089E+03  0.91885590743E+02 0.  0.
         23    2    1    2    0    0  0.43285434289E+02 -0.50681881455E+02 -0.18028900984E+03  0.21254772000E+03  0.90720032394E+02 0.  0.
        -11    1    3    3    0    0  0.24478092540E+02  0.78755425659E+02 -0.11621330107E+03  0.14250307165E+03  0.00000000000E+00 0. -1.
         11    1    3    3    0    0  0.37615607627E+02 -0.11211379744E+02 -0.13077193860E+03  0.13653544923E+03  0.00000000000E+00 0.  1.
        -11    1    4    4    0    0  0.60375456775E+02 -0.63721741584E+02 -0.16229592897E+03  0.18451456499E+03  0.00000000000E+00 0.  1.
         11    1    4    4    0    0 -0.17090022485E+02  0.13039860129E+02 -0.17993080867E+02  0.28033155010E+02  0.00000000000E+00 0. -1.
         21    1    1    2  502  501 -0.10537913446E+03 -0.16862164461E+02  0.13073940175E+03  0.16876577183E+03  0.00000000000E+00 0. -1.
<scales pt_clust_5="13000.00000" pt_clust_6="13000.00000" pt_clust_7="13000.00000" pt_clust_8="13000.00000" pt_clust_9="106.71970"></scales>
<clustering>
<clus scale="   90.720">  7  8 -1 -1</clus>
<clus scale="   91.886">  5  6 -1 -1</clus>
<clus scale="  106.720">  1  9  2 -1</clus>
<clus scale="  108.717">  1  7  2 -1</clus>
<clus scale="  106.720">  1  5  2 -1</clus>
</clustering>
</event>
<event>
 9    1  0.1234700E-005  0.9650008E+02  0.7546771E-02  0.1288859E+00
          2   -1    0    0  502    0  0.00000000000E+00  0.00000000000E+00  0.15139497162E+03  0.15139497162E+03  0.00000000000E+00 0. -1.
         -2   -1    0    0    0  501 -0.00000000000E+00 -0.00000000000E+00 -0.76354522210E+02  0.76354522210E+02  0.00000000000E+00 0.  1.
         23    2    1    2    0    0  0.17752548596E+02  0.38589126039E+02  0.26181472931E+02  0.10412396725E+03  0.91389591311E+02 0.  0.
         23    2    1    2    0    0 -0.43373265653E+01 -0.22179123966E+02  0.41839908761E+02  0.10129788314E+03  0.89442479965E+02 0.  0.
        -11    1    4    4    0    0 -0.44709832863E+02  0.11174176826E+00  0.29475338580E+02  0.53551631397E+02  0.00000000000E+00 0.  1.
         11    1    4    4    0    0  0.40372506298E+02 -0.22290865734E+02  0.12364570182E+02  0.47746251745E+02  0.00000000000E+00 0. -1.
        -13    1    3    3    0    0  0.24804174298E+02  0.18729854071E+02 -0.30564118489E+02  0.43591511045E+02  0.00000000000E+00 0.  1.
         13    1    3    3    0    0 -0.70516257026E+01  0.19859271967E+02  0.56745591420E+02  0.60532456201E+02  0.00000000000E+00 0. -1.
         21    1    1    2  502  501 -0.13415222030E+02 -0.16410002073E+02  0.70190677225E+01  0.22327643446E+02  0.00000000000E+00 0.  1.
<scales pt_clust_5="13000.00000" pt_clust_6="13000.00000" pt_clust_7="13000.00000" pt_clust_8="13000.00000" pt_clust_9="21.19567"></scales>
<clustering>
<clus scale="   21.196">  2  9  1 -1</clus>
<clus scale="   89.442">  5  6 -1 -1</clus>
<clus scale="   91.390">  7  8 -1 -1</clus>
<clus scale="   94.658">  1  5  2 -1</clus>
<clus scale="   94.658">  1  5  2 -1</clus>
</clustering>
</event>
<event>
 9    1  0.1234700E-005  0.1089866E+03  0.7546771E-02  0.1262565E+00
         -3   -1    0    0    0  501 -0.00000000000E+00  0.00000000000E+00  0.33969264223E+03  0.33969264223E+03  0.00000000000E+00 0.  1.
          3   -1    0    0  502    0  0.00000000000E+00 -0.00000000000E+00 -0.88372006416E+02  0.88372006416E+02  0.00000000000E+00 0. -1.
         23    2    1    2    0    0 -0.27628861557E+02 -0.48957704344E+02  0.23961963711E+03  0.26250453120E+03  0.91273477008E+02 0.  0.
         23    2    1    2    0    0  0.64795611802E+02  0.52448761621E+02 -0.73863500912E+01  0.12363301776E+03  0.91001214317E+02 0.  0.
        -11    1    3    3    0    0 -0.26127147380E+02  0.13659173254E+02  0.24134238548E+02  0.38100686536E+02  0.00000000000E+00 0. -1.
         11    1    3    3    0    0 -0.15017141766E+01 -0.62616877598E+02  0.21548539856E+03  0.22440384466E+03  0.00000000000E+00 0.  1.
        -13    1    4    4    0    0  0.34631124074E+02  0.60656714458E+02  0.29029877690E+02  0.75639180073E+02  0.00000000000E+00 0.  1.
         13    1    4    4    0    0  0.30164487728E+02 -0.82079528364E+01 -0.36416227781E+02  0.47993837682E+02  0.00000000000E+00 0. -1.
         21    1    1    2  502  501 -0.37166750245E+02 -0.34910572772E+01  0.19087348798E+02  0.41927099695E+02  0.00000000000E+00 0.  1.
<scales pt_clust_5="13000.00000" pt_clust_6="13000.00000" pt_clust_7="13000.00000" pt_clust_8="13000.00000" pt_clust_9="37.33035"></scales>
<clustering>
<clus scale="   37.330">  2  9  1 -1</clus>
<clus scale="   91.001">  7  8 -1 -1</clus>
<clus scale="   91.273">  5  6 -1 -1</clus>
<clus scale="  108.759">  2  7  1 -1</clus>
<clus scale="   37.330">  2  5  1 -1</clus>
</clustering>
</event>
<event>
 9    1  0.1234700E-005  0.1030857E+03  0.7546771E-02  0.1274696E+00
          1   -1    0    0  502    0  0.00000000000E+00  0.00000000000E+00  0.51047619577E+03  0.51047619577E+03  0.00000000000E+00 0. -1.
         -1   -1    0    0    0  501 -0.00000000000E+00 -0.00000000000E+00 -0.29804475151E+02  0.29804475151E+02  0.00000000000E+00 0.  1.
         23    2    1    2    0    0 -0.30841355026E+02  0.28231268974E+02  0.12142870537E+03  0.15782928233E+03  0.91743981523E+02 0.  0.
         23    2    1    2    0    0  0.48203633046E+02 -0.14466683065E+02  0.26092431942E+03  0.28166707198E+03  0.93391454746E+02 0.  0.
        -11    1    3    3    0    0  0.22653841529E+01 -0.29123662260E+02  0.15944440690E+02  0.33279796539E+02  0.00000000000E+00 0.  1.
         11    1    3    3    0    0 -0.33106739179E+02  0.57354931234E+02  0.10548426468E+03  0.12454948579E+03  0.00000000000E+00 0. -1.
        -13    1    4    4    0    0  0.47743779673E+02  0.33318170468E+02  0.13778103258E+03  0.14957667572E+03  0.00000000000E+00 0.  1.
         13    1    4    4    0    0  0.45985337275E+00 -0.47784853533E+02  0.12314328683E+03  0.13209039626E+03  0.00000000000E+00 0. -1.
         21    1    1    2  502  501 -0.17362278020E+02 -0.13764585910E+02  0.98318695828E+02  0.10078431660E+03  0.00000000000E+00 0. -1.
<scales pt_clust_5="13000.00000" pt_clust_6="13000.00000" pt_clust_7="13000.00000" pt_clust_8="13000.00000" pt_clust_9="22.15655"></scales>
<clustering>
<clus scale="   22.157">  1  9  2 -1</clus>
<clus scale="   91.744">  5  6 -1 -1</clus>
<clus scale="   93.391">  7  8 -1 -1</clus>
<clus scale="  101.596">  2  5  1 -1</clus>
<clus scale="   22.157">  1  5  2 -1</clus>
</clustering>
</event>
<event>
 9    1  0.1234700E-005  0.9478858E+02  0.7546771E-02  0.1291848E+00
         -2   -1    0    0    0  501 -0.00000000000E+00  0.00000000000E+00  0.13767268724E+03  0.13767268724E+03  0.00000000000E+00 0.  1.
          2   -1    0    0  502    0  0.00000000000E+00 -0.00000000000E+00 -0.83127743099E+02  0.83127743099E+02  0.00000000000E+00 0. -1.
         23    2    1    2    0    0  0.17472903306E+02 -0.18888704879E+02  0.40036748564E+02  0.10342288859E+03  0.91821931619E+02 0.  0.
         23    2    1    2    0    0  0.15906160183E+01  0.25316600786E+02  0.18910008788E+02  0.96783572385E+02  0.91465901387E+02 0.  0.
        -11    1    4    4    0    0  0.44133424559E+02  0.23936838744E+02  0.20398130611E+02  0.54192390101E+02  0.00000000000E+00 0.  1.
         11    1    4    4    0    0 -0.42542808541E+02  0.13797620414E+01 -0.14881218231E+01  0.42591182284E+02  0.00000000000E+00 0. -1.
        -13    1    3    3    0    0  0.34931543416E+01 -0.49317585668E+02  0.48100752061E+02  0.68979045602E+02  0.00000000000E+00 0.  1.
         13    1    3    3    0    0  0.13979748965E+02  0.30428880789E+02 -0.80640034972E+01  0.34443842985E+02  0.00000000000E+00 0. -1.
         21    1    1    2  502  501 -0.19063519325E+02 -0.64278959071E+01 -0.44018132089E+01  0.20593969369E+02  0.00000000000E+00 0. -1.
<scales pt_clust_5="13000.00000" pt_clust_6="13000.00000" pt_clust_7="13000.00000" pt_clust_8="13000.00000" pt_clust_9="20.11804"></scales>
<clustering>
<clus scale="   20.118">  2  9  1 -1</clus>
<clus scale="   91.466">  5  6 -1 -1</clus>
<clus scale="   91.822">  7  8 -1 -1</clus>
<clus scale="   94.444">  2  5  1 -1</clus>
<clus scale="   20.118">  2  5  1 -1</clus>
</clustering>
</event>
<event>
 9    1  0.1234700E-005  0.1897930E+03  0.7546771E-02  0.1158972E+00
          1   -1    0    0  502    0  0.00000000000E+00  0.00000000000E+00  0.83680700222E+02  0.83680700222E+02  0.00000000000E+00 0. -1.
         -1   -1    0    0    0  501 -0.00000000000E+00 -0.00000000000E+00 -0.61023056637E+03  0.61023056637E+03  0.00000000000E+00 0.  1.
         23    2    1    2    0    0 -0.15762307325E+03 -0.67344493620E+02 -0.39672753645E+03  0.44217910073E+03  0.93537719149E+02 0.  0.
         23    2    1    2    0    0  0.13242630367E+03  0.78195807161E+02 -0.13501885913E+03  0.22381027264E+03  0.90607039785E+02 0.  0.
        -11    1    4    4    0    0  0.13462781450E+02  0.28305593704E+02 -0.75485338096E+02  0.81734260789E+02  0.00000000000E+00 0.  1.
         11    1    4    4    0    0  0.11896352222E+03  0.49890213457E+02 -0.59533521031E+02  0.14207601185E+03  0.00000000000E+00 0. -1.
        -13    1    3    3    0    0 -0.10235026631E+02 -0.28467687806E+02 -0.14316897272E+03  0.14633017382E+03  0.00000000000E+00 0. -1.
         13    1    3    3    0    0 -0.14738804662E+03 -0.38876805814E+02 -0.25355856373E+03  0.29584892692E+03  0.00000000000E+00 0.  1.
         21    1    1    2  502  501  0.25196769582E+02 -0.10851313542E+02  0.51965294316E+01  0.27921893221E+02  0.00000000000E+00 0. -1.
<scales pt_clust_5="13000.00000" pt_clust_6="13000.00000" pt_clust_7="13000.00000" pt_clust_8="13000.00000" pt_clust_9="27.43407"></scales>
<clustering>
<clus scale="   27.434">  1  9  2 -1</clus>
<clus scale="   90.607">  5  6 -1 -1</clus>
<clus scale="   93.538">  7  8 -1 -1</clus>
<clus scale="  188.366">  1  5  2 -1</clus>
<clus scale="   27.434">  1  5  2 -1</clus>
</clustering>
</event>
<event>
 9    1  0.1234700E-005  0.1316124E+03  0.7546771E-02  0.1225296E+00
         -2   -1    0    0    0  501 -0.00000000000E+00  0.00000000000E+00  0.64871904854E+03  0.64871904854E+03  0.00000000000E+00 0.  1.
          2   -1    0    0  502    0  0.00000000000E+00 -0.00000000000E+00 -0.68987999032E+02  0.68987999032E+02  0.00000000000E+00 0. -1.
         23    2    1    2    0    0  0.76940400052E+02 -0.73164950650E+02  0.53375414137E+03  0.55145952464E+03  0.89113347581E+02 0.  0.
         23    2    1    2    0    0 -0.40324630969E+02  0.31541837173E+02  0.16149579529E+02  0.10329621117E+03  0.88251543712E+02 0.  0.
        -13    1    4    4    0    0 -0.25608371808E+02  0.61318158023E+02  0.20071053035E+00  0.66451075948E+02  0.00000000000E+00 0. -1.
         13    1    4    4    0    0 -0.14716259161E+02 -0.29776320849E+02  0.15948868999E+02  0.36845135219E+02  0.00000000000E+00 0.  1.
        -13    1    3    3    0    0  0.42686143341E+02 -0.90426856536E+02  0.37016150981E+03  0.38343013257E+03  0.00000000000E+00 0.  1.
         13    1    3    3    0    0  0.34254256711E+02  0.17261905886E+02  0.16359263157E+03  0.16802939207E+03  0.00000000000E+00 0. -1.
         21    1    1    2  502  501 -0.36615769083E+02  0.41623113476E+02  0.29827328601E+02  0.62951311761E+02  0.00000000000E+00 0.  1.
<scales pt_clust_5="13000.00000" pt_clust_6="13000.00000" pt_clust_7="13000.00000" pt_clust_8="13000.00000" pt_clust_9="55.43643"></scales>
<clustering>
<clus scale="   55.436">  2  9  1 -1</clus>
<clus scale="   88.252">  5  6 -1 -1</clus>
<clus scale="   89.113">  7  8 -1 -1</clus>
<clus scale="  131.030">  2  5  1 -1</clus>
<clus scale="   55.436">  2  5  1 -1</clus>
</clustering>
</event>
<event>
 9    1  0.1234700E-005  0.1065864E+03  0.7546771E-02  0.1267734E+00
          2   -1    0    0  502    0  0.00000000000E+00  0.00000000000E+00  0.62769990463E+03  0.62769990463E+03  0.00000000000E+00 0. -1.
         -2   -1    0    0    0  501 -0.00000000000E+00 -0.00000000000E+00 -0.50181492257E+02  0.50181492257E+02  0.00000000000E+00 0.  1.
         23    2    1    2    0    0 -0.27592373393E+02 -0.44402409054E+02  0.32332359627E+02  0.10988576705E+03  0.91085604360E+02 0.  0.
         23    2    1    2    0    0  0.59548506654E+02  0.52463799748E+02  0.48352853258E+03  0.49808261055E+03  0.89375445089E+02 0.  0.
        -13    1    4    4    0    0  0.75330735693E+02  0.12625427580E+02  0.32617264390E+03  0.33499658922E+03  0.00000000000E+00 0. -1.
         13    1    4    4    0    0 -0.15782229039E+02  0.39838372168E+02  0.15735588868E+03  0.16308602133E+03  0.00000000000E+00 0.  1.
        -13    1    3    3    0    0 -0.42661648859E+02  0.11768229140E+02  0.26144031962E+02  0.51400563301E+02  0.00000000000E+00 0. -1.
         13    1    3    3    0    0  0.15069275466E+02 -0.56170638193E+02  0.61883276648E+01  0.58485203748E+02  0.00000000000E+00 0.  1.
         21    1    1    2  502  501 -0.31956133262E+02 -0.80613906948E+01  0.61657520169E+02  0.69913019291E+02  0.00000000000E+00 0.  1.
<scales pt_clust_5="13000.00000" pt_clust_6="13000.00000" pt_clust_7="13000.00000" pt_clust_8="13000.00000" pt_clust_9="32.95725"></scales>
<clustering>
<clus scale="   32.957">  1  9  2 -1</clus>
<clus scale="   89.375">  5  6 -1 -1</clus>
<clus scale="   91.086">  7  8 -1 -1</clus>
<clus scale="  105.129">  1  5  2 -1</clus>
<clus scale="   32.957">  1  5  2 -1</clus>
</clustering>
</event>
<event>
 9    1  0.1234700E-005  0.1033014E+03  0.7546771E-02  0.1277948E+00
         -1   -1    0    0    0  501 -0.00000000000E+00  0.00000000000E+00  0.56350746908E+02  0.56350746908E+02  0.00000000000E+00 0.  1.
          1   -1    0    0  502    0  0.00000000000E+00 -0.00000000000E+00 -0.25095385181E+03  0.25095385181E+03  0.00000000000E+00 0. -1.
         23    2    1    2    0    0 -0.32548703770E+02 -0.22705392245E+02 -0.48870275442E+02  0.11753047310E+03  0.99247948748E+02 0.  0.
         23    2    1    2    0    0  0.96006039207E+01  0.46327225397E+01 -0.12139951077E+03  0.15175640507E+03  0.90435234021E+02 0.  0.
        -11    1    4    4    0    0 -0.49917663130E+01 -0.36868706119E+02 -0.22413174168E+02  0.43434658950E+02  0.00000000000E+00 0.  1.
         11    1    4    4    0    0  0.14592370234E+02  0.41501428659E+02 -0.98986336600E+02  0.10832174612E+03  0.00000000000E+00 0. -1.
        -13    1    3    3    0    0  0.21021360332E+02 -0.30393261855E+02 -0.51454478710E+02  0.63349911884E+02  0.00000000000E+00 0. -1.
         13    1    3    3    0    0 -0.53570064102E+02  0.76878696095E+01  0.25842032675E+01  0.54180561214E+02  0.00000000000E+00 0.  1.
         21    1    1    2  502  501  0.22948099849E+02  0.18072669705E+02 -0.24333318692E+02  0.38017720546E+02  0.00000000000E+00 0.  1.
<scales pt_clust_5="13000.00000" pt_clust_6="13000.00000" pt_clust_7="13000.00000" pt_clust_8="13000.00000" pt_clust_9="29.21022"></scales>
<clustering>
<clus scale="   29.210">  2  9  1 -1</clus>
<clus scale="   90.435">  5  6 -1 -1</clus>
<clus scale="   94.866">  2  5  1 -1</clus>
<clus scale="   99.248">  7  8 -1 -1</clus>
<clus scale="   29.210">  2  5  1 -1</clus>
</clustering>
</event>
<event>
 9    1  0.1234700E-005  0.1278033E+03  0.7546771E-02  0.1231159E+00
          1   -1    0    0  502    0  0.00000000000E+00  0.00000000000E+00  0.23501207411E+03  0.23501207411E+03  0.00000000000E+00 0. -1.
         -1   -1    0    0    0  501 -0.00000000000E+00 -0.00000000000E+00 -0.20832125624E+03  0.20832125624E+03  0.00000000000E+00 0.  1.
         23    2    1    2    0    0 -0.95511650023E+02  0.36716029311E+02 -0.13195095190E+03  0.19054683556E+03  0.91795973419E+02 0.  0.
         23    2    1    2    0    0  0.94563573369E+01 -0.15449047944E+02  0.12713052908E+03  0.15870803718E+03  0.93262928673E+02 0.  0.
        -11    1    3    3    0    0 -0.22406550855E+02  0.53604238959E+02 -0.81668426424E+02  0.10022574435E+03  0.00000000000E+00 0.  1.
         11    1    3    3    0    0 -0.73105099168E+02 -0.16888209647E+02 -0.50282525480E+02  0.90321091214E+02  0.00000000000E+00 0. -1.
        -13    1    4    4    0    0 -0.37071549249E+02  0.79125361564E+01  0.29388162749E+02  0.47964279437E+02  0.00000000000E+00 0.  1.
         13    1    4    4    0    0  0.46527906586E+02 -0.23361584100E+02  0.97742366331E+02  0.11074375774E+03  0.00000000000E+00 0. -1.
         21    1    1    2  502  501  0.86055292686E+02 -0.21266981367E+02  0.31511240702E+02  0.94078457611E+02  0.00000000000E+00 0. -1.
<scales pt_clust_5="13000.00000" pt_clust_6="13000.00000" pt_clust_7="13000.00000" pt_clust_8="13000.00000" pt_clust_9="88.64422"></scales>
<clustering>
<clus scale="   88.644">  1  9  2 -1</clus>
<clus scale="   91.796">  5  6 -1 -1</clus>
<clus scale="   93.263">  7  8 -1 -1</clus>
<clus scale="  126.737">  2  5  1 -1</clus>
<clus scale="   88.644">  1  5  2 -1</clus>
</clustering>
</event>
<event>
 9    1  0.1234700E-005  0.1328992E+03  0.7546771E-02  0.1223355E+00
          1   -1    0    0  502    0  0.00000000000E+00  0.00000000000E+00  0.43739503655E+03  0.43739503655E+03  0.00000000000E+00 0. -1.
         -1   -1    0    0    0  501 -0.00000000000E+00 -0.00000000000E+00 -0.12955331432E+03  0.12955331432E+03  0.00000000000E+00 0.  1.
         23    2    1    2    0    0 -0.59872175333E+02 -0.73792909908E+02 -0.71290843397E+01  0.13183322249E+03  0.91099416988E+02 0.  0.
         23    2    1    2    0    0 -0.54182092021E+02  0.95148333229E+02  0.27935819256E+03  0.31373684251E+03  0.91656435587E+02 0.  0.
        -11    1    4    4    0    0 -0.29485497574E+02 -0.12457598335E+02  0.53637978164E+02  0.62462941213E+02  0.00000000000E+00 0.  1.
         11    1    4    4    0    0 -0.24696594447E+02  0.10760593156E+03  0.22572021440E+03  0.25127390130E+03  0.00000000000E+00 0. -1.
        -11    1    3    3    0    0  0.20880199124E+02 -0.35268704291E+02 -0.10461424036E+02  0.42300184523E+02  0.00000000000E+00 0. -1.
         11    1    3    3    0    0 -0.80752374457E+02 -0.38524205617E+02  0.33323396962E+01  0.89533037962E+02  0.00000000000E+00 0.  1.
         21    1    1    2  502  501  0.11405426735E+03 -0.21355423321E+02  0.35612614009E+02  0.12137828588E+03  0.00000000000E+00 0. -1.
<scales pt_clust_5="13000.00000" pt_clust_6="13000.00000" pt_clust_7="13000.00000" pt_clust_8="13000.00000" pt_clust_9="116.03633"></scales>
<clustering>
<clus scale="   91.099">  7  8 -1 -1</clus>
<clus scale="   91.656">  5  6 -1 -1</clus>
<clus scale="  116.036">  2  9  1 -1</clus>
<clus scale="  132.516">  2  7  1 -1</clus>
<clus scale="  132.899">  1  5  2 -1</clus>
</clustering>
</event>
<event>
 9    1  0.1234700E-005  0.1419583E+03  0.7546771E-02  0.1210985E+00
         -1   -1    0    0    0  501 -0.00000000000E+00  0.00000000000E+00  0.12029197425E+03  0.12029197425E+03  0.00000000000E+00 0.  1.
          1   -1    0    0  502    0  0.00000000000E+00 -0.00000000000E+00 -0.67208693400E+03  0.67208693400E+03  0.00000000000E+00 0. -1.
         23    2    1    2    0    0 -0.81871907450E+02  0.51573169311E+02  0.87957795112E+01  0.13357002652E+03  0.91655797547E+02 0.  0.
         23    2    1    2    0    0  0.18013695459E+03  0.11049465637E+02 -0.21872942806E+03  0.29763472707E+03  0.90401631391E+02 0.  0.
        -11    1    4    4    0    0  0.68020153734E+02 -0.26364557371E+02 -0.13275581321E+03  0.15147916405E+03  0.00000000000E+00 0. -1.
         11    1    4    4    0    0  0.11211680085E+03  0.37414023008E+02 -0.85973614847E+02  0.14615556302E+03  0.00000000000E+00 0.  1.
        -13    1    3    3    0    0 -0.65822935996E+02  0.76032845512E+02 -0.60800506422E+01  0.10075028296E+03  0.00000000000E+00 0. -1.
         13    1    3    3    0    0 -0.16048971454E+02 -0.24459676201E+02  0.14875830153E+02  0.32819743560E+02  0.00000000000E+00 0.  1.
         21    1    1    2  502  501 -0.98265047138E+02 -0.62622634948E+02 -0.34186131121E+03  0.36117415466E+03  0.00000000000E+00 0. -1.
<scales pt_clust_5="13000.00000" pt_clust_6="13000.00000" pt_clust_7="13000.00000" pt_clust_8="13000.00000" pt_clust_9="116.52302"></scales>
<clustering>
<clus scale="   90.402">  5  6 -1 -1</clus>
<clus scale="   91.656">  7  8 -1 -1</clus>
<clus scale="  116.523">  2  9  1 -1</clus>
<clus scale="  141.152">  2  5  1 -1</clus>
<clus scale="  116.523">  2  5  1 -1</clus>
</clustering>
</event>
<event>
 9    1  0.1234700E-005  0.1142917E+03  0.7546771E-02  0.1253070E+00
         -1   -1    0    0    0  501 -0.00000000000E+00  0.00000000000E+00  0.16244248029E+03  0.16244248029E+03  0.00000000000E+00 0.  1.
          1   -1    0    0  502    0  0.00000000000E+00 -0.00000000000E+00 -0.20233106569E+03  0.20233106569E+03  0.00000000000E+00 0. -1.
         23    2    1    2    0    0 -0.14567756683E+02  0.73324781128E+02  0.87078958222E+02  0.14701348334E+03  0.91877506801E+02 0.  0.
         23    2    1    2    0    0  0.28797612641E+02 -0.47573817851E+02 -0.22387541470E+02  0.10912039327E+03  0.91178328430E+02 0.  0.
        -11    1    3    3    0    0  0.67679378141E+01  0.77582764364E+02  0.95898767069E+02  0.12353729734E+03  0.00000000000E+00 0.  1.
         11    1    3    3    0    0 -0.21335694497E+02 -0.42579832363E+01 -0.88198088474E+01  0.23476185998E+02  0.00000000000E+00 0. -1.
        -13    1    4    4    0    0  0.48565758590E+02 -0.44670928385E+01 -0.35022231045E+02  0.60042855472E+02  0.00000000000E+00 0. -1.
         13    1    4    4    0    0 -0.19768145949E+02 -0.43106725013E+02  0.12634689575E+02  0.49077537797E+02  0.00000000000E+00 0.  1.
         21    1    1    2  502  501 -0.14229855958E+02 -0.25750963276E+02 -0.10458000216E+03  0.10863966937E+03  0.00000000000E+00 0. -1.
<scales pt_clust_5="13000.00000" pt_clust_6="13000.00000" pt_clust_7="13000.00000" pt_clust_8="13000.00000" pt_clust_9="29.42110"></scales>
<clustering>
<clus scale="   29.421">  2  9  1 -1</clus>
<clus scale="   91.178">  7  8 -1 -1</clus>
<clus scale="   91.878">  5  6 -1 -1</clus>
<clus scale="  113.730">  2  7  1 -1</clus>
<clus scale="   29.421">  2  5  1 -1</clus>
</clustering>
</event>
<event>
 9    1  0.1234700E-005  0.4600610E+03  0.7546771E-02  0.1024797E+00
          1   -1    0    0  502    0  0.00000000000E+00  0.00000000000E+00  0.52296547018E+03  0.52296547018E+03  0.00000000000E+00 0. -1.
         -1   -1    0    0    0  501 -0.00000000000E+00 -0.00000000000E+00 -0.78817582955E+03  0.78817582955E+03  0.00000000000E+00 0.  1.
         23    2    1    2    0    0  0.34452071124E+03 -0.28553037138E+03 -0.56280859174E+03  0.72468811050E+03  0.90538572469E+02 0.  0.
         23    2    1    2    0    0 -0.35131345520E+03  0.30639329534E+03  0.25708542546E+03  0.54038052391E+03  0.92845028954E+02 0.  0.
        -11    1    3    3    0    0  0.22598202381E+03 -0.18044567835E+03 -0.42877303883E+03  0.51717969483E+03  0.00000000000E+00 0.  1.
         11    1    3    3    0    0  0.11853868743E+03 -0.10508469303E+03 -0.13403555291E+03  0.20750841567E+03  0.00000000000E+00 0. -1.
        -13    1    4    4    0    0 -0.31738168295E+03  0.24772581178E+03  0.24567913097E+03  0.47165394717E+03  0.00000000000E+00 0. -1.
         13    1    4    4    0    0 -0.33931772254E+02  0.58667483561E+02  0.11406294494E+02  0.68726576735E+02  0.00000000000E+00 0.  1.
         21    1    1    2  502  501  0.67927439595E+01 -0.20862923955E+02  0.40512806905E+02  0.46072665321E+02  0.00000000000E+00 0.  1.
<scales pt_clust_5="13000.00000" pt_clust_6="13000.00000" pt_clust_7="13000.00000" pt_clust_8="13000.00000" pt_clust_9="21.94090"></scales>
<clustering>
<clus scale="   21.941">  1  9  2 -1</clus>
<clus scale="   90.539">  5  6 -1 -1</clus>
<clus scale="   92.845">  7  8 -1 -1</clus>
<clus scale="  459.601">  2  5  1 -1</clus>
<clus scale="   21.941">  1  5  2 -1</clus>
</clustering>
</event>
<event>
 9    1  0.1234700E-005  0.9384168E+02  0.7546771E-02  0.1303097E+00
         -3   -1    0    0    0  501 -0.00000000000E+00  0.00000000000E+00  0.20954113216E+03  0.20954113216E+03  0.00000000000E+00 0.  1.
          3   -1    0    0  502    0  0.00000000000E+00 -0.00000000000E+00 -0.66892111134E+02  0.66892111134E+02  0.00000000000E+00 0. -1.
         23    2    1    2    0    0  0.26246157451E+02 -0.34686295490E+02  0.10273418725E+03  0.14344383624E+03  0.90165520286E+02 0.  0.
         23    2    1    2    0    0 -0.77993769559E+01  0.66361931046E+01  0.57797811601E+02  0.94951362283E+02  0.74634474833E+02 0.  0.
        -13    1    4    4    0    0  0.29826638144E+02  0.19246156387E+02  0.30324161186E+02  0.46686161015E+02  0.00000000000E+00 0.  1.
         13    1    4    4    0    0 -0.37626015100E+02 -0.12609963282E+02  0.27473650415E+02  0.48265201268E+02  0.00000000000E+00 0. -1.
        -13    1    3    3    0    0  0.49181190018E+02 -0.39680830219E+02  0.36058055760E+02  0.72756725625E+02  0.00000000000E+00 0. -1.
         13    1    3    3    0    0 -0.22935032567E+02  0.49945347286E+01  0.66676131493E+02  0.70687110613E+02  0.00000000000E+00 0.  1.
         21    1    1    2  502  501 -0.18446780495E+02  0.28050102386E+02 -0.17882977825E+02  0.38038044776E+02  0.00000000000E+00 0.  1.
<scales pt_clust_5="13000.00000" pt_clust_6="13000.00000" pt_clust_7="13000.00000" pt_clust_8="13000.00000" pt_clust_9="33.57219"></scales>
<clustering>
<clus scale="   33.572">  2  9  1 -1</clus>
<clus scale="   74.634">  5  6 -1 -1</clus>
<clus scale="   79.036">  2  5  1 -1</clus>
<clus scale="   90.166">  7  8 -1 -1</clus>
<clus scale="   33.572">  2  5  1 -1</clus>
</clustering>
</event>
<event>
 9    1  0.1234700E-005  0.1341447E+03  0.7546771E-02  0.1234049E+00
         -1   -1    0    0    0  501 -0.00000000000E+00  0.00000000000E+00  0.24786539625E+03  0.24786539625E+03  0.00000000000E+00 0.  1.
          1   -1    0    0  502    0  0.00000000000E+00 -0.00000000000E+00 -0.12356203755E+03  0.12356203755E+03  0.00000000000E+00 0. -1.
         23    2    1    2    0    0 -0.62989684652E+02  0.13373476420E+02  0.50956927711E+02  0.11516335167E+03  0.80743042069E+02 0.  0.
         23    2    1    2    0    0 -0.62427533498E+02 -0.33157612771E+02  0.64607790705E+02  0.12899564734E+03  0.86423875111E+02 0.  0.
        -13    1    3    3    0    0 -0.43984808602E+02  0.13698142782E+01 -0.14198071653E+02  0.46239863944E+02  0.00000000000E+00 0. -1.
         13    1    3    3    0    0 -0.19004876050E+02  0.12003662142E+02  0.65154999364E+02  0.68923487728E+02  0.00000000000E+00 0.  1.
        -13    1    4    4    0    0  0.18874510920E+02 -0.22313674907E+02  0.21902271508E+02  0.36522003608E+02  0.00000000000E+00 0.  1.
         13    1    4    4    0    0 -0.81302044418E+02 -0.10843937863E+02  0.42705519197E+02  0.92473643731E+02  0.00000000000E+00 0. -1.
         21    1    1    2  502  501  0.12541721815E+03  0.19784136350E+02  0.87386402849E+01  0.12726843479E+03  0.00000000000E+00 0.  1.
<scales pt_clust_5="13000.00000" pt_clust_6="13000.00000" pt_clust_7="13000.00000" pt_clust_8="13000.00000" pt_clust_9="102.59485"></scales>
<clustering>
<clus scale="   80.743">  5  6 -1 -1</clus>
<clus scale="   86.424">  7  8 -1 -1</clus>
<clus scale="  103.276">  1  5  2 -1</clus>
<clus scale="  102.595">  2  9  1 -1</clus>
<clus scale="  102.595">  2  5  1 -1</clus>
</clustering>
</event>
<event>
 9    1  0.1234700E-005  0.1121684E+03  0.7546771E-02  0.1257086E+00
          1   -1    0    0  502    0  0.00000000000E+00  0.00000000000E+00  0.29841238910E+03  0.29841238910E+03  0.00000000000E+00 0. -1.
         -1   -1    0    0    0  501 -0.00000000000E+00 -0.00000000000E+00 -0.38814663150E+03  0.38814663150E+03  0.00000000000E+00 0.  1.
         23    2    1    2    0    0 -0.50651975295E+02  0.34874472122E+02 -0.35502209840E+03  0.37229966186E+03  0.93725644630E+02 0.  0.
         23    2    1    2    0    0  0.72905969745E+02 -0.89929595570E+01  0.25073989429E+03  0.27715496342E+03  0.92456613681E+02 0.  0.
        -11    1    3    3    0    0 -0.16721234575E+02  0.62028417726E+02 -0.25987002823E+03  0.26769302543E+03  0.00000000000E+00 0.  1.
         11    1    3    3    0    0 -0.33930740720E+02 -0.27153945604E+02 -0.95152070176E+02  0.10460663644E+03  0.00000000000E+00 0. -1.
        -13    1    4    4    0    0  0.27285770543E+02  0.26784404438E+02  0.29076026184E+02  0.48034705098E+02  0.00000000000E+00 0.  1.
         13    1    4    4    0    0  0.45620199202E+02 -0.35777363995E+02  0.22166386810E+03  0.22912025832E+03  0.00000000000E+00 0. -1.
         21    1    1    2  502  501 -0.22253994449E+02 -0.25881512565E+02  0.14547961720E+02  0.37104395316E+02  0.00000000000E+00 0.  1.
<scales pt_clust_5="13000.00000" pt_clust_6="13000.00000" pt_clust_7="13000.00000" pt_clust_8="13000.00000" pt_clust_9="34.13346"></scales>
<clustering>
<clus scale="   34.133">  1  9  2 -1</clus>
<clus scale="   92.457">  7  8 -1 -1</clus>
<clus scale="   93.726">  5  6 -1 -1</clus>
<clus scale="  111.110">  1  7  2 -1</clus>
<clus scale="   34.133">  1  5  2 -1</clus>
</clustering>
</event>
<event>
 9    1  0.1234700E-005  0.1016990E+03  0.7546771E-02  0.1277232E+00
         -1   -1    0    0    0  501 -0.00000000000E+00  0.00000000000E+00  0.12168582921E+03  0.12168582921E+03  0.00000000000E+00 0.  1.
          1   -1    0    0  502    0  0.00000000000E+00 -0.00000000000E+00 -0.18904444552E+03  0.18904444552E+03  0.00000000000E+00 0. -1.
         23    2    1    2    0    0  0.23026098229E+00  0.54258806412E+02  0.61015397732E+02  0.12204805085E+03  0.90712605864E+02 0.  0.
         23    2    1    2    0    0  0.35500634009E+01 -0.13851355887E+02 -0.64610690726E+02  0.11309906232E+03  0.91719101235E+02 0.  0.
        -11    1    3    3    0    0  0.19051490044E+02 -0.11650894860E+02 -0.89898732404E+01  0.24073230876E+02  0.00000000000E+00 0. -1.
         11    1    3    3    0    0 -0.18821229062E+02  0.65909701271E+02  0.70005270972E+02  0.97974819974E+02  0.00000000000E+00 0.  1.
        -13    1    4    4    0    0  0.25920215511E+02  0.31860192357E+02 -0.36569852592E+02  0.54993486412E+02  0.00000000000E+00 0.  1.
         13    1    4    4    0    0 -0.22370152110E+02 -0.45711548244E+02 -0.28040838134E+02  0.58105575908E+02  0.00000000000E+00 0. -1.
         21    1    1    2  502  501 -0.37803243832E+01 -0.40407450524E+02 -0.63763323317E+02  0.75583161556E+02  0.00000000000E+00 0. -1.
<scales pt_clust_5="13000.00000" pt_clust_6="13000.00000" pt_clust_7="13000.00000" pt_clust_8="13000.00000" pt_clust_9="40.58390"></scales>
<clustering>
<clus scale="   40.584">  2  9  1 -1</clus>
<clus scale="   90.713">  5  6 -1 -1</clus>
<clus scale="   91.719">  7  8 -1 -1</clus>
<clus scale="  100.792">  1  5  2 -1</clus>
<clus scale="   40.584">  2  5  1 -1</clus>
</clustering>
</event>
<event>
 9    1  0.1234700E-005  0.2221623E+03  0.7546771E-02  0.1132533E+00
          2   -1    0    0  502    0  0.00000000000E+00  0.00000000000E+00  0.30581357815E+03  0.30581357815E+03  0.00000000000E+00 0. -1.
         -2   -1    0    0    0  501 -0.00000000000E+00 -0.00000000000E+00 -0.63698227982E+03  0.63698227982E+03  0.00000000000E+00 0.  1.
         23    2    1    2    0    0  0.91498774171E+02  0.18494488806E+03 -0.56490365574E+03  0.60825248602E+03  0.90985214117E+02 0.  0.
         23    2    1    2    0    0 -0.65622108157E+02 -0.15637311472E+03  0.15138314960E+03  0.24361610555E+03  0.87596442918E+02 0.  0.
        -11    1    4    4    0    0 -0.18454995136E+02 -0.10427442475E+03  0.13477861142E+03  0.17140308224E+03  0.00000000000E+00 0. -1.
         11    1    4    4    0    0 -0.47167113022E+02 -0.52098689970E+02  0.16604538174E+02  0.72213023309E+02  0.00000000000E+00 0.  1.
        -13    1    3    3    0    0  0.14791558209E+02  0.12320748106E+03 -0.36286241476E+03  0.38349446623E+03  0.00000000000E+00 0.  1.
         13    1    3    3    0    0  0.76707215962E+02  0.61737407005E+02 -0.20204124098E+03  0.22475801979E+03  0.00000000000E+00 0. -1.
         21    1    1    2  502  501 -0.25876666014E+02 -0.28571773336E+02  0.82351804472E+02  0.90927266402E+02  0.00000000000E+00 0.  1.
<scales pt_clust_5="13000.00000" pt_clust_6="13000.00000" pt_clust_7="13000.00000" pt_clust_8="13000.00000" pt_clust_9="38.54800"></scales>
<clustering>
<clus scale="   38.548">  1  9  2 -1</clus>
<clus scale="   87.596">  5  6 -1 -1</clus>
<clus scale="   90.985">  7  8 -1 -1</clus>
<clus scale="  220.796">  1  5  2 -1</clus>
<clus scale="   38.548">  1  5  2 -1</clus>
</clustering>
</event>
<event>
 9    1  0.1234700E-005  0.1413577E+03  0.7546771E-02  0.1231050E+00
          1   -1    0    0  502    0  0.00000000000E+00  0.00000000000E+00  0.20788439539E+03  0.20788439539E+03  0.00000000000E+00 0. -1.
         -1   -1    0    0    0  501 -0.00000000000E+00 -0.00000000000E+00 -0.18812850763E+03  0.18812850763E+03  0.00000000000E+00 0.  1.
         23    2    1    2    0    0  0.22283345722E+02 -0.12949166890E+01 -0.82693787422E+02  0.12510195092E+03  0.91181200579E+02 0.  0.
         23    2    1    2    0    0  0.31763704503E+01  0.10712687717E+03  0.68621509253E+02  0.15692434843E+03  0.91815480486E+02 0.  0.
        -11    1    4    4    0    0 -0.30824664962E+01  0.49602883625E+02  0.83506898421E+02  0.97176899248E+02  0.00000000000E+00 0. -1.
         11    1    4    4    0    0  0.62588369465E+01  0.57523993542E+02 -0.14885389168E+02  0.59747449181E+02  0.00000000000E+00 0.  1.
        -11    1    3    3    0    0  0.40650452840E+02  0.31835696369E+02 -0.65759409039E+02  0.83607839085E+02  0.00000000000E+00 0.  1.
         11    1    3    3    0    0 -0.18367107117E+02 -0.33130613058E+02 -0.16934378383E+02  0.41494111831E+02  0.00000000000E+00 0. -1.
         21    1    1    2  502  501 -0.25459716173E+02 -0.10583196048E+03  0.33828165928E+02  0.11398660367E+03  0.00000000000E+00 0. -1.
<scales pt_clust_5="13000.00000" pt_clust_6="13000.00000" pt_clust_7="13000.00000" pt_clust_8="13000.00000" pt_clust_9="107.47987"></scales>
<clustering>
<clus scale="   91.181">  7  8 -1 -1</clus>
<clus scale="   91.815">  5  6 -1 -1</clus>
<clus scale="   93.874">  2  7  1 -1</clus>
<clus scale="  107.480">  2  9  1 -1</clus>
<clus scale="  141.358">  1  5  2 -1</clus>
</clustering>
</event>
<event>
 9    1  0.1234700E-005  0.1143025E+03  0.7546771E-02  0.1253651E+00
         -2   -1    0    0    0  501 -0.00000000000E+00  0.00000000000E+00  0.16396140198E+03  0.16396140198E+03  0.00000000000E+00 0.  1.
          2   -1    0    0  502    0  0.00000000000E+00 -0.00000000000E+00 -0.15968459114E+03  0.15968459114E+03  0.00000000000E+00 0. -1.
         23    2    1    2    0    0  0.57285365276E+02 -0.52853046450E+02  0.92413934595E+02  0.15156644014E+03  0.91416589717E+02 0.  0.
         23    2    1    2    0    0 -0.14840098229E+02  0.36614290994E+02 -0.79727158803E+02  0.12586239832E+03  0.89017350223E+02 0.  0.
        -13    1    4    4    0    0  0.25619190747E+02  0.18697688160E+02  0.31905510396E+01  0.31876732784E+02  0.00000000000E+00 0. -1.
         13    1    4    4    0    0 -0.40459288976E+02  0.17916602835E+02 -0.82917709842E+02  0.93985665540E+02  0.00000000000E+00 0.  1.
        -13    1    3    3    0    0  0.29486817353E+01 -0.25242598874E+02  0.86702149210E+02  0.90350131154E+02  0.00000000000E+00 0.  1.
         13    1    3    3    0    0  0.54336683541E+02 -0.27610447576E+02  0.57117853847E+01  0.61216308986E+02  0.00000000000E+00 0. -1.
         21    1    1    2  502  501 -0.42445267047E+02  0.16238755456E+02 -0.84099649531E+01  0.46217154650E+02  0.00000000000E+00 0. -1.
<scales pt_clust_5="13000.00000" pt_clust_6="13000.00000" pt_clust_7="13000.00000" pt_clust_8="13000.00000" pt_clust_9="45.44555"></scales>
<clustering>
<clus scale="   45.446">  2  9  1 -1</clus>
<clus scale="   89.017">  5  6 -1 -1</clus>
<clus scale="   91.417">  7  8 -1 -1</clus>
<clus scale="  112.393">  2  5  1 -1</clus>
<clus scale="   45.446">  2  5  1 -1</clus>
</clustering>
</event>
<event>
 9    1  0.1234700E-005  0.1385589E+03  0.7546771E-02  0.1222344E+00
         -2   -1    0    0    0  501 -0.00000000000E+00  0.00000000000E+00  0.60459999431E+03  0.60459999431E+03  0.00000000000E+00 0.  1.
          2   -1    0    0  502    0  0.00000000000E+00 -0.00000000000E+00 -0.20889442420E+03  0.20889442420E+03  0.00000000000E+00 0. -1.
         23    2    1    2    0    0  0.21930640498E+02  0.73214410012E+02  0.50627700031E+03  0.51993448100E+03  0.90411064986E+02 0.  0.
         23    2    1    2    0    0  0.17913457441E+01 -0.96804115461E+02  0.26669611710E+02  0.15230021070E+03  0.11449821091E+03 0.  0.
        -11    1    3    3    0    0  0.42215498214E+01 -0.20596218660E+02  0.60487381127E+02  0.64037090671E+02  0.00000000000E+00 0. -1.
         11    1    3    3    0    0  0.17709090676E+02  0.93810628673E+02  0.44578961918E+03  0.45589739033E+03  0.00000000000E+00 0.  1.
        -11    1    4    4    0    0 -0.53965908450E+02 -0.26305474956E+02  0.12130228380E+02  0.61248997772E+02  0.00000000000E+00 0.  1.
         11    1    4    4    0    0  0.55757254194E+02 -0.70498640506E+02  0.14539383331E+02  0.91051212930E+02  0.00000000000E+00 0. -1.
         21    1    1    2  502  501 -0.23721986242E+02  0.23589705449E+02 -0.13724104191E+03  0.14125972681E+03  0.00000000000E+00 0. -1.
<scales pt_clust_5="13000.00000" pt_clust_6="13000.00000" pt_clust_7="13000.00000" pt_clust_8="13000.00000" pt_clust_9="33.45455"></scales>
<clustering>
<clus scale="   33.455">  2  9  1 -1</clus>
<clus scale="   90.411">  5  6 -1 -1</clus>
<clus scale="  114.498">  7  8 -1 -1</clus>
<clus scale="  119.427">  1  5  2 -1</clus>
<clus scale="   33.455">  2  5  1 -1</clus>
</clustering>
</event>
<event>
 9    1  0.1234700E-005  0.1206170E+03  0.7546771E-02  0.1242315E+00
          1   -1    0    0  502    0  0.00000000000E+00  0.00000000000E+00  0.60173629291E+03  0.60173629291E+03  0.00000000000E+00 0. -1.
         -1   -1    0    0    0  501 -0.00000000000E+00 -0.00000000000E+00 -0.41746069499E+02  0.41746069499E+02  0.00000000000E+00 0.  1.
         23    2    1    2    0    0 -0.28535151877E+02 -0.75894643206E+02  0.14930427339E+03  0.19201536831E+03  0.89464427870E+02 0.  0.
         23    2    1    2    0    0 -0.21425618803E+02  0.84884507322E+02  0.21267373350E+03  0.24705140234E+03  0.90221071553E+02 0.  0.
        -11    1    4    4    0    0 -0.48677380164E+02  0.79742819073E+02  0.13179207857E+03  0.16154738162E+03  0.00000000000E+00 0.  1.
         11    1    4    4    0    0  0.27251761360E+02  0.51416882480E+01  0.80881654935E+02  0.85504020726E+02  0.00000000000E+00 0. -1.
        -13    1    3    3    0    0  0.39785746995E+01 -0.84525135022E+02  0.12307818164E+03  0.14936052458E+03  0.00000000000E+00 0. -1.
         13    1    3    3    0    0 -0.32513726577E+02  0.86304918163E+01  0.26226091744E+02  0.42654843724E+02  0.00000000000E+00 0.  1.
         21    1    1    2  502  501  0.49960770681E+02 -0.89898641160E+01  0.19801221652E+03  0.20441559176E+03  0.00000000000E+00 0. -1.
<scales pt_clust_5="13000.00000" pt_clust_6="13000.00000" pt_clust_7="13000.00000" pt_clust_8="13000.00000" pt_clust_9="50.76314"></scales>
<clustering>
<clus scale="   50.763">  1  9  2 -1</clus>
<clus scale="   89.464">  7  8 -1 -1</clus>
<clus scale="   90.221">  5  6 -1 -1</clus>
<clus scale="  120.052">  2  7  1 -1</clus>
<clus scale="   50.763">  1  5  2 -1</clus>
</clustering>
</event>
<event>
 9    1  0.1234700E-005  0.1314736E+03  0.7546771E-02  0.1226117E+00
          1   -1    0    0  502    0  0.00000000000E+00  0.00000000000E+00  0.48995575260E+03  0.48995575260E+03  0.00000000000E+00 0. -1.
         -1   -1    0    0    0  501 -0.00000000000E+00 -0.00000000000E+00 -0.55929964164E+02  0.55929964164E+02  0.00000000000E+00 0.  1.
         23    2    1    2    0    0  0.42646431339E+02 -0.69138030829E+02  0.11690348692E+03  0.16767496919E+03  0.88598445949E+02 0.  0.
         23    2    1    2    0    0 -0.69208483505E+02  0.86101491975E+02  0.14832790812E+03  0.20649921951E+03  0.91855746808E+02 0.  0.
        -11    1    3    3    0    0  0.69405090248E+02 -0.51130979726E+02  0.71596867830E+02  0.11206049760E+03  0.00000000000E+00 0. -1.
         11    1    3    3    0    0 -0.26758658909E+02 -0.18007051103E+02  0.45306619089E+02  0.55614471582E+02  0.00000000000E+00 0.  1.
        -11    1    4    4    0    0 -0.83148815842E+02  0.39723040204E+02  0.75957979132E+02  0.11942051789E+03  0.00000000000E+00 0.  1.
         11    1    4    4    0    0  0.13940332338E+02  0.46378451771E+02  0.72369928985E+02  0.87078701620E+02  0.00000000000E+00 0. -1.
         21    1    1    2  502  501  0.26562052165E+02 -0.16963461146E+02  0.16879439340E+03  0.17171152807E+03  0.00000000000E+00 0. -1.
<scales pt_clust_5="13000.00000" pt_clust_6="13000.00000" pt_clust_7="13000.00000" pt_clust_8="13000.00000" pt_clust_9="31.51669"></scales>
<clustering>
<clus scale="   31.517">  1  9  2 -1</clus>
<clus scale="   88.598">  5  6 -1 -1</clus>
<clus scale="   91.856">  7  8 -1 -1</clus>
<clus scale="  129.219">  2  5  1 -1</clus>
<clus scale="   31.517">  1  5  2 -1</clus>
</clustering>
</event>
<event>
 9    1  0.1234700E-005  0.9823500E+02  0.7546771E-02  0.1285489E+00
          4   -1    0    0  502    0  0.00000000000E+00  0.00000000000E+00  0.18261689515E+02  0.18261689515E+02  0.00000000000E+00 0. -1.
         -4   -1    0    0    0  501 -0.00000000000E+00 -0.00000000000E+00 -0.72861592154E+03  0.72861592154E+03  0.00000000000E+00 0.  1.
         23    2    1    2    0    0  0.12416501111E+02 -0.23103459304E+02 -0.35461361977E+03  0.36716545316E+03  0.91497056423E+02 0.  0.
         23    2    1    2    0    0 -0.37872059771E+02  0.53843228628E+01 -0.26800733734E+03  0.28665797588E+03  0.94242126597E+02 0.  0.
        -13    1    3    3    0    0 -0.50642300187E+01 -0.54668161617E+02 -0.26367464874E+03  0.26932986227E+03  0.00000000000E+00 0.  1.
         13    1    3    3    0    0  0.17480731130E+02  0.31564702313E+02 -0.90938971030E+02  0.97835590891E+02  0.00000000000E+00 0. -1.
        -13    1    4    4    0    0  0.18056688152E+02  0.13151228480E+02 -0.13804851934E+02  0.26259716953E+02  0.00000000000E+00 0. -1.
         13    1    4    4    0    0 -0.55928747923E+02 -0.77669056170E+01 -0.25420248540E+03  0.26039825893E+03  0.00000000000E+00 0.  1.
         21    1    1    2  502  501  0.25455558659E+02  0.17719136441E+02 -0.87733274911E+02  0.93054182010E+02  0.00000000000E+00 0. -1.
<scales pt_clust_5="13000.00000" pt_clust_6="13000.00000" pt_clust_7="13000.00000" pt_clust_8="13000.00000" pt_clust_9="31.01537"></scales>
<clustering>
<clus scale="   31.015">  1  9  2 -1</clus>
<clus scale="   91.497">  5  6 -1 -1</clus>
<clus scale="   94.242">  7  8 -1 -1</clus>
<clus scale="   95.605">  2  5  1 -1</clus>
<clus scale="   31.015">  1  5  2 -1</clus>
</clustering>
</event>
<event>
 9    1  0.1234700E-005  0.1273193E+03  0.7546771E-02  0.1231967E+00
         -1   -1    0    0    0  501 -0.00000000000E+00  0.00000000000E+00  0.65903519843E+02  0.65903519843E+02  0.00000000000E+00 0.  1.
          1   -1    0    0  502    0  0.00000000000E+00 -0.00000000000E+00 -0.45340538673E+03  0.45340538673E+03  0.00000000000E+00 0. -1.
         23    2    1    2    0    0 -0.94547823630E+02 -0.11623362933E+02 -0.72946696350E+02  0.15100065944E+03  0.91681978192E+02 0.  0.
         23    2    1    2    0    0  0.75353218324E+02 -0.25414623806E+02 -0.12855201832E+03  0.17768448689E+03  0.93392423947E+02 0.  0.
        -11    1    3    3    0    0 -0.56320195864E+02  0.15672814284E+02  0.63824979780E+01  0.58807634285E+02  0.00000000000E+00 0.  1.
         11    1    3    3    0    0 -0.38227627766E+02 -0.27296177217E+02 -0.79329194328E+02  0.92193025159E+02  0.00000000000E+00 0. -1.
        -13    1    4    4    0    0  0.45718366718E+02  0.92388502446E+01 -0.61262170716E+01  0.47043128561E+02  0.00000000000E+00 0.  1.
         13    1    4    4    0    0  0.29634851606E+02 -0.34653474051E+02 -0.12242580125E+03  0.13064135833E+03  0.00000000000E+00 0. -1.
         21    1    1    2  502  501  0.19194605306E+02  0.37037986739E+02 -0.18600315222E+03  0.19062376024E+03  0.00000000000E+00 0. -1.
<scales pt_clust_5="13000.00000" pt_clust_6="13000.00000" pt_clust_7="13000.00000" pt_clust_8="13000.00000" pt_clust_9="41.71625"></scales>
<clustering>
<clus scale="   41.716">  2  9  1 -1</clus>
<clus scale="   91.682">  5  6 -1 -1</clus>
<clus scale="   93.392">  7  8 -1 -1</clus>
<clus scale="  126.070">  1  5  2 -1</clus>
<clus scale="   41.716">  2  5  1 -1</clus>
</clustering>
</event>
<event>
 9    1  0.1234700E-005  0.9236497E+02  0.7546771E-02  0.1297334E+00
          1   -1    0    0  502    0  0.00000000000E+00  0.00000000000E+00  0.82500307611E+03  0.82500307611E+03  0.00000000000E+00 0. -1.
         -1   -1    0    0    0  501 -0.00000000000E+00 -0.00000000000E+00 -0.14324403853E+02  0.14324403853E+02  0.00000000000E+00 0.  1.
         23    2    1    2    0    0  0.28900595403E+01 -0.69822460525E+01  0.28811756492E+03  0.30215630663E+03  0.90717132978E+02 0.  0.
         23    2    1    2    0    0  0.65989039555E+01  0.29689325570E+02  0.34728386513E+03  0.36017466624E+03  0.90524613420E+02 0.  0.
        -13    1    4    4    0    0  0.43873048719E+02  0.25290688586E+02  0.12713814844E+03  0.13685237346E+03  0.00000000000E+00 0. -1.
         13    1    4    4    0    0 -0.37274144763E+02  0.43986369839E+01  0.22014571669E+03  0.22332229278E+03  0.00000000000E+00 0.  1.
        -13    1    3    3    0    0 -0.38576554205E+02 -0.11995330044E+02  0.77080512782E+02  0.87025536068E+02  0.00000000000E+00 0.  1.
         13    1    3    3    0    0  0.41466613745E+02  0.50130839916E+01  0.21103705214E+03  0.21513077056E+03  0.00000000000E+00 0. -1.
         21    1    1    2  502  501 -0.94889634959E+01 -0.22707079517E+02  0.17527724220E+03  0.17699650709E+03  0.00000000000E+00 0.  1.
<scales pt_clust_5="13000.00000" pt_clust_6="13000.00000" pt_clust_7="13000.00000" pt_clust_8="13000.00000" pt_clust_9="24.61000"></scales>
<clustering>
<clus scale="   24.610">  1  9  2 -1</clus>
<clus scale="   90.525">  5  6 -1 -1</clus>
<clus scale="   90.717">  7  8 -1 -1</clus>
<clus scale="   92.176">  1  5  2 -1</clus>
<clus scale="   24.610">  1  5  2 -1</clus>
</clustering>
</event>
<event>
 9    1  0.1234700E-005  0.1354192E+03  0.7546771E-02  0.1238115E+00
          2   -1    0    0  502    0  0.00000000000E+00  0.00000000000E+00  0.57061070952E+03  0.57061070952E+03  0.00000000000E+00 0. -1.
         -2   -1    0    0    0  501 -0.00000000000E+00 -0.00000000000E+00 -0.62525877772E+02  0.62525877772E+02  0.00000000000E+00 0.  1.
         23    2    1    2    0    0  0.34814195769E+02 -0.40736020454E+01  0.52275455702E+02  0.10614568574E+03  0.85472573793E+02 0.  0.
         23    2    1    2    0    0  0.70562625511E+02  0.62532550613E+01  0.94337060636E+02  0.15046565651E+03  0.93392962590E+02 0.  0.
        -11    1    4    4    0    0 -0.13648174137E+02  0.22291452901E+02  0.43649590067E+02  0.50876991290E+02  0.00000000000E+00 0.  1.
         11    1    4    4    0    0  0.84210799648E+02 -0.16038197840E+02  0.50687470570E+02  0.99588665219E+02  0.00000000000E+00 0. -1.
        -13    1    3    3    0    0 -0.86565581872E-01 -0.37097836174E+02  0.43725048370E+02  0.57342277574E+02  0.00000000000E+00 0. -1.
         13    1    3    3    0    0  0.34900761351E+02  0.33024234129E+02  0.85504073314E+01  0.48803408162E+02  0.00000000000E+00 0.  1.
         21    1    1    2  502  501 -0.10537682128E+03 -0.21796530159E+01  0.36147231541E+03  0.37652524505E+03  0.00000000000E+00 0.  1.
<scales pt_clust_5="13000.00000" pt_clust_6="13000.00000" pt_clust_7="13000.00000" pt_clust_8="13000.00000" pt_clust_9="98.06175"></scales>
<clustering>
<clus scale="   85.473">  7  8 -1 -1</clus>
<clus scale="   92.381">  2  7  1 -1</clus>
<clus scale="   93.393">  5  6 -1 -1</clus>
<clus scale="   98.062">  1  9  2 -1</clus>
<clus scale="   98.062">  1  5  2 -1</clus>
</clustering>
</event>
<event>
 9    1  0.1234700E-005  0.1911045E+03  0.7546771E-02  0.1159776E+00
          1   -1    0    0  502    0  0.00000000000E+00  0.00000000000E+00  0.98043799628E+03  0.98043799628E+03  0.00000000000E+00 0. -1.
         -1   -1    0    0    0  501 -0.00000000000E+00 -0.00000000000E+00 -0.74753673843E+02  0.74753673843E+02  0.00000000000E+00 0.  1.
         23    2    1    2    0    0  0.69457339838E+02  0.15734402353E+03  0.10558747725E+03  0.21188952885E+03  0.64552252357E+02 0.  0.
         23    2    1    2    0    0 -0.13148589695E+01 -0.17072163693E+03  0.51269581585E+03  0.54763051616E+03  0.88851429166E+02 0.  0.
        -11    1    3    3    0    0  0.19234511715E+02  0.87143966153E+02  0.22394257057E+02  0.92008369331E+02  0.00000000000E+00 0. -1.
         11    1    3    3    0    0  0.50222828123E+02  0.70200057377E+02  0.83193220195E+02  0.11988115952E+03  0.00000000000E+00 0.  1.
        -13    1    4    4    0    0  0.11886267273E+02 -0.43489767714E+02  0.48871859461E+02  0.66491367053E+02  0.00000000000E+00 0.  1.
         13    1    4    4    0    0 -0.13201126243E+02 -0.12723186922E+03  0.46382395639E+03  0.48113914911E+03  0.00000000000E+00 0. -1.
         21    1    1    2  502  501 -0.68142480868E+02  0.13377613402E+02  0.28740102933E+03  0.29567162512E+03  0.00000000000E+00 0. -1.
<scales pt_clust_5="13000.00000" pt_clust_6="13000.00000" pt_clust_7="13000.00000" pt_clust_8="13000.00000" pt_clust_9="69.44320"></scales>
<clustering>
<clus scale="   64.552">  5  6 -1 -1</clus>
<clus scale="   69.443">  1  9  2 -1</clus>
<clus scale="   88.851">  7  8 -1 -1</clus>
<clus scale="  181.089">  2  5  1 -1</clus>
<clus scale="   69.443">  1  5  2 -1</clus>
</clustering>
</event>
<event>
 9    1  0.1234700E-005  0.9460332E+02  0.7546771E-02  0.1293311E+00
         -2   -1    0    0    0  501 -0.00000000000E+00  0.00000000000E+00  0.21333682887E+03  0.21333682887E+03  0.00000000000E+00 0.  1.
          2   -1    0    0  502    0  0.00000000000E+00 -0.00000000000E+00 -0.15226876666E+03  0.15226876666E+03  0.00000000000E+00 0. -1.
         23    2    1    2    0    0 -0.15885194114E+02 -0.79301840855E+01  0.16911852892E+03  0.19372738940E+03  0.92811623018E+02 0.  0.
         23    2    1    2    0    0  0.89257788719E+01  0.32887576493E+02 -0.10921613638E+03  0.14594244545E+03  0.90607785114E+02 0.  0.
        -11    1    3    3    0    0 -0.34448435193E+02  0.33284638573E+02  0.70389290612E+02  0.85142316653E+02  0.00000000000E+00 0. -1.
         11    1    3    3    0    0  0.18563241079E+02 -0.41214822659E+02  0.98729238308E+02  0.10858507274E+03  0.00000000000E+00 0.  1.
        -13    1    4    4    0    0 -0.12714080418E+02 -0.28087583064E+02 -0.46796483295E+02  0.56039905532E+02  0.00000000000E+00 0.  1.
         13    1    4    4    0    0  0.21639859290E+02  0.60975159557E+02 -0.62419653085E+02  0.89902539922E+02  0.00000000000E+00 0. -1.
         21    1    1    2  502  501  0.69594152422E+01 -0.24957392407E+02  0.11656696673E+01  0.25935760680E+02  0.00000000000E+00 0. -1.
<scales pt_clust_5="13000.00000" pt_clust_6="13000.00000" pt_clust_7="13000.00000" pt_clust_8="13000.00000" pt_clust_9="25.90955"></scales>
<clustering>
<clus scale="   25.910">  2  9  1 -1</clus>
<clus scale="   90.608">  7  8 -1 -1</clus>
<clus scale="   92.442">  2  7  1 -1</clus>
<clus scale="   92.812">  5  6 -1 -1</clus>
<clus scale="   25.910">  2  5  1 -1</clus>
</clustering>
</event>
<event>
 9    1  0.1234700E-005  0.9456822E+02  0.7546771E-02  0.1292568E+00
          2   -1    0    0  502    0  0.00000000000E+00  0.00000000000E+00  0.42035543664E+03  0.42035543664E+03  0.00000000000E+00 0. -1.
         -2   -1    0    0    0  501 -0.00000000000E+00 -0.00000000000E+00 -0.94338793592E+02  0.94338793592E+02  0.00000000000E+00 0.  1.
         23    2    1    2    0    0  0.15570258458E+02  0.54903181161E+01 -0.26465934544E+02  0.97750096019E+02  0.92639403274E+02 0.  0.
         23    2    1    2    0    0 -0.29062811753E+02  0.86560970375E+02  0.19812495519E+03  0.23671715427E+03  0.91891591755E+02 0.  0.
        -11    1    3    3    0    0  0.29962294111E+02 -0.15475614938E+02  0.23896527623E+02  0.41331316923E+02  0.00000000000E+00 0. -1.
         11    1    3    3    0    0 -0.14392035654E+02  0.20965933054E+02 -0.50362462167E+02  0.56418779096E+02  0.00000000000E+00 0.  1.
        -13    1    4    4    0    0 -0.14124479155E+02  0.10492437939E+03  0.16219241845E+03  0.19368791110E+03  0.00000000000E+00 0.  1.
         13    1    4    4    0    0 -0.14938332599E+02 -0.18363409012E+02  0.35932536741E+02  0.43029243173E+02  0.00000000000E+00 0. -1.
         21    1    1    2  502  501  0.13492553295E+02 -0.92051288491E+02  0.15435762240E+03  0.18022697995E+03  0.00000000000E+00 0. -1.
<scales pt_clust_5="13000.00000" pt_clust_6="13000.00000" pt_clust_7="13000.00000" pt_clust_8="13000.00000" pt_clust_9="93.03488"></scales>
<clustering>
<clus scale="   91.892">  7  8 -1 -1</clus>
<clus scale="   92.639">  5  6 -1 -1</clus>
<clus scale="   93.035">  1  9  2 -1</clus>
<clus scale="   93.836">  1  7  2 -1</clus>
<clus scale="   93.035">  1  5  2 -1</clus>
</clustering>
</event>
<event>
 9    1  0.1234700E-005  0.1202555E+03  0.7546771E-02  0.1249425E+00
          2   -1    0    0  502    0  0.00000000000E+00  0.00000000000E+00  0.53359665287E+03  0.53359665287E+03  0.00000000000E+00 0. -1.
         -2   -1    0    0    0  501 -0.00000000000E+00 -0.00000000000E+00 -0.37862771404E+02  0.37862771404E+02  0.00000000000E+00 0.  1.
         23    2    1    2    0    0  0.20022500301E+02 -0.50661533522E+02  0.14804940150E+03  0.19156321247E+03  0.10867542311E+03 0.  0.
         23    2    1    2    0    0 -0.36956449242E+02  0.35008001769E+02  0.16271871764E+03  0.19349845186E+03  0.91503718351E+02 0.  0.
        -11    1    4    4    0    0 -0.37745637929E+02 -0.23071820650E+02  0.50486996954E+02  0.67126589011E+02  0.00000000000E+00 0.  1.
         11    1    4    4    0    0  0.78918868687E+00  0.58079822419E+02  0.11223172069E+03  0.12637186285E+03  0.00000000000E+00 0. -1.
        -13    1    3    3    0    0 -0.35553134417E+02 -0.52015365498E+02  0.99421852373E+02  0.11770441089E+03  0.00000000000E+00 0.  1.
         13    1    3    3    0    0  0.55575634718E+02  0.13538319759E+01  0.48627549131E+02  0.73858801573E+02  0.00000000000E+00 0. -1.
         21    1    1    2  502  501  0.16933948941E+02  0.15653531752E+02  0.18496576232E+03  0.18639775994E+03  0.00000000000E+00 0. -1.
<scales pt_clust_5="13000.00000" pt_clust_6="13000.00000" pt_clust_7="13000.00000" pt_clust_8="13000.00000" pt_clust_9="23.06061"></scales>
<clustering>
<clus scale="   23.061">  1  9  2 -1</clus>
<clus scale="   91.504">  5  6 -1 -1</clus>
<clus scale="  104.995">  1  5  2 -1</clus>
<clus scale="  108.675">  7  8 -1 -1</clus>
<clus scale="   23.061">  1  5  2 -1</clus>
</clustering>
</event>
<event>
 9    1  0.1234700E-005  0.1685133E+03  0.7546771E-02  0.1179525E+00
         -2   -1    0    0    0  501 -0.00000000000E+00  0.00000000000E+00  0.34373325699E+03  0.34373325699E+03  0.00000000000E+00 0.  1.
          2   -1    0    0  502    0  0.00000000000E+00 -0.00000000000E+00 -0.19328284326E+03  0.19328284326E+03  0.00000000000E+00 0. -1.
         23    2    1    2    0    0  0.14356343304E+03  0.12203695939E+02  0.20047704969E+03  0.26317397753E+03  0.91159780044E+02 0.  0.
         23    2    1    2    0    0 -0.13441746833E+03  0.77166070968E+02 -0.33747141982E+02  0.18254247413E+03  0.90333974606E+02 0.  0.
        -11    1    3    3    0    0  0.53321525522E+02  0.37169996019E+02  0.13212557226E+03  0.14724795595E+03  0.00000000000E+00 0.  1.
         11    1    3    3    0    0  0.90241907516E+02 -0.24966300081E+02  0.68351477429E+02  0.11592602158E+03  0.00000000000E+00 0. -1.
        -13    1    4    4    0    0 -0.61806098713E+02 -0.12218996649E+02 -0.22219666556E+02  0.66805772948E+02  0.00000000000E+00 0.  1.
         13    1    4    4    0    0 -0.72611369619E+02  0.89385067617E+02 -0.11527475426E+02  0.11573670118E+03  0.00000000000E+00 0. -1.
         21    1    1    2  502  501 -0.91459647047E+01 -0.89369766907E+02 -0.16279493972E+02  0.91299648583E+02  0.00000000000E+00 0. -1.
<scales pt_clust_5="13000.00000" pt_clust_6="13000.00000" pt_clust_7="13000.00000" pt_clust_8="13000.00000" pt_clust_9="89.83654"></scales>
<clustering>
<clus scale="   89.837">  2  9  1 -1</clus>
<clus scale="   90.334">  7  8 -1 -1</clus>
<clus scale="   91.160">  5  6 -1 -1</clus>
<clus scale="  168.068">  2  7  1 -1</clus>
<clus scale="   89.837">  2  5  1 -1</clus>
</clustering>
</event>
<event>
 9    1  0.1234700E-005  0.3832649E+03  0.7546771E-02  0.1049789E+00
         -1   -1    0    0    0  501 -0.00000000000E+00  0.00000000000E+00  0.23412399421E+04  0.23412399421E+04  0.00000000000E+00 0.  1.
          1   -1    0    0  502    0  0.00000000000E+00 -0.00000000000E+00 -0.71347871009E+02  0.71347871009E+02  0.00000000000E+00 0. -1.
         23    2    1    2    0    0  0.36816544804E+03  0.14597086670E+02  0.11092198324E+04  0.11721756233E+04  0.88702780023E+02 0.  0.
         23    2    1    2    0    0 -0.37642194421E+03  0.22354618511E+02  0.11177772943E+04  0.11831970301E+04  0.91301278279E+02 0.  0.
        -13    1    3    3    0    0  0.68113908783E+02 -0.31611235953E+02  0.23912214858E+03  0.25063554566E+03  0.00000000000E+00 0. -1.
         13    1    3    3    0    0  0.30005153926E+03  0.46208322624E+02  0.87009768380E+03  0.92154007761E+03  0.00000000000E+00 0.  1.
        -13    1    4    4    0    0 -0.59474632728E+02 -0.19835834248E+02  0.26853367363E+03  0.27575537371E+03  0.00000000000E+00 0.  1.
         13    1    4    4    0    0 -0.31694731149E+03  0.42190452758E+02  0.84924362063E+03  0.90744165638E+03  0.00000000000E+00 0. -1.
         21    1    1    2  502  501  0.82564961729E+01 -0.36951705181E+02  0.42894944477E+02  0.57215159762E+02  0.00000000000E+00 0.  1.
<scales pt_clust_5="13000.00000" pt_clust_6="13000.00000" pt_clust_7="13000.00000" pt_clust_8="13000.00000" pt_clust_9="37.86289"></scales>
<clustering>
<clus scale="   37.863">  2  9  1 -1</clus>
<clus scale="   88.703">  5  6 -1 -1</clus>
<clus scale="   91.301">  7  8 -1 -1</clus>
<clus scale="  382.654">  1  5  2 -1</clus>
<clus scale="   37.863">  2  5  1 -1</clus>
</clustering>
</event>
<event>
 9    1  0.1234700E-005  0.1396187E+03  0.7546771E-02  0.1214312E+00
          1   -1    0    0  502    0  0.00000000000E+00  0.00000000000E+00  0.99393613156E+03  0.99393613156E+03  0.00000000000E+00 0. -1.
         -1   -1    0    0    0  501 -0.00000000000E+00 -0.00000000000E+00 -0.23535849588E+02  0.23535849588E+02  0.00000000000E+00 0.  1.
         23    2    1    2    0    0 -0.48605668223E+02  0.83184179814E+02  0.36714962237E+03  0.39059001501E+03  0.92084721147E+02 0.  0.
         23    2    1    2    0    0  0.71226119608E+02 -0.88141988982E+02  0.52375838674E+03  0.54408531078E+03  0.94147795463E+02 0.  0.
        -11    1    3    3    0    0 -0.42593483985E+02  0.29954206012E+01  0.63850717079E+02  0.76812053052E+02  0.00000000000E+00 0.  1.
         11    1    3    3    0    0 -0.60121842382E+01  0.80188759213E+02  0.30329890529E+03  0.31377796196E+03  0.00000000000E+00 0. -1.
        -13    1    4    4    0    0  0.61274880961E+02 -0.45693050617E+01  0.26293821220E+03  0.27002220838E+03  0.00000000000E+00 0. -1.
         13    1    4    4    0    0  0.99512386468E+01 -0.83572683921E+02  0.26082017454E+03  0.27406310240E+03  0.00000000000E+00 0.  1.
         21    1    1    2  502  501 -0.22620451385E+02  0.49578091685E+01  0.79492272869E+02  0.82796655358E+02  0.00000000000E+00 0. -1.
<scales pt_clust_5="13000.00000" pt_clust_6="13000.00000" pt_clust_7="13000.00000" pt_clust_8="13000.00000" pt_clust_9="23.15739"></scales>
<clustering>
<clus scale="   23.157">  1  9  2 -1</clus>
<clus scale="   92.085">  5  6 -1 -1</clus>
<clus scale="   94.148">  7  8 -1 -1</clus>
<clus scale="  138.236">  2  5  1 -1</clus>
<clus scale="   23.157">  1  5  2 -1</clus>
</clustering>
</event>
<event>
 9    1  0.1234700E-005  0.1133910E+03  0.7546771E-02  0.1255213E+00
          3   -1    0    0  502    0  0.00000000000E+00  0.00000000000E+00  0.79100003624E+03  0.79100003624E+03  0.00000000000E+00 0. -1.
         -3   -1    0    0    0  501 -0.00000000000E+00 -0.00000000000E+00 -0.29163366114E+02  0.29163366114E+02  0.00000000000E+00 0.  1.
         23    2    1    2    0    0 -0.36303616354E+02  0.49981507535E+02  0.15142993525E+03  0.18818860594E+03  0.93101141019E+02 0.  0.
         23    2    1    2    0    0  0.68795367180E+01 -0.79760871639E+02  0.42720550440E+03  0.44405120067E+03  0.90927449984E+02 0.  0.
        -13    1    3    3    0    0 -0.35535461430E+02 -0.15784066782E+02  0.26659664339E+02  0.47144920044E+02  0.00000000000E+00 0.  1.
         13    1    3    3    0    0 -0.76815492332E+00  0.65765574317E+02  0.12477027092E+03  0.14104368590E+03  0.00000000000E+00 0. -1.
        -13    1    4    4    0    0  0.31580904300E+02 -0.88507181303E+02  0.35539127632E+03  0.36760554123E+03  0.00000000000E+00 0. -1.
         13    1    4    4    0    0 -0.24701367582E+02  0.87463096631E+01  0.71814228075E+02  0.76445659439E+02  0.00000000000E+00 0.  1.
         21    1    1    2  502  501  0.29424079636E+02  0.29779364105E+02  0.18320123048E+03  0.18792359574E+03  0.00000000000E+00 0. -1.
<scales pt_clust_5="13000.00000" pt_clust_6="13000.00000" pt_clust_7="13000.00000" pt_clust_8="13000.00000" pt_clust_9="41.86391"></scales>
<clustering>
<clus scale="   41.864">  1  9  2 -1</clus>
<clus scale="   90.927">  7  8 -1 -1</clus>
<clus scale="   93.101">  5  6 -1 -1</clus>
<clus scale="  111.613">  1  7  2 -1</clus>
<clus scale="   41.864">  1  5  2 -1</clus>
</clustering>
</event>
<event>
 9    1  0.1234700E-005  0.9258164E+02  0.7546771E-02  0.1297842E+00
         -1   -1    0    0    0  501 -0.00000000000E+00  0.00000000000E+00  0.36440778422E+03  0.36440778422E+03  0.00000000000E+00 0.  1.
          1   -1    0    0  502    0  0.00000000000E+00 -0.00000000000E+00 -0.50885238871E+02  0.50885238871E+02  0.00000000000E+00 0. -1.
         23    2    1    2    0    0 -0.18044084008E+02  0.53845294785E+01  0.21132807144E+03  0.23138716175E+03  0.92335706631E+02 0.  0.
         23    2    1    2    0    0 -0.28388741339E+02 -0.83730102429E+01  0.98937770015E+02  0.13726312979E+03  0.90423760859E+02 0.  0.
        -13    1    3    3    0    0 -0.52717975395E+02 -0.12906406587E+02  0.10796406459E+03  0.12083873346E+03  0.00000000000E+00 0.  1.
         13    1    3    3    0    0  0.34673891387E+02  0.18290936065E+02  0.10336400684E+03  0.11054842829E+03  0.00000000000E+00 0. -1.
        -13    1    4    4    0    0  0.30675651744E+02 -0.16846520853E+02  0.43343395141E+02  0.55708623903E+02  0.00000000000E+00 0. -1.
         13    1    4    4    0    0 -0.59064393083E+02  0.84735106106E+01  0.55594374874E+02  0.81554505883E+02  0.00000000000E+00 0.  1.
         21    1    1    2  502  501  0.46432825347E+02  0.29884807644E+01  0.32567038987E+01  0.46642731559E+02  0.00000000000E+00 0.  1.
<scales pt_clust_5="13000.00000" pt_clust_6="13000.00000" pt_clust_7="13000.00000" pt_clust_8="13000.00000" pt_clust_9="46.52890"></scales>
<clustering>
<clus scale="   46.529">  2  9  1 -1</clus>
<clus scale="   90.424">  7  8 -1 -1</clus>
<clus scale="   90.675">  2  7  1 -1</clus>
<clus scale="   92.336">  5  6 -1 -1</clus>
<clus scale="   46.529">  2  5  1 -1</clus>
</clustering>
</event>
<event>
 9    1  0.1234700E-005  0.9932455E+02  0.7546771E-02  0.1282177E+00
          2   -1    0    0  502    0  0.00000000000E+00  0.00000000000E+00  0.64278077738E+03  0.64278077738E+03  0.00000000000E+00 0. -1.
         -2   -1    0    0    0  501 -0.00000000000E+00 -0.00000000000E+00 -0.63929456660E+02  0.63929456660E+02  0.00000000000E+00 0.  1.
         23    2    1    2    0    0  0.31595626551E+02  0.17941315997E+02 -0.12413595980E+02  0.98374212646E+02  0.90571595502E+02 0.  0.
         23    2    1    2    0    0 -0.45277219897E+02 -0.41512593290E+02  0.39131777880E+03  0.40653996329E+03  0.91497626782E+02 0.  0.
        -13    1    4    4    0    0  0.28191321303E+02 -0.86541864750E+01  0.11704460820E+03  0.12070246828E+03  0.00000000000E+00 0. -1.
         13    1    4    4    0    0 -0.73468541200E+02 -0.32858406815E+02  0.27427317060E+03  0.28583749501E+03  0.00000000000E+00 0.  1.
        -13    1    3    3    0    0 -0.18012907951E+02 -0.91138327757E+01 -0.32621826520E+02  0.38362877449E+02  0.00000000000E+00 0.  1.
         13    1    3    3    0    0  0.49608534502E+02  0.27055148773E+02  0.20208230539E+02  0.60011335197E+02  0.00000000000E+00 0. -1.
         21    1    1    2  502  501  0.13681593345E+02  0.23571277292E+02  0.19994713790E+03  0.20179605810E+03  0.00000000000E+00 0.  1.
<scales pt_clust_5="13000.00000" pt_clust_6="13000.00000" pt_clust_7="13000.00000" pt_clust_8="13000.00000" pt_clust_9="27.25419"></scales>
<clustering>
<clus scale="   27.254">  1  9  2 -1</clus>
<clus scale="   90.572">  7  8 -1 -1</clus>
<clus scale="   91.498">  5  6 -1 -1</clus>
<clus scale="   98.472">  2  7  1 -1</clus>
<clus scale="   27.254">  1  5  2 -1</clus>
</clustering>
</event>
<event>
 9    1  0.1234700E-005  0.9637683E+02  0.7546771E-02  0.1289489E+00
          1   -1    0    0  502    0  0.00000000000E+00  0.00000000000E+00  0.14860295461E+03  0.14860295461E+03  0.00000000000E+00 0. -1.
         -1   -1    0    0    0  501 -0.00000000000E+00 -0.00000000000E+00 -0.13713190760E+03  0.13713190760E+03  0.00000000000E+00 0.  1.
         23    2    1    2    0    0 -0.11439533881E+02 -0.23075368800E+02 -0.87425633185E+02  0.12973167333E+03  0.92324049665E+02 0.  0.
         23    2    1    2    0    0  0.33356063774E+02  0.23705559336E+02  0.83233835356E+02  0.12905776012E+03  0.89741036122E+02 0.  0.
        -11    1    4    4    0    0  0.13628061365E+02  0.48289195522E+02  0.12634872784E+02  0.51741767181E+02  0.00000000000E+00 0.  1.
         11    1    4    4    0    0  0.19728002409E+02 -0.24583636187E+02  0.70598962572E+02  0.77315992934E+02  0.00000000000E+00 0. -1.
        -13    1    3    3    0    0 -0.31335300915E+02 -0.46981276863E+02 -0.79709221742E+02  0.97686751865E+02  0.00000000000E+00 0.  1.
         13    1    3    3    0    0  0.19895767034E+02  0.23905908063E+02 -0.77164114426E+01  0.32044921465E+02  0.00000000000E+00 0. -1.
         21    1    1    2  502  501 -0.21916529894E+02 -0.63019053555E+00  0.15662844845E+02  0.26945428765E+02  0.00000000000E+00 0.  1.
<scales pt_clust_5="13000.00000" pt_clust_6="13000.00000" pt_clust_7="13000.00000" pt_clust_8="13000.00000" pt_clust_9="21.92559"></scales>
<clustering>
<clus scale="   21.926">  1  9  2 -1</clus>
<clus scale="   89.741">  5  6 -1 -1</clus>
<clus scale="   92.324">  7  8 -1 -1</clus>
<clus scale="   93.905">  1  5  2 -1</clus>
<clus scale="   21.926">  1  5  2 -1</clus>
</clustering>
</event>
<event>
 9    1  0.1234700E-005  0.1555426E+03  0.7546771E-02  0.1194489E+00
          2   -1    0    0  502    0  0.00000000000E+00  0.00000000000E+00  0.89196118255E+02  0.89196118255E+02  0.00000000000E+00 0. -1.
         -2   -1    0    0    0  501 -0.00000000000E+00 -0.00000000000E+00 -0.42392834483E+03  0.42392834483E+03  0.00000000000E+00 0.  1.
         23    2    1    2    0    0  0.11392776327E+03 -0.78492117593E+01 -0.24797014952E+03  0.28718148798E+03  0.89122761517E+02 0.  0.
         23    2    1    2    0    0 -0.12681507469E+03 -0.29427656809E+02 -0.40229087325E+02  0.16494324674E+03  0.92950766674E+02 0.  0.
        -11    1    3    3    0    0  0.68223584042E+02  0.35138054843E+02 -0.96953326689E+02  0.12364905124E+03  0.00000000000E+00 0. -1.
         11    1    3    3    0    0  0.45704179225E+02 -0.42987266602E+02 -0.15101682283E+03  0.16353243674E+03  0.00000000000E+00 0.  1.
        -13    1    4    4    0    0 -0.24144679244E+02 -0.43963123698E+02 -0.34915224907E+02  0.61112966803E+02  0.00000000000E+00 0.  1.
         13    1    4    4    0    0 -0.10267039545E+03  0.14535466889E+02 -0.53138624177E+01  0.10383027994E+03  0.00000000000E+00 0. -1.
         21    1    1    2  502  501  0.12887311425E+02  0.37276868569E+02 -0.46532989730E+02  0.60999728354E+02  0.00000000000E+00 0.  1.
<scales pt_clust_5="13000.00000" pt_clust_6="13000.00000" pt_clust_7="13000.00000" pt_clust_8="13000.00000" pt_clust_9="39.44170"></scales>
<clustering>
<clus scale="   39.442">  2  9  1 -1</clus>
<clus scale="   89.123">  5  6 -1 -1</clus>
<clus scale="   92.951">  7  8 -1 -1</clus>
<clus scale="  153.286">  2  5  1 -1</clus>
<clus scale="  155.543">  1  5  2 -1</clus>
</clustering>
</event>
<event>
 9    1  0.1234700E-005  0.9668864E+02  0.7546771E-02  0.1288510E+00
          1   -1    0    0  502    0  0.00000000000E+00  0.00000000000E+00  0.65654638549E+02  0.65654638549E+02  0.00000000000E+00 0. -1.
         -1   -1    0    0    0  501 -0.00000000000E+00 -0.00000000000E+00 -0.27305715859E+03  0.27305715859E+03  0.00000000000E+00 0.  1.
         23    2    1    2    0    0 -0.87578518958E+01 -0.53806803559E+02 -0.13264917978E+03  0.17147141376E+03  0.93993450624E+02 0.  0.
         23    2    1    2    0    0 -0.86126914408E+01  0.10474673263E+02 -0.19649544922E+02  0.95019627691E+02  0.91971342259E+02 0.  0.
        -11    1    3    3    0    0  0.27303262450E+02 -0.48769846269E+02 -0.31923753500E+02  0.64366855470E+02  0.00000000000E+00 0. -1.
         11    1    3    3    0    0 -0.36061114346E+02 -0.50369572907E+01 -0.10072542628E+03  0.10710455829E+03  0.00000000000E+00 0.  1.
        -11    1    4    4    0    0  0.41878452136E+02  0.51792085271E+01 -0.90024052808E+01  0.43147100193E+02  0.00000000000E+00 0. -1.
         11    1    4    4    0    0 -0.50491143576E+02  0.52954647360E+01 -0.10647139641E+02  0.51872527497E+02  0.00000000000E+00 0.  1.
         21    1    1    2  502  501  0.17370543337E+02  0.43332130296E+02 -0.55103795336E+02  0.72220755689E+02  0.00000000000E+00 0. -1.
<scales pt_clust_5="13000.00000" pt_clust_6="13000.00000" pt_clust_7="13000.00000" pt_clust_8="13000.00000" pt_clust_9="46.68414"></scales>
<clustering>
<clus scale="   46.684">  2  9  1 -1</clus>
<clus scale="   91.971">  7  8 -1 -1</clus>
<clus scale="   93.993">  5  6 -1 -1</clus>
<clus scale="   94.724">  1  7  2 -1</clus>
<clus scale="   94.724">  1  5  2 -1</clus>
</clustering>
</event>
<event>
 9    1  0.1234700E-005  0.1154454E+03  0.7546771E-02  0.1251104E+00
         -2   -1    0    0    0  501 -0.00000000000E+00  0.00000000000E+00  0.21441562584E+02  0.21441562584E+02  0.00000000000E+00 0.  1.
          2   -1    0    0  502    0  0.00000000000E+00 -0.00000000000E+00 -0.99234178441E+03  0.99234178441E+03  0.00000000000E+00 0. -1.
         23    2    1    2    0    0  0.61104157892E+02  0.48907169272E+02 -0.21198452776E+03  0.24332399787E+03  0.90241335399E+02 0.  0.
         23    2    1    2    0    0 -0.44701548413E+02 -0.28029122292E+02 -0.56391218138E+03  0.57365663469E+03  0.91110515839E+02 0.  0.
        -11    1    3    3    0    0 -0.23661554144E+02  0.15491515572E+02 -0.53472519132E+02  0.60491044805E+02  0.00000000000E+00 0. -1.
         11    1    3    3    0    0  0.84765712037E+02  0.33415653701E+02 -0.15851200862E+03  0.18283295307E+03  0.00000000000E+00 0.  1.
        -13    1    4    4    0    0 -0.26877998263E+02  0.32018075943E+02 -0.19107376622E+03  0.19559337441E+03  0.00000000000E+00 0.  1.
         13    1    4    4    0    0 -0.17823550150E+02 -0.60047198235E+02 -0.37283841516E+03  0.37806326028E+03  0.00000000000E+00 0. -1.
         21    1    1    2  502  501 -0.16402609479E+02 -0.20878046980E+02 -0.19500351269E+03  0.19680271443E+03  0.00000000000E+00 0.  1.
<scales pt_clust_5="13000.00000" pt_clust_6="13000.00000" pt_clust_7="13000.00000" pt_clust_8="13000.00000" pt_clust_9="26.55068"></scales>
<clustering>
<clus scale="   26.551">  2  9  1 -1</clus>
<clus scale="   90.241">  5  6 -1 -1</clus>
<clus scale="   91.111">  7  8 -1 -1</clus>
<clus scale="  114.761">  1  5  2 -1</clus>
<clus scale="   26.551">  2  5  1 -1</clus>
</clustering>
</event>
<event>
 9    1  0.1234700E-005  0.1167227E+03  0.7546771E-02  0.1251284E+00
          1   -1    0    0  502    0  0.00000000000E+00  0.00000000000E+00  0.92355751461E+02  0.92355751461E+02  0.00000000000E+00 0. -1.
         -1   -1    0    0    0  501 -0.00000000000E+00 -0.00000000000E+00 -0.23904757128E+03  0.23904757128E+03  0.00000000000E+00 0.  1.
         23    2    1    2    0    0 -0.22423038753E+02 -0.83907260949E+02 -0.14137239006E+03  0.18924029591E+03  0.91008328285E+02 0.  0.
         23    2    1    2    0    0  0.12680636339E+02  0.49919643380E+02 -0.26094459478E+02  0.10115480312E+03  0.83057835541E+02 0.  0.
        -11    1    4    4    0    0 -0.32238702412E+02  0.89605134481E+01  0.33151973664E+01  0.33624622942E+02  0.00000000000E+00 0.  1.
         11    1    4    4    0    0  0.44919338750E+02  0.40959129932E+02 -0.29409656844E+02  0.67530180173E+02  0.00000000000E+00 0. -1.
        -11    1    3    3    0    0 -0.35008914192E+02  0.39160190963E+01 -0.26428245601E+02  0.44038749346E+02  0.00000000000E+00 0. -1.
         11    1    3    3    0    0  0.12585875439E+02 -0.87823280046E+02 -0.11494414446E+03  0.14520154656E+03  0.00000000000E+00 0.  1.
         21    1    1    2  502  501  0.97424024143E+01  0.33987617570E+02  0.20775029717E+02  0.41008223719E+02  0.00000000000E+00 0. -1.
<scales pt_clust_5="13000.00000" pt_clust_6="13000.00000" pt_clust_7="13000.00000" pt_clust_8="13000.00000" pt_clust_9="35.35637"></scales>
<clustering>
<clus scale="   35.356">  1  9  2 -1</clus>
<clus scale="   83.058">  5  6 -1 -1</clus>
<clus scale="   91.008">  7  8 -1 -1</clus>
<clus scale="  110.636">  1  5  2 -1</clus>
<clus scale="   35.356">  1  5  2 -1</clus>
</clustering>
</event>
<event>
 9    1  0.1234700E-005  0.9052741E+02  0.7546771E-02  0.1320286E+00
         -3   -1    0    0    0  501 -0.00000000000E+00  0.00000000000E+00  0.50448876887E+02  0.50448876887E+02  0.00000000000E+00 0.  1.
          3   -1    0    0  502    0  0.00000000000E+00 -0.00000000000E+00 -0.50728005384E+03  0.50728005384E+03  0.00000000000E+00 0. -1.
         23    2    1    2    0    0  0.33667038824E+01  0.12759090950E+02 -0.89992389880E+01  0.66435903543E+02  0.64487315655E+02 0.  0.
         23    2    1    2    0    0  0.18909388052E+02  0.49111892392E+02 -0.13097214102E+03  0.16768157224E+03  0.90519970251E+02 0.  0.
        -11    1    4    4    0    0  0.19840213640E+02 -0.22343361596E+02 -0.59664328948E+02  0.66728494914E+02  0.00000000000E+00 0.  1.
         11    1    4    4    0    0 -0.93082558854E+00  0.71455253988E+02 -0.71307812070E+02  0.10095307732E+03  0.00000000000E+00 0. -1.
        -13    1    3    3    0    0  0.21533192856E+02  0.21837410921E+02  0.15704927430E+02  0.34455705709E+02  0.00000000000E+00 0. -1.
         13    1    3    3    0    0 -0.18166488974E+02 -0.90783199705E+01 -0.24704166418E+02  0.31980197834E+02  0.00000000000E+00 0.  1.
         21    1    1    2  502  501 -0.22276091934E+02 -0.61870983343E+02 -0.31685979694E+03  0.32361145494E+03  0.00000000000E+00 0.  1.
<scales pt_clust_5="13000.00000" pt_clust_6="13000.00000" pt_clust_7="13000.00000" pt_clust_8="13000.00000" pt_clust_9="65.75898"></scales>
<clustering>
<clus scale="   64.487">  7  8 -1 -1</clus>
<clus scale="   65.759">  2  9  1 -1</clus>
<clus scale="   64.498">  1  7  2 -1</clus>
<clus scale="   90.520">  5  6 -1 -1</clus>
<clus scale="   65.759">  2  5  1 -1</clus>
</clustering>
</event>
<event>
 9    1  0.1234700E-005  0.1439404E+03  0.7546771E-02  0.1208151E+00
          1   -1    0    0  502    0  0.00000000000E+00  0.00000000000E+00  0.65300361643E+03  0.65300361643E+03  0.00000000000E+00 0. -1.
         -1   -1    0    0    0  501 -0.00000000000E+00 -0.00000000000E+00 -0.42535464270E+02  0.42535464270E+02  0.00000000000E+00 0.  1.
         23    2    1    2    0    0 -0.77072659923E+01 -0.10364535018E+03  0.22300569863E+03  0.26269612422E+03  0.92064930856E+02 0.  0.
         23    2    1    2    0    0 -0.20090734425E+02  0.11825146480E+03  0.25244108175E+03  0.29421814540E+03  0.91928074004E+02 0.  0.
        -13    1    3    3    0    0 -0.36295219233E+02 -0.21926787952E+02  0.32450896873E+02  0.53396513715E+02  0.00000000000E+00 0.  1.
         13    1    3    3    0    0  0.28587953241E+02 -0.81718562226E+02  0.19055480176E+03  0.20929961050E+03  0.00000000000E+00 0. -1.
        -13    1    4    4    0    0  0.19385938846E+02  0.41531764517E+02  0.16550716420E+03  0.17173620320E+03  0.00000000000E+00 0. -1.
         13    1    4    4    0    0 -0.39476673271E+02  0.76719700280E+02  0.86933917552E+02  0.12248194220E+03  0.00000000000E+00 0.  1.
         21    1    1    2  502  501  0.27798000417E+02 -0.14606114619E+02  0.13502137177E+03  0.13862481108E+03  0.00000000000E+00 0.  1.
<scales pt_clust_5="13000.00000" pt_clust_6="13000.00000" pt_clust_7="13000.00000" pt_clust_8="13000.00000" pt_clust_9="31.40171"></scales>
<clustering>
<clus scale="   31.402">  1  9  2 -1</clus>
<clus scale="   91.928">  7  8 -1 -1</clus>
<clus scale="   92.065">  5  6 -1 -1</clus>
<clus scale="  143.853">  1  7  2 -1</clus>
<clus scale="   31.402">  1  5  2 -1</clus>
</clustering>
</event>
<event>
 9    1  0.1234700E-005  0.1884668E+03  0.7546771E-02  0.1159961E+00
         -2   -1    0    0    0  501 -0.00000000000E+00  0.00000000000E+00  0.65426801956E+02  0.65426801956E+02  0.00000000000E+00 0.  1.
          2   -1    0    0  502    0  0.00000000000E+00 -0.00000000000E+00 -0.83833467458E+03  0.83833467458E+03  0.00000000000E+00 0. -1.
         23    2    1    2    0    0 -0.18075227751E+02 -0.15266839009E+03 -0.14322544330E+03  0.22831482557E+03  0.89329618688E+02 0.  0.
         23    2    1    2    0    0 -0.23935706081E+02  0.16966611060E+03 -0.55775379585E+03  0.59043153833E+03  0.90336025771E+02 0.  0.
        -13    1    4    4    0    0  0.14732713833E+02  0.74203423045E+02 -0.12960977831E+03  0.15007296719E+03  0.00000000000E+00 0.  1.
         13    1    4    4    0    0 -0.38668419914E+02  0.95462687553E+02 -0.42814401755E+03  0.44035857114E+03  0.00000000000E+00 0. -1.
        -13    1    3    3    0    0 -0.18069679633E+02 -0.12593427138E+03 -0.15376900167E+03  0.19957670181E+03  0.00000000000E+00 0. -1.
         13    1    3    3    0    0 -0.55481172471E-02 -0.26734118714E+02  0.10543558372E+02  0.28738123762E+02  0.00000000000E+00 0.  1.
         21    1    1    2  502  501  0.42010933831E+02 -0.16997720504E+02 -0.71928633481E+02  0.85015112645E+02  0.00000000000E+00 0. -1.
<scales pt_clust_5="13000.00000" pt_clust_6="13000.00000" pt_clust_7="13000.00000" pt_clust_8="13000.00000" pt_clust_9="45.31932"></scales>
<clustering>
<clus scale="   45.319">  1  9  2 -1</clus>
<clus scale="   89.330">  7  8 -1 -1</clus>
<clus scale="   90.336">  5  6 -1 -1</clus>
<clus scale="  187.986">  1  7  2 -1</clus>
<clus scale="  188.467">  2  5  1 -1</clus>
</clustering>
</event>
<event>
 9    1  0.1234700E-005  0.1212509E+03  0.7546771E-02  0.1241625E+00
         -1   -1    0    0    0  501 -0.00000000000E+00  0.00000000000E+00  0.13706565884E+03  0.13706565884E+03  0.00000000000E+00 0.  1.
          1   -1    0    0  502    0  0.00000000000E+00 -0.00000000000E+00 -0.19691926322E+03  0.19691926322E+03  0.00000000000E+00 0. -1.
         23    2    1    2    0    0  0.69584743725E+02 -0.21997221570E+02  0.56937240748E+02  0.13021581779E+03  0.91588184291E+02 0.  0.
         23    2    1    2    0    0 -0.99846969808E+02  0.25030887562E+02 -0.96733477320E+02  0.16733692811E+03  0.89712424800E+02 0.  0.
        -11    1    4    4    0    0 -0.51670186853E+02  0.28673634879E+02 -0.10286964446E+03  0.11863451984E+03  0.00000000000E+00 0. -1.
         11    1    4    4    0    0 -0.48176782954E+02 -0.36427473171E+01  0.61361671430E+01  0.48702408268E+02  0.00000000000E+00 0.  1.
        -11    1    3    3    0    0  0.42367285768E+02  0.33890236309E+02  0.19510769279E+02  0.57655920236E+02  0.00000000000E+00 0.  1.
         11    1    3    3    0    0  0.27217457957E+02 -0.55887457879E+02  0.37426471470E+02  0.72559897550E+02  0.00000000000E+00 0. -1.
         21    1    1    2  502  501  0.30262226083E+02 -0.30336659913E+01 -0.20057367807E+02  0.36432176166E+02  0.00000000000E+00 0. -1.
<scales pt_clust_5="13000.00000" pt_clust_6="13000.00000" pt_clust_7="13000.00000" pt_clust_8="13000.00000" pt_clust_9="30.41390"></scales>
<clustering>
<clus scale="   30.414">  2  9  1 -1</clus>
<clus scale="   89.712">  5  6 -1 -1</clus>
<clus scale="   91.588">  7  8 -1 -1</clus>
<clus scale="  119.840">  2  5  1 -1</clus>
<clus scale="   30.414">  2  5  1 -1</clus>
</clustering>
</event>
<event>
 9    1  0.1234700E-005  0.9651641E+02  0.7546771E-02  0.1288502E+00
          3   -1    0    0  502    0  0.00000000000E+00  0.00000000000E+00  0.12457951520E+03  0.12457951520E+03  0.00000000000E+00 0. -1.
         -3   -1    0    0    0  501 -0.00000000000E+00 -0.00000000000E+00 -0.26518474637E+03  0.26518474637E+03  0.00000000000E+00 0.  1.
         23    2    1    2    0    0 -0.12342103681E+02 -0.19961163549E+02 -0.15243494711E+03  0.17906406244E+03  0.90976644163E+02 0.  0.
         23    2    1    2    0    0  0.51356084558E+02  0.23300186990E+02 -0.65152898769E+02  0.12433143888E+03  0.89627341480E+02 0.  0.
        -11    1    4    4    0    0  0.41523457947E+02  0.56717587479E+02 -0.50441514939E+02  0.86518372146E+02  0.00000000000E+00 0. -1.
         11    1    4    4    0    0  0.98326266104E+01 -0.33417400490E+02 -0.14711383830E+02  0.37813066733E+02  0.00000000000E+00 0.  1.
        -11    1    3    3    0    0  0.33039737032E+02 -0.32222439453E+02 -0.87148613732E+02  0.98614353432E+02  0.00000000000E+00 0.  1.
         11    1    3    3    0    0 -0.45381840713E+02  0.12261275904E+02 -0.65286333374E+02  0.80449709003E+02  0.00000000000E+00 0. -1.
         21    1    1    2  502  501 -0.39013980877E+02 -0.33390234405E+01  0.76982614703E+02  0.86368760255E+02  0.00000000000E+00 0. -1.
<scales pt_clust_5="13000.00000" pt_clust_6="13000.00000" pt_clust_7="13000.00000" pt_clust_8="13000.00000" pt_clust_9="39.15661"></scales>
<clustering>
<clus scale="   39.157">  1  9  2 -1</clus>
<clus scale="   89.627">  5  6 -1 -1</clus>
<clus scale="   90.977">  7  8 -1 -1</clus>
<clus scale="   95.246">  1  5  2 -1</clus>
<clus scale="   39.157">  1  5  2 -1</clus>
</clustering>
</event>
<event>
 9    1  0.1310765E-005  0.1314171E+03  0.7546771E-02  0.1226161E+00
         -1   -1    0    0    0  501 -0.00000000000E+00  0.00000000000E+00  0.22593566369E+03  0.22593566369E+03  0.00000000000E+00 0.  1.
          1   -1    0    0  502    0  0.00000000000E+00 -0.00000000000E+00 -0.56441500946E+03  0.56441500946E+03  0.00000000000E+00 0. -1.
         23    2    1    2    0    0 -0.43658917976E+02 -0.82511029841E+02  0.18937057153E+03  0.23024311890E+03  0.91850472370E+02 0.  0.
         23    2    1    2    0    0  0.62758443376E+02  0.35219774421E+02 -0.24153840356E+03  0.26928881757E+03  0.94850472579E+02 0.  0.
        -13    1    4    4    0    0 -0.22798832180E+02  0.13945317989E+02 -0.90903867408E+02  0.94751104228E+02  0.00000000000E+00 0. -1.
         13    1    4    4    0    0  0.85557275556E+02  0.21274456432E+02 -0.15063453615E+03  0.17453771334E+03  0.00000000000E+00 0.  1.
        -13    1    3    3    0    0 -0.48665227269E+02 -0.25221968332E+02  0.15219851165E+03  0.16176785521E+03  0.00000000000E+00 0. -1.
         13    1    3    3    0    0  0.50063092929E+01 -0.57289061509E+02  0.37172059881E+02  0.68475263688E+02  0.00000000000E+00 0.  1.
         21    1    1    2  502  501 -0.19099525400E+02  0.47291255421E+02 -0.28631151373E+03  0.29081873668E+03  0.00000000000E+00 0. -1.
<scales pt_clust_5="13000.00000" pt_clust_6="13000.00000" pt_clust_7="13000.00000" pt_clust_8="13000.00000" pt_clust_9="51.00250"></scales>
<clustering>
<clus scale="   51.002">  2  9  1 -1</clus>
<clus scale="   91.850">  7  8 -1 -1</clus>
<clus scale="   94.850">  5  6 -1 -1</clus>
<clus scale="  129.269">  1  7  2 -1</clus>
<clus scale="   51.002">  2  5  1 -1</clus>
</clustering>
</event>
<event>
 9    1  0.1234700E-005  0.1123570E+03  0.7546771E-02  0.1256309E+00
          1   -1    0    0  502    0  0.00000000000E+00  0.00000000000E+00  0.52053027210E+03  0.52053027210E+03  0.00000000000E+00 0. -1.
         -1   -1    0    0    0  501 -0.00000000000E+00 -0.00000000000E+00 -0.36215977545E+02  0.36215977545E+02  0.00000000000E+00 0.  1.
         23    2    1    2    0    0  0.66501372634E+02 -0.92295574280E+01  0.12637138259E+03  0.16922979901E+03  0.90340363319E+02 0.  0.
         23    2    1    2    0    0 -0.58195907950E+02  0.39689517838E+02  0.24969377496E+03  0.27475712466E+03  0.90457032708E+02 0.  0.
        -13    1    3    3    0    0 -0.33793683009E+01  0.30301447251E+02  0.22230147970E+02  0.37732973834E+02  0.00000000000E+00 0.  1.
         13    1    3    3    0    0  0.69880740935E+02 -0.39531004679E+02  0.10414123462E+03  0.13149682518E+03  0.00000000000E+00 0. -1.
        -13    1    4    4    0    0 -0.78836702861E+02  0.24660651095E+02  0.14387625899E+03  0.16590283702E+03  0.00000000000E+00 0.  1.
         13    1    4    4    0    0  0.20640794911E+02  0.15028866743E+02  0.10581751598E+03  0.10885428764E+03  0.00000000000E+00 0. -1.
         21    1    1    2  502  501 -0.83054646840E+01 -0.30459960410E+02  0.10824913700E+03  0.11275932597E+03  0.00000000000E+00 0. -1.
<scales pt_clust_5="13000.00000" pt_clust_6="13000.00000" pt_clust_7="13000.00000" pt_clust_8="13000.00000" pt_clust_9="31.57198"></scales>
<clustering>
<clus scale="   31.572">  1  9  2 -1</clus>
<clus scale="   90.340">  5  6 -1 -1</clus>
<clus scale="   90.457">  7  8 -1 -1</clus>
<clus scale="  112.263">  2  5  1 -1</clus>
<clus scale="   31.572">  1  5  2 -1</clus>
</clustering>
</event>
<event>
 9    1  0.1234700E-005  0.1039683E+03  0.7546771E-02  0.1272515E+00
          1   -1    0    0  502    0  0.00000000000E+00  0.00000000000E+00  0.74440649283E+03  0.74440649283E+03  0.00000000000E+00 0. -1.
         -1   -1    0    0    0  501 -0.00000000000E+00 -0.00000000000E+00 -0.19383265967E+02  0.19383265967E+02  0.00000000000E+00 0.  1.
         23    2    1    2    0    0  0.10247815748E+02 -0.44977915165E+02  0.25302102075E+03  0.27277697282E+03  0.90882393141E+02 0.  0.
         23    2    1    2    0    0  0.13736189184E+02  0.54472456515E+02  0.34299467888E+03  0.35945169412E+03  0.91674637980E+02 0.  0.
        -11    1    4    4    0    0 -0.33220977925E+02  0.46611312656E+02  0.14683574236E+03  0.15759753512E+03  0.00000000000E+00 0. -1.
         11    1    4    4    0    0  0.46957167109E+02  0.78611438586E+01  0.19615893653E+03  0.20185415900E+03  0.00000000000E+00 0.  1.
        -13    1    3    3    0    0  0.28661906524E+02  0.11477260610E+02  0.34348531256E+02  0.46184997523E+02  0.00000000000E+00 0. -1.
         13    1    3    3    0    0 -0.18414090776E+02 -0.56455175775E+02  0.21867248949E+03  0.22659197530E+03  0.00000000000E+00 0.  1.
         21    1    1    2  502  501 -0.23984004932E+02 -0.94945413495E+01  0.12900752724E+03  0.13156109186E+03  0.00000000000E+00 0.  1.
<scales pt_clust_5="13000.00000" pt_clust_6="13000.00000" pt_clust_7="13000.00000" pt_clust_8="13000.00000" pt_clust_9="25.79494"></scales>
<clustering>
<clus scale="   25.795">  1  9  2 -1</clus>
<clus scale="   90.882">  7  8 -1 -1</clus>
<clus scale="   91.675">  5  6 -1 -1</clus>
<clus scale="  103.270">  2  7  1 -1</clus>
<clus scale="   25.795">  1  5  2 -1</clus>
</clustering>
</event>
<event>
 9    1  0.1234700E-005  0.1070640E+03  0.7546771E-02  0.1270529E+00
          2   -1    0    0  502    0  0.00000000000E+00  0.00000000000E+00  0.66855134212E+03  0.66855134212E+03  0.00000000000E+00 0. -1.
         -2   -1    0    0    0  501 -0.00000000000E+00 -0.00000000000E+00 -0.20221141718E+02  0.20221141718E+02  0.00000000000E+00 0.  1.
         23    2    1    2    0    0  0.12138673008E+01  0.40525825587E+02  0.26567357557E+03  0.28721686717E+03  0.10132750869E+03 0.  0.
         23    2    1    2    0    0 -0.17275457862E+02 -0.26025073506E+02  0.27255252678E+03  0.28934528332E+03  0.91978623768E+02 0.  0.
        -11    1    4    4    0    0 -0.26064392815E+02 -0.51633656949E+02  0.24064703473E+03  0.24750026753E+03  0.00000000000E+00 0.  1.
         11    1    4    4    0    0  0.87889349537E+01  0.25608583443E+02  0.31905492049E+02  0.41845015790E+02  0.00000000000E+00 0. -1.
        -11    1    3    3    0    0 -0.74777766333E+01  0.71585735103E+02  0.13934238868E+03  0.15683346549E+03  0.00000000000E+00 0.  1.
         11    1    3    3    0    0  0.86916439341E+01 -0.31059909517E+02  0.12633118688E+03  0.13038340168E+03  0.00000000000E+00 0. -1.
         21    1    1    2  502  501  0.16061590561E+02 -0.14500752081E+02  0.11010409805E+03  0.11221033335E+03  0.00000000000E+00 0. -1.
<scales pt_clust_5="13000.00000" pt_clust_6="13000.00000" pt_clust_7="13000.00000" pt_clust_8="13000.00000" pt_clust_9="21.63900"></scales>
<clustering>
<clus scale="   21.639">  1  9  2 -1</clus>
<clus scale="   91.979">  5  6 -1 -1</clus>
<clus scale="   98.262">  1  5  2 -1</clus>
<clus scale="  101.328">  7  8 -1 -1</clus>
<clus scale="   21.639">  1  5  2 -1</clus>
</clustering>
</event>
<event>
 9    1  0.1234700E-005  0.1104134E+03  0.7546771E-02  0.1260416E+00
          1   -1    0    0  502    0  0.00000000000E+00  0.00000000000E+00  0.35449500360E+03  0.35449500360E+03  0.00000000000E+00 0. -1.
         -1   -1    0    0    0  501 -0.00000000000E+00 -0.00000000000E+00 -0.91330699046E+02  0.91330699046E+02  0.00000000000E+00 0.  1.
         23    2    1    2    0    0 -0.34434705968E+02  0.56755677950E+02 -0.32573543595E+02  0.11780605548E+03  0.91707551549E+02 0.  0.
         23    2    1    2    0    0  0.92348351102E+01 -0.27675318483E+02  0.16532820240E+03  0.19205135489E+03  0.93268981854E+02 0.  0.
        -11    1    3    3    0    0 -0.13296552607E+02  0.74594679596E+02 -0.92766964516E+00  0.75776151302E+02  0.00000000000E+00 0.  1.
         11    1    3    3    0    0 -0.21138153361E+02 -0.17839001646E+02 -0.31645873950E+02  0.42029904179E+02  0.00000000000E+00 0. -1.
        -13    1    4    4    0    0 -0.31579432282E+02 -0.17133335038E+02  0.13608385996E+03  0.14074668257E+03  0.00000000000E+00 0. -1.
         13    1    4    4    0    0  0.40814267392E+02 -0.10541983445E+02  0.29244342437E+02  0.51304672324E+02  0.00000000000E+00 0.  1.
         21    1    1    2  502  501  0.25199870857E+02 -0.29080359467E+02  0.13040964575E+03  0.13596829227E+03  0.00000000000E+00 0.  1.
<scales pt_clust_5="13000.00000" pt_clust_6="13000.00000" pt_clust_7="13000.00000" pt_clust_8="13000.00000" pt_clust_9="38.47988"></scales>
<clustering>
<clus scale="   38.480">  1  9  2 -1</clus>
<clus scale="   91.708">  5  6 -1 -1</clus>
<clus scale="   93.269">  7  8 -1 -1</clus>
<clus scale="  109.098">  2  5  1 -1</clus>
<clus scale="   38.480">  1  5  2 -1</clus>
</clustering>
</event>
<event>
 9    1  0.1234700E-005  0.1720912E+03  0.7546771E-02  0.1176270E+00
         -2   -1    0    0    0  501 -0.00000000000E+00  0.00000000000E+00  0.11587651734E+03  0.11587651734E+03  0.00000000000E+00 0.  1.
          2   -1    0    0  502    0  0.00000000000E+00 -0.00000000000E+00 -0.40705013157E+03  0.40705013157E+03  0.00000000000E+00 0. -1.
         23    2    1    2    0    0  0.40522411842E+02 -0.14503870928E+03 -0.44617314156E+02  0.17988310126E+03  0.87686557382E+02 0.  0.
         23    2    1    2    0    0  0.25177745772E+02  0.14259246491E+03 -0.19317817596E+03  0.25835754551E+03  0.92001541991E+02 0.  0.
        -11    1    3    3    0    0  0.28186866859E+02 -0.37578242984E+02  0.23018646283E+02  0.52311393460E+02  0.00000000000E+00 0. -1.
         11    1    3    3    0    0  0.12335544984E+02 -0.10746046630E+03 -0.67635960438E+02  0.12757170780E+03  0.00000000000E+00 0.  1.
        -13    1    4    4    0    0 -0.23791883241E+02  0.36205307248E+01 -0.23593791569E+02  0.33702061532E+02  0.00000000000E+00 0.  1.
         13    1    4    4    0    0  0.48969629014E+02  0.13897193418E+03 -0.16958438439E+03  0.22465548398E+03  0.00000000000E+00 0. -1.
         21    1    1    2  502  501 -0.65700157614E+02  0.24462443752E+01 -0.53378124119E+02  0.84686002129E+02  0.00000000000E+00 0.  1.
<scales pt_clust_5="13000.00000" pt_clust_6="13000.00000" pt_clust_7="13000.00000" pt_clust_8="13000.00000" pt_clust_9="65.74568"></scales>
<clustering>
<clus scale="   65.746">  2  9  1 -1</clus>
<clus scale="   87.687">  5  6 -1 -1</clus>
<clus scale="   92.002">  7  8 -1 -1</clus>
<clus scale="  169.824">  1  5  2 -1</clus>
<clus scale="   65.746">  2  5  1 -1</clus>
</clustering>
</event>
<event>
 9    1  0.1234700E-005  0.1316192E+03  0.7546771E-02  0.1225397E+00
         -1   -1    0    0    0  501 -0.00000000000E+00  0.00000000000E+00  0.41642951788E+02  0.41642951788E+02  0.00000000000E+00 0.  1.
          1   -1    0    0  502    0  0.00000000000E+00 -0.00000000000E+00 -0.71871917889E+03  0.71871917889E+03  0.00000000000E+00 0. -1.
         23    2    1    2    0    0 -0.90711960098E+02  0.37326163256E+02 -0.10872987313E+03  0.17367866213E+03  0.93381958650E+02 0.  0.
         23    2    1    2    0    0  0.71003802230E+02 -0.28760153523E+02 -0.41886965781E+03  0.43566998999E+03  0.92129602106E+02 0.  0.
        -11    1    4    4    0    0  0.31677391888E+02 -0.56655492133E+02 -0.16589713004E+03  0.17814364906E+03  0.00000000000E+00 0.  1.
         11    1    4    4    0    0  0.39326410342E+02  0.27895338610E+02 -0.25297252777E+03  0.25752634093E+03  0.00000000000E+00 0. -1.
        -11    1    3    3    0    0  0.14510908456E+01 -0.24076528959E+02 -0.13629290008E+02  0.27704556619E+02  0.00000000000E+00 0.  1.
         11    1    3    3    0    0 -0.92163050943E+02  0.61402692215E+02 -0.95100583121E+02  0.14597410551E+03  0.00000000000E+00 0. -1.
         21    1    1    2  502  501  0.19708157868E+02 -0.85660097333E+01 -0.14947669617E+03  0.15101347856E+03  0.00000000000E+00 0.  1.
<scales pt_clust_5="13000.00000" pt_clust_6="13000.00000" pt_clust_7="13000.00000" pt_clust_8="13000.00000" pt_clust_9="21.48925"></scales>
<clustering>
<clus scale="   21.489">  2  9  1 -1</clus>
<clus scale="   92.130">  5  6 -1 -1</clus>
<clus scale="   93.382">  7  8 -1 -1</clus>
<clus scale="  130.734">  2  5  1 -1</clus>
<clus scale="   21.489">  2  5  1 -1</clus>
</clustering>
</event>
<event>
 9    1  0.1234700E-005  0.9069949E+02  0.7546771E-02  0.1301776E+00
          1   -1    0    0  502    0  0.00000000000E+00  0.00000000000E+00  0.36936269309E+03  0.36936269309E+03  0.00000000000E+00 0. -1.
         -1   -1    0    0    0  501 -0.00000000000E+00 -0.00000000000E+00 -0.43971695731E+02  0.43971695731E+02  0.00000000000E+00 0.  1.
         23    2    1    2    0    0 -0.37888119450E+01  0.38766757370E+01  0.27238588557E+02  0.93666843658E+02  0.89454754952E+02 0.  0.
         23    2    1    2    0    0  0.16364791333E+02  0.11892876119E+02  0.21556869171E+03  0.23465634383E+03  0.90468182014E+02 0.  0.
        -11    1    3    3    0    0  0.62431320548E-02  0.24254966874E+02 -0.26586586882E+02  0.35988193329E+02  0.00000000000E+00 0.  1.
         11    1    3    3    0    0 -0.37950550770E+01 -0.20378291137E+02  0.53825175439E+02  0.57678650329E+02  0.00000000000E+00 0. -1.
        -13    1    4    4    0    0  0.42694428149E+02 -0.20057137534E+02  0.14875831406E+03  0.15605812688E+03  0.00000000000E+00 0. -1.
         13    1    4    4    0    0 -0.26329636815E+02  0.31950013653E+02  0.66810377646E+02  0.78598216955E+02  0.00000000000E+00 0.  1.
         21    1    1    2  502  501 -0.12575979388E+02 -0.15769551856E+02  0.82583717089E+02  0.85011201330E+02  0.00000000000E+00 0. -1.
<scales pt_clust_5="13000.00000" pt_clust_6="13000.00000" pt_clust_7="13000.00000" pt_clust_8="13000.00000" pt_clust_9="20.17013"></scales>
<clustering>
<clus scale="   20.170">  1  9  2 -1</clus>
<clus scale="   89.455">  5  6 -1 -1</clus>
<clus scale="   89.689">  2  5  1 -1</clus>
<clus scale="   90.468">  7  8 -1 -1</clus>
<clus scale="   20.170">  1  5  2 -1</clus>
</clustering>
</event>
<event>
 9    1  0.1234700E-005  0.9895062E+02  0.7546771E-02  0.1284682E+00
         -1   -1    0    0    0  501 -0.00000000000E+00  0.00000000000E+00  0.75439603395E+02  0.75439603395E+02  0.00000000000E+00 0.  1.
          1   -1    0    0  502    0  0.00000000000E+00 -0.00000000000E+00 -0.37642271988E+03  0.37642271988E+03  0.00000000000E+00 0. -1.
         23    2    1    2    0    0 -0.41580402841E+02 -0.22016278469E+02  0.71805462055E+00  0.10121828324E+03  0.89615728757E+02 0.  0.
         23    2    1    2    0    0 -0.11100656564E+02  0.57984147981E+02 -0.12276965196E+03  0.16068228020E+03  0.85211629104E+02 0.  0.
        -11    1    3    3    0    0  0.21490147241E+02 -0.28960242597E+01  0.23036341569E+02  0.31636788994E+02  0.00000000000E+00 0. -1.
         11    1    3    3    0    0 -0.63070550082E+02 -0.19120254209E+02 -0.22318286949E+02  0.69581494242E+02  0.00000000000E+00 0.  1.
        -13    1    4    4    0    0 -0.21410298494E+02 -0.16717241319E+02 -0.22824218842E+02  0.35479740764E+02  0.00000000000E+00 0.  1.
         13    1    4    4    0    0  0.10309641929E+02  0.74701389301E+02 -0.99945433121E+02  0.12520253944E+03  0.00000000000E+00 0. -1.
         21    1    1    2  502  501  0.52681059405E+02 -0.35967869513E+02 -0.17893151914E+03  0.18996175983E+03  0.00000000000E+00 0. -1.
<scales pt_clust_5="13000.00000" pt_clust_6="13000.00000" pt_clust_7="13000.00000" pt_clust_8="13000.00000" pt_clust_9="63.78857"></scales>
<clustering>
<clus scale="   63.789">  2  9  1 -1</clus>
<clus scale="   85.212">  7  8 -1 -1</clus>
<clus scale="   89.616">  5  6 -1 -1</clus>
<clus scale="   94.980">  2  7  1 -1</clus>
<clus scale="   63.789">  2  5  1 -1</clus>
</clustering>
</event>
<event>
 9    1  0.1234700E-005  0.1176254E+03  0.7546771E-02  0.1248624E+00
         -2   -1    0    0    0  501 -0.00000000000E+00  0.00000000000E+00  0.66328133180E+02  0.66328133180E+02  0.00000000000E+00 0.  1.
          2   -1    0    0  502    0  0.00000000000E+00 -0.00000000000E+00 -0.31108859594E+03  0.31108859594E+03  0.00000000000E+00 0. -1.
         23    2    1    2    0    0 -0.69103337490E+02 -0.44114730802E+02 -0.46694686749E+02  0.13146255731E+03  0.91545778039E+02 0.  0.
         23    2    1    2    0    0  0.62571471968E+02  0.13197995706E+02 -0.11792487522E+03  0.15980851751E+03  0.86851078736E+02 0.  0.
        -11    1    4    4    0    0  0.56119398972E+02  0.45147322900E+02 -0.61795985357E+02  0.94902115425E+02  0.00000000000E+00 0.  1.
         11    1    4    4    0    0  0.64520729956E+01 -0.31949327193E+02 -0.56128889863E+02  0.64906402082E+02  0.00000000000E+00 0. -1.
        -11    1    3    3    0    0 -0.38563418962E+02 -0.30851286516E+02 -0.73614612655E+02  0.88645644890E+02  0.00000000000E+00 0. -1.
         11    1    3    3    0    0 -0.30539918528E+02 -0.13263444286E+02  0.26919925906E+02  0.42816912415E+02  0.00000000000E+00 0.  1.
         21    1    1    2  502  501  0.65318655223E+01  0.30916735096E+02 -0.80140900796E+02  0.86145654311E+02  0.00000000000E+00 0. -1.
<scales pt_clust_5="13000.00000" pt_clust_6="13000.00000" pt_clust_7="13000.00000" pt_clust_8="13000.00000" pt_clust_9="31.59921"></scales>
<clustering>
<clus scale="   31.599">  2  9  1 -1</clus>
<clus scale="   86.851">  5  6 -1 -1</clus>
<clus scale="   91.546">  7  8 -1 -1</clus>
<clus scale="  114.010">  2  5  1 -1</clus>
<clus scale="   31.599">  2  5  1 -1</clus>
</clustering>
</event>
<event>
 9    1  0.1234700E-005  0.2107840E+03  0.7546771E-02  0.1140984E+00
          3   -1    0    0  502    0  0.00000000000E+00  0.00000000000E+00  0.24503907797E+03  0.24503907797E+03  0.00000000000E+00 0. -1.
         -3   -1    0    0    0  501 -0.00000000000E+00 -0.00000000000E+00 -0.37093759226E+03  0.37093759226E+03  0.00000000000E+00 0.  1.
         23    2    1    2    0    0 -0.12041882054E+03 -0.15811943349E+03 -0.25728180062E+03  0.33726100183E+03  0.89714050428E+02 0.  0.
         23    2    1    2    0    0  0.10111618538E+03  0.12993311267E+03  0.55898002631E+02  0.19585983904E+03  0.90163147331E+02 0.  0.
        -11    1    3    3    0    0 -0.71828649071E+02 -0.12600393948E+03 -0.23235395865E+03  0.27390638856E+03  0.00000000000E+00 0.  1.
         11    1    3    3    0    0 -0.48590171464E+02 -0.32115494009E+02 -0.24927841963E+02  0.63354613275E+02  0.00000000000E+00 0. -1.
        -13    1    4    4    0    0  0.46800082438E+02  0.14427498116E+02 -0.13194870493E+02  0.50719868153E+02  0.00000000000E+00 0.  1.
         13    1    4    4    0    0  0.54316102942E+02  0.11550561456E+03  0.69092873124E+02  0.14513997089E+03  0.00000000000E+00 0. -1.
         21    1    1    2  502  501  0.19302635156E+02  0.28186320812E+02  0.75485283692E+02  0.82855829360E+02  0.00000000000E+00 0. -1.
<scales pt_clust_5="13000.00000" pt_clust_6="13000.00000" pt_clust_7="13000.00000" pt_clust_8="13000.00000" pt_clust_9="34.16227"></scales>
<clustering>
<clus scale="   34.162">  1  9  2 -1</clus>
<clus scale="   89.714">  5  6 -1 -1</clus>
<clus scale="   90.163">  7  8 -1 -1</clus>
<clus scale="  210.592">  2  5  1 -1</clus>
<clus scale="   34.162">  1  5  2 -1</clus>
</clustering>
</event>
<event>
 9    1  0.1234700E-005  0.1157236E+03  0.7546771E-02  0.1250371E+00
          1   -1    0    0  502    0  0.00000000000E+00  0.00000000000E+00  0.59952697317E+03  0.59952697317E+03  0.00000000000E+00 0. -1.
         -1   -1    0    0    0  501 -0.00000000000E+00 -0.00000000000E+00 -0.51820188028E+02  0.51820188028E+02  0.00000000000E+00 0.  1.
         23    2    1    2    0    0  0.10607714285E+02 -0.73835103993E+02  0.54381769747E+02  0.12978587815E+03  0.91229661312E+02 0.  0.
         23    2    1    2    0    0  0.30642649621E+02  0.63414490200E+02  0.25951262734E+03  0.28390940630E+03  0.91089942867E+02 0.  0.
        -11    1    3    3    0    0 -0.21766092671E+02 -0.60024569492E+02  0.66853412893E+02  0.92445067733E+02  0.00000000000E+00 0.  1.
         11    1    3    3    0    0  0.32373806956E+02 -0.13810534501E+02 -0.12471643145E+02  0.37340810419E+02  0.00000000000E+00 0. -1.
        -11    1    4    4    0    0 -0.30302964520E+02  0.50417291760E+01  0.66314420104E+02  0.73084136483E+02  0.00000000000E+00 0.  1.
         11    1    4    4    0    0  0.60945614141E+02  0.58372761024E+02  0.19319820724E+03  0.21082526981E+03  0.00000000000E+00 0. -1.
         21    1    1    2  502  501 -0.41250363906E+02  0.10420613793E+02  0.23381238806E+03  0.23765187675E+03  0.00000000000E+00 0. -1.
<scales pt_clust_5="13000.00000" pt_clust_6="13000.00000" pt_clust_7="13000.00000" pt_clust_8="13000.00000" pt_clust_9="42.54623"></scales>
<clustering>
<clus scale="   42.546">  1  9  2 -1</clus>
<clus scale="   91.090">  7  8 -1 -1</clus>
<clus scale="   91.230">  5  6 -1 -1</clus>
<clus scale="  115.613">  1  7  2 -1</clus>
<clus scale="   42.546">  1  5  2 -1</clus>
</clustering>
</event>
<event>
 9    1  0.1234700E-005  0.1384657E+03  0.7546771E-02  0.1215434E+00
         -1   -1    0    0    0  501 -0.00000000000E+00  0.00000000000E+00  0.79441283853E+02  0.79441283853E+02  0.00000000000E+00 0.  1.
          1   -1    0    0  502    0  0.00000000000E+00 -0.00000000000E+00 -0.46883746466E+03  0.46883746466E+03  0.00000000000E+00 0. -1.
         23    2    1    2    0    0 -0.82061529734E+02 -0.19181530490E+02 -0.73972640812E+02  0.14385411347E+03  0.90111201291E+02 0.  0.
         23    2    1    2    0    0  0.13749408128E+03  0.68700750325E+02 -0.20876710504E+03  0.27442265036E+03  0.89998174440E+02 0.  0.
        -11    1    4    4    0    0  0.12774028010E+03  0.88484432911E+02 -0.17439989532E+03  0.23358595316E+03  0.00000000000E+00 0. -1.
         11    1    4    4    0    0  0.97538011795E+01 -0.19783682586E+02 -0.34367209719E+02  0.40836697198E+02  0.00000000000E+00 0.  1.
        -11    1    3    3    0    0 -0.68486047349E+02 -0.37266139824E+01 -0.15905994328E+01  0.68605803980E+02  0.00000000000E+00 0.  1.
         11    1    3    3    0    0 -0.13575482385E+02 -0.15454916508E+02 -0.72382041379E+02  0.75248309485E+02  0.00000000000E+00 0. -1.
         21    1    1    2  502  501 -0.55432551550E+02 -0.49519219834E+02 -0.10665643496E+03  0.13000198469E+03  0.00000000000E+00 0.  1.
<scales pt_clust_5="13000.00000" pt_clust_6="13000.00000" pt_clust_7="13000.00000" pt_clust_8="13000.00000" pt_clust_9="74.32981"></scales>
<clustering>
<clus scale="   74.330">  2  9  1 -1</clus>
<clus scale="   89.998">  5  6 -1 -1</clus>
<clus scale="   90.111">  7  8 -1 -1</clus>
<clus scale="  138.392">  2  5  1 -1</clus>
<clus scale="   74.330">  2  5  1 -1</clus>
</clustering>
</event>
<event>
 9    1  0.1234700E-005  0.9341350E+02  0.7546771E-02  0.1295141E+00
         -2   -1    0    0    0  501 -0.00000000000E+00  0.00000000000E+00  0.13712271705E+03  0.13712271705E+03  0.00000000000E+00 0.  1.
          2   -1    0    0  502    0  0.00000000000E+00 -0.00000000000E+00 -0.11990768209E+03  0.11990768209E+03  0.00000000000E+00 0. -1.
         23    2    1    2    0    0  0.51149159713E+01 -0.21761353685E+02  0.46049710777E+02  0.10553875175E+03  0.92293734239E+02 0.  0.
         23    2    1    2    0    0 -0.15057971451E+02 -0.28741033284E+01  0.20749680654E+02  0.95238838562E+02  0.91678155245E+02 0.  0.
        -13    1    4    4    0    0 -0.29354544734E+02 -0.41988522604E+02  0.95590648630E+01  0.52116226341E+02  0.00000000000E+00 0.  1.
         13    1    4    4    0    0  0.14296573283E+02  0.39114419276E+02  0.11190615791E+02  0.43122612220E+02  0.00000000000E+00 0. -1.
        -13    1    3    3    0    0 -0.75546403875E+01 -0.51804201129E+02  0.50369578132E+02  0.72648759434E+02  0.00000000000E+00 0.  1.
         13    1    3    3    0    0  0.12669556359E+02  0.30042847445E+02 -0.43198673554E+01  0.32889992321E+02  0.00000000000E+00 0. -1.
         21    1    1    2  502  501  0.99430554795E+01  0.24635457013E+02 -0.49584356465E+02  0.56252808823E+02  0.00000000000E+00 0. -1.
<scales pt_clust_5="13000.00000" pt_clust_6="13000.00000" pt_clust_7="13000.00000" pt_clust_8="13000.00000" pt_clust_9="26.56633"></scales>
<clustering>
<clus scale="   26.566">  2  9  1 -1</clus>
<clus scale="   91.678">  5  6 -1 -1</clus>
<clus scale="   92.294">  7  8 -1 -1</clus>
<clus scale="   92.805">  2  5  1 -1</clus>
<clus scale="   26.566">  2  5  1 -1</clus>
</clustering>
</event>
<event>
 9    1  0.1234700E-005  0.1758571E+03  0.7546771E-02  0.1171941E+00
          1   -1    0    0  502    0  0.00000000000E+00  0.00000000000E+00  0.10529584763E+04  0.10529584763E+04  0.00000000000E+00 0. -1.
         -1   -1    0    0    0  501 -0.00000000000E+00 -0.00000000000E+00 -0.47126293117E+02  0.47126293117E+02  0.00000000000E+00 0.  1.
         23    2    1    2    0    0  0.11351036479E+03  0.87909399191E+02  0.26762048526E+03  0.31693057991E+03  0.90617895409E+02 0.  0.
         23    2    1    2    0    0 -0.95899967989E+02 -0.13320735662E+03  0.40478731644E+03  0.44620634608E+03  0.91139058679E+02 0.  0.
        -11    1    3    3    0    0 -0.32534716329E+01  0.45185750592E+02  0.77261499007E+02  0.89563811682E+02  0.00000000000E+00 0. -1.
         11    1    3    3    0    0  0.11676383642E+03  0.42723648599E+02  0.19035898626E+03  0.22736676823E+03  0.00000000000E+00 0.  1.
        -11    1    4    4    0    0 -0.13411894937E+02 -0.75812189180E+02  0.10626375804E+03  0.13122253322E+03  0.00000000000E+00 0.  1.
         11    1    4    4    0    0 -0.82488073052E+02 -0.57395167443E+02  0.29852355840E+03  0.31498381286E+03  0.00000000000E+00 0. -1.
         21    1    1    2  502  501 -0.17610396798E+02  0.45297957431E+02  0.33342438150E+03  0.33694784344E+03  0.00000000000E+00 0. -1.
<scales pt_clust_5="13000.00000" pt_clust_6="13000.00000" pt_clust_7="13000.00000" pt_clust_8="13000.00000" pt_clust_9="48.60073"></scales>
<clustering>
<clus scale="   48.601">  1  9  2 -1</clus>
<clus scale="   90.618">  5  6 -1 -1</clus>
<clus scale="   91.139">  7  8 -1 -1</clus>
<clus scale="  175.588">  2  5  1 -1</clus>
<clus scale="   48.601">  1  5  2 -1</clus>
</clustering>
</event>
<event>
 9    1  0.1234700E-005  0.1581012E+03  0.7546771E-02  0.1212841E+00
          1   -1    0    0  502    0  0.00000000000E+00  0.00000000000E+00  0.10430492230E+04  0.10430492230E+04  0.00000000000E+00 0. -1.
         -1   -1    0    0    0  501 -0.00000000000E+00 -0.00000000000E+00 -0.44400271101E+02  0.44400271101E+02  0.00000000000E+00 0.  1.
         23    2    1    2    0    0 -0.32754575247E+02 -0.11292775760E+02  0.12402028224E+03  0.15820364923E+03  0.91907427559E+02 0.  0.
         23    2    1    2    0    0 -0.69008248830E+02  0.97008444846E+02  0.25982845337E+03  0.30021313170E+03  0.91892994747E+02 0.  0.
        -11    1    4    4    0    0 -0.20529342524E+02  0.47755780092E+02  0.20644069785E+03  0.21288454656E+03  0.00000000000E+00 0. -1.
         11    1    4    4    0    0 -0.48478906306E+02  0.49252664754E+02  0.53387755526E+02  0.87328585138E+02  0.00000000000E+00 0.  1.
        -13    1    3    3    0    0  0.30407401180E+02 -0.29835062693E+00  0.61735989829E+02  0.68818830998E+02  0.00000000000E+00 0.  1.
         13    1    3    3    0    0 -0.63161976428E+02 -0.10994425133E+02  0.62284292408E+02  0.89384818235E+02  0.00000000000E+00 0. -1.
         21    1    1    2  502  501  0.10176282408E+03 -0.85715669086E+02  0.61480021631E+03  0.62903271319E+03  0.00000000000E+00 0.  1.
<scales pt_clust_5="13000.00000" pt_clust_6="13000.00000" pt_clust_7="13000.00000" pt_clust_8="13000.00000" pt_clust_9="128.65328"></scales>
<clustering>
<clus scale="   91.893">  5  6 -1 -1</clus>
<clus scale="   91.907">  7  8 -1 -1</clus>
<clus scale="   98.221">  2  7  1 -1</clus>
<clus scale="  128.653">  1  9  2 -1</clus>
<clus scale="  128.653">  1  5  2 -1</clus>
</clustering>
</event>
<event>
 9    1  0.1234700E-005  0.1551373E+03  0.7546771E-02  0.1194322E+00
         -1   -1    0    0    0  501 -0.00000000000E+00  0.00000000000E+00  0.23744361531E+03  0.23744361531E+03  0.00000000000E+00 0.  1.
          1   -1    0    0  502    0  0.00000000000E+00 -0.00000000000E+00 -0.12812022682E+03  0.12812022682E+03  0.00000000000E+00 0. -1.
         23    2    1    2    0    0 -0.11005288773E+03 -0.66725339441E+02  0.93140358302E+02  0.18317224066E+03  0.91175843209E+02 0.  0.
         23    2    1    2    0    0  0.11606577293E+03  0.38639511244E+02  0.17429821293E+02  0.15364228805E+03  0.91311984611E+02 0.  0.
        -11    1    3    3    0    0 -0.11483551030E+03 -0.39052026771E+02  0.96351105479E+02  0.15490574795E+03  0.00000000000E+00 0.  1.
         11    1    3    3    0    0  0.47826225765E+01 -0.27673312670E+02 -0.32107471764E+01  0.28266492713E+02  0.00000000000E+00 0. -1.
        -13    1    4    4    0    0  0.11082667292E+03  0.62798212406E+02  0.97409422491E+01  0.12775387613E+03  0.00000000000E+00 0. -1.
         13    1    4    4    0    0  0.52391000098E+01 -0.24158701162E+02  0.76888790438E+01  0.25888411920E+02  0.00000000000E+00 0.  1.
         21    1    1    2  502  501 -0.60128852010E+01  0.28085828197E+02 -0.12467911033E+01  0.28749313418E+02  0.00000000000E+00 0. -1.
<scales pt_clust_5="13000.00000" pt_clust_6="13000.00000" pt_clust_7="13000.00000" pt_clust_8="13000.00000" pt_clust_9="28.72227"></scales>
<clustering>
<clus scale="   28.722">  2  9  1 -1</clus>
<clus scale="   91.176">  5  6 -1 -1</clus>
<clus scale="   91.312">  7  8 -1 -1</clus>
<clus scale="  155.057">  1  5  2 -1</clus>
<clus scale="   28.722">  2  5  1 -1</clus>
</clustering>
</event>
<event>
 9    1  0.1234700E-005  0.1812395E+03  0.7546771E-02  0.1190237E+00
          3   -1    0    0  502    0  0.00000000000E+00  0.00000000000E+00  0.77555306247E+03  0.77555306247E+03  0.00000000000E+00 0. -1.
         -3   -1    0    0    0  501 -0.00000000000E+00 -0.00000000000E+00 -0.91880436425E+02  0.91880436425E+02  0.00000000000E+00 0.  1.
         23    2    1    2    0    0 -0.71579813871E+02  0.15361996306E+03  0.72450410843E+02  0.20260444470E+03  0.84123339052E+02 0.  0.
         23    2    1    2    0    0 -0.52310585479E+01 -0.47148681096E+02  0.14109082998E+03  0.17671066346E+03  0.95234836975E+02 0.  0.
        -13    1    4    4    0    0  0.44325612045E+02 -0.18372909792E+02  0.51760651953E+02  0.70579662709E+02  0.00000000000E+00 0.  1.
         13    1    4    4    0    0 -0.49556670593E+02 -0.28775771303E+02  0.89330178022E+02  0.10613100075E+03  0.00000000000E+00 0. -1.
        -13    1    3    3    0    0 -0.81904445410E+02  0.79496025420E+02  0.48603179355E+02  0.12405734673E+03  0.00000000000E+00 0.  1.
         13    1    3    3    0    0  0.10324631539E+02  0.74123937645E+02  0.23847231488E+02  0.78547097961E+02  0.00000000000E+00 0. -1.
         21    1    1    2  502  501  0.76810872419E+02 -0.10647128197E+03  0.47013138523E+03  0.48811839074E+03  0.00000000000E+00 0.  1.
<scales pt_clust_5="13000.00000" pt_clust_6="13000.00000" pt_clust_7="13000.00000" pt_clust_8="13000.00000" pt_clust_9="160.53353"></scales>
<clustering>
<clus scale="   84.123">  7  8 -1 -1</clus>
<clus scale="   95.235">  5  6 -1 -1</clus>
<clus scale="  106.396">  1  5  2 -1</clus>
<clus scale="  160.534">  1  9  2 -1</clus>
<clus scale="  106.396">  1  5  2 -1</clus>
</clustering>
</event>
<event>
 9    1  0.1234700E-005  0.1396012E+03  0.7546771E-02  0.1213937E+00
          1   -1    0    0  502    0  0.00000000000E+00  0.00000000000E+00  0.24328635889E+03  0.24328635889E+03  0.00000000000E+00 0. -1.
         -1   -1    0    0    0  501 -0.00000000000E+00 -0.00000000000E+00 -0.12120065237E+03  0.12120065237E+03  0.00000000000E+00 0.  1.
         23    2    1    2    0    0  0.10011382960E+03 -0.57902901474E+01 -0.20382897259E+02  0.13750464261E+03  0.91846382082E+02 0.  0.
         23    2    1    2    0    0 -0.11537828596E+03  0.20166192178E+02  0.98650688565E+02  0.17840583232E+03  0.91530642272E+02 0.  0.
        -11    1    4    4    0    0 -0.12060494757E+03 -0.68441176215E+01  0.84898648520E+02  0.14764882609E+03  0.00000000000E+00 0.  1.
         11    1    4    4    0    0  0.52266616128E+01  0.27010309800E+02  0.13752040045E+02  0.30757006234E+02  0.00000000000E+00 0. -1.
        -13    1    3    3    0    0  0.10187887856E+03  0.24854991289E+02 -0.11193890507E+02  0.10546269328E+03  0.00000000000E+00 0. -1.
         13    1    3    3    0    0 -0.17650489578E+01 -0.30645281436E+02 -0.91890067523E+01  0.32041949335E+02  0.00000000000E+00 0.  1.
         21    1    1    2  502  501  0.15264456358E+02 -0.14375902031E+02  0.43817915221E+02  0.48576536326E+02  0.00000000000E+00 0. -1.
<scales pt_clust_5="13000.00000" pt_clust_6="13000.00000" pt_clust_7="13000.00000" pt_clust_8="13000.00000" pt_clust_9="20.96831"></scales>
<clustering>
<clus scale="   20.968">  1  9  2 -1</clus>
<clus scale="   91.531">  5  6 -1 -1</clus>
<clus scale="   91.846">  7  8 -1 -1</clus>
<clus scale="  139.394">  1  5  2 -1</clus>
<clus scale="   20.968">  1  5  2 -1</clus>
</clustering>
</event>
<event>
 9    1  0.1234700E-005  0.1046171E+03  0.7546771E-02  0.1272611E+00
         -1   -1    0    0    0  501 -0.00000000000E+00  0.00000000000E+00  0.36007709209E+02  0.36007709209E+02  0.00000000000E+00 0.  1.
          1   -1    0    0  502    0  0.00000000000E+00 -0.00000000000E+00 -0.65737795774E+03  0.65737795774E+03  0.00000000000E+00 0. -1.
         23    2    1    2    0    0 -0.23366007371E+02 -0.32008044514E+02 -0.72312832580E+02  0.12563041633E+03  0.94780644322E+02 0.  0.
         23    2    1    2    0    0  0.43972147768E+02  0.51066611810E+02 -0.48087916997E+03  0.49402523478E+03  0.90965970954E+02 0.  0.
        -11    1    3    3    0    0  0.35536366539E+02 -0.24506344015E+02 -0.26722855278E+02  0.50769136668E+02  0.00000000000E+00 0.  1.
         11    1    3    3    0    0 -0.58902373910E+02 -0.75017004993E+01 -0.45589977301E+02  0.74861279664E+02  0.00000000000E+00 0. -1.
        -11    1    4    4    0    0  0.69997697861E+02  0.35771869799E+02 -0.40100306707E+03  0.40863524588E+03  0.00000000000E+00 0. -1.
         11    1    4    4    0    0 -0.26025550093E+02  0.15294742011E+02 -0.79876102898E+02  0.85389988904E+02  0.00000000000E+00 0.  1.
         21    1    1    2  502  501 -0.20606140397E+02 -0.19058567295E+02 -0.68178245982E+02  0.73730015832E+02  0.00000000000E+00 0.  1.
<scales pt_clust_5="13000.00000" pt_clust_6="13000.00000" pt_clust_7="13000.00000" pt_clust_8="13000.00000" pt_clust_9="28.06852"></scales>
<clustering>
<clus scale="   28.069">  2  9  1 -1</clus>
<clus scale="   90.966">  7  8 -1 -1</clus>
<clus scale="   94.781">  5  6 -1 -1</clus>
<clus scale="  101.174">  2  7  1 -1</clus>
<clus scale="   28.069">  2  5  1 -1</clus>
</clustering>
</event>
<event>
 9    1  0.1234700E-005  0.9884705E+02  0.7546771E-02  0.1286501E+00
          3   -1    0    0  502    0  0.00000000000E+00  0.00000000000E+00  0.27832284508E+03  0.27832284508E+03  0.00000000000E+00 0. -1.
         -3   -1    0    0    0  501 -0.00000000000E+00 -0.00000000000E+00 -0.10346572957E+03  0.10346572957E+03  0.00000000000E+00 0.  1.
         23    2    1    2    0    0  0.48913401015E+00 -0.75747468848E+01 -0.44949051560E+02  0.10867130350E+03  0.98647954491E+02 0.  0.
         23    2    1    2    0    0 -0.18147398985E+02 -0.78792013891E+01  0.59746014534E+02  0.11134616351E+03  0.91852991084E+02 0.  0.
        -11    1    4    4    0    0 -0.39783629704E+02  0.29653564099E+02  0.40007001469E+02  0.63738773308E+02  0.00000000000E+00 0.  1.
         11    1    4    4    0    0  0.21636230720E+02 -0.37532765488E+02  0.19739013065E+02  0.47607390201E+02  0.00000000000E+00 0. -1.
        -11    1    3    3    0    0 -0.14380957979E+02  0.37867276145E+02 -0.45416891069E+02  0.60855867009E+02  0.00000000000E+00 0.  1.
         11    1    3    3    0    0  0.14870091989E+02 -0.45442023030E+02  0.46783950869E+00  0.47815436489E+02  0.00000000000E+00 0. -1.
         21    1    1    2  502  501  0.17658264975E+02  0.15453948274E+02  0.16006015254E+03  0.16177110765E+03  0.00000000000E+00 0. -1.
<scales pt_clust_5="13000.00000" pt_clust_6="13000.00000" pt_clust_7="13000.00000" pt_clust_8="13000.00000" pt_clust_9="23.46569"></scales>
<clustering>
<clus scale="   23.466">  1  9  2 -1</clus>
<clus scale="   91.853">  5  6 -1 -1</clus>
<clus scale="   92.067">  1  5  2 -1</clus>
<clus scale="   98.648">  7  8 -1 -1</clus>
<clus scale="   23.466">  1  5  2 -1</clus>
</clustering>
</event>
<event>
 9    1  0.1234700E-005  0.1023904E+03  0.7546771E-02  0.1281361E+00
         -2   -1    0    0    0  501 -0.00000000000E+00  0.00000000000E+00  0.45295774665E+02  0.45295774665E+02  0.00000000000E+00 0.  1.
          2   -1    0    0  502    0  0.00000000000E+00 -0.00000000000E+00 -0.33273703327E+03  0.33273703327E+03  0.00000000000E+00 0. -1.
         23    2    1    2    0    0 -0.48506735306E+01 -0.29100297400E+02 -0.10094786007E+03  0.13166623683E+03  0.79215977724E+02 0.  0.
         23    2    1    2    0    0 -0.23625428907E+02  0.62202823519E+02 -0.10817139213E+03  0.15669493494E+03  0.91787256276E+02 0.  0.
        -11    1    3    3    0    0 -0.23694682196E+02  0.17765563578E+02 -0.18325551594E+02  0.34826413178E+02  0.00000000000E+00 0. -1.
         11    1    3    3    0    0  0.18844008665E+02 -0.46865860977E+02 -0.82622308476E+02  0.96839823656E+02  0.00000000000E+00 0.  1.
        -13    1    4    4    0    0  0.40431500185E+01  0.48929324874E+02 -0.53440920966E+01  0.49386083212E+02  0.00000000000E+00 0.  1.
         13    1    4    4    0    0 -0.27668578925E+02  0.13273498646E+02 -0.10282730004E+03  0.10730885173E+03  0.00000000000E+00 0. -1.
         21    1    1    2  502  501  0.28476102437E+02 -0.33102526120E+02 -0.78322006399E+02  0.89671636161E+02  0.00000000000E+00 0. -1.
<scales pt_clust_5="13000.00000" pt_clust_6="13000.00000" pt_clust_7="13000.00000" pt_clust_8="13000.00000" pt_clust_9="43.66538"></scales>
<clustering>
<clus scale="   43.665">  2  9  1 -1</clus>
<clus scale="   79.216">  5  6 -1 -1</clus>
<clus scale="   91.291">  1  5  2 -1</clus>
<clus scale="   91.787">  7  8 -1 -1</clus>
<clus scale="   43.665">  2  5  1 -1</clus>
</clustering>
</event>
<event>
 9    1  0.1234700E-005  0.1135737E+03  0.7546771E-02  0.1261989E+00
          2   -1    0    0  502    0  0.00000000000E+00  0.00000000000E+00  0.75322502704E+03  0.75322502704E+03  0.00000000000E+00 0. -1.
         -2   -1    0    0    0  501 -0.00000000000E+00 -0.00000000000E+00 -0.60119968213E+02  0.60119968213E+02  0.00000000000E+00 0.  1.
         23    2    1    2    0    0  0.13834848092E+02  0.28077728028E+02  0.84595693086E+01  0.11515368668E+03  0.11049454923E+03 0.  0.
         23    2    1    2    0    0 -0.15947005283E+00  0.61793361103E+01  0.38376229310E+03  0.39505559591E+03  0.93580001220E+02 0.  0.
        -11    1    3    3    0    0 -0.97287268189E+00  0.45846450250E+02  0.49853165449E+02  0.67736117301E+02  0.00000000000E+00 0. -1.
         11    1    3    3    0    0  0.14807720774E+02 -0.17768722222E+02 -0.41393596140E+02  0.47417569374E+02  0.00000000000E+00 0.  1.
        -13    1    4    4    0    0 -0.39893146310E+02 -0.21537226162E+02  0.18703931775E+03  0.19245524575E+03  0.00000000000E+00 0. -1.
         13    1    4    4    0    0  0.39733676257E+02  0.27716562272E+02  0.19672297534E+03  0.20260035015E+03  0.00000000000E+00 0.  1.
         21    1    1    2  502  501 -0.13675378039E+02 -0.34257064138E+02  0.30088319642E+03  0.30313571267E+03  0.00000000000E+00 0. -1.
<scales pt_clust_5="13000.00000" pt_clust_6="13000.00000" pt_clust_7="13000.00000" pt_clust_8="13000.00000" pt_clust_9="36.88580"></scales>
<clustering>
<clus scale="   36.886">  1  9  2 -1</clus>
<clus scale="   93.580">  7  8 -1 -1</clus>
<clus scale="   97.197">  1  7  2 -1</clus>
<clus scale="  110.495">  5  6 -1 -1</clus>
<clus scale="   36.886">  1  5  2 -1</clus>
</clustering>
</event>
<event>
 9    1  0.1234700E-005  0.9597179E+02  0.7546771E-02  0.1307367E+00
          1   -1    0    0  502    0  0.00000000000E+00  0.00000000000E+00  0.59854608932E+02  0.59854608932E+02  0.00000000000E+00 0. -1.
         -1   -1    0    0    0  501 -0.00000000000E+00 -0.00000000000E+00 -0.19128225364E+03  0.19128225364E+03  0.00000000000E+00 0.  1.
         23    2    1    2    0    0 -0.13496460737E+02 -0.31509717281E+02 -0.11176116900E+03  0.13214304191E+03  0.61613374308E+02 0.  0.
         23    2    1    2    0    0  0.13486742774E+02  0.69090322900E+01 -0.18373326993E+02  0.94359169657E+02  0.91304144461E+02 0.  0.
        -11    1    3    3    0    0 -0.25311880393E+02 -0.59224353702E+01 -0.12286362175E+02  0.28752760307E+02  0.00000000000E+00 0. -1.
         11    1    3    3    0    0  0.11815419656E+02 -0.25587281911E+02 -0.99474806825E+02  0.10339028160E+03  0.00000000000E+00 0.  1.
        -13    1    4    4    0    0  0.10094471202E+02 -0.23681824406E+02  0.28423058880E+02  0.38348369354E+02  0.00000000000E+00 0.  1.
         13    1    4    4    0    0  0.33922715718E+01  0.30590856696E+02 -0.46796385873E+02  0.56010800303E+02  0.00000000000E+00 0. -1.
         21    1    1    2  502  501  0.97179633246E-02  0.24600684991E+02 -0.12931487136E+01  0.24634651003E+02  0.00000000000E+00 0.  1.
<scales pt_clust_5="13000.00000" pt_clust_6="13000.00000" pt_clust_7="13000.00000" pt_clust_8="13000.00000" pt_clust_9="24.60069"></scales>
<clustering>
<clus scale="   24.601">  1  9  2 -1</clus>
<clus scale="   61.613">  5  6 -1 -1</clus>
<clus scale="   68.340">  2  5  1 -1</clus>
<clus scale="   91.304">  7  8 -1 -1</clus>
<clus scale="   24.601">  1  5  2 -1</clus>
</clustering>
</event>
<event>
 9    1  0.1234700E-005  0.1804994E+03  0.7546771E-02  0.1167837E+00
         -2   -1    0    0    0  501 -0.00000000000E+00  0.00000000000E+00  0.45027822710E+02  0.45027822710E+02  0.00000000000E+00 0.  1.
          2   -1    0    0  502    0  0.00000000000E+00 -0.00000000000E+00 -0.21381439558E+04  0.21381439558E+04  0.00000000000E+00 0. -1.
         23    2    1    2    0    0  0.12832498686E+03  0.39424342986E+02 -0.23010041800E+03  0.28096461058E+03  0.89293499012E+02 0.  0.
         23    2    1    2    0    0 -0.23389797133E+03 -0.84959563753E+02 -0.11790318343E+04  0.12086272803E+04  0.93474316525E+02 0.  0.
        -11    1    3    3    0    0  0.12231420465E+03  0.59377087293E+02 -0.17206008251E+03  0.21929677414E+03  0.00000000000E+00 0.  1.
         11    1    3    3    0    0  0.60107822060E+01 -0.19952744307E+02 -0.58040335488E+02  0.61667836444E+02  0.00000000000E+00 0. -1.
        -11    1    4    4    0    0 -0.14729888099E+03 -0.64203429684E+01 -0.59361548080E+03  0.61165146954E+03  0.00000000000E+00 0. -1.
         11    1    4    4    0    0 -0.86599090338E+02 -0.78539220785E+02 -0.58541635352E+03  0.59697581075E+03  0.00000000000E+00 0.  1.
         21    1    1    2  502  501  0.10557298447E+03  0.45535220767E+02 -0.68398388073E+03  0.69357988760E+03  0.00000000000E+00 0.  1.
<scales pt_clust_5="13000.00000" pt_clust_6="13000.00000" pt_clust_7="13000.00000" pt_clust_8="13000.00000" pt_clust_9="114.97439"></scales>
<clustering>
<clus scale="   89.293">  5  6 -1 -1</clus>
<clus scale="   93.474">  7  8 -1 -1</clus>
<clus scale="  114.974">  2  9  1 -1</clus>
<clus scale="  178.370">  1  5  2 -1</clus>
<clus scale="  114.974">  2  5  1 -1</clus>
</clustering>
</event>
<event>
 9    1  0.1234700E-005  0.9487963E+02  0.7546771E-02  0.1302832E+00
         -2   -1    0    0    0  501 -0.00000000000E+00  0.00000000000E+00  0.22408729491E+03  0.22408729491E+03  0.00000000000E+00 0.  1.
          2   -1    0    0  502    0  0.00000000000E+00 -0.00000000000E+00 -0.17873854723E+03  0.17873854723E+03  0.00000000000E+00 0. -1.
         23    2    1    2    0    0  0.12308879413E+02  0.15090326927E+02  0.15818056553E+03  0.18386478206E+03  0.91683915121E+02 0.  0.
         23    2    1    2    0    0  0.83182597508E+01 -0.48015211940E+02  0.11770488987E+02  0.88441859218E+02  0.72861265623E+02 0.  0.
        -13    1    3    3    0    0 -0.21957681202E+02  0.13884432913E+02  0.14471383107E+03  0.14702724287E+03  0.00000000000E+00 0.  1.
         13    1    3    3    0    0  0.34266560616E+02  0.12058940141E+01  0.13466734453E+02  0.36837539191E+02  0.00000000000E+00 0. -1.
        -13    1    4    4    0    0  0.35076283379E+02 -0.20432372102E+02  0.25146641972E+02  0.47751241741E+02  0.00000000000E+00 0. -1.
         13    1    4    4    0    0 -0.26758023628E+02 -0.27582839838E+02 -0.13376152985E+02  0.40690617477E+02  0.00000000000E+00 0.  1.
         21    1    1    2  502  501 -0.20627139164E+02  0.32924885013E+02 -0.12460230684E+03  0.13051920086E+03  0.00000000000E+00 0. -1.
<scales pt_clust_5="13000.00000" pt_clust_6="13000.00000" pt_clust_7="13000.00000" pt_clust_8="13000.00000" pt_clust_9="38.85263"></scales>
<clustering>
<clus scale="   38.853">  2  9  1 -1</clus>
<clus scale="   72.861">  7  8 -1 -1</clus>
<clus scale="   76.844">  2  7  1 -1</clus>
<clus scale="   91.684">  5  6 -1 -1</clus>
<clus scale="   38.853">  2  5  1 -1</clus>
</clustering>
</event>
<event>
 9    1  0.1234700E-005  0.9637073E+02  0.7546771E-02  0.1289123E+00
          1   -1    0    0  502    0  0.00000000000E+00  0.00000000000E+00  0.78126082492E+03  0.78126082492E+03  0.00000000000E+00 0. -1.
         -1   -1    0    0    0  501 -0.00000000000E+00 -0.00000000000E+00 -0.59894108726E+02  0.59894108726E+02  0.00000000000E+00 0.  1.
         23    2    1    2    0    0 -0.17683405138E+02  0.19412941792E+02  0.14288680840E+00  0.95187327944E+02  0.91493397894E+02 0.  0.
         23    2    1    2    0    0 -0.42033303846E+02 -0.38131121847E+02  0.28401551090E+03  0.30430306179E+03  0.93352889068E+02 0.  0.
        -11    1    3    3    0    0 -0.47500189978E+02  0.30178555114E+02 -0.17465901892E+02  0.58924281630E+02  0.00000000000E+00 0.  1.
         11    1    3    3    0    0  0.29816784840E+02 -0.10765613322E+02  0.17608788701E+02  0.36263046313E+02  0.00000000000E+00 0. -1.
        -13    1    4    4    0    0 -0.71888652030E+02 -0.32032364659E+02  0.19957422813E+03  0.21453186992E+03  0.00000000000E+00 0.  1.
         13    1    4    4    0    0  0.29855348184E+02 -0.60987571873E+01  0.84441282761E+02  0.89771191865E+02  0.00000000000E+00 0. -1.
         21    1    1    2  502  501  0.59716708984E+02  0.18718180055E+02  0.43720831849E+03  0.44166454391E+03  0.00000000000E+00 0. -1.
<scales pt_clust_5="13000.00000" pt_clust_6="13000.00000" pt_clust_7="13000.00000" pt_clust_8="13000.00000" pt_clust_9="62.58159"></scales>
<clustering>
<clus scale="   62.582">  1  9  2 -1</clus>
<clus scale="   91.493">  5  6 -1 -1</clus>
<clus scale="   93.353">  7  8 -1 -1</clus>
<clus scale="   94.571">  2  5  1 -1</clus>
<clus scale="   62.582">  1  5  2 -1</clus>
</clustering>
</event>
<event>
 9    1  0.1234700E-005  0.1074617E+03  0.7546771E-02  0.1269750E+00
          1   -1    0    0  502    0  0.00000000000E+00  0.00000000000E+00  0.70752934083E+03  0.70752934083E+03  0.00000000000E+00 0. -1.
         -1   -1    0    0    0  501 -0.00000000000E+00 -0.00000000000E+00 -0.37651269140E+02  0.37651269140E+02  0.00000000000E+00 0.  1.
         23    2    1    2    0    0 -0.50024305841E+02  0.24559984804E+02  0.64103356621E+02  0.12038805519E+03  0.85313653500E+02 0.  0.
         23    2    1    2    0    0  0.89403772391E+01 -0.37983508311E+02  0.33183758205E+03  0.34746669407E+03  0.95363752958E+02 0.  0.
        -11    1    3    3    0    0 -0.36027431087E+02 -0.16002171764E+02 -0.42842665828E+01  0.39653502141E+02  0.00000000000E+00 0.  1.
         11    1    3    3    0    0 -0.13996874755E+02  0.40562156568E+02  0.68387623204E+02  0.80734553048E+02  0.00000000000E+00 0. -1.
        -13    1    4    4    0    0  0.84312663423E+01  0.28425358531E+02  0.16944422185E+03  0.17201869543E+03  0.00000000000E+00 0. -1.
         13    1    4    4    0    0  0.50911089676E+00 -0.66408866842E+02  0.16239336020E+03  0.17544799864E+03  0.00000000000E+00 0.  1.
         21    1    1    2  502  501  0.41083928602E+02  0.13423523507E+02  0.27393713302E+03  0.27732586071E+03  0.00000000000E+00 0.  1.
<scales pt_clust_5="13000.00000" pt_clust_6="13000.00000" pt_clust_7="13000.00000" pt_clust_8="13000.00000" pt_clust_9="43.22129"></scales>
<clustering>
<clus scale="   43.221">  1  9  2 -1</clus>
<clus scale="   85.314">  5  6 -1 -1</clus>
<clus scale="   95.364">  7  8 -1 -1</clus>
<clus scale="   98.652">  2  5  1 -1</clus>
<clus scale="   43.221">  1  5  2 -1</clus>
</clustering>
</event>
<event>
 9    1  0.1234700E-005  0.2120487E+03  0.7546771E-02  0.1141830E+00
         -2   -1    0    0    0  501 -0.00000000000E+00  0.00000000000E+00  0.95310432450E+02  0.95310432450E+02  0.00000000000E+00 0.  1.
          2   -1    0    0  502    0  0.00000000000E+00 -0.00000000000E+00 -0.92658464608E+03  0.92658464608E+03  0.00000000000E+00 0. -1.
         23    2    1    2    0    0  0.20424248970E+02  0.18253567155E+03 -0.64720838727E+02  0.21723462256E+03  0.96258365547E+02 0.  0.
         23    2    1    2    0    0 -0.38042725239E+02 -0.15464844674E+03 -0.51804368008E+03  0.55397105366E+03  0.11467904254E+03 0.  0.
        -11    1    3    3    0    0 -0.16337452915E+02  0.11886530217E+03 -0.10682400696E+01  0.11998755588E+03  0.00000000000E+00 0.  1.
         11    1    3    3    0    0  0.36761701886E+02  0.63670369376E+02 -0.63652598658E+02  0.97247066680E+02  0.00000000000E+00 0. -1.
        -13    1    4    4    0    0  0.19256818942E+02 -0.12009365780E+03 -0.25456683192E+03  0.28213043727E+03  0.00000000000E+00 0. -1.
         13    1    4    4    0    0 -0.57299544180E+02 -0.34554788934E+02 -0.26347684816E+03  0.27184061639E+03  0.00000000000E+00 0.  1.
         21    1    1    2  502  501  0.17618476268E+02 -0.27887224813E+02 -0.24850969482E+03  0.25068940231E+03  0.00000000000E+00 0. -1.
<scales pt_clust_5="13000.00000" pt_clust_6="13000.00000" pt_clust_7="13000.00000" pt_clust_8="13000.00000" pt_clust_9="32.98648"></scales>
<clustering>
<clus scale="   32.986">  2  9  1 -1</clus>
<clus scale="   96.258">  5  6 -1 -1</clus>
<clus scale="  114.679">  7  8 -1 -1</clus>
<clus scale="  202.680">  1  5  2 -1</clus>
<clus scale="   32.986">  2  5  1 -1</clus>
</clustering>
</event>
<event>
 9    1  0.1234700E-005  0.1098261E+03  0.7546771E-02  0.1261146E+00
         -2   -1    0    0    0  501 -0.00000000000E+00  0.00000000000E+00  0.13284966904E+03  0.13284966904E+03  0.00000000000E+00 0.  1.
          2   -1    0    0  502    0  0.00000000000E+00 -0.00000000000E+00 -0.18669340747E+03  0.18669340747E+03  0.00000000000E+00 0. -1.
         23    2    1    2    0    0 -0.57319723312E+02 -0.11609117345E+02  0.72566814987E+02  0.13006525831E+03  0.90723241217E+02 0.  0.
         23    2    1    2    0    0  0.73335144431E+02  0.26362854375E+02 -0.10242960426E+03  0.15708565260E+03  0.90061284267E+02 0.  0.
        -11    1    4    4    0    0  0.34676176256E+01 -0.29258875069E+02 -0.20508405423E+02  0.35898479568E+02  0.00000000000E+00 0.  1.
         11    1    4    4    0    0  0.69867526805E+02  0.55621729444E+02 -0.81921198840E+02  0.12118717303E+03  0.00000000000E+00 0. -1.
        -13    1    3    3    0    0  0.96636291945E+01 -0.22281000704E+02 -0.72265679086E+01  0.25338745141E+02  0.00000000000E+00 0. -1.
         13    1    3    3    0    0 -0.66983352506E+02  0.10671883360E+02  0.79793382896E+02  0.10472651317E+03  0.00000000000E+00 0.  1.
         21    1    1    2  502  501 -0.16015421119E+02 -0.14753737030E+02 -0.23980949157E+02  0.32392165603E+02  0.00000000000E+00 0.  1.
<scales pt_clust_5="13000.00000" pt_clust_6="13000.00000" pt_clust_7="13000.00000" pt_clust_8="13000.00000" pt_clust_9="21.77536"></scales>
<clustering>
<clus scale="   21.775">  2  9  1 -1</clus>
<clus scale="   90.061">  5  6 -1 -1</clus>
<clus scale="   90.723">  7  8 -1 -1</clus>
<clus scale="  109.280">  2  5  1 -1</clus>
<clus scale="   21.775">  2  5  1 -1</clus>
</clustering>
</event>
<event>
 9    1  0.1234700E-005  0.1044070E+03  0.7546771E-02  0.1271870E+00
          1   -1    0    0  502    0  0.00000000000E+00  0.00000000000E+00  0.11889504285E+04  0.11889504285E+04  0.00000000000E+00 0. -1.
         -1   -1    0    0    0  501 -0.00000000000E+00 -0.00000000000E+00 -0.15679419644E+02  0.15679419644E+02  0.00000000000E+00 0.  1.
         23    2    1    2    0    0  0.42290483608E+02 -0.45295860051E+02  0.31229744880E+03  0.33189972850E+03  0.93741843973E+02 0.  0.
         23    2    1    2    0    0 -0.82190906100E+00  0.23804283691E+02  0.53971211604E+03  0.54809117259E+03  0.92452397582E+02 0.  0.
        -11    1    4    4    0    0  0.16345035231E+02 -0.32605163083E+02  0.21349635466E+03  0.21658935867E+03  0.00000000000E+00 0. -1.
         11    1    4    4    0    0 -0.17166944292E+02  0.56409446774E+02  0.32621576138E+03  0.33150181393E+03  0.00000000000E+00 0.  1.
        -11    1    3    3    0    0  0.62257591169E+02 -0.49341905310E+02  0.29390878766E+03  0.30445526230E+03  0.00000000000E+00 0. -1.
         11    1    3    3    0    0 -0.19967107561E+02  0.40460452590E+01  0.18388661135E+02  0.27444466199E+02  0.00000000000E+00 0.  1.
         21    1    1    2  502  501 -0.41468574547E+02  0.21491576360E+02  0.32126144407E+03  0.32463894710E+03  0.00000000000E+00 0.  1.
<scales pt_clust_5="13000.00000" pt_clust_6="13000.00000" pt_clust_7="13000.00000" pt_clust_8="13000.00000" pt_clust_9="46.70686"></scales>
<clustering>
<clus scale="   46.707">  1  9  2 -1</clus>
<clus scale="   92.452">  5  6 -1 -1</clus>
<clus scale="   93.742">  7  8 -1 -1</clus>
<clus scale="  103.251">  1  5  2 -1</clus>
<clus scale="   46.707">  1  5  2 -1</clus>
</clustering>
</event>
<event>
 9    1  0.1234700E-005  0.1563498E+03  0.7546771E-02  0.1198303E+00
         -1   -1    0    0    0  501 -0.00000000000E+00  0.00000000000E+00  0.64665961793E+02  0.64665961793E+02  0.00000000000E+00 0.  1.
          1   -1    0    0  502    0  0.00000000000E+00 -0.00000000000E+00 -0.48419320610E+03  0.48419320610E+03  0.00000000000E+00 0. -1.
         23    2    1    2    0    0  0.68447834629E+02  0.71470463446E+02 -0.93454925985E+02  0.16325993267E+03  0.90149038903E+02 0.  0.
         23    2    1    2    0    0 -0.61811118635E+02 -0.10405461208E+03 -0.23292416529E+03  0.28669346615E+03  0.11528876821E+03 0.  0.
        -11    1    4    4    0    0 -0.22450123703E+02  0.19774211532E+02 -0.83390210261E+02  0.88594326361E+02  0.00000000000E+00 0. -1.
         11    1    4    4    0    0 -0.39360994933E+02 -0.12382882361E+03 -0.14953395502E+03  0.19809913979E+03  0.00000000000E+00 0.  1.
        -13    1    3    3    0    0  0.63963823045E+02  0.91285840508E+02 -0.67540764977E+02  0.13033123290E+03  0.00000000000E+00 0. -1.
         13    1    3    3    0    0  0.44840115840E+01 -0.19815377062E+02 -0.25914161008E+02  0.32928699773E+02  0.00000000000E+00 0.  1.
         21    1    1    2  502  501 -0.66367159936E+01  0.32584148634E+02 -0.93148153041E+02  0.98905769075E+02  0.00000000000E+00 0. -1.
<scales pt_clust_5="13000.00000" pt_clust_6="13000.00000" pt_clust_7="13000.00000" pt_clust_8="13000.00000" pt_clust_9="33.25316"></scales>
<clustering>
<clus scale="   33.253">  2  9  1 -1</clus>
<clus scale="   90.149">  7  8 -1 -1</clus>
<clus scale="  115.289">  5  6 -1 -1</clus>
<clus scale="  138.855">  1  7  2 -1</clus>
<clus scale="   33.253">  2  5  1 -1</clus>
</clustering>
</event>
<event>
 9    1  0.1234700E-005  0.9341290E+02  0.7546771E-02  0.1295024E+00
         -2   -1    0    0    0  501 -0.00000000000E+00  0.00000000000E+00  0.28003926008E+03  0.28003926008E+03  0.00000000000E+00 0.  1.
          2   -1    0    0  502    0  0.00000000000E+00 -0.00000000000E+00 -0.10490595752E+03  0.10490595752E+03  0.00000000000E+00 0. -1.
         23    2    1    2    0    0 -0.15481594935E+02 -0.63453190506E+01  0.21733662695E+03  0.23656658949E+03  0.91916260764E+02 0.  0.
         23    2    1    2    0    0  0.74525434737E+01 -0.16850441228E+02  0.59469956320E+01  0.94332700589E+02  0.92324503083E+02 0.  0.
        -11    1    4    4    0    0  0.33982447012E+02  0.17584318414E+02  0.26203805714E+02  0.46375148441E+02  0.00000000000E+00 0.  1.
         11    1    4    4    0    0 -0.26529903538E+02 -0.34434759642E+02 -0.20256810082E+02  0.47957552148E+02  0.00000000000E+00 0. -1.
        -11    1    3    3    0    0  0.33631334672E+02  0.17821550442E+02  0.10287905447E+03  0.10969400248E+03  0.00000000000E+00 0.  1.
         11    1    3    3    0    0 -0.49112929607E+02 -0.24166869493E+02  0.11445757248E+03  0.12687258701E+03  0.00000000000E+00 0. -1.
         21    1    1    2  502  501  0.80290514610E+01  0.23195760279E+02 -0.48150320030E+02  0.54045927518E+02  0.00000000000E+00 0. -1.
<scales pt_clust_5="13000.00000" pt_clust_6="13000.00000" pt_clust_7="13000.00000" pt_clust_8="13000.00000" pt_clust_9="24.54606"></scales>
<clustering>
<clus scale="   24.546">  2  9  1 -1</clus>
<clus scale="   91.916">  7  8 -1 -1</clus>
<clus scale="   92.325">  5  6 -1 -1</clus>
<clus scale="   93.009">  1  7  2 -1</clus>
<clus scale="   24.546">  2  5  1 -1</clus>
</clustering>
</event>
<event>
 9    1  0.1234700E-005  0.1419703E+03  0.7546771E-02  0.1211159E+00
          1   -1    0    0  502    0  0.00000000000E+00  0.00000000000E+00  0.56629179994E+03  0.56629179994E+03  0.00000000000E+00 0. -1.
         -1   -1    0    0    0  501 -0.00000000000E+00 -0.00000000000E+00 -0.51114809314E+03  0.51114809314E+03  0.00000000000E+00 0.  1.
         23    2    1    2    0    0  0.61521713069E+02 -0.93320280627E+02 -0.47948525828E+03  0.50067789126E+03  0.90987042685E+02 0.  0.
         23    2    1    2    0    0 -0.58802821920E+02 -0.12445517917E+02  0.31957730150E+03  0.33709345043E+03  0.88823870140E+02 0.  0.
        -11    1    3    3    0    0 -0.16934470666E+02 -0.51186016834E+02 -0.15105992334E+03  0.16039290837E+03  0.00000000000E+00 0. -1.
         11    1    3    3    0    0  0.78456183735E+02 -0.42134263793E+02 -0.32842533494E+03  0.34028498289E+03  0.00000000000E+00 0.  1.
        -11    1    4    4    0    0  0.14320619457E+02 -0.28633876788E+02  0.83819511920E+02  0.89725635245E+02  0.00000000000E+00 0.  1.
         11    1    4    4    0    0 -0.73123441377E+02  0.16188358871E+02  0.23575778958E+03  0.24736781518E+03  0.00000000000E+00 0. -1.
         21    1    1    2  502  501 -0.27188911487E+01  0.10576579854E+03  0.21505166359E+03  0.23966855139E+03  0.00000000000E+00 0. -1.
<scales pt_clust_5="13000.00000" pt_clust_6="13000.00000" pt_clust_7="13000.00000" pt_clust_8="13000.00000" pt_clust_9="105.80074"></scales>
<clustering>
<clus scale="   88.824">  7  8 -1 -1</clus>
<clus scale="   90.987">  5  6 -1 -1</clus>
<clus scale="  105.801">  1  9  2 -1</clus>
<clus scale="  140.594">  1  7  2 -1</clus>
<clus scale="  105.801">  1  5  2 -1</clus>
</clustering>
</event>
<event>
 9    1  0.1234700E-005  0.1314305E+03  0.7546771E-02  0.1226132E+00
         -3   -1    0    0    0  501 -0.00000000000E+00  0.00000000000E+00  0.14310028490E+03  0.14310028490E+03  0.00000000000E+00 0.  1.
          3   -1    0    0  502    0  0.00000000000E+00 -0.00000000000E+00 -0.20138845495E+03  0.20138845495E+03  0.00000000000E+00 0. -1.
         23    2    1    2    0    0 -0.30686669524E+02  0.68121597008E+02  0.67962188386E+01  0.11850986964E+03  0.91739723929E+02 0.  0.
         23    2    1    2    0    0  0.38089231042E+02 -0.11593984363E+03 -0.78792598740E+01  0.15105351126E+03  0.88669293812E+02 0.  0.
        -11    1    3    3    0    0 -0.60650833778E+02  0.42079427730E+02  0.20329847284E+02  0.76566993977E+02  0.00000000000E+00 0.  1.
         11    1    3    3    0    0  0.29964164254E+02  0.26042169278E+02 -0.13533628446E+02  0.41942875665E+02  0.00000000000E+00 0. -1.
        -11    1    4    4    0    0  0.56910036913E+02 -0.34046427972E+02 -0.95975793085E+01  0.67007649471E+02  0.00000000000E+00 0. -1.
         11    1    4    4    0    0 -0.18820805870E+02 -0.81893415662E+02  0.17183194345E+01  0.84045861791E+02  0.00000000000E+00 0.  1.
         21    1    1    2  502  501 -0.74025615184E+01  0.47818246627E+02 -0.57205129021E+02  0.74925358950E+02  0.00000000000E+00 0. -1.
<scales pt_clust_5="13000.00000" pt_clust_6="13000.00000" pt_clust_7="13000.00000" pt_clust_8="13000.00000" pt_clust_9="48.38784"></scales>
<clustering>
<clus scale="   48.388">  2  9  1 -1</clus>
<clus scale="   88.669">  7  8 -1 -1</clus>
<clus scale="   91.740">  5  6 -1 -1</clus>
<clus scale="  129.306">  2  7  1 -1</clus>
<clus scale="   48.388">  2  5  1 -1</clus>
</clustering>
</event>
<event>
 9    1  0.1234700E-005  0.1017188E+03  0.7546771E-02  0.1277000E+00
          2   -1    0    0  502    0  0.00000000000E+00  0.00000000000E+00  0.40176970176E+03  0.40176970176E+03  0.00000000000E+00 0. -1.
         -2   -1    0    0    0  501 -0.00000000000E+00 -0.00000000000E+00 -0.64982436529E+02  0.64982436529E+02  0.00000000000E+00 0.  1.
         23    2    1    2    0    0 -0.35637778386E+02  0.29118689147E+02  0.25235910179E+02  0.10535844090E+03  0.91354258798E+02 0.  0.
         23    2    1    2    0    0 -0.20934755889E+02 -0.63703844160E+02  0.16388760366E+03  0.19952594873E+03  0.91951149082E+02 0.  0.
        -11    1    3    3    0    0  0.11483975286E+02  0.40366228560E+02 -0.12677520660E+02  0.43841003942E+02  0.00000000000E+00 0.  1.
         11    1    3    3    0    0 -0.47121753672E+02 -0.11247539413E+02  0.37913430839E+02  0.61517436959E+02  0.00000000000E+00 0. -1.
        -11    1    4    4    0    0  0.29334221408E+01  0.22446818444E+02  0.20425360951E+02  0.30490326232E+02  0.00000000000E+00 0.  1.
         11    1    4    4    0    0 -0.23868178030E+02 -0.86150662604E+02  0.14346224271E+03  0.16903562250E+03  0.00000000000E+00 0. -1.
         21    1    1    2  502  501  0.56572534275E+02  0.34585155013E+02  0.14766375139E+03  0.16186774866E+03  0.00000000000E+00 0. -1.
<scales pt_clust_5="13000.00000" pt_clust_6="13000.00000" pt_clust_7="13000.00000" pt_clust_8="13000.00000" pt_clust_9="66.30675"></scales>
<clustering>
<clus scale="   66.307">  1  9  2 -1</clus>
<clus scale="   91.354">  5  6 -1 -1</clus>
<clus scale="   91.951">  7  8 -1 -1</clus>
<clus scale="  101.180">  2  5  1 -1</clus>
<clus scale="   66.307">  1  5  2 -1</clus>
</clustering>
</event>
<event>
 9    1  0.1234700E-005  0.1019794E+03  0.7546771E-02  0.1276394E+00
          1   -1    0    0  502    0  0.00000000000E+00  0.00000000000E+00  0.28757067983E+03  0.28757067983E+03  0.00000000000E+00 0. -1.
         -1   -1    0    0    0  501 -0.00000000000E+00 -0.00000000000E+00 -0.10979134953E+03  0.10979134953E+03  0.00000000000E+00 0.  1.
         23    2    1    2    0    0  0.54440785148E+01  0.53176515748E+02 -0.58256642745E+02  0.12084175697E+03  0.91386618204E+02 0.  0.
         23    2    1    2    0    0  0.12961669154E+02 -0.45542251792E+01  0.14601683761E+03  0.17256670856E+03  0.90937375165E+02 0.  0.
        -11    1    4    4    0    0 -0.17328498837E+02 -0.10581032302E+02 -0.28744953416E+01  0.20506043986E+02  0.00000000000E+00 0.  1.
         11    1    4    4    0    0  0.30290167991E+02  0.60268071223E+01  0.14889133295E+03  0.15206066457E+03  0.00000000000E+00 0. -1.
        -13    1    3    3    0    0  0.25697106631E+02  0.65015541062E+02 -0.65994954554E+02  0.96138940577E+02  0.00000000000E+00 0.  1.
         13    1    3    3    0    0 -0.20253028117E+02 -0.11839025314E+02  0.77383118087E+01  0.24702816397E+02  0.00000000000E+00 0. -1.
         21    1    1    2  502  501 -0.18405747669E+02 -0.48622290568E+02  0.90019135431E+02  0.10395356382E+03  0.00000000000E+00 0.  1.
<scales pt_clust_5="13000.00000" pt_clust_6="13000.00000" pt_clust_7="13000.00000" pt_clust_8="13000.00000" pt_clust_9="51.98941"></scales>
<clustering>
<clus scale="   51.989">  1  9  2 -1</clus>
<clus scale="   90.937">  5  6 -1 -1</clus>
<clus scale="   91.387">  7  8 -1 -1</clus>
<clus scale="  101.577">  1  5  2 -1</clus>
<clus scale="   51.989">  1  5  2 -1</clus>
</clustering>
</event>
<event>
 9    1  0.1234700E-005  0.1372643E+03  0.7546771E-02  0.1217328E+00
         -1   -1    0    0    0  501 -0.00000000000E+00  0.00000000000E+00  0.83911266130E+02  0.83911266130E+02  0.00000000000E+00 0.  1.
          1   -1    0    0  502    0  0.00000000000E+00 -0.00000000000E+00 -0.28172369855E+03  0.28172369855E+03  0.00000000000E+00 0. -1.
         23    2    1    2    0    0 -0.95743893371E+02  0.42876525049E+02 -0.59518801096E+02  0.15043499471E+03  0.89905007825E+02 0.  0.
         23    2    1    2    0    0  0.99443249210E+02 -0.23001965961E+02 -0.13892785233E+03  0.19497410611E+03  0.91081851374E+02 0.  0.
        -11    1    3    3    0    0 -0.15604524358E+02 -0.25587367337E+02 -0.12443033460E+01  0.29996047048E+02  0.00000000000E+00 0.  1.
         11    1    3    3    0    0 -0.80139369013E+02  0.68463892386E+02 -0.58274497750E+02  0.12043894766E+03  0.00000000000E+00 0. -1.
        -11    1    4    4    0    0  0.47300610382E+02 -0.56481930746E+02 -0.62729126052E+02  0.96760009811E+02  0.00000000000E+00 0.  1.
         11    1    4    4    0    0  0.52142638828E+02  0.33479964785E+02 -0.76198726279E+02  0.98214096302E+02  0.00000000000E+00 0. -1.
         21    1    1    2  502  501 -0.36993558387E+01 -0.19874559088E+02  0.63422100380E+00  0.20225863859E+02  0.00000000000E+00 0.  1.
<scales pt_clust_5="13000.00000" pt_clust_6="13000.00000" pt_clust_7="13000.00000" pt_clust_8="13000.00000" pt_clust_9="20.21592"></scales>
<clustering>
<clus scale="   20.216">  1  9  2 -1</clus>
<clus scale="   89.905">  5  6 -1 -1</clus>
<clus scale="   91.082">  7  8 -1 -1</clus>
<clus scale="  136.486">  1  5  2 -1</clus>
<clus scale="  137.264">  2  5  1 -1</clus>
</clustering>
</event>
<event>
 9    1  0.1234700E-005  0.1092468E+03  0.7546771E-02  0.1262769E+00
         -2   -1    0    0    0  501 -0.00000000000E+00  0.00000000000E+00  0.12737896165E+03  0.12737896165E+03  0.00000000000E+00 0.  1.
          2   -1    0    0  502    0  0.00000000000E+00 -0.00000000000E+00 -0.27976978989E+03  0.27976978989E+03  0.00000000000E+00 0. -1.
         23    2    1    2    0    0  0.39606089071E+02 -0.53187353840E+02  0.72616673693E+02  0.13419383428E+03  0.91308635739E+02 0.  0.
         23    2    1    2    0    0 -0.17267429939E+02  0.14346942644E+02 -0.93324191526E+02  0.13385751443E+03  0.93297537727E+02 0.  0.
        -11    1    4    4    0    0 -0.82360091592E+01 -0.39730912912E+02 -0.32644257641E+02  0.52077104802E+02  0.00000000000E+00 0.  1.
         11    1    4    4    0    0 -0.90314207795E+01  0.54077855556E+02 -0.60679933885E+02  0.81780409629E+02  0.00000000000E+00 0. -1.
        -13    1    3    3    0    0 -0.10189249550E+02 -0.21243128685E+02  0.71220659844E+02  0.75016489596E+02  0.00000000000E+00 0.  1.
         13    1    3    3    0    0  0.49795338621E+02 -0.31944225155E+02  0.13960138484E+01  0.59177344683E+02  0.00000000000E+00 0. -1.
         21    1    1    2  502  501 -0.22338659133E+02  0.38840411196E+02 -0.13168331041E+03  0.13909740283E+03  0.00000000000E+00 0. -1.
<scales pt_clust_5="13000.00000" pt_clust_6="13000.00000" pt_clust_7="13000.00000" pt_clust_8="13000.00000" pt_clust_9="44.80617"></scales>
<clustering>
<clus scale="   44.806">  2  9  1 -1</clus>
<clus scale="   91.309">  7  8 -1 -1</clus>
<clus scale="   93.298">  5  6 -1 -1</clus>
<clus scale="  107.553">  1  7  2 -1</clus>
<clus scale="   44.806">  2  5  1 -1</clus>
</clustering>
</event>
<event>
 9    1  0.1234700E-005  0.1680766E+03  0.7546771E-02  0.1180045E+00
          2   -1    0    0  502    0  0.00000000000E+00  0.00000000000E+00  0.33260173197E+03  0.33260173197E+03  0.00000000000E+00 0. -1.
         -2   -1    0    0    0  501 -0.00000000000E+00 -0.00000000000E+00 -0.11430471168E+03  0.11430471168E+03  0.00000000000E+00 0.  1.
         23    2    1    2    0    0 -0.13626861576E+03  0.37361836203E+02  0.56878819026E+02  0.17804093752E+03  0.92186403201E+02 0.  0.
         23    2    1    2    0    0  0.14132899345E+03  0.53813914342E+01  0.11111383124E+03  0.20266036603E+03  0.93392166167E+02 0.  0.
        -11    1    3    3    0    0 -0.96233615923E+02 -0.20241248947E+02  0.28680150609E+02  0.10243616564E+03  0.00000000000E+00 0.  1.
         11    1    3    3    0    0 -0.40034999833E+02  0.57603085149E+02  0.28198668417E+02  0.75604771879E+02  0.00000000000E+00 0. -1.
        -13    1    4    4    0    0  0.10104358077E+03 -0.24479617957E+02  0.31614495716E+02  0.10866707528E+03  0.00000000000E+00 0.  1.
         13    1    4    4    0    0  0.40285412680E+02  0.29861009392E+02  0.79499335520E+02  0.93993290744E+02  0.00000000000E+00 0. -1.
         21    1    1    2  502  501 -0.50603776975E+01 -0.42743227637E+02  0.50304370030E+02  0.66205140098E+02  0.00000000000E+00 0.  1.
<scales pt_clust_5="13000.00000" pt_clust_6="13000.00000" pt_clust_7="13000.00000" pt_clust_8="13000.00000" pt_clust_9="43.04173"></scales>
<clustering>
<clus scale="   43.042">  1  9  2 -1</clus>
<clus scale="   92.186">  5  6 -1 -1</clus>
<clus scale="   93.392">  7  8 -1 -1</clus>
<clus scale="  167.410">  2  5  1 -1</clus>
<clus scale="   43.042">  1  5  2 -1</clus>
</clustering>
</event>
<event>
 9    1  0.1234700E-005  0.1172392E+03  0.7546771E-02  0.1252030E+00
          1   -1    0    0  502    0  0.00000000000E+00  0.00000000000E+00  0.36698814345E+03  0.36698814345E+03  0.00000000000E+00 0. -1.
         -1   -1    0    0    0  501 -0.00000000000E+00 -0.00000000000E+00 -0.10967244608E+03  0.10967244608E+03  0.00000000000E+00 0.  1.
         23    2    1    2    0    0 -0.36900333239E+02  0.61025131785E+02 -0.54340652868E+02  0.12717287834E+03  0.90190537906E+02 0.  0.
         23    2    1    2    0    0  0.49034931570E+02 -0.82924280999E+02  0.19980428990E+03  0.23486788475E+03  0.77203031878E+02 0.  0.
        -11    1    4    4    0    0  0.52540550558E+02 -0.13928628218E+02  0.86166102059E+02  0.10187793324E+03  0.00000000000E+00 0.  1.
         11    1    4    4    0    0 -0.35056189874E+01 -0.68995652781E+02  0.11363818784E+03  0.13298995151E+03  0.00000000000E+00 0. -1.
        -11    1    3    3    0    0 -0.38286557925E+02 -0.94803506999E+01 -0.22613419788E+01  0.39507609832E+02  0.00000000000E+00 0.  1.
         11    1    3    3    0    0  0.13862246858E+01  0.70505482485E+02 -0.52079310889E+02  0.87665268504E+02  0.00000000000E+00 0. -1.
         21    1    1    2  502  501 -0.12134598331E+02  0.21899149214E+02  0.11185206034E+03  0.11461982645E+03  0.00000000000E+00 0.  1.
<scales pt_clust_5="13000.00000" pt_clust_6="13000.00000" pt_clust_7="13000.00000" pt_clust_8="13000.00000" pt_clust_9="25.03640"></scales>
<clustering>
<clus scale="   25.036">  1  9  2 -1</clus>
<clus scale="   77.203">  5  6 -1 -1</clus>
<clus scale="   90.191">  7  8 -1 -1</clus>
<clus scale="  107.569">  1  5  2 -1</clus>
<clus scale="   25.036">  1  5  2 -1</clus>
</clustering>
</event>
<event>
 9    1  0.1234700E-005  0.1104943E+03  0.7546771E-02  0.1262218E+00
         -1   -1    0    0    0  501 -0.00000000000E+00  0.00000000000E+00  0.31891708969E+03  0.31891708969E+03  0.00000000000E+00 0.  1.
          1   -1    0    0  502    0  0.00000000000E+00 -0.00000000000E+00 -0.12106774983E+03  0.12106774983E+03  0.00000000000E+00 0. -1.
         23    2    1    2    0    0 -0.62772001619E+02  0.47913808791E+01  0.26902175042E+03  0.29137463667E+03  0.92537533878E+02 0.  0.
         23    2    1    2    0    0  0.36790735556E+02 -0.11439278514E+02 -0.76368044022E+02  0.12129326056E+03  0.85997451090E+02 0.  0.
        -11    1    4    4    0    0 -0.41341777183E+01 -0.41865804666E+02 -0.44087416586E+02  0.60938799848E+02  0.00000000000E+00 0. -1.
         11    1    4    4    0    0  0.40924913274E+02  0.30426526152E+02 -0.32280627437E+02  0.60354460712E+02  0.00000000000E+00 0.  1.
        -13    1    3    3    0    0 -0.36912548340E+02 -0.36490587786E+02  0.74181181839E+02  0.90536992224E+02  0.00000000000E+00 0. -1.
         13    1    3    3    0    0 -0.25859453278E+02  0.41281968665E+02  0.19484056858E+03  0.20083764445E+03  0.00000000000E+00 0.  1.
         21    1    1    2  502  501  0.25981266063E+02  0.66478976350E+01  0.51956334533E+01  0.27316942292E+02  0.00000000000E+00 0. -1.
<scales pt_clust_5="13000.00000" pt_clust_6="13000.00000" pt_clust_7="13000.00000" pt_clust_8="13000.00000" pt_clust_9="26.81829"></scales>
<clustering>
<clus scale="   26.818">  2  9  1 -1</clus>
<clus scale="   85.997">  5  6 -1 -1</clus>
<clus scale="   92.538">  7  8 -1 -1</clus>
<clus scale="  105.078">  2  5  1 -1</clus>
<clus scale="   26.818">  2  5  1 -1</clus>
</clustering>
</event>
<event>
 9    1  0.1234700E-005  0.1610771E+03  0.7546771E-02  0.1187761E+00
         -2   -1    0    0    0  501 -0.00000000000E+00  0.00000000000E+00  0.22003241243E+03  0.22003241243E+03  0.00000000000E+00 0.  1.
          2   -1    0    0  502    0  0.00000000000E+00 -0.00000000000E+00 -0.22648736653E+03  0.22648736653E+03  0.00000000000E+00 0. -1.
         23    2    1    2    0    0  0.99610823578E+02 -0.11533085720E+03  0.55981351589E+02  0.18641028712E+03  0.91604370107E+02 0.  0.
         23    2    1    2    0    0 -0.11462802135E+03  0.39072691075E+02  0.13547817248E+02  0.15141537485E+03  0.89871096138E+02 0.  0.
        -13    1    4    4    0    0 -0.47507489228E+02  0.10424586517E+02  0.50073261812E+02  0.69806626371E+02  0.00000000000E+00 0.  1.
         13    1    4    4    0    0 -0.67120532121E+02  0.28648104558E+02 -0.36525444564E+02  0.81608748474E+02  0.00000000000E+00 0. -1.
        -13    1    3    3    0    0  0.29861994874E+02 -0.58863118652E+02 -0.19845172989E+02  0.68923409421E+02  0.00000000000E+00 0. -1.
         13    1    3    3    0    0  0.69748828704E+02 -0.56467738552E+02  0.75826524578E+02  0.11748687770E+03  0.00000000000E+00 0.  1.
         21    1    1    2  502  501  0.15017197771E+02  0.76258166130E+02 -0.75984122937E+02  0.10869411699E+03  0.00000000000E+00 0. -1.
<scales pt_clust_5="13000.00000" pt_clust_6="13000.00000" pt_clust_7="13000.00000" pt_clust_8="13000.00000" pt_clust_9="77.72274"></scales>
<clustering>
<clus scale="   77.723">  2  9  1 -1</clus>
<clus scale="   89.871">  5  6 -1 -1</clus>
<clus scale="   91.604">  7  8 -1 -1</clus>
<clus scale="  160.098">  2  5  1 -1</clus>
<clus scale="   77.723">  2  5  1 -1</clus>
</clustering>
</event>
<event>
 9    1  0.1234700E-005  0.9769592E+02  0.7546771E-02  0.1288815E+00
         -2   -1    0    0    0  501 -0.00000000000E+00  0.00000000000E+00  0.39521714493E+02  0.39521714493E+02  0.00000000000E+00 0.  1.
          2   -1    0    0  502    0  0.00000000000E+00 -0.00000000000E+00 -0.36352201552E+03  0.36352201552E+03  0.00000000000E+00 0. -1.
         23    2    1    2    0    0 -0.28317742143E+01 -0.47664495768E+02 -0.80660966620E+02  0.13064273232E+03  0.91002246517E+02 0.  0.
         23    2    1    2    0    0  0.50697225315E+01  0.18045664710E+02 -0.13573953214E+03  0.16077662304E+03  0.84098476989E+02 0.  0.
        -11    1    3    3    0    0 -0.23574676899E+02  0.18917444907E+02 -0.11258375409E+02  0.32255017122E+02  0.00000000000E+00 0. -1.
         11    1    3    3    0    0  0.20742902684E+02 -0.66581940675E+02 -0.69402591211E+02  0.98387715202E+02  0.00000000000E+00 0.  1.
        -13    1    4    4    0    0  0.17925730746E+02 -0.24180669711E+02 -0.18087182141E+02  0.35116702127E+02  0.00000000000E+00 0.  1.
         13    1    4    4    0    0 -0.12856008214E+02  0.42226334421E+02 -0.11765234999E+03  0.12565992092E+03  0.00000000000E+00 0. -1.
         21    1    1    2  502  501 -0.22379483172E+01  0.29618831058E+02 -0.10759980227E+03  0.11162437464E+03  0.00000000000E+00 0. -1.
<scales pt_clust_5="13000.00000" pt_clust_6="13000.00000" pt_clust_7="13000.00000" pt_clust_8="13000.00000" pt_clust_9="29.70326"></scales>
<clustering>
<clus scale="   29.703">  2  9  1 -1</clus>
<clus scale="   84.098">  7  8 -1 -1</clus>
<clus scale="   91.002">  5  6 -1 -1</clus>
<clus scale="   91.300">  2  7  1 -1</clus>
<clus scale="   29.703">  2  5  1 -1</clus>
</clustering>
</event>
<event>
 9    1  0.1234700E-005  0.1112842E+03  0.7546771E-02  0.1258528E+00
         -2   -1    0    0    0  501 -0.00000000000E+00  0.00000000000E+00  0.21269508383E+03  0.21269508383E+03  0.00000000000E+00 0.  1.
          2   -1    0    0  502    0  0.00000000000E+00 -0.00000000000E+00 -0.87175179256E+02  0.87175179256E+02  0.00000000000E+00 0. -1.
         23    2    1    2    0    0 -0.66236168851E+02  0.14777330740E+02  0.11327993816E+03  0.16044769338E+03  0.91134616654E+02 0.  0.
         23    2    1    2    0    0  0.57460064666E+02  0.13179671390E+02  0.42493142346E+00  0.10782812361E+03  0.90284887465E+02 0.  0.
        -13    1    3    3    0    0 -0.18781135507E+02 -0.33043628470E+02  0.14077613430E+02  0.40531366043E+02  0.00000000000E+00 0.  1.
         13    1    3    3    0    0 -0.47455033344E+02  0.47820959210E+02  0.99202324731E+02  0.11991632733E+03  0.00000000000E+00 0. -1.
        -13    1    4    4    0    0  0.79913001136E+02  0.26603116547E+01 -0.10666209948E+02  0.80665562934E+02  0.00000000000E+00 0.  1.
         13    1    4    4    0    0 -0.22452936471E+02  0.10519359735E+02  0.11091141371E+02  0.27162560673E+02  0.00000000000E+00 0. -1.
         21    1    1    2  502  501  0.87761041857E+01 -0.27957002130E+02  0.11815034994E+02  0.31594446105E+02  0.00000000000E+00 0.  1.
<scales pt_clust_5="13000.00000" pt_clust_6="13000.00000" pt_clust_7="13000.00000" pt_clust_8="13000.00000" pt_clust_9="29.30212"></scales>
<clustering>
<clus scale="   29.302">  2  9  1 -1</clus>
<clus scale="   90.285">  7  8 -1 -1</clus>
<clus scale="   91.135">  5  6 -1 -1</clus>
<clus scale="  110.589">  2  7  1 -1</clus>
<clus scale="   29.302">  2  5  1 -1</clus>
</clustering>
</event>
<event>
 9    1  0.1234700E-005  0.1578721E+03  0.7546771E-02  0.1191136E+00
         -1   -1    0    0    0  501 -0.00000000000E+00  0.00000000000E+00  0.47371036262E+02  0.47371036262E+02  0.00000000000E+00 0.  1.
          1   -1    0    0  502    0  0.00000000000E+00 -0.00000000000E+00 -0.67415121203E+03  0.67415121203E+03  0.00000000000E+00 0. -1.
         23    2    1    2    0    0  0.98639116192E+02 -0.10000593823E+03 -0.22086465195E+03  0.27720720811E+03  0.91278578110E+02 0.  0.
         23    2    1    2    0    0 -0.90516547178E+02  0.70142617170E+02 -0.29823185492E+03  0.33227234020E+03  0.91375252216E+02 0.  0.
        -11    1    4    4    0    0 -0.25231801948E+02  0.18382645448E+02 -0.10837798526E+02  0.33045776736E+02  0.00000000000E+00 0.  1.
         11    1    4    4    0    0 -0.65284745230E+02  0.51759971722E+02 -0.28739405640E+03  0.29922656347E+03  0.00000000000E+00 0. -1.
        -13    1    3    3    0    0  0.66980639254E+02 -0.98293380794E+02 -0.21389887947E+03  0.24474624692E+03  0.00000000000E+00 0.  1.
         13    1    3    3    0    0  0.31658476939E+02 -0.17125574358E+01 -0.69657724797E+01  0.32460961188E+02  0.00000000000E+00 0. -1.
         21    1    1    2  502  501 -0.81225690145E+01  0.29863321060E+02 -0.10768366890E+03  0.11204269998E+03  0.00000000000E+00 0.  1.
<scales pt_clust_5="13000.00000" pt_clust_6="13000.00000" pt_clust_7="13000.00000" pt_clust_8="13000.00000" pt_clust_9="30.94825"></scales>
<clustering>
<clus scale="   30.948">  2  9  1 -1</clus>
<clus scale="   91.279">  7  8 -1 -1</clus>
<clus scale="   91.375">  5  6 -1 -1</clus>
<clus scale="  157.816">  1  7  2 -1</clus>
<clus scale="   30.948">  2  5  1 -1</clus>
</clustering>
</event>
<event>
 9    1  0.1234700E-005  0.1009879E+03  0.7546771E-02  0.1278448E+00
          2   -1    0    0  502    0  0.00000000000E+00  0.00000000000E+00  0.17045697430E+03  0.17045697430E+03  0.00000000000E+00 0.  1.
         -2   -1    0    0    0  501 -0.00000000000E+00 -0.00000000000E+00 -0.14477526701E+03  0.14477526701E+03  0.00000000000E+00 0. -1.
         23    2    1    2    0    0  0.15137372542E+01 -0.41883983943E+02 -0.86365585630E+02  0.13195250403E+03  0.90531151696E+02 0.  0.
         23    2    1    2    0    0  0.31804106050E+02  0.52488418428E+02  0.90066631159E+02  0.14197983166E+03  0.90993072918E+02 0.  0.
        -11    1    4    4    0    0 -0.73086046303E+01  0.23626929725E+02  0.90036380355E+02  0.93371287328E+02  0.00000000000E+00 0.  1.
         11    1    4    4    0    0  0.39112710680E+02  0.28861488703E+02  0.30250803240E-01  0.48608544331E+02  0.00000000000E+00 0. -1.
        -13    1    3    3    0    0  0.23699209392E+02 -0.39955686131E+02 -0.96792354219E+02  0.10736325822E+03  0.00000000000E+00 0. -1.
         13    1    3    3    0    0 -0.22185472138E+02 -0.19282978113E+01  0.10426768589E+02  0.24589245812E+02  0.00000000000E+00 0.  1.
         21    1    1    2  502  501 -0.33317843304E+02 -0.10604434486E+02  0.21980661759E+02  0.41299905624E+02  0.00000000000E+00 0.  1.
<scales pt_clust_5="13000.00000" pt_clust_6="13000.00000" pt_clust_7="13000.00000" pt_clust_8="13000.00000" pt_clust_9="34.96474"></scales>
<clustering>
<clus scale="   34.965">  1  9  2 -1</clus>
<clus scale="   90.531">  7  8 -1 -1</clus>
<clus scale="   90.993">  5  6 -1 -1</clus>
<clus scale="  100.572">  2  7  1 -1</clus>
<clus scale="   34.965">  1  5  2 -1</clus>
</clustering>
</event>
<event>
 9    1  0.1234700E-005  0.1151792E+03  0.7546771E-02  0.1251624E+00
          2   -1    0    0  502    0  0.00000000000E+00  0.00000000000E+00  0.71297237992E+03  0.71297237992E+03  0.00000000000E+00 0. -1.
         -2   -1    0    0    0  501 -0.00000000000E+00 -0.00000000000E+00 -0.38644046727E+02  0.38644046727E+02  0.00000000000E+00 0.  1.
         23    2    1    2    0    0 -0.11433387598E+02  0.72910392938E+02  0.10540415761E+03  0.15878339890E+03  0.93034851386E+02 0.  0.
         23    2    1    2    0    0  0.46110211869E+02 -0.37613988810E+02  0.46487753245E+03  0.47762008476E+03  0.92026416844E+02 0.  0.
        -13    1    3    3    0    0  0.38823613428E+02  0.19967775033E+02  0.54304141489E+02  0.69677290291E+02  0.00000000000E+00 0. -1.
         13    1    3    3    0    0 -0.50257001027E+02  0.52942617906E+02  0.51100016124E+02  0.89106108605E+02  0.00000000000E+00 0.  1.
        -13    1    4    4    0    0  0.61128718211E+02 -0.56839860894E+02  0.39127903567E+03  0.40008345845E+03  0.00000000000E+00 0. -1.
         13    1    4    4    0    0 -0.15018506343E+02  0.19225872084E+02  0.73598496788E+02  0.77536626311E+02  0.00000000000E+00 0.  1.
         21    1    1    2  502  501 -0.34676824270E+02 -0.35296404128E+02  0.10404664313E+03  0.11521294299E+03  0.00000000000E+00 0. -1.
<scales pt_clust_5="13000.00000" pt_clust_6="13000.00000" pt_clust_7="13000.00000" pt_clust_8="13000.00000" pt_clust_9="49.48048"></scales>
<clustering>
<clus scale="   49.480">  1  9  2 -1</clus>
<clus scale="   92.026">  7  8 -1 -1</clus>
<clus scale="   93.035">  5  6 -1 -1</clus>
<clus scale="  114.366">  1  7  2 -1</clus>
<clus scale="   49.480">  1  5  2 -1</clus>
</clustering>
</event>
<event>
 9    1  0.1234700E-005  0.1681617E+03  0.7546771E-02  0.1180117E+00
         -1   -1    0    0    0  501 -0.00000000000E+00  0.00000000000E+00  0.58468517681E+03  0.58468517681E+03  0.00000000000E+00 0.  1.
          1   -1    0    0  502    0  0.00000000000E+00 -0.00000000000E+00 -0.13041355826E+03  0.13041355826E+03  0.00000000000E+00 0. -1.
         23    2    1    2    0    0  0.11941080149E+03 -0.97169324142E+02  0.41162336652E+03  0.44840829157E+03  0.89080766795E+02 0.  0.
         23    2    1    2    0    0 -0.54437275270E+02  0.10729876777E+03  0.98520191827E+02  0.18040117189E+03  0.91443491392E+02 0.  0.
        -13    1    3    3    0    0  0.92308912834E+02 -0.10994428718E+03  0.37194999817E+03  0.39869221564E+03  0.00000000000E+00 0.  1.
         13    1    3    3    0    0  0.27101888656E+02  0.12774963038E+02  0.39673368353E+02  0.49716075930E+02  0.00000000000E+00 0. -1.
        -13    1    4    4    0    0  0.75316701083E+01  0.79219858042E+02  0.72214265493E+02  0.10745888564E+03  0.00000000000E+00 0.  1.
         13    1    4    4    0    0 -0.61968945378E+02  0.28078909730E+02  0.26305926334E+02  0.72942286249E+02  0.00000000000E+00 0. -1.
         21    1    1    2  502  501 -0.64973526220E+02 -0.10129443630E+02 -0.55871939801E+02  0.86289271609E+02  0.00000000000E+00 0. -1.
<scales pt_clust_5="13000.00000" pt_clust_6="13000.00000" pt_clust_7="13000.00000" pt_clust_8="13000.00000" pt_clust_9="65.75838"></scales>
<clustering>
<clus scale="   65.758">  2  9  1 -1</clus>
<clus scale="   89.081">  5  6 -1 -1</clus>
<clus scale="   91.443">  7  8 -1 -1</clus>
<clus scale="  166.889">  1  5  2 -1</clus>
<clus scale="   65.758">  2  5  1 -1</clus>
</clustering>
</event>
<event>
 9    1  0.1234700E-005  0.2571530E+03  0.7546771E-02  0.1108889E+00
          1   -1    0    0  502    0  0.00000000000E+00  0.00000000000E+00  0.40181418946E+03  0.40181418946E+03  0.00000000000E+00 0. -1.
         -1   -1    0    0    0  501 -0.00000000000E+00 -0.00000000000E+00 -0.24237977250E+03  0.24237977250E+03  0.00000000000E+00 0.  1.
         23    2    1    2    0    0  0.22965060614E+03 -0.62920238592E+02 -0.65719284619E+02  0.26350189730E+03  0.91738041109E+02 0.  0.
         23    2    1    2    0    0 -0.24720184256E+03  0.24719738790E+02  0.19946836352E+03  0.33142685709E+03  0.91303434248E+02 0.  0.
        -11    1    4    4    0    0 -0.11646611655E+03  0.29068692249E+02  0.43058654428E+02  0.12752800827E+03  0.00000000000E+00 0.  1.
         11    1    4    4    0    0 -0.13073572602E+03 -0.43489534594E+01  0.15640970909E+03  0.20389884882E+03  0.00000000000E+00 0. -1.
        -13    1    3    3    0    0  0.21561247588E+03 -0.78305774838E+02 -0.74083179305E+02  0.24105777644E+03  0.00000000000E+00 0.  1.
         13    1    3    3    0    0  0.14038130259E+02  0.15385536246E+02  0.83638946869E+01  0.22444120858E+02  0.00000000000E+00 0. -1.
         21    1    1    2  502  501  0.17551236428E+02  0.38200499802E+02  0.25685338069E+02  0.49265207571E+02  0.00000000000E+00 0.  1.
<scales pt_clust_5="13000.00000" pt_clust_6="13000.00000" pt_clust_7="13000.00000" pt_clust_8="13000.00000" pt_clust_9="42.03955"></scales>
<clustering>
<clus scale="   42.040">  1  9  2 -1</clus>
<clus scale="   91.303">  5  6 -1 -1</clus>
<clus scale="   91.738">  7  8 -1 -1</clus>
<clus scale="  256.998">  1  5  2 -1</clus>
<clus scale="   42.040">  1  5  2 -1</clus>
</clustering>
</event>
<event>
 9    1  0.1234700E-005  0.1176438E+03  0.7546771E-02  0.1247639E+00
         -1   -1    0    0    0  501 -0.00000000000E+00  0.00000000000E+00  0.20521264902E+02  0.20521264902E+02  0.00000000000E+00 0.  1.
          1   -1    0    0  502    0  0.00000000000E+00 -0.00000000000E+00 -0.87938261226E+03  0.87938261226E+03  0.00000000000E+00 0. -1.
         23    2    1    2    0    0 -0.57981629638E+02 -0.46346416954E+02 -0.33604268742E+03  0.35654159474E+03  0.93206015221E+02 0.  0.
         23    2    1    2    0    0  0.33516514398E+02  0.64107026527E+02 -0.38472594775E+03  0.40199899767E+03  0.91411551057E+02 0.  0.
        -13    1    3    3    0    0 -0.27527723695E+02  0.26072040326E+02 -0.14730775582E+03  0.15210884847E+03  0.00000000000E+00 0. -1.
         13    1    3    3    0    0 -0.30453905944E+02 -0.72418457280E+02 -0.18873493160E+03  0.20443274627E+03  0.00000000000E+00 0.  1.
        -13    1    4    4    0    0  0.25133107503E+02 -0.17494205224E+02 -0.15676874705E+03  0.15973152589E+03  0.00000000000E+00 0.  1.
         13    1    4    4    0    0  0.83834068955E+01  0.81601231751E+02 -0.22795720070E+03  0.24226747179E+03  0.00000000000E+00 0. -1.
         21    1    1    2  502  501  0.24465115240E+02 -0.17760609573E+02 -0.13809271218E+03  0.14136328475E+03  0.00000000000E+00 0. -1.
<scales pt_clust_5="13000.00000" pt_clust_6="13000.00000" pt_clust_7="13000.00000" pt_clust_8="13000.00000" pt_clust_9="30.23212"></scales>
<clustering>
<clus scale="   30.232">  2  9  1 -1</clus>
<clus scale="   91.412">  7  8 -1 -1</clus>
<clus scale="   93.206">  5  6 -1 -1</clus>
<clus scale="  116.227">  2  7  1 -1</clus>
<clus scale="   30.232">  2  5  1 -1</clus>
</clustering>
</event>
<event>
 9    1  0.1234700E-005  0.9292590E+02  0.7546771E-02  0.1296364E+00
          1   -1    0    0  502    0  0.00000000000E+00  0.00000000000E+00  0.18698744188E+03  0.18698744188E+03  0.00000000000E+00 0. -1.
         -1   -1    0    0    0  501 -0.00000000000E+00 -0.00000000000E+00 -0.80540431365E+02  0.80540431365E+02  0.00000000000E+00 0.  1.
         23    2    1    2    0    0  0.37563055430E+00  0.62036591949E+01 -0.45628872239E+01  0.92243523068E+02  0.91920732822E+02 0.  0.
         23    2    1    2    0    0  0.15077009154E+02 -0.23462953879E+02  0.45150518823E+02  0.10546941540E+03  0.91144949528E+02 0.  0.
        -13    1    3    3    0    0  0.18425366997E+02 -0.13512701231E+02  0.36609515800E+02  0.43154882582E+02  0.00000000000E+00 0. -1.
         13    1    3    3    0    0 -0.18049736442E+02  0.19716360426E+02 -0.41172403024E+02  0.49088640487E+02  0.00000000000E+00 0.  1.
        -13    1    4    4    0    0  0.21327999902E+02 -0.53264176706E+02  0.87934005813E+01  0.58045499341E+02  0.00000000000E+00 0. -1.
         13    1    4    4    0    0 -0.62509907477E+01  0.29801222826E+02  0.36357118241E+02  0.47423916056E+02  0.00000000000E+00 0.  1.
         21    1    1    2  502  501 -0.15452639708E+02  0.17259294685E+02  0.65859378917E+02  0.69814934780E+02  0.00000000000E+00 0. -1.
<scales pt_clust_5="13000.00000" pt_clust_6="13000.00000" pt_clust_7="13000.00000" pt_clust_8="13000.00000" pt_clust_9="23.16608"></scales>
<clustering>
<clus scale="   23.166">  1  9  2 -1</clus>
<clus scale="   91.145">  7  8 -1 -1</clus>
<clus scale="   91.921">  5  6 -1 -1</clus>
<clus scale="   92.159">  1  7  2 -1</clus>
<clus scale="   23.166">  1  5  2 -1</clus>
</clustering>
</event>
<event>
 9    1  0.1234700E-005  0.1330550E+03  0.7546771E-02  0.1226924E+00
          1   -1    0    0  502    0  0.00000000000E+00  0.00000000000E+00  0.99859296619E+02  0.99859296619E+02  0.00000000000E+00 0. -1.
         -1   -1    0    0    0  501 -0.00000000000E+00 -0.00000000000E+00 -0.43506370703E+03  0.43506370703E+03  0.00000000000E+00 0.  1.
         23    2    1    2    0    0  0.89909060207E+02 -0.12596130700E+02 -0.26169787544E+03  0.29754843947E+03  0.10865999357E+03 0.  0.
         23    2    1    2    0    0 -0.57369035006E+02  0.20688755799E+02 -0.12949836718E+03  0.17211026233E+03  0.95566126349E+02 0.  0.
        -11    1    4    4    0    0 -0.18491390750E+02 -0.33486224992E+02 -0.81249208304E+02  0.89803633814E+02  0.00000000000E+00 0.  1.
         11    1    4    4    0    0 -0.38877644256E+02  0.54174980790E+02 -0.48249158873E+02  0.82306628521E+02  0.00000000000E+00 0. -1.
        -13    1    3    3    0    0  0.68309936194E+02 -0.45133127474E+02 -0.90870902735E+02  0.12231421644E+03  0.00000000000E+00 0.  1.
         13    1    3    3    0    0  0.21599124013E+02  0.32536996774E+02 -0.17082697271E+03  0.17523422303E+03  0.00000000000E+00 0. -1.
         21    1    1    2  502  501 -0.32540025201E+02 -0.80926250984E+01  0.55991832211E+02  0.65264301845E+02  0.00000000000E+00 0. -1.
<scales pt_clust_5="13000.00000" pt_clust_6="13000.00000" pt_clust_7="13000.00000" pt_clust_8="13000.00000" pt_clust_9="33.53124"></scales>
<clustering>
<clus scale="   33.531">  1  9  2 -1</clus>
<clus scale="   95.566">  5  6 -1 -1</clus>
<clus scale="  108.660">  7  8 -1 -1</clus>
<clus scale="  122.595">  1  5  2 -1</clus>
<clus scale="   33.531">  1  5  2 -1</clus>
</clustering>
</event>
<event>
 9    1  0.1234700E-005  0.9489548E+02  0.7546771E-02  0.1293639E+00
         -3   -1    0    0    0  501 -0.00000000000E+00  0.00000000000E+00  0.59960553190E+02  0.59960553190E+02  0.00000000000E+00 0.  1.
          3   -1    0    0  502    0  0.00000000000E+00 -0.00000000000E+00 -0.19057865748E+03  0.19057865748E+03  0.00000000000E+00 0. -1.
         23    2    1    2    0    0 -0.10111525698E+02  0.27192867505E+00 -0.30256072718E+02  0.93811903411E+02  0.88220895417E+02 0.  0.
         23    2    1    2    0    0  0.30321672294E+02 -0.21077360092E+01 -0.94788270013E+02  0.13568242589E+03  0.92201183291E+02 0.  0.
        -11    1    3    3    0    0 -0.24539199492E+02  0.20489800977E+02  0.20030546988E+02  0.37725681815E+02  0.00000000000E+00 0.  1.
         11    1    3    3    0    0  0.14427673793E+02 -0.20217872302E+02 -0.50286619706E+02  0.56086221596E+02  0.00000000000E+00 0. -1.
        -11    1    4    4    0    0 -0.29572955730E+02  0.25793107786E+01 -0.91327583695E+01  0.31058329480E+02  0.00000000000E+00 0.  1.
         11    1    4    4    0    0  0.59894628024E+02 -0.46870467878E+01 -0.85655511643E+02  0.10462409641E+03  0.00000000000E+00 0. -1.
         21    1    1    2  502  501 -0.20210146596E+02  0.18358073341E+01 -0.55737615556E+01  0.21044881370E+02  0.00000000000E+00 0. -1.
<scales pt_clust_5="13000.00000" pt_clust_6="13000.00000" pt_clust_7="13000.00000" pt_clust_8="13000.00000" pt_clust_9="20.29335"></scales>
<clustering>
<clus scale="   20.293">  1  9  2 -1</clus>
<clus scale="   88.221">  5  6 -1 -1</clus>
<clus scale="   91.033">  1  5  2 -1</clus>
<clus scale="   92.201">  7  8 -1 -1</clus>
<clus scale="   94.895">  2  5  1 -1</clus>
</clustering>
</event>
<event>
 9    1  0.1234700E-005  0.9567973E+02  0.7546771E-02  0.1291383E+00
          1   -1    0    0  502    0  0.00000000000E+00  0.00000000000E+00  0.57408579640E+03  0.57408579640E+03  0.00000000000E+00 0. -1.
         -1   -1    0    0    0  501 -0.00000000000E+00 -0.00000000000E+00 -0.45228708874E+02  0.45228708874E+02  0.00000000000E+00 0.  1.
         23    2    1    2    0    0  0.11776922087E+02 -0.18214793257E+02  0.62958440916E+02  0.11350945391E+03  0.91924731480E+02 0.  0.
         23    2    1    2    0    0 -0.50258341859E+02 -0.17367768322E+02  0.13147468860E+03  0.16729903657E+03  0.88745893388E+02 0.  0.
        -11    1    4    4    0    0 -0.35264578836E+02  0.61263742461E+01  0.30922113524E+01  0.35926101277E+02  0.00000000000E+00 0.  1.
         11    1    4    4    0    0 -0.14993763023E+02 -0.23494142568E+02  0.12838247725E+03  0.13137293530E+03  0.00000000000E+00 0. -1.
        -11    1    3    3    0    0  0.39049228084E+02 -0.42639532239E+02  0.39681585880E+02  0.70125602895E+02  0.00000000000E+00 0.  1.
         11    1    3    3    0    0 -0.27272305997E+02  0.24424738982E+02  0.23276855036E+02  0.43383851017E+02  0.00000000000E+00 0. -1.
         21    1    1    2  502  501  0.38481419773E+02  0.35582561579E+02  0.33442395801E+03  0.33850601479E+03  0.00000000000E+00 0. -1.
<scales pt_clust_5="13000.00000" pt_clust_6="13000.00000" pt_clust_7="13000.00000" pt_clust_8="13000.00000" pt_clust_9="52.41124"></scales>
<clustering>
<clus scale="   52.411">  1  9  2 -1</clus>
<clus scale="   88.746">  5  6 -1 -1</clus>
<clus scale="   91.925">  7  8 -1 -1</clus>
<clus scale="   92.630">  1  5  2 -1</clus>
<clus scale="   52.411">  1  5  2 -1</clus>
</clustering>
</event>
<event>
 9    1  0.1234700E-005  0.1080163E+03  0.7546771E-02  0.1266690E+00
         -1   -1    0    0    0  501 -0.00000000000E+00  0.00000000000E+00  0.20265247812E+03  0.20265247812E+03  0.00000000000E+00 0.  1.
          1   -1    0    0  502    0  0.00000000000E+00 -0.00000000000E+00 -0.28891054972E+03  0.28891054972E+03  0.00000000000E+00 0. -1.
         23    2    1    2    0    0  0.28762850514E+02  0.67391062738E+02  0.12016907052E+03  0.16745620725E+03  0.90731025180E+02 0.  0.
         23    2    1    2    0    0  0.51059162246E+02 -0.17042229353E+02 -0.20135180763E+03  0.22959588067E+03  0.96302867847E+02 0.  0.
        -11    1    4    4    0    0  0.40180101271E+02 -0.50496498840E+02 -0.77522838930E+02  0.10086688004E+03  0.00000000000E+00 0. -1.
         11    1    4    4    0    0  0.10879060975E+02  0.33454269487E+02 -0.12382896870E+03  0.12872900063E+03  0.00000000000E+00 0.  1.
        -13    1    3    3    0    0 -0.28111220420E+02  0.48693689349E+02  0.66178187236E+02  0.86838174565E+02  0.00000000000E+00 0. -1.
         13    1    3    3    0    0  0.56874070933E+02  0.18697373389E+02  0.53990883282E+02  0.80618032684E+02  0.00000000000E+00 0.  1.
         21    1    1    2  502  501 -0.79822012760E+02 -0.50348833385E+02 -0.50753344879E+01  0.94510939919E+02  0.00000000000E+00 0. -1.
<scales pt_clust_5="13000.00000" pt_clust_6="13000.00000" pt_clust_7="13000.00000" pt_clust_8="13000.00000" pt_clust_9="94.37457"></scales>
<clustering>
<clus scale="   90.731">  7  8 -1 -1</clus>
<clus scale="   94.375">  1  9  2 -1</clus>
<clus scale="   96.303">  5  6 -1 -1</clus>
<clus scale="  103.080">  1  7  2 -1</clus>
<clus scale="  108.016">  2  5  1 -1</clus>
</clustering>
</event>
<event>
 9    1  0.1234700E-005  0.9637705E+02  0.7546771E-02  0.1289380E+00
          4   -1    0    0  502    0  0.00000000000E+00  0.00000000000E+00  0.11073696813E+03  0.11073696813E+03  0.00000000000E+00 0. -1.
         -4   -1    0    0    0  501 -0.00000000000E+00 -0.00000000000E+00 -0.11875625536E+03  0.11875625536E+03  0.00000000000E+00 0.  1.
         23    2    1    2    0    0  0.87458125022E+01 -0.55440315875E+01 -0.58343651983E+01  0.91644018650E+02  0.90870021539E+02 0.  0.
         23    2    1    2    0    0 -0.13548517180E+02  0.38801087176E+02 -0.12620492704E+02  0.10266399696E+03  0.93228390267E+02 0.  0.
        -11    1    4    4    0    0 -0.51880354075E+02  0.30004107376E+02 -0.18891761455E+02  0.62838811647E+02  0.00000000000E+00 0.  1.
         11    1    4    4    0    0  0.38331836895E+02  0.87969798000E+01  0.62712687516E+01  0.39825185312E+02  0.00000000000E+00 0. -1.
        -11    1    3    3    0    0  0.19436993370E+02 -0.45458998976E+02  0.24462478858E+01  0.49500519471E+02  0.00000000000E+00 0. -1.
         11    1    3    3    0    0 -0.10691180867E+02  0.39914967389E+02 -0.82806130841E+01  0.42143499179E+02  0.00000000000E+00 0.  1.
         21    1    1    2  502  501  0.48027046776E+01 -0.33257055588E+02  0.10435570663E+02  0.35185207882E+02  0.00000000000E+00 0. -1.
<scales pt_clust_5="13000.00000" pt_clust_6="13000.00000" pt_clust_7="13000.00000" pt_clust_8="13000.00000" pt_clust_9="33.60205"></scales>
<clustering>
<clus scale="   33.602">  1  9  2 -1</clus>
<clus scale="   90.870">  7  8 -1 -1</clus>
<clus scale="   93.228">  5  6 -1 -1</clus>
<clus scale="   94.098">  2  7  1 -1</clus>
<clus scale="   33.602">  1  5  2 -1</clus>
</clustering>
</event>
<event>
 9    1  0.1234700E-005  0.9451157E+02  0.7546771E-02  0.1292416E+00
          2   -1    0    0  502    0  0.00000000000E+00  0.00000000000E+00  0.16578857171E+03  0.16578857171E+03  0.00000000000E+00 0. -1.
         -2   -1    0    0    0  501 -0.00000000000E+00 -0.00000000000E+00 -0.17071450499E+03  0.17071450499E+03  0.00000000000E+00 0.  1.
         23    2    1    2    0    0  0.15005760288E+02 -0.22004466974E+02 -0.12827664790E+03  0.15946148252E+03  0.90904876667E+02 0.  0.
         23    2    1    2    0    0 -0.21784433325E+02  0.31476464002E+01  0.61787383545E+02  0.11229922919E+03  0.91153534759E+02 0.  0.
        -13    1    3    3    0    0  0.43915280920E+02 -0.34016713676E+02 -0.48427563469E+02  0.73694759726E+02  0.00000000000E+00 0.  1.
         13    1    3    3    0    0 -0.28909520632E+02  0.12012246702E+02 -0.79849084434E+02  0.85766722794E+02  0.00000000000E+00 0. -1.
        -13    1    4    4    0    0 -0.14705239766E+02 -0.39831025080E+02  0.82022979961E+01  0.43243870409E+02  0.00000000000E+00 0.  1.
         13    1    4    4    0    0 -0.70791935585E+01  0.42978671480E+02  0.53585085549E+02  0.69055358785E+02  0.00000000000E+00 0. -1.
         21    1    1    2  502  501  0.67786730365E+01  0.18856820574E+02  0.61563331076E+02  0.64742364982E+02  0.00000000000E+00 0. -1.
<scales pt_clust_5="13000.00000" pt_clust_6="13000.00000" pt_clust_7="13000.00000" pt_clust_8="13000.00000" pt_clust_9="20.03822"></scales>
<clustering>
<clus scale="   20.038">  1  9  2 -1</clus>
<clus scale="   90.905">  5  6 -1 -1</clus>
<clus scale="   91.154">  7  8 -1 -1</clus>
<clus scale="   94.272">  2  5  1 -1</clus>
<clus scale="   20.038">  1  5  2 -1</clus>
</clustering>
</event>
<event>
 9    1  0.1234700E-005  0.9760588E+02  0.7546771E-02  0.1287613E+00
         -3   -1    0    0    0  501 -0.00000000000E+00  0.00000000000E+00  0.25450077408E+03  0.25450077408E+03  0.00000000000E+00 0.  1.
          3   -1    0    0  502    0  0.00000000000E+00 -0.00000000000E+00 -0.53083535310E+02  0.53083535310E+02  0.00000000000E+00 0. -1.
         23    2    1    2    0    0  0.24744606003E+02  0.93726472712E+01  0.13129428064E+03  0.16475735668E+03  0.95951323123E+02 0.  0.
         23    2    1    2    0    0  0.18037011728E+00 -0.13032928386E+02  0.72116406792E+02  0.11755590346E+03  0.91916943777E+02 0.  0.
        -13    1    3    3    0    0  0.56629902394E+02  0.11633229099E+02  0.46676615450E+02  0.74303326267E+02  0.00000000000E+00 0. -1.
         13    1    3    3    0    0 -0.31885296391E+02 -0.22605818279E+01  0.84617665192E+02  0.90454030417E+02  0.00000000000E+00 0.  1.
        -13    1    4    4    0    0 -0.42391093596E+02  0.48436745921E+01  0.17706027139E+02  0.46194906612E+02  0.00000000000E+00 0.  1.
         13    1    4    4    0    0  0.42571463713E+02 -0.17876602978E+02  0.54410379653E+02  0.71360996845E+02  0.00000000000E+00 0. -1.
         21    1    1    2  502  501 -0.24924976120E+02  0.36602811145E+01 -0.19934486678E+01  0.25271049247E+02  0.00000000000E+00 0.  1.
<scales pt_clust_5="13000.00000" pt_clust_6="13000.00000" pt_clust_7="13000.00000" pt_clust_8="13000.00000" pt_clust_9="25.19230"></scales>
<clustering>
<clus scale="   25.192">  2  9  1 -1</clus>
<clus scale="   91.917">  7  8 -1 -1</clus>
<clus scale="   93.643">  2  7  1 -1</clus>
<clus scale="   95.951">  5  6 -1 -1</clus>
<clus scale="   25.192">  2  5  1 -1</clus>
</clustering>
</event>
<event>
 9    1  0.1234700E-005  0.1212894E+03  0.7546771E-02  0.1241162E+00
         -1   -1    0    0    0  501 -0.00000000000E+00  0.00000000000E+00  0.40684768191E+03  0.40684768191E+03  0.00000000000E+00 0.  1.
          1   -1    0    0  502    0  0.00000000000E+00 -0.00000000000E+00 -0.67902316030E+02  0.67902316030E+02  0.00000000000E+00 0. -1.
         23    2    1    2    0    0 -0.74347196405E+02  0.32822101731E+02  0.26516968355E+03  0.29214221431E+03  0.91800415757E+02 0.  0.
         23    2    1    2    0    0  0.77078026219E+02  0.77179038463E+01  0.32875536616E+02  0.12495562492E+03  0.92371635944E+02 0.  0.
        -11    1    4    4    0    0 -0.19834097377E+02  0.11832020211E+02  0.10701086782E+02  0.25453906956E+02  0.00000000000E+00 0.  1.
         11    1    4    4    0    0  0.96912123595E+02 -0.41141163644E+01  0.22174449833E+02  0.99501717968E+02  0.00000000000E+00 0. -1.
        -11    1    3    3    0    0  0.11216790138E+02  0.25624969198E+02  0.12227040618E+03  0.12542929345E+03  0.00000000000E+00 0. -1.
         11    1    3    3    0    0 -0.85563986543E+02  0.71971325330E+01  0.14289927737E+03  0.16671292086E+03  0.00000000000E+00 0.  1.
         21    1    1    2  502  501 -0.27308298138E+01 -0.40540005577E+02  0.40900145710E+02  0.57652158700E+02  0.00000000000E+00 0. -1.
<scales pt_clust_5="13000.00000" pt_clust_6="13000.00000" pt_clust_7="13000.00000" pt_clust_8="13000.00000" pt_clust_9="40.63188"></scales>
<clustering>
<clus scale="   40.632">  2  9  1 -1</clus>
<clus scale="   91.800">  7  8 -1 -1</clus>
<clus scale="   92.372">  5  6 -1 -1</clus>
<clus scale="  120.855">  1  7  2 -1</clus>
<clus scale="   40.632">  2  5  1 -1</clus>
</clustering>
</event>
<event>
 9    1  0.1234700E-005  0.1093877E+03  0.7546771E-02  0.1262007E+00
         -3   -1    0    0    0  501 -0.00000000000E+00  0.00000000000E+00  0.27510920971E+03  0.27510920971E+03  0.00000000000E+00 0.  1.
          3   -1    0    0  502    0  0.00000000000E+00 -0.00000000000E+00 -0.18916868434E+03  0.18916868434E+03  0.00000000000E+00 0. -1.
         23    2    1    2    0    0  0.37138461535E+02 -0.47403855410E+02  0.22494652331E+03  0.25033642587E+03  0.91874898300E+02 0.  0.
         23    2    1    2    0    0 -0.12825470069E+02  0.47694201927E+02 -0.40560034712E+02  0.11253725953E+03  0.92629848255E+02 0.  0.
        -11    1    3    3    0    0 -0.30821689460E+02 -0.15934249514E+02  0.79457236895E+02  0.86702533664E+02  0.00000000000E+00 0. -1.
         11    1    3    3    0    0  0.67960150995E+02 -0.31469605895E+02  0.14548928641E+03  0.16363389221E+03  0.00000000000E+00 0.  1.
        -13    1    4    4    0    0 -0.44854108224E+02  0.41543504422E+02 -0.49563057855E+02  0.78703560836E+02  0.00000000000E+00 0. -1.
         13    1    4    4    0    0  0.32028638156E+02  0.61506975054E+01  0.90030231431E+01  0.33833698699E+02  0.00000000000E+00 0.  1.
         21    1    1    2  502  501 -0.24312991466E+02 -0.29034651789E+00 -0.98445963226E+02  0.10140420864E+03  0.00000000000E+00 0. -1.
<scales pt_clust_5="13000.00000" pt_clust_6="13000.00000" pt_clust_7="13000.00000" pt_clust_8="13000.00000" pt_clust_9="24.31473"></scales>
<clustering>
<clus scale="   24.315">  2  9  1 -1</clus>
<clus scale="   91.875">  5  6 -1 -1</clus>
<clus scale="   92.630">  7  8 -1 -1</clus>
<clus scale="  108.749">  1  5  2 -1</clus>
<clus scale="   24.315">  2  5  1 -1</clus>
</clustering>
</event>
<event>
 9    1  0.1234700E-005  0.1016020E+03  0.7546771E-02  0.1279630E+00
         -1   -1    0    0    0  501 -0.00000000000E+00  0.00000000000E+00  0.24515130353E+03  0.24515130353E+03  0.00000000000E+00 0.  1.
          1   -1    0    0  502    0  0.00000000000E+00 -0.00000000000E+00 -0.58154058792E+02  0.58154058792E+02  0.00000000000E+00 0. -1.
         23    2    1    2    0    0  0.28137992638E+02 -0.13999163504E+02  0.13279987125E+03  0.16425501790E+03  0.91412153968E+02 0.  0.
         23    2    1    2    0    0 -0.14418954060E+02  0.32942410795E+02  0.52015393276E+02  0.11555950205E+03  0.96722741435E+02 0.  0.
        -13    1    4    4    0    0 -0.36793680001E+02  0.55508923831E+02  0.50796857836E+02  0.83757604305E+02  0.00000000000E+00 0. -1.
         13    1    4    4    0    0  0.22374725940E+02 -0.22566513035E+02  0.12185354397E+01  0.31801897744E+02  0.00000000000E+00 0.  1.
        -13    1    3    3    0    0  0.28133758704E+02  0.33740577706E+02  0.37884998754E+02  0.58010413663E+02  0.00000000000E+00 0. -1.
         13    1    3    3    0    0  0.42339340821E-02 -0.47739741209E+02  0.94914872501E+02  0.10624460424E+03  0.00000000000E+00 0.  1.
         21    1    1    2  502  501 -0.13719038578E+02 -0.18943247292E+02  0.21819802035E+01  0.23490842366E+02  0.00000000000E+00 0. -1.
<scales pt_clust_5="13000.00000" pt_clust_6="13000.00000" pt_clust_7="13000.00000" pt_clust_8="13000.00000" pt_clust_9="23.38928"></scales>
<clustering>
<clus scale="   23.389">  2  9  1 -1</clus>
<clus scale="   91.412">  7  8 -1 -1</clus>
<clus scale="   96.560">  1  7  2 -1</clus>
<clus scale="   96.723">  5  6 -1 -1</clus>
<clus scale="   23.389">  2  5  1 -1</clus>
</clustering>
</event>
<event>
 9    1  0.1234700E-005  0.1122270E+03  0.7546771E-02  0.1256564E+00
          2   -1    0    0  502    0  0.00000000000E+00  0.00000000000E+00  0.33043311471E+03  0.33043311471E+03  0.00000000000E+00 0. -1.
         -2   -1    0    0    0  501 -0.00000000000E+00 -0.00000000000E+00 -0.79004988063E+02  0.79004988063E+02  0.00000000000E+00 0.  1.
         23    2    1    2    0    0  0.28591385463E+02  0.42550241763E+02  0.45588352773E+02  0.11628027087E+03  0.93887236024E+02 0.  0.
         23    2    1    2    0    0 -0.96718166230E+02 -0.16100831649E+02  0.13175740581E+03  0.18909522185E+03  0.93719520282E+02 0.  0.
        -11    1    4    4    0    0 -0.10040792371E+02  0.30204990207E+02  0.58230160526E+02  0.66361966063E+02  0.00000000000E+00 0.  1.
         11    1    4    4    0    0 -0.86677373859E+02 -0.46305821857E+02  0.73527245285E+02  0.12273325579E+03  0.00000000000E+00 0. -1.
        -13    1    3    3    0    0 -0.22678875548E+02  0.40370620549E+02  0.45564934606E+02  0.64963694979E+02  0.00000000000E+00 0. -1.
         13    1    3    3    0    0  0.51270261011E+02  0.21796212135E+01  0.23418166189E-01  0.51316575891E+02  0.00000000000E+00 0.  1.
         21    1    1    2  502  501  0.68126780767E+02 -0.26449410114E+02  0.74082368063E+02  0.10406261005E+03  0.00000000000E+00 0. -1.
<scales pt_clust_5="13000.00000" pt_clust_6="13000.00000" pt_clust_7="13000.00000" pt_clust_8="13000.00000" pt_clust_9="73.08098"></scales>
<clustering>
<clus scale="   73.081">  1  9  2 -1</clus>
<clus scale="   93.720">  5  6 -1 -1</clus>
<clus scale="   93.887">  7  8 -1 -1</clus>
<clus scale="  112.087">  1  5  2 -1</clus>
<clus scale="   73.081">  1  5  2 -1</clus>
</clustering>
</event>
<event>
 9    1  0.1234700E-005  0.1144514E+03  0.7546771E-02  0.1254365E+00
          2   -1    0    0  502    0  0.00000000000E+00  0.00000000000E+00  0.40170947436E+03  0.40170947436E+03  0.00000000000E+00 0.  1.
         -2   -1    0    0    0  501 -0.00000000000E+00 -0.00000000000E+00 -0.47543945955E+02  0.47543945955E+02  0.00000000000E+00 0. -1.
         23    2    1    2    0    0  0.65328760079E+01  0.56891866809E+02  0.76653718041E+02  0.13503845786E+03  0.95290238920E+02 0.  0.
         23    2    1    2    0    0 -0.21428328785E+02 -0.72782912063E+02  0.18693542917E+03  0.22105659910E+03  0.90358396203E+02 0.  0.
        -13    1    3    3    0    0 -0.20049760684E+02  0.72085298735E+02  0.33140836111E+02  0.81832745374E+02  0.00000000000E+00 0.  1.
         13    1    3    3    0    0  0.26582636692E+02 -0.15193431927E+02  0.43512881930E+02  0.53205712485E+02  0.00000000000E+00 0. -1.
        -13    1    4    4    0    0  0.12968465102E+02 -0.81393596255E+02  0.13500379567E+03  0.15817434508E+03  0.00000000000E+00 0. -1.
         13    1    4    4    0    0 -0.34396793886E+02  0.86106841922E+01  0.51931633504E+02  0.62882254017E+02  0.00000000000E+00 0.  1.
         21    1    1    2  502  501  0.14895452777E+02  0.15891045255E+02  0.90576381196E+02  0.93158363357E+02  0.00000000000E+00 0. -1.
<scales pt_clust_5="13000.00000" pt_clust_6="13000.00000" pt_clust_7="13000.00000" pt_clust_8="13000.00000" pt_clust_9="21.78072"></scales>
<clustering>
<clus scale="   21.781">  1  9  2 -1</clus>
<clus scale="   90.358">  7  8 -1 -1</clus>
<clus scale="   95.290">  5  6 -1 -1</clus>
<clus scale="  110.379">  1  7  2 -1</clus>
<clus scale="   21.781">  1  5  2 -1</clus>
</clustering>
</event>
<event>
 9    1  0.1234700E-005  0.9553938E+02  0.7546771E-02  0.1290697E+00
          2   -1    0    0  502    0  0.00000000000E+00  0.00000000000E+00  0.28144578174E+03  0.28144578174E+03  0.00000000000E+00 0. -1.
         -2   -1    0    0    0  501 -0.00000000000E+00 -0.00000000000E+00 -0.14062002421E+03  0.14062002421E+03  0.00000000000E+00 0.  1.
         23    2    1    2    0    0 -0.26118128556E+02  0.13204479410E+01 -0.48461703188E+02  0.10806868598E+03  0.92986041918E+02 0.  0.
         23    2    1    2    0    0  0.10307123836E+02  0.25975305402E+02 -0.23685692960E+02  0.98700556581E+02  0.91650611159E+02 0.  0.
        -11    1    4    4    0    0 -0.33111797307E+02  0.99373385879E+01  0.15658816033E+02  0.37951816013E+02  0.00000000000E+00 0.  1.
         11    1    4    4    0    0  0.43418921142E+02  0.16037966815E+02 -0.39344508993E+02  0.60748740568E+02  0.00000000000E+00 0. -1.
        -11    1    3    3    0    0 -0.44280035226E+02 -0.34386140779E+02 -0.33474772372E+02  0.65296926288E+02  0.00000000000E+00 0. -1.
         11    1    3    3    0    0  0.18161906670E+02  0.35706588720E+02 -0.14986930816E+02  0.42771759693E+02  0.00000000000E+00 0.  1.
         21    1    1    2  502  501  0.15811004721E+02 -0.27295753343E+02  0.21297315368E+03  0.21529656339E+03  0.00000000000E+00 0. -1.
<scales pt_clust_5="13000.00000" pt_clust_6="13000.00000" pt_clust_7="13000.00000" pt_clust_8="13000.00000" pt_clust_9="31.54435"></scales>
<clustering>
<clus scale="   31.544">  1  9  2 -1</clus>
<clus scale="   91.651">  5  6 -1 -1</clus>
<clus scale="   92.986">  7  8 -1 -1</clus>
<clus scale="   94.240">  1  5  2 -1</clus>
<clus scale="   31.544">  1  5  2 -1</clus>
</clustering>
</event>
<event>
 9    1  0.1234700E-005  0.9285326E+02  0.7546771E-02  0.1302736E+00
          2   -1    0    0  502    0  0.00000000000E+00  0.00000000000E+00  0.45977239541E+02  0.45977239541E+02  0.00000000000E+00 0. -1.
         -2   -1    0    0    0  501 -0.00000000000E+00 -0.00000000000E+00 -0.36074719581E+03  0.36074719581E+03  0.00000000000E+00 0.  1.
         23    2    1    2    0    0  0.93205209361E+01  0.93038631083E+01 -0.19596637032E+03  0.21634231639E+03  0.90706921379E+02 0.  0.
         23    2    1    2    0    0 -0.46351643861E+01 -0.29394768425E+02 -0.13805764239E+03  0.16216305215E+03  0.79695706916E+02 0.  0.
        -11    1    3    3    0    0 -0.18925694122E+02  0.42852726479E+02 -0.11671790178E+03  0.12576806694E+03  0.00000000000E+00 0. -1.
         11    1    3    3    0    0  0.28246215058E+02 -0.33548863371E+02 -0.79248468533E+02  0.90574249450E+02  0.00000000000E+00 0.  1.
        -11    1    4    4    0    0  0.35416559697E+02 -0.23792872354E+02 -0.53484804130E+02  0.68418255959E+02  0.00000000000E+00 0.  1.
         11    1    4    4    0    0 -0.40051724083E+02 -0.56018960708E+01 -0.84572838261E+02  0.93744796192E+02  0.00000000000E+00 0. -1.
         21    1    1    2  502  501 -0.46853565499E+01  0.20090905317E+02  0.19254056438E+02  0.28219066813E+02  0.00000000000E+00 0. -1.
<scales pt_clust_5="13000.00000" pt_clust_6="13000.00000" pt_clust_7="13000.00000" pt_clust_8="13000.00000" pt_clust_9="20.63000"></scales>
<clustering>
<clus scale="   20.630">  1  9  2 -1</clus>
<clus scale="   79.696">  7  8 -1 -1</clus>
<clus scale="   82.130">  1  7  2 -1</clus>
<clus scale="   90.707">  5  6 -1 -1</clus>
<clus scale="   20.630">  1  5  2 -1</clus>
</clustering>
</event>
<event>
 9    1  0.1234700E-005  0.1056878E+03  0.7546771E-02  0.1268866E+00
         -1   -1    0    0    0  501 -0.00000000000E+00  0.00000000000E+00  0.26724082784E+03  0.26724082784E+03  0.00000000000E+00 0.  1.
          1   -1    0    0  502    0  0.00000000000E+00 -0.00000000000E+00 -0.18238587760E+03  0.18238587760E+03  0.00000000000E+00 0. -1.
         23    2    1    2    0    0 -0.50568957010E+02 -0.61933671660E+01  0.21550768468E+03  0.23962167473E+03  0.91539104401E+02 0.  0.
         23    2    1    2    0    0  0.65972595924E+02  0.38961645192E+02 -0.12568450654E+03  0.17345758997E+03  0.91763539183E+02 0.  0.
        -11    1    4    4    0    0  0.44431980063E+02  0.34284049067E+01 -0.12411773503E+03  0.13187557378E+03  0.00000000000E+00 0. -1.
         11    1    4    4    0    0  0.21540615861E+02  0.35533240285E+02 -0.15667715152E+01  0.41582016183E+02  0.00000000000E+00 0.  1.
        -11    1    3    3    0    0 -0.59586113593E+02  0.25640362405E+02  0.17880030699E+03  0.19020379306E+03  0.00000000000E+00 0.  1.
         11    1    3    3    0    0  0.90171565836E+01 -0.31833729571E+02  0.36707377691E+02  0.49417881665E+02  0.00000000000E+00 0. -1.
         21    1    1    2  502  501 -0.15403638914E+02 -0.32768278026E+02 -0.49682279003E+01  0.36547440746E+02  0.00000000000E+00 0. -1.
<scales pt_clust_5="13000.00000" pt_clust_6="13000.00000" pt_clust_7="13000.00000" pt_clust_8="13000.00000" pt_clust_9="36.20818"></scales>
<clustering>
<clus scale="   36.208">  2  9  1 -1</clus>
<clus scale="   91.539">  7  8 -1 -1</clus>
<clus scale="   91.764">  5  6 -1 -1</clus>
<clus scale="  105.493">  1  7  2 -1</clus>
<clus scale="   36.208">  2  5  1 -1</clus>
</clustering>
</event>
<event>
 9    1  0.1234700E-005  0.9565243E+02  0.7546771E-02  0.1290236E+00
          3   -1    0    0  502    0  0.00000000000E+00  0.00000000000E+00  0.25632542219E+02  0.25632542219E+02  0.00000000000E+00 0. -1.
         -3   -1    0    0    0  501 -0.00000000000E+00 -0.00000000000E+00 -0.56365167345E+03  0.56365167345E+03  0.00000000000E+00 0.  1.
         23    2    1    2    0    0 -0.22137363721E+02 -0.54754797096E+01 -0.35058289115E+03  0.36315294750E+03  0.91932888333E+02 0.  0.
         23    2    1    2    0    0  0.23734777496E+02 -0.21948731250E+02 -0.15562029300E+03  0.18409683507E+03  0.92891779094E+02 0.  0.
        -11    1    3    3    0    0 -0.17062945858E+02 -0.48441673900E+02 -0.18214161678E+03  0.18924404470E+03  0.00000000000E+00 0.  1.
         11    1    3    3    0    0 -0.50744178631E+01  0.42966194191E+02 -0.16844127438E+03  0.17390890280E+03  0.00000000000E+00 0. -1.
        -13    1    4    4    0    0 -0.33483169784E+02 -0.14072370040E+02 -0.87797088812E+02  0.95013067844E+02  0.00000000000E+00 0.  1.
         13    1    4    4    0    0  0.57217947280E+02 -0.78763612097E+01 -0.67823204185E+02  0.89083767224E+02  0.00000000000E+00 0. -1.
         21    1    1    2  502  501 -0.15974137747E+01  0.27424210960E+02 -0.31815947081E+02  0.42034433102E+02  0.00000000000E+00 0. -1.
<scales pt_clust_5="13000.00000" pt_clust_6="13000.00000" pt_clust_7="13000.00000" pt_clust_8="13000.00000" pt_clust_9="27.47069"></scales>
<clustering>
<clus scale="   27.471">  1  9  2 -1</clus>
<clus scale="   91.933">  5  6 -1 -1</clus>
<clus scale="   92.892">  7  8 -1 -1</clus>
<clus scale="   94.721">  2  5  1 -1</clus>
<clus scale="   27.471">  1  5  2 -1</clus>
</clustering>
</event>
<event>
 9    1  0.1234700E-005  0.1012974E+03  0.7546771E-02  0.1277957E+00
         -1   -1    0    0    0  501 -0.00000000000E+00  0.00000000000E+00  0.11322461397E+03  0.11322461397E+03  0.00000000000E+00 0.  1.
          1   -1    0    0  502    0  0.00000000000E+00 -0.00000000000E+00 -0.54995389071E+03  0.54995389071E+03  0.00000000000E+00 0. -1.
         23    2    1    2    0    0  0.27138038225E+02 -0.29910480271E+02  0.72470303911E+02  0.12398382923E+03  0.92135416709E+02 0.  0.
         23    2    1    2    0    0 -0.67319312319E+02 -0.11368435713E+02 -0.27871313382E+03  0.30161840167E+03  0.92905963847E+02 0.  0.
        -11    1    3    3    0    0 -0.31353630756E+02  0.47138265559E+01  0.31098543816E+02  0.44411594768E+02  0.00000000000E+00 0. -1.
         11    1    3    3    0    0  0.58491668981E+02 -0.34624306827E+02  0.41371760094E+02  0.79572234459E+02  0.00000000000E+00 0.  1.
        -13    1    4    4    0    0 -0.27752707044E+02 -0.42270073703E+02 -0.66466490863E+02  0.83515066226E+02  0.00000000000E+00 0. -1.
         13    1    4    4    0    0 -0.39566605275E+02  0.30901637991E+02 -0.21224664296E+03  0.21810333544E+03  0.00000000000E+00 0.  1.
         21    1    1    2  502  501  0.40181274094E+02  0.41278915984E+02 -0.23048644683E+03  0.23757627378E+03  0.00000000000E+00 0. -1.
<scales pt_clust_5="13000.00000" pt_clust_6="13000.00000" pt_clust_7="13000.00000" pt_clust_8="13000.00000" pt_clust_9="57.60628"></scales>
<clustering>
<clus scale="   57.606">  2  9  1 -1</clus>
<clus scale="   92.135">  5  6 -1 -1</clus>
<clus scale="   92.906">  7  8 -1 -1</clus>
<clus scale="  100.591">  1  5  2 -1</clus>
<clus scale="   57.606">  2  5  1 -1</clus>
</clustering>
</event>
<event>
 9    1  0.1234700E-005  0.9669300E+02  0.7546771E-02  0.1287448E+00
         -2   -1    0    0    0  501 -0.00000000000E+00  0.00000000000E+00  0.48245540003E+02  0.48245540003E+02  0.00000000000E+00 0.  1.
          2   -1    0    0  502    0  0.00000000000E+00 -0.00000000000E+00 -0.39985974563E+03  0.39985974563E+03  0.00000000000E+00 0. -1.
         23    2    1    2    0    0 -0.40428502401E+02  0.22394048931E+02 -0.47875319301E+02  0.11163141837E+03  0.89630185407E+02 0.  0.
         23    2    1    2    0    0  0.11924197058E+02 -0.15824129230E+02 -0.12375349514E+03  0.15412694431E+03  0.89708404635E+02 0.  0.
        -11    1    4    4    0    0 -0.21238753479E+02  0.25407451349E+02 -0.22983924056E+02  0.40309849893E+02  0.00000000000E+00 0.  1.
         11    1    4    4    0    0  0.33162950537E+02 -0.41231580579E+02 -0.10076957108E+03  0.11381709442E+03  0.00000000000E+00 0. -1.
        -13    1    3    3    0    0 -0.66926567151E+02  0.23960961234E+02 -0.21633778269E+02  0.74305540951E+02  0.00000000000E+00 0.  1.
         13    1    3    3    0    0  0.26498064750E+02 -0.15669123031E+01 -0.26241541032E+02  0.37325877423E+02  0.00000000000E+00 0. -1.
         21    1    1    2  502  501  0.28504305343E+02 -0.65699197009E+01 -0.17998539119E+03  0.18234692295E+03  0.00000000000E+00 0. -1.
<scales pt_clust_5="13000.00000" pt_clust_6="13000.00000" pt_clust_7="13000.00000" pt_clust_8="13000.00000" pt_clust_9="29.25165"></scales>
<clustering>
<clus scale="   29.252">  2  9  1 -1</clus>
<clus scale="   89.630">  7  8 -1 -1</clus>
<clus scale="   89.708">  5  6 -1 -1</clus>
<clus scale="   96.620">  1  7  2 -1</clus>
<clus scale="   29.252">  2  5  1 -1</clus>
</clustering>
</event>
<event>
 9    1  0.1234700E-005  0.1230942E+03  0.7546771E-02  0.1238372E+00
          1   -1    0    0  502    0  0.00000000000E+00  0.00000000000E+00  0.73363694934E+03  0.73363694934E+03  0.00000000000E+00 0. -1.
         -1   -1    0    0    0  501 -0.00000000000E+00 -0.00000000000E+00 -0.36503241885E+02  0.36503241885E+02  0.00000000000E+00 0.  1.
         23    2    1    2    0    0  0.57420212323E+02  0.64157523042E+02  0.11127596379E+03  0.16774838228E+03  0.91345011323E+02 0.  0.
         23    2    1    2    0    0 -0.57486772839E+02 -0.43694267280E+02  0.43343036663E+03  0.44859696333E+03  0.90351727999E+02 0.  0.
        -13    1    3    3    0    0  0.51760111722E+02  0.42656712743E+02  0.12483074089E+03  0.14170892060E+03  0.00000000000E+00 0. -1.
         13    1    3    3    0    0  0.56601006006E+01  0.21500810299E+02 -0.13554777096E+02  0.26039461678E+02  0.00000000000E+00 0.  1.
        -13    1    4    4    0    0  0.24361810797E+02 -0.10658473793E+02  0.12431088606E+03  0.12712315793E+03  0.00000000000E+00 0. -1.
         13    1    4    4    0    0 -0.81848583636E+02 -0.33035793486E+02  0.30911948057E+03  0.32147380540E+03  0.00000000000E+00 0.  1.
         21    1    1    2  502  501  0.66560515592E-01 -0.20463255763E+02  0.15242737703E+03  0.15379484561E+03  0.00000000000E+00 0. -1.
<scales pt_clust_5="13000.00000" pt_clust_6="13000.00000" pt_clust_7="13000.00000" pt_clust_8="13000.00000" pt_clust_9="20.46336"></scales>
<clustering>
<clus scale="   20.463">  1  9  2 -1</clus>
<clus scale="   90.352">  7  8 -1 -1</clus>
<clus scale="   91.345">  5  6 -1 -1</clus>
<clus scale="  122.359">  1  7  2 -1</clus>
<clus scale="   20.463">  1  5  2 -1</clus>
</clustering>
</event>
<event>
 9    1  0.1234700E-005  0.1643103E+03  0.7546771E-02  0.1184038E+00
         -1   -1    0    0    0  501 -0.00000000000E+00  0.00000000000E+00  0.39257282990E+03  0.39257282990E+03  0.00000000000E+00 0.  1.
          1   -1    0    0  502    0  0.00000000000E+00 -0.00000000000E+00 -0.19985395844E+03  0.19985395844E+03  0.00000000000E+00 0. -1.
         23    2    1    2    0    0 -0.10513399323E+03 -0.82182348844E+02  0.19767301747E+03  0.25516929835E+03  0.90717440381E+02 0.  0.
         23    2    1    2    0    0  0.17916404826E+03 -0.13921672858E+02  0.45253579536E+02  0.20596679063E+03  0.89893621668E+02 0.  0.
        -13    1    3    3    0    0 -0.45481626739E+02 -0.61637111359E+02  0.16963524416E+03  0.18612852529E+03  0.00000000000E+00 0.  1.
         13    1    3    3    0    0 -0.59652366496E+02 -0.20545237485E+02  0.28037773313E+02  0.69040773056E+02  0.00000000000E+00 0. -1.
        -13    1    4    4    0    0  0.98402971147E+02  0.37343555915E+02  0.25335869082E+02  0.10825706518E+03  0.00000000000E+00 0.  1.
         13    1    4    4    0    0  0.80761077111E+02 -0.51265228773E+02  0.19917710455E+02  0.97709725448E+02  0.00000000000E+00 0. -1.
         21    1    1    2  502  501 -0.74030055024E+02  0.96104021702E+02 -0.50207725547E+02  0.13129069936E+03  0.00000000000E+00 0. -1.
<scales pt_clust_5="13000.00000" pt_clust_6="13000.00000" pt_clust_7="13000.00000" pt_clust_8="13000.00000" pt_clust_9="121.31130"></scales>
<clustering>
<clus scale="   89.894">  7  8 -1 -1</clus>
<clus scale="   90.717">  5  6 -1 -1</clus>
<clus scale="  121.311">  2  9  1 -1</clus>
<clus scale="  163.857">  2  7  1 -1</clus>
<clus scale="  121.311">  2  5  1 -1</clus>
</clustering>
</event>
<event>
 9    1  0.1234700E-005  0.9188158E+02  0.7546771E-02  0.1299534E+00
         -1   -1    0    0    0  501 -0.00000000000E+00  0.00000000000E+00  0.55698448479E+02  0.55698448479E+02  0.00000000000E+00 0.  1.
          1   -1    0    0  502    0  0.00000000000E+00 -0.00000000000E+00 -0.44701504383E+03  0.44701504383E+03  0.00000000000E+00 0. -1.
         23    2    1    2    0    0 -0.79337381478E+01  0.94788125495E+01 -0.39003170072E+01  0.90371910270E+02  0.89437562605E+02 0.  0.
         23    2    1    2    0    0 -0.34902861478E+02 -0.60249024779E+01 -0.27849413730E+03  0.29524787353E+03  0.91421075937E+02 0.  0.
        -11    1    3    3    0    0 -0.36679183369E+02 -0.98148800316E+01  0.24843167669E+02  0.45374853636E+02  0.00000000000E+00 0. -1.
         11    1    3    3    0    0  0.28745445221E+02  0.19293692581E+02 -0.28743484676E+02  0.44997056634E+02  0.00000000000E+00 0.  1.
        -11    1    4    4    0    0  0.13562441352E+02  0.32249669081E+02 -0.12478664789E+03  0.12959818078E+03  0.00000000000E+00 0.  1.
         11    1    4    4    0    0 -0.48465302829E+02 -0.38274571559E+02 -0.15370748941E+03  0.16564969274E+03  0.00000000000E+00 0. -1.
         21    1    1    2  502  501  0.42836599626E+02 -0.34539100716E+01 -0.10892214105E+03  0.11709370851E+03  0.00000000000E+00 0. -1.
<scales pt_clust_5="13000.00000" pt_clust_6="13000.00000" pt_clust_7="13000.00000" pt_clust_8="13000.00000" pt_clust_9="42.97562"></scales>
<clustering>
<clus scale="   42.976">  2  9  1 -1</clus>
<clus scale="   89.438">  5  6 -1 -1</clus>
<clus scale="   89.908">  1  5  2 -1</clus>
<clus scale="   91.421">  7  8 -1 -1</clus>
<clus scale="   42.976">  2  5  1 -1</clus>
</clustering>
</event>
<event>
 9    1  0.1234700E-005  0.1617488E+03  0.7546771E-02  0.1187532E+00
         -1   -1    0    0    0  501 -0.00000000000E+00  0.00000000000E+00  0.74945887577E+02  0.74945887577E+02  0.00000000000E+00 0.  1.
          1   -1    0    0  502    0  0.00000000000E+00 -0.00000000000E+00 -0.46684170396E+03  0.46684170396E+03  0.00000000000E+00 0. -1.
         23    2    1    2    0    0 -0.67147024456E+02 -0.10769104960E+03 -0.15610372601E+03  0.22279598807E+03  0.95726662785E+02 0.  0.
         23    2    1    2    0    0  0.96972993270E+02  0.93511218156E+02 -0.23531061635E+03  0.28596301203E+03  0.90860600572E+02 0.  0.
        -11    1    4    4    0    0  0.10755244198E+03  0.71455990569E+02 -0.15357666852E+03  0.20064715168E+03  0.00000000000E+00 0. -1.
         11    1    4    4    0    0 -0.10579448709E+02  0.22055227587E+02 -0.81733947832E+02  0.85315860349E+02  0.00000000000E+00 0.  1.
        -13    1    3    3    0    0  0.20586552916E+02 -0.11738663476E+02 -0.48683451536E+02  0.54144998242E+02  0.00000000000E+00 0. -1.
         13    1    3    3    0    0 -0.87733577372E+02 -0.95952386125E+02 -0.10742027448E+03  0.16865098983E+03  0.00000000000E+00 0.  1.
         21    1    1    2  502  501 -0.29825968814E+02  0.14179831444E+02 -0.48147402468E+00  0.33028591443E+02  0.00000000000E+00 0.  1.
<scales pt_clust_5="13000.00000" pt_clust_6="13000.00000" pt_clust_7="13000.00000" pt_clust_8="13000.00000" pt_clust_9="33.02508"></scales>
<clustering>
<clus scale="   33.025">  1  9  2 -1</clus>
<clus scale="   90.861">  5  6 -1 -1</clus>
<clus scale="   95.727">  7  8 -1 -1</clus>
<clus scale="  158.917">  2  5  1 -1</clus>
<clus scale="  158.917">  2  5  1 -1</clus>
</clustering>
</event>
<event>
 9    1  0.1234700E-005  0.9815217E+02  0.7546771E-02  0.1284267E+00
         -1   -1    0    0    0  501 -0.00000000000E+00  0.00000000000E+00  0.64144857186E+02  0.64144857186E+02  0.00000000000E+00 0.  1.
          1   -1    0    0  502    0  0.00000000000E+00 -0.00000000000E+00 -0.27624411983E+03  0.27624411983E+03  0.00000000000E+00 0. -1.
         23    2    1    2    0    0 -0.79333090948E+01  0.41790135930E+02 -0.64382885338E+02  0.11934393175E+03  0.91041008707E+02 0.  0.
         23    2    1    2    0    0  0.48265285049E+02 -0.16550743834E+01 -0.11848725106E+03  0.15707760612E+03  0.91114590870E+02 0.  0.
        -13    1    3    3    0    0 -0.20755088965E+02 -0.95811250614E+01  0.12453068694E+02  0.26031722864E+02  0.00000000000E+00 0.  1.
         13    1    3    3    0    0  0.12821779870E+02  0.51371260992E+02 -0.76835954032E+02  0.93312208884E+02  0.00000000000E+00 0. -1.
        -13    1    4    4    0    0 -0.14150835795E+01 -0.37228183670E+02 -0.69131691764E+02  0.78531082554E+02  0.00000000000E+00 0.  1.
         13    1    4    4    0    0  0.49680368628E+02  0.35573109286E+02 -0.49355559296E+02  0.78546523569E+02  0.00000000000E+00 0. -1.
         21    1    1    2  502  501 -0.40331975954E+02 -0.40135061547E+02 -0.29229126247E+02  0.63967439146E+02  0.00000000000E+00 0.  1.
<scales pt_clust_5="13000.00000" pt_clust_6="13000.00000" pt_clust_7="13000.00000" pt_clust_8="13000.00000" pt_clust_9="56.89896"></scales>
<clustering>
<clus scale="   56.899">  1  9  2 -1</clus>
<clus scale="   91.041">  5  6 -1 -1</clus>
<clus scale="   91.115">  7  8 -1 -1</clus>
<clus scale="   98.084">  1  5  2 -1</clus>
<clus scale="   98.152">  2  5  1 -1</clus>
</clustering>
</event>
<event>
 9    1  0.1234700E-005  0.2898716E+03  0.7546771E-02  0.1090434E+00
         -1   -1    0    0    0  501 -0.00000000000E+00  0.00000000000E+00  0.37820360403E+03  0.37820360403E+03  0.00000000000E+00 0.  1.
          1   -1    0    0  502    0  0.00000000000E+00 -0.00000000000E+00 -0.28690990384E+03  0.28690990384E+03  0.00000000000E+00 0. -1.
         23    2    1    2    0    0  0.12330395337E+03  0.21668206219E+03  0.56267673578E+02  0.27116277146E+03  0.90599208294E+02 0.  0.
         23    2    1    2    0    0 -0.10194342454E+03 -0.28527760432E+03  0.50842924407E+01  0.31611675902E+03  0.90156430566E+02 0.  0.
        -13    1    3    3    0    0  0.12122104116E+03  0.17631170393E+03  0.16727913938E+02  0.21461635741E+03  0.00000000000E+00 0. -1.
         13    1    3    3    0    0  0.20829122075E+01  0.40370358256E+02  0.39539759640E+02  0.56546414045E+02  0.00000000000E+00 0.  1.
        -13    1    4    4    0    0 -0.10071086075E+03 -0.19392117525E+03  0.32060289662E+02  0.22085280587E+03  0.00000000000E+00 0.  1.
         13    1    4    4    0    0 -0.12325637875E+01 -0.91356429066E+02 -0.26975997222E+02  0.95263953158E+02  0.00000000000E+00 0. -1.
         21    1    1    2  502  501 -0.21360528829E+02  0.68595542130E+02  0.29941734171E+02  0.77833977395E+02  0.00000000000E+00 0.  1.
<scales pt_clust_5="13000.00000" pt_clust_6="13000.00000" pt_clust_7="13000.00000" pt_clust_8="13000.00000" pt_clust_9="71.84442"></scales>
<clustering>
<clus scale="   71.844">  1  9  2 -1</clus>
<clus scale="   90.156">  7  8 -1 -1</clus>
<clus scale="   90.599">  5  6 -1 -1</clus>
<clus scale="  289.734">  2  7  1 -1</clus>
<clus scale="  289.734">  2  5  1 -1</clus>
</clustering>
</event>
<event>
 9    1  0.1234700E-005  0.9804601E+02  0.7546771E-02  0.1285420E+00
         -1   -1    0    0    0  501 -0.00000000000E+00  0.00000000000E+00  0.18115104955E+03  0.18115104955E+03  0.00000000000E+00 0.  1.
          1   -1    0    0  502    0  0.00000000000E+00 -0.00000000000E+00 -0.78432703967E+02  0.78432703967E+02  0.00000000000E+00 0. -1.
         23    2    1    2    0    0 -0.19969503546E+02 -0.11366318207E+02  0.74024471517E+02  0.11938085269E+03  0.90797529392E+02 0.  0.
         23    2    1    2    0    0  0.38153576520E+02 -0.12489651740E+02  0.35280400954E+01  0.10104824579E+03  0.92663984956E+02 0.  0.
        -11    1    3    3    0    0  0.55956283373E+01 -0.41141042863E+02  0.75707965865E+01  0.42204424238E+02  0.00000000000E+00 0. -1.
         11    1    3    3    0    0 -0.25565131883E+02  0.29774724656E+02  0.66453674931E+02  0.77176428450E+02  0.00000000000E+00 0.  1.
        -13    1    4    4    0    0  0.12638544273E+02  0.38617298767E+02  0.13994252199E+02  0.42975198196E+02  0.00000000000E+00 0.  1.
         13    1    4    4    0    0  0.25515032247E+02 -0.51106950507E+02 -0.10466212103E+02  0.58073047591E+02  0.00000000000E+00 0. -1.
         21    1    1    2  502  501 -0.18184072974E+02  0.23855969947E+02  0.25165833975E+02  0.39154655045E+02  0.00000000000E+00 0. -1.
<scales pt_clust_5="13000.00000" pt_clust_6="13000.00000" pt_clust_7="13000.00000" pt_clust_8="13000.00000" pt_clust_9="29.99613"></scales>
<clustering>
<clus scale="   29.996">  1  9  2 -1</clus>
<clus scale="   90.798">  5  6 -1 -1</clus>
<clus scale="   92.664">  7  8 -1 -1</clus>
<clus scale="   96.284">  1  5  2 -1</clus>
<clus scale="   98.046">  2  5  1 -1</clus>
</clustering>
</event>
<event>
 9    1  0.1234700E-005  0.1228029E+03  0.7546771E-02  0.1238716E+00
         -1   -1    0    0    0  501 -0.00000000000E+00  0.00000000000E+00  0.21617294060E+03  0.21617294060E+03  0.00000000000E+00 0.  1.
          1   -1    0    0  502    0  0.00000000000E+00 -0.00000000000E+00 -0.68897857216E+03  0.68897857216E+03  0.00000000000E+00 0. -1.
         23    2    1    2    0    0 -0.14944922479E+02  0.81078168203E+02  0.18925543200E+03  0.22590470452E+03  0.91751277467E+02 0.  0.
         23    2    1    2    0    0  0.40420516686E+02 -0.54125694074E+02 -0.45837016925E+03  0.47220714493E+03  0.91175472225E+02 0.  0.
        -11    1    4    4    0    0 -0.26469903311E+02 -0.18129240472E+02 -0.78255767802E+02  0.84577126551E+02  0.00000000000E+00 0. -1.
         11    1    4    4    0    0  0.66890419997E+02 -0.35996453602E+02 -0.38011440145E+03  0.38763001838E+03  0.00000000000E+00 0.  1.
        -13    1    3    3    0    0 -0.17485300326E+02  0.13501513749E+02 -0.28218931016E+01  0.22270825797E+02  0.00000000000E+00 0. -1.
         13    1    3    3    0    0  0.25403778468E+01  0.67576654454E+02  0.19207732510E+03  0.20363387872E+03  0.00000000000E+00 0.  1.
         21    1    1    2  502  501 -0.25475594207E+02 -0.26952474129E+02 -0.20369089430E+03  0.20703966331E+03  0.00000000000E+00 0. -1.
<scales pt_clust_5="13000.00000" pt_clust_6="13000.00000" pt_clust_7="13000.00000" pt_clust_8="13000.00000" pt_clust_9="37.08695"></scales>
<clustering>
<clus scale="   37.087">  2  9  1 -1</clus>
<clus scale="   91.175">  5  6 -1 -1</clus>
<clus scale="   91.751">  7  8 -1 -1</clus>
<clus scale="  122.373">  2  5  1 -1</clus>
<clus scale="   37.087">  2  5  1 -1</clus>
</clustering>
</event>
<event>
 9    1  0.1234700E-005  0.9417458E+02  0.7546771E-02  0.1293201E+00
          1   -1    0    0  502    0  0.00000000000E+00  0.00000000000E+00  0.12460331928E+03  0.12460331928E+03  0.00000000000E+00 0. -1.
         -1   -1    0    0    0  501 -0.00000000000E+00 -0.00000000000E+00 -0.10701402855E+03  0.10701402855E+03  0.00000000000E+00 0.  1.
         23    2    1    2    0    0 -0.76893169163E+01 -0.31705984435E+01 -0.27362717043E+02  0.97434264467E+02  0.93142575223E+02 0.  0.
         23    2    1    2    0    0  0.22996912324E+02 -0.14940348435E+02  0.18368581167E+02  0.98559952609E+02  0.92868657234E+02 0.  0.
        -11    1    4    4    0    0  0.44124250665E+02 -0.40752430427E+02 -0.83675727905E+00  0.60070044491E+02  0.00000000000E+00 0. -1.
         11    1    4    4    0    0 -0.21127338341E+02  0.25812081992E+02  0.19205338446E+02  0.38489908118E+02  0.00000000000E+00 0.  1.
        -13    1    3    3    0    0  0.22578329761E+02 -0.18110201277E+02  0.22887558912E+02  0.36899874228E+02  0.00000000000E+00 0. -1.
         13    1    3    3    0    0 -0.30267646677E+02  0.14939602833E+02 -0.50250275955E+02  0.60534390240E+02  0.00000000000E+00 0.  1.
         21    1    1    2  502  501 -0.15307595408E+02  0.18110946879E+02  0.26583426615E+02  0.35623130752E+02  0.00000000000E+00 0. -1.
<scales pt_clust_5="13000.00000" pt_clust_6="13000.00000" pt_clust_7="13000.00000" pt_clust_8="13000.00000" pt_clust_9="23.71347"></scales>
<clustering>
<clus scale="   23.713">  1  9  2 -1</clus>
<clus scale="   92.869">  5  6 -1 -1</clus>
<clus scale="   93.143">  7  8 -1 -1</clus>
<clus scale="   93.904">  1  5  2 -1</clus>
<clus scale="   23.713">  1  5  2 -1</clus>
</clustering>
</event>
<event>
 9    1  0.1234700E-005  0.1067181E+03  0.7546771E-02  0.1267348E+00
         -1   -1    0    0    0  501 -0.00000000000E+00  0.00000000000E+00  0.43198300761E+02  0.43198300761E+02  0.00000000000E+00 0.  1.
          1   -1    0    0  502    0  0.00000000000E+00 -0.00000000000E+00 -0.31759755050E+03  0.31759755050E+03  0.00000000000E+00 0. -1.
         23    2    1    2    0    0 -0.52652474026E+02 -0.40987420442E+01 -0.11173562211E+03  0.15409381577E+03  0.92037884056E+02 0.  0.
         23    2    1    2    0    0  0.46815161362E+02  0.23463306909E+02 -0.13201044733E+03  0.16997768317E+03  0.93399509989E+02 0.  0.
        -11    1    3    3    0    0 -0.16277869782E+02  0.23490383727E+02  0.47591239341E+01  0.28972684254E+02  0.00000000000E+00 0.  1.
         11    1    3    3    0    0 -0.36374604244E+02 -0.27589125771E+02 -0.11649474605E+03  0.12512113151E+03  0.00000000000E+00 0. -1.
        -11    1    4    4    0    0  0.58296314750E+02 -0.70715781023E+01 -0.36722826563E+02  0.69260620277E+02  0.00000000000E+00 0.  1.
         11    1    4    4    0    0 -0.11481153388E+02  0.30534885011E+02 -0.95287620771E+02  0.10071706289E+03  0.00000000000E+00 0. -1.
         21    1    1    2  502  501  0.58373126637E+01 -0.19364564864E+02 -0.30653180289E+02  0.36724352321E+02  0.00000000000E+00 0.  1.
<scales pt_clust_5="13000.00000" pt_clust_6="13000.00000" pt_clust_7="13000.00000" pt_clust_8="13000.00000" pt_clust_9="20.22525"></scales>
<clustering>
<clus scale="   20.225">  2  9  1 -1</clus>
<clus scale="   92.038">  5  6 -1 -1</clus>
<clus scale="   93.400">  7  8 -1 -1</clus>
<clus scale="  105.528">  1  5  2 -1</clus>
<clus scale="   20.225">  2  5  1 -1</clus>
</clustering>
</event>
<event>
 9    1  0.1234700E-005  0.1260370E+03  0.7546771E-02  0.1249145E+00
          1   -1    0    0  502    0  0.00000000000E+00  0.00000000000E+00  0.17296796681E+03  0.17296796681E+03  0.00000000000E+00 0. -1.
         -1   -1    0    0    0  501 -0.00000000000E+00 -0.00000000000E+00 -0.10964596699E+03  0.10964596699E+03  0.00000000000E+00 0.  1.
         23    2    1    2    0    0  0.14417596587E+02  0.65568161678E+01 -0.34656439498E+02  0.13085313970E+03  0.12518233278E+03 0.  0.
         23    2    1    2    0    0 -0.15050569919E+02  0.14723898991E+02  0.68803749006E+02  0.11564387220E+03  0.90533068235E+02 0.  0.
        -13    1    3    3    0    0 -0.51017834953E+02 -0.20515909957E+02 -0.10146051212E+02  0.55916584301E+02  0.00000000000E+00 0. -1.
         13    1    3    3    0    0  0.65435431540E+02  0.27072726125E+02 -0.24510388286E+02  0.74936555395E+02  0.00000000000E+00 0.  1.
        -13    1    4    4    0    0 -0.43413773735E+02  0.15091159137E+02  0.73701497617E+02  0.86858560805E+02  0.00000000000E+00 0. -1.
         13    1    4    4    0    0  0.28363203816E+02 -0.36726014645E+00 -0.48977486115E+01  0.28785311396E+02  0.00000000000E+00 0.  1.
         21    1    1    2  502  501  0.63297333260E+00 -0.21280715159E+02  0.29174690308E+02  0.36116921899E+02  0.00000000000E+00 0.  1.
<scales pt_clust_5="13000.00000" pt_clust_6="13000.00000" pt_clust_7="13000.00000" pt_clust_8="13000.00000" pt_clust_9="21.29013"></scales>
<clustering>
<clus scale="   21.290">  1  9  2 -1</clus>
<clus scale="   90.533">  7  8 -1 -1</clus>
<clus scale="   91.711">  1  7  2 -1</clus>
<clus scale="  125.182">  5  6 -1 -1</clus>
<clus scale="   21.290">  1  5  2 -1</clus>
</clustering>
</event>
<event>
 9    1  0.1234700E-005  0.1057377E+03  0.7546771E-02  0.1271243E+00
         -2   -1    0    0    0  501 -0.00000000000E+00  0.00000000000E+00  0.21207710226E+03  0.21207710226E+03  0.00000000000E+00 0.  1.
          2   -1    0    0  502    0  0.00000000000E+00 -0.00000000000E+00 -0.35153998769E+03  0.35153998769E+03  0.00000000000E+00 0. -1.
         23    2    1    2    0    0 -0.25148574354E+02 -0.31760243124E+02  0.17193838699E+03  0.19924369220E+03  0.92163312262E+02 0.  0.
         23    2    1    2    0    0 -0.90695510165E+01  0.54248920813E+02 -0.10393134596E+03  0.15290143481E+03  0.97733934374E+02 0.  0.
        -11    1    3    3    0    0 -0.28777339916E+00 -0.46448384321E+02  0.16227828156E+03  0.16879507068E+03  0.00000000000E+00 0.  1.
         11    1    3    3    0    0 -0.24860800955E+02  0.14688141197E+02  0.96601054318E+01  0.30448621527E+02  0.00000000000E+00 0. -1.
        -13    1    4    4    0    0 -0.11205896605E+02  0.81132216514E+02 -0.92671701780E+02  0.12367721288E+03  0.00000000000E+00 0. -1.
         13    1    4    4    0    0  0.21363455884E+01 -0.26883295700E+02 -0.11259644180E+02  0.29224221927E+02  0.00000000000E+00 0.  1.
         21    1    1    2  502  501  0.34218125371E+02 -0.22488677689E+02 -0.20746992646E+03  0.21147196295E+03  0.00000000000E+00 0. -1.
<scales pt_clust_5="13000.00000" pt_clust_6="13000.00000" pt_clust_7="13000.00000" pt_clust_8="13000.00000" pt_clust_9="40.94656"></scales>
<clustering>
<clus scale="   40.947">  2  9  1 -1</clus>
<clus scale="   92.163">  5  6 -1 -1</clus>
<clus scale="   97.734">  7  8 -1 -1</clus>
<clus scale="  100.611">  1  5  2 -1</clus>
<clus scale="   40.947">  2  5  1 -1</clus>
</clustering>
</event>
<event>
 9    1  0.1234700E-005  0.9799836E+02  0.7546771E-02  0.1288626E+00
          1   -1    0    0  502    0  0.00000000000E+00  0.00000000000E+00  0.53067420365E+03  0.53067420365E+03  0.00000000000E+00 0. -1.
         -1   -1    0    0    0  501 -0.00000000000E+00 -0.00000000000E+00 -0.61684142589E+02  0.61684142589E+02  0.00000000000E+00 0.  1.
         23    2    1    2    0    0  0.15552358777E+02  0.13196405679E+02  0.16420896237E+02  0.10088423452E+03  0.97426700427E+02 0.  0.
         23    2    1    2    0    0  0.44266557815E+01  0.46512692595E+02  0.14192380569E+03  0.17451216353E+03  0.90161536961E+02 0.  0.
        -11    1    3    3    0    0  0.47800105018E+02 -0.16334570397E+02 -0.74595183126E+01  0.51061851154E+02  0.00000000000E+00 0. -1.
         11    1    3    3    0    0 -0.32247746241E+02  0.29530976077E+02  0.23880414550E+02  0.49822383371E+02  0.00000000000E+00 0.  1.
        -13    1    4    4    0    0  0.33302558398E+02  0.56106739660E+02  0.66409993220E+02  0.93098409388E+02  0.00000000000E+00 0.  1.
         13    1    4    4    0    0 -0.28875902617E+02 -0.95940470650E+01  0.75513812466E+02  0.81413754146E+02  0.00000000000E+00 0. -1.
         21    1    1    2  502  501 -0.19979014558E+02 -0.59709098274E+02  0.31064535913E+03  0.31696194818E+03  0.00000000000E+00 0. -1.
<scales pt_clust_5="13000.00000" pt_clust_6="13000.00000" pt_clust_7="13000.00000" pt_clust_8="13000.00000" pt_clust_9="62.96298"></scales>
<clustering>
<clus scale="   62.963">  1  9  2 -1</clus>
<clus scale="   90.162">  7  8 -1 -1</clus>
<clus scale="   90.779">  1  7  2 -1</clus>
<clus scale="   97.427">  5  6 -1 -1</clus>
<clus scale="   62.963">  1  5  2 -1</clus>
</clustering>
</event>
<event>
 9    1  0.1234700E-005  0.1033052E+03  0.7546771E-02  0.1274079E+00
         -2   -1    0    0    0  501 -0.00000000000E+00  0.00000000000E+00  0.37905805460E+03  0.37905805460E+03  0.00000000000E+00 0.  1.
          2   -1    0    0  502    0  0.00000000000E+00 -0.00000000000E+00 -0.12927028034E+03  0.12927028034E+03  0.00000000000E+00 0. -1.
         23    2    1    2    0    0 -0.42862355908E+02  0.87571594431E+01  0.31197040563E+03  0.32790445925E+03  0.91005115304E+02 0.  0.
         23    2    1    2    0    0  0.64092357442E+02 -0.10390486507E+02  0.19339917098E+01  0.11286410898E+03  0.92297206235E+02 0.  0.
        -11    1    3    3    0    0 -0.66414260202E+02 -0.11917385622E+02  0.17911556816E+03  0.19140340853E+03  0.00000000000E+00 0.  1.
         11    1    3    3    0    0  0.23551904294E+02  0.20674545065E+02  0.13285483747E+03  0.13650105072E+03  0.00000000000E+00 0. -1.
        -13    1    4    4    0    0  0.49911097030E+02 -0.29458414394E+02  0.38267149282E+02  0.69449913603E+02  0.00000000000E+00 0.  1.
         13    1    4    4    0    0  0.14181260412E+02  0.19067927886E+02 -0.36333157572E+02  0.43414195373E+02  0.00000000000E+00 0. -1.
         21    1    1    2  502  501 -0.21230001533E+02  0.16333270643E+01 -0.64116623084E+02  0.67559766712E+02  0.00000000000E+00 0. -1.
<scales pt_clust_5="13000.00000" pt_clust_6="13000.00000" pt_clust_7="13000.00000" pt_clust_8="13000.00000" pt_clust_9="21.29274"></scales>
<clustering>
<clus scale="   21.293">  2  9  1 -1</clus>
<clus scale="   91.005">  5  6 -1 -1</clus>
<clus scale="   92.297">  7  8 -1 -1</clus>
<clus scale="  102.152">  1  5  2 -1</clus>
<clus scale="   21.293">  2  5  1 -1</clus>
</clustering>
</event>
<event>
 9    1  0.1234700E-005  0.1193526E+03  0.7546771E-02  0.1244403E+00
         -1   -1    0    0    0  501 -0.00000000000E+00  0.00000000000E+00  0.41879859025E+02  0.41879859025E+02  0.00000000000E+00 0.  1.
          1   -1    0    0  502    0  0.00000000000E+00 -0.00000000000E+00 -0.80403489131E+03  0.80403489131E+03  0.00000000000E+00 0. -1.
         23    2    1    2    0    0  0.19958294038E+02 -0.22395562684E+02 -0.72747381093E+02  0.12046862102E+03  0.91217391244E+02 0.  0.
         23    2    1    2    0    0 -0.95118150193E+02  0.33907777282E+00 -0.55087821398E+03  0.56630500491E+03  0.90481901369E+02 0.  0.
        -11    1    4    4    0    0  0.17880247580E+01  0.22932606893E+02 -0.42948709936E+02  0.48720562154E+02  0.00000000000E+00 0.  1.
         11    1    4    4    0    0 -0.96906174951E+02 -0.22593529120E+02 -0.50792950405E+03  0.51758444276E+03  0.00000000000E+00 0. -1.
        -11    1    3    3    0    0 -0.38448605588E+01 -0.35649840532E+02  0.67021663741E+01  0.36477570051E+02  0.00000000000E+00 0.  1.
         11    1    3    3    0    0  0.23803154597E+02  0.13254277848E+02 -0.79449547467E+02  0.83991050968E+02  0.00000000000E+00 0. -1.
         21    1    1    2  502  501  0.75159856156E+02  0.22056484911E+02 -0.13852943721E+03  0.15914112441E+03  0.00000000000E+00 0. -1.
<scales pt_clust_5="13000.00000" pt_clust_6="13000.00000" pt_clust_7="13000.00000" pt_clust_8="13000.00000" pt_clust_9="78.32938"></scales>
<clustering>
<clus scale="   78.329">  1  9  2 -1</clus>
<clus scale="   90.482">  5  6 -1 -1</clus>
<clus scale="   91.217">  7  8 -1 -1</clus>
<clus scale="  118.791">  2  5  1 -1</clus>
<clus scale="  118.791">  2  5  1 -1</clus>
</clustering>
</event>
<event>
 9    1  0.1234700E-005  0.9544149E+02  0.7546771E-02  0.1294630E+00
          2   -1    0    0  502    0  0.00000000000E+00  0.00000000000E+00  0.63876714487E+03  0.63876714487E+03  0.00000000000E+00 0. -1.
         -2   -1    0    0    0  501 -0.00000000000E+00 -0.00000000000E+00 -0.46682765395E+02  0.46682765395E+02  0.00000000000E+00 0.  1.
         23    2    1    2    0    0 -0.15211310930E+02 -0.16006621840E+02  0.45724245482E+02  0.99397093284E+02  0.85448695751E+02 0.  0.
         23    2    1    2    0    0 -0.36296732561E+02  0.29197192450E+02  0.13149143852E+03  0.16779081275E+03  0.93240707839E+02 0.  0.
        -11    1    3    3    0    0  0.15423623027E+02  0.20696620511E+02 -0.84355641244E+01  0.27155054593E+02  0.00000000000E+00 0.  1.
         11    1    3    3    0    0 -0.30634933958E+02 -0.36703242351E+02  0.54159809607E+02  0.72242038691E+02  0.00000000000E+00 0. -1.
        -13    1    4    4    0    0 -0.12709040223E+02 -0.28115643956E+02  0.84667736850E+02  0.90114564871E+02  0.00000000000E+00 0. -1.
         13    1    4    4    0    0 -0.23587692338E+02  0.57312836406E+02  0.46823701665E+02  0.77676247878E+02  0.00000000000E+00 0.  1.
         21    1    1    2  502  501  0.51508043491E+02 -0.13190570610E+02  0.41486869548E+03  0.41826200423E+03  0.00000000000E+00 0. -1.
<scales pt_clust_5="13000.00000" pt_clust_6="13000.00000" pt_clust_7="13000.00000" pt_clust_8="13000.00000" pt_clust_9="53.17020"></scales>
<clustering>
<clus scale="   53.170">  1  9  2 -1</clus>
<clus scale="   85.449">  5  6 -1 -1</clus>
<clus scale="   87.845">  2  5  1 -1</clus>
<clus scale="   93.241">  7  8 -1 -1</clus>
<clus scale="   53.170">  1  5  2 -1</clus>
</clustering>
</event>
<event>
 9    1  0.1234700E-005  0.1026818E+03  0.7546771E-02  0.1276471E+00
          2   -1    0    0  502    0  0.00000000000E+00  0.00000000000E+00  0.51806371579E+03  0.51806371579E+03  0.00000000000E+00 0. -1.
         -2   -1    0    0    0  501 -0.00000000000E+00 -0.00000000000E+00 -0.81622009813E+02  0.81622009813E+02  0.00000000000E+00 0.  1.
         23    2    1    2    0    0 -0.22465703024E+02 -0.39232826554E+02 -0.33985233145E+02  0.10448693544E+03  0.87855569621E+02 0.  0.
         23    2    1    2    0    0  0.61491628813E+02  0.30172957453E+02  0.33633080728E+03  0.35524566699E+03  0.91593909258E+02 0.  0.
        -13    1    3    3    0    0 -0.20945941007E+01 -0.32231129717E+02 -0.61546293669E+02  0.69506685374E+02  0.00000000000E+00 0.  1.
         13    1    3    3    0    0 -0.20371108923E+02 -0.70016968370E+01  0.27561060523E+02  0.34980250064E+02  0.00000000000E+00 0. -1.
        -13    1    4    4    0    0 -0.17284033507E+02  0.14857228431E+02  0.25405454119E+02  0.34130809394E+02  0.00000000000E+00 0.  1.
         13    1    4    4    0    0  0.78775662320E+02  0.15315729022E+02  0.31092535316E+03  0.32111485759E+03  0.00000000000E+00 0. -1.
         21    1    1    2  502  501 -0.39025925788E+02  0.90598691012E+01  0.13409613184E+03  0.13995312317E+03  0.00000000000E+00 0. -1.
<scales pt_clust_5="13000.00000" pt_clust_6="13000.00000" pt_clust_7="13000.00000" pt_clust_8="13000.00000" pt_clust_9="40.06375"></scales>
<clustering>
<clus scale="   40.064">  1  9  2 -1</clus>
<clus scale="   87.856">  5  6 -1 -1</clus>
<clus scale="   91.594">  7  8 -1 -1</clus>
<clus scale="   99.362">  2  5  1 -1</clus>
<clus scale="   40.064">  1  5  2 -1</clus>
</clustering>
</event>
<event>
 9    1  0.1234700E-005  0.1208980E+03  0.7546771E-02  0.1241999E+00
          1   -1    0    0  502    0  0.00000000000E+00  0.00000000000E+00  0.13984295764E+03  0.13984295764E+03  0.00000000000E+00 0. -1.
         -1   -1    0    0    0  501 -0.00000000000E+00 -0.00000000000E+00 -0.13072487677E+03  0.13072487677E+03  0.00000000000E+00 0.  1.
         23    2    1    2    0    0  0.37939934662E+01  0.74778778813E+02 -0.20779154871E+02  0.11970930027E+03  0.91061974212E+02 0.  0.
         23    2    1    2    0    0 -0.25576531773E+02 -0.80744449325E+02  0.24165976001E+02  0.12755798611E+03  0.92267114135E+02 0.  0.
        -13    1    4    4    0    0  0.17338394381E+01 -0.92638379444E+02  0.29621872125E+02  0.97274512866E+02  0.00000000000E+00 0.  1.
         13    1    4    4    0    0 -0.27310371211E+02  0.11893930119E+02 -0.54558961232E+01  0.30283473247E+02  0.00000000000E+00 0. -1.
        -13    1    3    3    0    0 -0.10336175335E+02  0.93690779348E+02 -0.17603947055E+02  0.95888985849E+02  0.00000000000E+00 0. -1.
         13    1    3    3    0    0  0.14130168802E+02 -0.18912000534E+02 -0.31752078166E+01  0.23820314424E+02  0.00000000000E+00 0.  1.
         21    1    1    2  502  501  0.21782538307E+02  0.59656705118E+01  0.57312597375E+01  0.23300548018E+02  0.00000000000E+00 0. -1.
<scales pt_clust_5="13000.00000" pt_clust_6="13000.00000" pt_clust_7="13000.00000" pt_clust_8="13000.00000" pt_clust_9="22.58469"></scales>
<clustering>
<clus scale="   22.585">  1  9  2 -1</clus>
<clus scale="   91.062">  7  8 -1 -1</clus>
<clus scale="   92.267">  5  6 -1 -1</clus>
<clus scale="  119.981">  2  7  1 -1</clus>
<clus scale="   22.585">  1  5  2 -1</clus>
</clustering>
</event>
<event>
 9    1  0.1234700E-005  0.1008687E+03  0.7546771E-02  0.1281235E+00
         -3   -1    0    0    0  501 -0.00000000000E+00  0.00000000000E+00  0.19395756500E+02  0.19395756500E+02  0.00000000000E+00 0.  1.
          3   -1    0    0  502    0  0.00000000000E+00 -0.00000000000E+00 -0.11379561846E+04  0.11379561846E+04  0.00000000000E+00 0. -1.
         23    2    1    2    0    0  0.42566165641E+02  0.11986005915E+02 -0.20058891700E+03  0.22502191953E+03  0.91888018003E+02 0.  0.
         23    2    1    2    0    0  0.11837847545E+02  0.18049114060E+02 -0.50782402541E+03  0.51750130378E+03  0.97244297915E+02 0.  0.
        -11    1    4    4    0    0  0.18183292497E+02  0.57148711069E+02 -0.29977417844E+03  0.30571418901E+03  0.00000000000E+00 0.  1.
         11    1    4    4    0    0 -0.63454449521E+01 -0.39099597009E+02 -0.20804984697E+03  0.21178711477E+03  0.00000000000E+00 0. -1.
        -13    1    3    3    0    0  0.50544345050E+02 -0.29958544665E+02 -0.10477106885E+03  0.12012169697E+03  0.00000000000E+00 0.  1.
         13    1    3    3    0    0 -0.79781794091E+01  0.41944550579E+02 -0.95817848147E+02  0.10490022256E+03  0.00000000000E+00 0. -1.
         21    1    1    2  502  501 -0.54404013186E+02 -0.30035119974E+02 -0.41014748566E+03  0.41482871776E+03  0.00000000000E+00 0. -1.
<scales pt_clust_5="13000.00000" pt_clust_6="13000.00000" pt_clust_7="13000.00000" pt_clust_8="13000.00000" pt_clust_9="62.14423"></scales>
<clustering>
<clus scale="   62.144">  2  9  1 -1</clus>
<clus scale="   91.888">  7  8 -1 -1</clus>
<clus scale="   95.715">  1  7  2 -1</clus>
<clus scale="   97.244">  5  6 -1 -1</clus>
<clus scale="   62.144">  2  5  1 -1</clus>
</clustering>
</event>
<event>
 9    1  0.1234700E-005  0.1034205E+03  0.7546771E-02  0.1273718E+00
          1   -1    0    0  502    0  0.00000000000E+00  0.00000000000E+00  0.25071223376E+03  0.25071223376E+03  0.00000000000E+00 0. -1.
         -1   -1    0    0    0  501 -0.00000000000E+00 -0.00000000000E+00 -0.59934693061E+02  0.59934693061E+02  0.00000000000E+00 0.  1.
         23    2    1    2    0    0 -0.52109972618E+01 -0.54137152642E+02  0.28889056655E+02  0.11052020751E+03  0.91772288220E+02 0.  0.
         23    2    1    2    0    0  0.28762492356E+01  0.33381949418E+02  0.13153640746E+03  0.16328275017E+03  0.90756832573E+02 0.  0.
        -13    1    3    3    0    0  0.17787245550E+02 -0.41427087319E+02 -0.24284302573E+02  0.51208563927E+02  0.00000000000E+00 0.  1.
         13    1    3    3    0    0 -0.22998242812E+02 -0.12710065323E+02  0.53173359228E+02  0.59311643584E+02  0.00000000000E+00 0. -1.
        -13    1    4    4    0    0 -0.35340478587E+02 -0.73732649983E+01  0.28201090654E+02  0.45810653538E+02  0.00000000000E+00 0.  1.
         13    1    4    4    0    0  0.38216727822E+02  0.40755214417E+02  0.10333531680E+03  0.11747209663E+03  0.00000000000E+00 0. -1.
         21    1    1    2  502  501  0.23347480262E+01  0.20755203224E+02  0.30352076585E+02  0.36843969144E+02  0.00000000000E+00 0. -1.
<scales pt_clust_5="13000.00000" pt_clust_6="13000.00000" pt_clust_7="13000.00000" pt_clust_8="13000.00000" pt_clust_9="20.88611"></scales>
<clustering>
<clus scale="   20.886">  1  9  2 -1</clus>
<clus scale="   90.757">  7  8 -1 -1</clus>
<clus scale="   91.772">  5  6 -1 -1</clus>
<clus scale="  102.521">  1  7  2 -1</clus>
<clus scale="   20.886">  1  5  2 -1</clus>
</clustering>
</event>
<event>
 9    1  0.1234700E-005  0.1156526E+03  0.7546771E-02  0.1259989E+00
          2   -1    0    0  502    0  0.00000000000E+00  0.00000000000E+00  0.95288892501E+02  0.95288892501E+02  0.00000000000E+00 0. -1.
         -2   -1    0    0    0  501 -0.00000000000E+00 -0.00000000000E+00 -0.24859398242E+03  0.24859398242E+03  0.00000000000E+00 0.  1.
         23    2    1    2    0    0 -0.13367310904E+02  0.20336992111E+02 -0.12449143387E+03  0.15800196234E+03  0.94203103700E+02 0.  0.
         23    2    1    2    0    0 -0.44242215415E+02 -0.73605649966E+01 -0.31241527819E+02  0.12677812293E+03  0.11439015627E+03 0.  0.
        -11    1    3    3    0    0 -0.50234911171E+02 -0.36740300518E+01 -0.85398769013E+02  0.99146328959E+02  0.00000000000E+00 0.  1.
         11    1    3    3    0    0  0.36867600267E+02  0.24011022163E+02 -0.39092664855E+02  0.58855633377E+02  0.00000000000E+00 0. -1.
        -13    1    4    4    0    0  0.40940515182E+01 -0.46644334444E+02 -0.42789391411E+02  0.63430175870E+02  0.00000000000E+00 0. -1.
         13    1    4    4    0    0 -0.48336266933E+02  0.39283769448E+02  0.11547863593E+02  0.63347947059E+02  0.00000000000E+00 0.  1.
         21    1    1    2  502  501  0.57609526319E+02 -0.12976427114E+02  0.24278717706E+01  0.59102789652E+02  0.00000000000E+00 0. -1.
<scales pt_clust_5="13000.00000" pt_clust_6="13000.00000" pt_clust_7="13000.00000" pt_clust_8="13000.00000" pt_clust_9="59.05290"></scales>
<clustering>
<clus scale="   59.053">  1  9  2 -1</clus>
<clus scale="   94.203">  5  6 -1 -1</clus>
<clus scale="   95.732">  2  5  1 -1</clus>
<clus scale="  114.390">  7  8 -1 -1</clus>
<clus scale="   59.053">  1  5  2 -1</clus>
</clustering>
</event>
<event>
 9    1  0.1234700E-005  0.1226174E+03  0.7546771E-02  0.1241861E+00
         -1   -1    0    0    0  501 -0.00000000000E+00  0.00000000000E+00  0.10154832804E+03  0.10154832804E+03  0.00000000000E+00 0.  1.
          1   -1    0    0  502    0  0.00000000000E+00 -0.00000000000E+00 -0.20747216095E+03  0.20747216095E+03  0.00000000000E+00 0. -1.
         23    2    1    2    0    0 -0.34162312154E+02  0.49573353686E+02 -0.32414208800E+02  0.12064303229E+03  0.99395570031E+02 0.  0.
         23    2    1    2    0    0  0.79074958284E+02 -0.43126072103E+02 -0.47407699163E+02  0.13603222092E+03  0.90247260708E+02 0.  0.
        -13    1    3    3    0    0  0.27939847920E+02 -0.64877849323E+01 -0.22378127585E+02  0.36380036412E+02  0.00000000000E+00 0. -1.
         13    1    3    3    0    0 -0.62102160074E+02  0.56061138618E+02 -0.10036081216E+02  0.84262995883E+02  0.00000000000E+00 0.  1.
        -13    1    4    4    0    0  0.47574662209E+02 -0.26818840109E+02 -0.73807061806E+02  0.91815472779E+02  0.00000000000E+00 0. -1.
         13    1    4    4    0    0  0.31500296075E+02 -0.16307231994E+02  0.26399362643E+02  0.44216748140E+02  0.00000000000E+00 0.  1.
         21    1    1    2  502  501 -0.44912646130E+02 -0.64472815826E+01 -0.26101924954E+02  0.52345235777E+02  0.00000000000E+00 0. -1.
<scales pt_clust_5="13000.00000" pt_clust_6="13000.00000" pt_clust_7="13000.00000" pt_clust_8="13000.00000" pt_clust_9="45.37305"></scales>
<clustering>
<clus scale="   45.373">  2  9  1 -1</clus>
<clus scale="   90.247">  7  8 -1 -1</clus>
<clus scale="   99.396">  5  6 -1 -1</clus>
<clus scale="  115.326">  2  7  1 -1</clus>
<clus scale="   45.373">  2  5  1 -1</clus>
</clustering>
</event>
<event>
 9    1  0.1234700E-005  0.1190614E+03  0.7546771E-02  0.1244852E+00
          1   -1    0    0  502    0  0.00000000000E+00  0.00000000000E+00  0.51274743558E+03  0.51274743558E+03  0.00000000000E+00 0. -1.
         -1   -1    0    0    0  501 -0.00000000000E+00 -0.00000000000E+00 -0.37574599181E+02  0.37574599181E+02  0.00000000000E+00 0.  1.
         23    2    1    2    0    0  0.68889693458E+02 -0.23724566474E+02  0.14489680519E+03  0.18543991412E+03  0.89912361086E+02 0.  0.
         23    2    1    2    0    0 -0.74726203848E+02  0.43186394083E+02  0.21891786798E+03  0.25168553011E+03  0.89283273769E+02 0.  0.
        -11    1    4    4    0    0 -0.34548386203E+02 -0.14094295868E+02  0.23442405422E+02  0.44065707043E+02  0.00000000000E+00 0.  1.
         11    1    4    4    0    0 -0.40177817645E+02  0.57280689951E+02  0.19547546255E+03  0.20761982307E+03  0.00000000000E+00 0. -1.
        -11    1    3    3    0    0  0.52892741517E+01 -0.45213208063E+02  0.80132193829E+02  0.92159530664E+02  0.00000000000E+00 0.  1.
         11    1    3    3    0    0  0.63600419306E+02  0.21488641588E+02  0.64764611360E+02  0.93280383457E+02  0.00000000000E+00 0. -1.
         21    1    1    2  502  501  0.58365103903E+01 -0.19461827609E+02  0.11135816324E+03  0.11319659053E+03  0.00000000000E+00 0. -1.
<scales pt_clust_5="13000.00000" pt_clust_6="13000.00000" pt_clust_7="13000.00000" pt_clust_8="13000.00000" pt_clust_9="20.31816"></scales>
<clustering>
<clus scale="   20.318">  1  9  2 -1</clus>
<clus scale="   89.283">  5  6 -1 -1</clus>
<clus scale="   89.912">  7  8 -1 -1</clus>
<clus scale="  118.587">  1  5  2 -1</clus>
<clus scale="   20.318">  1  5  2 -1</clus>
</clustering>
</event>
<event>
 9    1  0.1234700E-005  0.1160479E+03  0.7546771E-02  0.1249898E+00
          3   -1    0    0  502    0  0.00000000000E+00  0.00000000000E+00  0.92249642677E+02  0.92249642677E+02  0.00000000000E+00 0. -1.
         -3   -1    0    0    0  501 -0.00000000000E+00 -0.00000000000E+00 -0.31201871145E+03  0.31201871145E+03  0.00000000000E+00 0.  1.
         23    2    1    2    0    0  0.60113192860E+02  0.46270407226E+02 -0.21127996523E+03  0.24345725096E+03  0.94221350012E+02 0.  0.
         23    2    1    2    0    0 -0.53585431313E+02  0.56536801787E+01 -0.38948166518E+01  0.10827701904E+03  0.93836990074E+02 0.  0.
        -11    1    4    4    0    0 -0.36036927639E+02 -0.40684079408E+02 -0.17139806649E+02  0.56987958754E+02  0.00000000000E+00 0.  1.
         11    1    4    4    0    0 -0.17548503674E+02  0.46337759587E+02  0.13244989998E+02  0.51289060283E+02  0.00000000000E+00 0. -1.
        -11    1    3    3    0    0  0.79146434885E+02  0.13491644891E+02 -0.16607275693E+03  0.18446230843E+03  0.00000000000E+00 0.  1.
         11    1    3    3    0    0 -0.19033242025E+02  0.32778762336E+02 -0.45207208297E+02  0.58994942531E+02  0.00000000000E+00 0. -1.
         21    1    1    2  502  501 -0.65277615474E+01 -0.51924087405E+02 -0.45942868982E+01  0.52534084134E+02  0.00000000000E+00 0.  1.
<scales pt_clust_5="13000.00000" pt_clust_6="13000.00000" pt_clust_7="13000.00000" pt_clust_8="13000.00000" pt_clust_9="52.33281"></scales>
<clustering>
<clus scale="   52.333">  1  9  2 -1</clus>
<clus scale="   93.837">  5  6 -1 -1</clus>
<clus scale="   94.221">  7  8 -1 -1</clus>
<clus scale="  115.736">  1  5  2 -1</clus>
<clus scale="   52.333">  1  5  2 -1</clus>
</clustering>
</event>
<event>
 9    1  0.1234700E-005  0.1833220E+03  0.7546771E-02  0.1164695E+00
         -2   -1    0    0    0  501 -0.00000000000E+00  0.00000000000E+00  0.30072936141E+03  0.30072936141E+03  0.00000000000E+00 0.  1.
          2   -1    0    0  502    0  0.00000000000E+00 -0.00000000000E+00 -0.24519893055E+03  0.24519893055E+03  0.00000000000E+00 0. -1.
         23    2    1    2    0    0  0.12494611621E+03 -0.12730260135E+02  0.75897077283E+02  0.17382479750E+03  0.93172433734E+02 0.  0.
         23    2    1    2    0    0 -0.22247122799E+03  0.57811045695E+02  0.36593416966E+02  0.25049809377E+03  0.92599419699E+02 0.  0.
        -13    1    4    4    0    0 -0.99165088581E+02  0.67774270168E+02 -0.43476285964E+01  0.12019138224E+03  0.00000000000E+00 0.  1.
         13    1    4    4    0    0 -0.12330613941E+03 -0.99632244736E+01  0.40941045562E+02  0.13030671153E+03  0.00000000000E+00 0. -1.
        -13    1    3    3    0    0  0.10717146334E+02 -0.37901917973E+02  0.17845544401E+02  0.43242063625E+02  0.00000000000E+00 0. -1.
         13    1    3    3    0    0  0.11422896988E+03  0.25171657837E+02  0.58051532881E+02  0.13058273388E+03  0.00000000000E+00 0.  1.
         21    1    1    2  502  501  0.97525111779E+02 -0.45080785559E+02 -0.56960063395E+02  0.12160540069E+03  0.00000000000E+00 0.  1.
<scales pt_clust_5="13000.00000" pt_clust_6="13000.00000" pt_clust_7="13000.00000" pt_clust_8="13000.00000" pt_clust_9="107.44033"></scales>
<clustering>
<clus scale="   92.599">  5  6 -1 -1</clus>
<clus scale="   93.172">  7  8 -1 -1</clus>
<clus scale="  107.440">  2  9  1 -1</clus>
<clus scale="  183.031">  2  5  1 -1</clus>
<clus scale="  107.440">  2  5  1 -1</clus>
</clustering>
</event>
<event>
 9    1  0.1234700E-005  0.9552625E+02  0.7546771E-02  0.1291654E+00
         -1   -1    0    0    0  501 -0.00000000000E+00  0.00000000000E+00  0.41485284109E+02  0.41485284109E+02  0.00000000000E+00 0.  1.
          1   -1    0    0  502    0  0.00000000000E+00 -0.00000000000E+00 -0.34323285404E+03  0.34323285404E+03  0.00000000000E+00 0. -1.
         23    2    1    2    0    0 -0.50375394120E+01 -0.25929327240E+02 -0.11263886949E+03  0.14611063243E+03  0.89236176387E+02 0.  0.
         23    2    1    2    0    0  0.36529925337E+02 -0.12122117887E+01 -0.15840868717E+03  0.18692651959E+03  0.92262162627E+02 0.  0.
        -13    1    3    3    0    0 -0.11531309670E+01  0.26086251550E+02 -0.80999770458E+02  0.85104553610E+02  0.00000000000E+00 0. -1.
         13    1    3    3    0    0 -0.38844084451E+01 -0.52015578791E+02 -0.31639099029E+02  0.61006078822E+02  0.00000000000E+00 0.  1.
        -13    1    4    4    0    0 -0.21273802511E+02 -0.55792597603E+01 -0.44807318332E+01  0.22445038884E+02  0.00000000000E+00 0.  1.
         13    1    4    4    0    0  0.57803727848E+02  0.43670479716E+01 -0.15392795533E+03  0.16448148070E+03  0.00000000000E+00 0. -1.
         21    1    1    2  502  501 -0.31492385925E+02  0.27141539029E+02 -0.30700013277E+02  0.51680986129E+02  0.00000000000E+00 0. -1.
<scales pt_clust_5="13000.00000" pt_clust_6="13000.00000" pt_clust_7="13000.00000" pt_clust_8="13000.00000" pt_clust_9="41.57443"></scales>
<clustering>
<clus scale="   41.574">  1  9  2 -1</clus>
<clus scale="   89.236">  5  6 -1 -1</clus>
<clus scale="   92.262">  7  8 -1 -1</clus>
<clus scale="   92.607">  1  5  2 -1</clus>
<clus scale="   95.526">  2  5  1 -1</clus>
</clustering>
</event>
<event>
 9    1  0.1234700E-005  0.9565896E+02  0.7546771E-02  0.1291391E+00
          2   -1    0    0  502    0  0.00000000000E+00  0.00000000000E+00  0.44822486296E+03  0.44822486296E+03  0.00000000000E+00 0. -1.
         -2   -1    0    0    0  501 -0.00000000000E+00 -0.00000000000E+00 -0.74410480540E+02  0.74410480540E+02  0.00000000000E+00 0.  1.
         23    2    1    2    0    0  0.44015342763E+00 -0.19830125378E+02  0.13589872351E+02  0.98290350420E+02  0.95304148638E+02 0.  0.
         23    2    1    2    0    0  0.24185305560E+02 -0.65467480926E+02  0.11333945786E+03  0.16198203099E+03  0.92311568031E+02 0.  0.
        -11    1    4    4    0    0 -0.13895639751E+02 -0.72749924904E+02  0.56393852470E+02  0.93090853332E+02  0.00000000000E+00 0.  1.
         11    1    4    4    0    0  0.38080945311E+02  0.72824439785E+01  0.56945605390E+02  0.68891177659E+02  0.00000000000E+00 0. -1.
        -11    1    3    3    0    0  0.96548290834E+01 -0.43108659188E+02 -0.26139349597E+02  0.51330671328E+02  0.00000000000E+00 0.  1.
         11    1    3    3    0    0 -0.92146756557E+01  0.23278533810E+02  0.39729221948E+02  0.46959679092E+02  0.00000000000E+00 0. -1.
         21    1    1    2  502  501 -0.24625458988E+02  0.85297606304E+02  0.24688505221E+03  0.26236296209E+03  0.00000000000E+00 0. -1.
<scales pt_clust_5="13000.00000" pt_clust_6="13000.00000" pt_clust_7="13000.00000" pt_clust_8="13000.00000" pt_clust_9="88.78116"></scales>
<clustering>
<clus scale="   88.781">  1  9  2 -1</clus>
<clus scale="   92.312">  5  6 -1 -1</clus>
<clus scale="   92.678">  1  5  2 -1</clus>
<clus scale="   95.304">  7  8 -1 -1</clus>
<clus scale="   88.781">  1  5  2 -1</clus>
</clustering>
</event>
<event>
 9    1  0.1234700E-005  0.1220145E+03  0.7546771E-02  0.1240492E+00
         -2   -1    0    0    0  501 -0.00000000000E+00  0.00000000000E+00  0.33497827202E+02  0.33497827202E+02  0.00000000000E+00 0.  1.
          2   -1    0    0  502    0  0.00000000000E+00 -0.00000000000E+00 -0.76315661863E+03  0.76315661863E+03  0.00000000000E+00 0. -1.
         23    2    1    2    0    0  0.18558244170E+02  0.87464651186E+02 -0.13782913871E+03  0.18785325606E+03  0.91090618076E+02 0.  0.
         23    2    1    2    0    0 -0.19337897945E+02 -0.58625808815E+02 -0.38283080823E+03  0.39782061321E+03  0.88830584865E+02 0.  0.
        -13    1    3    3    0    0 -0.19474609930E+02  0.12380524039E+02 -0.85922178423E+02  0.88967176826E+02  0.00000000000E+00 0. -1.
         13    1    3    3    0    0  0.38032854099E+02  0.75084127147E+02 -0.51906960288E+02  0.98886079236E+02  0.00000000000E+00 0.  1.
        -13    1    4    4    0    0 -0.46427610606E+02 -0.47293632408E+02 -0.33652726905E+03  0.34299098167E+03  0.00000000000E+00 0. -1.
         13    1    4    4    0    0  0.27089712661E+02 -0.11332176407E+02 -0.46303539188E+02  0.54829631546E+02  0.00000000000E+00 0.  1.
         21    1    1    2  502  501  0.77965377551E+00 -0.28838842371E+02 -0.20899884448E+03  0.21098057656E+03  0.00000000000E+00 0. -1.
<scales pt_clust_5="13000.00000" pt_clust_6="13000.00000" pt_clust_7="13000.00000" pt_clust_8="13000.00000" pt_clust_9="28.84938"></scales>
<clustering>
<clus scale="   28.849">  2  9  1 -1</clus>
<clus scale="   88.831">  7  8 -1 -1</clus>
<clus scale="   91.091">  5  6 -1 -1</clus>
<clus scale="  120.337">  2  7  1 -1</clus>
<clus scale="   28.849">  2  5  1 -1</clus>
</clustering>
</event>
<event>
 9    1  0.1234700E-005  0.1235946E+03  0.7546771E-02  0.1240741E+00
          1   -1    0    0  502    0  0.00000000000E+00  0.00000000000E+00  0.25689046158E+02  0.25689046158E+02  0.00000000000E+00 0. -1.
         -1   -1    0    0    0  501 -0.00000000000E+00 -0.00000000000E+00 -0.72456644823E+03  0.72456644823E+03  0.00000000000E+00 0.  1.
         23    2    1    2    0    0  0.87358810871E+02  0.23927244974E+02 -0.41849723077E+03  0.43585691892E+03  0.81407903318E+02 0.  0.
         23    2    1    2    0    0 -0.61058887134E+02 -0.30137699479E+02 -0.22958518646E+03  0.25686261958E+03  0.92911672412E+02 0.  0.
        -11    1    3    3    0    0  0.18319495313E+02  0.13135188312E+02 -0.16765186407E+02  0.28092855957E+02  0.00000000000E+00 0. -1.
         11    1    3    3    0    0  0.69039315558E+02  0.10792056663E+02 -0.40173204436E+03  0.40776406297E+03  0.00000000000E+00 0.  1.
        -13    1    4    4    0    0 -0.40807729987E+02  0.17831322317E+02 -0.38686875989E+02  0.58990687875E+02  0.00000000000E+00 0.  1.
         13    1    4    4    0    0 -0.20251157147E+02 -0.47969021796E+02 -0.19089831047E+03  0.19787193171E+03  0.00000000000E+00 0. -1.
         21    1    1    2  502  501 -0.26299923738E+02  0.62104545044E+01 -0.50794984845E+02  0.57535955881E+02  0.00000000000E+00 0. -1.
<scales pt_clust_5="13000.00000" pt_clust_6="13000.00000" pt_clust_7="13000.00000" pt_clust_8="13000.00000" pt_clust_9="27.02324"></scales>
<clustering>
<clus scale="   27.023">  1  9  2 -1</clus>
<clus scale="   81.408">  5  6 -1 -1</clus>
<clus scale="   92.912">  7  8 -1 -1</clus>
<clus scale="  115.197">  2  5  1 -1</clus>
<clus scale="   27.023">  1  5  2 -1</clus>
</clustering>
</event>
<event>
 9    1  0.1234700E-005  0.1119987E+03  0.7546771E-02  0.1257635E+00
          1   -1    0    0  502    0  0.00000000000E+00  0.00000000000E+00  0.79397593623E+03  0.79397593623E+03  0.00000000000E+00 0. -1.
         -1   -1    0    0    0  501 -0.00000000000E+00 -0.00000000000E+00 -0.64258059246E+02  0.64258059246E+02  0.00000000000E+00 0.  1.
         23    2    1    2    0    0  0.59951936388E+02 -0.41247886672E+01  0.38171506156E+01  0.10981298773E+03  0.91831765071E+02 0.  0.
         23    2    1    2    0    0 -0.10431746552E+03  0.28698168159E+01  0.55926341616E+03  0.57597429632E+03  0.89891333881E+02 0.  0.
        -11    1    4    4    0    0 -0.24336465115E+02 -0.39626676212E+02  0.16388507429E+03  0.17035508380E+03  0.00000000000E+00 0.  1.
         11    1    4    4    0    0 -0.79981000406E+02  0.42496493028E+02  0.39537834187E+03  0.40561921252E+03  0.00000000000E+00 0. -1.
        -11    1    3    3    0    0  0.34879142914E+02 -0.86126329561E+01 -0.43292625925E+02  0.56258186216E+02  0.00000000000E+00 0.  1.
         11    1    3    3    0    0  0.25072793473E+02  0.44878442889E+01  0.47109776541E+02  0.53554801509E+02  0.00000000000E+00 0. -1.
         21    1    1    2  502  501  0.44365529133E+02  0.12549718513E+01  0.16663731021E+03  0.17244671144E+03  0.00000000000E+00 0. -1.
<scales pt_clust_5="13000.00000" pt_clust_6="13000.00000" pt_clust_7="13000.00000" pt_clust_8="13000.00000" pt_clust_9="44.38328"></scales>
<clustering>
<clus scale="   44.383">  1  9  2 -1</clus>
<clus scale="   89.891">  5  6 -1 -1</clus>
<clus scale="   91.832">  7  8 -1 -1</clus>
<clus scale="  110.413">  1  5  2 -1</clus>
<clus scale="   44.383">  1  5  2 -1</clus>
</clustering>
</event>
<event>
 9    1  0.1234700E-005  0.2146483E+03  0.7546771E-02  0.1170394E+00
         -1   -1    0    0    0  501 -0.00000000000E+00  0.00000000000E+00  0.24368448015E+03  0.24368448015E+03  0.00000000000E+00 0.  1.
          1   -1    0    0  502    0  0.00000000000E+00 -0.00000000000E+00 -0.71272591941E+03  0.71272591941E+03  0.00000000000E+00 0. -1.
         23    2    1    2    0    0 -0.16450094224E+03  0.96792562013E+02  0.14797577066E+03  0.25770256466E+03  0.89913419875E+02 0.  0.
         23    2    1    2    0    0 -0.30268387639E+02  0.20323164577E+02 -0.20755993366E+03  0.23040617320E+03  0.93148656860E+02 0.  0.
        -11    1    3    3    0    0 -0.71674722625E+02  0.91320326266E+02  0.64837233484E+02  0.13296817175E+03  0.00000000000E+00 0. -1.
         11    1    3    3    0    0 -0.92826219616E+02  0.54722357461E+01  0.83138537171E+02  0.12473439291E+03  0.00000000000E+00 0.  1.
        -13    1    4    4    0    0 -0.62808848187E+02  0.51702541799E+01 -0.14810174510E+03  0.16095281868E+03  0.00000000000E+00 0.  1.
         13    1    4    4    0    0  0.32540460548E+02  0.15152910397E+02 -0.59458188563E+02  0.69453354515E+02  0.00000000000E+00 0. -1.
         21    1    1    2  502  501  0.19476932988E+03 -0.11711572659E+03 -0.40945727625E+03  0.46830166170E+03  0.00000000000E+00 0. -1.
<scales pt_clust_5="13000.00000" pt_clust_6="13000.00000" pt_clust_7="13000.00000" pt_clust_8="13000.00000" pt_clust_9="194.90891"></scales>
<clustering>
<clus scale="   89.913">  5  6 -1 -1</clus>
<clus scale="   93.149">  7  8 -1 -1</clus>
<clus scale="  100.029">  2  7  1 -1</clus>
<clus scale="  194.909">  2  9  1 -1</clus>
<clus scale="  100.029">  2  5  1 -1</clus>
</clustering>
</event>
<event>
 9    1  0.1234700E-005  0.9911855E+02  0.7546771E-02  0.1282281E+00
          1   -1    0    0  502    0  0.00000000000E+00  0.00000000000E+00  0.45774603173E+03  0.45774603173E+03  0.00000000000E+00 0. -1.
         -1   -1    0    0    0  501 -0.00000000000E+00 -0.00000000000E+00 -0.47610448694E+02  0.47610448694E+02  0.00000000000E+00 0.  1.
         23    2    1    2    0    0  0.17769074990E+01 -0.57387110052E+02  0.14013058611E+03  0.17714729919E+03  0.91913800093E+02 0.  0.
         23    2    1    2    0    0 -0.50826685269E+02 -0.71946007397E+01  0.15081600677E+03  0.18404714240E+03  0.92156217965E+02 0.  0.
        -11    1    3    3    0    0  0.37811574925E+02 -0.58136513916E+02  0.11063434405E+03  0.13057383939E+03  0.00000000000E+00 0.  1.
         11    1    3    3    0    0 -0.36034667426E+02  0.74940386377E+00  0.29496242056E+02  0.46573459804E+02  0.00000000000E+00 0. -1.
        -11    1    4    4    0    0 -0.43847526448E+02 -0.34389872429E+02  0.14504832585E+03  0.15538431624E+03  0.00000000000E+00 0.  1.
         11    1    4    4    0    0 -0.69791588207E+01  0.27195271689E+02  0.57676809254E+01  0.28662826158E+02  0.00000000000E+00 0. -1.
         21    1    1    2  502  501  0.49049777770E+02  0.64581710792E+02  0.11918899016E+03  0.14416203884E+03  0.00000000000E+00 0. -1.
<scales pt_clust_5="13000.00000" pt_clust_6="13000.00000" pt_clust_7="13000.00000" pt_clust_8="13000.00000" pt_clust_9="81.09672"></scales>
<clustering>
<clus scale="   81.097">  1  9  2 -1</clus>
<clus scale="   91.914">  5  6 -1 -1</clus>
<clus scale="   92.156">  7  8 -1 -1</clus>
<clus scale="   98.893">  2  5  1 -1</clus>
<clus scale="   81.097">  1  5  2 -1</clus>
</clustering>
</event>
<event>
 9    1  0.1234700E-005  0.1610706E+03  0.7546771E-02  0.1195197E+00
         -1   -1    0    0    0  501 -0.00000000000E+00  0.00000000000E+00  0.48846931790E+02  0.48846931790E+02  0.00000000000E+00 0.  1.
          1   -1    0    0  502    0  0.00000000000E+00 -0.00000000000E+00 -0.55645845137E+03  0.55645845137E+03  0.00000000000E+00 0. -1.
         23    2    1    2    0    0 -0.10157764237E+03 -0.36710851915E+02 -0.21522562772E+03  0.27259906360E+03  0.12775944024E+03 0.  0.
         23    2    1    2    0    0  0.92298535803E+02  0.13815363967E+02 -0.26144622740E+03  0.29311379471E+03  0.94083382353E+02 0.  0.
        -11    1    4    4    0    0  0.84252650275E+02 -0.98705649610E+01 -0.25278970152E+03  0.26664315166E+03  0.00000000000E+00 0. -1.
         11    1    4    4    0    0  0.80458855275E+01  0.23685928928E+02 -0.86565258723E+01  0.26470643046E+02  0.00000000000E+00 0.  1.
        -13    1    3    3    0    0 -0.24917715961E+02 -0.71894431062E+02 -0.14109728349E+03  0.16030641034E+03  0.00000000000E+00 0. -1.
         13    1    3    3    0    0 -0.76659926410E+02  0.35183579147E+02 -0.74128344225E+02  0.11229265326E+03  0.00000000000E+00 0.  1.
         21    1    1    2  502  501  0.92791065687E+01  0.22895487948E+02 -0.30939664473E+02  0.39592524860E+02  0.00000000000E+00 0. -1.
<scales pt_clust_5="13000.00000" pt_clust_6="13000.00000" pt_clust_7="13000.00000" pt_clust_8="13000.00000" pt_clust_9="24.70436"></scales>
<clustering>
<clus scale="   24.704">  1  9  2 -1</clus>
<clus scale="   94.083">  5  6 -1 -1</clus>
<clus scale="  127.759">  7  8 -1 -1</clus>
<clus scale="  135.915">  2  5  1 -1</clus>
<clus scale="  135.915">  2  5  1 -1</clus>
</clustering>
</event>
<event>
 9    1  0.1234700E-005  0.9480805E+02  0.7546771E-02  0.1293215E+00
         -1   -1    0    0    0  501 -0.00000000000E+00  0.00000000000E+00  0.32981303471E+02  0.32981303471E+02  0.00000000000E+00 0.  1.
          1   -1    0    0  502    0  0.00000000000E+00 -0.00000000000E+00 -0.41907394150E+03  0.41907394150E+03  0.00000000000E+00 0. -1.
         23    2    1    2    0    0 -0.13411843169E+02 -0.22030166379E+02 -0.73954288101E+02  0.11790173466E+03  0.88127047717E+02 0.  0.
         23    2    1    2    0    0 -0.48495058871E+01  0.33439167493E+02 -0.26776833981E+03  0.28483475147E+03  0.91045352490E+02 0.  0.
        -11    1    3    3    0    0  0.11658731120E+02  0.29354094928E+02 -0.12510932594E+02  0.33972228876E+02  0.00000000000E+00 0. -1.
         11    1    3    3    0    0 -0.25070574289E+02 -0.51384261307E+02 -0.61443355507E+02  0.83929505784E+02  0.00000000000E+00 0.  1.
        -13    1    4    4    0    0 -0.39559510518E+02 -0.99648297391E+01 -0.96297543898E+02  0.10458235829E+03  0.00000000000E+00 0.  1.
         13    1    4    4    0    0  0.34710004631E+02  0.43403997232E+02 -0.17147079591E+03  0.18025239318E+03  0.00000000000E+00 0. -1.
         21    1    1    2  502  501  0.18261349056E+02 -0.11409001115E+02 -0.44370010117E+02  0.49318758841E+02  0.00000000000E+00 0. -1.
<scales pt_clust_5="13000.00000" pt_clust_6="13000.00000" pt_clust_7="13000.00000" pt_clust_8="13000.00000" pt_clust_9="21.53235"></scales>
<clustering>
<clus scale="   21.532">  2  9  1 -1</clus>
<clus scale="   88.127">  5  6 -1 -1</clus>
<clus scale="   91.045">  7  8 -1 -1</clus>
<clus scale="   92.009">  1  5  2 -1</clus>
<clus scale="   21.532">  2  5  1 -1</clus>
</clustering>
</event>
<event>
 9    1  0.1234700E-005  0.2056601E+03  0.7546771E-02  0.1145335E+00
          1   -1    0    0  502    0  0.00000000000E+00  0.00000000000E+00  0.87471927021E+02  0.87471927021E+02  0.00000000000E+00 0. -1.
         -1   -1    0    0    0  501 -0.00000000000E+00 -0.00000000000E+00 -0.10296264350E+04  0.10296264350E+04  0.00000000000E+00 0.  1.
         23    2    1    2    0    0 -0.93072465681E+01 -0.19427064960E+03 -0.62373007822E+03  0.65951444428E+03  0.89957665665E+02 0.  0.
         23    2    1    2    0    0  0.35156894332E+02  0.16577222124E+03 -0.35516718260E+03  0.40438246479E+03  0.93086055237E+02 0.  0.
        -13    1    3    3    0    0  0.15197676395E+02 -0.41847406673E+02 -0.58112213162E+02  0.73206585303E+02  0.00000000000E+00 0.  1.
         13    1    3    3    0    0 -0.24504922963E+02 -0.15242324292E+03 -0.56561786505E+03  0.58630785898E+03  0.00000000000E+00 0. -1.
        -13    1    4    4    0    0 -0.29980457922E+02  0.81325082290E+02 -0.15651550510E+03  0.17891254904E+03  0.00000000000E+00 0.  1.
         13    1    4    4    0    0  0.65137352254E+02  0.84447138953E+02 -0.19865167750E+03  0.22546991575E+03  0.00000000000E+00 0. -1.
         21    1    1    2  502  501 -0.25849647764E+02  0.28498428354E+02  0.36742752846E+02  0.53201452939E+02  0.00000000000E+00 0. -1.
<scales pt_clust_5="13000.00000" pt_clust_6="13000.00000" pt_clust_7="13000.00000" pt_clust_8="13000.00000" pt_clust_9="38.47551"></scales>
<clustering>
<clus scale="   38.476">  1  9  2 -1</clus>
<clus scale="   89.958">  5  6 -1 -1</clus>
<clus scale="   93.086">  7  8 -1 -1</clus>
<clus scale="  204.263">  2  5  1 -1</clus>
<clus scale="   38.476">  1  5  2 -1</clus>
</clustering>
</event>
<event>
 9    1  0.1234700E-005  0.1016604E+03  0.7546771E-02  0.1278002E+00
          2   -1    0    0  502    0  0.00000000000E+00  0.00000000000E+00  0.17175802505E+03  0.17175802505E+03  0.00000000000E+00 0. -1.
         -2   -1    0    0    0  501 -0.00000000000E+00 -0.00000000000E+00 -0.23125704441E+03  0.23125704441E+03  0.00000000000E+00 0.  1.
         23    2    1    2    0    0 -0.33279972995E+02  0.33301443868E+01 -0.12099741987E+03  0.15539963246E+03  0.91597072498E+02 0.  0.
         23    2    1    2    0    0  0.69248920709E+02  0.62371825743E+02 -0.26926699115E+02  0.13172966427E+03  0.89117897515E+02 0.  0.
        -11    1    4    4    0    0  0.22074195455E+02  0.76355158461E+02 -0.12532941675E+02  0.80463997885E+02  0.00000000000E+00 0.  1.
         11    1    4    4    0    0  0.47174725254E+02 -0.13983332718E+02 -0.14393757440E+02  0.51265666385E+02  0.00000000000E+00 0. -1.
        -13    1    3    3    0    0 -0.17904727394E+02 -0.38681425684E+02 -0.24813486656E+02  0.49320797601E+02  0.00000000000E+00 0. -1.
         13    1    3    3    0    0 -0.15375245601E+02  0.42011570071E+02 -0.96183933212E+02  0.10607883486E+03  0.00000000000E+00 0.  1.
         21    1    1    2  502  501 -0.35968947714E+02 -0.65701970130E+02  0.88425099622E+02  0.11588577273E+03  0.00000000000E+00 0. -1.
<scales pt_clust_5="13000.00000" pt_clust_6="13000.00000" pt_clust_7="13000.00000" pt_clust_8="13000.00000" pt_clust_9="74.90336"></scales>
<clustering>
<clus scale="   74.903">  1  9  2 -1</clus>
<clus scale="   89.118">  5  6 -1 -1</clus>
<clus scale="   91.597">  7  8 -1 -1</clus>
<clus scale="   99.433">  1  5  2 -1</clus>
<clus scale="   74.903">  1  5  2 -1</clus>
</clustering>
</event>
<event>
 9    1  0.1234700E-005  0.1403981E+03  0.7546771E-02  0.1213347E+00
          3   -1    0    0  502    0  0.00000000000E+00  0.00000000000E+00  0.14402779338E+03  0.14402779338E+03  0.00000000000E+00 0. -1.
         -3   -1    0    0    0  501 -0.00000000000E+00 -0.00000000000E+00 -0.28114927721E+03  0.28114927721E+03  0.00000000000E+00 0.  1.
         23    2    1    2    0    0 -0.35496434316E+02  0.11142310776E+03 -0.19279325034E+03  0.24426585999E+03  0.93922665986E+02 0.  0.
         23    2    1    2    0    0 -0.22879379640E+01 -0.67367011468E+02  0.43193676346E+02  0.12154538589E+03  0.91455116096E+02 0.  0.
        -11    1    3    3    0    0 -0.61892710969E+02  0.46586013423E+02 -0.78852622411E+02  0.11053823039E+03  0.00000000000E+00 0.  1.
         11    1    3    3    0    0  0.26396276653E+02  0.64837094340E+02 -0.11394062793E+03  0.13372762959E+03  0.00000000000E+00 0. -1.
        -11    1    4    4    0    0 -0.80938446998E+01 -0.33043407739E+02 -0.26842608886E+02  0.43334775514E+02  0.00000000000E+00 0.  1.
         11    1    4    4    0    0  0.58059067358E+01 -0.34323603729E+02  0.70036285232E+02  0.78210610374E+02  0.00000000000E+00 0. -1.
         21    1    1    2  502  501  0.37784372280E+02 -0.44056096295E+02  0.12478090163E+02  0.59365824710E+02  0.00000000000E+00 0. -1.
<scales pt_clust_5="13000.00000" pt_clust_6="13000.00000" pt_clust_7="13000.00000" pt_clust_8="13000.00000" pt_clust_9="58.03963"></scales>
<clustering>
<clus scale="   58.040">  1  9  2 -1</clus>
<clus scale="   91.455">  7  8 -1 -1</clus>
<clus scale="   93.923">  5  6 -1 -1</clus>
<clus scale="  138.760">  1  7  2 -1</clus>
<clus scale="   58.040">  1  5  2 -1</clus>
</clustering>
</event>
<event>
 9    1  0.1234700E-005  0.9558115E+02  0.7546771E-02  0.1302602E+00
          2   -1    0    0  502    0  0.00000000000E+00  0.00000000000E+00  0.22513811129E+03  0.22513811129E+03  0.00000000000E+00 0. -1.
         -2   -1    0    0    0  501 -0.00000000000E+00 -0.00000000000E+00 -0.73868677031E+02  0.73868677031E+02  0.00000000000E+00 0.  1.
         23    2    1    2    0    0  0.43929488092E+02 -0.70551403137E+01  0.80525916298E+01  0.10232149522E+03  0.91789265297E+02 0.  0.
         23    2    1    2    0    0 -0.20998772263E+01 -0.25197927110E+02  0.51973208061E+02  0.91255802192E+02  0.70619133828E+02 0.  0.
        -11    1    3    3    0    0  0.70521319791E+02 -0.13391739391E+02 -0.51455880169E+01  0.71965771760E+02  0.00000000000E+00 0.  1.
         11    1    3    3    0    0 -0.26591831699E+02  0.63365990768E+01  0.13198179647E+02  0.30355723463E+02  0.00000000000E+00 0. -1.
        -13    1    4    4    0    0 -0.32813695066E+02 -0.27218574783E+02  0.20761072308E+02  0.47419526785E+02  0.00000000000E+00 0.  1.
         13    1    4    4    0    0  0.30713817840E+02  0.20206476729E+01  0.31212135753E+02  0.43836275407E+02  0.00000000000E+00 0. -1.
         21    1    1    2  502  501 -0.41829610866E+02  0.32253067423E+02  0.91243634570E+02  0.10542949091E+03  0.00000000000E+00 0. -1.
<scales pt_clust_5="13000.00000" pt_clust_6="13000.00000" pt_clust_7="13000.00000" pt_clust_8="13000.00000" pt_clust_9="52.82023"></scales>
<clustering>
<clus scale="   52.820">  1  9  2 -1</clus>
<clus scale="   70.619">  7  8 -1 -1</clus>
<clus scale="   75.482">  1  7  2 -1</clus>
<clus scale="   91.789">  5  6 -1 -1</clus>
<clus scale="   52.820">  1  5  2 -1</clus>
</clustering>
</event>
<event>
 9    1  0.1234700E-005  0.1115790E+03  0.7546771E-02  0.1259418E+00
         -2   -1    0    0    0  501 -0.00000000000E+00  0.00000000000E+00  0.96060327651E+02  0.96060327651E+02  0.00000000000E+00 0.  1.
          2   -1    0    0  502    0  0.00000000000E+00 -0.00000000000E+00 -0.17935700281E+03  0.17935700281E+03  0.00000000000E+00 0. -1.
         23    2    1    2    0    0  0.72343347919E+01 -0.72207855057E+02 -0.18768676418E+02  0.11886328810E+03  0.92249163197E+02 0.  0.
         23    2    1    2    0    0 -0.16031757401E+02  0.34647150788E+02 -0.43690775054E+02  0.11270896236E+03  0.96628070810E+02 0.  0.
        -11    1    4    4    0    0  0.33818157882E+02  0.12269815002E+02  0.86960154064E+01  0.37011307011E+02  0.00000000000E+00 0.  1.
         11    1    4    4    0    0 -0.49849915283E+02  0.22377335786E+02 -0.52386790461E+02  0.75697655350E+02  0.00000000000E+00 0. -1.
        -13    1    3    3    0    0 -0.65653657126E+01  0.20040728649E+02  0.67812675608E+01  0.22152210306E+02  0.00000000000E+00 0. -1.
         13    1    3    3    0    0  0.13799700504E+02 -0.92248583706E+02 -0.25549943978E+02  0.96711077789E+02  0.00000000000E+00 0.  1.
         21    1    1    2  502  501  0.87974226096E+01  0.37560704269E+02 -0.20837223691E+02  0.43845080008E+02  0.00000000000E+00 0. -1.
<scales pt_clust_5="13000.00000" pt_clust_6="13000.00000" pt_clust_7="13000.00000" pt_clust_8="13000.00000" pt_clust_9="38.57721"></scales>
<clustering>
<clus scale="   38.577">  2  9  1 -1</clus>
<clus scale="   92.249">  7  8 -1 -1</clus>
<clus scale="   96.628">  5  6 -1 -1</clus>
<clus scale="  107.809">  1  7  2 -1</clus>
<clus scale="   38.577">  2  5  1 -1</clus>
</clustering>
</event>
<event>
 9    1  0.1234700E-005  0.1353224E+03  0.7546771E-02  0.1220097E+00
          1   -1    0    0  502    0  0.00000000000E+00  0.00000000000E+00  0.35619791349E+03  0.35619791349E+03  0.00000000000E+00 0. -1.
         -1   -1    0    0    0  501 -0.00000000000E+00 -0.00000000000E+00 -0.69611413245E+02  0.69611413245E+02  0.00000000000E+00 0.  1.
         23    2    1    2    0    0 -0.60841183925E+02 -0.65889607425E+02  0.75932156157E+02  0.14877184720E+03  0.91237493129E+02 0.  0.
         23    2    1    2    0    0  0.75426628284E+02  0.82862563826E+02  0.13588689269E+03  0.19899269608E+03  0.92614603332E+02 0.  0.
        -11    1    4    4    0    0 -0.11259955336E+02  0.32830076652E+02  0.72882248798E+02  0.80724362599E+02  0.00000000000E+00 0. -1.
         11    1    4    4    0    0  0.86686583620E+02  0.50032487174E+02  0.63004643893E+02  0.11826833348E+03  0.00000000000E+00 0.  1.
        -13    1    3    3    0    0 -0.20819593704E+02  0.22466545293E+02  0.13912729890E+02  0.33641718035E+02  0.00000000000E+00 0.  1.
         13    1    3    3    0    0 -0.40021590222E+02 -0.88356152717E+02  0.62019426267E+02  0.11513012916E+03  0.00000000000E+00 0. -1.
         21    1    1    2  502  501 -0.14585444359E+02 -0.16972956401E+02  0.74767451400E+02  0.78044783458E+02  0.00000000000E+00 0. -1.
<scales pt_clust_5="13000.00000" pt_clust_6="13000.00000" pt_clust_7="13000.00000" pt_clust_8="13000.00000" pt_clust_9="22.37893"></scales>
<clustering>
<clus scale="   22.379">  1  9  2 -1</clus>
<clus scale="   91.237">  7  8 -1 -1</clus>
<clus scale="   92.615">  5  6 -1 -1</clus>
<clus scale="  134.384">  2  7  1 -1</clus>
<clus scale="   22.379">  1  5  2 -1</clus>
</clustering>
</event>
<event>
 9    1  0.1234700E-005  0.1782158E+03  0.7546771E-02  0.1169723E+00
         -1   -1    0    0    0  501 -0.00000000000E+00  0.00000000000E+00  0.63401577793E+03  0.63401577793E+03  0.00000000000E+00 0.  1.
          1   -1    0    0  502    0  0.00000000000E+00 -0.00000000000E+00 -0.82639767619E+02  0.82639767619E+02  0.00000000000E+00 0. -1.
         23    2    1    2    0    0 -0.10769449111E+03 -0.10658969734E+03  0.45394922412E+03  0.48712477895E+03  0.90891062231E+02 0.  0.
         23    2    1    2    0    0  0.12775293866E+03  0.97744385661E+02  0.76792777016E+02  0.19942523237E+03  0.89434414171E+02 0.  0.
        -11    1    3    3    0    0 -0.64119162181E+02 -0.12498631721E+02  0.24914808671E+03  0.25756989705E+03  0.00000000000E+00 0.  1.
         11    1    3    3    0    0 -0.43575328930E+02 -0.94091065623E+02  0.20480113741E+03  0.22955488190E+03  0.00000000000E+00 0. -1.
        -13    1    4    4    0    0  0.61410864824E+02  0.22635787263E+02  0.74527769547E+02  0.99187003267E+02  0.00000000000E+00 0.  1.
         13    1    4    4    0    0  0.66342073834E+02  0.75108598398E+02  0.22650074691E+01  0.10023822910E+03  0.00000000000E+00 0. -1.
         21    1    1    2  502  501 -0.20058447547E+02  0.88453116830E+01  0.20634009173E+02  0.30105534231E+02  0.00000000000E+00 0. -1.
<scales pt_clust_5="13000.00000" pt_clust_6="13000.00000" pt_clust_7="13000.00000" pt_clust_8="13000.00000" pt_clust_9="21.92215"></scales>
<clustering>
<clus scale="   21.922">  2  9  1 -1</clus>
<clus scale="   89.434">  7  8 -1 -1</clus>
<clus scale="   90.891">  5  6 -1 -1</clus>
<clus scale="  177.477">  2  7  1 -1</clus>
<clus scale="   21.922">  2  5  1 -1</clus>
</clustering>
</event>
<event>
 9    1  0.1234700E-005  0.1007638E+03  0.7546771E-02  0.1281052E+00
         -2   -1    0    0    0  501 -0.00000000000E+00  0.00000000000E+00  0.13389817600E+03  0.13389817600E+03  0.00000000000E+00 0.  1.
          2   -1    0    0  502    0  0.00000000000E+00 -0.00000000000E+00 -0.16137290444E+03  0.16137290444E+03  0.00000000000E+00 0. -1.
         23    2    1    2    0    0 -0.94178279942E+01  0.15811928531E+02  0.43830972189E+02  0.10261665881E+03  0.90941255618E+02 0.  0.
         23    2    1    2    0    0  0.62151602302E+02 -0.39339936424E+02 -0.40755358502E+02  0.12732646810E+03  0.95606369900E+02 0.  0.
        -11    1    3    3    0    0  0.54425257667E+00 -0.27029131819E+02 -0.13612123188E+02  0.30268136306E+02  0.00000000000E+00 0.  1.
         11    1    3    3    0    0 -0.99620805709E+01  0.42841060350E+02  0.57443095378E+02  0.72348522499E+02  0.00000000000E+00 0. -1.
        -11    1    4    4    0    0  0.35257057200E+02 -0.75184685406E+01  0.28871276027E+02  0.46185907278E+02  0.00000000000E+00 0.  1.
         11    1    4    4    0    0  0.26894545102E+02 -0.31821467884E+02 -0.69626634530E+02  0.81140560822E+02  0.00000000000E+00 0. -1.
         21    1    1    2  502  501 -0.52733774308E+02  0.23528007894E+02 -0.30550342126E+02  0.65327953529E+02  0.00000000000E+00 0.  1.
<scales pt_clust_5="13000.00000" pt_clust_6="13000.00000" pt_clust_7="13000.00000" pt_clust_8="13000.00000" pt_clust_9="57.74442"></scales>
<clustering>
<clus scale="   57.744">  2  9  1 -1</clus>
<clus scale="   90.941">  5  6 -1 -1</clus>
<clus scale="   95.606">  7  8 -1 -1</clus>
<clus scale="   96.349">  1  5  2 -1</clus>
<clus scale="   57.744">  2  5  1 -1</clus>
</clustering>
</event>
<event>
 9    1  0.1234700E-005  0.1134940E+03  0.7546771E-02  0.1254243E+00
         -1   -1    0    0    0  501 -0.00000000000E+00  0.00000000000E+00  0.29365471095E+03  0.29365471095E+03  0.00000000000E+00 0.  1.
          1   -1    0    0  502    0  0.00000000000E+00 -0.00000000000E+00 -0.67863077880E+02  0.67863077880E+02  0.00000000000E+00 0. -1.
         23    2    1    2    0    0 -0.45841898861E+02  0.30556360203E+02  0.13294534217E+03  0.17074039610E+03  0.91883883329E+02 0.  0.
         23    2    1    2    0    0  0.61549246135E+02 -0.63988951945E+02  0.83680245971E+02  0.15271855238E+03  0.91856828844E+02 0.  0.
        -11    1    3    3    0    0 -0.13332382768E+02 -0.29261363156E+02  0.74010404098E+02  0.80693988121E+02  0.00000000000E+00 0. -1.
         11    1    3    3    0    0 -0.32509516093E+02  0.59817723359E+02  0.58934938071E+02  0.90046407979E+02  0.00000000000E+00 0.  1.
        -13    1    4    4    0    0 -0.76049041656E+01 -0.56369872529E+02  0.48532746589E+02  0.74771816802E+02  0.00000000000E+00 0.  1.
         13    1    4    4    0    0  0.69154150300E+02 -0.76190794160E+01  0.35147499382E+02  0.77946735581E+02  0.00000000000E+00 0. -1.
         21    1    1    2  502  501 -0.15707347274E+02  0.33432591742E+02  0.91660449299E+01  0.38058840348E+02  0.00000000000E+00 0.  1.
<scales pt_clust_5="13000.00000" pt_clust_6="13000.00000" pt_clust_7="13000.00000" pt_clust_8="13000.00000" pt_clust_9="36.93858"></scales>
<clustering>
<clus scale="   36.939">  2  9  1 -1</clus>
<clus scale="   91.857">  7  8 -1 -1</clus>
<clus scale="   91.884">  5  6 -1 -1</clus>
<clus scale="  113.472">  2  7  1 -1</clus>
<clus scale="   36.939">  2  5  1 -1</clus>
</clustering>
</event>
<event>
 9    1  0.1234700E-005  0.1701050E+03  0.7546771E-02  0.1177801E+00
         -1   -1    0    0    0  501 -0.00000000000E+00  0.00000000000E+00  0.11614278612E+03  0.11614278612E+03  0.00000000000E+00 0.  1.
          1   -1    0    0  502    0  0.00000000000E+00 -0.00000000000E+00 -0.40066227611E+03  0.40066227611E+03  0.00000000000E+00 0. -1.
         23    2    1    2    0    0 -0.12661126206E+03 -0.17332437365E+02 -0.39520989296E+02  0.16145233817E+03  0.90410861293E+02 0.  0.
         23    2    1    2    0    0  0.17645574680E+03  0.38790988449E+02 -0.17776797194E+03  0.26895315189E+03  0.89960962102E+02 0.  0.
        -11    1    4    4    0    0  0.13132868445E+03 -0.10483491625E+02 -0.13982534983E+03  0.19211521390E+03  0.00000000000E+00 0. -1.
         11    1    4    4    0    0  0.45127062350E+02  0.49274480074E+02 -0.37942622112E+02  0.76837937997E+02  0.00000000000E+00 0.  1.
        -11    1    3    3    0    0 -0.90356964068E+02 -0.15267104258E+02 -0.68975351133E+02  0.11469552952E+03  0.00000000000E+00 0. -1.
         11    1    3    3    0    0 -0.36254297995E+02 -0.20653331074E+01  0.29454361837E+02  0.46756808651E+02  0.00000000000E+00 0.  1.
         21    1    1    2  502  501 -0.49844484738E+02 -0.21458551084E+02 -0.67230528752E+02  0.86399572162E+02  0.00000000000E+00 0. -1.
<scales pt_clust_5="13000.00000" pt_clust_6="13000.00000" pt_clust_7="13000.00000" pt_clust_8="13000.00000" pt_clust_9="54.26732"></scales>
<clustering>
<clus scale="   54.267">  2  9  1 -1</clus>
<clus scale="   89.961">  5  6 -1 -1</clus>
<clus scale="   90.411">  7  8 -1 -1</clus>
<clus scale="  169.866">  2  5  1 -1</clus>
<clus scale="   54.267">  2  5  1 -1</clus>
</clustering>
</event>
<event>
 9    1  0.1234700E-005  0.1416774E+03  0.7546771E-02  0.1215579E+00
          1   -1    0    0  502    0  0.00000000000E+00  0.00000000000E+00  0.10852068422E+03  0.10852068422E+03  0.00000000000E+00 0. -1.
         -1   -1    0    0    0  501 -0.00000000000E+00 -0.00000000000E+00 -0.22143381272E+03  0.22143381272E+03  0.00000000000E+00 0.  1.
         23    2    1    2    0    0 -0.25344257967E+02  0.74918821666E+02 -0.60152367495E+02  0.14705642985E+03  0.10840721837E+03 0.  0.
         23    2    1    2    0    0  0.10875921300E+02 -0.10528206188E+03 -0.52996152327E+02  0.14926304767E+03  0.90930011650E+02 0.  0.
        -11    1    3    3    0    0  0.88019303217E+01  0.69789718338E+02 -0.80559018948E+02  0.10694781109E+03  0.00000000000E+00 0.  1.
         11    1    3    3    0    0 -0.34146188288E+02  0.51291033279E+01  0.20406651453E+02  0.40108618763E+02  0.00000000000E+00 0. -1.
        -11    1    4    4    0    0 -0.17162332702E+02  0.10622521759E+02 -0.56463831625E+01  0.20958656329E+02  0.00000000000E+00 0.  1.
         11    1    4    4    0    0  0.28038254001E+02 -0.11590458364E+03 -0.47349769164E+02  0.12830439134E+03  0.00000000000E+00 0. -1.
         21    1    1    2  502  501  0.14468336667E+02  0.30363240218E+02  0.23539131524E+00  0.33635019422E+02  0.00000000000E+00 0.  1.
<scales pt_clust_5="13000.00000" pt_clust_6="13000.00000" pt_clust_7="13000.00000" pt_clust_8="13000.00000" pt_clust_9="33.63420"></scales>
<clustering>
<clus scale="   33.634">  1  9  2 -1</clus>
<clus scale="   90.930">  7  8 -1 -1</clus>
<clus scale="  108.407">  5  6 -1 -1</clus>
<clus scale="  128.797">  1  7  2 -1</clus>
<clus scale="   33.634">  1  5  2 -1</clus>
</clustering>
</event>
<event>
 9    1  0.1234700E-005  0.1126906E+03  0.7546771E-02  0.1255932E+00
         -3   -1    0    0    0  501 -0.00000000000E+00  0.00000000000E+00  0.35352488439E+03  0.35352488439E+03  0.00000000000E+00 0.  1.
          3   -1    0    0  502    0  0.00000000000E+00 -0.00000000000E+00 -0.10002200620E+03  0.10002200620E+03  0.00000000000E+00 0. -1.
         23    2    1    2    0    0 -0.40286095114E+02  0.55869947509E+02  0.27889663621E+03  0.30247595363E+03  0.94678130214E+02 0.  0.
         23    2    1    2    0    0  0.71255039493E+01 -0.22648470604E+02 -0.12668618545E+01  0.98294062747E+02  0.95375006186E+02 0.  0.
        -11    1    4    4    0    0 -0.37590814940E+02 -0.21751016154E+02  0.21103757830E+02  0.48286071140E+02  0.00000000000E+00 0.  1.
         11    1    4    4    0    0  0.44716318889E+02 -0.89745444949E+00 -0.22370619685E+02  0.50007991607E+02  0.00000000000E+00 0. -1.
        -11    1    3    3    0    0  0.29150713445E+02  0.17189161094E+02  0.51830503861E+02  0.61900181615E+02  0.00000000000E+00 0. -1.
         11    1    3    3    0    0 -0.69436808559E+02  0.38680786414E+02  0.22706613235E+03  0.24057577201E+03  0.00000000000E+00 0.  1.
         21    1    1    2  502  501  0.33160591165E+02 -0.33221476905E+02 -0.24126896160E+02  0.52776874220E+02  0.00000000000E+00 0. -1.
<scales pt_clust_5="13000.00000" pt_clust_6="13000.00000" pt_clust_7="13000.00000" pt_clust_8="13000.00000" pt_clust_9="46.93923"></scales>
<clustering>
<clus scale="   46.939">  2  9  1 -1</clus>
<clus scale="   94.678">  7  8 -1 -1</clus>
<clus scale="   95.375">  5  6 -1 -1</clus>
<clus scale="  112.101">  1  7  2 -1</clus>
<clus scale="   46.939">  2  5  1 -1</clus>
</clustering>
</event>
<event>
 9    1  0.1234700E-005  0.1243778E+03  0.7546771E-02  0.1236299E+00
          2   -1    0    0  502    0  0.00000000000E+00  0.00000000000E+00  0.24626587564E+03  0.24626587564E+03  0.00000000000E+00 0. -1.
         -2   -1    0    0    0  501 -0.00000000000E+00 -0.00000000000E+00 -0.25090970644E+03  0.25090970644E+03  0.00000000000E+00 0.  1.
         23    2    1    2    0    0 -0.66831879769E+02 -0.87763157635E+01 -0.11725822292E+03  0.16288933874E+03  0.90774015888E+02 0.  0.
         23    2    1    2    0    0  0.13850147622E+03  0.80063739307E+02  0.19207430754E+01  0.18438123426E+03  0.91650908488E+02 0.  0.
        -13    1    4    4    0    0  0.35918952204E+02 -0.14725871145E+02 -0.18881575875E+02  0.43168696019E+02  0.00000000000E+00 0.  1.
         13    1    4    4    0    0  0.10258252402E+03  0.94789610452E+02  0.20802318950E+02  0.14121253824E+03  0.00000000000E+00 0. -1.
        -13    1    3    3    0    0 -0.83148290502E+02  0.68123103138E+01 -0.11210702843E+03  0.13974273366E+03  0.00000000000E+00 0.  1.
         13    1    3    3    0    0  0.16316410732E+02 -0.15588626077E+02 -0.51511944823E+01  0.23146605081E+02  0.00000000000E+00 0. -1.
         21    1    1    2  502  501 -0.71669596454E+02 -0.71287423543E+02  0.11069364904E+03  0.14990500908E+03  0.00000000000E+00 0. -1.
<scales pt_clust_5="13000.00000" pt_clust_6="13000.00000" pt_clust_7="13000.00000" pt_clust_8="13000.00000" pt_clust_9="101.08624"></scales>
<clustering>
<clus scale="   90.774">  7  8 -1 -1</clus>
<clus scale="   91.651">  5  6 -1 -1</clus>
<clus scale="  101.086">  1  9  2 -1</clus>
<clus scale="  123.733">  2  7  1 -1</clus>
<clus scale="  101.086">  1  5  2 -1</clus>
</clustering>
</event>
<event>
 9    1  0.1234700E-005  0.9691912E+02  0.7546771E-02  0.1288665E+00
          1   -1    0    0  502    0  0.00000000000E+00  0.00000000000E+00  0.21489413827E+03  0.21489413827E+03  0.00000000000E+00 0. -1.
         -1   -1    0    0    0  501 -0.00000000000E+00 -0.00000000000E+00 -0.73827892999E+02  0.73827892999E+02  0.00000000000E+00 0.  1.
         23    2    1    2    0    0 -0.21727943012E+02 -0.15304891015E+02 -0.25423788021E+01  0.95185349376E+02  0.91364346708E+02 0.  0.
         23    2    1    2    0    0  0.32581143667E+02  0.32187605329E+02  0.81942244783E+02  0.12868639013E+03  0.88023193903E+02 0.  0.
        -11    1    3    3    0    0 -0.49367931473E+02  0.10670218315E+02 -0.18833385153E+02  0.53904940526E+02  0.00000000000E+00 0.  1.
         11    1    3    3    0    0  0.27639988462E+02 -0.25975109330E+02  0.16291006351E+02  0.41280408849E+02  0.00000000000E+00 0. -1.
        -11    1    4    4    0    0 -0.22525817035E+02  0.17890860154E+02  0.62026057218E+02  0.68371975869E+02  0.00000000000E+00 0.  1.
         11    1    4    4    0    0  0.55106960702E+02  0.14296745175E+02  0.19916187564E+02  0.60314414260E+02  0.00000000000E+00 0. -1.
         21    1    1    2  502  501 -0.10853200656E+02 -0.16882714314E+02  0.61666379287E+02  0.64850291761E+02  0.00000000000E+00 0. -1.
<scales pt_clust_5="13000.00000" pt_clust_6="13000.00000" pt_clust_7="13000.00000" pt_clust_8="13000.00000" pt_clust_9="20.07033"></scales>
<clustering>
<clus scale="   20.070">  1  9  2 -1</clus>
<clus scale="   88.023">  7  8 -1 -1</clus>
<clus scale="   91.364">  5  6 -1 -1</clus>
<clus scale="   93.776">  1  7  2 -1</clus>
<clus scale="   20.070">  1  5  2 -1</clus>
</clustering>
</event>
<event>
 9    1  0.1234700E-005  0.1259226E+03  0.7546771E-02  0.1234449E+00
         -1   -1    0    0    0  501 -0.00000000000E+00  0.00000000000E+00  0.40502233909E+03  0.40502233909E+03  0.00000000000E+00 0.  1.
          1   -1    0    0  502    0  0.00000000000E+00 -0.00000000000E+00 -0.11474485395E+03  0.11474485395E+03  0.00000000000E+00 0. -1.
         23    2    1    2    0    0  0.90961686427E+02 -0.54081105121E+02  0.28908848913E+03  0.32220341389E+03  0.95100426114E+02 0.  0.
         23    2    1    2    0    0 -0.29819961466E+02 -0.22257688075E+02  0.52277415715E+01  0.99674896505E+02  0.92320750273E+02 0.  0.
        -11    1    3    3    0    0  0.86424731010E+02 -0.30142379374E+01  0.14009160232E+03  0.16463285456E+03  0.00000000000E+00 0. -1.
         11    1    3    3    0    0  0.45369554169E+01 -0.51066867183E+02  0.14899688681E+03  0.15757055933E+03  0.00000000000E+00 0.  1.
        -13    1    4    4    0    0 -0.45935936021E+02 -0.11361868544E+01 -0.30500402550E+02  0.55151388871E+02  0.00000000000E+00 0. -1.
         13    1    4    4    0    0  0.16115974555E+02 -0.21121501220E+02  0.35728144121E+02  0.44523507634E+02  0.00000000000E+00 0.  1.
         21    1    1    2  502  501 -0.61141724961E+02  0.76338793196E+02 -0.40387455664E+01  0.97888882635E+02  0.00000000000E+00 0. -1.
<scales pt_clust_5="13000.00000" pt_clust_6="13000.00000" pt_clust_7="13000.00000" pt_clust_8="13000.00000" pt_clust_9="97.80553"></scales>
<clustering>
<clus scale="   92.321">  7  8 -1 -1</clus>
<clus scale="   95.100">  5  6 -1 -1</clus>
<clus scale="   97.806">  2  9  1 -1</clus>
<clus scale="  123.837">  2  7  1 -1</clus>
<clus scale="   97.806">  2  5  1 -1</clus>
</clustering>
</event>
<event>
 9    1  0.1234700E-005  0.1052764E+03  0.7546771E-02  0.1269929E+00
         -1   -1    0    0    0  501 -0.00000000000E+00  0.00000000000E+00  0.33137923880E+03  0.33137923880E+03  0.00000000000E+00 0.  1.
          1   -1    0    0  502    0  0.00000000000E+00 -0.00000000000E+00 -0.16299636414E+03  0.16299636414E+03  0.00000000000E+00 0. -1.
         23    2    1    2    0    0  0.43586186306E+02 -0.96127893283E+01  0.20387709939E+03  0.22785445129E+03  0.91430946409E+02 0.  0.
         23    2    1    2    0    0 -0.69801145127E+02 -0.29230944479E+02  0.78801686035E+02  0.14299133768E+03  0.92250576982E+02 0.  0.
        -11    1    3    3    0    0  0.48614179607E+02  0.13433402709E+02  0.19689843948E+03  0.20325548021E+03  0.00000000000E+00 0.  1.
         11    1    3    3    0    0 -0.50279933011E+01 -0.23046192038E+02  0.69786599172E+01  0.24598971082E+02  0.00000000000E+00 0. -1.
        -11    1    4    4    0    0 -0.83457730700E+02 -0.11680433126E+02  0.30156919896E+02  0.89504553790E+02  0.00000000000E+00 0. -1.
         11    1    4    4    0    0  0.13656585572E+02 -0.17550511353E+02  0.48644766139E+02  0.53486783891E+02  0.00000000000E+00 0.  1.
         21    1    1    2  502  501  0.26214958821E+02  0.38843733807E+02 -0.11429591077E+03  0.12352981397E+03  0.00000000000E+00 0. -1.
<scales pt_clust_5="13000.00000" pt_clust_6="13000.00000" pt_clust_7="13000.00000" pt_clust_8="13000.00000" pt_clust_9="46.86214"></scales>
<clustering>
<clus scale="   46.862">  2  9  1 -1</clus>
<clus scale="   91.431">  5  6 -1 -1</clus>
<clus scale="   92.251">  7  8 -1 -1</clus>
<clus scale="  104.559">  1  5  2 -1</clus>
<clus scale="   46.862">  2  5  1 -1</clus>
</clustering>
</event>
<event>
 9    1  0.1234700E-005  0.9462428E+02  0.7546771E-02  0.1311175E+00
         -2   -1    0    0    0  501 -0.00000000000E+00  0.00000000000E+00  0.10216014881E+03  0.10216014881E+03  0.00000000000E+00 0.  1.
          2   -1    0    0  502    0  0.00000000000E+00 -0.00000000000E+00 -0.19610902986E+03  0.19610902986E+03  0.00000000000E+00 0. -1.
         23    2    1    2    0    0 -0.11479892334E+01  0.23003265813E+02  0.55474025138E+02  0.85720112863E+02  0.61156374704E+02 0.  0.
         23    2    1    2    0    0  0.13885921249E+02 -0.43209987617E+02 -0.55812355642E+02  0.11593901617E+03  0.90922574693E+02 0.  0.
        -13    1    4    4    0    0  0.21427887637E+02 -0.69727591030E+02 -0.32599749715E+02  0.79898904879E+02  0.00000000000E+00 0.  1.
         13    1    4    4    0    0 -0.75419663884E+01  0.26517603413E+02 -0.23212605927E+02  0.36040111288E+02  0.00000000000E+00 0. -1.
        -13    1    3    3    0    0  0.96542217324E+01 -0.19348287911E+02  0.17393572606E+02  0.27750614594E+02  0.00000000000E+00 0. -1.
         13    1    3    3    0    0 -0.10802210966E+02  0.42351553724E+02  0.38080452531E+02  0.57969498269E+02  0.00000000000E+00 0.  1.
         21    1    1    2  502  501 -0.12737932016E+02  0.20206721804E+02 -0.93610550544E+02  0.96610049639E+02  0.00000000000E+00 0.  1.
<scales pt_clust_5="13000.00000" pt_clust_6="13000.00000" pt_clust_7="13000.00000" pt_clust_8="13000.00000" pt_clust_9="23.88653"></scales>
<clustering>
<clus scale="   23.887">  2  9  1 -1</clus>
<clus scale="   61.156">  7  8 -1 -1</clus>
<clus scale="   66.535">  1  7  2 -1</clus>
<clus scale="   90.923">  5  6 -1 -1</clus>
<clus scale="   23.887">  2  5  1 -1</clus>
</clustering>
</event>
<event>
 9    1  0.1234700E-005  0.1622504E+03  0.7546771E-02  0.1192379E+00
          1   -1    0    0  502    0  0.00000000000E+00  0.00000000000E+00  0.79717260711E+02  0.79717260711E+02  0.00000000000E+00 0. -1.
         -1   -1    0    0    0  501 -0.00000000000E+00 -0.00000000000E+00 -0.52400820184E+03  0.52400820184E+03  0.00000000000E+00 0.  1.
         23    2    1    2    0    0  0.11137644110E+03 -0.26770424001E+02 -0.36709472806E+03  0.40312334609E+03  0.12094844174E+03 0.  0.
         23    2    1    2    0    0 -0.82505727111E+02  0.55273291266E+02 -0.84877513679E+02  0.15931127066E+03  0.91178708580E+02 0.  0.
        -11    1    3    3    0    0 -0.72744545996E+01  0.20385845347E+02 -0.99118978327E+01  0.23806429780E+02  0.00000000000E+00 0. -1.
         11    1    3    3    0    0  0.11865089570E+03 -0.47156269348E+02 -0.35718283023E+03  0.37931691631E+03  0.00000000000E+00 0.  1.
        -13    1    4    4    0    0  0.11632244744E+02  0.36996563132E+02 -0.21190531970E+02  0.44193816836E+02  0.00000000000E+00 0.  1.
         13    1    4    4    0    0 -0.94137971855E+02  0.18276728133E+02 -0.63686981709E+02  0.11511745383E+03  0.00000000000E+00 0. -1.
         21    1    1    2  502  501 -0.28870713985E+02 -0.28502867264E+02  0.76813006055E+01  0.41290845805E+02  0.00000000000E+00 0.  1.
<scales pt_clust_5="13000.00000" pt_clust_6="13000.00000" pt_clust_7="13000.00000" pt_clust_8="13000.00000" pt_clust_9="40.57008"></scales>
<clustering>
<clus scale="   40.570">  1  9  2 -1</clus>
<clus scale="   91.179">  7  8 -1 -1</clus>
<clus scale="  120.948">  5  6 -1 -1</clus>
<clus scale="  141.457">  1  7  2 -1</clus>
<clus scale="   40.570">  1  5  2 -1</clus>
</clustering>
</event>
<event>
 9    1  0.1234700E-005  0.1428825E+03  0.7546771E-02  0.1209623E+00
          2   -1    0    0  502    0  0.00000000000E+00  0.00000000000E+00  0.26118230740E+03  0.26118230740E+03  0.00000000000E+00 0. -1.
         -2   -1    0    0    0  501 -0.00000000000E+00 -0.00000000000E+00 -0.17807221368E+03  0.17807221368E+03  0.00000000000E+00 0.  1.
         23    2    1    2    0    0 -0.94724492584E+02  0.49926814792E+02 -0.63379956648E+02  0.15442667291E+03  0.91461259953E+02 0.  0.
         23    2    1    2    0    0  0.48335379486E+02 -0.10473080980E+03  0.15380819445E+03  0.21265456422E+03  0.90885376010E+02 0.  0.
        -11    1    4    4    0    0  0.45087037088E+02 -0.80562115392E+02  0.47962534483E+02  0.10403605175E+03  0.00000000000E+00 0. -1.
         11    1    4    4    0    0  0.32483423988E+01 -0.24168694411E+02  0.10584565996E+03  0.10861851247E+03  0.00000000000E+00 0.  1.
        -11    1    3    3    0    0 -0.18691430666E+02  0.16608373305E+02  0.23463800410E+02  0.34289321571E+02  0.00000000000E+00 0. -1.
         11    1    3    3    0    0 -0.76033061919E+02  0.33318441487E+02 -0.86843757058E+02  0.12013735134E+03  0.00000000000E+00 0.  1.
         21    1    1    2  502  501  0.46389113098E+02  0.54803995011E+02 -0.73181440841E+01  0.72173283949E+02  0.00000000000E+00 0.  1.
<scales pt_clust_5="13000.00000" pt_clust_6="13000.00000" pt_clust_7="13000.00000" pt_clust_8="13000.00000" pt_clust_9="71.80131"></scales>
<clustering>
<clus scale="   71.801">  2  9  1 -1</clus>
<clus scale="   90.885">  5  6 -1 -1</clus>
<clus scale="   91.461">  7  8 -1 -1</clus>
<clus scale="  142.515">  1  5  2 -1</clus>
<clus scale="  142.515">  1  5  2 -1</clus>
</clustering>
</event>
<event>
 9    1  0.1234700E-005  0.1421436E+03  0.7546771E-02  0.1214120E+00
          2   -1    0    0  502    0  0.00000000000E+00  0.00000000000E+00  0.33869996500E+03  0.33869996500E+03  0.00000000000E+00 0. -1.
         -2   -1    0    0    0  501 -0.00000000000E+00 -0.00000000000E+00 -0.13125181972E+03  0.13125181972E+03  0.00000000000E+00 0.  1.
         23    2    1    2    0    0  0.11535940050E+03 -0.23691434328E+02 -0.34154518371E+02  0.15286514757E+03  0.91280594164E+02 0.  0.
         23    2    1    2    0    0 -0.30876925172E+02  0.39616382155E+02  0.11673458827E+03  0.16548542064E+03  0.10599819858E+03 0.  0.
        -13    1    3    3    0    0  0.56090443998E+02 -0.46409092213E+02 -0.48902630759E+02  0.87700678692E+02  0.00000000000E+00 0.  1.
         13    1    3    3    0    0  0.59268956503E+02  0.22717657885E+02  0.14748112388E+02  0.65164468874E+02  0.00000000000E+00 0. -1.
        -13    1    4    4    0    0 -0.54623261528E+02  0.60180400105E+02  0.61412250646E+02  0.10186680414E+03  0.00000000000E+00 0. -1.
         13    1    4    4    0    0  0.23746336356E+02 -0.20564017950E+02  0.55322337624E+02  0.63618616495E+02  0.00000000000E+00 0.  1.
         21    1    1    2  502  501 -0.84482475329E+02 -0.15924947827E+02  0.12486807538E+03  0.15160121652E+03  0.00000000000E+00 0. -1.
<scales pt_clust_5="13000.00000" pt_clust_6="13000.00000" pt_clust_7="13000.00000" pt_clust_8="13000.00000" pt_clust_9="85.97030"></scales>
<clustering>
<clus scale="   85.970">  1  9  2 -1</clus>
<clus scale="   91.281">  5  6 -1 -1</clus>
<clus scale="  105.998">  7  8 -1 -1</clus>
<clus scale="  131.535">  2  5  1 -1</clus>
<clus scale="   85.970">  1  5  2 -1</clus>
</clustering>
</event>
<event>
 9    1  0.1234700E-005  0.9642260E+02  0.7546771E-02  0.1297505E+00
          1   -1    0    0  502    0  0.00000000000E+00  0.00000000000E+00  0.10881718350E+03  0.10881718350E+03  0.00000000000E+00 0. -1.
         -1   -1    0    0    0  501 -0.00000000000E+00 -0.00000000000E+00 -0.16327917199E+03  0.16327917199E+03  0.00000000000E+00 0.  1.
         23    2    1    2    0    0 -0.16060347611E+02 -0.33484665239E+02 -0.92934835780E+02  0.12551699383E+03  0.75752719204E+02 0.  0.
         23    2    1    2    0    0  0.86948227303E+01 -0.17904029807E+01 -0.15778701029E+01  0.92703194776E+02  0.92263682793E+02 0.  0.
        -11    1    4    4    0    0  0.16426285948E+02 -0.45329795183E+02 -0.42555338991E+01  0.48401681481E+02  0.00000000000E+00 0.  1.
         11    1    4    4    0    0 -0.77314632175E+01  0.43539392203E+02  0.26776637962E+01  0.44301513296E+02  0.00000000000E+00 0. -1.
        -13    1    3    3    0    0  0.16820681478E+02 -0.24651719953E+02 -0.85648874568E+02  0.90699351358E+02  0.00000000000E+00 0.  1.
         13    1    3    3    0    0 -0.32881029089E+02 -0.88329452857E+01 -0.72859612116E+01  0.34817642470E+02  0.00000000000E+00 0. -1.
         21    1    1    2  502  501  0.73655248810E+01  0.35275068220E+02  0.40050717388E+02  0.53876166883E+02  0.00000000000E+00 0.  1.
<scales pt_clust_5="13000.00000" pt_clust_6="13000.00000" pt_clust_7="13000.00000" pt_clust_8="13000.00000" pt_clust_9="36.03583"></scales>
<clustering>
<clus scale="   36.036">  1  9  2 -1</clus>
<clus scale="   75.753">  7  8 -1 -1</clus>
<clus scale="   80.766">  2  7  1 -1</clus>
<clus scale="   92.264">  5  6 -1 -1</clus>
<clus scale="   36.036">  1  5  2 -1</clus>
</clustering>
</event>
<event>
 9    1  0.1234700E-005  0.1018972E+03  0.7546771E-02  0.1280711E+00
         -1   -1    0    0    0  501 -0.00000000000E+00  0.00000000000E+00  0.73035204969E+03  0.73035204969E+03  0.00000000000E+00 0.  1.
          1   -1    0    0  502    0  0.00000000000E+00 -0.00000000000E+00 -0.29062743850E+02  0.29062743850E+02  0.00000000000E+00 0. -1.
         23    2    1    2    0    0 -0.19030057159E+02  0.20120938463E+02  0.55027200225E+03  0.55990843722E+03  0.99655337900E+02 0.  0.
         23    2    1    2    0    0 -0.27558821297E+01 -0.74315149200E+01  0.14802753411E+03  0.17411763162E+03  0.91334421135E+02 0.  0.
        -11    1    3    3    0    0  0.33941076703E+02  0.34293499877E+02  0.28057598950E+03  0.28469444446E+03  0.00000000000E+00 0.  1.
         11    1    3    3    0    0 -0.52971133861E+02 -0.14172561415E+02  0.26969601275E+03  0.27521399276E+03  0.00000000000E+00 0. -1.
        -11    1    4    4    0    0  0.38959555268E+02  0.16710603640E+02  0.56037379900E+02  0.70265775216E+02  0.00000000000E+00 0.  1.
         11    1    4    4    0    0 -0.41715437397E+02 -0.24142118560E+02  0.91990154213E+02  0.10385185640E+03  0.00000000000E+00 0. -1.
         21    1    1    2  502  501  0.21785939288E+02 -0.12689423543E+02  0.29897694801E+01  0.25388724703E+02  0.00000000000E+00 0.  1.
<scales pt_clust_5="13000.00000" pt_clust_6="13000.00000" pt_clust_7="13000.00000" pt_clust_8="13000.00000" pt_clust_9="25.21207"></scales>
<clustering>
<clus scale="   25.212">  2  9  1 -1</clus>
<clus scale="   91.334">  7  8 -1 -1</clus>
<clus scale="   93.775">  2  7  1 -1</clus>
<clus scale="   99.655">  5  6 -1 -1</clus>
<clus scale="   25.212">  2  5  1 -1</clus>
</clustering>
</event>
<event>
 9    1  0.1234700E-005  0.1733533E+03  0.7546771E-02  0.1176527E+00
          2   -1    0    0  502    0  0.00000000000E+00  0.00000000000E+00  0.65328823887E+03  0.65328823887E+03  0.00000000000E+00 0. -1.
         -2   -1    0    0    0  501 -0.00000000000E+00 -0.00000000000E+00 -0.15319874277E+03  0.15319874277E+03  0.00000000000E+00 0.  1.
         23    2    1    2    0    0 -0.86157116425E+02 -0.11424579323E+03 -0.75180160271E+02  0.18630741116E+03  0.92645803852E+02 0.  0.
         23    2    1    2    0    0  0.10657550887E+03  0.14374858922E+03  0.50741710404E+03  0.54342480138E+03  0.76265334758E+02 0.  0.
        -11    1    3    3    0    0 -0.37609966988E+02  0.55568378811E+01 -0.32975905305E+02  0.50326915212E+02  0.00000000000E+00 0. -1.
         11    1    3    3    0    0 -0.48547149437E+02 -0.11980263111E+03 -0.42204254966E+02  0.13598049594E+03  0.00000000000E+00 0.  1.
        -13    1    4    4    0    0  0.42180418954E+02  0.11223398438E+03  0.36114644545E+03  0.38052911854E+03  0.00000000000E+00 0. -1.
         13    1    4    4    0    0  0.64395089920E+02  0.31514604842E+02  0.14627065859E+03  0.16289568284E+03  0.00000000000E+00 0.  1.
         21    1    1    2  502  501 -0.20418392448E+02 -0.29502795992E+02  0.67852552332E+02  0.76754769099E+02  0.00000000000E+00 0.  1.
<scales pt_clust_5="13000.00000" pt_clust_6="13000.00000" pt_clust_7="13000.00000" pt_clust_8="13000.00000" pt_clust_9="35.87932"></scales>
<clustering>
<clus scale="   35.879">  1  9  2 -1</clus>
<clus scale="   76.265">  7  8 -1 -1</clus>
<clus scale="   92.646">  5  6 -1 -1</clus>
<clus scale="  165.180">  1  7  2 -1</clus>
<clus scale="   35.879">  1  5  2 -1</clus>
</clustering>
</event>
<event>
 9    1  0.1234700E-005  0.9836529E+02  0.7546771E-02  0.1284975E+00
         -2   -1    0    0    0  501 -0.00000000000E+00  0.00000000000E+00  0.78378975070E+02  0.78378975070E+02  0.00000000000E+00 0.  1.
          2   -1    0    0  502    0  0.00000000000E+00 -0.00000000000E+00 -0.55826678706E+03  0.55826678706E+03  0.00000000000E+00 0. -1.
         23    2    1    2    0    0 -0.27415822006E+01 -0.34445958641E+02  0.34959049355E+02  0.10382241026E+03  0.91448987965E+02 0.  0.
         23    2    1    2    0    0  0.18584508202E+02  0.56799229520E+02 -0.44621305652E+03  0.45892297171E+03  0.89065513740E+02 0.  0.
        -11    1    4    4    0    0  0.47636395444E+02  0.44250099691E+02 -0.38016490669E+03  0.38568465587E+03  0.00000000000E+00 0. -1.
         11    1    4    4    0    0 -0.29051887242E+02  0.12549129829E+02 -0.66048149829E+02  0.73238315844E+02  0.00000000000E+00 0.  1.
        -13    1    3    3    0    0 -0.19959376621E+02 -0.43110334582E+01  0.58449284974E+02  0.61913493187E+02  0.00000000000E+00 0.  1.
         13    1    3    3    0    0  0.17217794420E+02 -0.30134925183E+02 -0.23490235619E+02  0.41908917069E+02  0.00000000000E+00 0. -1.
         21    1    1    2  502  501 -0.15842926002E+02 -0.22353270879E+02 -0.68633804826E+02  0.73900380163E+02  0.00000000000E+00 0. -1.
<scales pt_clust_5="13000.00000" pt_clust_6="13000.00000" pt_clust_7="13000.00000" pt_clust_8="13000.00000" pt_clust_9="27.39830"></scales>
<clustering>
<clus scale="   27.398">  2  9  1 -1</clus>
<clus scale="   89.066">  5  6 -1 -1</clus>
<clus scale="   91.449">  7  8 -1 -1</clus>
<clus scale="   96.153">  2  5  1 -1</clus>
<clus scale="   27.398">  2  5  1 -1</clus>
</clustering>
</event>
<event>
 9    1  0.1234700E-005  0.8916519E+02  0.7546771E-02  0.1331786E+00
          2   -1    0    0  502    0  0.00000000000E+00  0.00000000000E+00  0.59680404913E+02  0.59680404913E+02  0.00000000000E+00 0. -1.
         -2   -1    0    0    0  501 -0.00000000000E+00 -0.00000000000E+00 -0.15911099552E+03  0.15911099552E+03  0.00000000000E+00 0.  1.
         23    2    1    2    0    0  0.50501356698E+01 -0.65385323725E+01 -0.72484642914E+02  0.91275718985E+02  0.54854144257E+02 0.  0.
         23    2    1    2    0    0  0.25248783817E+02 -0.26104548345E+01 -0.15561066926E+02  0.93880223983E+02  0.89033892943E+02 0.  0.
        -11    1    3    3    0    0 -0.13058047474E+02 -0.24124933492E+02 -0.51900925428E+02  0.58704608678E+02  0.00000000000E+00 0.  1.
         11    1    3    3    0    0  0.18108183143E+02  0.17586401120E+02 -0.20583717486E+02  0.32571110307E+02  0.00000000000E+00 0. -1.
        -13    1    4    4    0    0 -0.27351830754E+01  0.40809195363E+02 -0.58026807047E+01  0.41310322633E+02  0.00000000000E+00 0. -1.
         13    1    4    4    0    0  0.27983966892E+02 -0.43419650198E+02 -0.97583862215E+01  0.52569901350E+02  0.00000000000E+00 0.  1.
         21    1    1    2  502  501 -0.30298919486E+02  0.91489872070E+01 -0.11384880770E+02  0.33635457468E+02  0.00000000000E+00 0.  1.
<scales pt_clust_5="13000.00000" pt_clust_6="13000.00000" pt_clust_7="13000.00000" pt_clust_8="13000.00000" pt_clust_9="31.65009"></scales>
<clustering>
<clus scale="   31.650">  1  9  2 -1</clus>
<clus scale="   54.854">  5  6 -1 -1</clus>
<clus scale="   55.067">  2  5  1 -1</clus>
<clus scale="   89.034">  7  8 -1 -1</clus>
<clus scale="   31.650">  1  5  2 -1</clus>
</clustering>
</event>
<event>
 9    1  0.1234700E-005  0.1001195E+03  0.7546771E-02  0.1280328E+00
         -3   -1    0    0    0  501 -0.00000000000E+00  0.00000000000E+00  0.10191252089E+03  0.10191252089E+03  0.00000000000E+00 0.  1.
          3   -1    0    0  502    0  0.00000000000E+00 -0.00000000000E+00 -0.16724753245E+03  0.16724753245E+03  0.00000000000E+00 0. -1.
         23    2    1    2    0    0 -0.21105453449E+02  0.26309191258E+02  0.20628686102E+02  0.99332850757E+02  0.91125511463E+02 0.  0.
         23    2    1    2    0    0  0.41474960927E+02 -0.31906518630E+02 -0.29640968791E+02  0.10967326092E+03  0.91713896525E+02 0.  0.
        -11    1    3    3    0    0  0.19983502834E+02  0.46907833969E+02  0.75331830911E+01  0.51540606522E+02  0.00000000000E+00 0.  1.
         11    1    3    3    0    0 -0.41088956283E+02 -0.20598642710E+02  0.13095503011E+02  0.47792244235E+02  0.00000000000E+00 0. -1.
        -13    1    4    4    0    0  0.38035618624E+02  0.26904870328E+02 -0.15346605136E+02  0.49051999150E+02  0.00000000000E+00 0.  1.
         13    1    4    4    0    0  0.34393423033E+01 -0.58811388958E+02 -0.14294363654E+02  0.60621261773E+02  0.00000000000E+00 0. -1.
         21    1    1    2  502  501 -0.20369507478E+02  0.55973273716E+01 -0.56322728877E+02  0.60153941656E+02  0.00000000000E+00 0.  1.
<scales pt_clust_5="13000.00000" pt_clust_6="13000.00000" pt_clust_7="13000.00000" pt_clust_8="13000.00000" pt_clust_9="21.12456"></scales>
<clustering>
<clus scale="   21.125">  2  9  1 -1</clus>
<clus scale="   91.126">  5  6 -1 -1</clus>
<clus scale="   91.714">  7  8 -1 -1</clus>
<clus scale="   99.581">  1  5  2 -1</clus>
<clus scale="   21.125">  2  5  1 -1</clus>
</clustering>
</event>
<event>
 9    1  0.1234700E-005  0.9210614E+02  0.7546771E-02  0.1297983E+00
         -3   -1    0    0    0  501 -0.00000000000E+00  0.00000000000E+00  0.39175235786E+03  0.39175235786E+03  0.00000000000E+00 0.  1.
          3   -1    0    0  502    0  0.00000000000E+00 -0.00000000000E+00 -0.29918061378E+02  0.29918061378E+02  0.00000000000E+00 0. -1.
         23    2    1    2    0    0  0.44863255058E+01  0.17298623235E+02  0.22291332446E+03  0.24124096549E+03  0.90484715428E+02 0.  0.
         23    2    1    2    0    0 -0.19493225511E+02 -0.33875107142E+01  0.12479254336E+03  0.15556303873E+03  0.90748107818E+02 0.  0.
        -11    1    4    4    0    0 -0.31825878415E+02  0.35485653204E+02  0.90471855207E+02  0.10226081705E+03  0.00000000000E+00 0. -1.
         11    1    4    4    0    0  0.12332652904E+02 -0.38873163918E+02  0.34320688151E+02  0.53302221678E+02  0.00000000000E+00 0.  1.
        -13    1    3    3    0    0  0.15253874760E-01  0.54165516918E+02  0.11503416571E+03  0.12714858527E+03  0.00000000000E+00 0.  1.
         13    1    3    3    0    0  0.44710716310E+01 -0.36866893683E+02  0.10787915875E+03  0.11409238022E+03  0.00000000000E+00 0. -1.
         21    1    1    2  502  501  0.15006900006E+02 -0.13911112521E+02  0.14128428670E+02  0.24866415021E+02  0.00000000000E+00 0.  1.
<scales pt_clust_5="13000.00000" pt_clust_6="13000.00000" pt_clust_7="13000.00000" pt_clust_8="13000.00000" pt_clust_9="20.46280"></scales>
<clustering>
<clus scale="   20.463">  2  9  1 -1</clus>
<clus scale="   90.485">  7  8 -1 -1</clus>
<clus scale="   90.748">  5  6 -1 -1</clus>
<clus scale="   91.847">  1  7  2 -1</clus>
<clus scale="   20.463">  2  5  1 -1</clus>
</clustering>
</event>
<event>
 9    1  0.1234700E-005  0.2289729E+03  0.7546771E-02  0.1127387E+00
          1   -1    0    0  502    0  0.00000000000E+00  0.00000000000E+00  0.11123534400E+04  0.11123534400E+04  0.00000000000E+00 0. -1.
         -1   -1    0    0    0  501 -0.00000000000E+00 -0.00000000000E+00 -0.62200104743E+02  0.62200104743E+02  0.00000000000E+00 0.  1.
         23    2    1    2    0    0  0.18300614705E+03  0.10385750187E+03  0.30435981914E+03  0.38143674576E+03  0.92636175204E+02 0.  0.
         23    2    1    2    0    0 -0.16563453177E+03 -0.12668762992E+03  0.55414831638E+03  0.59933632951E+03  0.92946896904E+02 0.  0.
        -11    1    4    4    0    0 -0.77897257497E+02 -0.99478515140E+02  0.22995322713E+03  0.26237843731E+03  0.00000000000E+00 0.  1.
         11    1    4    4    0    0 -0.87737274272E+02 -0.27209114775E+02  0.32419508925E+03  0.33695789220E+03  0.00000000000E+00 0. -1.
        -11    1    3    3    0    0  0.12262912000E+03  0.11505205125E+03  0.23209217228E+03  0.28660364966E+03  0.00000000000E+00 0.  1.
         11    1    3    3    0    0  0.60377027056E+02 -0.11194549387E+02  0.72267646864E+02  0.94833096097E+02  0.00000000000E+00 0. -1.
         21    1    1    2  502  501 -0.17371615284E+02  0.22830128050E+02  0.19164519972E+03  0.19378046945E+03  0.00000000000E+00 0. -1.
<scales pt_clust_5="13000.00000" pt_clust_6="13000.00000" pt_clust_7="13000.00000" pt_clust_8="13000.00000" pt_clust_9="28.68776"></scales>
<clustering>
<clus scale="   28.688">  1  9  2 -1</clus>
<clus scale="   92.636">  7  8 -1 -1</clus>
<clus scale="   92.947">  5  6 -1 -1</clus>
<clus scale="  228.847">  2  7  1 -1</clus>
<clus scale="   28.688">  1  5  2 -1</clus>
</clustering>
</event>
<event>
 9    1  0.1234700E-005  0.1046212E+03  0.7546771E-02  0.1273070E+00
         -1   -1    0    0    0  501 -0.00000000000E+00  0.00000000000E+00  0.25693115479E+03  0.25693115479E+03  0.00000000000E+00 0.  1.
          1   -1    0    0  502    0  0.00000000000E+00 -0.00000000000E+00 -0.81561675788E+02  0.81561675788E+02  0.00000000000E+00 0. -1.
         23    2    1    2    0    0  0.35160617722E+02  0.38778582933E+02  0.18731516712E+03  0.21596474190E+03  0.93881576350E+02 0.  0.
         23    2    1    2    0    0 -0.11260925173E+02 -0.24154326119E+02 -0.24580363481E+01  0.92946342155E+02  0.89009778515E+02 0.  0.
        -11    1    3    3    0    0  0.65811690927E+01  0.42269378293E+02  0.21892416519E+02  0.48055072875E+02  0.00000000000E+00 0. -1.
         11    1    3    3    0    0  0.28579448630E+02 -0.34907953603E+01  0.16542275060E+03  0.16790966902E+03  0.00000000000E+00 0.  1.
        -13    1    4    4    0    0  0.16227968760E+02 -0.51457856683E+02 -0.45355348521E+01  0.54146367014E+02  0.00000000000E+00 0. -1.
         13    1    4    4    0    0 -0.27488893934E+02  0.27303530563E+02  0.20774985040E+01  0.38799975141E+02  0.00000000000E+00 0.  1.
         21    1    1    2  502  501 -0.23899692549E+02 -0.14624256814E+02 -0.94876517678E+01  0.29581746523E+02  0.00000000000E+00 0. -1.
<scales pt_clust_5="13000.00000" pt_clust_6="13000.00000" pt_clust_7="13000.00000" pt_clust_8="13000.00000" pt_clust_9="28.01900"></scales>
<clustering>
<clus scale="   28.019">  2  9  1 -1</clus>
<clus scale="   89.010">  7  8 -1 -1</clus>
<clus scale="   93.882">  5  6 -1 -1</clus>
<clus scale="  100.273">  2  7  1 -1</clus>
<clus scale="   28.019">  2  5  1 -1</clus>
</clustering>
</event>
<event>
 9    1  0.1234700E-005  0.2379825E+03  0.7546771E-02  0.1121153E+00
          2   -1    0    0  502    0  0.00000000000E+00  0.00000000000E+00  0.87165989465E+03  0.87165989465E+03  0.00000000000E+00 0. -1.
         -2   -1    0    0    0  501 -0.00000000000E+00 -0.00000000000E+00 -0.20071183357E+03  0.20071183357E+03  0.00000000000E+00 0.  1.
         23    2    1    2    0    0  0.95675190134E+01 -0.24427752356E+03 -0.65631805167E+02  0.26717455299E+03  0.85508256798E+02 0.  0.
         23    2    1    2    0    0 -0.82355254946E+02  0.10806522088E+03  0.47566377192E+03  0.50199913073E+03  0.85361720679E+02 0.  0.
        -11    1    3    3    0    0 -0.12858549206E+02 -0.23163412327E+03 -0.50885948103E+02  0.23750597690E+03  0.00000000000E+00 0.  1.
         11    1    3    3    0    0  0.22426068219E+02 -0.12643400293E+02 -0.14745857065E+02  0.29668576092E+02  0.00000000000E+00 0. -1.
        -13    1    4    4    0    0 -0.69412473287E+02  0.33610005998E+02  0.16288143820E+03  0.18021677741E+03  0.00000000000E+00 0. -1.
         13    1    4    4    0    0 -0.12942781659E+02  0.74455214885E+02  0.31278233372E+03  0.32178235332E+03  0.00000000000E+00 0.  1.
         21    1    1    2  502  501  0.72787735932E+02  0.13621230268E+03  0.26091609433E+03  0.30319804449E+03  0.00000000000E+00 0. -1.
<scales pt_clust_5="13000.00000" pt_clust_6="13000.00000" pt_clust_7="13000.00000" pt_clust_8="13000.00000" pt_clust_9="154.44043"></scales>
<clustering>
<clus scale="   85.362">  7  8 -1 -1</clus>
<clus scale="   85.508">  5  6 -1 -1</clus>
<clus scale="  154.440">  1  9  2 -1</clus>
<clus scale="  237.930">  1  7  2 -1</clus>
<clus scale="  154.440">  1  5  2 -1</clus>
</clustering>
</event>
<event>
 9    1  0.1234700E-005  0.9682222E+02  0.7546771E-02  0.1288128E+00
         -1   -1    0    0    0  501 -0.00000000000E+00  0.00000000000E+00  0.19333901978E+03  0.19333901978E+03  0.00000000000E+00 0.  1.
          1   -1    0    0  502    0  0.00000000000E+00 -0.00000000000E+00 -0.10630853080E+03  0.10630853080E+03  0.00000000000E+00 0. -1.
         23    2    1    2    0    0 -0.25657303544E+02 -0.84475411757E+01  0.11991978642E+03  0.15352866061E+03  0.91981717077E+02 0.  0.
         23    2    1    2    0    0  0.49064038560E+02 -0.18716088250E+02 -0.35562943977E+02  0.11016216051E+03  0.90074451343E+02 0.  0.
        -11    1    4    4    0    0  0.64340987603E+02 -0.38488705299E+02 -0.39697869440E+02  0.84835511193E+02  0.00000000000E+00 0. -1.
         11    1    4    4    0    0 -0.15276949043E+02  0.19772617049E+02  0.41349254636E+01  0.25326649317E+02  0.00000000000E+00 0.  1.
        -13    1    3    3    0    0 -0.51991516878E+02 -0.48469299875E+01  0.11527027621E+03  0.12654583018E+03  0.00000000000E+00 0.  1.
         13    1    3    3    0    0  0.26334213334E+02 -0.36006111881E+01  0.46495102070E+01  0.26982830430E+02  0.00000000000E+00 0. -1.
         21    1    1    2  502  501 -0.23406735016E+02  0.27163629425E+02  0.26736465416E+01  0.35956729461E+02  0.00000000000E+00 0.  1.
<scales pt_clust_5="13000.00000" pt_clust_6="13000.00000" pt_clust_7="13000.00000" pt_clust_8="13000.00000" pt_clust_9="35.85719"></scales>
<clustering>
<clus scale="   35.857">  2  9  1 -1</clus>
<clus scale="   90.074">  5  6 -1 -1</clus>
<clus scale="   91.982">  7  8 -1 -1</clus>
<clus scale="   95.012">  2  5  1 -1</clus>
<clus scale="   35.857">  2  5  1 -1</clus>
</clustering>
</event>
<event>
 9    1  0.1234700E-005  0.1498727E+03  0.7546771E-02  0.1200829E+00
         -1   -1    0    0    0  501 -0.00000000000E+00  0.00000000000E+00  0.44234447867E+02  0.44234447867E+02  0.00000000000E+00 0.  1.
          1   -1    0    0  502    0  0.00000000000E+00 -0.00000000000E+00 -0.73586453191E+03  0.73586453191E+03  0.00000000000E+00 0. -1.
         23    2    1    2    0    0 -0.11399741688E+03 -0.42609439337E+02 -0.26817604543E+03  0.30836560479E+03  0.91432923491E+02 0.  0.
         23    2    1    2    0    0  0.83863201874E+02  0.88775561053E+02 -0.29118301942E+03  0.32843297643E+03  0.90368868194E+02 0.  0.
        -13    1    3    3    0    0 -0.66315732116E+01 -0.24353489162E+02 -0.82635266664E+01  0.26558540445E+02  0.00000000000E+00 0.  1.
         13    1    3    3    0    0 -0.10736584367E+03 -0.18255950175E+02 -0.25991251877E+03  0.28180706435E+03  0.00000000000E+00 0. -1.
        -13    1    4    4    0    0 -0.19570764672E+02  0.14404165565E+02 -0.40344316768E+02  0.47097332313E+02  0.00000000000E+00 0. -1.
         13    1    4    4    0    0  0.10343396655E+03  0.74371395488E+02 -0.25083870265E+03  0.28133564411E+03  0.00000000000E+00 0.  1.
         21    1    1    2  502  501  0.30134215010E+02 -0.46166121717E+02 -0.13227101919E+03  0.14330039856E+03  0.00000000000E+00 0. -1.
<scales pt_clust_5="13000.00000" pt_clust_6="13000.00000" pt_clust_7="13000.00000" pt_clust_8="13000.00000" pt_clust_9="55.13059"></scales>
<clustering>
<clus scale="   55.131">  2  9  1 -1</clus>
<clus scale="   90.369">  7  8 -1 -1</clus>
<clus scale="   91.433">  5  6 -1 -1</clus>
<clus scale="  149.226">  2  7  1 -1</clus>
<clus scale="   55.131">  2  5  1 -1</clus>
</clustering>
</event>
<event>
 9    1  0.1234700E-005  0.1166681E+03  0.7546771E-02  0.1255186E+00
         -1   -1    0    0    0  501 -0.00000000000E+00  0.00000000000E+00  0.14474910443E+03  0.14474910443E+03  0.00000000000E+00 0.  1.
          1   -1    0    0  502    0  0.00000000000E+00 -0.00000000000E+00 -0.38394155600E+03  0.38394155600E+03  0.00000000000E+00 0. -1.
         23    2    1    2    0    0  0.58403045830E+02  0.71360235000E+01  0.35530325333E+02  0.11737878185E+03  0.95150069975E+02 0.  0.
         23    2    1    2    0    0 -0.90477184036E+01  0.33753257492E+02  0.13146101169E+02  0.11639430940E+03  0.11024369227E+03 0.  0.
        -13    1    4    4    0    0  0.21405825073E+02 -0.16007790039E+02  0.43175069568E+02  0.50779378897E+02  0.00000000000E+00 0.  1.
         13    1    4    4    0    0 -0.30453543476E+02  0.49761047532E+02 -0.30028968399E+02  0.65614930502E+02  0.00000000000E+00 0. -1.
        -13    1    3    3    0    0 -0.19117557113E+02  0.17156816568E+02  0.29299346888E+02  0.38965229023E+02  0.00000000000E+00 0. -1.
         13    1    3    3    0    0  0.77520602942E+02 -0.10020793068E+02  0.62309784446E+01  0.78413552825E+02  0.00000000000E+00 0.  1.
         21    1    1    2  502  501 -0.49355327426E+02 -0.40889280992E+02 -0.28786887808E+03  0.29491756918E+03  0.00000000000E+00 0. -1.
<scales pt_clust_5="13000.00000" pt_clust_6="13000.00000" pt_clust_7="13000.00000" pt_clust_8="13000.00000" pt_clust_9="64.09276"></scales>
<clustering>
<clus scale="   64.093">  2  9  1 -1</clus>
<clus scale="   95.150">  7  8 -1 -1</clus>
<clus scale="  102.525">  1  7  2 -1</clus>
<clus scale="  110.244">  5  6 -1 -1</clus>
<clus scale="   64.093">  2  5  1 -1</clus>
</clustering>
</event>
<event>
 9    1  0.1234700E-005  0.1117490E+03  0.7546771E-02  0.1259714E+00
         -3   -1    0    0    0  501 -0.00000000000E+00  0.00000000000E+00  0.19397425270E+03  0.19397425270E+03  0.00000000000E+00 0.  1.
          3   -1    0    0  502    0  0.00000000000E+00 -0.00000000000E+00 -0.29923965064E+03  0.29923965064E+03  0.00000000000E+00 0. -1.
         23    2    1    2    0    0  0.27664624623E+02 -0.44738592954E+02  0.14189414803E+03  0.17779486904E+03  0.93328415049E+02 0.  0.
         23    2    1    2    0    0 -0.78227287589E+02 -0.31113330734E+01 -0.16361981555E+03  0.20667582824E+03  0.99066972394E+02 0.  0.
        -13    1    4    4    0    0 -0.59971271021E+02  0.25699045307E+02 -0.15948951277E+03  0.17231917758E+03  0.00000000000E+00 0. -1.
         13    1    4    4    0    0 -0.18256016567E+02 -0.28810378381E+02 -0.41303027802E+01  0.34356650657E+02  0.00000000000E+00 0.  1.
        -13    1    3    3    0    0  0.51123284315E+02 -0.57623501178E+02  0.12263315842E+03  0.14482040475E+03  0.00000000000E+00 0.  1.
         13    1    3    3    0    0 -0.23458659692E+02  0.12884908224E+02  0.19260989614E+02  0.32974464292E+02  0.00000000000E+00 0. -1.
         21    1    1    2  502  501  0.50562662965E+02  0.47849926028E+02 -0.83539730424E+02  0.10874320607E+03  0.00000000000E+00 0. -1.
<scales pt_clust_5="13000.00000" pt_clust_6="13000.00000" pt_clust_7="13000.00000" pt_clust_8="13000.00000" pt_clust_9="69.61464"></scales>
<clustering>
<clus scale="   69.615">  2  9  1 -1</clus>
<clus scale="   93.328">  7  8 -1 -1</clus>
<clus scale="   99.067">  5  6 -1 -1</clus>
<clus scale="  106.695">  1  7  2 -1</clus>
<clus scale="   69.615">  2  5  1 -1</clus>
</clustering>
</event>
<event>
 9    1  0.2234845E-005  0.9785849E+02  0.7546771E-02  0.1289721E+00
          2   -1    0    0  502    0  0.00000000000E+00  0.00000000000E+00  0.41372534036E+03  0.41372534036E+03  0.00000000000E+00 0. -1.
         -2   -1    0    0    0  501 -0.00000000000E+00 -0.00000000000E+00 -0.68154441970E+02  0.68154441970E+02  0.00000000000E+00 0.  1.
         23    2    1    2    0    0  0.33572372296E+02  0.10693707740E+01 -0.16685491424E+02  0.10003411521E+03  0.92737106095E+02 0.  0.
         23    2    1    2    0    0 -0.14560478305E+02  0.24470516336E+02  0.28107304153E+03  0.29464203196E+03  0.83672328896E+02 0.  0.
        -11    1    4    4    0    0  0.23362104821E+01 -0.28624698893E+02  0.14097039068E+03  0.14386619587E+03  0.00000000000E+00 0. -1.
         11    1    4    4    0    0 -0.16896688787E+02  0.53095215229E+02  0.14010265085E+03  0.15077583609E+03  0.00000000000E+00 0.  1.
        -11    1    3    3    0    0  0.21220055995E+02  0.40584573880E+02  0.14680985847E+02  0.48092928367E+02  0.00000000000E+00 0. -1.
         11    1    3    3    0    0  0.12352316302E+02 -0.39515203106E+02 -0.31366477271E+02  0.51941186846E+02  0.00000000000E+00 0.  1.
         21    1    1    2  502  501 -0.19011893991E+02 -0.25539887110E+02  0.81183348282E+02  0.87203635159E+02  0.00000000000E+00 0.  1.
<scales pt_clust_5="13000.00000" pt_clust_6="13000.00000" pt_clust_7="13000.00000" pt_clust_8="13000.00000" pt_clust_9="31.83925"></scales>
<clustering>
<clus scale="   31.839">  1  9  2 -1</clus>
<clus scale="   83.672">  5  6 -1 -1</clus>
<clus scale="   89.315">  1  5  2 -1</clus>
<clus scale="   92.737">  7  8 -1 -1</clus>
<clus scale="   31.839">  1  5  2 -1</clus>
</clustering>
</event>
<event>
 9    1  0.1234700E-005  0.1560931E+03  0.7546771E-02  0.1193365E+00
         -1   -1    0    0    0  501 -0.00000000000E+00  0.00000000000E+00  0.59057283226E+02  0.59057283226E+02  0.00000000000E+00 0.  1.
          1   -1    0    0  502    0  0.00000000000E+00 -0.00000000000E+00 -0.10057980535E+04  0.10057980535E+04  0.00000000000E+00 0. -1.
         23    2    1    2    0    0 -0.11259451735E+03 -0.39640860965E+02 -0.11332987335E+03  0.18786757702E+03  0.90562923459E+02 0.  0.
         23    2    1    2    0    0  0.15281917888E+03 -0.79548915423E+01 -0.38554152222E+03  0.42480377520E+03  0.91646060114E+02 0.  0.
        -11    1    3    3    0    0 -0.28028503791E+02 -0.29759822354E+02  0.59568617506E+01  0.41312567740E+02  0.00000000000E+00 0.  1.
         11    1    3    3    0    0 -0.84566013556E+02 -0.98810386104E+01 -0.11928673510E+03  0.14655500928E+03  0.00000000000E+00 0. -1.
        -11    1    4    4    0    0  0.86765477597E+02 -0.29788731742E+02 -0.12447821099E+03  0.15463001537E+03  0.00000000000E+00 0.  1.
         11    1    4    4    0    0  0.66053701282E+02  0.21833840199E+02 -0.26106331123E+03  0.27017375983E+03  0.00000000000E+00 0. -1.
         21    1    1    2  502  501 -0.40224661533E+02  0.47595752507E+02 -0.44786937471E+03  0.45218398452E+03  0.00000000000E+00 0. -1.
<scales pt_clust_5="13000.00000" pt_clust_6="13000.00000" pt_clust_7="13000.00000" pt_clust_8="13000.00000" pt_clust_9="62.31676"></scales>
<clustering>
<clus scale="   62.317">  2  9  1 -1</clus>
<clus scale="   90.563">  5  6 -1 -1</clus>
<clus scale="   91.646">  7  8 -1 -1</clus>
<clus scale="  155.460">  1  5  2 -1</clus>
<clus scale="   62.317">  2  5  1 -1</clus>
</clustering>
</event>
<event>
 9    1  0.1234700E-005  0.1229804E+03  0.7546771E-02  0.1242153E+00
          1   -1    0    0  502    0  0.00000000000E+00  0.00000000000E+00  0.12753889050E+03  0.12753889050E+03  0.00000000000E+00 0. -1.
         -1   -1    0    0    0  501 -0.00000000000E+00 -0.00000000000E+00 -0.41149564767E+03  0.41149564767E+03  0.00000000000E+00 0.  1.
         23    2    1    2    0    0 -0.65832790773E+02 -0.46744937394E+02 -0.29402269496E+03  0.31831905505E+03  0.91425544260E+02 0.  0.
         23    2    1    2    0    0  0.42962313171E+02 -0.11003697207E+02 -0.60042269762E+02  0.12705052536E+03  0.10281011688E+03 0.  0.
        -13    1    3    3    0    0 -0.96787098426E+01  0.22756438094E+02 -0.26394222415E+02  0.36168879936E+02  0.00000000000E+00 0. -1.
         13    1    3    3    0    0 -0.56154080930E+02 -0.69501375488E+02 -0.26762847255E+03  0.28215017512E+03  0.00000000000E+00 0.  1.
        -13    1    4    4    0    0  0.65118005883E+02 -0.32717064666E+02 -0.62398865055E+02  0.95939456798E+02  0.00000000000E+00 0. -1.
         13    1    4    4    0    0 -0.22155692712E+02  0.21713367459E+02  0.23565952935E+01  0.31111068566E+02  0.00000000000E+00 0.  1.
         21    1    1    2  502  501  0.22870477602E+02  0.57748634601E+02  0.70108207560E+02  0.93664957756E+02  0.00000000000E+00 0. -1.
<scales pt_clust_5="13000.00000" pt_clust_6="13000.00000" pt_clust_7="13000.00000" pt_clust_8="13000.00000" pt_clust_9="62.11251"></scales>
<clustering>
<clus scale="   62.113">  1  9  2 -1</clus>
<clus scale="   91.426">  5  6 -1 -1</clus>
<clus scale="  102.810">  7  8 -1 -1</clus>
<clus scale="  113.635">  2  5  1 -1</clus>
<clus scale="   62.113">  1  5  2 -1</clus>
</clustering>
</event>
<event>
 9    1  0.1234700E-005  0.1323231E+03  0.7546771E-02  0.1224441E+00
         -2   -1    0    0    0  501 -0.00000000000E+00  0.00000000000E+00  0.66046265833E+02  0.66046265833E+02  0.00000000000E+00 0.  1.
          2   -1    0    0  502    0  0.00000000000E+00 -0.00000000000E+00 -0.54448318758E+03  0.54448318758E+03  0.00000000000E+00 0. -1.
         23    2    1    2    0    0 -0.77581702545E+02  0.52772051818E+02 -0.80474888568E+02  0.15437427539E+03  0.92473775693E+02 0.  0.
         23    2    1    2    0    0  0.30689489397E+02 -0.10956567127E+03 -0.22333388994E+03  0.26663108119E+03  0.90926486714E+02 0.  0.
        -11    1    4    4    0    0  0.63127778623E+02 -0.78485583305E+02 -0.15526012661E+03  0.18506974398E+03  0.00000000000E+00 0. -1.
         11    1    4    4    0    0 -0.32438289226E+02 -0.31080087960E+02 -0.68073763327E+02  0.81561337220E+02  0.00000000000E+00 0.  1.
        -13    1    3    3    0    0  0.13737084023E+02  0.34481679819E+02 -0.33797473782E+02  0.50199232610E+02  0.00000000000E+00 0. -1.
         13    1    3    3    0    0 -0.91318786568E+02  0.18290371999E+02 -0.46677414786E+02  0.10417504278E+03  0.00000000000E+00 0.  1.
         21    1    1    2  502  501  0.46892213147E+02  0.56793619448E+02 -0.17462814324E+03  0.18952409682E+03  0.00000000000E+00 0.  1.
<scales pt_clust_5="13000.00000" pt_clust_6="13000.00000" pt_clust_7="13000.00000" pt_clust_8="13000.00000" pt_clust_9="73.65049"></scales>
<clustering>
<clus scale="   73.650">  2  9  1 -1</clus>
<clus scale="   90.926">  5  6 -1 -1</clus>
<clus scale="   92.474">  7  8 -1 -1</clus>
<clus scale="  131.246">  2  5  1 -1</clus>
<clus scale="   73.650">  2  5  1 -1</clus>
</clustering>
</event>
<event>
 9    1  0.1234700E-005  0.1363901E+03  0.7546771E-02  0.1218473E+00
          1   -1    0    0  502    0  0.00000000000E+00  0.00000000000E+00  0.23882503536E+03  0.23882503536E+03  0.00000000000E+00 0. -1.
         -1   -1    0    0    0  501 -0.00000000000E+00 -0.00000000000E+00 -0.31253711367E+03  0.31253711367E+03  0.00000000000E+00 0.  1.
         23    2    1    2    0    0 -0.76281312293E+02 -0.88318062744E+02 -0.22434444717E+03  0.26871172974E+03  0.90866076806E+02 0.  0.
         23    2    1    2    0    0  0.77105217314E+02 -0.27750035442E+02  0.61900898071E+02  0.13654855022E+03  0.89991701741E+02 0.  0.
        -11    1    3    3    0    0 -0.65154913441E+02 -0.13166295929E+02 -0.69136633397E+02  0.95908227861E+02  0.00000000000E+00 0.  1.
         11    1    3    3    0    0 -0.11126398852E+02 -0.75151766815E+02 -0.15520781377E+03  0.17280350188E+03  0.00000000000E+00 0. -1.
        -13    1    4    4    0    0  0.52452628867E+02  0.18581165428E+02  0.62998149117E+02  0.84055367323E+02  0.00000000000E+00 0. -1.
         13    1    4    4    0    0  0.24652588447E+02 -0.46331200870E+02 -0.10972510460E+01  0.52493182901E+02  0.00000000000E+00 0.  1.
         21    1    1    2  502  501 -0.82390502055E+00  0.11606809819E+03  0.88731470786E+02  0.14610186906E+03  0.00000000000E+00 0. -1.
<scales pt_clust_5="13000.00000" pt_clust_6="13000.00000" pt_clust_7="13000.00000" pt_clust_8="13000.00000" pt_clust_9="116.07102"></scales>
<clustering>
<clus scale="   89.992">  7  8 -1 -1</clus>
<clus scale="   90.866">  5  6 -1 -1</clus>
<clus scale="  116.071">  1  9  2 -1</clus>
<clus scale="  135.809">  1  7  2 -1</clus>
<clus scale="  116.071">  1  5  2 -1</clus>
</clustering>
</event>
<event>
 9    1  0.1234700E-005  0.1132517E+03  0.7546771E-02  0.1254850E+00
         -4   -1    0    0    0  501 -0.00000000000E+00  0.00000000000E+00  0.22853518855E+03  0.22853518855E+03  0.00000000000E+00 0.  1.
          4   -1    0    0  502    0  0.00000000000E+00 -0.00000000000E+00 -0.80168900683E+02  0.80168900683E+02  0.00000000000E+00 0. -1.
         23    2    1    2    0    0  0.77208488133E+02 -0.83327319649E+01  0.12754829646E+03  0.17423983002E+03  0.89779537605E+02 0.  0.
         23    2    1    2    0    0 -0.48609138035E+02  0.10781692821E+02  0.93102758441E+01  0.10353938650E+03  0.90302990646E+02 0.  0.
        -11    1    4    4    0    0 -0.53618352496E+02 -0.26770483865E+02 -0.10413309301E+02  0.60827818811E+02  0.00000000000E+00 0. -1.
         11    1    4    4    0    0  0.50092144604E+01  0.37552176686E+02  0.19723585145E+02  0.42711567688E+02  0.00000000000E+00 0.  1.
        -11    1    3    3    0    0  0.23893198378E+02  0.10234081720E+02  0.11298455435E+03  0.11593589124E+03  0.00000000000E+00 0.  1.
         11    1    3    3    0    0  0.53315289755E+02 -0.18566813685E+02  0.14563742111E+02  0.58303938772E+02  0.00000000000E+00 0. -1.
         21    1    1    2  502  501 -0.28599350098E+02 -0.24489608562E+01  0.11507715567E+02  0.30924872722E+02  0.00000000000E+00 0. -1.
<scales pt_clust_5="13000.00000" pt_clust_6="13000.00000" pt_clust_7="13000.00000" pt_clust_8="13000.00000" pt_clust_9="28.70401"></scales>
<clustering>
<clus scale="   28.704">  2  9  1 -1</clus>
<clus scale="   89.780">  7  8 -1 -1</clus>
<clus scale="   90.303">  5  6 -1 -1</clus>
<clus scale="  112.835">  1  7  2 -1</clus>
<clus scale="   28.704">  2  5  1 -1</clus>
</clustering>
</event>
<event>
 9    1  0.1234700E-005  0.1406664E+03  0.7546771E-02  0.1212697E+00
         -1   -1    0    0    0  501 -0.00000000000E+00  0.00000000000E+00  0.53450705769E+02  0.53450705769E+02  0.00000000000E+00 0.  1.
          1   -1    0    0  502    0  0.00000000000E+00 -0.00000000000E+00 -0.74511724354E+03  0.74511724354E+03  0.00000000000E+00 0. -1.
         23    2    1    2    0    0  0.26700823645E+02  0.90988692139E+02 -0.98228226460E+02  0.16475913692E+03  0.92222083275E+02 0.  0.
         23    2    1    2    0    0 -0.46442789157E+02 -0.13262948129E+03 -0.37682361916E+03  0.41234634293E+03  0.91027219015E+02 0.  0.
        -11    1    3    3    0    0  0.20760649800E+01  0.40889906845E+02  0.10736759109E+02  0.42326971587E+02  0.00000000000E+00 0.  1.
         11    1    3    3    0    0  0.24624758665E+02  0.50098785294E+02 -0.10896498557E+03  0.12243216533E+03  0.00000000000E+00 0. -1.
        -11    1    4    4    0    0  0.20539056792E+02 -0.61737793064E+02 -0.10466886555E+03  0.12324357736E+03  0.00000000000E+00 0.  1.
         11    1    4    4    0    0 -0.66981845949E+02 -0.70891688225E+02 -0.27215475361E+03  0.28910276557E+03  0.00000000000E+00 0. -1.
         21    1    1    2  502  501  0.19741965512E+02  0.41640789150E+02 -0.21661469215E+03  0.22146246946E+03  0.00000000000E+00 0.  1.
<scales pt_clust_5="13000.00000" pt_clust_6="13000.00000" pt_clust_7="13000.00000" pt_clust_8="13000.00000" pt_clust_9="46.08363"></scales>
<clustering>
<clus scale="   46.084">  2  9  1 -1</clus>
<clus scale="   91.027">  7  8 -1 -1</clus>
<clus scale="   92.222">  5  6 -1 -1</clus>
<clus scale="  139.886">  2  7  1 -1</clus>
<clus scale="   46.084">  2  5  1 -1</clus>
</clustering>
</event>
<event>
 9    1  0.1234700E-005  0.2541287E+03  0.7546771E-02  0.1110811E+00
         -1   -1    0    0    0  501 -0.00000000000E+00  0.00000000000E+00  0.15076030919E+03  0.15076030919E+03  0.00000000000E+00 0.  1.
          1   -1    0    0  502    0  0.00000000000E+00 -0.00000000000E+00 -0.10036298196E+04  0.10036298196E+04  0.00000000000E+00 0. -1.
         23    2    1    2    0    0 -0.13797100223E+03  0.13993214513E+03 -0.14615538151E+03  0.26077644425E+03  0.89587698008E+02 0.  0.
         23    2    1    2    0    0  0.20084980253E+03 -0.20905886143E+03 -0.16713939845E+03  0.34600694959E+03  0.87971472247E+02 0.  0.
        -11    1    3    3    0    0 -0.18857572835E+02  0.55371886937E+02 -0.83214278823E+02  0.10171661672E+03  0.00000000000E+00 0. -1.
         11    1    3    3    0    0 -0.11911342939E+03  0.84560258189E+02 -0.62941102690E+02  0.15905982753E+03  0.00000000000E+00 0.  1.
        -13    1    4    4    0    0  0.29664976626E+02 -0.88883096530E+02 -0.55871718636E+02  0.10909566733E+03  0.00000000000E+00 0. -1.
         13    1    4    4    0    0  0.17118482591E+03 -0.12017576490E+03 -0.11126767982E+03  0.23691128226E+03  0.00000000000E+00 0.  1.
         21    1    1    2  502  501 -0.62878800303E+02  0.69126716307E+02 -0.53957473041E+03  0.54760673492E+03  0.00000000000E+00 0.  1.
<scales pt_clust_5="13000.00000" pt_clust_6="13000.00000" pt_clust_7="13000.00000" pt_clust_8="13000.00000" pt_clust_9="93.44649"></scales>
<clustering>
<clus scale="   87.971">  7  8 -1 -1</clus>
<clus scale="   89.588">  5  6 -1 -1</clus>
<clus scale="   93.446">  2  9  1 -1</clus>
<clus scale="  253.563">  2  7  1 -1</clus>
<clus scale="   93.446">  2  5  1 -1</clus>
</clustering>
</event>
<event>
 9    1  0.1234700E-005  0.1457831E+03  0.7546771E-02  0.1205895E+00
          1   -1    0    0  502    0  0.00000000000E+00  0.00000000000E+00  0.33053118650E+03  0.33053118650E+03  0.00000000000E+00 0. -1.
         -1   -1    0    0    0  501 -0.00000000000E+00 -0.00000000000E+00 -0.13557604033E+03  0.13557604033E+03  0.00000000000E+00 0.  1.
         23    2    1    2    0    0 -0.10156402650E+03  0.61730828026E+02 -0.51874855440E+02  0.15882095877E+03  0.91690510464E+02 0.  0.
         23    2    1    2    0    0  0.58071542637E+02 -0.81032502583E+02  0.17239762835E+03  0.21894415476E+03  0.90978184763E+02 0.  0.
        -11    1    4    4    0    0  0.44029618234E+02  0.61188604991E+01  0.77448043541E+02  0.89298640437E+02  0.00000000000E+00 0. -1.
         11    1    4    4    0    0  0.14041924403E+02 -0.87151363082E+02  0.94949584809E+02  0.12964551432E+03  0.00000000000E+00 0.  1.
        -13    1    3    3    0    0 -0.49615451572E+02  0.76238447044E+02 -0.52216557058E+02  0.10488356722E+03  0.00000000000E+00 0.  1.
         13    1    3    3    0    0 -0.51948574928E+02 -0.14507619018E+02  0.34170161751E+00  0.53937391545E+02  0.00000000000E+00 0. -1.
         21    1    1    2  502  501  0.43492483863E+02  0.19301674557E+02  0.74432373261E+02  0.88342113302E+02  0.00000000000E+00 0. -1.
<scales pt_clust_5="13000.00000" pt_clust_6="13000.00000" pt_clust_7="13000.00000" pt_clust_8="13000.00000" pt_clust_9="47.58309"></scales>
<clustering>
<clus scale="   47.583">  1  9  2 -1</clus>
<clus scale="   90.978">  5  6 -1 -1</clus>
<clus scale="   91.691">  7  8 -1 -1</clus>
<clus scale="  145.336">  1  5  2 -1</clus>
<clus scale="   47.583">  1  5  2 -1</clus>
</clustering>
</event>
<event>
 9    1  0.1234700E-005  0.1752828E+03  0.7546771E-02  0.1200214E+00
          1   -1    0    0  502    0  0.00000000000E+00  0.00000000000E+00  0.39564768502E+03  0.39564768502E+03  0.00000000000E+00 0. -1.
         -1   -1    0    0    0  501 -0.00000000000E+00 -0.00000000000E+00 -0.11097517668E+03  0.11097517668E+03  0.00000000000E+00 0.  1.
         23    2    1    2    0    0 -0.20334033327E+01  0.21477176013E+02  0.62830998955E+02  0.11350994759E+03  0.92040045380E+02 0.  0.
         23    2    1    2    0    0  0.10251312610E+03 -0.11838851275E+03  0.14807575396E+03  0.23522254535E+03  0.94225452791E+02 0.  0.
        -11    1    4    4    0    0  0.85100742115E+02 -0.38440571660E+02  0.45109396857E+02  0.10370473250E+03  0.00000000000E+00 0. -1.
         11    1    4    4    0    0  0.17412383988E+02 -0.79947941086E+02  0.10296635711E+03  0.13151781285E+03  0.00000000000E+00 0.  1.
        -13    1    3    3    0    0  0.26279026054E+02  0.45327986607E+02  0.54427570364E+02  0.75548487714E+02  0.00000000000E+00 0. -1.
         13    1    3    3    0    0 -0.28312429387E+02 -0.23850810594E+02  0.84034285909E+01  0.37961459875E+02  0.00000000000E+00 0.  1.
         21    1    1    2  502  501 -0.10047972277E+03  0.96911336734E+02  0.73765755417E+02  0.15789036876E+03  0.00000000000E+00 0.  1.
<scales pt_clust_5="13000.00000" pt_clust_6="13000.00000" pt_clust_7="13000.00000" pt_clust_8="13000.00000" pt_clust_9="147.80267"></scales>
<clustering>
<clus scale="   92.040">  7  8 -1 -1</clus>
<clus scale="   94.225">  5  6 -1 -1</clus>
<clus scale="   94.535">  2  7  1 -1</clus>
<clus scale="  147.803">  2  9  1 -1</clus>
<clus scale="  175.283">  1  5  2 -1</clus>
</clustering>
</event>
<event>
 9    1  0.1234700E-005  0.1335798E+03  0.7546771E-02  0.1222988E+00
          2   -1    0    0  502    0  0.00000000000E+00  0.00000000000E+00  0.49577557159E+03  0.49577557159E+03  0.00000000000E+00 0. -1.
         -2   -1    0    0    0  501 -0.00000000000E+00 -0.00000000000E+00 -0.66159190084E+02  0.66159190084E+02  0.00000000000E+00 0.  1.
         23    2    1    2    0    0 -0.94310453908E+02  0.34661801229E+02  0.53253112483E+02  0.14863831056E+03  0.95715992374E+02 0.  0.
         23    2    1    2    0    0  0.76452150351E+02 -0.17749269146E+02  0.19154677823E+03  0.22685051253E+03  0.92795576051E+02 0.  0.
        -11    1    4    4    0    0  0.52444293156E+02  0.31195809196E+02  0.65502378295E+02  0.89521751314E+02  0.00000000000E+00 0.  1.
         11    1    4    4    0    0  0.24007857195E+02 -0.48945078342E+02  0.12604439994E+03  0.13732876121E+03  0.00000000000E+00 0. -1.
        -11    1    3    3    0    0 -0.11331523893E+03  0.25000088093E+02  0.52342377746E+02  0.12729914487E+03  0.00000000000E+00 0. -1.
         11    1    3    3    0    0  0.19004785019E+02  0.96617131361E+01  0.91073473739E+00  0.21339165685E+02  0.00000000000E+00 0.  1.
         21    1    1    2  502  501  0.17858303557E+02 -0.16912532083E+02  0.18481649079E+03  0.18644593859E+03  0.00000000000E+00 0. -1.
<scales pt_clust_5="13000.00000" pt_clust_6="13000.00000" pt_clust_7="13000.00000" pt_clust_8="13000.00000" pt_clust_9="24.59579"></scales>
<clustering>
<clus scale="   24.596">  1  9  2 -1</clus>
<clus scale="   92.796">  5  6 -1 -1</clus>
<clus scale="   95.716">  7  8 -1 -1</clus>
<clus scale="  131.503">  1  5  2 -1</clus>
<clus scale="   24.596">  1  5  2 -1</clus>
</clustering>
</event>
<event>
 9    1  0.1234700E-005  0.1039976E+03  0.7546771E-02  0.1272875E+00
         -1   -1    0    0    0  501 -0.00000000000E+00  0.00000000000E+00  0.13810630930E+03  0.13810630930E+03  0.00000000000E+00 0.  1.
          1   -1    0    0  502    0  0.00000000000E+00 -0.00000000000E+00 -0.15165909471E+03  0.15165909471E+03  0.00000000000E+00 0. -1.
         23    2    1    2    0    0  0.22908529344E+02 -0.49311779830E+02  0.79412588049E+02  0.13273952866E+03  0.91416469968E+02 0.  0.
         23    2    1    2    0    0 -0.22001756203E+02  0.22577222351E+02 -0.88557630211E+02  0.12991523166E+03  0.89675555771E+02 0.  0.
        -13    1    3    3    0    0  0.44540252486E+02  0.40258463552E+01  0.17013994537E+02  0.47848903232E+02  0.00000000000E+00 0. -1.
         13    1    3    3    0    0 -0.21631723143E+02 -0.53337626185E+02  0.62398593512E+02  0.84890625428E+02  0.00000000000E+00 0.  1.
        -13    1    4    4    0    0  0.82495457495E+01  0.47256313962E+02 -0.22051261019E+02  0.52796518132E+02  0.00000000000E+00 0.  1.
         13    1    4    4    0    0 -0.30251301953E+02 -0.24679091611E+02 -0.66506369192E+02  0.77118713525E+02  0.00000000000E+00 0. -1.
         21    1    1    2  502  501 -0.90677314030E+00  0.26734557479E+02 -0.44077432407E+01  0.27110643696E+02  0.00000000000E+00 0. -1.
<scales pt_clust_5="13000.00000" pt_clust_6="13000.00000" pt_clust_7="13000.00000" pt_clust_8="13000.00000" pt_clust_9="26.74993"></scales>
<clustering>
<clus scale="   26.750">  2  9  1 -1</clus>
<clus scale="   89.676">  7  8 -1 -1</clus>
<clus scale="   91.416">  5  6 -1 -1</clus>
<clus scale="  102.471">  2  7  1 -1</clus>
<clus scale="   26.750">  2  5  1 -1</clus>
</clustering>
</event>
<event>
 9    1  0.1234700E-005  0.1226294E+03  0.7546771E-02  0.1239027E+00
         -1   -1    0    0    0  501 -0.00000000000E+00  0.00000000000E+00  0.55189137118E+03  0.55189137118E+03  0.00000000000E+00 0.  1.
          1   -1    0    0  502    0  0.00000000000E+00 -0.00000000000E+00 -0.35728539010E+02  0.35728539010E+02  0.00000000000E+00 0. -1.
         23    2    1    2    0    0 -0.67768646584E+02 -0.17704932835E+02  0.22398042718E+03  0.25206908560E+03  0.92008358585E+02 0.  0.
         23    2    1    2    0    0  0.83390922006E+02  0.37627023503E+02  0.27685265580E+03  0.30595443298E+03  0.92687017793E+02 0.  0.
        -11    1    4    4    0    0  0.10124116311E+03  0.21649777307E+02  0.24596337895E+03  0.26686414100E+03  0.00000000000E+00 0.  1.
         11    1    4    4    0    0 -0.17850241099E+02  0.15977246196E+02  0.30889276846E+02  0.39090291984E+02  0.00000000000E+00 0. -1.
        -13    1    3    3    0    0 -0.44647312552E+02  0.19728239193E+02  0.19084735471E+03  0.19699060571E+03  0.00000000000E+00 0.  1.
         13    1    3    3    0    0 -0.23121334032E+02 -0.37433172028E+02  0.33133072474E+02  0.55078479891E+02  0.00000000000E+00 0. -1.
         21    1    1    2  502  501 -0.15622275422E+02 -0.19922090668E+02  0.15329749192E+02  0.29596391608E+02  0.00000000000E+00 0. -1.
<scales pt_clust_5="13000.00000" pt_clust_6="13000.00000" pt_clust_7="13000.00000" pt_clust_8="13000.00000" pt_clust_9="25.31690"></scales>
<clustering>
<clus scale="   25.317">  2  9  1 -1</clus>
<clus scale="   92.008">  7  8 -1 -1</clus>
<clus scale="   92.687">  5  6 -1 -1</clus>
<clus scale="  122.117">  1  7  2 -1</clus>
<clus scale="   25.317">  2  5  1 -1</clus>
</clustering>
</event>
<event>
 9    1  0.1234700E-005  0.1234853E+03  0.7546771E-02  0.1238376E+00
          2   -1    0    0  502    0  0.00000000000E+00  0.00000000000E+00  0.10428243312E+04  0.10428243312E+04  0.00000000000E+00 0. -1.
         -2   -1    0    0    0  501 -0.00000000000E+00 -0.00000000000E+00 -0.59040370667E+02  0.59040370667E+02  0.00000000000E+00 0.  1.
         23    2    1    2    0    0  0.29334959303E+02 -0.10688805512E+03  0.77430957081E+02  0.16230007185E+03  0.89778416364E+02 0.  0.
         23    2    1    2    0    0  0.43232192843E+02  0.45365844752E+02  0.19944255410E+03  0.22628112584E+03  0.86595225932E+02 0.  0.
        -13    1    4    4    0    0  0.49895851678E+02 -0.15118587898E+01  0.54998898125E+02  0.74274898362E+02  0.00000000000E+00 0.  1.
         13    1    4    4    0    0 -0.66636588357E+01  0.46877703542E+02  0.14444365598E+03  0.15200622747E+03  0.00000000000E+00 0. -1.
        -13    1    3    3    0    0  0.11822012092E+02 -0.71238929934E+02  0.94614538961E+02  0.11902376272E+03  0.00000000000E+00 0. -1.
         13    1    3    3    0    0  0.17512947211E+02 -0.35649125181E+02 -0.17183581880E+02  0.43276309136E+02  0.00000000000E+00 0.  1.
         21    1    1    2  502  501 -0.72567152145E+02  0.61522210364E+02  0.70691044935E+03  0.71328350418E+03  0.00000000000E+00 0. -1.
<scales pt_clust_5="13000.00000" pt_clust_6="13000.00000" pt_clust_7="13000.00000" pt_clust_8="13000.00000" pt_clust_9="95.13661"></scales>
<clustering>
<clus scale="   86.595">  5  6 -1 -1</clus>
<clus scale="   89.778">  7  8 -1 -1</clus>
<clus scale="   95.137">  1  9  2 -1</clus>
<clus scale="  121.191">  1  5  2 -1</clus>
<clus scale="   95.137">  1  5  2 -1</clus>
</clustering>
</event>
<event>
 9    1  0.1234700E-005  0.2786670E+03  0.7546771E-02  0.1139108E+00
         -2   -1    0    0    0  501 -0.00000000000E+00  0.00000000000E+00  0.92299228852E+02  0.92299228852E+02  0.00000000000E+00 0.  1.
          2   -1    0    0  502    0  0.00000000000E+00 -0.00000000000E+00 -0.11847830412E+04  0.11847830412E+04  0.00000000000E+00 0. -1.
         23    2    1    2    0    0 -0.72990035587E+01 -0.31464557370E+02 -0.64839468248E+02  0.11531401384E+03  0.89721075125E+02 0.  0.
         23    2    1    2    0    0 -0.12490480352E+03  0.24456142008E+03 -0.58231912842E+03  0.65068835325E+03  0.94277609164E+02 0.  0.
        -13    1    4    4    0    0  0.99840181983E+01  0.26212432274E+02 -0.10571112851E+03  0.10936916804E+03  0.00000000000E+00 0. -1.
         13    1    4    4    0    0 -0.13488882172E+03  0.21834898780E+03 -0.47660799991E+03  0.54131918521E+03  0.00000000000E+00 0.  1.
        -13    1    3    3    0    0 -0.19912957171E+02  0.11659924267E+02 -0.66461350466E+02  0.70353328300E+02  0.00000000000E+00 0.  1.
         13    1    3    3    0    0  0.12613953612E+02 -0.43124481637E+02  0.16218822177E+01  0.44960685539E+02  0.00000000000E+00 0. -1.
         21    1    1    2  502  501  0.13220380708E+03 -0.21309686271E+03 -0.44532521569E+03  0.51107990298E+03  0.00000000000E+00 0. -1.
<scales pt_clust_5="13000.00000" pt_clust_6="13000.00000" pt_clust_7="13000.00000" pt_clust_8="13000.00000" pt_clust_9="262.23467"></scales>
<clustering>
<clus scale="   89.721">  7  8 -1 -1</clus>
<clus scale="   94.278">  5  6 -1 -1</clus>
<clus scale="   95.358">  1  7  2 -1</clus>
<clus scale="  262.235">  1  9  2 -1</clus>
<clus scale="  278.667">  2  5  1 -1</clus>
</clustering>
</event>
<event>
 9    1  0.1234700E-005  0.9516827E+02  0.7546771E-02  0.1293034E+00
         -2   -1    0    0    0  501 -0.00000000000E+00  0.00000000000E+00  0.72689506378E+02  0.72689506378E+02  0.00000000000E+00 0.  1.
          2   -1    0    0  502    0  0.00000000000E+00 -0.00000000000E+00 -0.44162779910E+03  0.44162779910E+03  0.00000000000E+00 0. -1.
         23    2    1    2    0    0 -0.51565960119E+02 -0.44563277116E+02 -0.19175066130E+03  0.22228103033E+03  0.89418154892E+02 0.  0.
         23    2    1    2    0    0  0.39537996484E+01  0.13787614144E+02 -0.20959970040E+03  0.22673235894E+03  0.85263106601E+02 0.  0.
        -13    1    3    3    0    0 -0.71579549167E+01  0.24161629437E+02 -0.79326726637E+02  0.83233107683E+02  0.00000000000E+00 0.  1.
         13    1    3    3    0    0 -0.44408005202E+02 -0.68724906553E+02 -0.11242393466E+03  0.13904792264E+03  0.00000000000E+00 0. -1.
        -13    1    4    4    0    0 -0.11583556377E+02 -0.28390718469E+02 -0.14388205358E+03  0.14711307561E+03  0.00000000000E+00 0. -1.
         13    1    4    4    0    0  0.15537356025E+02  0.42178332613E+02 -0.65717646826E+02  0.79619283334E+02  0.00000000000E+00 0.  1.
         21    1    1    2  502  501  0.47612160470E+02  0.30775662972E+02  0.32412068983E+02  0.65303916205E+02  0.00000000000E+00 0.  1.
<scales pt_clust_5="13000.00000" pt_clust_6="13000.00000" pt_clust_7="13000.00000" pt_clust_8="13000.00000" pt_clust_9="56.69267"></scales>
<clustering>
<clus scale="   56.693">  1  9  2 -1</clus>
<clus scale="   85.263">  7  8 -1 -1</clus>
<clus scale="   89.418">  5  6 -1 -1</clus>
<clus scale="   91.275">  2  7  1 -1</clus>
<clus scale="   91.275">  2  5  1 -1</clus>
</clustering>
</event>
<event>
 9    1  0.1234700E-005  0.1270866E+03  0.7546771E-02  0.1232544E+00
          1   -1    0    0  502    0  0.00000000000E+00  0.00000000000E+00  0.45621686653E+03  0.45621686653E+03  0.00000000000E+00 0. -1.
         -1   -1    0    0    0  501 -0.00000000000E+00 -0.00000000000E+00 -0.49598359249E+02  0.49598359249E+02  0.00000000000E+00 0.  1.
         23    2    1    2    0    0  0.31597714382E+02 -0.93411548546E+02  0.12313026676E+03  0.18323369826E+03  0.93216911724E+02 0.  0.
         23    2    1    2    0    0 -0.13976548398E+02  0.70306864281E+02  0.17115626543E+03  0.20655220125E+03  0.90724558830E+02 0.  0.
        -11    1    4    4    0    0 -0.38379528095E+02  0.22110259114E+02  0.13361851015E+03  0.14076845524E+03  0.00000000000E+00 0.  1.
         11    1    4    4    0    0  0.24402979697E+02  0.48196605167E+02  0.37537755272E+02  0.65783746006E+02  0.00000000000E+00 0. -1.
        -13    1    3    3    0    0  0.50255945264E+02 -0.14316538322E+02  0.64574547814E+02  0.83069221311E+02  0.00000000000E+00 0. -1.
         13    1    3    3    0    0 -0.18658230882E+02 -0.79095010224E+02  0.58555718945E+02  0.10016447695E+03  0.00000000000E+00 0.  1.
         21    1    1    2  502  501 -0.17621165984E+02  0.23104684265E+02  0.11233197510E+03  0.11602932627E+03  0.00000000000E+00 0. -1.
<scales pt_clust_5="13000.00000" pt_clust_6="13000.00000" pt_clust_7="13000.00000" pt_clust_8="13000.00000" pt_clust_9="29.05739"></scales>
<clustering>
<clus scale="   29.057">  1  9  2 -1</clus>
<clus scale="   90.725">  5  6 -1 -1</clus>
<clus scale="   93.217">  7  8 -1 -1</clus>
<clus scale="  125.270">  1  5  2 -1</clus>
<clus scale="   29.057">  1  5  2 -1</clus>
</clustering>
</event>
<event>
 9    1  0.1234700E-005  0.1504962E+03  0.7546771E-02  0.1199975E+00
         -1   -1    0    0    0  501 -0.00000000000E+00  0.00000000000E+00  0.12322634745E+03  0.12322634745E+03  0.00000000000E+00 0.  1.
          1   -1    0    0  502    0  0.00000000000E+00 -0.00000000000E+00 -0.77760499328E+03  0.77760499328E+03  0.00000000000E+00 0. -1.
         23    2    1    2    0    0 -0.10053974470E+03 -0.70870975505E+02  0.62212900702E+02  0.16429440717E+03  0.89393913544E+02 0.  0.
         23    2    1    2    0    0  0.91291111330E+02  0.35633765996E+02 -0.53215371982E+03  0.54853557698E+03  0.89999252286E+02 0.  0.
        -11    1    4    4    0    0  0.88608097536E+02  0.59953425194E+02 -0.46239987240E+03  0.47461505469E+03  0.00000000000E+00 0. -1.
         11    1    4    4    0    0  0.26830137942E+01 -0.24319659198E+02 -0.69753847416E+02  0.73920522291E+02  0.00000000000E+00 0.  1.
        -13    1    3    3    0    0 -0.44282469628E+02  0.12614707161E+02  0.17830823488E+00  0.46044540903E+02  0.00000000000E+00 0. -1.
         13    1    3    3    0    0 -0.56257275074E+02 -0.83485682666E+02  0.62034592467E+02  0.11824986626E+03  0.00000000000E+00 0.  1.
         21    1    1    2  502  501  0.92486333719E+01  0.35237209509E+02 -0.18443782672E+03  0.18800135658E+03  0.00000000000E+00 0.  1.
<scales pt_clust_5="13000.00000" pt_clust_6="13000.00000" pt_clust_7="13000.00000" pt_clust_8="13000.00000" pt_clust_9="36.43073"></scales>
<clustering>
<clus scale="   36.431">  2  9  1 -1</clus>
<clus scale="   89.394">  7  8 -1 -1</clus>
<clus scale="   89.999">  5  6 -1 -1</clus>
<clus scale="  150.135">  1  7  2 -1</clus>
<clus scale="   36.431">  2  5  1 -1</clus>
</clustering>
</event>
<event>
 9    1  0.1234700E-005  0.1234732E+03  0.7546771E-02  0.1237641E+00
          2   -1    0    0  502    0  0.00000000000E+00  0.00000000000E+00  0.59787827265E+02  0.59787827265E+02  0.00000000000E+00 0. -1.
         -2   -1    0    0    0  501 -0.00000000000E+00 -0.00000000000E+00 -0.31704787594E+03  0.31704787594E+03  0.00000000000E+00 0.  1.
         23    2    1    2    0    0  0.59072661723E+02 -0.40922144805E+02 -0.12488031176E+03  0.17112286632E+03  0.92324112841E+02 0.  0.
         23    2    1    2    0    0 -0.83097162481E+02  0.47422814205E+02 -0.11159370326E+03  0.17328608043E+03  0.91765185909E+02 0.  0.
        -11    1    3    3    0    0  0.29543273254E+02 -0.18025797809E+01 -0.11796787162E+03  0.12162431099E+03  0.00000000000E+00 0.  1.
         11    1    3    3    0    0  0.29529388469E+02 -0.39119565024E+02 -0.69124401431E+01  0.49498555330E+02  0.00000000000E+00 0. -1.
        -11    1    4    4    0    0 -0.67579406710E+02  0.71958724088E+02 -0.10375849147E+03  0.14321612597E+03  0.00000000000E+00 0.  1.
         11    1    4    4    0    0 -0.15517755770E+02 -0.24535909883E+02 -0.78352117878E+01  0.30069954468E+02  0.00000000000E+00 0. -1.
         21    1    1    2  502  501  0.24024500758E+02 -0.65006694003E+01 -0.20786033651E+02  0.32426756456E+02  0.00000000000E+00 0.  1.
<scales pt_clust_5="13000.00000" pt_clust_6="13000.00000" pt_clust_7="13000.00000" pt_clust_8="13000.00000" pt_clust_9="24.88846"></scales>
<clustering>
<clus scale="   24.888">  1  9  2 -1</clus>
<clus scale="   91.765">  7  8 -1 -1</clus>
<clus scale="   92.324">  5  6 -1 -1</clus>
<clus scale="  123.056">  1  7  2 -1</clus>
<clus scale="   24.888">  1  5  2 -1</clus>
</clustering>
</event>
<event>
 9    1  0.1234700E-005  0.1559045E+03  0.7546771E-02  0.1193663E+00
          2   -1    0    0  502    0  0.00000000000E+00  0.00000000000E+00  0.58753240420E+02  0.58753240420E+02  0.00000000000E+00 0. -1.
         -2   -1    0    0    0  501 -0.00000000000E+00 -0.00000000000E+00 -0.77923980764E+03  0.77923980764E+03  0.00000000000E+00 0.  1.
         23    2    1    2    0    0  0.62018997015E+02 -0.11076072420E+03 -0.60360047353E+03  0.62350381849E+03  0.91154736628E+02 0.  0.
         23    2    1    2    0    0 -0.40784756659E+02  0.11931309947E+03 -0.89201789710E+02  0.17856630133E+03  0.89610002809E+02 0.  0.
        -11    1    3    3    0    0  0.33400659125E+02 -0.11951822881E+03 -0.52313774099E+03  0.53765537949E+03  0.00000000000E+00 0.  1.
         11    1    3    3    0    0  0.28618337890E+02  0.87575046113E+01 -0.80462732540E+02  0.85848438998E+02  0.00000000000E+00 0. -1.
        -13    1    4    4    0    0 -0.21159855285E+02  0.36003647951E+02  0.14407793518E+02  0.44176766015E+02  0.00000000000E+00 0. -1.
         13    1    4    4    0    0 -0.19624901374E+02  0.83309451520E+02 -0.10360958323E+03  0.13438953532E+03  0.00000000000E+00 0.  1.
         21    1    1    2  502  501 -0.21234240356E+02 -0.85523752692E+01 -0.27684303981E+02  0.35922928237E+02  0.00000000000E+00 0.  1.
<scales pt_clust_5="13000.00000" pt_clust_6="13000.00000" pt_clust_7="13000.00000" pt_clust_8="13000.00000" pt_clust_9="22.89183"></scales>
<clustering>
<clus scale="   22.892">  1  9  2 -1</clus>
<clus scale="   89.610">  7  8 -1 -1</clus>
<clus scale="   91.155">  5  6 -1 -1</clus>
<clus scale="  155.006">  1  7  2 -1</clus>
<clus scale="   22.892">  1  5  2 -1</clus>
</clustering>
</event>
<event>
 9    1  0.1234700E-005  0.1025064E+03  0.7546771E-02  0.1276810E+00
         -2   -1    0    0    0  501 -0.00000000000E+00  0.00000000000E+00  0.26412018840E+03  0.26412018840E+03  0.00000000000E+00 0.  1.
          2   -1    0    0  502    0  0.00000000000E+00 -0.00000000000E+00 -0.59694592462E+02  0.59694592462E+02  0.00000000000E+00 0. -1.
         23    2    1    2    0    0  0.67116939890E+00  0.55168240388E+02  0.13538384333E+03  0.17353272956E+03  0.93492448765E+02 0.  0.
         23    2    1    2    0    0  0.24118941206E+01 -0.26630741681E+02  0.76047838641E+02  0.12073582727E+03  0.89882437596E+02 0.  0.
        -11    1    3    3    0    0  0.26014739327E+02  0.37104055958E+02  0.13500568741E+03  0.14240791152E+03  0.00000000000E+00 0.  1.
         11    1    3    3    0    0 -0.25343569928E+02  0.18064184430E+02  0.37815592240E+00  0.31124818035E+02  0.00000000000E+00 0. -1.
        -13    1    4    4    0    0  0.75113543942E+01  0.30490147945E+02  0.46803520974E+02  0.56361681505E+02  0.00000000000E+00 0.  1.
         13    1    4    4    0    0 -0.50994602736E+01 -0.57120889626E+02  0.29244317667E+02  0.64374145762E+02  0.00000000000E+00 0. -1.
         21    1    1    2  502  501 -0.30830635195E+01 -0.28537498707E+02 -0.70060860395E+01  0.29546224034E+02  0.00000000000E+00 0. -1.
<scales pt_clust_5="13000.00000" pt_clust_6="13000.00000" pt_clust_7="13000.00000" pt_clust_8="13000.00000" pt_clust_9="28.70356"></scales>
<clustering>
<clus scale="   28.704">  2  9  1 -1</clus>
<clus scale="   89.882">  7  8 -1 -1</clus>
<clus scale="   93.492">  5  6 -1 -1</clus>
<clus scale="   99.225">  2  7  1 -1</clus>
<clus scale="   28.704">  2  5  1 -1</clus>
</clustering>
</event>
<event>
 9    1  0.1234700E-005  0.1150394E+03  0.7546771E-02  0.1254763E+00
          1   -1    0    0  502    0  0.00000000000E+00  0.00000000000E+00  0.15741466432E+03  0.15741466432E+03  0.00000000000E+00 0. -1.
         -1   -1    0    0    0  501 -0.00000000000E+00 -0.00000000000E+00 -0.14468031222E+03  0.14468031222E+03  0.00000000000E+00 0.  1.
         23    2    1    2    0    0 -0.30085225968E+01  0.79104127518E+02 -0.48392493511E+02  0.12431936658E+03  0.82746342998E+02 0.  0.
         23    2    1    2    0    0 -0.53253860709E+01 -0.55628041818E+02 -0.44011541320E+01  0.10767211944E+03  0.91929736075E+02 0.  0.
        -11    1    3    3    0    0 -0.32001580364E+02  0.86444786845E+01  0.16061454410E+01  0.33187465415E+02  0.00000000000E+00 0. -1.
         11    1    3    3    0    0  0.28993057767E+02  0.70459648833E+02 -0.49998638952E+02  0.91131901162E+02  0.00000000000E+00 0.  1.
        -13    1    4    4    0    0  0.36333080190E+02 -0.46339392268E+02 -0.20061313329E+02  0.62208426152E+02  0.00000000000E+00 0.  1.
         13    1    4    4    0    0 -0.41658466261E+02 -0.92886495500E+01  0.15660159197E+02  0.45463693292E+02  0.00000000000E+00 0. -1.
         21    1    1    2  502  501  0.83339086677E+01 -0.23476085700E+02  0.65527999738E+02  0.70103490521E+02  0.00000000000E+00 0. -1.
<scales pt_clust_5="13000.00000" pt_clust_6="13000.00000" pt_clust_7="13000.00000" pt_clust_8="13000.00000" pt_clust_9="24.91146"></scales>
<clustering>
<clus scale="   24.911">  1  9  2 -1</clus>
<clus scale="   82.746">  5  6 -1 -1</clus>
<clus scale="   91.930">  7  8 -1 -1</clus>
<clus scale="  107.842">  2  5  1 -1</clus>
<clus scale="   24.911">  1  5  2 -1</clus>
</clustering>
</event>
<event>
 9    1  0.1234700E-005  0.1545907E+03  0.7546771E-02  0.1197012E+00
         -2   -1    0    0    0  501 -0.00000000000E+00  0.00000000000E+00  0.64073951962E+02  0.64073951962E+02  0.00000000000E+00 0.  1.
          2   -1    0    0  502    0  0.00000000000E+00 -0.00000000000E+00 -0.50820299915E+03  0.50820299915E+03  0.00000000000E+00 0. -1.
         23    2    1    2    0    0 -0.27725091232E+02 -0.11118893634E+03 -0.10039016935E+03  0.17395688687E+03  0.83971138731E+02 0.  0.
         23    2    1    2    0    0  0.55235514746E+02  0.12580800830E+03 -0.26229837224E+03  0.31112432685E+03  0.95494992742E+02 0.  0.
        -11    1    4    4    0    0  0.14129841179E+02  0.98292602419E+02 -0.23385327397E+03  0.25406385388E+03  0.00000000000E+00 0.  1.
         11    1    4    4    0    0  0.41105673566E+02  0.27515405879E+02 -0.28445098264E+02  0.57060472968E+02  0.00000000000E+00 0. -1.
        -13    1    3    3    0    0  0.22286174033E+02 -0.14712110173E+02 -0.10506772610E+01  0.26724963264E+02  0.00000000000E+00 0.  1.
         13    1    3    3    0    0 -0.50011265265E+02 -0.96476826164E+02 -0.99339492094E+02  0.14723192361E+03  0.00000000000E+00 0. -1.
         21    1    1    2  502  501 -0.27510423513E+02 -0.14619071962E+02 -0.81440505594E+02  0.87195737386E+02  0.00000000000E+00 0.  1.
<scales pt_clust_5="13000.00000" pt_clust_6="13000.00000" pt_clust_7="13000.00000" pt_clust_8="13000.00000" pt_clust_9="31.15350"></scales>
<clustering>
<clus scale="   31.154">  2  9  1 -1</clus>
<clus scale="   83.971">  7  8 -1 -1</clus>
<clus scale="   95.495">  5  6 -1 -1</clus>
<clus scale="  147.750">  1  7  2 -1</clus>
<clus scale="   31.154">  2  5  1 -1</clus>
</clustering>
</event>
<event>
 9    1  0.1234700E-005  0.1041751E+03  0.7546771E-02  0.1278692E+00
          1   -1    0    0  502    0  0.00000000000E+00  0.00000000000E+00  0.26691946923E+03  0.26691946923E+03  0.00000000000E+00 0. -1.
         -1   -1    0    0    0  501 -0.00000000000E+00 -0.00000000000E+00 -0.24306245347E+03  0.24306245347E+03  0.00000000000E+00 0.  1.
         23    2    1    2    0    0  0.70714099107E+01  0.67593643630E+01 -0.17323636036E+03  0.19575563416E+03  0.90629674563E+02 0.  0.
         23    2    1    2    0    0  0.62286988589E+02 -0.32036476660E+02  0.25871087343E+02  0.12776827176E+03  0.10367937752E+03 0.  0.
        -13    1    3    3    0    0 -0.37866438900E+02  0.21158350125E+02 -0.71902372580E+02  0.83973175227E+02  0.00000000000E+00 0. -1.
         13    1    3    3    0    0  0.44937848811E+02 -0.14398985762E+02 -0.10133398778E+03  0.11178245894E+03  0.00000000000E+00 0.  1.
        -13    1    4    4    0    0  0.45315248846E+02 -0.69179123901E+02  0.26762409942E+02  0.86922088951E+02  0.00000000000E+00 0.  1.
         13    1    4    4    0    0  0.16971739742E+02  0.37142647241E+02 -0.89132259953E+00  0.40846182807E+02  0.00000000000E+00 0. -1.
         21    1    1    2  502  501 -0.69358398499E+02  0.25277112296E+02  0.17122228877E+03  0.18645801678E+03  0.00000000000E+00 0. -1.
<scales pt_clust_5="13000.00000" pt_clust_6="13000.00000" pt_clust_7="13000.00000" pt_clust_8="13000.00000" pt_clust_9="73.82086"></scales>
<clustering>
<clus scale="   73.821">  1  9  2 -1</clus>
<clus scale="   90.630">  5  6 -1 -1</clus>
<clus scale="   91.196">  2  5  1 -1</clus>
<clus scale="  103.679">  7  8 -1 -1</clus>
<clus scale="   73.821">  1  5  2 -1</clus>
</clustering>
</event>
<event>
 9    1  0.1234700E-005  0.1634800E+03  0.7546771E-02  0.1187225E+00
         -1   -1    0    0    0  501 -0.00000000000E+00  0.00000000000E+00  0.39213669417E+03  0.39213669417E+03  0.00000000000E+00 0.  1.
          1   -1    0    0  502    0  0.00000000000E+00 -0.00000000000E+00 -0.22500632636E+03  0.22500632636E+03  0.00000000000E+00 0. -1.
         23    2    1    2    0    0 -0.12958401913E+03 -0.51920463775E+02  0.33814349783E+03  0.37704424149E+03  0.91288456794E+02 0.  0.
         23    2    1    2    0    0  0.90177392568E+02  0.45797422115E+02 -0.14697039417E+03  0.19353240703E+03  0.75000865359E+02 0.  0.
        -11    1    3    3    0    0 -0.54473649251E+02 -0.32541541148E+02  0.25728527133E+03  0.26499441731E+03  0.00000000000E+00 0. -1.
         11    1    3    3    0    0 -0.75110369878E+02 -0.19378922627E+02  0.80858226494E+02  0.11204982417E+03  0.00000000000E+00 0.  1.
        -13    1    4    4    0    0  0.37055017343E+02 -0.14851521672E+02 -0.24286404874E+02  0.46727630669E+02  0.00000000000E+00 0.  1.
         13    1    4    4    0    0  0.53122375225E+02  0.60648943787E+02 -0.12268398930E+03  0.14680477636E+03  0.00000000000E+00 0. -1.
         21    1    1    2  502  501  0.39406626561E+02  0.61230416604E+01 -0.24042735839E+02  0.46566372016E+02  0.00000000000E+00 0. -1.
<scales pt_clust_5="13000.00000" pt_clust_6="13000.00000" pt_clust_7="13000.00000" pt_clust_8="13000.00000" pt_clust_9="39.87949"></scales>
<clustering>
<clus scale="   39.879">  2  9  1 -1</clus>
<clus scale="   75.001">  7  8 -1 -1</clus>
<clus scale="   91.288">  5  6 -1 -1</clus>
<clus scale="  154.975">  2  7  1 -1</clus>
<clus scale="   39.879">  2  5  1 -1</clus>
</clustering>
</event>
<event>
 9    1  0.1234700E-005  0.2108064E+03  0.7546771E-02  0.1150532E+00
          1   -1    0    0  502    0  0.00000000000E+00  0.00000000000E+00  0.67922893659E+03  0.67922893659E+03  0.00000000000E+00 0. -1.
         -1   -1    0    0    0  501 -0.00000000000E+00 -0.00000000000E+00 -0.20708554904E+03  0.20708554904E+03  0.00000000000E+00 0.  1.
         23    2    1    2    0    0  0.42799241919E+02  0.13403448434E+03 -0.80335044811E+02  0.18587253544E+03  0.91092600705E+02 0.  0.
         23    2    1    2    0    0  0.12852354743E+03 -0.19185722993E+03  0.29447542119E+03  0.38538557138E+03  0.92080215155E+02 0.  0.
        -11    1    3    3    0    0 -0.23229981993E+02  0.19420355279E+02 -0.34453852388E+02  0.45867746914E+02  0.00000000000E+00 0.  1.
         11    1    3    3    0    0  0.66029223911E+02  0.11461412906E+03 -0.45881192423E+02  0.14000478852E+03  0.00000000000E+00 0. -1.
        -11    1    4    4    0    0  0.11611590497E+03 -0.92743441676E+02  0.18178946802E+03  0.23480132036E+03  0.00000000000E+00 0. -1.
         11    1    4    4    0    0  0.12407642466E+02 -0.99113788255E+02  0.11268595316E+03  0.15058425102E+03  0.00000000000E+00 0.  1.
         21    1    1    2  502  501 -0.17132278935E+03  0.57822745589E+02  0.25800301117E+03  0.31505637881E+03  0.00000000000E+00 0.  1.
<scales pt_clust_5="13000.00000" pt_clust_6="13000.00000" pt_clust_7="13000.00000" pt_clust_8="13000.00000" pt_clust_9="189.63270"></scales>
<clustering>
<clus scale="   91.093">  5  6 -1 -1</clus>
<clus scale="   92.080">  7  8 -1 -1</clus>
<clus scale="  167.615">  2  5  1 -1</clus>
<clus scale="  189.633">  1  9  2 -1</clus>
<clus scale="  189.633">  1  5  2 -1</clus>
</clustering>
</event>
<event>
 9    1  0.1234700E-005  0.1017827E+03  0.7546771E-02  0.1277190E+00
          1   -1    0    0  502    0  0.00000000000E+00  0.00000000000E+00  0.43360280898E+03  0.43360280898E+03  0.00000000000E+00 0. -1.
         -1   -1    0    0    0  501 -0.00000000000E+00 -0.00000000000E+00 -0.47457125667E+02  0.47457125667E+02  0.00000000000E+00 0.  1.
         23    2    1    2    0    0 -0.28654040140E+02  0.19603792610E+02  0.52069221776E+02  0.11059336151E+03  0.91182920835E+02 0.  0.
         23    2    1    2    0    0  0.69101494760E+02 -0.76502908370E+01  0.21508689189E+03  0.24422315559E+03  0.92460992509E+02 0.  0.
        -11    1    4    4    0    0 -0.16540512665E+01  0.33671620065E+02  0.60080509676E+02  0.68892536071E+02  0.00000000000E+00 0.  1.
         11    1    4    4    0    0  0.70755546026E+02 -0.41321910902E+02  0.15500638221E+03  0.17533061952E+03  0.00000000000E+00 0. -1.
        -13    1    3    3    0    0 -0.27916678682E+02  0.45150404856E+02  0.55385298068E+00  0.53086785177E+02  0.00000000000E+00 0.  1.
         13    1    3    3    0    0 -0.73736145770E+00 -0.25546612246E+02  0.51515368795E+02  0.57506576330E+02  0.00000000000E+00 0. -1.
         21    1    1    2  502  501 -0.40447454620E+02 -0.11953501773E+02  0.11898956965E+03  0.12624341756E+03  0.00000000000E+00 0. -1.
<scales pt_clust_5="13000.00000" pt_clust_6="13000.00000" pt_clust_7="13000.00000" pt_clust_8="13000.00000" pt_clust_9="42.17680"></scales>
<clustering>
<clus scale="   42.177">  1  9  2 -1</clus>
<clus scale="   91.183">  7  8 -1 -1</clus>
<clus scale="   92.461">  5  6 -1 -1</clus>
<clus scale="  100.623">  2  7  1 -1</clus>
<clus scale="   42.177">  1  5  2 -1</clus>
</clustering>
</event>
<event>
 9    1  0.1234700E-005  0.1120899E+03  0.7546771E-02  0.1258643E+00
         -1   -1    0    0    0  501 -0.00000000000E+00  0.00000000000E+00  0.73378764418E+02  0.73378764418E+02  0.00000000000E+00 0.  1.
          1   -1    0    0  502    0  0.00000000000E+00 -0.00000000000E+00 -0.28523930238E+03  0.28523930238E+03  0.00000000000E+00 0. -1.
         23    2    1    2    0    0  0.50602079713E+02 -0.35725331591E+01 -0.70013848349E+01  0.11018739264E+03  0.97564894524E+02 0.  0.
         23    2    1    2    0    0 -0.69039577551E+02  0.16643732867E+02 -0.18196526940E+03  0.21626038506E+03  0.92810116722E+02 0.  0.
        -13    1    4    4    0    0 -0.32474885157E+02 -0.22172598588E+02 -0.16909176888E+02  0.42803768025E+02  0.00000000000E+00 0.  1.
         13    1    4    4    0    0 -0.36564692394E+02  0.38816331455E+02 -0.16505609251E+03  0.17345661704E+03  0.00000000000E+00 0. -1.
        -13    1    3    3    0    0  0.50310601703E+02 -0.40682687190E+02  0.15837703066E+02  0.66611339268E+02  0.00000000000E+00 0.  1.
         13    1    3    3    0    0  0.29147800967E+00  0.37110154030E+02 -0.22839087901E+02  0.43576053375E+02  0.00000000000E+00 0. -1.
         21    1    1    2  502  501  0.18437497838E+02 -0.13071199708E+02 -0.22893883728E+02  0.32170289096E+02  0.00000000000E+00 0.  1.
<scales pt_clust_5="13000.00000" pt_clust_6="13000.00000" pt_clust_7="13000.00000" pt_clust_8="13000.00000" pt_clust_9="22.60083"></scales>
<clustering>
<clus scale="   22.601">  2  9  1 -1</clus>
<clus scale="   92.810">  5  6 -1 -1</clus>
<clus scale="   97.565">  7  8 -1 -1</clus>
<clus scale="  107.977">  2  5  1 -1</clus>
<clus scale="   22.601">  2  5  1 -1</clus>
</clustering>
</event>
<event>
 9    1  0.1234700E-005  0.1082828E+03  0.7546771E-02  0.1265537E+00
          1   -1    0    0  502    0  0.00000000000E+00  0.00000000000E+00  0.55381213836E+03  0.55381213836E+03  0.00000000000E+00 0. -1.
         -1   -1    0    0    0  501 -0.00000000000E+00 -0.00000000000E+00 -0.16463156919E+03  0.16463156919E+03  0.00000000000E+00 0.  1.
         23    2    1    2    0    0  0.22804541105E+01  0.46703627256E+02 -0.92176475030E+02  0.13701035620E+03  0.89938344924E+02 0.  0.
         23    2    1    2    0    0 -0.74468259816E+02 -0.73650970278E+02  0.59990641751E+02  0.15307966139E+03  0.94151571904E+02 0.  0.
        -11    1    4    4    0    0 -0.29238233024E+02 -0.26114358760E-01 -0.19924564809E+02  0.35381679372E+02  0.00000000000E+00 0.  1.
         11    1    4    4    0    0 -0.45230026791E+02 -0.73624855919E+02  0.79915206559E+02  0.11769798202E+03  0.00000000000E+00 0. -1.
        -11    1    3    3    0    0  0.45617900439E+02  0.17214838846E+02 -0.48623139527E+02  0.68858937070E+02  0.00000000000E+00 0.  1.
         11    1    3    3    0    0 -0.43337446329E+02  0.29488788410E+02 -0.43553335503E+02  0.68151419131E+02  0.00000000000E+00 0. -1.
         21    1    1    2  502  501  0.72187805705E+02  0.26947343022E+02  0.42136640244E+03  0.42835368995E+03  0.00000000000E+00 0.  1.
<scales pt_clust_5="13000.00000" pt_clust_6="13000.00000" pt_clust_7="13000.00000" pt_clust_8="13000.00000" pt_clust_9="77.05348"></scales>
<clustering>
<clus scale="   77.053">  1  9  2 -1</clus>
<clus scale="   89.938">  7  8 -1 -1</clus>
<clus scale="   94.152">  5  6 -1 -1</clus>
<clus scale="  104.640">  2  7  1 -1</clus>
<clus scale="   77.053">  1  5  2 -1</clus>
</clustering>
</event>
<event>
 9    1  0.1234700E-005  0.1102341E+03  0.7546771E-02  0.1260816E+00
         -2   -1    0    0    0  501 -0.00000000000E+00  0.00000000000E+00  0.20538964582E+03  0.20538964582E+03  0.00000000000E+00 0.  1.
          2   -1    0    0  502    0  0.00000000000E+00 -0.00000000000E+00 -0.10389682823E+03  0.10389682823E+03  0.00000000000E+00 0. -1.
         23    2    1    2    0    0  0.20911321761E+02  0.37620101203E+02  0.72793456269E+02  0.12546928893E+03  0.92688185850E+02 0.  0.
         23    2    1    2    0    0 -0.79809194248E+01 -0.83500728253E+02  0.44042326958E+02  0.13374090494E+03  0.94397226632E+02 0.  0.
        -11    1    3    3    0    0  0.16890201013E+02 -0.29885061761E+02  0.28642005201E+02  0.44707496784E+02  0.00000000000E+00 0.  1.
         11    1    3    3    0    0  0.40211207473E+01  0.67505162964E+02  0.44151451068E+02  0.80761792144E+02  0.00000000000E+00 0. -1.
        -11    1    4    4    0    0  0.39770491457E+02 -0.47806341879E+02  0.48092667414E+01  0.62372007833E+02  0.00000000000E+00 0.  1.
         11    1    4    4    0    0 -0.47751410882E+02 -0.35694386374E+02  0.39233060217E+02  0.71368897104E+02  0.00000000000E+00 0. -1.
         21    1    1    2  502  501 -0.12930402336E+02  0.45880627050E+02 -0.15342965639E+02  0.50076280190E+02  0.00000000000E+00 0. -1.
<scales pt_clust_5="13000.00000" pt_clust_6="13000.00000" pt_clust_7="13000.00000" pt_clust_8="13000.00000" pt_clust_9="47.66788"></scales>
<clustering>
<clus scale="   47.668">  2  9  1 -1</clus>
<clus scale="   92.688">  5  6 -1 -1</clus>
<clus scale="   94.397">  7  8 -1 -1</clus>
<clus scale="  108.774">  1  5  2 -1</clus>
<clus scale="   47.668">  2  5  1 -1</clus>
</clustering>
</event>
<event>
 9    1  0.1234700E-005  0.1027282E+03  0.7546771E-02  0.1276979E+00
          1   -1    0    0  502    0  0.00000000000E+00  0.00000000000E+00  0.70235068354E+03  0.70235068354E+03  0.00000000000E+00 0. -1.
         -1   -1    0    0    0  501 -0.00000000000E+00 -0.00000000000E+00 -0.22861914979E+02  0.22861914979E+02  0.00000000000E+00 0.  1.
         23    2    1    2    0    0 -0.13180251408E+02 -0.37131753292E+02  0.14143908233E+03  0.17133687909E+03  0.88310961924E+02 0.  0.
         23    2    1    2    0    0  0.65334398101E-01  0.55636889183E+02  0.43333926151E+03  0.44673695825E+03  0.93249807459E+02 0.  0.
        -13    1    3    3    0    0  0.31993136024E+02 -0.41943757632E+01  0.20845598301E+02  0.38414743383E+02  0.00000000000E+00 0.  1.
         13    1    3    3    0    0 -0.45173387432E+02 -0.32937377529E+02  0.12059348403E+03  0.13292213570E+03  0.00000000000E+00 0. -1.
        -13    1    4    4    0    0  0.22790950117E+02 -0.19410225459E+02  0.10694138242E+03  0.11105243597E+03  0.00000000000E+00 0.  1.
         13    1    4    4    0    0 -0.22725615719E+02  0.75047114643E+02  0.32639787908E+03  0.33568452228E+03  0.00000000000E+00 0. -1.
         21    1    1    2  502  501  0.13114917010E+02 -0.18505135891E+02  0.10471042472E+03  0.10713876118E+03  0.00000000000E+00 0.  1.
<scales pt_clust_5="13000.00000" pt_clust_6="13000.00000" pt_clust_7="13000.00000" pt_clust_8="13000.00000" pt_clust_9="22.68129"></scales>
<clustering>
<clus scale="   22.681">  1  9  2 -1</clus>
<clus scale="   88.311">  5  6 -1 -1</clus>
<clus scale="   93.250">  7  8 -1 -1</clus>
<clus scale="   98.267">  2  5  1 -1</clus>
<clus scale="   22.681">  1  5  2 -1</clus>
</clustering>
</event>
<event>
 9    1  0.1234700E-005  0.9661749E+02  0.7546771E-02  0.1290236E+00
         -2   -1    0    0    0  501 -0.00000000000E+00  0.00000000000E+00  0.57566114580E+02  0.57566114580E+02  0.00000000000E+00 0.  1.
          2   -1    0    0  502    0  0.00000000000E+00 -0.00000000000E+00 -0.28540976602E+03  0.28540976602E+03  0.00000000000E+00 0. -1.
         23    2    1    2    0    0 -0.10540971190E+02  0.29805473299E+02 -0.33146686833E+02  0.10298232618E+03  0.92234366396E+02 0.  0.
         23    2    1    2    0    0  0.25538263916E+02 -0.14273614543E+02 -0.76089750317E+02  0.11943722441E+03  0.87290672325E+02 0.  0.
        -11    1    4    4    0    0  0.32718341640E+02  0.27943330523E+02 -0.16557176949E+02  0.46102708260E+02  0.00000000000E+00 0.  1.
         11    1    4    4    0    0 -0.71800777234E+01 -0.42216945067E+02 -0.59532573368E+02  0.73334516148E+02  0.00000000000E+00 0. -1.
        -11    1    3    3    0    0  0.47236913219E+01  0.61833504567E+02 -0.20418437204E+02  0.65288652342E+02  0.00000000000E+00 0.  1.
         11    1    3    3    0    0 -0.15264662512E+02 -0.32028031268E+02 -0.12728249630E+02  0.37693673835E+02  0.00000000000E+00 0. -1.
         21    1    1    2  502  501 -0.14997292726E+02 -0.15531858756E+02 -0.11860721429E+03  0.12055633001E+03  0.00000000000E+00 0. -1.
<scales pt_clust_5="13000.00000" pt_clust_6="13000.00000" pt_clust_7="13000.00000" pt_clust_8="13000.00000" pt_clust_9="21.59068"></scales>
<clustering>
<clus scale="   21.591">  2  9  1 -1</clus>
<clus scale="   87.291">  5  6 -1 -1</clus>
<clus scale="   91.910">  2  5  1 -1</clus>
<clus scale="   92.234">  7  8 -1 -1</clus>
<clus scale="   21.591">  2  5  1 -1</clus>
</clustering>
</event>
<event>
 9    1  0.1234700E-005  0.1019596E+03  0.7546771E-02  0.1286041E+00
         -3   -1    0    0    0  501 -0.00000000000E+00  0.00000000000E+00  0.19120586816E+03  0.19120586816E+03  0.00000000000E+00 0.  1.
          3   -1    0    0  502    0  0.00000000000E+00 -0.00000000000E+00 -0.76269088127E+02  0.76269088127E+02  0.00000000000E+00 0. -1.
         23    2    1    2    0    0 -0.26616046130E+02  0.14394297612E+01  0.73229414077E+02  0.11326108482E+03  0.82189052670E+02 0.  0.
         23    2    1    2    0    0  0.66642348096E+01 -0.18067025979E+02  0.63787649977E+02  0.12012442041E+03  0.99950901131E+02 0.  0.
        -11    1    3    3    0    0 -0.53937838360E+02 -0.12765309918E+02  0.43513409984E+02  0.70467442076E+02  0.00000000000E+00 0.  1.
         11    1    3    3    0    0  0.27321792231E+02  0.14204739679E+02  0.29716004092E+02  0.42793642743E+02  0.00000000000E+00 0. -1.
        -13    1    4    4    0    0  0.29252507121E+02 -0.39832528560E+02  0.72341605811E+02  0.87610772372E+02  0.00000000000E+00 0.  1.
         13    1    4    4    0    0 -0.22588272311E+02  0.21765502581E+02 -0.85539558334E+01  0.32513648042E+02  0.00000000000E+00 0. -1.
         21    1    1    2  502  501  0.19951811320E+02  0.16627596218E+02 -0.22080284018E+02  0.34089451055E+02  0.00000000000E+00 0. -1.
<scales pt_clust_5="13000.00000" pt_clust_6="13000.00000" pt_clust_7="13000.00000" pt_clust_8="13000.00000" pt_clust_9="25.97213"></scales>
<clustering>
<clus scale="   25.972">  2  9  1 -1</clus>
<clus scale="   82.189">  5  6 -1 -1</clus>
<clus scale="   84.620">  1  5  2 -1</clus>
<clus scale="   99.951">  7  8 -1 -1</clus>
<clus scale="   25.972">  2  5  1 -1</clus>
</clustering>
</event>
<event>
 9    1  0.1234700E-005  0.1129661E+03  0.7546771E-02  0.1256041E+00
         -1   -1    0    0    0  501 -0.00000000000E+00  0.00000000000E+00  0.12918431007E+03  0.12918431007E+03  0.00000000000E+00 0.  1.
          1   -1    0    0  502    0  0.00000000000E+00 -0.00000000000E+00 -0.21870065472E+03  0.21870065472E+03  0.00000000000E+00 0. -1.
         23    2    1    2    0    0 -0.41331797642E+01 -0.45657552911E+02  0.27623828563E+01  0.10149386615E+03  0.90507893551E+02 0.  0.
         23    2    1    2    0    0 -0.22057557601E+02  0.11918940285E+03 -0.68762427128E+02  0.16486868416E+03  0.88095187359E+02 0.  0.
        -13    1    4    4    0    0 -0.24212146892E+02  0.43876396737E+02 -0.73967640543E+02  0.89345274610E+02  0.00000000000E+00 0.  1.
         13    1    4    4    0    0  0.21545892912E+01  0.75313006108E+02  0.52052134145E+01  0.75523409555E+02  0.00000000000E+00 0. -1.
        -13    1    3    3    0    0  0.40097221405E+02 -0.16152270197E+02 -0.14496685674E+02  0.45594263811E+02  0.00000000000E+00 0. -1.
         13    1    3    3    0    0 -0.44230401169E+02 -0.29505282714E+02  0.17259068530E+02  0.55899602343E+02  0.00000000000E+00 0.  1.
         21    1    1    2  502  501  0.26190737365E+02 -0.73531849934E+02 -0.23516300371E+02  0.81522414474E+02  0.00000000000E+00 0.  1.
<scales pt_clust_5="13000.00000" pt_clust_6="13000.00000" pt_clust_7="13000.00000" pt_clust_8="13000.00000" pt_clust_9="78.05695"></scales>
<clustering>
<clus scale="   78.057">  2  9  1 -1</clus>
<clus scale="   88.095">  5  6 -1 -1</clus>
<clus scale="   90.508">  7  8 -1 -1</clus>
<clus scale="  111.042">  2  5  1 -1</clus>
<clus scale="   78.057">  2  5  1 -1</clus>
</clustering>
</event>
<event>
 9    1  0.1234700E-005  0.9167332E+02  0.7546771E-02  0.1299559E+00
         -2   -1    0    0    0  501 -0.00000000000E+00  0.00000000000E+00  0.31126826674E+02  0.31126826674E+02  0.00000000000E+00 0.  1.
          2   -1    0    0  502    0  0.00000000000E+00 -0.00000000000E+00 -0.48388937331E+03  0.48388937331E+03  0.00000000000E+00 0. -1.
         23    2    1    2    0    0  0.17286678677E+02  0.19129923358E+02 -0.10955309590E+03  0.14482501356E+03  0.91146149156E+02 0.  0.
         23    2    1    2    0    0  0.10027731727E+02  0.18368004862E+02 -0.22793476934E+03  0.24593168453E+03  0.89945513391E+02 0.  0.
        -11    1    3    3    0    0 -0.98709822427E+01 -0.25887625955E+02 -0.79672118136E+02  0.84351952415E+02  0.00000000000E+00 0.  1.
         11    1    3    3    0    0  0.27157660920E+02  0.45017549313E+02 -0.29880977760E+02  0.60473061149E+02  0.00000000000E+00 0. -1.
        -13    1    4    4    0    0  0.29354803566E+02  0.35941832360E+02 -0.20788584088E+03  0.21300244751E+03  0.00000000000E+00 0. -1.
         13    1    4    4    0    0 -0.19327071839E+02 -0.17573827498E+02 -0.20048928451E+02  0.32929237022E+02  0.00000000000E+00 0.  1.
         21    1    1    2  502  501 -0.27314410403E+02 -0.37497928220E+02 -0.11527468140E+03  0.12425950189E+03  0.00000000000E+00 0.  1.
<scales pt_clust_5="13000.00000" pt_clust_6="13000.00000" pt_clust_7="13000.00000" pt_clust_8="13000.00000" pt_clust_9="46.39150"></scales>
<clustering>
<clus scale="   46.392">  2  9  1 -1</clus>
<clus scale="   89.946">  7  8 -1 -1</clus>
<clus scale="   90.480">  2  7  1 -1</clus>
<clus scale="   91.146">  5  6 -1 -1</clus>
<clus scale="   46.392">  2  5  1 -1</clus>
</clustering>
</event>
<event>
 9    1  0.1234700E-005  0.1227062E+03  0.7546771E-02  0.1238999E+00
         -1   -1    0    0    0  501 -0.00000000000E+00  0.00000000000E+00  0.38296742542E+02  0.38296742542E+02  0.00000000000E+00 0.  1.
          1   -1    0    0  502    0  0.00000000000E+00 -0.00000000000E+00 -0.63978251374E+03  0.63978251374E+03  0.00000000000E+00 0. -1.
         23    2    1    2    0    0 -0.83177973484E+02  0.29665975175E+02 -0.16599088398E+03  0.20915997164E+03  0.91631189107E+02 0.  0.
         23    2    1    2    0    0  0.76528053224E+02  0.21827725028E+02 -0.32978410891E+03  0.35114581033E+03  0.90624660627E+02 0.  0.
        -11    1    4    4    0    0  0.48048078980E+02  0.35442720028E+02 -0.30560480510E+03  0.31138256405E+03  0.00000000000E+00 0. -1.
         11    1    4    4    0    0  0.28479974245E+02 -0.13614995000E+02 -0.24179303810E+02  0.39763246278E+02  0.00000000000E+00 0.  1.
        -11    1    3    3    0    0 -0.44128181127E+02  0.57880611255E+02 -0.13013170736E+03  0.14910306096E+03  0.00000000000E+00 0.  1.
         11    1    3    3    0    0 -0.39049792357E+02 -0.28214636080E+02 -0.35859176620E+02  0.60056910677E+02  0.00000000000E+00 0. -1.
         21    1    1    2  502  501  0.66499202599E+01 -0.51493700203E+02 -0.10571077831E+03  0.11777347431E+03  0.00000000000E+00 0. -1.
<scales pt_clust_5="13000.00000" pt_clust_6="13000.00000" pt_clust_7="13000.00000" pt_clust_8="13000.00000" pt_clust_9="51.92131"></scales>
<clustering>
<clus scale="   51.921">  2  9  1 -1</clus>
<clus scale="   90.625">  5  6 -1 -1</clus>
<clus scale="   91.631">  7  8 -1 -1</clus>
<clus scale="  121.956">  2  5  1 -1</clus>
<clus scale="   51.921">  2  5  1 -1</clus>
</clustering>
</event>
<event>
 9    1  0.1234700E-005  0.1015634E+03  0.7546771E-02  0.1281139E+00
         -1   -1    0    0    0  501 -0.00000000000E+00  0.00000000000E+00  0.67757217622E+02  0.67757217622E+02  0.00000000000E+00 0.  1.
          1   -1    0    0  502    0  0.00000000000E+00 -0.00000000000E+00 -0.40663889886E+03  0.40663889886E+03  0.00000000000E+00 0. -1.
         23    2    1    2    0    0 -0.24020307860E+02  0.79632996071E+01  0.59288452253E+01  0.94173817690E+02  0.90516116809E+02 0.  0.
         23    2    1    2    0    0  0.46624953639E+02 -0.14247295553E+02 -0.34377786266E+03  0.35673772917E+03  0.81864014210E+02 0.  0.
        -11    1    3    3    0    0 -0.47587919115E+02 -0.21651308665E+02 -0.97919302852E+01  0.53190893124E+02  0.00000000000E+00 0.  1.
         11    1    3    3    0    0  0.23567611255E+02  0.29614608272E+02  0.15720775510E+02  0.40982924566E+02  0.00000000000E+00 0. -1.
        -13    1    4    4    0    0 -0.16216653053E+02 -0.26025346194E+02 -0.13225110115E+03  0.13575953828E+03  0.00000000000E+00 0. -1.
         13    1    4    4    0    0  0.62841606692E+02  0.11778050642E+02 -0.21152676152E+03  0.22097819089E+03  0.00000000000E+00 0.  1.
         21    1    1    2  502  501 -0.22604645779E+02  0.62839959457E+01 -0.10326637992E+01  0.23484569622E+02  0.00000000000E+00 0.  1.
<scales pt_clust_5="13000.00000" pt_clust_6="13000.00000" pt_clust_7="13000.00000" pt_clust_8="13000.00000" pt_clust_9="23.46185"></scales>
<clustering>
<clus scale="   23.462">  1  9  2 -1</clus>
<clus scale="   81.864">  7  8 -1 -1</clus>
<clus scale="   90.516">  5  6 -1 -1</clus>
<clus scale="   93.934">  2  7  1 -1</clus>
<clus scale="   93.934">  2  5  1 -1</clus>
</clustering>
</event>
<event>
 9    1  0.1234700E-005  0.9681783E+02  0.7546771E-02  0.1288500E+00
         -1   -1    0    0    0  501 -0.00000000000E+00  0.00000000000E+00  0.79952860356E+03  0.79952860356E+03  0.00000000000E+00 0.  1.
          1   -1    0    0  502    0  0.00000000000E+00 -0.00000000000E+00 -0.16557401153E+02  0.16557401153E+02  0.00000000000E+00 0. -1.
         23    2    1    2    0    0 -0.15795016027E+02 -0.74230730322E+01  0.31682083657E+03  0.32979986276E+03  0.89932877470E+02 0.  0.
         23    2    1    2    0    0  0.14836542589E+02  0.42703536424E+02  0.35899069814E+03  0.37346405125E+03  0.92506006324E+02 0.  0.
        -11    1    3    3    0    0 -0.21902449712E+02 -0.44487905086E+02  0.12780881225E+03  0.13709115030E+03  0.00000000000E+00 0. -1.
         11    1    3    3    0    0  0.61074336846E+01  0.37064832054E+02  0.18901202432E+03  0.19270871247E+03  0.00000000000E+00 0.  1.
        -11    1    4    4    0    0  0.50758827778E+02  0.12626825918E+02  0.23887572520E+03  0.24453528870E+03  0.00000000000E+00 0.  1.
         11    1    4    4    0    0 -0.35922285189E+02  0.30076710506E+02  0.12011497294E+03  0.12892876255E+03  0.00000000000E+00 0. -1.
         21    1    1    2  502  501  0.95847343838E+00 -0.35280463392E+02  0.10715966770E+03  0.11282209070E+03  0.00000000000E+00 0. -1.
<scales pt_clust_5="13000.00000" pt_clust_6="13000.00000" pt_clust_7="13000.00000" pt_clust_8="13000.00000" pt_clust_9="35.29348"></scales>
<clustering>
<clus scale="   35.293">  2  9  1 -1</clus>
<clus scale="   89.933">  5  6 -1 -1</clus>
<clus scale="   92.506">  7  8 -1 -1</clus>
<clus scale="   94.362">  1  5  2 -1</clus>
<clus scale="   35.293">  2  5  1 -1</clus>
</clustering>
</event>
<event>
 9    1  0.1234700E-005  0.1040453E+03  0.7546771E-02  0.1275084E+00
          1   -1    0    0  502    0  0.00000000000E+00  0.00000000000E+00  0.14451730683E+03  0.14451730683E+03  0.00000000000E+00 0. -1.
         -1   -1    0    0    0  501 -0.00000000000E+00 -0.00000000000E+00 -0.25611862173E+03  0.25611862173E+03  0.00000000000E+00 0.  1.
         23    2    1    2    0    0 -0.35908900036E+02 -0.65291474338E+01 -0.21319934284E+03  0.23705832997E+03  0.97008314872E+02 0.  0.
         23    2    1    2    0    0  0.42614937378E+02  0.29417660292E+02  0.83678818556E+02  0.13374551816E+03  0.90577521093E+02 0.  0.
        -13    1    3    3    0    0  0.33621314137E+02 -0.12982535448E+01 -0.61516990436E+02  0.70117175777E+02  0.00000000000E+00 0.  1.
         13    1    3    3    0    0 -0.69530214173E+02 -0.52308938890E+01 -0.15168235240E+03  0.16694115420E+03  0.00000000000E+00 0. -1.
        -13    1    4    4    0    0 -0.11185819861E+02 -0.19753828084E+02  0.46901526226E+02  0.52106520247E+02  0.00000000000E+00 0. -1.
         13    1    4    4    0    0  0.53800757239E+02  0.49171488376E+02  0.36777292330E+02  0.81638997910E+02  0.00000000000E+00 0.  1.
         21    1    1    2  502  501 -0.67060373417E+01 -0.22888512858E+02  0.17919209382E+02  0.29832080426E+02  0.00000000000E+00 0. -1.
<scales pt_clust_5="13000.00000" pt_clust_6="13000.00000" pt_clust_7="13000.00000" pt_clust_8="13000.00000" pt_clust_9="23.85068"></scales>
<clustering>
<clus scale="   23.851">  1  9  2 -1</clus>
<clus scale="   90.578">  7  8 -1 -1</clus>
<clus scale="   97.008">  5  6 -1 -1</clus>
<clus scale="   98.077">  1  7  2 -1</clus>
<clus scale="   23.851">  1  5  2 -1</clus>
</clustering>
</event>
<event>
 9    1  0.1234700E-005  0.9887988E+02  0.7546771E-02  0.1283316E+00
          1   -1    0    0  502    0  0.00000000000E+00  0.00000000000E+00  0.30940435872E+03  0.30940435872E+03  0.00000000000E+00 0. -1.
         -1   -1    0    0    0  501 -0.00000000000E+00 -0.00000000000E+00 -0.10472294962E+03  0.10472294962E+03  0.00000000000E+00 0.  1.
         23    2    1    2    0    0  0.67798228388E+02 -0.51998099789E+02 -0.26083209885E+02  0.12604803004E+03  0.88923393348E+02 0.  0.
         23    2    1    2    0    0 -0.13759403631E+02  0.32266306950E+02  0.20145552038E+03  0.22351488029E+03  0.90244884999E+02 0.  0.
        -11    1    4    4    0    0  0.11521168531E+02  0.48250813288E+02  0.55128235830E+02  0.74161989544E+02  0.00000000000E+00 0.  1.
         11    1    4    4    0    0 -0.25280572162E+02 -0.15984506338E+02  0.14632728455E+03  0.14935289075E+03  0.00000000000E+00 0. -1.
        -13    1    3    3    0    0 -0.21878774272E+02 -0.13022465465E+02 -0.72141834847E+01  0.26463367393E+02  0.00000000000E+00 0. -1.
         13    1    3    3    0    0  0.89677002660E+02 -0.38975634324E+02 -0.18869026400E+02  0.99584662646E+02  0.00000000000E+00 0.  1.
         21    1    1    2  502  501 -0.54038824757E+02  0.19731792839E+02  0.29309098596E+02  0.64564398009E+02  0.00000000000E+00 0. -1.
<scales pt_clust_5="13000.00000" pt_clust_6="13000.00000" pt_clust_7="13000.00000" pt_clust_8="13000.00000" pt_clust_9="57.52859"></scales>
<clustering>
<clus scale="   57.529">  2  9  1 -1</clus>
<clus scale="   88.923">  7  8 -1 -1</clus>
<clus scale="   90.245">  5  6 -1 -1</clus>
<clus scale="   97.675">  2  7  1 -1</clus>
<clus scale="   98.880">  1  5  2 -1</clus>
</clustering>
</event>
<event>
 9    1  0.1234700E-005  0.1123279E+03  0.7546771E-02  0.1257335E+00
          1   -1    0    0  502    0  0.00000000000E+00  0.00000000000E+00  0.33945800930E+03  0.33945800930E+03  0.00000000000E+00 0. -1.
         -1   -1    0    0    0  501 -0.00000000000E+00 -0.00000000000E+00 -0.96517545213E+02  0.96517545213E+02  0.00000000000E+00 0.  1.
         23    2    1    2    0    0  0.35555970623E+02  0.51200521253E+02 -0.44438453324E+02  0.11944809632E+03  0.91691608983E+02 0.  0.
         23    2    1    2    0    0 -0.12360843634E+02 -0.53522397153E+02  0.24283408026E+03  0.26625174297E+03  0.94361870731E+02 0.  0.
        -13    1    4    4    0    0  0.38539862796E+02 -0.40902053135E+02  0.11229203371E+03  0.12556990010E+03  0.00000000000E+00 0.  1.
         13    1    4    4    0    0 -0.50900706430E+02 -0.12620344019E+02  0.13054204655E+03  0.14068184288E+03  0.00000000000E+00 0. -1.
        -13    1    3    3    0    0  0.56969488563E+02  0.10006957241E+02 -0.44569270428E+02  0.73021104393E+02  0.00000000000E+00 0.  1.
         13    1    3    3    0    0 -0.21413517940E+02  0.41193564012E+02  0.13081710412E+00  0.46426991930E+02  0.00000000000E+00 0. -1.
         21    1    1    2  502  501 -0.23195126990E+02  0.23218759005E+01  0.44544837154E+02  0.50275715220E+02  0.00000000000E+00 0. -1.
<scales pt_clust_5="13000.00000" pt_clust_6="13000.00000" pt_clust_7="13000.00000" pt_clust_8="13000.00000" pt_clust_9="23.31105"></scales>
<clustering>
<clus scale="   23.311">  1  9  2 -1</clus>
<clus scale="   91.692">  7  8 -1 -1</clus>
<clus scale="   94.362">  5  6 -1 -1</clus>
<clus scale="  110.094">  2  7  1 -1</clus>
<clus scale="   23.311">  1  5  2 -1</clus>
</clustering>
</event>
<event>
 9    1  0.1234700E-005  0.1020727E+03  0.7546771E-02  0.1276957E+00
          2   -1    0    0  502    0  0.00000000000E+00  0.00000000000E+00  0.17126702875E+03  0.17126702875E+03  0.00000000000E+00 0. -1.
         -2   -1    0    0    0  501 -0.00000000000E+00 -0.00000000000E+00 -0.14089512946E+03  0.14089512946E+03  0.00000000000E+00 0.  1.
         23    2    1    2    0    0  0.35128688260E+02  0.22992925425E+02 -0.88413382007E+02  0.13500093610E+03  0.92981865287E+02 0.  0.
         23    2    1    2    0    0 -0.46817389411E+02 -0.42906870131E+01  0.71153403224E+02  0.12467126816E+03  0.90938662665E+02 0.  0.
        -13    1    4    4    0    0 -0.27549531549E+02  0.13106490713E+02 -0.15494952615E+02  0.34217690511E+02  0.00000000000E+00 0.  1.
         13    1    4    4    0    0 -0.19267857862E+02 -0.17397177726E+02  0.86648355839E+02  0.90453577646E+02  0.00000000000E+00 0. -1.
        -13    1    3    3    0    0  0.59342625132E+02  0.21780118836E+02 -0.90802602530E+02  0.11063920354E+03  0.00000000000E+00 0.  1.
         13    1    3    3    0    0 -0.24213936873E+02  0.12128065885E+01  0.23892205229E+01  0.24361732561E+02  0.00000000000E+00 0. -1.
         21    1    1    2  502  501  0.11688701151E+02 -0.18702238412E+02  0.47631878074E+02  0.52489953944E+02  0.00000000000E+00 0. -1.
<scales pt_clust_5="13000.00000" pt_clust_6="13000.00000" pt_clust_7="13000.00000" pt_clust_8="13000.00000" pt_clust_9="22.05447"></scales>
<clustering>
<clus scale="   22.054">  1  9  2 -1</clus>
<clus scale="   90.939">  5  6 -1 -1</clus>
<clus scale="   92.982">  7  8 -1 -1</clus>
<clus scale="  100.215">  1  5  2 -1</clus>
<clus scale="   22.054">  1  5  2 -1</clus>
</clustering>
</event>
<event>
 9    1  0.1234700E-005  0.9375744E+02  0.7546771E-02  0.1294432E+00
          2   -1    0    0  502    0  0.00000000000E+00  0.00000000000E+00  0.14791366956E+03  0.14791366956E+03  0.00000000000E+00 0. -1.
         -2   -1    0    0    0  501 -0.00000000000E+00 -0.00000000000E+00 -0.10478592323E+03  0.10478592323E+03  0.00000000000E+00 0.  1.
         23    2    1    2    0    0 -0.11300438734E+02 -0.76566760023E+01 -0.13365957708E+02  0.92168007827E+02  0.90166336503E+02 0.  0.
         23    2    1    2    0    0  0.20489636193E+02  0.27637202628E+02 -0.28188951173E+01  0.97273010746E+02  0.90942027081E+02 0.  0.
        -13    1    4    4    0    0 -0.24530940421E+02  0.43099168217E+02 -0.60389869420E-01  0.49591420487E+02  0.00000000000E+00 0. -1.
         13    1    4    4    0    0  0.45020576613E+02 -0.15461965589E+02 -0.27585052479E+01  0.47681590260E+02  0.00000000000E+00 0.  1.
        -13    1    3    3    0    0  0.92474414147E+01  0.28393063414E+02 -0.34477876806E+02  0.45611459216E+02  0.00000000000E+00 0.  1.
         13    1    3    3    0    0 -0.20547880149E+02 -0.36049739416E+02  0.21111919098E+02  0.46556548611E+02  0.00000000000E+00 0. -1.
         21    1    1    2  502  501 -0.91891974588E+01 -0.19980526626E+02  0.59312599149E+02  0.63258574217E+02  0.00000000000E+00 0. -1.
<scales pt_clust_5="13000.00000" pt_clust_6="13000.00000" pt_clust_7="13000.00000" pt_clust_8="13000.00000" pt_clust_9="21.99233"></scales>
<clustering>
<clus scale="   21.992">  1  9  2 -1</clus>
<clus scale="   90.166">  7  8 -1 -1</clus>
<clus scale="   90.942">  5  6 -1 -1</clus>
<clus scale="   93.005">  2  7  1 -1</clus>
<clus scale="   21.992">  1  5  2 -1</clus>
</clustering>
</event>
<event>
 9    1  0.1234700E-005  0.1346368E+03  0.7546771E-02  0.1221217E+00
          1   -1    0    0  502    0  0.00000000000E+00  0.00000000000E+00  0.24999837226E+03  0.24999837226E+03  0.00000000000E+00 0. -1.
         -1   -1    0    0    0  501 -0.00000000000E+00 -0.00000000000E+00 -0.95437505636E+02  0.95437505636E+02  0.00000000000E+00 0.  1.
         23    2    1    2    0    0  0.97176196841E+02  0.75522195069E+01  0.53981338066E+02  0.14460251400E+03  0.92171866331E+02 0.  0.
         23    2    1    2    0    0 -0.97439182099E+02  0.28997650192E+02  0.89194166407E+02  0.16255035713E+03  0.90176279341E+02 0.  0.
        -11    1    4    4    0    0 -0.58589693060E+02 -0.22912228340E+02  0.71715150999E+02  0.95398035741E+02  0.00000000000E+00 0.  1.
         11    1    4    4    0    0 -0.38849489039E+02  0.51909878532E+02  0.17479015408E+02  0.67152321385E+02  0.00000000000E+00 0. -1.
        -13    1    3    3    0    0  0.65712568849E+02  0.34747223379E+02  0.67970758916E+02  0.10072504805E+03  0.00000000000E+00 0. -1.
         13    1    3    3    0    0  0.31463627992E+02 -0.27195003873E+02 -0.13989420851E+02  0.43877465945E+02  0.00000000000E+00 0.  1.
         21    1    1    2  502  501  0.26298525794E+00 -0.36549869699E+02  0.11385362150E+02  0.38283006772E+02  0.00000000000E+00 0.  1.
<scales pt_clust_5="13000.00000" pt_clust_6="13000.00000" pt_clust_7="13000.00000" pt_clust_8="13000.00000" pt_clust_9="36.55082"></scales>
<clustering>
<clus scale="   36.551">  2  9  1 -1</clus>
<clus scale="   90.176">  5  6 -1 -1</clus>
<clus scale="   92.172">  7  8 -1 -1</clus>
<clus scale="  133.279">  1  5  2 -1</clus>
<clus scale="  133.279">  1  5  2 -1</clus>
</clustering>
</event>
<event>
 9    1  0.1234700E-005  0.1347678E+03  0.7546771E-02  0.1220821E+00
          2   -1    0    0  502    0  0.00000000000E+00  0.00000000000E+00  0.11450787260E+03  0.11450787260E+03  0.00000000000E+00 0. -1.
         -2   -1    0    0    0  501 -0.00000000000E+00 -0.00000000000E+00 -0.37171204486E+03  0.37171204486E+03  0.00000000000E+00 0.  1.
         23    2    1    2    0    0 -0.91541421166E+02 -0.37335988265E+02 -0.26951146749E+03  0.30140732008E+03  0.91848427728E+02 0.  0.
         23    2    1    2    0    0  0.99250275572E+02  0.13742263362E+02 -0.27470223389E+02  0.13792612514E+03  0.90716789071E+02 0.  0.
        -13    1    3    3    0    0 -0.27718498463E+02 -0.44712611808E+02 -0.49599568689E+02  0.72302489762E+02  0.00000000000E+00 0.  1.
         13    1    3    3    0    0 -0.63822922704E+02  0.73766235430E+01 -0.21991189880E+03  0.22910483031E+03  0.00000000000E+00 0. -1.
        -13    1    4    4    0    0  0.69524665466E+02 -0.14569653123E+01  0.26538224923E+02  0.74431708553E+02  0.00000000000E+00 0. -1.
         13    1    4    4    0    0  0.29725610107E+02  0.15199228674E+02 -0.54008448312E+02  0.63494416586E+02  0.00000000000E+00 0.  1.
         21    1    1    2  502  501 -0.77088544058E+01  0.23593724903E+02  0.39777518625E+02  0.46886472239E+02  0.00000000000E+00 0. -1.
<scales pt_clust_5="13000.00000" pt_clust_6="13000.00000" pt_clust_7="13000.00000" pt_clust_8="13000.00000" pt_clust_9="24.82117"></scales>
<clustering>
<clus scale="   24.821">  1  9  2 -1</clus>
<clus scale="   90.717">  7  8 -1 -1</clus>
<clus scale="   91.848">  5  6 -1 -1</clus>
<clus scale="  133.999">  1  7  2 -1</clus>
<clus scale="   24.821">  1  5  2 -1</clus>
</clustering>
</event>
<event>
 9    1  0.1234700E-005  0.9299984E+02  0.7546771E-02  0.1296247E+00
          2   -1    0    0  502    0  0.00000000000E+00  0.00000000000E+00  0.17417273409E+03  0.17417273409E+03  0.00000000000E+00 0. -1.
         -2   -1    0    0    0  501 -0.00000000000E+00 -0.00000000000E+00 -0.70701292444E+02  0.70701292444E+02  0.00000000000E+00 0.  1.
         23    2    1    2    0    0 -0.57642837367E+01 -0.13989352187E+02  0.26655123545E+02  0.97042830187E+02  0.92075438298E+02 0.  0.
         23    2    1    2    0    0 -0.24291754744E+01 -0.14994602263E+02  0.68909982934E+02  0.11669098881E+03  0.92937947750E+02 0.  0.
        -11    1    4    4    0    0 -0.28432955132E+00 -0.54500395300E+02  0.37181286904E+02  0.65975920055E+02  0.00000000000E+00 0.  1.
         11    1    4    4    0    0 -0.21448459231E+01  0.39505793037E+02  0.31728696029E+02  0.50715068759E+02  0.00000000000E+00 0. -1.
        -13    1    3    3    0    0 -0.31326374015E+02  0.92716128307E+01  0.46772842860E+02  0.57052636596E+02  0.00000000000E+00 0. -1.
         13    1    3    3    0    0  0.25562090278E+02 -0.23260965018E+02 -0.20117719315E+02  0.39990193590E+02  0.00000000000E+00 0.  1.
         21    1    1    2  502  501  0.81934592111E+01  0.28983954450E+02  0.79063351671E+01  0.31140207533E+02  0.00000000000E+00 0. -1.
<scales pt_clust_5="13000.00000" pt_clust_6="13000.00000" pt_clust_7="13000.00000" pt_clust_8="13000.00000" pt_clust_9="30.11980"></scales>
<clustering>
<clus scale="   30.120">  2  9  1 -1</clus>
<clus scale="   92.075">  7  8 -1 -1</clus>
<clus scale="   92.138">  2  7  1 -1</clus>
<clus scale="   92.938">  5  6 -1 -1</clus>
<clus scale="   93.000">  1  5  2 -1</clus>
</clustering>
</event>
<event>
 9    1  0.1234700E-005  0.9273287E+02  0.7546771E-02  0.1299059E+00
          1   -1    0    0  502    0  0.00000000000E+00  0.00000000000E+00  0.27965448558E+02  0.27965448558E+02  0.00000000000E+00 0. -1.
         -1   -1    0    0    0  501 -0.00000000000E+00 -0.00000000000E+00 -0.62710503348E+03  0.62710503348E+03  0.00000000000E+00 0.  1.
         23    2    1    2    0    0  0.93593318154E+01  0.46804181334E+01 -0.38576495428E+03  0.39661809440E+03  0.91552222517E+02 0.  0.
         23    2    1    2    0    0  0.11918781943E+02 -0.44211734430E+02 -0.12225101723E+03  0.15686992845E+03  0.86983495072E+02 0.  0.
        -13    1    3    3    0    0 -0.11704959868E+02 -0.39040884999E+02 -0.12827214273E+03  0.13459175082E+03  0.00000000000E+00 0. -1.
         13    1    3    3    0    0  0.21064291683E+02  0.43721303133E+02 -0.25749281155E+03  0.26202634358E+03  0.00000000000E+00 0.  1.
        -13    1    4    4    0    0  0.33378106118E+02  0.12014650840E+02 -0.63660312952E+02  0.72877192920E+02  0.00000000000E+00 0.  1.
         13    1    4    4    0    0 -0.21459324175E+02 -0.56226385270E+02 -0.58590704280E+02  0.83992735534E+02  0.00000000000E+00 0. -1.
         21    1    1    2  502  501 -0.21278113758E+02  0.39531316297E+02 -0.91123613413E+02  0.10158245919E+03  0.00000000000E+00 0.  1.
<scales pt_clust_5="13000.00000" pt_clust_6="13000.00000" pt_clust_7="13000.00000" pt_clust_8="13000.00000" pt_clust_9="44.89413"></scales>
<clustering>
<clus scale="   44.894">  1  9  2 -1</clus>
<clus scale="   86.983">  7  8 -1 -1</clus>
<clus scale="   88.225">  1  7  2 -1</clus>
<clus scale="   91.552">  5  6 -1 -1</clus>
<clus scale="   44.894">  1  5  2 -1</clus>
</clustering>
</event>
<event>
 9    1  0.1234700E-005  0.1051099E+03  0.7546771E-02  0.1270910E+00
         -2   -1    0    0    0  501 -0.00000000000E+00  0.00000000000E+00  0.47059825248E+02  0.47059825248E+02  0.00000000000E+00 0.  1.
          2   -1    0    0  502    0  0.00000000000E+00 -0.00000000000E+00 -0.40398351208E+03  0.40398351208E+03  0.00000000000E+00 0. -1.
         23    2    1    2    0    0  0.42954077516E+02  0.24856701209E+02 -0.47863903335E+02  0.11546943047E+03  0.92624660650E+02 0.  0.
         23    2    1    2    0    0 -0.54316567699E+02 -0.28902156314E+01 -0.26183312625E+03  0.28226359053E+03  0.90318910899E+02 0.  0.
        -11    1    4    4    0    0 -0.41874054285E+02 -0.37528605789E+02 -0.21746275378E+03  0.22461496379E+03  0.00000000000E+00 0. -1.
         11    1    4    4    0    0 -0.12442513415E+02  0.34638390157E+02 -0.44370372468E+02  0.57648626746E+02  0.00000000000E+00 0.  1.
        -13    1    3    3    0    0  0.18320159618E+01  0.53617200735E+02 -0.15831304736E+02  0.55935594274E+02  0.00000000000E+00 0. -1.
         13    1    3    3    0    0  0.41122061554E+02 -0.28760499525E+02 -0.32032598599E+02  0.59533836198E+02  0.00000000000E+00 0.  1.
         21    1    1    2  502  501  0.11362490183E+02 -0.21966485578E+02 -0.47226657250E+02  0.53310316326E+02  0.00000000000E+00 0. -1.
<scales pt_clust_5="13000.00000" pt_clust_6="13000.00000" pt_clust_7="13000.00000" pt_clust_8="13000.00000" pt_clust_9="24.73121"></scales>
<clustering>
<clus scale="   24.731">  2  9  1 -1</clus>
<clus scale="   90.319">  5  6 -1 -1</clus>
<clus scale="   92.625">  7  8 -1 -1</clus>
<clus scale="  103.084">  2  5  1 -1</clus>
<clus scale="   24.731">  2  5  1 -1</clus>
</clustering>
</event>
<event>
 9    1  0.1234700E-005  0.9722803E+02  0.7546771E-02  0.1289284E+00
         -1   -1    0    0    0  501 -0.00000000000E+00  0.00000000000E+00  0.12331384951E+03  0.12331384951E+03  0.00000000000E+00 0.  1.
          1   -1    0    0  502    0  0.00000000000E+00 -0.00000000000E+00 -0.11937535486E+03  0.11937535486E+03  0.00000000000E+00 0. -1.
         23    2    1    2    0    0  0.23589122072E+02  0.77278528960E+01  0.39307688118E+02  0.10678991436E+03  0.96139612401E+02 0.  0.
         23    2    1    2    0    0  0.29609344421E+01 -0.78949596046E+01  0.77184980770E+00  0.91053906358E+02  0.90659365710E+02 0.  0.
        -11    1    3    3    0    0 -0.22700774669E+02  0.22415879284E+02  0.47820019089E+02  0.57485224539E+02  0.00000000000E+00 0.  1.
         11    1    3    3    0    0  0.46289896741E+02 -0.14688026388E+02 -0.85123309705E+01  0.49304689818E+02  0.00000000000E+00 0. -1.
        -13    1    4    4    0    0 -0.33230442674E+01  0.30973471388E+02  0.29037002896E+02  0.42585749849E+02  0.00000000000E+00 0.  1.
         13    1    4    4    0    0  0.62839787096E+01 -0.38868430992E+02 -0.28265153089E+02  0.48468156509E+02  0.00000000000E+00 0. -1.
         21    1    1    2  502  501 -0.26550056514E+02  0.16710670859E+00 -0.36141043281E+02  0.44845383653E+02  0.00000000000E+00 0. -1.
<scales pt_clust_5="13000.00000" pt_clust_6="13000.00000" pt_clust_7="13000.00000" pt_clust_8="13000.00000" pt_clust_9="26.55058"></scales>
<clustering>
<clus scale="   26.551">  2  9  1 -1</clus>
<clus scale="   90.659">  7  8 -1 -1</clus>
<clus scale="   91.813">  2  7  1 -1</clus>
<clus scale="   96.140">  5  6 -1 -1</clus>
<clus scale="   26.551">  2  5  1 -1</clus>
</clustering>
</event>
<event>
 9    1  0.1234700E-005  0.2614130E+03  0.7546771E-02  0.1106366E+00
          2   -1    0    0  502    0  0.00000000000E+00  0.00000000000E+00  0.19994560810E+03  0.19994560810E+03  0.00000000000E+00 0. -1.
         -2   -1    0    0    0  501 -0.00000000000E+00 -0.00000000000E+00 -0.88526742906E+03  0.88526742906E+03  0.00000000000E+00 0.  1.
         23    2    1    2    0    0 -0.14029795981E+03  0.20531983725E+03 -0.74224113020E+03  0.78819277597E+03  0.92120592954E+02 0.  0.
         23    2    1    2    0    0  0.15421046426E+03 -0.15746741094E+03  0.63665392094E+02  0.24673187170E+03  0.90810140219E+02 0.  0.
        -11    1    3    3    0    0 -0.16318710524E+02  0.99693636843E+02 -0.32283345567E+03  0.33826995380E+03  0.00000000000E+00 0. -1.
         11    1    3    3    0    0 -0.12397924928E+03  0.10562620040E+03 -0.41940767452E+03  0.44992282218E+03  0.00000000000E+00 0.  1.
        -13    1    4    4    0    0  0.35122381813E+01 -0.56864558061E+02  0.19683732293E+02  0.60277384627E+02  0.00000000000E+00 0.  1.
         13    1    4    4    0    0  0.15069822608E+03 -0.10060285288E+03  0.43981659801E+02  0.18645448708E+03  0.00000000000E+00 0. -1.
         21    1    1    2  502  501 -0.13912504453E+02 -0.47852426302E+02 -0.67460828539E+01  0.50288389485E+02  0.00000000000E+00 0. -1.
<scales pt_clust_5="13000.00000" pt_clust_6="13000.00000" pt_clust_7="13000.00000" pt_clust_8="13000.00000" pt_clust_9="49.83385"></scales>
<clustering>
<clus scale="   49.834">  1  9  2 -1</clus>
<clus scale="   90.810">  7  8 -1 -1</clus>
<clus scale="   92.121">  5  6 -1 -1</clus>
<clus scale="  260.954">  1  7  2 -1</clus>
<clus scale="   49.834">  1  5  2 -1</clus>
</clustering>
</event>
<event>
 9    1  0.1234700E-005  0.1042214E+03  0.7546771E-02  0.1273733E+00
          2   -1    0    0  502    0  0.00000000000E+00  0.00000000000E+00  0.23011125382E+03  0.23011125382E+03  0.00000000000E+00 0. -1.
         -2   -1    0    0    0  501 -0.00000000000E+00 -0.00000000000E+00 -0.94701668430E+02  0.94701668430E+02  0.00000000000E+00 0.  1.
         23    2    1    2    0    0  0.50885770625E+02 -0.10775356109E+02  0.23116370547E+01  0.10773434123E+03  0.94317944549E+02 0.  0.
         23    2    1    2    0    0 -0.30348579216E+02  0.23698144975E+02  0.17868012017E+02  0.99321573041E+02  0.89793489086E+02 0.  0.
        -11    1    3    3    0    0 -0.22569940988E+02 -0.15279825508E+02 -0.16386564516E+02  0.31802433876E+02  0.00000000000E+00 0.  1.
         11    1    3    3    0    0  0.73455711613E+02  0.45044693996E+01  0.18698201571E+02  0.75931907359E+02  0.00000000000E+00 0. -1.
        -13    1    4    4    0    0  0.26256613149E+02  0.26172541179E+02 -0.65103174802E+01  0.37640349088E+02  0.00000000000E+00 0. -1.
         13    1    4    4    0    0 -0.56605192365E+02 -0.24743962034E+01  0.24378329497E+02  0.61681223953E+02  0.00000000000E+00 0.  1.
         21    1    1    2  502  501 -0.20537191409E+02 -0.12922788867E+02  0.11522993632E+03  0.11775700797E+03  0.00000000000E+00 0.  1.
<scales pt_clust_5="13000.00000" pt_clust_6="13000.00000" pt_clust_7="13000.00000" pt_clust_8="13000.00000" pt_clust_9="24.26468"></scales>
<clustering>
<clus scale="   24.265">  1  9  2 -1</clus>
<clus scale="   89.793">  7  8 -1 -1</clus>
<clus scale="   94.318">  5  6 -1 -1</clus>
<clus scale="  100.145">  1  7  2 -1</clus>
<clus scale="   24.265">  1  5  2 -1</clus>
</clustering>
</event>
<event>
 9    1  0.1234700E-005  0.9575197E+02  0.7546771E-02  0.1290384E+00
         -1   -1    0    0    0  501 -0.00000000000E+00  0.00000000000E+00  0.80771574378E+02  0.80771574378E+02  0.00000000000E+00 0.  1.
          1   -1    0    0  502    0  0.00000000000E+00 -0.00000000000E+00 -0.14079026983E+03  0.14079026983E+03  0.00000000000E+00 0. -1.
         23    2    1    2    0    0 -0.21951605876E+01  0.17392740553E+02 -0.26507439855E+02  0.96956164921E+02  0.91599822023E+02 0.  0.
         23    2    1    2    0    0 -0.17170639627E+02 -0.23375123352E+02 -0.36255866902E+02  0.10415192625E+03  0.93230405987E+02 0.  0.
        -11    1    3    3    0    0  0.33172332093E+02  0.37099156565E+02 -0.26682681017E+02  0.56468721436E+02  0.00000000000E+00 0.  1.
         11    1    3    3    0    0 -0.35367492680E+02 -0.19706416012E+02  0.17524116153E+00  0.40487443486E+02  0.00000000000E+00 0. -1.
        -11    1    4    4    0    0 -0.23973382809E+02  0.27556793338E+01  0.26495618645E+02  0.35837615145E+02  0.00000000000E+00 0.  1.
         11    1    4    4    0    0  0.68027431825E+01 -0.26130802686E+02 -0.62751485547E+02  0.68314311108E+02  0.00000000000E+00 0. -1.
         21    1    1    2  502  501  0.19365800214E+02  0.59823827989E+01  0.27446113063E+01  0.20453753033E+02  0.00000000000E+00 0. -1.
<scales pt_clust_5="13000.00000" pt_clust_6="13000.00000" pt_clust_7="13000.00000" pt_clust_8="13000.00000" pt_clust_9="20.26877"></scales>
<clustering>
<clus scale="   20.269">  1  9  2 -1</clus>
<clus scale="   91.600">  5  6 -1 -1</clus>
<clus scale="   93.230">  7  8 -1 -1</clus>
<clus scale="   94.165">  1  5  2 -1</clus>
<clus scale="   95.752">  2  5  1 -1</clus>
</clustering>
</event>
<event>
 9    1  0.1234700E-005  0.1121635E+03  0.7546771E-02  0.1257424E+00
          1   -1    0    0  502    0  0.00000000000E+00  0.00000000000E+00  0.44870954729E+03  0.44870954729E+03  0.00000000000E+00 0. -1.
         -1   -1    0    0    0  501 -0.00000000000E+00 -0.00000000000E+00 -0.15980639880E+03  0.15980639880E+03  0.00000000000E+00 0.  1.
         23    2    1    2    0    0 -0.33942776014E+02  0.49497607256E+02 -0.12708410251E+03  0.16794167792E+03  0.91934285795E+02 0.  0.
         23    2    1    2    0    0  0.39590720478E+02 -0.70016385499E+02  0.34974009927E+03  0.37099262800E+03  0.94062073152E+02 0.  0.
        -11    1    4    4    0    0  0.47016603322E+02  0.46350342976E+01  0.16415016634E+03  0.17081370449E+03  0.00000000000E+00 0.  1.
         11    1    4    4    0    0 -0.74258828434E+01 -0.74651419797E+02  0.18558993293E+03  0.20017892351E+03  0.00000000000E+00 0. -1.
        -13    1    3    3    0    0 -0.56552275847E+02  0.28019611587E+02 -0.38264793095E+02  0.73806862334E+02  0.00000000000E+00 0. -1.
         13    1    3    3    0    0  0.22609499833E+02  0.21477995670E+02 -0.88819309414E+02  0.94134815586E+02  0.00000000000E+00 0.  1.
         21    1    1    2  502  501 -0.56479444643E+01  0.20518778243E+02  0.66247151732E+02  0.69581640177E+02  0.00000000000E+00 0. -1.
<scales pt_clust_5="13000.00000" pt_clust_6="13000.00000" pt_clust_7="13000.00000" pt_clust_8="13000.00000" pt_clust_9="21.28191"></scales>
<clustering>
<clus scale="   21.282">  1  9  2 -1</clus>
<clus scale="   91.934">  7  8 -1 -1</clus>
<clus scale="   94.062">  5  6 -1 -1</clus>
<clus scale="  110.385">  2  7  1 -1</clus>
<clus scale="   21.282">  1  5  2 -1</clus>
</clustering>
</event>
<event>
 9    1  0.1234700E-005  0.1956314E+03  0.7546771E-02  0.1153659E+00
         -1   -1    0    0    0  501 -0.00000000000E+00  0.00000000000E+00  0.16400003471E+03  0.16400003471E+03  0.00000000000E+00 0.  1.
          1   -1    0    0  502    0  0.00000000000E+00 -0.00000000000E+00 -0.26666485190E+03  0.26666485190E+03  0.00000000000E+00 0. -1.
         23    2    1    2    0    0 -0.16144779925E+03 -0.29011822471E+02 -0.38707024004E+02  0.19121299497E+03  0.90316654118E+02 0.  0.
         23    2    1    2    0    0  0.18162113699E+03  0.16812513634E+02 -0.45068514345E+02  0.20924276145E+03  0.92100294341E+02 0.  0.
        -11    1    3    3    0    0 -0.51571176918E+02  0.50251045091E+01 -0.54390478099E+02  0.75120982900E+02  0.00000000000E+00 0.  1.
         11    1    3    3    0    0 -0.10987662233E+03 -0.34036926980E+02  0.15683454095E+02  0.11609201207E+03  0.00000000000E+00 0. -1.
        -11    1    4    4    0    0  0.13177255473E+03 -0.13294731936E+02  0.48653337802E+01  0.13253085509E+03  0.00000000000E+00 0.  1.
         11    1    4    4    0    0  0.49848582258E+02  0.30107245570E+02 -0.49933848125E+02  0.76711906361E+02  0.00000000000E+00 0. -1.
         21    1    1    2  502  501 -0.20173337738E+02  0.12199308836E+02 -0.18889278843E+02  0.30209130189E+02  0.00000000000E+00 0. -1.
<scales pt_clust_5="13000.00000" pt_clust_6="13000.00000" pt_clust_7="13000.00000" pt_clust_8="13000.00000" pt_clust_9="23.57513"></scales>
<clustering>
<clus scale="   23.575">  2  9  1 -1</clus>
<clus scale="   90.317">  5  6 -1 -1</clus>
<clus scale="   92.100">  7  8 -1 -1</clus>
<clus scale="  194.798">  1  5  2 -1</clus>
<clus scale="   23.575">  2  5  1 -1</clus>
</clustering>
</event>
<event>
 9    1  0.1234700E-005  0.2232532E+03  0.7546771E-02  0.1131512E+00
          1   -1    0    0  502    0  0.00000000000E+00  0.00000000000E+00  0.75713973593E+03  0.75713973593E+03  0.00000000000E+00 0. -1.
         -1   -1    0    0    0  501 -0.00000000000E+00 -0.00000000000E+00 -0.12643982398E+03  0.12643982398E+03  0.00000000000E+00 0.  1.
         23    2    1    2    0    0  0.96853415485E+02  0.18629153300E+03  0.32048553550E+02  0.23126936683E+03  0.91505687729E+02 0.  0.
         23    2    1    2    0    0 -0.48292847250E+02 -0.17392613395E+03  0.53046508872E+03  0.56769105072E+03  0.91090172608E+02 0.  0.
        -11    1    4    4    0    0 -0.11889401394E+02 -0.77695923697E+02  0.36084662096E+03  0.36930786383E+03  0.00000000000E+00 0. -1.
         11    1    4    4    0    0 -0.36403445856E+02 -0.96230210254E+02  0.16961846776E+03  0.19838318689E+03  0.00000000000E+00 0.  1.
        -13    1    3    3    0    0  0.29560359285E+00  0.56024451360E+02  0.40133832645E+02  0.68916986690E+02  0.00000000000E+00 0. -1.
         13    1    3    3    0    0  0.96557811892E+02  0.13026708164E+03 -0.80852790944E+01  0.16235238014E+03  0.00000000000E+00 0.  1.
         21    1    1    2  502  501 -0.48560568235E+02 -0.12365399053E+02  0.68186269679E+02  0.84619142361E+02  0.00000000000E+00 0. -1.
<scales pt_clust_5="13000.00000" pt_clust_6="13000.00000" pt_clust_7="13000.00000" pt_clust_8="13000.00000" pt_clust_9="50.11020"></scales>
<clustering>
<clus scale="   50.110">  1  9  2 -1</clus>
<clus scale="   91.090">  5  6 -1 -1</clus>
<clus scale="   91.506">  7  8 -1 -1</clus>
<clus scale="  223.083">  1  5  2 -1</clus>
<clus scale="   50.110">  1  5  2 -1</clus>
</clustering>
</event>
<event>
 9    1  0.1234700E-005  0.1127024E+03  0.7546771E-02  0.1260006E+00
         -3   -1    0    0    0  501 -0.00000000000E+00  0.00000000000E+00  0.22795003070E+03  0.22795003070E+03  0.00000000000E+00 0.  1.
          3   -1    0    0  502    0  0.00000000000E+00 -0.00000000000E+00 -0.54873486161E+03  0.54873486161E+03  0.00000000000E+00 0. -1.
         23    2    1    2    0    0 -0.45829668334E+02 -0.47549254957E+02  0.20576110087E+03  0.23459453821E+03  0.91299926527E+02 0.  0.
         23    2    1    2    0    0  0.62563863333E+02  0.32917974120E+02 -0.44722897217E+03  0.45971749604E+03  0.79552451919E+02 0.  0.
        -13    1    4    4    0    0  0.64685316408E+02  0.54593567731E+02 -0.35690882424E+03  0.36680861033E+03  0.00000000000E+00 0. -1.
         13    1    4    4    0    0 -0.21214530753E+01 -0.21675593611E+02 -0.90320147929E+02  0.92908885707E+02  0.00000000000E+00 0.  1.
        -13    1    3    3    0    0 -0.64209094888E+02 -0.28660205794E+02  0.81822974008E+02  0.10788519054E+03  0.00000000000E+00 0. -1.
         13    1    3    3    0    0  0.18379426554E+02 -0.18889049163E+02  0.12393812686E+03  0.12670934767E+03  0.00000000000E+00 0.  1.
         21    1    1    2  502  501 -0.16734194999E+02  0.14631280837E+02 -0.79316959610E+02  0.82372858048E+02  0.00000000000E+00 0.  1.
<scales pt_clust_5="13000.00000" pt_clust_6="13000.00000" pt_clust_7="13000.00000" pt_clust_8="13000.00000" pt_clust_9="22.22853"></scales>
<clustering>
<clus scale="   22.229">  2  9  1 -1</clus>
<clus scale="   79.552">  5  6 -1 -1</clus>
<clus scale="   91.300">  7  8 -1 -1</clus>
<clus scale="  103.415">  2  5  1 -1</clus>
<clus scale="   22.229">  2  5  1 -1</clus>
</clustering>
</event>
<event>
 9    1  0.1234700E-005  0.1225025E+03  0.7546771E-02  0.1239807E+00
         -1   -1    0    0    0  501 -0.00000000000E+00  0.00000000000E+00  0.54231508091E+02  0.54231508091E+02  0.00000000000E+00 0.  1.
          1   -1    0    0  502    0  0.00000000000E+00 -0.00000000000E+00 -0.38586584462E+03  0.38586584462E+03  0.00000000000E+00 0. -1.
         23    2    1    2    0    0 -0.57342441231E+02  0.51823375443E+02 -0.73323805545E+02  0.14119095143E+03  0.92653583298E+02 0.  0.
         23    2    1    2    0    0  0.77334977730E+02 -0.41116543441E+02 -0.19830128909E+03  0.23475465243E+03  0.90083720279E+02 0.  0.
        -11    1    4    4    0    0  0.62843330438E+02 -0.63763208660E+02 -0.18323049010E+03  0.20393244828E+03  0.00000000000E+00 0. -1.
         11    1    4    4    0    0  0.14491647293E+02  0.22646665219E+02 -0.15070798994E+02  0.30822204157E+02  0.00000000000E+00 0.  1.
        -13    1    3    3    0    0  0.11985041570E+01  0.39120917027E+02 -0.71201878630E+02  0.81250169733E+02  0.00000000000E+00 0.  1.
         13    1    3    3    0    0 -0.58540945388E+02  0.12702458416E+02 -0.21219269146E+01  0.59940781698E+02  0.00000000000E+00 0. -1.
         21    1    1    2  502  501 -0.19992536499E+02 -0.10706832002E+02 -0.60009241894E+02  0.64151748845E+02  0.00000000000E+00 0.  1.
<scales pt_clust_5="13000.00000" pt_clust_6="13000.00000" pt_clust_7="13000.00000" pt_clust_8="13000.00000" pt_clust_9="22.67902"></scales>
<clustering>
<clus scale="   22.679">  2  9  1 -1</clus>
<clus scale="   90.084">  5  6 -1 -1</clus>
<clus scale="   92.654">  7  8 -1 -1</clus>
<clus scale="  120.571">  2  5  1 -1</clus>
<clus scale="   22.679">  2  5  1 -1</clus>
</clustering>
</event>
<event>
 9    1  0.1234700E-005  0.1789775E+03  0.7546771E-02  0.1173186E+00
          2   -1    0    0  502    0  0.00000000000E+00  0.00000000000E+00  0.45246140989E+03  0.45246140989E+03  0.00000000000E+00 0. -1.
         -2   -1    0    0    0  501 -0.00000000000E+00 -0.00000000000E+00 -0.10237069327E+03  0.10237069327E+03  0.00000000000E+00 0.  1.
         23    2    1    2    0    0 -0.13244600792E+03  0.13266726440E+02  0.25045980287E+02  0.16337710663E+03  0.91360969760E+02 0.  0.
         23    2    1    2    0    0  0.13127155029E+03 -0.39415057116E+02  0.23074387960E+03  0.29358893434E+03  0.11902082909E+03 0.  0.
        -13    1    4    4    0    0  0.82737401222E+02  0.37292681187E+02  0.11536246246E+03  0.14678119558E+03  0.00000000000E+00 0.  1.
         13    1    4    4    0    0  0.48534149063E+02 -0.76707738303E+02  0.11538141713E+03  0.14680773876E+03  0.00000000000E+00 0. -1.
        -13    1    3    3    0    0 -0.86978820103E+02  0.11658418293E+02 -0.29284145999E+02  0.92513756115E+02  0.00000000000E+00 0.  1.
         13    1    3    3    0    0 -0.45467187822E+02  0.16083081468E+01  0.54330126286E+02  0.70863350512E+02  0.00000000000E+00 0. -1.
         21    1    1    2  502  501  0.11744576394E+01  0.26148330677E+02  0.94300856733E+02  0.97866062189E+02  0.00000000000E+00 0. -1.
<scales pt_clust_5="13000.00000" pt_clust_6="13000.00000" pt_clust_7="13000.00000" pt_clust_8="13000.00000" pt_clust_9="26.17469"></scales>
<clustering>
<clus scale="   26.175">  1  9  2 -1</clus>
<clus scale="   91.361">  7  8 -1 -1</clus>
<clus scale="  119.021">  5  6 -1 -1</clus>
<clus scale="  161.907">  2  7  1 -1</clus>
<clus scale="   26.175">  1  5  2 -1</clus>
</clustering>
</event>
<event>
 9    1  0.1234700E-005  0.9816377E+02  0.7546771E-02  0.1284797E+00
          1   -1    0    0  502    0  0.00000000000E+00  0.00000000000E+00  0.18608955616E+03  0.18608955616E+03  0.00000000000E+00 0. -1.
         -1   -1    0    0    0  501 -0.00000000000E+00 -0.00000000000E+00 -0.94645446398E+02  0.94645446398E+02  0.00000000000E+00 0.  1.
         23    2    1    2    0    0 -0.34532341175E+02  0.13035042521E+01 -0.27458332634E+02  0.10112011498E+03  0.90978766272E+02 0.  0.
         23    2    1    2    0    0  0.27823592125E+02 -0.28493972704E+02  0.67148641069E+02  0.12076945581E+03  0.92142621513E+02 0.  0.
        -13    1    4    4    0    0  0.22713561708E+02 -0.56446131858E+02  0.17075068839E+02  0.63195171200E+02  0.00000000000E+00 0.  1.
         13    1    4    4    0    0  0.51100304174E+01  0.27952159153E+02  0.50073572230E+02  0.57574284608E+02  0.00000000000E+00 0. -1.
        -13    1    3    3    0    0 -0.54215881944E+02 -0.25592400977E+02 -0.31193553535E+02  0.67582324796E+02  0.00000000000E+00 0.  1.
         13    1    3    3    0    0  0.19683540769E+02  0.26895905229E+02  0.37352209005E+01  0.33537790185E+02  0.00000000000E+00 0. -1.
         21    1    1    2  502  501  0.67087490499E+01  0.27190468452E+02  0.51753801331E+02  0.58845431774E+02  0.00000000000E+00 0. -1.
<scales pt_clust_5="13000.00000" pt_clust_6="13000.00000" pt_clust_7="13000.00000" pt_clust_8="13000.00000" pt_clust_9="28.00587"></scales>
<clustering>
<clus scale="   28.006">  1  9  2 -1</clus>
<clus scale="   90.979">  7  8 -1 -1</clus>
<clus scale="   92.143">  5  6 -1 -1</clus>
<clus scale="   97.072">  2  7  1 -1</clus>
<clus scale="   28.006">  1  5  2 -1</clus>
</clustering>
</event>
<event>
 9    1  0.1234700E-005  0.1546153E+03  0.7546771E-02  0.1213858E+00
         -1   -1    0    0    0  501 -0.00000000000E+00  0.00000000000E+00  0.72815732709E+02  0.72815732709E+02  0.00000000000E+00 0.  1.
          1   -1    0    0  502    0  0.00000000000E+00 -0.00000000000E+00 -0.68325588665E+03  0.68325588665E+03  0.00000000000E+00 0. -1.
         23    2    1    2    0    0  0.44405457344E+02 -0.65350864228E+01 -0.98296772762E+02  0.14221296006E+03  0.92453872153E+02 0.  0.
         23    2    1    2    0    0  0.88526336458E+02  0.12516544843E+01 -0.56595876485E+02  0.13928273757E+03  0.91422693375E+02 0.  0.
        -11    1    4    4    0    0  0.29837159206E+02 -0.68560671301E+01  0.24247584796E+02  0.39053899862E+02  0.00000000000E+00 0.  1.
         11    1    4    4    0    0  0.58689177252E+02  0.81077216144E+01 -0.80843461281E+02  0.10022883771E+03  0.00000000000E+00 0. -1.
        -13    1    3    3    0    0  0.15925120767E+02  0.16749123956E+02 -0.10260393066E+03  0.10517466050E+03  0.00000000000E+00 0. -1.
         13    1    3    3    0    0  0.28480336578E+02 -0.23284210378E+02  0.43071579012E+01  0.37038299552E+02  0.00000000000E+00 0.  1.
         21    1    1    2  502  501 -0.13293179380E+03  0.52834319385E+01 -0.45554750469E+03  0.47457592173E+03  0.00000000000E+00 0. -1.
<scales pt_clust_5="13000.00000" pt_clust_6="13000.00000" pt_clust_7="13000.00000" pt_clust_8="13000.00000" pt_clust_9="124.69077"></scales>
<clustering>
<clus scale="   91.423">  5  6 -1 -1</clus>
<clus scale="   92.454">  7  8 -1 -1</clus>
<clus scale="  102.773">  1  7  2 -1</clus>
<clus scale="  124.691">  2  9  1 -1</clus>
<clus scale="  124.691">  2  5  1 -1</clus>
</clustering>
</event>
<event>
 9    1  0.1234700E-005  0.1522302E+03  0.7546771E-02  0.1216789E+00
         -2   -1    0    0    0  501 -0.00000000000E+00  0.00000000000E+00  0.13213505761E+03  0.13213505761E+03  0.00000000000E+00 0.  1.
          2   -1    0    0  502    0  0.00000000000E+00 -0.00000000000E+00 -0.26479451347E+03  0.26479451347E+03  0.00000000000E+00 0. -1.
         23    2    1    2    0    0 -0.36336464612E+02 -0.17255505913E+02 -0.32200232515E+02  0.10620253093E+03  0.92865663494E+02 0.  0.
         23    2    1    2    0    0 -0.74546594639E+02  0.43864276459E+02 -0.12484934105E+01  0.13957860836E+03  0.10954158870E+03 0.  0.
        -13    1    4    4    0    0 -0.11993287380E+02  0.58939109874E+02 -0.32148402642E+02  0.68199541108E+02  0.00000000000E+00 0. -1.
         13    1    4    4    0    0 -0.62553307259E+02 -0.15074833415E+02  0.30899909231E+02  0.71379067254E+02  0.00000000000E+00 0.  1.
        -13    1    3    3    0    0 -0.39572157263E+02  0.28812868785E+02 -0.34622621958E+02  0.59957176295E+02  0.00000000000E+00 0.  1.
         13    1    3    3    0    0  0.32356926509E+01 -0.46068374698E+02  0.24223894433E+01  0.46245354630E+02  0.00000000000E+00 0. -1.
         21    1    1    2  502  501  0.11088305925E+03 -0.26608770546E+02 -0.99210729932E+02  0.15114843179E+03  0.00000000000E+00 0. -1.
<scales pt_clust_5="13000.00000" pt_clust_6="13000.00000" pt_clust_7="13000.00000" pt_clust_8="13000.00000" pt_clust_9="105.71026"></scales>
<clustering>
<clus scale="   92.866">  7  8 -1 -1</clus>
<clus scale="  101.203">  1  7  2 -1</clus>
<clus scale="  105.710">  2  9  1 -1</clus>
<clus scale="  109.542">  5  6 -1 -1</clus>
<clus scale="  105.710">  2  5  1 -1</clus>
</clustering>
</event>
<event>
 9    1  0.1234700E-005  0.9254035E+02  0.7546771E-02  0.1300808E+00
          3   -1    0    0  502    0  0.00000000000E+00  0.00000000000E+00  0.56108218204E+02  0.56108218204E+02  0.00000000000E+00 0. -1.
         -3   -1    0    0    0  501 -0.00000000000E+00 -0.00000000000E+00 -0.41729664879E+03  0.41729664879E+03  0.00000000000E+00 0.  1.
         23    2    1    2    0    0 -0.29026119435E+01  0.19172904077E+02 -0.32523513467E+03  0.33632784661E+03  0.83441609385E+02 0.  0.
         23    2    1    2    0    0 -0.28115167888E+02 -0.30416397372E+02 -0.28094501251E+02  0.10316125029E+03  0.90207109841E+02 0.  0.
        -13    1    3    3    0    0  0.18338576384E+02  0.46883386782E+02 -0.17564274859E+03  0.18271488848E+03  0.00000000000E+00 0. -1.
         13    1    3    3    0    0 -0.21241188328E+02 -0.27710482705E+02 -0.14959238609E+03  0.15361295814E+03  0.00000000000E+00 0.  1.
        -13    1    4    4    0    0 -0.51581236535E+02  0.98911341816E+01 -0.17192425230E+02  0.55263351176E+02  0.00000000000E+00 0. -1.
         13    1    4    4    0    0  0.23466068647E+02 -0.40307531553E+02 -0.10902076021E+02  0.47897899111E+02  0.00000000000E+00 0.  1.
         21    1    1    2  502  501  0.31017779831E+02  0.11243493295E+02 -0.78587946595E+01  0.33915770088E+02  0.00000000000E+00 0. -1.
<scales pt_clust_5="13000.00000" pt_clust_6="13000.00000" pt_clust_7="13000.00000" pt_clust_8="13000.00000" pt_clust_9="32.99271"></scales>
<clustering>
<clus scale="   32.993">  1  9  2 -1</clus>
<clus scale="   83.442">  5  6 -1 -1</clus>
<clus scale="   85.959">  2  5  1 -1</clus>
<clus scale="   90.207">  7  8 -1 -1</clus>
<clus scale="   32.993">  1  5  2 -1</clus>
</clustering>
</event>
<event>
 9    1  0.1234700E-005  0.1136563E+03  0.7546771E-02  0.1255584E+00
          1   -1    0    0  502    0  0.00000000000E+00  0.00000000000E+00  0.73444669238E+02  0.73444669238E+02  0.00000000000E+00 0. -1.
         -1   -1    0    0    0  501 -0.00000000000E+00 -0.00000000000E+00 -0.30042186846E+03  0.30042186846E+03  0.00000000000E+00 0.  1.
         23    2    1    2    0    0 -0.49090192688E+02 -0.41216442083E+02 -0.15299262112E+03  0.19130710630E+03  0.95304903794E+02 0.  0.
         23    2    1    2    0    0  0.27141571636E+02  0.56025061426E+02 -0.97501018930E+02  0.14714671952E+03  0.90940837669E+02 0.  0.
        -13    1    4    4    0    0 -0.36496329892E+01  0.46740083237E+02 -0.10423106385E+03  0.11428941278E+03  0.00000000000E+00 0.  1.
         13    1    4    4    0    0  0.30791204625E+02  0.92849781891E+01  0.67300449171E+01  0.32857306749E+02  0.00000000000E+00 0. -1.
        -13    1    3    3    0    0 -0.61117682638E+02 -0.50723285141E+01 -0.42987945362E+02  0.74893678598E+02  0.00000000000E+00 0.  1.
         13    1    3    3    0    0  0.12027489950E+02 -0.36144113569E+02 -0.11000467576E+03  0.11641342770E+03  0.00000000000E+00 0. -1.
         21    1    1    2  502  501  0.21948621052E+02 -0.14808619344E+02  0.23516440829E+02  0.35412711873E+02  0.00000000000E+00 0. -1.
<scales pt_clust_5="13000.00000" pt_clust_6="13000.00000" pt_clust_7="13000.00000" pt_clust_8="13000.00000" pt_clust_9="26.47711"></scales>
<clustering>
<clus scale="   26.477">  1  9  2 -1</clus>
<clus scale="   90.941">  5  6 -1 -1</clus>
<clus scale="   95.305">  7  8 -1 -1</clus>
<clus scale="  110.023">  1  5  2 -1</clus>
<clus scale="   26.477">  1  5  2 -1</clus>
</clustering>
</event>
<event>
 9    1  0.1234700E-005  0.1889786E+03  0.7546771E-02  0.1159506E+00
          2   -1    0    0  502    0  0.00000000000E+00  0.00000000000E+00  0.23970395042E+04  0.23970395042E+04  0.00000000000E+00 0. -1.
         -2   -1    0    0    0  501 -0.00000000000E+00 -0.00000000000E+00 -0.22559901941E+02  0.22559901941E+02  0.00000000000E+00 0.  1.
         23    2    1    2    0    0 -0.17255792190E+03 -0.17482030361E+02  0.78859965242E+03  0.81264293675E+03  0.91745697721E+02 0.  0.
         23    2    1    2    0    0  0.15427731498E+03 -0.51974720646E+02  0.10705243457E+04  0.10866202132E+04  0.90654571724E+02 0.  0.
        -11    1    4    4    0    0  0.24132447776E+02  0.25291559088E+02  0.19396977168E+03  0.19709467350E+03  0.00000000000E+00 0. -1.
         11    1    4    4    0    0  0.13014486720E+03 -0.77266279734E+02  0.87655457405E+03  0.88952553967E+03  0.00000000000E+00 0.  1.
        -13    1    3    3    0    0 -0.78413927468E+02 -0.50433333347E+02  0.45487444339E+03  0.46433072737E+03  0.00000000000E+00 0.  1.
         13    1    3    3    0    0 -0.94143994435E+02  0.32951302987E+02  0.33372520903E+03  0.34831220938E+03  0.00000000000E+00 0. -1.
         21    1    1    2  502  501  0.18280606924E+02  0.69456751006E+02  0.51535560409E+03  0.52033625620E+03  0.00000000000E+00 0. -1.
<scales pt_clust_5="13000.00000" pt_clust_6="13000.00000" pt_clust_7="13000.00000" pt_clust_8="13000.00000" pt_clust_9="71.82215"></scales>
<clustering>
<clus scale="   71.822">  1  9  2 -1</clus>
<clus scale="   90.655">  5  6 -1 -1</clus>
<clus scale="   91.746">  7  8 -1 -1</clus>
<clus scale="  188.451">  1  5  2 -1</clus>
<clus scale="   71.822">  1  5  2 -1</clus>
</clustering>
</event>
<event>
 9    1  0.1234700E-005  0.1211926E+03  0.7546771E-02  0.1242254E+00
         -2   -1    0    0    0  501 -0.00000000000E+00  0.00000000000E+00  0.71277586141E+02  0.71277586141E+02  0.00000000000E+00 0.  1.
          2   -1    0    0  502    0  0.00000000000E+00 -0.00000000000E+00 -0.36072635083E+03  0.36072635083E+03  0.00000000000E+00 0. -1.
         23    2    1    2    0    0 -0.48948923079E+01  0.70732599357E+02 -0.49757982955E+02  0.12559252135E+03  0.90942641087E+02 0.  0.
         23    2    1    2    0    0 -0.35464341065E+02 -0.95360137409E+02 -0.12903863675E+03  0.18608153347E+03  0.87316046815E+02 0.  0.
        -13    1    3    3    0    0  0.36351562159E+02  0.46557247326E+02 -0.36632382091E+01  0.59181354024E+02  0.00000000000E+00 0.  1.
         13    1    3    3    0    0 -0.41246454467E+02  0.24175352031E+02 -0.46094744746E+02  0.66411167322E+02  0.00000000000E+00 0. -1.
        -13    1    4    4    0    0  0.17980891554E+02 -0.27527190762E+02 -0.26218392163E+01  0.32983825327E+02  0.00000000000E+00 0.  1.
         13    1    4    4    0    0 -0.53445232619E+02 -0.67832946646E+02 -0.12641679754E+03  0.15309770815E+03  0.00000000000E+00 0. -1.
         21    1    1    2  502  501  0.40359233373E+02  0.24627538051E+02 -0.11065214498E+03  0.12032988215E+03  0.00000000000E+00 0.  1.
<scales pt_clust_5="13000.00000" pt_clust_6="13000.00000" pt_clust_7="13000.00000" pt_clust_8="13000.00000" pt_clust_9="47.27984"></scales>
<clustering>
<clus scale="   47.280">  2  9  1 -1</clus>
<clus scale="   87.316">  7  8 -1 -1</clus>
<clus scale="   90.943">  5  6 -1 -1</clus>
<clus scale="  118.495">  2  7  1 -1</clus>
<clus scale="   47.280">  2  5  1 -1</clus>
</clustering>
</event>
<event>
 9    1  0.1234700E-005  0.9871303E+02  0.7546771E-02  0.1283776E+00
          2   -1    0    0  502    0  0.00000000000E+00  0.00000000000E+00  0.31074801959E+03  0.31074801959E+03  0.00000000000E+00 0. -1.
         -2   -1    0    0    0  501 -0.00000000000E+00 -0.00000000000E+00 -0.14808070198E+03  0.14808070198E+03  0.00000000000E+00 0.  1.
         23    2    1    2    0    0 -0.15929170213E+02  0.20042259395E+02 -0.10286221837E+03  0.14167277776E+03  0.93995262466E+02 0.  0.
         23    2    1    2    0    0 -0.27199800807E+02 -0.43439881223E+02  0.23654042936E+03  0.26016537309E+03  0.95434764053E+02 0.  0.
        -13    1    3    3    0    0 -0.52037634115E+02 -0.60804561468E+01 -0.48683615592E+02  0.71519100514E+02  0.00000000000E+00 0. -1.
         13    1    3    3    0    0  0.36108463902E+02  0.26122715542E+02 -0.54178602777E+02  0.70153677249E+02  0.00000000000E+00 0.  1.
        -13    1    4    4    0    0  0.30145066383E+02 -0.15980730508E+02  0.14333222570E+03  0.14733714976E+03  0.00000000000E+00 0.  1.
         13    1    4    4    0    0 -0.57344867191E+02 -0.27459150714E+02  0.93208203656E+02  0.11282822333E+03  0.00000000000E+00 0. -1.
         21    1    1    2  502  501  0.43128971020E+02  0.23397621827E+02  0.28989106614E+02  0.56990570717E+02  0.00000000000E+00 0.  1.
<scales pt_clust_5="13000.00000" pt_clust_6="13000.00000" pt_clust_7="13000.00000" pt_clust_8="13000.00000" pt_clust_9="49.06686"></scales>
<clustering>
<clus scale="   49.067">  1  9  2 -1</clus>
<clus scale="   93.995">  5  6 -1 -1</clus>
<clus scale="   95.435">  7  8 -1 -1</clus>
<clus scale="   97.322">  2  5  1 -1</clus>
<clus scale="   49.067">  1  5  2 -1</clus>
</clustering>
</event>
<event>
 9    1  0.1234700E-005  0.1078904E+03  0.7546771E-02  0.1271522E+00
         -2   -1    0    0    0  501 -0.00000000000E+00  0.00000000000E+00  0.41139685014E+02  0.41139685014E+02  0.00000000000E+00 0.  1.
          2   -1    0    0  502    0  0.00000000000E+00 -0.00000000000E+00 -0.44749056520E+03  0.44749056520E+03  0.00000000000E+00 0. -1.
         23    2    1    2    0    0 -0.41206593855E+02  0.34087339283E+01 -0.10425958902E+03  0.14357673859E+03  0.89636014617E+02 0.  0.
         23    2    1    2    0    0  0.39958447045E+01 -0.29355735994E+02 -0.14073561919E+03  0.17744223621E+03  0.10393029718E+03 0.  0.
        -13    1    4    4    0    0 -0.34070756503E+02 -0.52552694332E+02 -0.71001414876E+02  0.94677362894E+02  0.00000000000E+00 0. -1.
         13    1    4    4    0    0  0.38066601207E+02  0.23196958338E+02 -0.69734204312E+02  0.82764873314E+02  0.00000000000E+00 0.  1.
        -13    1    3    3    0    0 -0.59192337126E+01  0.26195643327E+02 -0.97375560030E+02  0.10101113180E+03  0.00000000000E+00 0.  1.
         13    1    3    3    0    0 -0.35287360142E+02 -0.22786909399E+02 -0.68840289920E+01  0.42565606785E+02  0.00000000000E+00 0. -1.
         21    1    1    2  502  501  0.37210749150E+02  0.25947002065E+02 -0.16135567197E+03  0.16761127542E+03  0.00000000000E+00 0.  1.
<scales pt_clust_5="13000.00000" pt_clust_6="13000.00000" pt_clust_7="13000.00000" pt_clust_8="13000.00000" pt_clust_9="45.36394"></scales>
<clustering>
<clus scale="   45.364">  2  9  1 -1</clus>
<clus scale="   89.636">  7  8 -1 -1</clus>
<clus scale="   94.199">  1  7  2 -1</clus>
<clus scale="  103.930">  5  6 -1 -1</clus>
<clus scale="   45.364">  2  5  1 -1</clus>
</clustering>
</event>
<event>
 9    1  0.1503432E-005  0.2375859E+03  0.7546771E-02  0.1121445E+00
         -2   -1    0    0    0  501 -0.00000000000E+00  0.00000000000E+00  0.10856847287E+04  0.10856847287E+04  0.00000000000E+00 0.  1.
          2   -1    0    0  502    0  0.00000000000E+00 -0.00000000000E+00 -0.10956309188E+03  0.10956309188E+03  0.00000000000E+00 0. -1.
         23    2    1    2    0    0  0.98167449178E+02 -0.19655107710E+03  0.87248282942E+03  0.90440787825E+03  0.91968193496E+02 0.  0.
         23    2    1    2    0    0 -0.12435738065E+03  0.17848486005E+03  0.73877574114E+02  0.24727353653E+03  0.91458747641E+02 0.  0.
        -13    1    3    3    0    0  0.16761831333E+02 -0.12329092063E+02  0.21517097078E+02  0.29932440050E+02  0.00000000000E+00 0. -1.
         13    1    3    3    0    0  0.81405617845E+02 -0.18422198503E+03  0.85096573235E+03  0.87447543820E+03  0.00000000000E+00 0.  1.
        -13    1    4    4    0    0 -0.97504096122E+02  0.18358029538E+03  0.71572670180E+02  0.21984408277E+03  0.00000000000E+00 0. -1.
         13    1    4    4    0    0 -0.26853284529E+02 -0.50954353309E+01  0.23049039342E+01  0.27429453756E+02  0.00000000000E+00 0.  1.
         21    1    1    2  502  501  0.26189931473E+02  0.18066217049E+02  0.29761233299E+02  0.43566405825E+02  0.00000000000E+00 0. -1.
<scales pt_clust_5="13000.00000" pt_clust_6="13000.00000" pt_clust_7="13000.00000" pt_clust_8="13000.00000" pt_clust_9="31.81667"></scales>
<clustering>
<clus scale="   31.817">  2  9  1 -1</clus>
<clus scale="   91.459">  7  8 -1 -1</clus>
<clus scale="   91.968">  5  6 -1 -1</clus>
<clus scale="  237.389">  2  7  1 -1</clus>
<clus scale="   31.817">  2  5  1 -1</clus>
</clustering>
</event>
<event>
 9    1  0.1234700E-005  0.1135368E+03  0.7546771E-02  0.1256856E+00
          1   -1    0    0  502    0  0.00000000000E+00  0.00000000000E+00  0.13717936844E+03  0.13717936844E+03  0.00000000000E+00 0. -1.
         -1   -1    0    0    0  501 -0.00000000000E+00 -0.00000000000E+00 -0.11354379217E+03  0.11354379217E+03  0.00000000000E+00 0.  1.
         23    2    1    2    0    0  0.21631282725E+02  0.53653877262E+02  0.61427663752E+00  0.11418044000E+03  0.98438532111E+02 0.  0.
         23    2    1    2    0    0 -0.38400346096E+02 -0.42267687475E+02  0.28524999070E+01  0.10794853788E+03  0.91562034102E+02 0.  0.
        -11    1    4    4    0    0  0.57657972026E+01 -0.24181884046E+02 -0.37809278380E+02  0.45249855967E+02  0.00000000000E+00 0.  1.
         11    1    4    4    0    0 -0.44166143298E+02 -0.18085803429E+02  0.40661778287E+02  0.62698681908E+02  0.00000000000E+00 0. -1.
        -11    1    3    3    0    0  0.55415207794E+02  0.14753954549E+02 -0.16864366115E+02  0.59774001658E+02  0.00000000000E+00 0.  1.
         11    1    3    3    0    0 -0.33783925069E+02  0.38899922713E+02  0.17478642753E+02  0.54406438338E+02  0.00000000000E+00 0. -1.
         21    1    1    2  502  501  0.16769063371E+02 -0.11386189787E+02  0.20168799724E+02  0.28594182739E+02  0.00000000000E+00 0.  1.
<scales pt_clust_5="13000.00000" pt_clust_6="13000.00000" pt_clust_7="13000.00000" pt_clust_8="13000.00000" pt_clust_9="20.26936"></scales>
<clustering>
<clus scale="   20.269">  1  9  2 -1</clus>
<clus scale="   91.562">  5  6 -1 -1</clus>
<clus scale="   98.439">  7  8 -1 -1</clus>
<clus scale="  107.629">  1  5  2 -1</clus>
<clus scale="   20.269">  1  5  2 -1</clus>
</clustering>
</event>
<event>
 9    1  0.1234700E-005  0.9665889E+02  0.7546771E-02  0.1288747E+00
          2   -1    0    0  502    0  0.00000000000E+00  0.00000000000E+00  0.52317042754E+03  0.52317042754E+03  0.00000000000E+00 0. -1.
         -2   -1    0    0    0  501 -0.00000000000E+00 -0.00000000000E+00 -0.19156761604E+03  0.19156761604E+03  0.00000000000E+00 0.  1.
         23    2    1    2    0    0  0.24567953444E+02  0.10568542087E+02 -0.15282638680E+03  0.17942254269E+03  0.90118066469E+02 0.  0.
         23    2    1    2    0    0 -0.74301900499E+02  0.59322445339E+02  0.21563699003E+03  0.25316754886E+03  0.92490925975E+02 0.  0.
        -11    1    3    3    0    0 -0.28659245138E+02  0.20208837263E+02 -0.33911822991E+02  0.48782795881E+02  0.00000000000E+00 0.  1.
         11    1    3    3    0    0  0.53227198582E+02 -0.96402951758E+01 -0.11891456381E+03  0.13063974681E+03  0.00000000000E+00 0. -1.
        -13    1    4    4    0    0  0.77100100645E+01  0.32553935204E+02  0.11905582862E+03  0.12366686412E+03  0.00000000000E+00 0. -1.
         13    1    4    4    0    0 -0.82011910563E+02  0.26768510135E+02  0.96581161407E+02  0.12950068474E+03  0.00000000000E+00 0.  1.
         21    1    1    2  502  501  0.49733947054E+02 -0.69890987426E+02  0.26879220827E+03  0.28214795204E+03  0.00000000000E+00 0. -1.
<scales pt_clust_5="13000.00000" pt_clust_6="13000.00000" pt_clust_7="13000.00000" pt_clust_8="13000.00000" pt_clust_9="85.78004"></scales>
<clustering>
<clus scale="   85.780">  1  9  2 -1</clus>
<clus scale="   90.118">  5  6 -1 -1</clus>
<clus scale="   92.491">  7  8 -1 -1</clus>
<clus scale="   94.391">  2  5  1 -1</clus>
<clus scale="   85.780">  1  5  2 -1</clus>
</clustering>
</event>
<event>
 9    1  0.1234700E-005  0.1015894E+03  0.7546771E-02  0.1278133E+00
          1   -1    0    0  502    0  0.00000000000E+00  0.00000000000E+00  0.30498328097E+02  0.30498328097E+02  0.00000000000E+00 0. -1.
         -1   -1    0    0    0  501 -0.00000000000E+00 -0.00000000000E+00 -0.51608758192E+03  0.51608758192E+03  0.00000000000E+00 0.  1.
         23    2    1    2    0    0 -0.12436463605E+01  0.49445832836E+02 -0.32506408506E+03  0.34194104036E+03  0.93864682615E+02 0.  0.
         23    2    1    2    0    0  0.10139350933E+02 -0.17446288792E+02 -0.11636806211E+03  0.14939132275E+03  0.91482577588E+02 0.  0.
        -11    1    3    3    0    0 -0.38701413345E+02 -0.53263124443E+01 -0.10235692312E+03  0.10955869984E+03  0.00000000000E+00 0.  1.
         11    1    3    3    0    0  0.37457766984E+02  0.54772145280E+02 -0.22270716194E+03  0.23238234052E+03  0.00000000000E+00 0. -1.
        -11    1    4    4    0    0 -0.40923723295E+02 -0.68602799416E+01 -0.53683327752E+02  0.67850676104E+02  0.00000000000E+00 0.  1.
         11    1    4    4    0    0  0.51063074229E+02 -0.10586008850E+02 -0.62684734359E+02  0.81540646641E+02  0.00000000000E+00 0. -1.
         21    1    1    2  502  501 -0.88957045729E+01 -0.31999544044E+02 -0.44157106651E+02  0.55253546915E+02  0.00000000000E+00 0.  1.
<scales pt_clust_5="13000.00000" pt_clust_6="13000.00000" pt_clust_7="13000.00000" pt_clust_8="13000.00000" pt_clust_9="33.21302"></scales>
<clustering>
<clus scale="   33.213">  1  9  2 -1</clus>
<clus scale="   91.483">  7  8 -1 -1</clus>
<clus scale="   93.865">  5  6 -1 -1</clus>
<clus scale="   99.393">  1  7  2 -1</clus>
<clus scale="   33.213">  1  5  2 -1</clus>
</clustering>
</event>
<event>
 9    1  0.1234700E-005  0.9567725E+02  0.7546771E-02  0.1291761E+00
         -1   -1    0    0    0  501 -0.00000000000E+00  0.00000000000E+00  0.47924563371E+02  0.47924563371E+02  0.00000000000E+00 0.  1.
          1   -1    0    0  502    0  0.00000000000E+00 -0.00000000000E+00 -0.39733749250E+03  0.39733749250E+03  0.00000000000E+00 0. -1.
         23    2    1    2    0    0 -0.20899457107E+02  0.32480618956E+01 -0.42961760004E+02  0.10548645408E+03  0.93991180215E+02 0.  0.
         23    2    1    2    0    0 -0.68175193046E+00 -0.27968559013E+02 -0.13233671769E+03  0.16259576728E+03  0.90231211936E+02 0.  0.
        -11    1    4    4    0    0  0.14046793440E+02 -0.41669794201E+02 -0.19713766006E+02  0.48190421505E+02  0.00000000000E+00 0.  1.
         11    1    4    4    0    0 -0.14728545371E+02  0.13701235188E+02 -0.11262295169E+03  0.11440534577E+03  0.00000000000E+00 0. -1.
        -11    1    3    3    0    0  0.65696702217E+01  0.45469722240E+02 -0.21780798585E+02  0.50843479370E+02  0.00000000000E+00 0. -1.
         11    1    3    3    0    0 -0.27469127329E+02 -0.42221660345E+02 -0.21180961419E+02  0.54642974709E+02  0.00000000000E+00 0.  1.
         21    1    1    2  502  501  0.21581209037E+02  0.24720497117E+02 -0.17411445143E+03  0.17717983452E+03  0.00000000000E+00 0. -1.
<scales pt_clust_5="13000.00000" pt_clust_6="13000.00000" pt_clust_7="13000.00000" pt_clust_8="13000.00000" pt_clust_9="32.81542"></scales>
<clustering>
<clus scale="   32.815">  2  9  1 -1</clus>
<clus scale="   90.231">  5  6 -1 -1</clus>
<clus scale="   91.986">  2  5  1 -1</clus>
<clus scale="   93.991">  7  8 -1 -1</clus>
<clus scale="   32.815">  2  5  1 -1</clus>
</clustering>
</event>
<event>
 9    1  0.1234700E-005  0.1720089E+03  0.7546771E-02  0.1175953E+00
          2   -1    0    0  502    0  0.00000000000E+00  0.00000000000E+00  0.24179829009E+03  0.24179829009E+03  0.00000000000E+00 0. -1.
         -2   -1    0    0    0  501 -0.00000000000E+00 -0.00000000000E+00 -0.21892550532E+03  0.21892550532E+03  0.00000000000E+00 0.  1.
         23    2    1    2    0    0  0.11358101642E+03  0.99597413009E+02 -0.62402141529E+02  0.18625632841E+03  0.89314616032E+02 0.  0.
         23    2    1    2    0    0 -0.87211864132E+02 -0.11147465837E+03 -0.16276085212E+02  0.16887859880E+03  0.90678340733E+02 0.  0.
        -11    1    3    3    0    0  0.66254894710E+02  0.13299303396E+02  0.37293968804E+01  0.67679324354E+02  0.00000000000E+00 0.  1.
         11    1    3    3    0    0  0.47326121707E+02  0.86298109613E+02 -0.66131538410E+02  0.11857700406E+03  0.00000000000E+00 0. -1.
        -13    1    4    4    0    0 -0.55456072253E+02 -0.12250499581E+03 -0.13425546977E+02  0.13514101990E+03  0.00000000000E+00 0.  1.
         13    1    4    4    0    0 -0.31755791879E+02  0.11030337436E+02 -0.28505382348E+01  0.33737578900E+02  0.00000000000E+00 0. -1.
         21    1    1    2  502  501 -0.26369152286E+02  0.11877245364E+02  0.10155101151E+03  0.10558886820E+03  0.00000000000E+00 0. -1.
<scales pt_clust_5="13000.00000" pt_clust_6="13000.00000" pt_clust_7="13000.00000" pt_clust_8="13000.00000" pt_clust_9="28.92060"></scales>
<clustering>
<clus scale="   28.921">  1  9  2 -1</clus>
<clus scale="   89.315">  5  6 -1 -1</clus>
<clus scale="   90.678">  7  8 -1 -1</clus>
<clus scale="  171.294">  2  5  1 -1</clus>
<clus scale="   28.921">  1  5  2 -1</clus>
</clustering>
</event>
<event>
 9    1  0.1234700E-005  0.1254152E+03  0.7546771E-02  0.1236560E+00
         -1   -1    0    0    0  501 -0.00000000000E+00  0.00000000000E+00  0.92637902067E+02  0.92637902067E+02  0.00000000000E+00 0.  1.
          1   -1    0    0  502    0  0.00000000000E+00 -0.00000000000E+00 -0.23092731097E+03  0.23092731097E+03  0.00000000000E+00 0. -1.
         23    2    1    2    0    0  0.72959182542E+02 -0.90056557033E+01 -0.14130601262E+02  0.12465825501E+03  0.99678796634E+02 0.  0.
         23    2    1    2    0    0 -0.75766840400E+02  0.31199836464E+02 -0.74664955680E+02  0.14459207992E+03  0.92833022508E+02 0.  0.
        -11    1    4    4    0    0  0.10439002115E+02 -0.20000068185E+02 -0.21225838856E+02  0.30975986307E+02  0.00000000000E+00 0. -1.
         11    1    4    4    0    0 -0.86205842515E+02  0.51199904649E+02 -0.53439116824E+02  0.11361609361E+03  0.00000000000E+00 0.  1.
        -11    1    3    3    0    0  0.74886779148E+02  0.26662120348E+02 -0.30787815261E+02  0.85245456894E+02  0.00000000000E+00 0. -1.
         11    1    3    3    0    0 -0.19275966062E+01 -0.35667776051E+02  0.16657213999E+02  0.39412798116E+02  0.00000000000E+00 0.  1.
         21    1    1    2  502  501  0.28076578584E+01 -0.22194180761E+02 -0.49493851965E+02  0.54314878114E+02  0.00000000000E+00 0. -1.
<scales pt_clust_5="13000.00000" pt_clust_6="13000.00000" pt_clust_7="13000.00000" pt_clust_8="13000.00000" pt_clust_9="22.37107"></scales>
<clustering>
<clus scale="   22.371">  2  9  1 -1</clus>
<clus scale="   92.833">  5  6 -1 -1</clus>
<clus scale="   99.679">  7  8 -1 -1</clus>
<clus scale="  120.046">  2  5  1 -1</clus>
<clus scale="   22.371">  2  5  1 -1</clus>
</clustering>
</event>
<event>
 9    1  0.1234700E-005  0.1974680E+03  0.7546771E-02  0.1174865E+00
         -1   -1    0    0    0  501 -0.00000000000E+00  0.00000000000E+00  0.24205468194E+03  0.24205468194E+03  0.00000000000E+00 0.  1.
          1   -1    0    0  502    0  0.00000000000E+00 -0.00000000000E+00 -0.52835165358E+03  0.52835165358E+03  0.00000000000E+00 0. -1.
         23    2    1    2    0    0  0.10878582972E+03 -0.34161790385E+02 -0.20674940319E+03  0.25356162219E+03  0.92448882395E+02 0.  0.
         23    2    1    2    0    0  0.64547680151E+02 -0.31979253069E+02 -0.24319359931E+03  0.26946006002E+03  0.90975389870E+02 0.  0.
        -11    1    3    3    0    0  0.12278316020E+03 -0.18494171130E+02 -0.16187801958E+03  0.20401527398E+03  0.00000000000E+00 0. -1.
         11    1    3    3    0    0 -0.13997330475E+02 -0.15667619255E+02 -0.44871383614E+02  0.49546348211E+02  0.00000000000E+00 0.  1.
        -13    1    4    4    0    0 -0.58634754301E+01  0.24747832347E+02 -0.59975498628E+02  0.65145191577E+02  0.00000000000E+00 0.  1.
         13    1    4    4    0    0  0.70411155581E+02 -0.56727085416E+02 -0.18321810068E+03  0.20431486844E+03  0.00000000000E+00 0. -1.
         21    1    1    2  502  501 -0.17333350988E+03  0.66141043455E+02  0.16364603086E+03  0.24738465330E+03  0.00000000000E+00 0.  1.
<scales pt_clust_5="13000.00000" pt_clust_6="13000.00000" pt_clust_7="13000.00000" pt_clust_8="13000.00000" pt_clust_9="174.49018"></scales>
<clustering>
<clus scale="   90.975">  7  8 -1 -1</clus>
<clus scale="   92.449">  5  6 -1 -1</clus>
<clus scale="  116.041">  2  7  1 -1</clus>
<clus scale="  174.490">  1  9  2 -1</clus>
<clus scale="  116.041">  2  5  1 -1</clus>
</clustering>
</event>
<event>
 9    1  0.1234700E-005  0.3024689E+03  0.7546771E-02  0.1084120E+00
          4   -1    0    0  502    0  0.00000000000E+00  0.00000000000E+00  0.14274734032E+04  0.14274734032E+04  0.00000000000E+00 0. -1.
         -4   -1    0    0    0  501 -0.00000000000E+00 -0.00000000000E+00 -0.96464254669E+02  0.96464254669E+02  0.00000000000E+00 0.  1.
         23    2    1    2    0    0  0.41602240875E+02  0.33568277238E+03  0.51405614612E+03  0.62226749906E+03  0.92463230010E+02 0.  0.
         23    2    1    2    0    0 -0.92754026478E+02 -0.22443707566E+03  0.53831389328E+03  0.59731532750E+03  0.89601575882E+02 0.  0.
        -11    1    4    4    0    0 -0.65879828925E+02 -0.66173980436E+02  0.25677921161E+03  0.27323014303E+03  0.00000000000E+00 0. -1.
         11    1    4    4    0    0 -0.26874197553E+02 -0.15826309523E+03  0.28153468167E+03  0.32408518446E+03  0.00000000000E+00 0.  1.
        -11    1    3    3    0    0  0.80680971463E+01  0.30459966312E+03  0.45433419699E+03  0.54705174483E+03  0.00000000000E+00 0.  1.
         11    1    3    3    0    0  0.33534143728E+02  0.31083109262E+02  0.59721949129E+02  0.75215754232E+02  0.00000000000E+00 0. -1.
         21    1    1    2  502  501  0.51151785603E+02 -0.11124569672E+03  0.27863910911E+03  0.30435483130E+03  0.00000000000E+00 0.  1.
<scales pt_clust_5="13000.00000" pt_clust_6="13000.00000" pt_clust_7="13000.00000" pt_clust_8="13000.00000" pt_clust_9="122.44227"></scales>
<clustering>
<clus scale="   89.602">  5  6 -1 -1</clus>
<clus scale="   92.463">  7  8 -1 -1</clus>
<clus scale="  122.442">  1  9  2 -1</clus>
<clus scale="  301.606">  1  5  2 -1</clus>
<clus scale="  122.442">  1  5  2 -1</clus>
</clustering>
</event>
<event>
 9    1  0.1234700E-005  0.1325699E+03  0.7546771E-02  0.1226643E+00
         -1   -1    0    0    0  501 -0.00000000000E+00  0.00000000000E+00  0.37936695916E+03  0.37936695916E+03  0.00000000000E+00 0.  1.
          1   -1    0    0  502    0  0.00000000000E+00 -0.00000000000E+00 -0.60382619984E+02  0.60382619984E+02  0.00000000000E+00 0. -1.
         23    2    1    2    0    0  0.85900177479E+02  0.20015527463E+02  0.20877857848E+03  0.24748029925E+03  0.99390853977E+02 0.  0.
         23    2    1    2    0    0 -0.78216327317E+02 -0.42253871495E+02  0.11261580394E+03  0.16861777239E+03  0.88580191659E+02 0.  0.
        -11    1    3    3    0    0  0.62734454682E+02 -0.23893660365E+01  0.20574502924E+03  0.21511006004E+03  0.00000000000E+00 0.  1.
         11    1    3    3    0    0  0.23165722797E+02  0.22404893499E+02  0.30335492403E+01  0.32370239209E+02  0.00000000000E+00 0. -1.
        -13    1    4    4    0    0 -0.32731565871E+02  0.24648605310E+02  0.19844457204E+02  0.45527042841E+02  0.00000000000E+00 0. -1.
         13    1    4    4    0    0 -0.45484761446E+02 -0.66902476805E+02  0.92771346738E+02  0.12309072955E+03  0.00000000000E+00 0.  1.
         21    1    1    2  502  501 -0.76838501615E+01  0.22238344032E+02 -0.24100432450E+01  0.23651507500E+02  0.00000000000E+00 0.  1.
<scales pt_clust_5="13000.00000" pt_clust_6="13000.00000" pt_clust_7="13000.00000" pt_clust_8="13000.00000" pt_clust_9="23.52840"></scales>
<clustering>
<clus scale="   23.528">  2  9  1 -1</clus>
<clus scale="   88.580">  7  8 -1 -1</clus>
<clus scale="   99.391">  5  6 -1 -1</clus>
<clus scale="  124.670">  2  7  1 -1</clus>
<clus scale="   23.528">  2  5  1 -1</clus>
</clustering>
</event>
<event>
 9    1  0.1234700E-005  0.9838052E+02  0.7546771E-02  0.1285718E+00
         -2   -1    0    0    0  501 -0.00000000000E+00  0.00000000000E+00  0.18988872147E+03  0.18988872147E+03  0.00000000000E+00 0.  1.
          2   -1    0    0  502    0  0.00000000000E+00 -0.00000000000E+00 -0.13377356929E+03  0.13377356929E+03  0.00000000000E+00 0. -1.
         23    2    1    2    0    0 -0.16428196338E+02  0.28649327753E+02  0.11511125101E+03  0.15065943362E+03  0.91416602506E+02 0.  0.
         23    2    1    2    0    0 -0.22621214799E+02 -0.12445445399E+02  0.22055934656E+01  0.98618252196E+02  0.95152963976E+02 0.  0.
        -11    1    3    3    0    0 -0.37138808421E+02  0.49886155446E+02  0.98969462172E+02  0.11688829727E+03  0.00000000000E+00 0.  1.
         11    1    3    3    0    0  0.20710612082E+02 -0.21236827694E+02  0.16141788833E+02  0.33771136345E+02  0.00000000000E+00 0. -1.
        -11    1    4    4    0    0 -0.25182437421E+01  0.29143876160E+02  0.32229516726E+02  0.43525266427E+02  0.00000000000E+00 0.  1.
         11    1    4    4    0    0 -0.20102971056E+02 -0.41589321558E+02 -0.30023923260E+02  0.55092985769E+02  0.00000000000E+00 0. -1.
         21    1    1    2  502  501  0.39049411137E+02 -0.16203882354E+02 -0.61201692292E+02  0.74384604945E+02  0.00000000000E+00 0. -1.
<scales pt_clust_5="13000.00000" pt_clust_6="13000.00000" pt_clust_7="13000.00000" pt_clust_8="13000.00000" pt_clust_9="42.27792"></scales>
<clustering>
<clus scale="   42.278">  2  9  1 -1</clus>
<clus scale="   91.417">  5  6 -1 -1</clus>
<clus scale="   94.771">  1  5  2 -1</clus>
<clus scale="   95.153">  7  8 -1 -1</clus>
<clus scale="   42.278">  2  5  1 -1</clus>
</clustering>
</event>
<event>
 9    1  0.1234700E-005  0.9579640E+02  0.7546771E-02  0.1289948E+00
         -2   -1    0    0    0  501 -0.00000000000E+00  0.00000000000E+00  0.59962524721E+02  0.59962524721E+02  0.00000000000E+00 0.  1.
          2   -1    0    0  502    0  0.00000000000E+00 -0.00000000000E+00 -0.43116881619E+03  0.43116881619E+03  0.00000000000E+00 0. -1.
         23    2    1    2    0    0 -0.22103800644E+01 -0.29518136489E+02 -0.12043108124E+02  0.96752823454E+02  0.91322868063E+02 0.  0.
         23    2    1    2    0    0  0.51499054691E+02  0.14594803839E+02 -0.28805838288E+03  0.30658346092E+03  0.90280815385E+02 0.  0.
        -11    1    3    3    0    0  0.19085760065E+02  0.27441080145E+02  0.45133618371E+01  0.33729060939E+02  0.00000000000E+00 0.  1.
         11    1    3    3    0    0 -0.21296140130E+02 -0.56959216634E+02 -0.16556469961E+02  0.63023762515E+02  0.00000000000E+00 0. -1.
        -13    1    4    4    0    0 -0.23727175462E+02 -0.75925369999E+01 -0.48682135233E+02  0.54686156972E+02  0.00000000000E+00 0. -1.
         13    1    4    4    0    0  0.75226230154E+02  0.22187340838E+02 -0.23937624765E+03  0.25189730395E+03  0.00000000000E+00 0.  1.
         21    1    1    2  502  501 -0.49288674627E+02  0.14923332651E+02 -0.71104800461E+02  0.87795056537E+02  0.00000000000E+00 0. -1.
<scales pt_clust_5="13000.00000" pt_clust_6="13000.00000" pt_clust_7="13000.00000" pt_clust_8="13000.00000" pt_clust_9="51.49834"></scales>
<clustering>
<clus scale="   51.498">  2  9  1 -1</clus>
<clus scale="   90.281">  7  8 -1 -1</clus>
<clus scale="   91.323">  5  6 -1 -1</clus>
<clus scale="   94.804">  2  7  1 -1</clus>
<clus scale="   51.498">  2  5  1 -1</clus>
</clustering>
</event>
<event>
 9    1  0.1234700E-005  0.1349434E+03  0.7546771E-02  0.1224017E+00
          2   -1    0    0  502    0  0.00000000000E+00  0.00000000000E+00  0.63727696743E+03  0.63727696743E+03  0.00000000000E+00 0. -1.
         -2   -1    0    0    0  501 -0.00000000000E+00 -0.00000000000E+00 -0.98793619417E+02  0.98793619417E+02  0.00000000000E+00 0.  1.
         23    2    1    2    0    0  0.12209654747E+03 -0.59833489161E+02  0.16416657442E+02  0.16477951341E+03  0.91625149757E+02 0.  0.
         23    2    1    2    0    0 -0.61333389592E+02  0.49838006743E+02  0.47757606238E+03  0.49532076990E+03  0.10496741464E+03 0.  0.
        -11    1    3    3    0    0  0.16810892276E+02  0.19602941024E+02  0.20274861453E+02  0.32832170243E+02  0.00000000000E+00 0. -1.
         11    1    3    3    0    0  0.10528565519E+03 -0.79436430185E+02 -0.38582040112E+01  0.13194734316E+03  0.00000000000E+00 0.  1.
        -13    1    4    4    0    0  0.23705524020E+02 -0.84729903641E+01  0.14360044611E+03  0.14579036854E+03  0.00000000000E+00 0.  1.
         13    1    4    4    0    0 -0.85038913612E+02  0.58310997107E+02  0.33397561627E+03  0.34953040136E+03  0.00000000000E+00 0. -1.
         21    1    1    2  502  501 -0.60763157876E+02  0.99954824183E+01  0.44490628190E+02  0.75970303544E+02  0.00000000000E+00 0. -1.
<scales pt_clust_5="13000.00000" pt_clust_6="13000.00000" pt_clust_7="13000.00000" pt_clust_8="13000.00000" pt_clust_9="61.57979"></scales>
<clustering>
<clus scale="   61.580">  2  9  1 -1</clus>
<clus scale="   91.625">  5  6 -1 -1</clus>
<clus scale="  104.967">  7  8 -1 -1</clus>
<clus scale="  124.847">  2  5  1 -1</clus>
<clus scale="  134.943">  1  5  2 -1</clus>
</clustering>
</event>
<event>
 9    1  0.1234700E-005  0.1570061E+03  0.7546771E-02  0.1193015E+00
          1   -1    0    0  502    0  0.00000000000E+00  0.00000000000E+00  0.44505495668E+03  0.44505495668E+03  0.00000000000E+00 0. -1.
         -1   -1    0    0    0  501 -0.00000000000E+00 -0.00000000000E+00 -0.17773674238E+03  0.17773674238E+03  0.00000000000E+00 0.  1.
         23    2    1    2    0    0 -0.12579671324E+03 -0.68563502511E+02 -0.78469722470E+02  0.18752100218E+03  0.92091595587E+02 0.  0.
         23    2    1    2    0    0  0.10384275475E+03 -0.37264491937E+01  0.76295823299E+02  0.15538891355E+03  0.86760922454E+02 0.  0.
        -11    1    4    4    0    0  0.72307942104E+02  0.37217541186E+02  0.60462551661E+02  0.10133757455E+03  0.00000000000E+00 0.  1.
         11    1    4    4    0    0  0.31534812641E+02 -0.40943990380E+02  0.15833271638E+02  0.54051338996E+02  0.00000000000E+00 0. -1.
        -11    1    3    3    0    0 -0.10352226892E+03 -0.40437074973E+02 -0.96661953372E+02  0.14729409501E+03  0.00000000000E+00 0.  1.
         11    1    3    3    0    0 -0.22274444318E+02 -0.28126427538E+02  0.18192230903E+02  0.40226907175E+02  0.00000000000E+00 0. -1.
         21    1    1    2  502  501  0.21953958491E+02  0.72289951705E+02  0.26949211347E+03  0.27988178332E+03  0.00000000000E+00 0. -1.
<scales pt_clust_5="13000.00000" pt_clust_6="13000.00000" pt_clust_7="13000.00000" pt_clust_8="13000.00000" pt_clust_9="75.55007"></scales>
<clustering>
<clus scale="   75.550">  1  9  2 -1</clus>
<clus scale="   86.761">  5  6 -1 -1</clus>
<clus scale="   92.092">  7  8 -1 -1</clus>
<clus scale="  153.940">  1  5  2 -1</clus>
<clus scale="   75.550">  1  5  2 -1</clus>
</clustering>
</event>
<event>
 9    1  0.1234700E-005  0.1154584E+03  0.7546771E-02  0.1251708E+00
         -2   -1    0    0    0  501 -0.00000000000E+00  0.00000000000E+00  0.27734390609E+03  0.27734390609E+03  0.00000000000E+00 0.  1.
          2   -1    0    0  502    0  0.00000000000E+00 -0.00000000000E+00 -0.22437061789E+03  0.22437061789E+03  0.00000000000E+00 0. -1.
         23    2    1    2    0    0  0.77876415545E+02 -0.19322140699E+02  0.22233601148E+03  0.25282191304E+03  0.89708062574E+02 0.  0.
         23    2    1    2    0    0 -0.58039847422E+02  0.36935069637E+02 -0.18513415833E+03  0.21803093789E+03  0.92358053468E+02 0.  0.
        -11    1    4    4    0    0 -0.61989020493E+02 -0.71230715347E+01 -0.14674882856E+03  0.15946346132E+03  0.00000000000E+00 0. -1.
         11    1    4    4    0    0  0.39491730710E+01  0.44058141171E+02 -0.38385329761E+02  0.58567476574E+02  0.00000000000E+00 0.  1.
        -11    1    3    3    0    0  0.49735251732E+02 -0.54699270818E+02  0.15487767319E+03  0.17161788702E+03  0.00000000000E+00 0.  1.
         11    1    3    3    0    0  0.28141163813E+02  0.35377130118E+02  0.67458338297E+02  0.81204026020E+02  0.00000000000E+00 0. -1.
         21    1    1    2  502  501 -0.19836568123E+02 -0.17612928937E+02  0.15771435039E+02  0.30861673056E+02  0.00000000000E+00 0.  1.
<scales pt_clust_5="13000.00000" pt_clust_6="13000.00000" pt_clust_7="13000.00000" pt_clust_8="13000.00000" pt_clust_9="26.52743"></scales>
<clustering>
<clus scale="   26.527">  1  9  2 -1</clus>
<clus scale="   89.708">  7  8 -1 -1</clus>
<clus scale="   92.358">  5  6 -1 -1</clus>
<clus scale="  113.350">  1  7  2 -1</clus>
<clus scale="  115.458">  2  5  1 -1</clus>
</clustering>
</event>
<event>
 9    1  0.1234700E-005  0.9584270E+02  0.7546771E-02  0.1292019E+00
          2   -1    0    0  502    0  0.00000000000E+00  0.00000000000E+00  0.19368980417E+03  0.19368980417E+03  0.00000000000E+00 0. -1.
         -2   -1    0    0    0  501 -0.00000000000E+00 -0.00000000000E+00 -0.11381744760E+03  0.11381744760E+03  0.00000000000E+00 0.  1.
         23    2    1    2    0    0  0.24295897762E+02 -0.42354943208E+02 -0.48435111403E+02  0.11580400966E+03  0.93168539620E+02 0.  0.
         23    2    1    2    0    0 -0.10007305826E+02  0.15031835719E+02  0.13287724635E+03  0.16053276029E+03  0.88251358478E+02 0.  0.
        -11    1    4    4    0    0 -0.17998870797E+02 -0.33534224113E+02  0.38754065811E+02  0.54317411147E+02  0.00000000000E+00 0. -1.
         11    1    4    4    0    0  0.79915649707E+01  0.48566059833E+02  0.94123180544E+02  0.10621534915E+03  0.00000000000E+00 0.  1.
        -13    1    3    3    0    0 -0.30999037167E+02 -0.30586058368E+02 -0.36872746725E+01  0.43704041761E+02  0.00000000000E+00 0.  1.
         13    1    3    3    0    0  0.55294934929E+02 -0.11768884840E+02 -0.44747836731E+02  0.72099967901E+02  0.00000000000E+00 0. -1.
         21    1    1    2  502  501 -0.14288591935E+02  0.27323107489E+02 -0.45697783729E+01  0.31170481817E+02  0.00000000000E+00 0.  1.
<scales pt_clust_5="13000.00000" pt_clust_6="13000.00000" pt_clust_7="13000.00000" pt_clust_8="13000.00000" pt_clust_9="30.83368"></scales>
<clustering>
<clus scale="   30.834">  2  9  1 -1</clus>
<clus scale="   88.251">  5  6 -1 -1</clus>
<clus scale="   91.070">  1  5  2 -1</clus>
<clus scale="   93.169">  7  8 -1 -1</clus>
<clus scale="   91.070">  1  5  2 -1</clus>
</clustering>
</event>
<event>
 9    1  0.1234700E-005  0.1009497E+03  0.7546771E-02  0.1281066E+00
          1   -1    0    0  502    0  0.00000000000E+00  0.00000000000E+00  0.40781812680E+03  0.40781812680E+03  0.00000000000E+00 0. -1.
         -1   -1    0    0    0  501 -0.00000000000E+00 -0.00000000000E+00 -0.28878029004E+03  0.28878029004E+03  0.00000000000E+00 0.  1.
         23    2    1    2    0    0  0.42904021814E+02 -0.73779924133E+01 -0.27026335445E+03  0.28864718767E+03  0.91540856080E+02 0.  0.
         23    2    1    2    0    0 -0.87986332279E+01  0.12180605407E+02  0.29282730256E+03  0.30551366862E+03  0.85819516963E+02 0.  0.
        -11    1    3    3    0    0 -0.24674169064E+02 -0.16857450544E+02 -0.52114084390E+02  0.60073838313E+02  0.00000000000E+00 0. -1.
         11    1    3    3    0    0  0.67578190878E+02  0.94794581311E+01 -0.21814927006E+03  0.22857334936E+03  0.00000000000E+00 0.  1.
        -13    1    4    4    0    0  0.38389982988E+02  0.10946984211E+02  0.13431864344E+03  0.14012539111E+03  0.00000000000E+00 0.  1.
         13    1    4    4    0    0 -0.47188616216E+02  0.12336211965E+01  0.15850865912E+03  0.16538827751E+03  0.00000000000E+00 0. -1.
         21    1    1    2  502  501 -0.34105388586E+02 -0.48026129942E+01  0.96473888646E+02  0.10243756056E+03  0.00000000000E+00 0. -1.
<scales pt_clust_5="13000.00000" pt_clust_6="13000.00000" pt_clust_7="13000.00000" pt_clust_8="13000.00000" pt_clust_9="34.44187"></scales>
<clustering>
<clus scale="   34.442">  1  9  2 -1</clus>
<clus scale="   85.820">  7  8 -1 -1</clus>
<clus scale="   91.541">  5  6 -1 -1</clus>
<clus scale="   95.792">  1  7  2 -1</clus>
<clus scale="   34.442">  1  5  2 -1</clus>
</clustering>
</event>
<event>
 9    1  0.1234700E-005  0.3660090E+03  0.7546771E-02  0.1095609E+00
          3   -1    0    0  502    0  0.00000000000E+00  0.00000000000E+00  0.44215144035E+03  0.44215144035E+03  0.00000000000E+00 0. -1.
         -3   -1    0    0    0  501 -0.00000000000E+00 -0.00000000000E+00 -0.57002342425E+03  0.57002342425E+03  0.00000000000E+00 0.  1.
         23    2    1    2    0    0 -0.42111739637E+02  0.71906763712E+02 -0.23901003898E+03  0.27001200518E+03  0.94003738881E+02 0.  0.
         23    2    1    2    0    0  0.34944770258E+03  0.95737558446E+02  0.11922929024E+03  0.39198364680E+03  0.90311564967E+02 0.  0.
        -11    1    3    3    0    0 -0.15721771795E+02  0.76213316626E+02 -0.22831684877E+03  0.24121406918E+03  0.00000000000E+00 0.  1.
         11    1    3    3    0    0 -0.26389967842E+02 -0.43065529131E+01 -0.10693190211E+02  0.28797935995E+02  0.00000000000E+00 0. -1.
        -13    1    4    4    0    0  0.61758524207E+02  0.55275009480E+02  0.25406270587E+02  0.86688641531E+02  0.00000000000E+00 0.  1.
         13    1    4    4    0    0  0.28768917838E+03  0.40462548966E+02  0.93823019655E+02  0.30529500527E+03  0.00000000000E+00 0. -1.
         21    1    1    2  502  501 -0.30733596295E+03 -0.16764432216E+03 -0.80912351592E+01  0.35017921263E+03  0.00000000000E+00 0.  1.
<scales pt_clust_5="13000.00000" pt_clust_6="13000.00000" pt_clust_7="13000.00000" pt_clust_8="13000.00000" pt_clust_9="354.69198"></scales>
<clustering>
<clus scale="   90.312">  7  8 -1 -1</clus>
<clus scale="   94.004">  5  6 -1 -1</clus>
<clus scale="  125.621">  2  5  1 -1</clus>
<clus scale="  354.692">  2  9  1 -1</clus>
<clus scale="  366.009">  1  5  2 -1</clus>
</clustering>
</event>
<event>
 9    1  0.1234700E-005  0.1345090E+03  0.7546771E-02  0.1225221E+00
          2   -1    0    0  502    0  0.00000000000E+00  0.00000000000E+00  0.42669440539E+03  0.42669440539E+03  0.00000000000E+00 0. -1.
         -2   -1    0    0    0  501 -0.00000000000E+00 -0.00000000000E+00 -0.56637877655E+02  0.56637877655E+02  0.00000000000E+00 0.  1.
         23    2    1    2    0    0 -0.10008229549E+03  0.29105008882E+02  0.81124412549E+02  0.16002841410E+03  0.90356823747E+02 0.  0.
         23    2    1    2    0    0  0.92467998054E+02 -0.56073890031E+01  0.20948466483E+03  0.24010523293E+03  0.72006420599E+02 0.  0.
        -11    1    4    4    0    0  0.34351742424E+02  0.32321266214E+02  0.71571718456E+02  0.85715910658E+02  0.00000000000E+00 0.  1.
         11    1    4    4    0    0  0.58116255630E+02 -0.37928655217E+02  0.13791294637E+03  0.15438932227E+03  0.00000000000E+00 0. -1.
        -11    1    3    3    0    0 -0.73332598504E+02 -0.56263917110E+01  0.69604541095E+01  0.73876750121E+02  0.00000000000E+00 0.  1.
         11    1    3    3    0    0 -0.26749696983E+02  0.34731400593E+02  0.74163958439E+02  0.86151663984E+02  0.00000000000E+00 0. -1.
         21    1    1    2  502  501  0.76142974333E+01 -0.23497619879E+02  0.79447450359E+02  0.83198636010E+02  0.00000000000E+00 0. -1.
<scales pt_clust_5="13000.00000" pt_clust_6="13000.00000" pt_clust_7="13000.00000" pt_clust_8="13000.00000" pt_clust_9="24.70052"></scales>
<clustering>
<clus scale="   24.701">  1  9  2 -1</clus>
<clus scale="   72.006">  5  6 -1 -1</clus>
<clus scale="   90.357">  7  8 -1 -1</clus>
<clus scale="  122.936">  1  5  2 -1</clus>
<clus scale="   24.701">  1  5  2 -1</clus>
</clustering>
</event>
<event>
 9    1  0.1234700E-005  0.1036423E+03  0.7546771E-02  0.1273938E+00
         -1   -1    0    0    0  501 -0.00000000000E+00  0.00000000000E+00  0.59182423463E+03  0.59182423463E+03  0.00000000000E+00 0.  1.
          1   -1    0    0  502    0  0.00000000000E+00 -0.00000000000E+00 -0.36063498459E+02  0.36063498459E+02  0.00000000000E+00 0. -1.
         23    2    1    2    0    0 -0.34063623918E+02 -0.19555485332E+02  0.43566043432E+03  0.44748460196E+03  0.94338260978E+02 0.  0.
         23    2    1    2    0    0  0.41728848945E+02  0.38803926506E+02  0.11722733347E+03  0.15948634099E+03  0.91905406272E+02 0.  0.
        -13    1    4    4    0    0  0.67212770624E+02  0.17954145914E+02  0.10135522132E+03  0.12293408307E+03  0.00000000000E+00 0. -1.
         13    1    4    4    0    0 -0.25483921679E+02  0.20849780592E+02  0.15872112149E+02  0.36552257919E+02  0.00000000000E+00 0.  1.
        -13    1    3    3    0    0 -0.26827460806E+02 -0.53772045423E+02  0.34719280393E+03  0.35235491855E+03  0.00000000000E+00 0.  1.
         13    1    3    3    0    0 -0.72361631117E+01  0.34216560090E+02  0.88467630385E+02  0.95129683417E+02  0.00000000000E+00 0. -1.
         21    1    1    2  502  501 -0.76652250268E+01 -0.19248441174E+02  0.28729683828E+01  0.20916790138E+02  0.00000000000E+00 0. -1.
<scales pt_clust_5="13000.00000" pt_clust_6="13000.00000" pt_clust_7="13000.00000" pt_clust_8="13000.00000" pt_clust_9="20.71855"></scales>
<clustering>
<clus scale="   20.719">  2  9  1 -1</clus>
<clus scale="   91.905">  5  6 -1 -1</clus>
<clus scale="   94.338">  7  8 -1 -1</clus>
<clus scale="  101.433">  2  5  1 -1</clus>
<clus scale="   20.719">  2  5  1 -1</clus>
</clustering>
</event>
<event>
 9    1  0.1234700E-005  0.1603140E+03  0.7546771E-02  0.1188643E+00
          2   -1    0    0  502    0  0.00000000000E+00  0.00000000000E+00  0.45331268491E+03  0.45331268491E+03  0.00000000000E+00 0. -1.
         -2   -1    0    0    0  501 -0.00000000000E+00 -0.00000000000E+00 -0.83154558320E+02  0.83154558320E+02  0.00000000000E+00 0.  1.
         23    2    1    2    0    0  0.85393237089E+02  0.63052355113E+02  0.13297464015E+03  0.19353839540E+03  0.92234761042E+02 0.  0.
         23    2    1    2    0    0 -0.12585134611E+03 -0.95911572587E+02  0.13030612145E+03  0.22401981578E+03  0.90374783529E+02 0.  0.
        -11    1    3    3    0    0  0.23553430727E+02  0.70305813388E+02  0.95362654262E+02  0.12079613952E+03  0.00000000000E+00 0.  1.
         11    1    3    3    0    0  0.61839806362E+02 -0.72534582748E+01  0.37611985890E+02  0.72742255879E+02  0.00000000000E+00 0. -1.
        -11    1    4    4    0    0 -0.97956048895E+02 -0.89626003827E+02  0.55444495675E+02  0.14388293915E+03  0.00000000000E+00 0.  1.
         11    1    4    4    0    0 -0.27895297214E+02 -0.62855687602E+01  0.74861625780E+02  0.80136876628E+02  0.00000000000E+00 0. -1.
         21    1    1    2  502  501  0.40458109021E+02  0.32859217474E+02  0.10687736498E+03  0.11890903206E+03  0.00000000000E+00 0. -1.
<scales pt_clust_5="13000.00000" pt_clust_6="13000.00000" pt_clust_7="13000.00000" pt_clust_8="13000.00000" pt_clust_9="52.12089"></scales>
<clustering>
<clus scale="   52.121">  1  9  2 -1</clus>
<clus scale="   90.375">  7  8 -1 -1</clus>
<clus scale="   92.235">  5  6 -1 -1</clus>
<clus scale="  159.251">  1  7  2 -1</clus>
<clus scale="   52.121">  1  5  2 -1</clus>
</clustering>
</event>
<event>
 9    1  0.1234700E-005  0.1023371E+03  0.7546771E-02  0.1279853E+00
          2   -1    0    0  502    0  0.00000000000E+00  0.00000000000E+00  0.29008842738E+03  0.29008842738E+03  0.00000000000E+00 0. -1.
         -2   -1    0    0    0  501 -0.00000000000E+00 -0.00000000000E+00 -0.52912973609E+02  0.52912973609E+02  0.00000000000E+00 0.  1.
         23    2    1    2    0    0  0.80089729399E+01  0.19493438122E+01  0.62513204449E+02  0.11889434329E+03  0.10079692727E+03 0.  0.
         23    2    1    2    0    0 -0.23832884107E+02 -0.15353670757E+02  0.75110601071E+02  0.12241830308E+03  0.92416973365E+02 0.  0.
        -13    1    4    4    0    0  0.44057199274E+01 -0.31090363407E+02 -0.87043570770E+01  0.32585071689E+02  0.00000000000E+00 0.  1.
         13    1    4    4    0    0 -0.28238604034E+02  0.15736692650E+02  0.83814958148E+02  0.89833231394E+02  0.00000000000E+00 0. -1.
        -13    1    3    3    0    0 -0.28622140469E+02  0.37067304301E+02  0.45703370472E+02  0.65437069354E+02  0.00000000000E+00 0. -1.
         13    1    3    3    0    0  0.36631113409E+02 -0.35117960489E+02  0.16809833977E+02  0.53457273937E+02  0.00000000000E+00 0.  1.
         21    1    1    2  502  501  0.15823911167E+02  0.13404326945E+02  0.99551648247E+02  0.10168875461E+03  0.00000000000E+00 0. -1.
<scales pt_clust_5="13000.00000" pt_clust_6="13000.00000" pt_clust_7="13000.00000" pt_clust_8="13000.00000" pt_clust_9="20.73818"></scales>
<clustering>
<clus scale="   20.738">  1  9  2 -1</clus>
<clus scale="   92.417">  5  6 -1 -1</clus>
<clus scale="   94.094">  1  5  2 -1</clus>
<clus scale="  100.797">  7  8 -1 -1</clus>
<clus scale="   20.738">  1  5  2 -1</clus>
</clustering>
</event>
<event>
 9    1  0.1234700E-005  0.1312064E+03  0.7546771E-02  0.1225768E+00
         -1   -1    0    0    0  501 -0.00000000000E+00  0.00000000000E+00  0.10573961359E+03  0.10573961359E+03  0.00000000000E+00 0.  1.
          1   -1    0    0  502    0  0.00000000000E+00 -0.00000000000E+00 -0.37822286911E+03  0.37822286911E+03  0.00000000000E+00 0. -1.
         23    2    1    2    0    0 -0.72785699104E+01 -0.66064007164E+02  0.29114220728E+02  0.11664252193E+03  0.91325842182E+02 0.  0.
         23    2    1    2    0    0  0.61277965252E+02  0.81845076848E+02 -0.27023120638E+03  0.30290862836E+03  0.90967722869E+02 0.  0.
        -11    1    3    3    0    0  0.38350280650E+02 -0.52445411328E+02  0.21393518548E+02  0.68402834964E+02  0.00000000000E+00 0.  1.
         11    1    3    3    0    0 -0.45628850561E+02 -0.13618595836E+02  0.77207021792E+01  0.48239686962E+02  0.00000000000E+00 0. -1.
        -11    1    4    4    0    0 -0.20567864836E+02 -0.70782049524E+00 -0.38634000262E+02  0.43773554231E+02  0.00000000000E+00 0.  1.
         11    1    4    4    0    0  0.81845830087E+02  0.82552897343E+02 -0.23159720611E+03  0.25913507413E+03  0.00000000000E+00 0. -1.
         21    1    1    2  502  501 -0.53999395341E+02 -0.15781069684E+02 -0.31366269877E+02  0.64411332416E+02  0.00000000000E+00 0.  1.
<scales pt_clust_5="13000.00000" pt_clust_6="13000.00000" pt_clust_7="13000.00000" pt_clust_8="13000.00000" pt_clust_9="56.25813"></scales>
<clustering>
<clus scale="   56.258">  1  9  2 -1</clus>
<clus scale="   90.968">  7  8 -1 -1</clus>
<clus scale="   91.326">  5  6 -1 -1</clus>
<clus scale="  130.957">  2  7  1 -1</clus>
<clus scale="  130.957">  2  5  1 -1</clus>
</clustering>
</event>
<event>
 9    1  0.1234700E-005  0.1696156E+03  0.7546771E-02  0.1178529E+00
          3   -1    0    0  502    0  0.00000000000E+00  0.00000000000E+00  0.36314357940E+03  0.36314357940E+03  0.00000000000E+00 0. -1.
         -3   -1    0    0    0  501 -0.00000000000E+00 -0.00000000000E+00 -0.13670857173E+03  0.13670857173E+03  0.00000000000E+00 0.  1.
         23    2    1    2    0    0 -0.10951785299E+03  0.10821558991E+03 -0.21433570449E+02  0.17924802938E+03  0.89250681067E+02 0.  0.
         23    2    1    2    0    0  0.56189433559E+02 -0.10041598702E+03  0.20255499491E+03  0.25019052258E+03  0.91247732745E+02 0.  0.
        -11    1    4    4    0    0 -0.73227503103E+01 -0.62965101977E+02  0.49941260961E+02  0.80699171529E+02  0.00000000000E+00 0.  1.
         11    1    4    4    0    0  0.63512183869E+02 -0.37450885048E+02  0.15261373395E+03  0.16949135105E+03  0.00000000000E+00 0. -1.
        -13    1    3    3    0    0 -0.21002967908E+02  0.68344396430E+02  0.19161337331E+02  0.74021875366E+02  0.00000000000E+00 0. -1.
         13    1    3    3    0    0 -0.88514885086E+02  0.39871193481E+02 -0.40594907780E+02  0.10522615402E+03  0.00000000000E+00 0.  1.
         21    1    1    2  502  501  0.53328419435E+02 -0.77996028866E+01  0.45313583212E+02  0.70413599171E+02  0.00000000000E+00 0.  1.
<scales pt_clust_5="13000.00000" pt_clust_6="13000.00000" pt_clust_7="13000.00000" pt_clust_8="13000.00000" pt_clust_9="53.89577"></scales>
<clustering>
<clus scale="   53.896">  1  9  2 -1</clus>
<clus scale="   89.251">  7  8 -1 -1</clus>
<clus scale="   91.248">  5  6 -1 -1</clus>
<clus scale="  168.550">  2  7  1 -1</clus>
<clus scale="   53.896">  1  5  2 -1</clus>
</clustering>
</event>
<event>
 9    1  0.1234700E-005  0.1227921E+03  0.7546771E-02  0.1240241E+00
         -3   -1    0    0    0  501 -0.00000000000E+00  0.00000000000E+00  0.66269989637E+03  0.66269989637E+03  0.00000000000E+00 0.  1.
          3   -1    0    0  502    0  0.00000000000E+00 -0.00000000000E+00 -0.51887451292E+02  0.51887451292E+02  0.00000000000E+00 0. -1.
         23    2    1    2    0    0 -0.60030152898E+01  0.82567771395E+02  0.48122371058E+03  0.49692357152E+03  0.92213357184E+02 0.  0.
         23    2    1    2    0    0 -0.35627454242E+01 -0.55374814761E+02  0.14630193036E+03  0.18434273798E+03  0.97462438673E+02 0.  0.
        -11    1    3    3    0    0  0.42745489394E+02  0.34742337657E+02  0.23828039724E+03  0.24456441810E+03  0.00000000000E+00 0. -1.
         11    1    3    3    0    0 -0.48748504684E+02  0.47825433738E+02  0.24294331334E+03  0.25235915343E+03  0.00000000000E+00 0.  1.
        -11    1    4    4    0    0 -0.95698432551E+01  0.27444956925E+02  0.35581715939E+02  0.45944162521E+02  0.00000000000E+00 0.  1.
         11    1    4    4    0    0  0.60070978308E+01 -0.82819771685E+02  0.11072021442E+03  0.13839857545E+03  0.00000000000E+00 0. -1.
         21    1    1    2  502  501  0.95657607141E+01 -0.27192956635E+02 -0.16713195863E+02  0.33321038167E+02  0.00000000000E+00 0. -1.
<scales pt_clust_5="13000.00000" pt_clust_6="13000.00000" pt_clust_7="13000.00000" pt_clust_8="13000.00000" pt_clust_9="28.82639"></scales>
<clustering>
<clus scale="   28.826">  2  9  1 -1</clus>
<clus scale="   92.213">  5  6 -1 -1</clus>
<clus scale="   97.462">  7  8 -1 -1</clus>
<clus scale="  118.669">  1  5  2 -1</clus>
<clus scale="   28.826">  2  5  1 -1</clus>
</clustering>
</event>
<event>
 9    1  0.1234700E-005  0.9766902E+02  0.7546771E-02  0.1286710E+00
          1   -1    0    0  502    0  0.00000000000E+00  0.00000000000E+00  0.43509838036E+03  0.43509838036E+03  0.00000000000E+00 0. -1.
         -1   -1    0    0    0  501 -0.00000000000E+00 -0.00000000000E+00 -0.65637803552E+02  0.65637803552E+02  0.00000000000E+00 0.  1.
         23    2    1    2    0    0  0.18109555675E+02  0.95915743446E+01  0.53058364203E+01  0.92688268779E+02  0.90238622352E+02 0.  0.
         23    2    1    2    0    0 -0.38656903653E+02 -0.52786360377E+02  0.14780251326E+03  0.18647113559E+03  0.92979274253E+02 0.  0.
        -11    1    4    4    0    0 -0.15424861208E+00  0.25999728028E+02  0.33473043829E+02  0.42384599955E+02  0.00000000000E+00 0. -1.
         11    1    4    4    0    0 -0.38502655041E+02 -0.78786088404E+02  0.11432946943E+03  0.14408653563E+03  0.00000000000E+00 0.  1.
        -13    1    3    3    0    0 -0.21846974519E+02  0.36385236635E+02  0.12029597636E+02  0.44112208740E+02  0.00000000000E+00 0.  1.
         13    1    3    3    0    0  0.39956530194E+02 -0.26793662290E+02 -0.67237612154E+01  0.48576060039E+02  0.00000000000E+00 0. -1.
         21    1    1    2  502  501  0.20547347978E+02  0.43194786032E+02  0.21635222713E+03  0.22157677954E+03  0.00000000000E+00 0. -1.
<scales pt_clust_5="13000.00000" pt_clust_6="13000.00000" pt_clust_7="13000.00000" pt_clust_8="13000.00000" pt_clust_9="47.83287"></scales>
<clustering>
<clus scale="   47.833">  1  9  2 -1</clus>
<clus scale="   90.239">  7  8 -1 -1</clus>
<clus scale="   92.979">  5  6 -1 -1</clus>
<clus scale="   95.064">  2  7  1 -1</clus>
<clus scale="   47.833">  1  5  2 -1</clus>
</clustering>
</event>
<event>
 9    1  0.1234700E-005  0.9736209E+02  0.7546771E-02  0.1286752E+00
         -1   -1    0    0    0  501 -0.00000000000E+00  0.00000000000E+00  0.45012808117E+03  0.45012808117E+03  0.00000000000E+00 0.  1.
          1   -1    0    0  502    0  0.00000000000E+00 -0.00000000000E+00 -0.43790106494E+02  0.43790106494E+02  0.00000000000E+00 0. -1.
         23    2    1    2    0    0  0.63881334240E+01 -0.22829934044E+02  0.26244130736E+03  0.27845402917E+03  0.89995513295E+02 0.  0.
         23    2    1    2    0    0 -0.32460917536E+02  0.26058665605E+02  0.35548396093E+02  0.10397621002E+03  0.88400218127E+02 0.  0.
        -11    1    4    4    0    0 -0.12619030437E+02 -0.32797116627E+02  0.17729991637E+02  0.39360429261E+02  0.00000000000E+00 0.  1.
         11    1    4    4    0    0 -0.19841887099E+02  0.58855782231E+02  0.17818404456E+02  0.64615780759E+02  0.00000000000E+00 0. -1.
        -11    1    3    3    0    0 -0.13409842847E+02 -0.52877039028E+02  0.18829245123E+03  0.19603533440E+03  0.00000000000E+00 0.  1.
         11    1    3    3    0    0  0.19797976271E+02  0.30047104984E+02  0.74148856135E+02  0.82418694776E+02  0.00000000000E+00 0. -1.
         21    1    1    2  502  501  0.26072784112E+02 -0.32287315608E+01  0.10834827121E+03  0.11148794847E+03  0.00000000000E+00 0.  1.
<scales pt_clust_5="13000.00000" pt_clust_6="13000.00000" pt_clust_7="13000.00000" pt_clust_8="13000.00000" pt_clust_9="26.27194"></scales>
<clustering>
<clus scale="   26.272">  1  9  2 -1</clus>
<clus scale="   88.400">  5  6 -1 -1</clus>
<clus scale="   89.996">  7  8 -1 -1</clus>
<clus scale="   95.889">  2  5  1 -1</clus>
<clus scale="   95.889">  2  5  1 -1</clus>
</clustering>
</event>
<event>
 9    1  0.1234700E-005  0.1019164E+03  0.7546771E-02  0.1276948E+00
         -1   -1    0    0    0  501 -0.00000000000E+00  0.00000000000E+00  0.10513925938E+03  0.10513925938E+03  0.00000000000E+00 0.  1.
          1   -1    0    0  502    0  0.00000000000E+00 -0.00000000000E+00 -0.16320685056E+03  0.16320685056E+03  0.00000000000E+00 0. -1.
         23    2    1    2    0    0  0.87911573215E+00 -0.39463788350E+02  0.37863855536E+02  0.10677341456E+03  0.91699111581E+02 0.  0.
         23    2    1    2    0    0  0.18052193425E+01  0.60455836621E+02 -0.82925736319E+02  0.13673280311E+03  0.90338334624E+02 0.  0.
        -11    1    4    4    0    0  0.27265531220E+02  0.23027294437E+02 -0.84196331339E+02  0.91447732026E+02  0.00000000000E+00 0. -1.
         11    1    4    4    0    0 -0.25460311878E+02  0.37428542184E+02  0.12705950201E+01  0.45285071079E+02  0.00000000000E+00 0.  1.
        -13    1    3    3    0    0 -0.31889554652E+02  0.13773651539E+01  0.43668638483E+02  0.54090579750E+02  0.00000000000E+00 0.  1.
         13    1    3    3    0    0  0.32768670384E+02 -0.40841153504E+02 -0.58047829475E+01  0.52682834808E+02  0.00000000000E+00 0. -1.
         21    1    1    2  502  501 -0.26843350746E+01 -0.20992048271E+02 -0.13005710391E+02  0.24839892274E+02  0.00000000000E+00 0. -1.
<scales pt_clust_5="13000.00000" pt_clust_6="13000.00000" pt_clust_7="13000.00000" pt_clust_8="13000.00000" pt_clust_9="21.16298"></scales>
<clustering>
<clus scale="   21.163">  2  9  1 -1</clus>
<clus scale="   90.338">  5  6 -1 -1</clus>
<clus scale="   91.699">  7  8 -1 -1</clus>
<clus scale="  100.694">  2  5  1 -1</clus>
<clus scale="   21.163">  2  5  1 -1</clus>
</clustering>
</event>
<event>
 9    1  0.1234700E-005  0.1577673E+03  0.7546771E-02  0.1191315E+00
         -1   -1    0    0    0  501 -0.00000000000E+00  0.00000000000E+00  0.23811337702E+03  0.23811337702E+03  0.00000000000E+00 0.  1.
          1   -1    0    0  502    0  0.00000000000E+00 -0.00000000000E+00 -0.62909713354E+03  0.62909713354E+03  0.00000000000E+00 0. -1.
         23    2    1    2    0    0 -0.13317543554E+03  0.18719842895E+02  0.19041583368E+03  0.25049129634E+03  0.91660082246E+02 0.  0.
         23    2    1    2    0    0  0.78550342543E+02  0.21823555740E+02 -0.24900699262E+03  0.27743687327E+03  0.91215746343E+02 0.  0.
        -11    1    4    4    0    0  0.44203874498E+02 -0.34465562281E+02 -0.12485832981E+03  0.13686292422E+03  0.00000000000E+00 0.  1.
         11    1    4    4    0    0  0.34346468046E+02  0.56289118022E+02 -0.12414866281E+03  0.14057394905E+03  0.00000000000E+00 0. -1.
        -13    1    3    3    0    0 -0.75442300573E+02 -0.34792637620E+02  0.11126969676E+03  0.13886329164E+03  0.00000000000E+00 0. -1.
         13    1    3    3    0    0 -0.57733134963E+02  0.53512480515E+02  0.79146136917E+02  0.11162800470E+03  0.00000000000E+00 0.  1.
         21    1    1    2  502  501  0.54625092993E+02 -0.40543398636E+02 -0.33239259757E+03  0.33928234095E+03  0.00000000000E+00 0. -1.
<scales pt_clust_5="13000.00000" pt_clust_6="13000.00000" pt_clust_7="13000.00000" pt_clust_8="13000.00000" pt_clust_9="68.02696"></scales>
<clustering>
<clus scale="   68.027">  2  9  1 -1</clus>
<clus scale="   91.216">  5  6 -1 -1</clus>
<clus scale="   91.660">  7  8 -1 -1</clus>
<clus scale="  157.510">  2  5  1 -1</clus>
<clus scale="   68.027">  2  5  1 -1</clus>
</clustering>
</event>
<event>
 9    1  0.1234700E-005  0.1264438E+03  0.7546771E-02  0.1233192E+00
         -1   -1    0    0    0  501 -0.00000000000E+00  0.00000000000E+00  0.51462420716E+03  0.51462420716E+03  0.00000000000E+00 0.  1.
          1   -1    0    0  502    0  0.00000000000E+00 -0.00000000000E+00 -0.55456623979E+02  0.55456623979E+02  0.00000000000E+00 0. -1.
         23    2    1    2    0    0 -0.87120174417E+02  0.45324149782E+00  0.35939400944E+03  0.38137022979E+03  0.93215170064E+02 0.  0.
         23    2    1    2    0    0  0.78169928143E+02 -0.33526106803E+02  0.71032897257E+02  0.14398982527E+03  0.91939435427E+02 0.  0.
        -11    1    3    3    0    0 -0.78355153876E+02  0.39340888321E+02  0.24206829853E+03  0.25745736887E+03  0.00000000000E+00 0.  1.
         11    1    3    3    0    0 -0.87650205408E+01 -0.38887646823E+02  0.11732571091E+03  0.12391286092E+03  0.00000000000E+00 0. -1.
        -11    1    4    4    0    0  0.99092903940E+02 -0.27904636928E+02  0.63967040554E+02  0.12120171059E+03  0.00000000000E+00 0. -1.
         11    1    4    4    0    0 -0.20922975798E+02 -0.56214698758E+01  0.70658567030E+01  0.22788114682E+02  0.00000000000E+00 0.  1.
         21    1    1    2  502  501  0.89502462741E+01  0.33072865306E+02  0.28740676479E+02  0.44720776070E+02  0.00000000000E+00 0. -1.
<scales pt_clust_5="13000.00000" pt_clust_6="13000.00000" pt_clust_7="13000.00000" pt_clust_8="13000.00000" pt_clust_9="34.26254"></scales>
<clustering>
<clus scale="   34.263">  2  9  1 -1</clus>
<clus scale="   91.939">  7  8 -1 -1</clus>
<clus scale="   93.215">  5  6 -1 -1</clus>
<clus scale="  125.506">  2  7  1 -1</clus>
<clus scale="   34.263">  2  5  1 -1</clus>
</clustering>
</event>
<event>
 9    1  0.1234700E-005  0.1025481E+03  0.7546771E-02  0.1275399E+00
          2   -1    0    0  502    0  0.00000000000E+00  0.00000000000E+00  0.50034208478E+03  0.50034208478E+03  0.00000000000E+00 0. -1.
         -2   -1    0    0    0  501 -0.00000000000E+00 -0.00000000000E+00 -0.21017531326E+03  0.21017531326E+03  0.00000000000E+00 0.  1.
         23    2    1    2    0    0  0.45351987023E+02 -0.63700979860E+00 -0.17785360851E+03  0.20491426581E+03  0.91108406668E+02 0.  0.
         23    2    1    2    0    0 -0.81129689322E+02  0.44755036446E+02  0.26667765228E+03  0.29640146332E+03  0.90287415836E+02 0.  0.
        -11    1    4    4    0    0 -0.82542993799E+02  0.10980190446E+02  0.23774564476E+03  0.25190653428E+03  0.00000000000E+00 0. -1.
         11    1    4    4    0    0  0.14133044770E+01  0.33774846000E+02  0.28932007513E+02  0.44494929044E+02  0.00000000000E+00 0.  1.
        -13    1    3    3    0    0  0.67819075512E+02  0.58088431606E+01 -0.16442669960E+03  0.17795872894E+03  0.00000000000E+00 0.  1.
         13    1    3    3    0    0 -0.22467088488E+02 -0.64458529592E+01 -0.13426908903E+02  0.26955536875E+02  0.00000000000E+00 0. -1.
         21    1    1    2  502  501  0.35777702299E+02 -0.44118026647E+02  0.20134272775E+03  0.20920166891E+03  0.00000000000E+00 0. -1.
<scales pt_clust_5="13000.00000" pt_clust_6="13000.00000" pt_clust_7="13000.00000" pt_clust_8="13000.00000" pt_clust_9="56.80180"></scales>
<clustering>
<clus scale="   56.802">  1  9  2 -1</clus>
<clus scale="   90.287">  5  6 -1 -1</clus>
<clus scale="   91.108">  7  8 -1 -1</clus>
<clus scale="  101.819">  1  5  2 -1</clus>
<clus scale="   56.802">  1  5  2 -1</clus>
</clustering>
</event>
<event>
 9    1  0.1234700E-005  0.1024997E+03  0.7546771E-02  0.1275532E+00
         -1   -1    0    0    0  501 -0.00000000000E+00  0.00000000000E+00  0.43581252060E+03  0.43581252060E+03  0.00000000000E+00 0.  1.
          1   -1    0    0  502    0  0.00000000000E+00 -0.00000000000E+00 -0.65148432657E+02  0.65148432657E+02  0.00000000000E+00 0. -1.
         23    2    1    2    0    0  0.41922046362E+02 -0.32410719356E+02  0.26347948621E+03  0.28397675361E+03  0.91724828908E+02 0.  0.
         23    2    1    2    0    0 -0.44776715399E+02 -0.41681212298E+02  0.38995782537E+02  0.11624950585E+03  0.90835008963E+02 0.  0.
        -11    1    4    4    0    0  0.12663110423E+01 -0.50220655114E+02 -0.68666786938E+01  0.50703737733E+02  0.00000000000E+00 0.  1.
         11    1    4    4    0    0 -0.46043026441E+02  0.85394428162E+01  0.45862461231E+02  0.65545768114E+02  0.00000000000E+00 0. -1.
        -13    1    3    3    0    0 -0.52938257778E+01 -0.35833867034E+02  0.34049719380E+02  0.49713921671E+02  0.00000000000E+00 0.  1.
         13    1    3    3    0    0  0.47215872140E+02  0.34231476775E+01  0.22942976683E+03  0.23426283194E+03  0.00000000000E+00 0. -1.
         21    1    1    2  502  501  0.28546690367E+01  0.74091931655E+02  0.68188819201E+02  0.10073469380E+03  0.00000000000E+00 0. -1.
<scales pt_clust_5="13000.00000" pt_clust_6="13000.00000" pt_clust_7="13000.00000" pt_clust_8="13000.00000" pt_clust_9="74.14690"></scales>
<clustering>
<clus scale="   74.147">  2  9  1 -1</clus>
<clus scale="   90.835">  5  6 -1 -1</clus>
<clus scale="   91.725">  7  8 -1 -1</clus>
<clus scale="  101.704">  2  5  1 -1</clus>
<clus scale="   74.147">  2  5  1 -1</clus>
</clustering>
</event>
<event>
 9    1  0.1234700E-005  0.1002599E+03  0.7546771E-02  0.1280025E+00
         -1   -1    0    0    0  501 -0.00000000000E+00  0.00000000000E+00  0.22683036173E+02  0.22683036173E+02  0.00000000000E+00 0.  1.
          1   -1    0    0  502    0  0.00000000000E+00 -0.00000000000E+00 -0.83452212163E+03  0.83452212163E+03  0.00000000000E+00 0. -1.
         23    2    1    2    0    0 -0.27726716482E+02  0.34256977006E+02 -0.13793479163E+03  0.17088745513E+03  0.90742516488E+02 0.  0.
         23    2    1    2    0    0  0.39600687907E+02 -0.67322869935E+01 -0.53387912822E+03  0.54311977405E+03  0.91316084277E+02 0.  0.
        -13    1    3    3    0    0 -0.27657814608E+02 -0.27392898073E+02 -0.47046358381E+02  0.61062962675E+02  0.00000000000E+00 0.  1.
         13    1    3    3    0    0 -0.68901873618E-01  0.61649875079E+02 -0.90888433248E+02  0.10982449245E+03  0.00000000000E+00 0. -1.
        -13    1    4    4    0    0 -0.22353190422E+02  0.21114866091E+02 -0.13145066383E+03  0.13499918412E+03  0.00000000000E+00 0.  1.
         13    1    4    4    0    0  0.61953878330E+02 -0.27847153084E+02 -0.40242846439E+03  0.40812058993E+03  0.00000000000E+00 0. -1.
         21    1    1    2  502  501 -0.11873971426E+02 -0.27524690012E+02 -0.14002516561E+03  0.14319792862E+03  0.00000000000E+00 0.  1.
<scales pt_clust_5="13000.00000" pt_clust_6="13000.00000" pt_clust_7="13000.00000" pt_clust_8="13000.00000" pt_clust_9="29.97665"></scales>
<clustering>
<clus scale="   29.977">  2  9  1 -1</clus>
<clus scale="   90.743">  5  6 -1 -1</clus>
<clus scale="   91.316">  7  8 -1 -1</clus>
<clus scale="   99.738">  1  5  2 -1</clus>
<clus scale="   29.977">  2  5  1 -1</clus>
</clustering>
</event>
<event>
 9    1  0.1234700E-005  0.1400488E+03  0.7546771E-02  0.1213857E+00
          3   -1    0    0  502    0  0.00000000000E+00  0.00000000000E+00  0.25034987249E+03  0.25034987249E+03  0.00000000000E+00 0. -1.
         -3   -1    0    0    0  501 -0.00000000000E+00 -0.00000000000E+00 -0.99560611968E+02  0.99560611968E+02  0.00000000000E+00 0.  1.
         23    2    1    2    0    0 -0.23589037573E+02  0.87238887009E+02  0.68925226924E+02  0.14429126896E+03  0.88894416532E+02 0.  0.
         23    2    1    2    0    0  0.18155024567E+02 -0.12079576778E+03  0.54974305848E+02  0.16227581689E+03  0.91597183444E+02 0.  0.
        -13    1    3    3    0    0  0.22519924600E+02 -0.53678296723E+01  0.15491866383E+02  0.27856032083E+02  0.00000000000E+00 0.  1.
         13    1    3    3    0    0 -0.46108962173E+02  0.92606716681E+02  0.53433360541E+02  0.11643523687E+03  0.00000000000E+00 0. -1.
        -13    1    4    4    0    0 -0.34610509545E+02 -0.74275242632E+02  0.35366697992E+02  0.89249663114E+02  0.00000000000E+00 0.  1.
         13    1    4    4    0    0  0.52765534113E+02 -0.46520525146E+02  0.19607607856E+02  0.73026153780E+02  0.00000000000E+00 0. -1.
         21    1    1    2  502  501  0.54340130061E+01  0.33556880769E+02  0.26889727747E+02  0.43343398605E+02  0.00000000000E+00 0.  1.
<scales pt_clust_5="13000.00000" pt_clust_6="13000.00000" pt_clust_7="13000.00000" pt_clust_8="13000.00000" pt_clust_9="33.99401"></scales>
<clustering>
<clus scale="   33.994">  1  9  2 -1</clus>
<clus scale="   88.894">  5  6 -1 -1</clus>
<clus scale="   91.597">  7  8 -1 -1</clus>
<clus scale="  138.296">  2  5  1 -1</clus>
<clus scale="   33.994">  1  5  2 -1</clus>
</clustering>
</event>
<event>
 9    1  0.1234700E-005  0.9691443E+02  0.7546771E-02  0.1288102E+00
          2   -1    0    0  502    0  0.00000000000E+00  0.00000000000E+00  0.64387663258E+03  0.64387663258E+03  0.00000000000E+00 0. -1.
         -2   -1    0    0    0  501 -0.00000000000E+00 -0.00000000000E+00 -0.31829595980E+02  0.31829595980E+02  0.00000000000E+00 0.  1.
         23    2    1    2    0    0  0.25057516580E+02  0.18721742508E+02  0.65885945124E+02  0.11778260775E+03  0.92484604905E+02 0.  0.
         23    2    1    2    0    0 -0.22367409795E+02  0.19607690080E+01  0.45480413963E+03  0.46421612053E+03  0.90253285265E+02 0.  0.
        -11    1    4    4    0    0 -0.55633097943E+02 -0.97786522279E+01  0.24175869805E+03  0.24826987676E+03  0.00000000000E+00 0. -1.
         11    1    4    4    0    0  0.33265688148E+02  0.11739421236E+02  0.21304544158E+03  0.21594624377E+03  0.00000000000E+00 0.  1.
        -13    1    3    3    0    0 -0.20220206088E+02  0.32170769344E+02  0.58817580993E+02  0.70023731465E+02  0.00000000000E+00 0. -1.
         13    1    3    3    0    0  0.45277722668E+02 -0.13449026836E+02  0.70683641315E+01  0.47758876288E+02  0.00000000000E+00 0.  1.
         21    1    1    2  502  501 -0.26901067848E+01 -0.20682511516E+02  0.91356951849E+02  0.93707500278E+02  0.00000000000E+00 0. -1.
<scales pt_clust_5="13000.00000" pt_clust_6="13000.00000" pt_clust_7="13000.00000" pt_clust_8="13000.00000" pt_clust_9="20.85672"></scales>
<clustering>
<clus scale="   20.857">  1  9  2 -1</clus>
<clus scale="   90.253">  5  6 -1 -1</clus>
<clus scale="   92.485">  7  8 -1 -1</clus>
<clus scale="   94.787">  1  5  2 -1</clus>
<clus scale="   20.857">  1  5  2 -1</clus>
</clustering>
</event>
<event>
 9    1  0.1234700E-005  0.1153829E+03  0.7546771E-02  0.1251349E+00
          2   -1    0    0  502    0  0.00000000000E+00  0.00000000000E+00  0.23526182723E+03  0.23526182723E+03  0.00000000000E+00 0. -1.
         -2   -1    0    0    0  501 -0.00000000000E+00 -0.00000000000E+00 -0.77463026159E+02  0.77463026159E+02  0.00000000000E+00 0.  1.
         23    2    1    2    0    0  0.75713698554E+02  0.31253205161E+02  0.70700724223E+02  0.14040337819E+03  0.89471723026E+02 0.  0.
         23    2    1    2    0    0 -0.63672052280E+02 -0.93922308476E+01  0.94841730906E+02  0.14618973930E+03  0.90742171639E+02 0.  0.
        -11    1    4    4    0    0 -0.11819109886E+02  0.23316294291E+02  0.78505527076E+02  0.82743330362E+02  0.00000000000E+00 0. -1.
         11    1    4    4    0    0 -0.51852942394E+02 -0.32708525139E+02  0.16336203830E+02  0.63446408939E+02  0.00000000000E+00 0.  1.
        -13    1    3    3    0    0  0.50877160356E+02 -0.27272316781E+02  0.33518337822E+02  0.66751357131E+02  0.00000000000E+00 0. -1.
         13    1    3    3    0    0  0.24836538199E+02  0.58525521942E+02  0.37182386401E+02  0.73652021064E+02  0.00000000000E+00 0.  1.
         21    1    1    2  502  501 -0.12041646274E+02 -0.21860974313E+02 -0.77436540526E+01  0.26131735897E+02  0.00000000000E+00 0.  1.
<scales pt_clust_5="13000.00000" pt_clust_6="13000.00000" pt_clust_7="13000.00000" pt_clust_8="13000.00000" pt_clust_9="24.95803"></scales>
<clustering>
<clus scale="   24.958">  2  9  1 -1</clus>
<clus scale="   89.472">  7  8 -1 -1</clus>
<clus scale="   90.742">  5  6 -1 -1</clus>
<clus scale="  114.386">  2  7  1 -1</clus>
<clus scale="  115.383">  1  5  2 -1</clus>
</clustering>
</event>
<event>
 9    1  0.1234700E-005  0.1261333E+03  0.7546771E-02  0.1234106E+00
          1   -1    0    0  502    0  0.00000000000E+00  0.00000000000E+00  0.78641138525E+03  0.78641138525E+03  0.00000000000E+00 0. -1.
         -1   -1    0    0    0  501 -0.00000000000E+00 -0.00000000000E+00 -0.82174959864E+02  0.82174959864E+02  0.00000000000E+00 0.  1.
         23    2    1    2    0    0 -0.37060419094E+02 -0.95209753973E+02  0.60058471187E+01  0.13769475429E+03  0.92116248536E+02 0.  0.
         23    2    1    2    0    0  0.44072183119E+02  0.28506955583E+02  0.17480685151E+03  0.20318824056E+03  0.89291779719E+02 0.  0.
        -11    1    3    3    0    0  0.17034370501E+02 -0.49311786402E+02 -0.27792707003E+02  0.59112237473E+02  0.00000000000E+00 0.  1.
         11    1    3    3    0    0 -0.54094789596E+02 -0.45897967571E+02  0.33798554122E+02  0.78582516817E+02  0.00000000000E+00 0. -1.
        -11    1    4    4    0    0  0.10942411159E+02 -0.31481291585E+02  0.40858508763E+02  0.52727846724E+02  0.00000000000E+00 0.  1.
         11    1    4    4    0    0  0.33129771960E+02  0.59988247168E+02  0.13394834275E+03  0.15046039384E+03  0.00000000000E+00 0. -1.
         21    1    1    2  502  501 -0.70117640248E+01  0.66702798390E+02  0.52342372675E+03  0.52770335026E+03  0.00000000000E+00 0. -1.
<scales pt_clust_5="13000.00000" pt_clust_6="13000.00000" pt_clust_7="13000.00000" pt_clust_8="13000.00000" pt_clust_9="67.07032"></scales>
<clustering>
<clus scale="   67.070">  1  9  2 -1</clus>
<clus scale="   89.292">  7  8 -1 -1</clus>
<clus scale="   92.116">  5  6 -1 -1</clus>
<clus scale="  124.086">  1  7  2 -1</clus>
<clus scale="   67.070">  1  5  2 -1</clus>
</clustering>
</event>
<event>
 9    1  0.1234700E-005  0.1699619E+03  0.7546771E-02  0.1177954E+00
          3   -1    0    0  502    0  0.00000000000E+00  0.00000000000E+00  0.41752338809E+03  0.41752338809E+03  0.00000000000E+00 0. -1.
         -3   -1    0    0    0  501 -0.00000000000E+00 -0.00000000000E+00 -0.12926364008E+03  0.12926364008E+03  0.00000000000E+00 0.  1.
         23    2    1    2    0    0  0.95449347058E+02 -0.11223423555E+03 -0.32405443823E+02  0.17597216352E+03  0.90603466060E+02 0.  0.
         23    2    1    2    0    0 -0.68685696438E+02  0.10791195178E+03  0.29073799448E+03  0.33043402423E+03  0.91078804906E+02 0.  0.
        -13    1    4    4    0    0 -0.70951145482E+01  0.75393252450E+02  0.21299295178E+03  0.22605415430E+03  0.00000000000E+00 0. -1.
         13    1    4    4    0    0 -0.61590581890E+02  0.32518699328E+02  0.77745042698E+02  0.10437986993E+03  0.00000000000E+00 0.  1.
        -13    1    3    3    0    0  0.97047295934E+02 -0.48390487721E+02 -0.12964332738E+02  0.10921488394E+03  0.00000000000E+00 0.  1.
         13    1    3    3    0    0 -0.15979488761E+01 -0.63843747828E+02 -0.19441111085E+02  0.66757279585E+02  0.00000000000E+00 0. -1.
         21    1    1    2  502  501 -0.26763650620E+02  0.43222837718E+01  0.29927197350E+02  0.40380840416E+02  0.00000000000E+00 0. -1.
<scales pt_clust_5="13000.00000" pt_clust_6="13000.00000" pt_clust_7="13000.00000" pt_clust_8="13000.00000" pt_clust_9="27.11042"></scales>
<clustering>
<clus scale="   27.110">  1  9  2 -1</clus>
<clus scale="   90.603">  7  8 -1 -1</clus>
<clus scale="   91.079">  5  6 -1 -1</clus>
<clus scale="  169.708">  2  7  1 -1</clus>
<clus scale="   27.110">  1  5  2 -1</clus>
</clustering>
</event>
<event>
 9    1  0.1234700E-005  0.1791364E+03  0.7546771E-02  0.1190591E+00
          1   -1    0    0  502    0  0.00000000000E+00  0.00000000000E+00  0.63464080500E+03  0.63464080500E+03  0.00000000000E+00 0. -1.
         -1   -1    0    0    0  501 -0.00000000000E+00 -0.00000000000E+00 -0.11474316658E+03  0.11474316658E+03  0.00000000000E+00 0.  1.
         23    2    1    2    0    0  0.32916362147E+02  0.54832254822E+02 -0.21126873461E+02  0.11135214241E+03  0.88672948363E+02 0.  0.
         23    2    1    2    0    0  0.23781251844E+02  0.11057793714E+03  0.16023306850E+03  0.21901240911E+03  0.97461638497E+02 0.  0.
        -13    1    4    4    0    0  0.26385112664E+02  0.10198654254E+02  0.95357693424E+02  0.99464950682E+02  0.00000000000E+00 0.  1.
         13    1    4    4    0    0 -0.26038608207E+01  0.10037928289E+03  0.64875375079E+02  0.11954745842E+03  0.00000000000E+00 0. -1.
        -13    1    3    3    0    0  0.60592991486E+02  0.27181777944E+02  0.97647198261E+00  0.66417717267E+02  0.00000000000E+00 0.  1.
         13    1    3    3    0    0 -0.27676629339E+02  0.27650476878E+02 -0.22103345444E+02  0.44934425143E+02  0.00000000000E+00 0. -1.
         21    1    1    2  502  501 -0.56697613990E+02 -0.16541019196E+03  0.38079144338E+03  0.41901942007E+03  0.00000000000E+00 0. -1.
<scales pt_clust_5="13000.00000" pt_clust_6="13000.00000" pt_clust_7="13000.00000" pt_clust_8="13000.00000" pt_clust_9="150.30326"></scales>
<clustering>
<clus scale="   88.673">  7  8 -1 -1</clus>
<clus scale="   97.462">  5  6 -1 -1</clus>
<clus scale="  109.330">  2  7  1 -1</clus>
<clus scale="  150.303">  1  9  2 -1</clus>
<clus scale="  150.303">  1  5  2 -1</clus>
</clustering>
</event>
<event>
 9    1  0.1234700E-005  0.1744331E+03  0.7546771E-02  0.1173807E+00
         -2   -1    0    0    0  501 -0.00000000000E+00  0.00000000000E+00  0.90101821204E+02  0.90101821204E+02  0.00000000000E+00 0.  1.
          2   -1    0    0  502    0  0.00000000000E+00 -0.00000000000E+00 -0.69232663894E+03  0.69232663894E+03  0.00000000000E+00 0. -1.
         23    2    1    2    0    0 -0.12283339498E+03  0.74369860113E+02 -0.37075926549E+02  0.17211637969E+03  0.87352760773E+02 0.  0.
         23    2    1    2    0    0  0.14375434272E+03 -0.90230325481E+02 -0.41077990625E+03  0.45372656411E+03  0.91218643473E+02 0.  0.
        -11    1    4    4    0    0  0.56046138473E+02 -0.28720904215E+01 -0.61984380799E+02  0.83615082397E+02  0.00000000000E+00 0.  1.
         11    1    4    4    0    0  0.87708204245E+02 -0.87358235059E+02 -0.34879552545E+03  0.37011148171E+03  0.00000000000E+00 0. -1.
        -13    1    3    3    0    0 -0.65156063856E+02  0.48552368421E+02 -0.63993597467E+02  0.10343029369E+03  0.00000000000E+00 0. -1.
         13    1    3    3    0    0 -0.57677331119E+02  0.25817491692E+02  0.26917670919E+02  0.68686086000E+02  0.00000000000E+00 0.  1.
         21    1    1    2  502  501 -0.20920947743E+02  0.15860465368E+02 -0.15436898494E+03  0.15658551634E+03  0.00000000000E+00 0.  1.
<scales pt_clust_5="13000.00000" pt_clust_6="13000.00000" pt_clust_7="13000.00000" pt_clust_8="13000.00000" pt_clust_9="26.25339"></scales>
<clustering>
<clus scale="   26.253">  2  9  1 -1</clus>
<clus scale="   87.353">  7  8 -1 -1</clus>
<clus scale="   91.219">  5  6 -1 -1</clus>
<clus scale="  172.443">  1  7  2 -1</clus>
<clus scale="   26.253">  2  5  1 -1</clus>
</clustering>
</event>
<event>
 9    1  0.1234700E-005  0.1088512E+03  0.7546771E-02  0.1263895E+00
          2   -1    0    0  502    0  0.00000000000E+00  0.00000000000E+00  0.61576737980E+03  0.61576737980E+03  0.00000000000E+00 0. -1.
         -2   -1    0    0    0  501 -0.00000000000E+00 -0.00000000000E+00 -0.99373563249E+02  0.99373563249E+02  0.00000000000E+00 0.  1.
         23    2    1    2    0    0  0.70677790541E+02 -0.10328278592E+01 -0.40272320243E+02  0.12466914650E+03  0.94467557928E+02 0.  0.
         23    2    1    2    0    0  0.14627082904E+02 -0.33805800285E+01  0.16232666297E+03  0.18698695146E+03  0.91590363198E+02 0.  0.
        -11    1    4    4    0    0  0.20285778035E+02 -0.43471641004E+02  0.59198291458E+02  0.76195367797E+02  0.00000000000E+00 0.  1.
         11    1    4    4    0    0 -0.56586951315E+01  0.40091060975E+02  0.10312837151E+03  0.11079158366E+03  0.00000000000E+00 0. -1.
        -13    1    3    3    0    0  0.75963832455E+01  0.39809444911E+02 -0.26123080267E+01  0.40611834430E+02  0.00000000000E+00 0. -1.
         13    1    3    3    0    0  0.63081407295E+02 -0.40842272771E+02 -0.37660012217E+02  0.84057312065E+02  0.00000000000E+00 0.  1.
         21    1    1    2  502  501 -0.85304873444E+02  0.44134078878E+01  0.39433947383E+03  0.40348484510E+03  0.00000000000E+00 0. -1.
<scales pt_clust_5="13000.00000" pt_clust_6="13000.00000" pt_clust_7="13000.00000" pt_clust_8="13000.00000" pt_clust_9="85.41897"></scales>
<clustering>
<clus scale="   85.419">  1  9  2 -1</clus>
<clus scale="   91.590">  5  6 -1 -1</clus>
<clus scale="   94.468">  7  8 -1 -1</clus>
<clus scale="  106.364">  1  5  2 -1</clus>
<clus scale="   85.419">  1  5  2 -1</clus>
</clustering>
</event>
<event>
 9    1  0.1234700E-005  0.1329183E+03  0.7546771E-02  0.1223212E+00
         -2   -1    0    0    0  501 -0.00000000000E+00  0.00000000000E+00  0.46327968899E+03  0.46327968899E+03  0.00000000000E+00 0.  1.
          2   -1    0    0  502    0  0.00000000000E+00 -0.00000000000E+00 -0.35033685442E+03  0.35033685442E+03  0.00000000000E+00 0. -1.
         23    2    1    2    0    0  0.98278652839E+02 -0.28403814264E+01  0.41166330203E+03  0.43284512499E+03  0.90672303450E+02 0.  0.
         23    2    1    2    0    0 -0.82697337845E+02  0.42609646350E+02 -0.69079268505E+02  0.14719177018E+03  0.90769158991E+02 0.  0.
        -13    1    4    4    0    0 -0.72526601146E+02 -0.19626300525E+01 -0.70892064980E+02  0.10143788576E+03  0.00000000000E+00 0. -1.
         13    1    4    4    0    0 -0.10170736699E+02  0.44572276402E+02  0.18127964754E+01  0.45753884422E+02  0.00000000000E+00 0.  1.
        -13    1    3    3    0    0  0.10758143083E+02  0.36047804704E+02  0.10235081967E+03  0.10904527571E+03  0.00000000000E+00 0. -1.
         13    1    3    3    0    0  0.87520509755E+02 -0.38888186131E+02  0.30931248236E+03  0.32379984928E+03  0.00000000000E+00 0.  1.
         21    1    1    2  502  501 -0.15581314994E+02 -0.39769264923E+02 -0.22964119896E+03  0.23357964824E+03  0.00000000000E+00 0. -1.
<scales pt_clust_5="13000.00000" pt_clust_6="13000.00000" pt_clust_7="13000.00000" pt_clust_8="13000.00000" pt_clust_9="42.71267"></scales>
<clustering>
<clus scale="   42.713">  2  9  1 -1</clus>
<clus scale="   90.672">  7  8 -1 -1</clus>
<clus scale="   90.769">  5  6 -1 -1</clus>
<clus scale="  132.852">  1  7  2 -1</clus>
<clus scale="   42.713">  2  5  1 -1</clus>
</clustering>
</event>
<event>
 9    1  0.1234700E-005  0.1501185E+03  0.7546771E-02  0.1200773E+00
          1   -1    0    0  502    0  0.00000000000E+00  0.00000000000E+00  0.76904343967E+02  0.76904343967E+02  0.00000000000E+00 0. -1.
         -1   -1    0    0    0  501 -0.00000000000E+00 -0.00000000000E+00 -0.64679878093E+03  0.64679878093E+03  0.00000000000E+00 0.  1.
         23    2    1    2    0    0 -0.19207326029E+02 -0.11492256578E+03 -0.51360130503E+03  0.53450558893E+03  0.91289684927E+02 0.  0.
         23    2    1    2    0    0 -0.10587998553E+01  0.12382251906E+03 -0.36420553702E+02  0.15945120186E+03  0.93622068768E+02 0.  0.
        -11    1    3    3    0    0 -0.40874434100E+02 -0.36976052110E+02 -0.11189338074E+03  0.12473201853E+03  0.00000000000E+00 0. -1.
         11    1    3    3    0    0  0.21667108071E+02 -0.77946513665E+02 -0.40170792429E+03  0.40977357041E+03  0.00000000000E+00 0.  1.
        -13    1    4    4    0    0 -0.30369395224E+02  0.76423330917E+02 -0.56982655756E+02  0.10004923154E+03  0.00000000000E+00 0.  1.
         13    1    4    4    0    0  0.29310595369E+02  0.47399188144E+02  0.20562102054E+02  0.59401970325E+02  0.00000000000E+00 0. -1.
         21    1    1    2  502  501  0.20266125884E+02 -0.88999532861E+01 -0.19872578231E+02  0.29746334100E+02  0.00000000000E+00 0.  1.
<scales pt_clust_5="13000.00000" pt_clust_6="13000.00000" pt_clust_7="13000.00000" pt_clust_8="13000.00000" pt_clust_9="22.13425"></scales>
<clustering>
<clus scale="   22.134">  1  9  2 -1</clus>
<clus scale="   91.290">  5  6 -1 -1</clus>
<clus scale="   93.622">  7  8 -1 -1</clus>
<clus scale="  148.675">  2  5  1 -1</clus>
<clus scale="   22.134">  1  5  2 -1</clus>
</clustering>
</event>
<event>
 9    1  0.1234700E-005  0.9729445E+02  0.7546771E-02  0.1289120E+00
         -1   -1    0    0    0  501 -0.00000000000E+00  0.00000000000E+00  0.72379715535E+02  0.72379715535E+02  0.00000000000E+00 0.  1.
          1   -1    0    0  502    0  0.00000000000E+00 -0.00000000000E+00 -0.24286959535E+03  0.24286959535E+03  0.00000000000E+00 0. -1.
         23    2    1    2    0    0 -0.90031860242E+01  0.24523188170E+02  0.10394761970E+02  0.97123649905E+02  0.92965091178E+02 0.  0.
         23    2    1    2    0    0  0.33145330220E+02 -0.27052406702E+02 -0.15142777910E+03  0.17995568807E+03  0.87311120493E+02 0.  0.
        -13    1    4    4    0    0 -0.12798954178E+02  0.24686965995E+02 -0.37985627658E+02  0.47076187469E+02  0.00000000000E+00 0.  1.
         13    1    4    4    0    0  0.45944284399E+02 -0.51739372697E+02 -0.11344215144E+03  0.13287950060E+03  0.00000000000E+00 0. -1.
        -13    1    3    3    0    0 -0.52337056960E-01  0.59844042277E+02  0.10066555093E+02  0.60684822374E+02  0.00000000000E+00 0.  1.
         13    1    3    3    0    0 -0.89508489673E+01 -0.35320854106E+02  0.32820687733E+00  0.36438827531E+02  0.00000000000E+00 0. -1.
         21    1    1    2  502  501 -0.24142144196E+02  0.25292185318E+01 -0.29456862687E+02  0.38169972913E+02  0.00000000000E+00 0.  1.
<scales pt_clust_5="13000.00000" pt_clust_6="13000.00000" pt_clust_7="13000.00000" pt_clust_8="13000.00000" pt_clust_9="24.27427"></scales>
<clustering>
<clus scale="   24.274">  2  9  1 -1</clus>
<clus scale="   87.311">  5  6 -1 -1</clus>
<clus scale="   91.907">  2  5  1 -1</clus>
<clus scale="   92.965">  7  8 -1 -1</clus>
<clus scale="   24.274">  2  5  1 -1</clus>
</clustering>
</event>
<event>
 9    1  0.1234700E-005  0.1316078E+03  0.7546771E-02  0.1225519E+00
         -1   -1    0    0    0  501 -0.00000000000E+00  0.00000000000E+00  0.42725893386E+02  0.42725893386E+02  0.00000000000E+00 0.  1.
          1   -1    0    0  502    0  0.00000000000E+00 -0.00000000000E+00 -0.76934760457E+03  0.76934760457E+03  0.00000000000E+00 0. -1.
         23    2    1    2    0    0 -0.77129217030E+02 -0.98869972729E+02 -0.32888245196E+03  0.36353991969E+03  0.90958333185E+02 0.  0.
         23    2    1    2    0    0  0.73977648455E+02  0.27866982589E+02 -0.32395075937E+03  0.34608310387E+03  0.92629148206E+02 0.  0.
        -11    1    3    3    0    0 -0.42298068075E+02 -0.17910146743E+02 -0.21329341763E+03  0.21818336766E+03  0.00000000000E+00 0. -1.
         11    1    3    3    0    0 -0.34831148955E+02 -0.80959825986E+02 -0.11558903433E+03  0.14535655203E+03  0.00000000000E+00 0.  1.
        -13    1    4    4    0    0  0.76338689013E+02 -0.15638044417E+02 -0.21887823834E+03  0.23233559153E+03  0.00000000000E+00 0.  1.
         13    1    4    4    0    0 -0.23610405579E+01  0.43505027006E+02 -0.10507252103E+03  0.11374751233E+03  0.00000000000E+00 0. -1.
         21    1    1    2  502  501  0.31515685749E+01  0.71002990139E+02 -0.73788499859E+02  0.10245047440E+03  0.00000000000E+00 0. -1.
<scales pt_clust_5="13000.00000" pt_clust_6="13000.00000" pt_clust_7="13000.00000" pt_clust_8="13000.00000" pt_clust_9="71.07290"></scales>
<clustering>
<clus scale="   71.073">  1  9  2 -1</clus>
<clus scale="   90.958">  5  6 -1 -1</clus>
<clus scale="   92.629">  7  8 -1 -1</clus>
<clus scale="  130.437">  1  5  2 -1</clus>
<clus scale="  131.608">  2  5  1 -1</clus>
</clustering>
</event>
<event>
 9    1  0.1234700E-005  0.9332819E+02  0.7546771E-02  0.1295345E+00
          1   -1    0    0  502    0  0.00000000000E+00  0.00000000000E+00  0.80138153436E+02  0.80138153436E+02  0.00000000000E+00 0. -1.
         -1   -1    0    0    0  501 -0.00000000000E+00 -0.00000000000E+00 -0.23243033249E+03  0.23243033249E+03  0.00000000000E+00 0.  1.
         23    2    1    2    0    0  0.16331560339E+02  0.10010320996E+02 -0.15799494203E+03  0.18415394312E+03  0.92646352705E+02 0.  0.
         23    2    1    2    0    0  0.11015959156E+02 -0.92572446364E+01  0.23140544884E+02  0.95971821213E+02  0.92022050157E+02 0.  0.
        -11    1    4    4    0    0 -0.36239384382E+02 -0.29736477965E+01  0.30845269105E+02  0.47681927265E+02  0.00000000000E+00 0. -1.
         11    1    4    4    0    0  0.47255343538E+02 -0.62835968399E+01 -0.77047242209E+01  0.48289893948E+02  0.00000000000E+00 0.  1.
        -13    1    3    3    0    0 -0.65567781876E+01  0.44937960613E+02 -0.11755851820E+03  0.12602546110E+03  0.00000000000E+00 0. -1.
         13    1    3    3    0    0  0.22888338527E+02 -0.34927639616E+02 -0.40436423835E+02  0.58128482023E+02  0.00000000000E+00 0.  1.
         21    1    1    2  502  501 -0.27347519496E+02 -0.75307636009E+00 -0.17437781907E+02  0.32442721594E+02  0.00000000000E+00 0. -1.
<scales pt_clust_5="13000.00000" pt_clust_6="13000.00000" pt_clust_7="13000.00000" pt_clust_8="13000.00000" pt_clust_9="27.35789"></scales>
<clustering>
<clus scale="   27.358">  2  9  1 -1</clus>
<clus scale="   92.022">  5  6 -1 -1</clus>
<clus scale="   92.646">  7  8 -1 -1</clus>
<clus scale="   92.708">  1  5  2 -1</clus>
<clus scale="   92.708">  1  5  2 -1</clus>
</clustering>
</event>
<event>
 9    1  0.1234700E-005  0.1378121E+03  0.7546771E-02  0.1216483E+00
          2   -1    0    0  502    0  0.00000000000E+00  0.00000000000E+00  0.10222041324E+03  0.10222041324E+03  0.00000000000E+00 0. -1.
         -2   -1    0    0    0  501 -0.00000000000E+00 -0.00000000000E+00 -0.46691319905E+03  0.46691319905E+03  0.00000000000E+00 0.  1.
         23    2    1    2    0    0  0.12274164181E+03 -0.10840748228E+02 -0.34631680325E+03  0.37859776539E+03  0.90652673904E+02 0.  0.
         23    2    1    2    0    0 -0.59151066871E+02 -0.40393401751E+01 -0.47680652072E+02  0.11895413201E+03  0.91441106512E+02 0.  0.
        -11    1    4    4    0    0 -0.88121608246E+01  0.35958227465E+02 -0.39505453946E+02  0.54141750917E+02  0.00000000000E+00 0.  1.
         11    1    4    4    0    0 -0.50338906046E+02 -0.39997567640E+02 -0.81751981258E+01  0.64812381097E+02  0.00000000000E+00 0. -1.
        -11    1    3    3    0    0  0.45565616401E+01  0.25061655915E+02 -0.32123166568E+02  0.40996910634E+02  0.00000000000E+00 0. -1.
         11    1    3    3    0    0  0.11818508017E+03 -0.35902404143E+02 -0.31419363668E+03  0.33760085475E+03  0.00000000000E+00 0.  1.
         21    1    1    2  502  501 -0.63590574939E+02  0.14880088403E+02  0.29304669512E+02  0.71581714894E+02  0.00000000000E+00 0. -1.
<scales pt_clust_5="13000.00000" pt_clust_6="13000.00000" pt_clust_7="13000.00000" pt_clust_8="13000.00000" pt_clust_9="65.30833"></scales>
<clustering>
<clus scale="   65.308">  1  9  2 -1</clus>
<clus scale="   90.653">  7  8 -1 -1</clus>
<clus scale="   91.441">  5  6 -1 -1</clus>
<clus scale="  137.290">  2  7  1 -1</clus>
<clus scale="   65.308">  1  5  2 -1</clus>
</clustering>
</event>
<event>
 9    1  0.1234700E-005  0.4096918E+03  0.7546771E-02  0.1040760E+00
         -2   -1    0    0    0  501 -0.00000000000E+00  0.00000000000E+00  0.16003114528E+04  0.16003114528E+04  0.00000000000E+00 0.  1.
          2   -1    0    0  502    0  0.00000000000E+00 -0.00000000000E+00 -0.18207077060E+03  0.18207077060E+03  0.00000000000E+00 0. -1.
         23    2    1    2    0    0 -0.39119222146E+03  0.10448626956E+03  0.11570740424E+04  0.12294096082E+04  0.93160671404E+02 0.  0.
         23    2    1    2    0    0  0.37505787213E+03 -0.80866425858E+02  0.30807398546E+03  0.49803161659E+03  0.76929346381E+02 0.  0.
        -11    1    3    3    0    0 -0.24961502748E+03  0.64746119624E+02  0.59621194221E+03  0.64959094974E+03  0.00000000000E+00 0. -1.
         11    1    3    3    0    0 -0.14157719398E+03  0.39740149936E+02  0.56086210015E+03  0.57981865851E+03  0.00000000000E+00 0.  1.
        -13    1    4    4    0    0  0.79162249105E+02  0.59860133516E+01  0.37591541450E+02  0.87838590766E+02  0.00000000000E+00 0.  1.
         13    1    4    4    0    0  0.29589562302E+03 -0.86852439210E+02  0.27048244401E+03  0.41019302583E+03  0.00000000000E+00 0. -1.
         21    1    1    2  502  501  0.16134349334E+02 -0.23619843702E+02 -0.46907345637E+02  0.54940998532E+02  0.00000000000E+00 0. -1.
<scales pt_clust_5="13000.00000" pt_clust_6="13000.00000" pt_clust_7="13000.00000" pt_clust_8="13000.00000" pt_clust_9="28.60444"></scales>
<clustering>
<clus scale="   28.604">  2  9  1 -1</clus>
<clus scale="   76.929">  7  8 -1 -1</clus>
<clus scale="   93.161">  5  6 -1 -1</clus>
<clus scale="  406.309">  2  7  1 -1</clus>
<clus scale="   28.604">  2  5  1 -1</clus>
</clustering>
</event>
<event>
 9    1  0.1234700E-005  0.1167756E+03  0.7546771E-02  0.1249116E+00
         -1   -1    0    0    0  501 -0.00000000000E+00  0.00000000000E+00  0.15806948035E+03  0.15806948035E+03  0.00000000000E+00 0.  1.
          1   -1    0    0  502    0  0.00000000000E+00 -0.00000000000E+00 -0.16662948464E+03  0.16662948464E+03  0.00000000000E+00 0. -1.
         23    2    1    2    0    0 -0.73731036772E+02 -0.10193290888E+02  0.10015898631E+03  0.15582593282E+03  0.93325933365E+02 0.  0.
         23    2    1    2    0    0  0.53712415386E+02 -0.10003850821E+01 -0.86500830171E+02  0.13694044324E+03  0.91565643318E+02 0.  0.
        -11    1    3    3    0    0  0.19828723298E+02 -0.81909022837E+01  0.37504076985E+02  0.43206769589E+02  0.00000000000E+00 0. -1.
         11    1    3    3    0    0 -0.93559760070E+02 -0.20023886038E+01  0.62654909321E+02  0.11261916323E+03  0.00000000000E+00 0.  1.
        -13    1    4    4    0    0  0.53577033601E+01  0.37150673455E+02 -0.10228019386E+02  0.38903597572E+02  0.00000000000E+00 0. -1.
         13    1    4    4    0    0  0.48354712025E+02 -0.38151058537E+02 -0.76272810785E+02  0.98036845664E+02  0.00000000000E+00 0.  1.
         21    1    1    2  502  501  0.20018621386E+02  0.11193675970E+02 -0.22218160424E+02  0.31932588942E+02  0.00000000000E+00 0. -1.
<scales pt_clust_5="13000.00000" pt_clust_6="13000.00000" pt_clust_7="13000.00000" pt_clust_8="13000.00000" pt_clust_9="22.93564"></scales>
<clustering>
<clus scale="   22.936">  2  9  1 -1</clus>
<clus scale="   91.566">  7  8 -1 -1</clus>
<clus scale="   93.326">  5  6 -1 -1</clus>
<clus scale="  115.374">  2  7  1 -1</clus>
<clus scale="   22.936">  2  5  1 -1</clus>
</clustering>
</event>
<event>
 9    1  0.1234700E-005  0.9289009E+02  0.7546771E-02  0.1296298E+00
          1   -1    0    0  502    0  0.00000000000E+00  0.00000000000E+00  0.81952663295E+03  0.81952663295E+03  0.00000000000E+00 0. -1.
         -1   -1    0    0    0  501 -0.00000000000E+00 -0.00000000000E+00 -0.34537667300E+02  0.34537667300E+02  0.00000000000E+00 0.  1.
         23    2    1    2    0    0  0.57720250365E+00  0.11045990203E+02  0.54358452896E+02  0.10636871215E+03  0.90758550343E+02 0.  0.
         23    2    1    2    0    0  0.29964581945E+02 -0.43814950258E+02  0.38658101756E+03  0.40074218996E+03  0.91278659271E+02 0.  0.
        -11    1    4    4    0    0  0.15005949472E+02 -0.70353014552E+02  0.31187602591E+03  0.32006465083E+03  0.00000000000E+00 0.  1.
         11    1    4    4    0    0  0.14958632474E+02  0.26538064293E+02  0.74704991655E+02  0.80677539130E+02  0.00000000000E+00 0. -1.
        -13    1    3    3    0    0  0.20376081693E+02 -0.10637043832E+02 -0.17404365416E+02  0.28831291025E+02  0.00000000000E+00 0.  1.
         13    1    3    3    0    0 -0.19798879189E+02  0.21683034036E+02  0.71762818313E+02  0.77537421122E+02  0.00000000000E+00 0. -1.
         21    1    1    2  502  501 -0.30541784449E+02  0.32768960055E+02  0.34404949519E+03  0.34695339814E+03  0.00000000000E+00 0. -1.
<scales pt_clust_5="13000.00000" pt_clust_6="13000.00000" pt_clust_7="13000.00000" pt_clust_8="13000.00000" pt_clust_9="44.79515"></scales>
<clustering>
<clus scale="   44.795">  1  9  2 -1</clus>
<clus scale="   90.759">  7  8 -1 -1</clus>
<clus scale="   91.279">  5  6 -1 -1</clus>
<clus scale="   92.379">  2  7  1 -1</clus>
<clus scale="   44.795">  1  5  2 -1</clus>
</clustering>
</event>
<event>
 9    1  0.1234700E-005  0.9236428E+02  0.7546771E-02  0.1297549E+00
          1   -1    0    0  502    0  0.00000000000E+00  0.00000000000E+00  0.61296685835E+02  0.61296685835E+02  0.00000000000E+00 0. -1.
         -1   -1    0    0    0  501 -0.00000000000E+00 -0.00000000000E+00 -0.19574360911E+03  0.19574360911E+03  0.00000000000E+00 0.  1.
         23    2    1    2    0    0 -0.16811242846E+02  0.10900531707E+02 -0.74029610487E+02  0.11904998819E+03  0.91055351199E+02 0.  0.
         23    2    1    2    0    0  0.64253122643E+01  0.10003001061E+02 -0.66552128306E+02  0.11385607385E+03  0.91611544591E+02 0.  0.
        -13    1    3    3    0    0 -0.36814105439E+02  0.14669536146E+02  0.26471236889E+01  0.39717513944E+02  0.00000000000E+00 0. -1.
         13    1    3    3    0    0  0.20002862594E+02 -0.37690044386E+01 -0.76676734175E+02  0.79332474247E+02  0.00000000000E+00 0.  1.
        -13    1    4    4    0    0  0.10059850540E+02  0.47097236044E+02 -0.15393500217E+02  0.50559965238E+02  0.00000000000E+00 0.  1.
         13    1    4    4    0    0 -0.36345382761E+01 -0.37094234983E+02 -0.51158628088E+02  0.63296108611E+02  0.00000000000E+00 0. -1.
         21    1    1    2  502  501  0.10385930581E+02 -0.20903532768E+02  0.61348155212E+01  0.24134232901E+02  0.00000000000E+00 0. -1.
<scales pt_clust_5="13000.00000" pt_clust_6="13000.00000" pt_clust_7="13000.00000" pt_clust_8="13000.00000" pt_clust_9="23.34149"></scales>
<clustering>
<clus scale="   23.341">  1  9  2 -1</clus>
<clus scale="   91.055">  5  6 -1 -1</clus>
<clus scale="   91.612">  7  8 -1 -1</clus>
<clus scale="   91.813">  2  5  1 -1</clus>
<clus scale="   23.341">  1  5  2 -1</clus>
</clustering>
</event>
<event>
 9    1  0.1234700E-005  0.1024648E+03  0.7546771E-02  0.1278344E+00
          2   -1    0    0  502    0  0.00000000000E+00  0.00000000000E+00  0.63726927523E+03  0.63726927523E+03  0.00000000000E+00 0. -1.
         -2   -1    0    0    0  501 -0.00000000000E+00 -0.00000000000E+00 -0.61436046030E+02  0.61436046030E+02  0.00000000000E+00 0.  1.
         23    2    1    2    0    0  0.23700450824E+02  0.18576715742E+02 -0.54238704006E+01  0.95398722080E+02  0.90358685622E+02 0.  0.
         23    2    1    2    0    0 -0.63018123635E+02 -0.32453469611E+02  0.42998301307E+03  0.44639167654E+03  0.96724483738E+02 0.  0.
        -11    1    4    4    0    0  0.56663510060E+01  0.22463549419E+02  0.36729773742E+02  0.43425739664E+02  0.00000000000E+00 0.  1.
         11    1    4    4    0    0 -0.68684474641E+02 -0.54917019030E+02  0.39325323933E+03  0.40296593687E+03  0.00000000000E+00 0. -1.
        -13    1    3    3    0    0  0.10452337902E+02  0.43892894009E+02  0.26682332117E+02  0.52419312846E+02  0.00000000000E+00 0. -1.
         13    1    3    3    0    0  0.13248112922E+02 -0.25316178266E+02 -0.32106202518E+02  0.42979409234E+02  0.00000000000E+00 0.  1.
         21    1    1    2  502  501  0.39317672811E+02  0.13876753869E+02  0.15127408653E+03  0.15691492264E+03  0.00000000000E+00 0.  1.
<scales pt_clust_5="13000.00000" pt_clust_6="13000.00000" pt_clust_7="13000.00000" pt_clust_8="13000.00000" pt_clust_9="41.69465"></scales>
<clustering>
<clus scale="   41.695">  1  9  2 -1</clus>
<clus scale="   90.359">  7  8 -1 -1</clus>
<clus scale="   96.478">  2  7  1 -1</clus>
<clus scale="   96.724">  5  6 -1 -1</clus>
<clus scale="   41.695">  1  5  2 -1</clus>
</clustering>
</event>
<event>
 9    1  0.1234700E-005  0.1510920E+03  0.7546771E-02  0.1199837E+00
         -1   -1    0    0    0  501 -0.00000000000E+00  0.00000000000E+00  0.13768468018E+03  0.13768468018E+03  0.00000000000E+00 0.  1.
          1   -1    0    0  502    0  0.00000000000E+00 -0.00000000000E+00 -0.22372019622E+03  0.22372019622E+03  0.00000000000E+00 0. -1.
         23    2    1    2    0    0  0.10152329330E+03 -0.43390161094E+02  0.63697183660E+01  0.14301160980E+03  0.90675586920E+02 0.  0.
         23    2    1    2    0    0 -0.12655717176E+03  0.62952182491E+02 -0.81306151938E+02  0.18473977669E+03  0.86823958356E+02 0.  0.
        -11    1    3    3    0    0  0.43500344116E+02 -0.65732239708E+02  0.15007717067E+02  0.80238636870E+02  0.00000000000E+00 0.  1.
         11    1    3    3    0    0  0.58022949186E+02  0.22342078614E+02 -0.86379987009E+01  0.62772972930E+02  0.00000000000E+00 0. -1.
        -13    1    4    4    0    0 -0.10423807186E+02  0.35960037984E+02  0.46906334237E+01  0.37733037646E+02  0.00000000000E+00 0.  1.
         13    1    4    4    0    0 -0.11613336457E+03  0.26992144507E+02 -0.85996785361E+02  0.14700673904E+03  0.00000000000E+00 0. -1.
         21    1    1    2  502  501  0.25033878454E+02 -0.19562021396E+02 -0.11099082463E+02  0.33653489909E+02  0.00000000000E+00 0. -1.
<scales pt_clust_5="13000.00000" pt_clust_6="13000.00000" pt_clust_7="13000.00000" pt_clust_8="13000.00000" pt_clust_9="31.77055"></scales>
<clustering>
<clus scale="   31.771">  2  9  1 -1</clus>
<clus scale="   86.824">  7  8 -1 -1</clus>
<clus scale="   90.676">  5  6 -1 -1</clus>
<clus scale="  148.812">  2  7  1 -1</clus>
<clus scale="   31.771">  2  5  1 -1</clus>
</clustering>
</event>
<event>
 9    1  0.1234700E-005  0.1786530E+03  0.7546771E-02  0.1169462E+00
         -1   -1    0    0    0  501 -0.00000000000E+00  0.00000000000E+00  0.90159829508E+02  0.90159829508E+02  0.00000000000E+00 0.  1.
          1   -1    0    0  502    0  0.00000000000E+00 -0.00000000000E+00 -0.63510127105E+03  0.63510127105E+03  0.00000000000E+00 0. -1.
         23    2    1    2    0    0 -0.10222728354E+03  0.55483560239E+02 -0.51614600159E+02  0.15739103340E+03  0.92623039728E+02 0.  0.
         23    2    1    2    0    0  0.16793615991E+03 -0.13670087446E+02 -0.41228542222E+03  0.45547018032E+03  0.95312070011E+02 0.  0.
        -11    1    3    3    0    0 -0.57918720509E+01  0.24592264589E+02  0.20943339880E+02  0.32816897245E+02  0.00000000000E+00 0.  1.
         11    1    3    3    0    0 -0.96435411492E+02  0.30891295650E+02 -0.72557940040E+02  0.12457413616E+03  0.00000000000E+00 0. -1.
        -11    1    4    4    0    0  0.23409254460E+02  0.13597556988E+02 -0.13145332220E+02  0.30094625925E+02  0.00000000000E+00 0.  1.
         11    1    4    4    0    0  0.14452690545E+03 -0.27267644434E+02 -0.39914009000E+03  0.42537555439E+03  0.00000000000E+00 0. -1.
         21    1    1    2  502  501 -0.65708876369E+02 -0.41813472793E+02 -0.81041419164E+02  0.11239988684E+03  0.00000000000E+00 0. -1.
<scales pt_clust_5="13000.00000" pt_clust_6="13000.00000" pt_clust_7="13000.00000" pt_clust_8="13000.00000" pt_clust_9="77.88468"></scales>
<clustering>
<clus scale="   77.885">  1  9  2 -1</clus>
<clus scale="   92.623">  5  6 -1 -1</clus>
<clus scale="   95.312">  7  8 -1 -1</clus>
<clus scale="  177.233">  1  5  2 -1</clus>
<clus scale="  178.653">  2  5  1 -1</clus>
</clustering>
</event>
<event>
 9    1  0.1234700E-005  0.1868644E+03  0.7546771E-02  0.1162877E+00
          2   -1    0    0  502    0  0.00000000000E+00  0.00000000000E+00  0.60760338644E+03  0.60760338644E+03  0.00000000000E+00 0. -1.
         -2   -1    0    0    0  501 -0.00000000000E+00 -0.00000000000E+00 -0.66734803908E+02  0.66734803908E+02  0.00000000000E+00 0.  1.
         23    2    1    2    0    0  0.14236245419E+03  0.40313292122E+02  0.23642993017E+03  0.29336746178E+03  0.90956725248E+02 0.  0.
         23    2    1    2    0    0 -0.16443968691E+03 -0.15084127206E+02  0.24906698940E+03  0.31624101340E+03  0.10347014941E+03 0.  0.
        -13    1    3    3    0    0  0.34102794687E+02  0.28898459661E+02  0.15920083000E+02  0.47450717792E+02  0.00000000000E+00 0.  1.
         13    1    3    3    0    0  0.10825965950E+03  0.11414832460E+02  0.22050984717E+03  0.24591674399E+03  0.00000000000E+00 0. -1.
        -13    1    4    4    0    0 -0.15985068538E+03  0.17714398788E+02  0.21736662450E+03  0.27039654397E+03  0.00000000000E+00 0.  1.
         13    1    4    4    0    0 -0.45890015303E+01 -0.32798525994E+02  0.31700364900E+02  0.45844469429E+02  0.00000000000E+00 0. -1.
         21    1    1    2  502  501  0.22077232724E+02 -0.25229164916E+02  0.55371662957E+02  0.64729715168E+02  0.00000000000E+00 0. -1.
<scales pt_clust_5="13000.00000" pt_clust_6="13000.00000" pt_clust_7="13000.00000" pt_clust_8="13000.00000" pt_clust_9="33.52484"></scales>
<clustering>
<clus scale="   33.525">  1  9  2 -1</clus>
<clus scale="   90.957">  5  6 -1 -1</clus>
<clus scale="  103.470">  7  8 -1 -1</clus>
<clus scale="  180.237">  2  5  1 -1</clus>
<clus scale="   33.525">  1  5  2 -1</clus>
</clustering>
</event>
<event>
 9    1  0.1234700E-005  0.9671085E+02  0.7546771E-02  0.1288204E+00
          1   -1    0    0  502    0  0.00000000000E+00  0.00000000000E+00  0.42443937066E+03  0.42443937066E+03  0.00000000000E+00 0. -1.
         -1   -1    0    0    0  501 -0.00000000000E+00 -0.00000000000E+00 -0.12085063118E+03  0.12085063118E+03  0.00000000000E+00 0.  1.
         23    2    1    2    0    0 -0.42294957882E+02  0.33200673951E+02 -0.38262170540E+02  0.11236642147E+03  0.90945427403E+02 0.  0.
         23    2    1    2    0    0  0.19998819327E+01  0.19521925178E+02  0.10692507730E+02  0.95182180772E+02  0.92521417653E+02 0.  0.
        -11    1    4    4    0    0  0.11076803593E+02 -0.34107825396E+02  0.18299188489E+02  0.40260397793E+02  0.00000000000E+00 0. -1.
         11    1    4    4    0    0 -0.90769216604E+01  0.53629750574E+02 -0.76066807585E+01  0.54921782979E+02  0.00000000000E+00 0.  1.
        -13    1    3    3    0    0 -0.60941580400E+02 -0.28838599162E+00 -0.41759271290E+02  0.73876898465E+02  0.00000000000E+00 0.  1.
         13    1    3    3    0    0  0.18646622518E+02  0.33489059943E+02  0.34971007496E+01  0.38489523001E+02  0.00000000000E+00 0. -1.
         21    1    1    2  502  501  0.40295075949E+02 -0.52722599129E+02  0.33115840229E+03  0.33774139961E+03  0.00000000000E+00 0. -1.
<scales pt_clust_5="13000.00000" pt_clust_6="13000.00000" pt_clust_7="13000.00000" pt_clust_8="13000.00000" pt_clust_9="66.35786"></scales>
<clustering>
<clus scale="   66.358">  1  9  2 -1</clus>
<clus scale="   90.945">  7  8 -1 -1</clus>
<clus scale="   92.521">  5  6 -1 -1</clus>
<clus scale="   95.204">  2  7  1 -1</clus>
<clus scale="   66.358">  1  5  2 -1</clus>
</clustering>
</event>
<event>
 9    1  0.1234700E-005  0.9682432E+02  0.7546771E-02  0.1288119E+00
          1   -1    0    0  502    0  0.00000000000E+00  0.00000000000E+00  0.24320178110E+03  0.24320178110E+03  0.00000000000E+00 0. -1.
         -1   -1    0    0    0  501 -0.00000000000E+00 -0.00000000000E+00 -0.66331146238E+02  0.66331146238E+02  0.00000000000E+00 0.  1.
         23    2    1    2    0    0 -0.10465954670E+02 -0.26528279913E+02  0.79264251260E+01  0.96534433984E+02  0.91884617249E+02 0.  0.
         23    2    1    2    0    0 -0.15405388621E+02  0.40641608217E+02  0.12401012682E+03  0.15926224630E+03  0.89982694043E+02 0.  0.
        -13    1    3    3    0    0  0.40015692553E+02 -0.16709909903E+02 -0.45868579484E+01  0.43606375742E+02  0.00000000000E+00 0. -1.
         13    1    3    3    0    0 -0.50481647223E+02 -0.98183700100E+01  0.12513283074E+02  0.52928058242E+02  0.00000000000E+00 0.  1.
        -13    1    4    4    0    0 -0.18285376851E+02  0.67577480241E+02  0.70879423580E+02  0.99624111185E+02  0.00000000000E+00 0.  1.
         13    1    4    4    0    0  0.28799882300E+01 -0.26935872024E+02  0.53130703236E+02  0.59638135117E+02  0.00000000000E+00 0. -1.
         21    1    1    2  502  501  0.25871343291E+02 -0.14113328304E+02  0.44934082924E+02  0.53736247056E+02  0.00000000000E+00 0. -1.
<scales pt_clust_5="13000.00000" pt_clust_6="13000.00000" pt_clust_7="13000.00000" pt_clust_8="13000.00000" pt_clust_9="29.47054"></scales>
<clustering>
<clus scale="   29.471">  1  9  2 -1</clus>
<clus scale="   89.983">  7  8 -1 -1</clus>
<clus scale="   91.885">  5  6 -1 -1</clus>
<clus scale="   95.021">  1  7  2 -1</clus>
<clus scale="   29.471">  1  5  2 -1</clus>
</clustering>
</event>
<event>
 9    1  0.1234700E-005  0.2287017E+03  0.7546771E-02  0.1127634E+00
         -1   -1    0    0    0  501 -0.00000000000E+00  0.00000000000E+00  0.60640732505E+03  0.60640732505E+03  0.00000000000E+00 0.  1.
          1   -1    0    0  502    0  0.00000000000E+00 -0.00000000000E+00 -0.21839288762E+03  0.21839288762E+03  0.00000000000E+00 0. -1.
         23    2    1    2    0    0 -0.35092060942E+02  0.20141881120E+03  0.46574168630E+03  0.51663821238E+03  0.90546860219E+02 0.  0.
         23    2    1    2    0    0  0.43797874431E+02 -0.23682051250E+03 -0.50306072902E+02  0.26254410320E+03  0.91632397158E+02 0.  0.
        -13    1    3    3    0    0 -0.62250622544E+01  0.19265737537E+03  0.38785315505E+03  0.43311163176E+03  0.00000000000E+00 0.  1.
         13    1    3    3    0    0 -0.28866998688E+02  0.87614358310E+01  0.77888531244E+02  0.83526580622E+02  0.00000000000E+00 0. -1.
        -13    1    4    4    0    0  0.29880567190E+01 -0.20683133375E+03 -0.36458911939E+02  0.21004138012E+03  0.00000000000E+00 0. -1.
         13    1    4    4    0    0  0.40809817712E+02 -0.29989178747E+02 -0.13847160963E+02  0.52502723075E+02  0.00000000000E+00 0.  1.
         21    1    1    2  502  501 -0.87058134885E+01  0.35401701300E+02 -0.27421175959E+02  0.45617897085E+02  0.00000000000E+00 0. -1.
<scales pt_clust_5="13000.00000" pt_clust_6="13000.00000" pt_clust_7="13000.00000" pt_clust_8="13000.00000" pt_clust_9="36.45643"></scales>
<clustering>
<clus scale="   36.456">  2  9  1 -1</clus>
<clus scale="   90.547">  5  6 -1 -1</clus>
<clus scale="   91.632">  7  8 -1 -1</clus>
<clus scale="  228.269">  1  5  2 -1</clus>
<clus scale="   36.456">  2  5  1 -1</clus>
</clustering>
</event>
<event>
 9    1  0.1234700E-005  0.1124036E+03  0.7546771E-02  0.1259197E+00
         -1   -1    0    0    0  501 -0.00000000000E+00  0.00000000000E+00  0.27500484802E+03  0.27500484802E+03  0.00000000000E+00 0.  1.
          1   -1    0    0  502    0  0.00000000000E+00 -0.00000000000E+00 -0.12113029095E+03  0.12113029095E+03  0.00000000000E+00 0. -1.
         23    2    1    2    0    0 -0.40632272106E+02 -0.37742702170E+02  0.21611419129E+03  0.24322980440E+03  0.96849888832E+02 0.  0.
         23    2    1    2    0    0  0.33944481038E+02  0.59868050473E+02 -0.36835534883E+02  0.11855965290E+03  0.89236334552E+02 0.  0.
        -13    1    3    3    0    0 -0.59887629658E+01 -0.57349777923E+02  0.64679222562E+02  0.86650240281E+02  0.00000000000E+00 0. -1.
         13    1    3    3    0    0 -0.34643509141E+02  0.19607075753E+02  0.15143496873E+03  0.15657956412E+03  0.00000000000E+00 0.  1.
        -13    1    4    4    0    0 -0.36495096764E+01  0.46066304526E+02 -0.57279339232E+02  0.73595828934E+02  0.00000000000E+00 0.  1.
         13    1    4    4    0    0  0.37593990714E+02  0.13801745948E+02  0.20443804349E+02  0.44963823962E+02  0.00000000000E+00 0. -1.
         21    1    1    2  502  501  0.66877910685E+01 -0.22125348303E+02 -0.25404099333E+02  0.34345681676E+02  0.00000000000E+00 0. -1.
<scales pt_clust_5="13000.00000" pt_clust_6="13000.00000" pt_clust_7="13000.00000" pt_clust_8="13000.00000" pt_clust_9="23.11401"></scales>
<clustering>
<clus scale="   23.114">  2  9  1 -1</clus>
<clus scale="   89.236">  7  8 -1 -1</clus>
<clus scale="   96.850">  5  6 -1 -1</clus>
<clus scale="  105.914">  2  7  1 -1</clus>
<clus scale="   23.114">  2  5  1 -1</clus>
</clustering>
</event>
<event>
 9    1  0.1234700E-005  0.9728084E+02  0.7546771E-02  0.1286939E+00
         -4   -1    0    0    0  501 -0.00000000000E+00  0.00000000000E+00  0.96508009491E+02  0.96508009491E+02  0.00000000000E+00 0.  1.
          4   -1    0    0  502    0  0.00000000000E+00 -0.00000000000E+00 -0.14796927259E+03  0.14796927259E+03  0.00000000000E+00 0. -1.
         23    2    1    2    0    0  0.18070530605E+02 -0.15350133043E+02  0.55672395710E+01  0.95450038843E+02  0.92290547175E+02 0.  0.
         23    2    1    2    0    0 -0.48634860453E+02 -0.11679693853E+01 -0.42696244805E+02  0.11144480608E+03  0.90720789673E+02 0.  0.
        -13    1    3    3    0    0 -0.23467251822E+01  0.32813477630E+02 -0.18636735277E+02  0.37809513816E+02  0.00000000000E+00 0.  1.
         13    1    3    3    0    0  0.20417255787E+02 -0.48163610672E+02  0.24203974848E+02  0.57640525026E+02  0.00000000000E+00 0. -1.
        -13    1    4    4    0    0  0.18769594144E+02  0.24038261061E+02 -0.78686365825E+01  0.31496842712E+02  0.00000000000E+00 0.  1.
         13    1    4    4    0    0 -0.67404454597E+02 -0.25206230447E+02 -0.34827608222E+02  0.79947963371E+02  0.00000000000E+00 0. -1.
         21    1    1    2  502  501  0.30564329848E+02  0.16518102428E+02 -0.14332257865E+02  0.37582437153E+02  0.00000000000E+00 0.  1.
<scales pt_clust_5="13000.00000" pt_clust_6="13000.00000" pt_clust_7="13000.00000" pt_clust_8="13000.00000" pt_clust_9="34.74228"></scales>
<clustering>
<clus scale="   34.742">  2  9  1 -1</clus>
<clus scale="   90.721">  7  8 -1 -1</clus>
<clus scale="   92.291">  5  6 -1 -1</clus>
<clus scale="   95.793">  2  7  1 -1</clus>
<clus scale="   34.742">  2  5  1 -1</clus>
</clustering>
</event>
<event>
 9    1  0.1234700E-005  0.1328865E+03  0.7546771E-02  0.1231561E+00
          4   -1    0    0  502    0  0.00000000000E+00  0.00000000000E+00  0.43195726401E+03  0.43195726401E+03  0.00000000000E+00 0. -1.
         -4   -1    0    0    0  501 -0.00000000000E+00 -0.00000000000E+00 -0.58106632499E+02  0.58106632499E+02  0.00000000000E+00 0.  1.
         23    2    1    2    0    0  0.21875965261E+02  0.86635352974E+02  0.21032087562E+03  0.25664460251E+03  0.11682182601E+03 0.  0.
         23    2    1    2    0    0 -0.33837754998E+02 -0.34124026513E+02  0.14071538947E+03  0.17492981516E+03  0.92142154023E+02 0.  0.
        -11    1    3    3    0    0 -0.35417179527E+02  0.46932147138E+02  0.36094249380E+02  0.68991288428E+02  0.00000000000E+00 0.  1.
         11    1    3    3    0    0  0.57293144787E+02  0.39703205836E+02  0.17422662624E+03  0.18765331408E+03  0.00000000000E+00 0. -1.
        -13    1    4    4    0    0  0.24343106036E+02 -0.36302104229E+02  0.77592661833E+02  0.89056447005E+02  0.00000000000E+00 0.  1.
         13    1    4    4    0    0 -0.58180861033E+02  0.21780777160E+01  0.63122727638E+02  0.85873368151E+02  0.00000000000E+00 0. -1.
         21    1    1    2  502  501  0.11961789737E+02 -0.52511326461E+02  0.22814366417E+02  0.58489478844E+02  0.00000000000E+00 0.  1.
<scales pt_clust_5="13000.00000" pt_clust_6="13000.00000" pt_clust_7="13000.00000" pt_clust_8="13000.00000" pt_clust_9="53.85651"></scales>
<clustering>
<clus scale="   53.857">  2  9  1 -1</clus>
<clus scale="   92.142">  7  8 -1 -1</clus>
<clus scale="  111.811">  1  7  2 -1</clus>
<clus scale="  116.822">  5  6 -1 -1</clus>
<clus scale="  111.811">  1  5  2 -1</clus>
</clustering>
</event>
<event>
 9    1  0.1234700E-005  0.9112321E+02  0.7546771E-02  0.1302898E+00
          1   -1    0    0  502    0  0.00000000000E+00  0.00000000000E+00  0.38250454994E+02  0.38250454994E+02  0.00000000000E+00 0. -1.
         -1   -1    0    0    0  501 -0.00000000000E+00 -0.00000000000E+00 -0.29454511028E+03  0.29454511028E+03  0.00000000000E+00 0.  1.
         23    2    1    2    0    0 -0.84270667359E+01  0.33519132362E+01 -0.16825108165E+03  0.19148205209E+03  0.90965372649E+02 0.  0.
         23    2    1    2    0    0 -0.13445876192E+02 -0.89083983902E+01 -0.69768749022E+02  0.11227441240E+03  0.86473777478E+02 0.  0.
        -11    1    4    4    0    0 -0.32224587859E+02  0.27312366200E+02 -0.16908884283E+02  0.45500547006E+02  0.00000000000E+00 0.  1.
         11    1    4    4    0    0  0.18778711667E+02 -0.36220764591E+02 -0.52859864739E+02  0.66773865394E+02  0.00000000000E+00 0. -1.
        -13    1    3    3    0    0  0.18027806617E+02  0.28183856225E+02 -0.14401154939E+03  0.14784673794E+03  0.00000000000E+00 0.  1.
         13    1    3    3    0    0 -0.26454873353E+02 -0.24831942989E+02 -0.24239532260E+02  0.43635314149E+02  0.00000000000E+00 0. -1.
         21    1    1    2  502  501  0.21872942928E+02  0.55564851540E+01 -0.18274824618E+02  0.29039100785E+02  0.00000000000E+00 0.  1.
<scales pt_clust_5="13000.00000" pt_clust_6="13000.00000" pt_clust_7="13000.00000" pt_clust_8="13000.00000" pt_clust_9="22.56768"></scales>
<clustering>
<clus scale="   22.568">  1  9  2 -1</clus>
<clus scale="   86.474">  5  6 -1 -1</clus>
<clus scale="   86.640">  1  5  2 -1</clus>
<clus scale="   90.965">  7  8 -1 -1</clus>
<clus scale="   22.568">  1  5  2 -1</clus>
</clustering>
</event>
<event>
 9    1  0.1234700E-005  0.8410545E+02  0.7546771E-02  0.1322130E+00
          1   -1    0    0  502    0  0.00000000000E+00  0.00000000000E+00  0.69767656112E+02  0.69767656112E+02  0.00000000000E+00 0. -1.
         -1   -1    0    0    0  501 -0.00000000000E+00 -0.00000000000E+00 -0.19729218863E+03  0.19729218863E+03  0.00000000000E+00 0.  1.
         23    2    1    2    0    0 -0.16969669810E+02  0.35258441883E+01 -0.13498301278E+03  0.15881143338E+03  0.81855093683E+02 0.  0.
         23    2    1    2    0    0  0.17589728384E+02 -0.28795733194E+02  0.35759241064E+01  0.82674479223E+02  0.75390247956E+02 0.  0.
        -11    1    3    3    0    0 -0.39103803850E+02 -0.16519704541E+02 -0.11575784019E+03  0.12329592726E+03  0.00000000000E+00 0. -1.
         11    1    3    3    0    0  0.22134134041E+02  0.20045548730E+02 -0.19225172587E+02  0.35515506115E+02  0.00000000000E+00 0.  1.
        -11    1    4    4    0    0  0.38762437893E+02  0.76238036103E+01 -0.45661897962E+01  0.39768065859E+02  0.00000000000E+00 0.  1.
         11    1    4    4    0    0 -0.21172709509E+02 -0.36419536804E+02  0.81421139026E+01  0.42906413364E+02  0.00000000000E+00 0. -1.
         21    1    1    2  502  501 -0.62005857498E+00  0.25269889006E+02  0.38825561524E+01  0.25573932143E+02  0.00000000000E+00 0.  1.
<scales pt_clust_5="13000.00000" pt_clust_6="13000.00000" pt_clust_7="13000.00000" pt_clust_8="13000.00000" pt_clust_9="25.27750"></scales>
<clustering>
<clus scale="   25.277">  1  9  2 -1</clus>
<clus scale="   75.390">  7  8 -1 -1</clus>
<clus scale="   77.828">  1  7  2 -1</clus>
<clus scale="   81.855">  5  6 -1 -1</clus>
<clus scale="   25.277">  1  5  2 -1</clus>
</clustering>
</event>
<event>
 9    1  0.1234700E-005  0.1358573E+03  0.7546771E-02  0.1219760E+00
          1   -1    0    0  502    0  0.00000000000E+00  0.00000000000E+00  0.21167495907E+03  0.21167495907E+03  0.00000000000E+00 0. -1.
         -1   -1    0    0    0  501 -0.00000000000E+00 -0.00000000000E+00 -0.15076149900E+03  0.15076149900E+03  0.00000000000E+00 0.  1.
         23    2    1    2    0    0  0.43188216863E+02 -0.11408947661E+03 -0.11251493133E+02  0.15331708460E+03  0.92184063610E+02 0.  0.
         23    2    1    2    0    0 -0.70429251289E+02  0.46261653153E+02  0.37330129627E+02  0.12814930169E+03  0.89040917315E+02 0.  0.
        -11    1    3    3    0    0 -0.25289282801E+02 -0.25771323327E+02 -0.19899848976E+02  0.41227574751E+02  0.00000000000E+00 0.  1.
         11    1    3    3    0    0  0.68477499663E+02 -0.88318153281E+02  0.86483558423E+01  0.11208950985E+03  0.00000000000E+00 0. -1.
        -11    1    4    4    0    0 -0.22133791236E+02  0.29323368401E+02  0.61431045367E+02  0.71578893424E+02  0.00000000000E+00 0. -1.
         11    1    4    4    0    0 -0.48295460052E+02  0.16938284752E+02 -0.24100915740E+02  0.56570408267E+02  0.00000000000E+00 0.  1.
         21    1    1    2  502  501  0.27241034426E+02  0.67827823456E+02  0.34834823570E+02  0.80970071782E+02  0.00000000000E+00 0. -1.
<scales pt_clust_5="13000.00000" pt_clust_6="13000.00000" pt_clust_7="13000.00000" pt_clust_8="13000.00000" pt_clust_9="73.09369"></scales>
<clustering>
<clus scale="   73.094">  1  9  2 -1</clus>
<clus scale="   89.041">  7  8 -1 -1</clus>
<clus scale="   92.184">  5  6 -1 -1</clus>
<clus scale="  133.744">  1  7  2 -1</clus>
<clus scale="   73.094">  1  5  2 -1</clus>
</clustering>
</event>
<event>
 9    1  0.1360632E-005  0.1116710E+03  0.7546771E-02  0.1259461E+00
          1   -1    0    0  502    0  0.00000000000E+00  0.00000000000E+00  0.37851161509E+03  0.37851161509E+03  0.00000000000E+00 0. -1.
         -1   -1    0    0    0  501 -0.00000000000E+00 -0.00000000000E+00 -0.76424769020E+02  0.76424769020E+02  0.00000000000E+00 0.  1.
         23    2    1    2    0    0 -0.23804723797E+02  0.99947773782E+01 -0.85764727020E+01  0.91322179051E+02  0.87175822638E+02 0.  0.
         23    2    1    2    0    0  0.71547966383E+02  0.11552353052E+02  0.27830916072E+03  0.30204726924E+03  0.92325487067E+02 0.  0.
        -11    1    4    4    0    0  0.85511244904E+02  0.28739523613E+02  0.25199235573E+03  0.26765328425E+03  0.00000000000E+00 0. -1.
         11    1    4    4    0    0 -0.13963278521E+02 -0.17187170561E+02  0.26316804985E+02  0.34393984991E+02  0.00000000000E+00 0.  1.
        -11    1    3    3    0    0 -0.53639732792E+02  0.88420105902E+01 -0.21923092840E+02  0.58617609001E+02  0.00000000000E+00 0.  1.
         11    1    3    3    0    0  0.29835008996E+02  0.11527667880E+01  0.13346620138E+02  0.32704570050E+02  0.00000000000E+00 0. -1.
         21    1    1    2  502  501 -0.47743242586E+02 -0.21547130430E+02  0.32354158051E+02  0.61566935815E+02  0.00000000000E+00 0.  1.
<scales pt_clust_5="13000.00000" pt_clust_6="13000.00000" pt_clust_7="13000.00000" pt_clust_8="13000.00000" pt_clust_9="52.38030"></scales>
<clustering>
<clus scale="   52.380">  2  9  1 -1</clus>
<clus scale="   87.176">  7  8 -1 -1</clus>
<clus scale="   92.325">  5  6 -1 -1</clus>
<clus scale="  107.453">  2  7  1 -1</clus>
<clus scale="  111.671">  1  5  2 -1</clus>
</clustering>
</event>
<event>
 9    1  0.1234700E-005  0.2006140E+03  0.7546771E-02  0.1150567E+00
          1   -1    0    0  502    0  0.00000000000E+00  0.00000000000E+00  0.58290168290E+03  0.58290168290E+03  0.00000000000E+00 0. -1.
         -1   -1    0    0    0  501 -0.00000000000E+00 -0.00000000000E+00 -0.34801815785E+03  0.34801815785E+03  0.00000000000E+00 0.  1.
         23    2    1    2    0    0  0.14222586851E+02  0.17187252114E+03 -0.22356494968E+03  0.29672643628E+03  0.91229632030E+02 0.  0.
         23    2    1    2    0    0  0.98917929790E+02 -0.16947407126E+03  0.74995923251E+02  0.23439046763E+03  0.10396290276E+03 0.  0.
        -11    1    3    3    0    0  0.14517752420E+00  0.12813206666E+03 -0.21455210309E+03  0.24990088540E+03  0.00000000000E+00 0.  1.
         11    1    3    3    0    0  0.14077409327E+02  0.43740454475E+02 -0.90128465893E+01  0.46825550875E+02  0.00000000000E+00 0. -1.
        -13    1    4    4    0    0  0.51769467390E+01 -0.10672083670E+03  0.53735548737E+02  0.11959785517E+03  0.00000000000E+00 0. -1.
         13    1    4    4    0    0  0.93740983051E+02 -0.62753234558E+02  0.21260374514E+02  0.11479261246E+03  0.00000000000E+00 0.  1.
         21    1    1    2  502  501 -0.11314051664E+03 -0.23984498797E+01  0.38345255148E+03  0.39980293684E+03  0.00000000000E+00 0. -1.
<scales pt_clust_5="13000.00000" pt_clust_6="13000.00000" pt_clust_7="13000.00000" pt_clust_8="13000.00000" pt_clust_9="113.16594"></scales>
<clustering>
<clus scale="   91.230">  5  6 -1 -1</clus>
<clus scale="  103.963">  7  8 -1 -1</clus>
<clus scale="  113.166">  1  9  2 -1</clus>
<clus scale="  194.321">  2  5  1 -1</clus>
<clus scale="  113.166">  1  5  2 -1</clus>
</clustering>
</event>
<event>
 9    1  0.1234700E-005  0.9831579E+02  0.7546771E-02  0.1284719E+00
          2   -1    0    0  502    0  0.00000000000E+00  0.00000000000E+00  0.16991357272E+02  0.16991357272E+02  0.00000000000E+00 0. -1.
         -2   -1    0    0    0  501 -0.00000000000E+00 -0.00000000000E+00 -0.74312428876E+03  0.74312428876E+03  0.00000000000E+00 0.  1.
         23    2    1    2    0    0 -0.18406478086E+02  0.36417716356E+02 -0.44808407288E+03  0.45939044796E+03  0.92710295054E+02 0.  0.
         23    2    1    2    0    0  0.90523049630E+01 -0.18039492823E+02 -0.23919816629E+03  0.25674070138E+03  0.91064029479E+02 0.  0.
        -11    1    4    4    0    0  0.47074451531E+02 -0.24192158058E+02 -0.11271245162E+03  0.12452052541E+03  0.00000000000E+00 0. -1.
         11    1    4    4    0    0 -0.38022146568E+02  0.61526652354E+01 -0.12648571467E+03  0.13222017597E+03  0.00000000000E+00 0.  1.
        -13    1    3    3    0    0  0.34991108697E+02  0.79606690273E+01 -0.10375418707E+03  0.10978470418E+03  0.00000000000E+00 0. -1.
         13    1    3    3    0    0 -0.53397586783E+02  0.28457047329E+02 -0.34432988581E+03  0.34960574377E+03  0.00000000000E+00 0.  1.
         21    1    1    2  502  501  0.93541731231E+01 -0.18378223534E+02 -0.38850692324E+02  0.43984496691E+02  0.00000000000E+00 0. -1.
<scales pt_clust_5="13000.00000" pt_clust_6="13000.00000" pt_clust_7="13000.00000" pt_clust_8="13000.00000" pt_clust_9="20.62182"></scales>
<clustering>
<clus scale="   20.622">  1  9  2 -1</clus>
<clus scale="   91.064">  5  6 -1 -1</clus>
<clus scale="   92.710">  7  8 -1 -1</clus>
<clus scale="   96.765">  1  5  2 -1</clus>
<clus scale="   20.622">  1  5  2 -1</clus>
</clustering>
</event>
<event>
 9    1  0.1234700E-005  0.9696419E+02  0.7546771E-02  0.1286909E+00
          2   -1    0    0  502    0  0.00000000000E+00  0.00000000000E+00  0.13054201243E+03  0.13054201243E+03  0.00000000000E+00 0. -1.
         -2   -1    0    0    0  501 -0.00000000000E+00 -0.00000000000E+00 -0.12004869152E+03  0.12004869152E+03  0.00000000000E+00 0.  1.
         23    2    1    2    0    0 -0.23003695993E+02  0.22179730565E+02 -0.43638989457E+02  0.10730012250E+03  0.92670623237E+02 0.  0.
         23    2    1    2    0    0 -0.50510614438E+01 -0.30957540412E+02  0.22719629768E+02  0.10026877462E+03  0.92486556084E+02 0.  0.
        -13    1    4    4    0    0 -0.37523947738E+02 -0.47938403068E+02  0.11593087974E+02  0.61972064927E+02  0.00000000000E+00 0.  1.
         13    1    4    4    0    0  0.32472886294E+02  0.16980862655E+02  0.11126541794E+02  0.38296709690E+02  0.00000000000E+00 0. -1.
        -13    1    3    3    0    0  0.11610314367E+02 -0.26686614384E+02  0.57641557246E+01  0.29668169445E+02  0.00000000000E+00 0. -1.
         13    1    3    3    0    0 -0.34614010359E+02  0.48866344950E+02 -0.49403145182E+02  0.77631953059E+02  0.00000000000E+00 0.  1.
         21    1    1    2  502  501  0.28054757437E+02  0.87778098472E+01  0.31412680604E+02  0.43021806834E+02  0.00000000000E+00 0. -1.
<scales pt_clust_5="13000.00000" pt_clust_6="13000.00000" pt_clust_7="13000.00000" pt_clust_8="13000.00000" pt_clust_9="29.39591"></scales>
<clustering>
<clus scale="   29.396">  1  9  2 -1</clus>
<clus scale="   92.487">  5  6 -1 -1</clus>
<clus scale="   92.671">  7  8 -1 -1</clus>
<clus scale="   96.788">  1  5  2 -1</clus>
<clus scale="   29.396">  1  5  2 -1</clus>
</clustering>
</event>
<event>
 9    1  0.1234700E-005  0.1044035E+03  0.7546771E-02  0.1271930E+00
          2   -1    0    0  502    0  0.00000000000E+00  0.00000000000E+00  0.71973296549E+03  0.71973296549E+03  0.00000000000E+00 0. -1.
         -2   -1    0    0    0  501 -0.00000000000E+00 -0.00000000000E+00 -0.33648524873E+02  0.33648524873E+02  0.00000000000E+00 0.  1.
         23    2    1    2    0    0  0.27516310459E+02 -0.48192303985E+02  0.12486717625E+03  0.16424321811E+03  0.91128357205E+02 0.  0.
         23    2    1    2    0    0 -0.47949137945E+02  0.90909934785E+01  0.20460162177E+03  0.22980398573E+03  0.92554212414E+02 0.  0.
        -11    1    3    3    0    0 -0.23923422155E+02 -0.13432449699E+02  0.31620884019E+01  0.27618103403E+02  0.00000000000E+00 0.  1.
         11    1    3    3    0    0  0.51439732614E+02 -0.34759854286E+02  0.12170508785E+03  0.13662511471E+03  0.00000000000E+00 0. -1.
        -11    1    4    4    0    0 -0.11019062725E+02 -0.18814363569E+02  0.19019546263E+01  0.21886467308E+02  0.00000000000E+00 0.  1.
         11    1    4    4    0    0 -0.36930075220E+02  0.27905357047E+02  0.20269966714E+03  0.20791751842E+03  0.00000000000E+00 0. -1.
         21    1    1    2  502  501  0.20432827486E+02  0.39101310507E+02  0.35661564260E+03  0.35933428652E+03  0.00000000000E+00 0. -1.
<scales pt_clust_5="13000.00000" pt_clust_6="13000.00000" pt_clust_7="13000.00000" pt_clust_8="13000.00000" pt_clust_9="44.11817"></scales>
<clustering>
<clus scale="   44.118">  1  9  2 -1</clus>
<clus scale="   91.128">  5  6 -1 -1</clus>
<clus scale="   92.554">  7  8 -1 -1</clus>
<clus scale="  103.142">  2  5  1 -1</clus>
<clus scale="   44.118">  1  5  2 -1</clus>
</clustering>
</event>
<event>
 9    1  0.1234700E-005  0.9406192E+02  0.7546771E-02  0.1295690E+00
          1   -1    0    0  502    0  0.00000000000E+00  0.00000000000E+00  0.78620175873E+02  0.78620175873E+02  0.00000000000E+00 0. -1.
         -1   -1    0    0    0  501 -0.00000000000E+00 -0.00000000000E+00 -0.14189314263E+03  0.14189314263E+03  0.00000000000E+00 0.  1.
         23    2    1    2    0    0 -0.34463727179E+01  0.19710609343E+02 -0.53138335189E+02  0.10562569220E+03  0.89065810385E+02 0.  0.
         23    2    1    2    0    0  0.63299823453E+01  0.99248891414E+00 -0.61875193471E+01  0.93615269199E+02  0.93190554890E+02 0.  0.
        -11    1    3    3    0    0 -0.33745359279E+02 -0.17598767045E+02 -0.41228692231E+02  0.56109454974E+02  0.00000000000E+00 0.  1.
         11    1    3    3    0    0  0.30298986561E+02  0.37309376389E+02 -0.11909642957E+02  0.49516237221E+02  0.00000000000E+00 0. -1.
        -11    1    4    4    0    0 -0.40420141169E+02 -0.12578125996E+01 -0.19583093343E+02  0.44931808884E+02  0.00000000000E+00 0.  1.
         11    1    4    4    0    0  0.46750123515E+02  0.22503015138E+01  0.13395573996E+02  0.48683460315E+02  0.00000000000E+00 0. -1.
         21    1    1    2  502  501 -0.28836096274E+01 -0.20703098257E+02 -0.39471122176E+01  0.21272357105E+02  0.00000000000E+00 0. -1.
<scales pt_clust_5="13000.00000" pt_clust_6="13000.00000" pt_clust_7="13000.00000" pt_clust_8="13000.00000" pt_clust_9="20.90295"></scales>
<clustering>
<clus scale="   20.903">  1  9  2 -1</clus>
<clus scale="   89.066">  5  6 -1 -1</clus>
<clus scale="   89.977">  2  5  1 -1</clus>
<clus scale="   93.191">  7  8 -1 -1</clus>
<clus scale="   20.903">  1  5  2 -1</clus>
</clustering>
</event>
<event>
 9    1  0.1234700E-005  0.8897089E+02  0.7546771E-02  0.1305758E+00
          2   -1    0    0  502    0  0.00000000000E+00  0.00000000000E+00  0.10438494801E+04  0.10438494801E+04  0.00000000000E+00 0. -1.
         -2   -1    0    0    0  501 -0.00000000000E+00 -0.00000000000E+00 -0.23151076512E+02  0.23151076512E+02  0.00000000000E+00 0.  1.
         23    2    1    2    0    0 -0.13702364778E+02  0.93761765579E+01  0.12567013907E+03  0.15468952247E+03  0.88657752189E+02 0.  0.
         23    2    1    2    0    0 -0.49513331899E+02  0.59011328643E+00  0.37502511961E+03  0.38838468248E+03  0.88016492655E+02 0.  0.
        -13    1    3    3    0    0  0.35514611949E+02  0.10401293185E+02  0.77166296032E+02  0.85581024796E+02  0.00000000000E+00 0. -1.
         13    1    3    3    0    0 -0.49216976728E+02 -0.10251166273E+01  0.48503843034E+02  0.69108497678E+02  0.00000000000E+00 0.  1.
        -13    1    4    4    0    0 -0.32417085173E+02 -0.42220174836E+02  0.16554238540E+03  0.17388988452E+03  0.00000000000E+00 0.  1.
         13    1    4    4    0    0 -0.17096246725E+02  0.42810288122E+02  0.20948273421E+03  0.21449479796E+03  0.00000000000E+00 0. -1.
         21    1    1    2  502  501  0.63215696677E+02 -0.99662898443E+01  0.52000314488E+03  0.52392635162E+03  0.00000000000E+00 0. -1.
<scales pt_clust_5="13000.00000" pt_clust_6="13000.00000" pt_clust_7="13000.00000" pt_clust_8="13000.00000" pt_clust_9="63.99649"></scales>
<clustering>
<clus scale="   63.996">  1  9  2 -1</clus>
<clus scale="   88.016">  7  8 -1 -1</clus>
<clus scale="   88.332">  1  7  2 -1</clus>
<clus scale="   88.658">  5  6 -1 -1</clus>
<clus scale="   63.996">  1  5  2 -1</clus>
</clustering>
</event>
<event>
 9    1  0.1234700E-005  0.1407257E+03  0.7546771E-02  0.1215296E+00
          2   -1    0    0  502    0  0.00000000000E+00  0.00000000000E+00  0.11908381163E+03  0.11908381163E+03  0.00000000000E+00 0. -1.
         -2   -1    0    0    0  501 -0.00000000000E+00 -0.00000000000E+00 -0.20164894326E+03  0.20164894326E+03  0.00000000000E+00 0.  1.
         23    2    1    2    0    0  0.93169990594E+02 -0.29569884349E+02 -0.49620485007E+02  0.14017366837E+03  0.87358111039E+02 0.  0.
         23    2    1    2    0    0 -0.84315238709E+02  0.60825950609E+02 -0.34020268805E+02  0.14805515950E+03  0.99770215082E+02 0.  0.
        -11    1    4    4    0    0  0.11864017431E+02  0.37205252527E+02  0.90047432897E+01  0.40075817233E+02  0.00000000000E+00 0. -1.
         11    1    4    4    0    0 -0.96179256140E+02  0.23620698082E+02 -0.43025012094E+02  0.10797934226E+03  0.00000000000E+00 0.  1.
        -13    1    3    3    0    0 -0.16861099601E+01  0.20950110764E+02  0.16836849173E+01  0.21085182066E+02  0.00000000000E+00 0.  1.
         13    1    3    3    0    0  0.94856100554E+02 -0.50519995114E+02 -0.51304169924E+02  0.11908848630E+03  0.00000000000E+00 0. -1.
         21    1    1    2  502  501 -0.88547518850E+01 -0.31256066260E+02  0.10756221856E+01  0.32503927025E+02  0.00000000000E+00 0.  1.
<scales pt_clust_5="13000.00000" pt_clust_6="13000.00000" pt_clust_7="13000.00000" pt_clust_8="13000.00000" pt_clust_9="32.48612"></scales>
<clustering>
<clus scale="   32.486">  1  9  2 -1</clus>
<clus scale="   87.358">  7  8 -1 -1</clus>
<clus scale="   99.770">  5  6 -1 -1</clus>
<clus scale="  132.216">  2  7  1 -1</clus>
<clus scale="   32.486">  1  5  2 -1</clus>
</clustering>
</event>
<event>
 9    1  0.1234700E-005  0.3780434E+03  0.7546771E-02  0.1051674E+00
          2   -1    0    0  502    0  0.00000000000E+00  0.00000000000E+00  0.26779036896E+04  0.26779036896E+04  0.00000000000E+00 0. -1.
         -2   -1    0    0    0  501 -0.00000000000E+00 -0.00000000000E+00 -0.85903558917E+02  0.85903558917E+02  0.00000000000E+00 0.  1.
         23    2    1    2    0    0 -0.14521378161E+03 -0.34832861565E+03  0.49124694502E+03  0.62635100888E+03  0.92585951881E+02 0.  0.
         23    2    1    2    0    0  0.11844506314E+03  0.30977489762E+03  0.17509108375E+04  0.17844794387E+04  0.93211511799E+02 0.  0.
        -13    1    3    3    0    0 -0.81132045707E+02 -0.27581468342E+03  0.40535439757E+03  0.49695908892E+03  0.00000000000E+00 0.  1.
         13    1    3    3    0    0 -0.64081735905E+02 -0.72513932222E+02  0.85892547446E+02  0.12939191995E+03  0.00000000000E+00 0. -1.
        -13    1    4    4    0    0  0.18544223892E+02  0.11861254599E+02  0.47801277377E+02  0.52626416553E+02  0.00000000000E+00 0.  1.
         13    1    4    4    0    0  0.99900839248E+02  0.29791364303E+03  0.17031095601E+04  0.17318530221E+04  0.00000000000E+00 0. -1.
         21    1    1    2  502  501  0.26768718471E+02  0.38553718023E+02  0.34984234811E+03  0.35297680093E+03  0.00000000000E+00 0. -1.
<scales pt_clust_5="13000.00000" pt_clust_6="13000.00000" pt_clust_7="13000.00000" pt_clust_8="13000.00000" pt_clust_9="46.93563"></scales>
<clustering>
<clus scale="   46.936">  1  9  2 -1</clus>
<clus scale="   92.586">  5  6 -1 -1</clus>
<clus scale="   93.212">  7  8 -1 -1</clus>
<clus scale="  377.890">  2  5  1 -1</clus>
<clus scale="   46.936">  1  5  2 -1</clus>
</clustering>
</event>
<event>
 9    1  0.1234700E-005  0.9410186E+02  0.7546771E-02  0.1293392E+00
         -2   -1    0    0    0  501 -0.00000000000E+00  0.00000000000E+00  0.36913039971E+03  0.36913039971E+03  0.00000000000E+00 0.  1.
          2   -1    0    0  502    0  0.00000000000E+00 -0.00000000000E+00 -0.70493923299E+02  0.70493923299E+02  0.00000000000E+00 0. -1.
         23    2    1    2    0    0 -0.13888991291E+02 -0.20590531775E+02  0.29811171067E+03  0.31266347677E+03  0.90944948145E+02 0.  0.
         23    2    1    2    0    0 -0.15893671509E+02  0.19670497163E+02 -0.10282491259E+02  0.95264627672E+02  0.91269285120E+02 0.  0.
        -11    1    3    3    0    0 -0.48433200234E+02 -0.40262203885E+01  0.10384089237E+03  0.11465128113E+03  0.00000000000E+00 0.  1.
         11    1    3    3    0    0  0.34544208944E+02 -0.16564311386E+02  0.19427081830E+03  0.19801219565E+03  0.00000000000E+00 0. -1.
        -11    1    4    4    0    0 -0.51419623909E+02  0.22375171166E+02  0.54015595198E+01  0.56336514384E+02  0.00000000000E+00 0.  1.
         11    1    4    4    0    0  0.35525952400E+02 -0.27046740034E+01 -0.15684050778E+02  0.38928113288E+02  0.00000000000E+00 0. -1.
         21    1    1    2  502  501  0.29782662800E+02  0.92003461154E+00  0.10807256999E+02  0.31696218559E+02  0.00000000000E+00 0. -1.
<scales pt_clust_5="13000.00000" pt_clust_6="13000.00000" pt_clust_7="13000.00000" pt_clust_8="13000.00000" pt_clust_9="29.79687"></scales>
<clustering>
<clus scale="   29.797">  2  9  1 -1</clus>
<clus scale="   90.945">  5  6 -1 -1</clus>
<clus scale="   91.269">  7  8 -1 -1</clus>
<clus scale="   93.787">  1  5  2 -1</clus>
<clus scale="   29.797">  2  5  1 -1</clus>
</clustering>
</event>
<event>
 9    1  0.1234700E-005  0.1075976E+03  0.7546771E-02  0.1265391E+00
         -2   -1    0    0    0  501 -0.00000000000E+00  0.00000000000E+00  0.30285335832E+02  0.30285335832E+02  0.00000000000E+00 0.  1.
          2   -1    0    0  502    0  0.00000000000E+00 -0.00000000000E+00 -0.65456463715E+03  0.65456463715E+03  0.00000000000E+00 0. -1.
         23    2    1    2    0    0  0.20413766476E+02 -0.30852050356E+02 -0.20196278469E+03  0.22525149596E+03  0.92632063341E+02 0.  0.
         23    2    1    2    0    0  0.84278432125E+00  0.81884566076E+02 -0.25045183424E+03  0.27906142358E+03  0.91887781623E+02 0.  0.
        -11    1    4    4    0    0 -0.27253048284E+02  0.65059399062E+02 -0.22971236201E+03  0.24029819664E+03  0.00000000000E+00 0. -1.
         11    1    4    4    0    0  0.28095832605E+02  0.16825167014E+02 -0.20739472227E+02  0.38763226944E+02  0.00000000000E+00 0.  1.
        -13    1    3    3    0    0  0.12744844300E+01 -0.61587491553E+02 -0.14755455007E+03  0.15989680632E+03  0.00000000000E+00 0.  1.
         13    1    3    3    0    0  0.19139282046E+02  0.30735441196E+02 -0.54408234623E+02  0.65354689637E+02  0.00000000000E+00 0. -1.
         21    1    1    2  502  501 -0.21256550797E+02 -0.51032515719E+02 -0.17186468239E+03  0.18053705344E+03  0.00000000000E+00 0. -1.
<scales pt_clust_5="13000.00000" pt_clust_6="13000.00000" pt_clust_7="13000.00000" pt_clust_8="13000.00000" pt_clust_9="55.28253"></scales>
<clustering>
<clus scale="   55.283">  2  9  1 -1</clus>
<clus scale="   91.888">  5  6 -1 -1</clus>
<clus scale="   92.632">  7  8 -1 -1</clus>
<clus scale="  106.957">  2  5  1 -1</clus>
<clus scale="   55.283">  2  5  1 -1</clus>
</clustering>
</event>
<event>
 9    1  0.1234700E-005  0.1270366E+03  0.7546771E-02  0.1232833E+00
          1   -1    0    0  502    0  0.00000000000E+00  0.00000000000E+00  0.11674459545E+04  0.11674459545E+04  0.00000000000E+00 0. -1.
         -1   -1    0    0    0  501 -0.00000000000E+00 -0.00000000000E+00 -0.18830250642E+02  0.18830250642E+02  0.00000000000E+00 0.  1.
         23    2    1    2    0    0  0.18759054037E+02  0.81048686399E+02  0.39553843250E+03  0.41528193412E+03  0.95329122227E+02 0.  0.
         23    2    1    2    0    0 -0.52781312780E+02 -0.71789449406E+02  0.53908668765E+03  0.55411822929E+03  0.92157274338E+02 0.  0.
        -11    1    3    3    0    0  0.38687363712E+02  0.16946254267E+02  0.61766334862E+02  0.74826250521E+02  0.00000000000E+00 0.  1.
         11    1    3    3    0    0 -0.19928309675E+02  0.64102432133E+02  0.33377209764E+03  0.34045568360E+03  0.00000000000E+00 0. -1.
        -13    1    4    4    0    0 -0.23081212300E+02 -0.83286083471E+02  0.47210858226E+03  0.47995398478E+03  0.00000000000E+00 0.  1.
         13    1    4    4    0    0 -0.29700100480E+02  0.11496634065E+02  0.66978105384E+02  0.74164244513E+02  0.00000000000E+00 0. -1.
         21    1    1    2  502  501  0.34022258743E+02 -0.92592369932E+01  0.21399058375E+03  0.21687604177E+03  0.00000000000E+00 0.  1.
<scales pt_clust_5="13000.00000" pt_clust_6="13000.00000" pt_clust_7="13000.00000" pt_clust_8="13000.00000" pt_clust_9="35.25972"></scales>
<clustering>
<clus scale="   35.260">  1  9  2 -1</clus>
<clus scale="   92.157">  7  8 -1 -1</clus>
<clus scale="   95.329">  5  6 -1 -1</clus>
<clus scale="  124.674">  1  7  2 -1</clus>
<clus scale="   35.260">  1  5  2 -1</clus>
</clustering>
</event>
<event>
 9    1  0.1234700E-005  0.1421730E+03  0.7546771E-02  0.1210721E+00
          1   -1    0    0  502    0  0.00000000000E+00  0.00000000000E+00  0.77563634712E+03  0.77563634712E+03  0.00000000000E+00 0. -1.
         -1   -1    0    0    0  501 -0.00000000000E+00 -0.00000000000E+00 -0.34072365351E+02  0.34072365351E+02  0.00000000000E+00 0.  1.
         23    2    1    2    0    0 -0.89077899367E+02 -0.59406486722E+02  0.21609790895E+03  0.25795543078E+03  0.91535212877E+02 0.  0.
         23    2    1    2    0    0  0.76478352914E+02  0.79752822434E+02  0.44906691781E+03  0.47169359874E+03  0.92867126970E+02 0.  0.
        -11    1    3    3    0    0 -0.71516168876E+02  0.72964806388E+01  0.10990314287E+03  0.13132593747E+03  0.00000000000E+00 0. -1.
         11    1    3    3    0    0 -0.17561730491E+02 -0.66702967361E+02  0.10619476608E+03  0.12662949331E+03  0.00000000000E+00 0.  1.
        -13    1    4    4    0    0  0.89524183736E+02  0.32376010499E+02  0.29581395564E+03  0.31075501908E+03  0.00000000000E+00 0.  1.
         13    1    4    4    0    0 -0.13045830822E+02  0.47376811934E+02  0.15325296216E+03  0.16093857966E+03  0.00000000000E+00 0. -1.
         21    1    1    2  502  501  0.12599546453E+02 -0.20346335712E+02  0.76399155007E+02  0.80059682946E+02  0.00000000000E+00 0.  1.
<scales pt_clust_5="13000.00000" pt_clust_6="13000.00000" pt_clust_7="13000.00000" pt_clust_8="13000.00000" pt_clust_9="23.93161"></scales>
<clustering>
<clus scale="   23.932">  1  9  2 -1</clus>
<clus scale="   91.535">  5  6 -1 -1</clus>
<clus scale="   92.867">  7  8 -1 -1</clus>
<clus scale="  141.307">  2  5  1 -1</clus>
<clus scale="   23.932">  1  5  2 -1</clus>
</clustering>
</event>
<event>
 9    1  0.1234700E-005  0.1119851E+03  0.7546771E-02  0.1257600E+00
         -1   -1    0    0    0  501 -0.00000000000E+00  0.00000000000E+00  0.27436311863E+03  0.27436311863E+03  0.00000000000E+00 0.  1.
          1   -1    0    0  502    0  0.00000000000E+00 -0.00000000000E+00 -0.86473508813E+02  0.86473508813E+02  0.00000000000E+00 0. -1.
         23    2    1    2    0    0  0.13861183963E+02 -0.77120767881E+02  0.16028604497E+03  0.19970837333E+03  0.89733343346E+02 0.  0.
         23    2    1    2    0    0 -0.80258492124E+01  0.49775392952E+02  0.60442918260E+02  0.11799771047E+03  0.87909665623E+02 0.  0.
        -11    1    4    4    0    0 -0.19873167004E+02 -0.20562417408E+02  0.26569745582E+02  0.39034691708E+02  0.00000000000E+00 0.  1.
         11    1    4    4    0    0  0.11847317792E+02  0.70337810360E+02  0.33873172678E+02  0.78963018765E+02  0.00000000000E+00 0. -1.
        -11    1    3    3    0    0  0.42215135948E+02 -0.77661060122E+02  0.13686802207E+03  0.16293008755E+03  0.00000000000E+00 0.  1.
         11    1    3    3    0    0 -0.28353951986E+02  0.54029224055E+00  0.23418022897E+02  0.36778285786E+02  0.00000000000E+00 0. -1.
         21    1    1    2  502  501 -0.58353347502E+01  0.27345374929E+02 -0.32839353414E+02  0.43130543636E+02  0.00000000000E+00 0. -1.
<scales pt_clust_5="13000.00000" pt_clust_6="13000.00000" pt_clust_7="13000.00000" pt_clust_8="13000.00000" pt_clust_9="27.96106"></scales>
<clustering>
<clus scale="   27.961">  2  9  1 -1</clus>
<clus scale="   87.910">  5  6 -1 -1</clus>
<clus scale="   89.733">  7  8 -1 -1</clus>
<clus scale="  110.529">  2  5  1 -1</clus>
<clus scale="   27.961">  2  5  1 -1</clus>
</clustering>
</event>
<event>
 9    1  0.1234700E-005  0.1889474E+03  0.7546771E-02  0.1160401E+00
          2   -1    0    0  502    0  0.00000000000E+00  0.00000000000E+00  0.79798089934E+03  0.79798089934E+03  0.00000000000E+00 0. -1.
         -2   -1    0    0    0  501 -0.00000000000E+00 -0.00000000000E+00 -0.56212648818E+03  0.56212648818E+03  0.00000000000E+00 0.  1.
         23    2    1    2    0    0  0.60708787954E+02  0.15261814935E+03 -0.53309869498E+03  0.56454914088E+03  0.86854230949E+02 0.  0.
         23    2    1    2    0    0 -0.59008893797E+02 -0.98773299583E+02  0.58976962183E+03  0.60845164993E+03  0.95639893432E+02 0.  0.
        -11    1    3    3    0    0  0.11016226082E+02  0.12225593734E+03 -0.29683947448E+03  0.32121884294E+03  0.00000000000E+00 0.  1.
         11    1    3    3    0    0  0.49692561872E+02  0.30362212013E+02 -0.23625922050E+03  0.24333029794E+03  0.00000000000E+00 0. -1.
        -13    1    4    4    0    0 -0.98110420010E+01 -0.99777690315E+02  0.40819808719E+03  0.42033025399E+03  0.00000000000E+00 0.  1.
         13    1    4    4    0    0 -0.49197851796E+02  0.10043907312E+01  0.18157153463E+03  0.18812139594E+03  0.00000000000E+00 0. -1.
         21    1    1    2  502  501 -0.16998941567E+01 -0.53844849768E+02  0.17918348431E+03  0.18710659672E+03  0.00000000000E+00 0. -1.
<scales pt_clust_5="13000.00000" pt_clust_6="13000.00000" pt_clust_7="13000.00000" pt_clust_8="13000.00000" pt_clust_9="53.87168"></scales>
<clustering>
<clus scale="   53.872">  1  9  2 -1</clus>
<clus scale="   86.854">  5  6 -1 -1</clus>
<clus scale="   95.640">  7  8 -1 -1</clus>
<clus scale="  184.656">  2  5  1 -1</clus>
<clus scale="   53.872">  1  5  2 -1</clus>
</clustering>
</event>
<event>
 9    1  0.1234700E-005  0.1529486E+03  0.7546771E-02  0.1197277E+00
         -2   -1    0    0    0  501 -0.00000000000E+00  0.00000000000E+00  0.12333284492E+03  0.12333284492E+03  0.00000000000E+00 0.  1.
          2   -1    0    0  502    0  0.00000000000E+00 -0.00000000000E+00 -0.45069716863E+03  0.45069716863E+03  0.00000000000E+00 0. -1.
         23    2    1    2    0    0 -0.15437123726E+02  0.10799871061E+03 -0.87480917034E+01  0.14378480940E+03  0.93249750792E+02 0.  0.
         23    2    1    2    0    0 -0.81890044166E+01 -0.14417674758E+03 -0.81499530964E+02  0.18922368187E+03  0.91156096333E+02 0.  0.
        -11    1    3    3    0    0 -0.18475278550E+02  0.25139962894E+02  0.37550292360E+02  0.48819853627E+02  0.00000000000E+00 0.  1.
         11    1    3    3    0    0  0.30381548243E+01  0.82858747713E+02 -0.46298384064E+02  0.94964955769E+02  0.00000000000E+00 0. -1.
        -13    1    4    4    0    0 -0.29658012477E+02 -0.71477625314E+02  0.72423695436E+00  0.77389748312E+02  0.00000000000E+00 0.  1.
         13    1    4    4    0    0  0.21469008060E+02 -0.72699122262E+02 -0.82223767919E+02  0.11183393356E+03  0.00000000000E+00 0. -1.
         21    1    1    2  502  501  0.23626128142E+02  0.36178036969E+02 -0.23711670104E+03  0.24102152228E+03  0.00000000000E+00 0. -1.
<scales pt_clust_5="13000.00000" pt_clust_6="13000.00000" pt_clust_7="13000.00000" pt_clust_8="13000.00000" pt_clust_9="43.20931"></scales>
<clustering>
<clus scale="   43.209">  2  9  1 -1</clus>
<clus scale="   91.156">  7  8 -1 -1</clus>
<clus scale="   93.250">  5  6 -1 -1</clus>
<clus scale="  151.681">  2  7  1 -1</clus>
<clus scale="   43.209">  2  5  1 -1</clus>
</clustering>
</event>
<event>
 9    1  0.1234700E-005  0.9686960E+02  0.7546771E-02  0.1287905E+00
          2   -1    0    0  502    0  0.00000000000E+00  0.00000000000E+00  0.13278374146E+03  0.13278374146E+03  0.00000000000E+00 0. -1.
         -2   -1    0    0    0  501 -0.00000000000E+00 -0.00000000000E+00 -0.22699822687E+03  0.22699822687E+03  0.00000000000E+00 0.  1.
         23    2    1    2    0    0  0.31006508665E+02 -0.86335093811E+01 -0.17108677751E+03  0.19737799936E+03  0.93013161045E+02 0.  0.
         23    2    1    2    0    0  0.33031499278E+01  0.21172063816E+02  0.21813389394E+02  0.96329383946E+02  0.91347463943E+02 0.  0.
        -11    1    3    3    0    0  0.35827505657E+02  0.17685675632E+02 -0.16522371326E+03  0.16998608387E+03  0.00000000000E+00 0.  1.
         11    1    3    3    0    0 -0.48209969916E+01 -0.26319185013E+02 -0.58630642451E+01  0.27391915488E+02  0.00000000000E+00 0. -1.
        -13    1    4    4    0    0 -0.10232652423E+02  0.53581770879E+02  0.26930974503E+02  0.60835768540E+02  0.00000000000E+00 0. -1.
         13    1    4    4    0    0  0.13535802351E+02 -0.32409707063E+02 -0.51175851091E+01  0.35493615406E+02  0.00000000000E+00 0.  1.
         21    1    1    2  502  501 -0.34309658593E+02 -0.12538554435E+02  0.55058902703E+02  0.66074585031E+02  0.00000000000E+00 0. -1.
<scales pt_clust_5="13000.00000" pt_clust_6="13000.00000" pt_clust_7="13000.00000" pt_clust_8="13000.00000" pt_clust_9="36.52900"></scales>
<clustering>
<clus scale="   36.529">  1  9  2 -1</clus>
<clus scale="   91.347">  7  8 -1 -1</clus>
<clus scale="   93.013">  5  6 -1 -1</clus>
<clus scale="   95.271">  1  7  2 -1</clus>
<clus scale="   36.529">  1  5  2 -1</clus>
</clustering>
</event>
<event>
 9    1  0.1234700E-005  0.9658059E+02  0.7546771E-02  0.1287752E+00
          1   -1    0    0  502    0  0.00000000000E+00  0.00000000000E+00  0.38105425396E+03  0.38105425396E+03  0.00000000000E+00 0. -1.
         -1   -1    0    0    0  501 -0.00000000000E+00 -0.00000000000E+00 -0.41321395343E+02  0.41321395343E+02  0.00000000000E+00 0.  1.
         23    2    1    2    0    0 -0.69938564200E+01 -0.17327320725E+02  0.51587415572E+02  0.11012993836E+03  0.95489223515E+02 0.  0.
         23    2    1    2    0    0 -0.52156204816E+01  0.79917197415E+00  0.20040140850E+03  0.22212764046E+03  0.95666727537E+02 0.  0.
        -13    1    3    3    0    0  0.27477714935E+02 -0.12724974719E+02  0.65898665040E+02  0.72522988450E+02  0.00000000000E+00 0. -1.
         13    1    3    3    0    0 -0.34471571355E+02 -0.46023460060E+01 -0.14311249468E+02  0.37606949914E+02  0.00000000000E+00 0.  1.
        -13    1    4    4    0    0 -0.28423689099E+02  0.28180451415E+02  0.17131446667E+03  0.17592808313E+03  0.00000000000E+00 0. -1.
         13    1    4    4    0    0  0.23208068617E+02 -0.27381279440E+02  0.29086941824E+02  0.46199557329E+02  0.00000000000E+00 0.  1.
         21    1    1    2  502  501  0.12209476902E+02  0.16528148751E+02  0.87744034544E+02  0.90118070471E+02  0.00000000000E+00 0. -1.
<scales pt_clust_5="13000.00000" pt_clust_6="13000.00000" pt_clust_7="13000.00000" pt_clust_8="13000.00000" pt_clust_9="20.54875"></scales>
<clustering>
<clus scale="   20.549">  1  9  2 -1</clus>
<clus scale="   95.489">  5  6 -1 -1</clus>
<clus scale="   95.667">  7  8 -1 -1</clus>
<clus scale="   96.405">  2  5  1 -1</clus>
<clus scale="   20.549">  1  5  2 -1</clus>
</clustering>
</event>
<event>
 9    1  0.1234700E-005  0.1026067E+03  0.7546771E-02  0.1275642E+00
          2   -1    0    0  502    0  0.00000000000E+00  0.00000000000E+00  0.43891559230E+03  0.43891559230E+03  0.00000000000E+00 0. -1.
         -2   -1    0    0    0  501 -0.00000000000E+00 -0.00000000000E+00 -0.52610652620E+02  0.52610652620E+02  0.00000000000E+00 0.  1.
         23    2    1    2    0    0  0.47419184233E+02 -0.62944187944E+02  0.64874308274E+02  0.13768199526E+03  0.92396461592E+02 0.  0.
         23    2    1    2    0    0 -0.22511509509E+02  0.28810992564E+02  0.27050574310E+03  0.28767166066E+03  0.90800803631E+02 0.  0.
        -11    1    3    3    0    0  0.36110127199E+02 -0.10276054079E+02  0.74062987345E+02  0.83035321811E+02  0.00000000000E+00 0. -1.
         11    1    3    3    0    0  0.11309057034E+02 -0.52668133865E+02 -0.91886790702E+01  0.54646673447E+02  0.00000000000E+00 0.  1.
        -13    1    4    4    0    0 -0.33719355401E+02 -0.24035541745E+02  0.15000594809E+03  0.15561647297E+03  0.00000000000E+00 0.  1.
         13    1    4    4    0    0  0.11207845892E+02  0.52846534308E+02  0.12049979501E+03  0.13205518769E+03  0.00000000000E+00 0. -1.
         21    1    1    2  502  501 -0.24907674724E+02  0.34133195380E+02  0.50924888302E+02  0.66172589005E+02  0.00000000000E+00 0. -1.
<scales pt_clust_5="13000.00000" pt_clust_6="13000.00000" pt_clust_7="13000.00000" pt_clust_8="13000.00000" pt_clust_9="42.25479"></scales>
<clustering>
<clus scale="   42.255">  2  9  1 -1</clus>
<clus scale="   90.801">  7  8 -1 -1</clus>
<clus scale="   92.396">  5  6 -1 -1</clus>
<clus scale="  101.172">  1  7  2 -1</clus>
<clus scale="  101.172">  1  5  2 -1</clus>
</clustering>
</event>
<event>
 9    1  0.1234700E-005  0.4471692E+03  0.7546771E-02  0.1028592E+00
         -1   -1    0    0    0  501 -0.00000000000E+00  0.00000000000E+00  0.19657605013E+04  0.19657605013E+04  0.00000000000E+00 0.  1.
          1   -1    0    0  502    0  0.00000000000E+00 -0.00000000000E+00 -0.41519109026E+03  0.41519109026E+03  0.00000000000E+00 0. -1.
         23    2    1    2    0    0 -0.41791373961E+03 -0.16926495567E+03  0.15630304996E+04  0.16294009683E+04  0.92631817436E+02 0.  0.
         23    2    1    2    0    0  0.19470846050E+03  0.36725639511E+03 -0.10656916084E+03  0.43869676608E+03  0.91154935060E+02 0.  0.
        -13    1    3    3    0    0 -0.38673110610E+03 -0.14230541800E+03  0.14854536597E+04  0.15415525795E+04  0.00000000000E+00 0.  1.
         13    1    3    3    0    0 -0.31182633511E+02 -0.26959537664E+02  0.77576839953E+02  0.87848388721E+02  0.00000000000E+00 0. -1.
        -13    1    4    4    0    0  0.29582001652E+02  0.69088015232E+02  0.15354157430E+02  0.76707227957E+02  0.00000000000E+00 0.  1.
         13    1    4    4    0    0  0.16512645885E+03  0.29816837987E+03 -0.12192331828E+03  0.36198953812E+03  0.00000000000E+00 0. -1.
         21    1    1    2  502  501  0.22320527911E+03 -0.19799143944E+03  0.94108072235E+02  0.31285385721E+03  0.00000000000E+00 0. -1.
<scales pt_clust_5="13000.00000" pt_clust_6="13000.00000" pt_clust_7="13000.00000" pt_clust_8="13000.00000" pt_clust_9="298.36422"></scales>
<clustering>
<clus scale="   91.155">  7  8 -1 -1</clus>
<clus scale="   92.632">  5  6 -1 -1</clus>
<clus scale="  298.364">  2  9  1 -1</clus>
<clus scale="  446.866">  2  7  1 -1</clus>
<clus scale="  298.364">  2  5  1 -1</clus>
</clustering>
</event>
<event>
 9    1  0.1234700E-005  0.1007612E+03  0.7546771E-02  0.1281411E+00
          1   -1    0    0  502    0  0.00000000000E+00  0.00000000000E+00  0.26201559685E+03  0.26201559685E+03  0.00000000000E+00 0. -1.
         -1   -1    0    0    0  501 -0.00000000000E+00 -0.00000000000E+00 -0.55396413476E+02  0.55396413476E+02  0.00000000000E+00 0.  1.
         23    2    1    2    0    0 -0.92069441070E+00 -0.37091984342E+02  0.51742742214E+02  0.11517945589E+03  0.95980897608E+02 0.  0.
         23    2    1    2    0    0  0.26045864204E+02  0.16268975833E+02  0.10027996968E+03  0.13862715736E+03  0.90655114695E+02 0.  0.
        -11    1    3    3    0    0  0.17899773109E+02 -0.64880450032E+02  0.23416554843E+02  0.71261558462E+02  0.00000000000E+00 0.  1.
         11    1    3    3    0    0 -0.18820467520E+02  0.27788465690E+02  0.28326187371E+02  0.43917897423E+02  0.00000000000E+00 0. -1.
        -13    1    4    4    0    0 -0.16639586470E+02 -0.21907291092E+02  0.57510525706E+01  0.28104801130E+02  0.00000000000E+00 0.  1.
         13    1    4    4    0    0  0.42685450674E+02  0.38176266924E+02  0.94528917112E+02  0.11052235623E+03  0.00000000000E+00 0. -1.
         21    1    1    2  502  501 -0.25125169793E+02  0.20823008509E+02  0.54596471480E+02  0.63605397087E+02  0.00000000000E+00 0. -1.
<scales pt_clust_5="13000.00000" pt_clust_6="13000.00000" pt_clust_7="13000.00000" pt_clust_8="13000.00000" pt_clust_9="32.63237"></scales>
<clustering>
<clus scale="   32.632">  1  9  2 -1</clus>
<clus scale="   90.655">  7  8 -1 -1</clus>
<clus scale="   95.702">  1  7  2 -1</clus>
<clus scale="   95.981">  5  6 -1 -1</clus>
<clus scale="   32.632">  1  5  2 -1</clus>
</clustering>
</event>
<event>
 9    1  0.1234700E-005  0.2408410E+03  0.7546771E-02  0.1136280E+00
         -2   -1    0    0    0  501 -0.00000000000E+00  0.00000000000E+00  0.13449349826E+04  0.13449349826E+04  0.00000000000E+00 0.  1.
          2   -1    0    0  502    0  0.00000000000E+00 -0.00000000000E+00 -0.20207493997E+03  0.20207493997E+03  0.00000000000E+00 0. -1.
         23    2    1    2    0    0 -0.12891573621E+03  0.17423156768E+03  0.10506231959E+04  0.10766298174E+04  0.91360591576E+02 0.  0.
         23    2    1    2    0    0 -0.12879147444E+03 -0.30933126114E+02 -0.94550224933E+01  0.15846876191E+03  0.86480338060E+02 0.  0.
        -11    1    4    4    0    0 -0.67245881645E+02 -0.46311818133E+02 -0.36586269889E+02  0.89472611683E+02  0.00000000000E+00 0. -1.
         11    1    4    4    0    0 -0.61545592791E+02  0.15378692019E+02  0.27131247396E+02  0.68996150222E+02  0.00000000000E+00 0.  1.
        -13    1    3    3    0    0 -0.10695056595E+03  0.15483596405E+03  0.10045753091E+04  0.10220489964E+04  0.00000000000E+00 0.  1.
         13    1    3    3    0    0 -0.21965170259E+02  0.19395603626E+02  0.46047886847E+02  0.54580821060E+02  0.00000000000E+00 0. -1.
         21    1    1    2  502  501  0.25770721064E+03 -0.14329844156E+03  0.10169186914E+03  0.31191134321E+03  0.00000000000E+00 0.  1.
<scales pt_clust_5="13000.00000" pt_clust_6="13000.00000" pt_clust_7="13000.00000" pt_clust_8="13000.00000" pt_clust_9="222.83992"></scales>
<clustering>
<clus scale="   86.480">  5  6 -1 -1</clus>
<clus scale="   91.361">  7  8 -1 -1</clus>
<clus scale="  158.186">  2  5  1 -1</clus>
<clus scale="  222.840">  2  9  1 -1</clus>
<clus scale="  158.186">  2  5  1 -1</clus>
</clustering>
</event>
<event>
 9    1  0.1234700E-005  0.2813127E+03  0.7546771E-02  0.1131499E+00
          2   -1    0    0  502    0  0.00000000000E+00  0.00000000000E+00  0.88852253796E+03  0.88852253796E+03  0.00000000000E+00 0. -1.
         -2   -1    0    0    0  501 -0.00000000000E+00 -0.00000000000E+00 -0.49409103955E+03  0.49409103955E+03  0.00000000000E+00 0.  1.
         23    2    1    2    0    0 -0.19129616112E+02 -0.60560007493E+02 -0.39061630668E+03  0.40622899634E+03  0.91692102743E+02 0.  0.
         23    2    1    2    0    0 -0.25310499873E+03  0.79745644180E+02  0.54511401587E+03  0.61300049047E+03  0.90547241077E+02 0.  0.
        -11    1    3    3    0    0  0.33599916703E+02 -0.38638941317E+02 -0.23373066717E+03  0.23927379080E+03  0.00000000000E+00 0.  1.
         11    1    3    3    0    0 -0.52729532815E+02 -0.21921066175E+02 -0.15688563951E+03  0.16695520554E+03  0.00000000000E+00 0. -1.
        -13    1    4    4    0    0 -0.13436503176E+02  0.16069276811E+02  0.11179134357E+03  0.11373682681E+03  0.00000000000E+00 0.  1.
         13    1    4    4    0    0 -0.23966849555E+03  0.63676367369E+02  0.43332267230E+03  0.49926366366E+03  0.00000000000E+00 0. -1.
         21    1    1    2  502  501  0.27223461484E+03 -0.19185636688E+02  0.23993378922E+03  0.36338409071E+03  0.00000000000E+00 0.  1.
<scales pt_clust_5="13000.00000" pt_clust_6="13000.00000" pt_clust_7="13000.00000" pt_clust_8="13000.00000" pt_clust_9="266.34199"></scales>
<clustering>
<clus scale="   90.547">  7  8 -1 -1</clus>
<clus scale="   91.692">  5  6 -1 -1</clus>
<clus scale="  111.539">  2  5  1 -1</clus>
<clus scale="  266.342">  2  9  1 -1</clus>
<clus scale="  281.313">  1  5  2 -1</clus>
</clustering>
</event>
<event>
 9    1  0.1234700E-005  0.9471300E+02  0.7546771E-02  0.1294669E+00
         -1   -1    0    0    0  501 -0.00000000000E+00  0.00000000000E+00  0.21503032602E+02  0.21503032602E+02  0.00000000000E+00 0.  1.
          1   -1    0    0  502    0  0.00000000000E+00 -0.00000000000E+00 -0.55837555735E+03  0.55837555735E+03  0.00000000000E+00 0. -1.
         23    2    1    2    0    0  0.11036061836E+02  0.11853243882E+02 -0.19169081613E+03  0.21283963382E+03  0.91066166535E+02 0.  0.
         23    2    1    2    0    0 -0.37349722842E+02 -0.11674393459E+02 -0.22522437725E+03  0.24422933886E+03  0.85968928079E+02 0.  0.
        -13    1    4    4    0    0 -0.62373542680E+02  0.11804952178E+01 -0.18426617375E+03  0.19454016342E+03  0.00000000000E+00 0. -1.
         13    1    4    4    0    0  0.25023819838E+02 -0.12854888677E+02 -0.40958203498E+02  0.49689175440E+02  0.00000000000E+00 0.  1.
        -13    1    3    3    0    0  0.50311855216E+02 -0.11191177965E+01 -0.11902118105E+03  0.12922297295E+03  0.00000000000E+00 0.  1.
         13    1    3    3    0    0 -0.39275793380E+02  0.12972361678E+02 -0.72669635076E+02  0.83616660872E+02  0.00000000000E+00 0. -1.
         21    1    1    2  502  501  0.26313661007E+02 -0.17885042257E+00 -0.11995733137E+03  0.12280961727E+03  0.00000000000E+00 0.  1.
<scales pt_clust_5="13000.00000" pt_clust_6="13000.00000" pt_clust_7="13000.00000" pt_clust_8="13000.00000" pt_clust_9="26.31427"></scales>
<clustering>
<clus scale="   26.314">  2  9  1 -1</clus>
<clus scale="   85.969">  5  6 -1 -1</clus>
<clus scale="   89.823">  2  5  1 -1</clus>
<clus scale="   91.066">  7  8 -1 -1</clus>
<clus scale="   26.314">  2  5  1 -1</clus>
</clustering>
</event>
<event>
 9    1  0.1234700E-005  0.9105854E+02  0.7546771E-02  0.1301341E+00
          1   -1    0    0  502    0  0.00000000000E+00  0.00000000000E+00  0.87178419107E+02  0.87178419107E+02  0.00000000000E+00 0. -1.
         -1   -1    0    0    0  501 -0.00000000000E+00 -0.00000000000E+00 -0.23171678418E+03  0.23171678418E+03  0.00000000000E+00 0.  1.
         23    2    1    2    0    0  0.19997170195E+02 -0.10227395610E+02 -0.17925590135E+03  0.20141956563E+03  0.89065575909E+02 0.  0.
         23    2    1    2    0    0  0.42255066064E+01  0.69621336228E+01  0.29136064319E+02  0.92404681614E+02  0.87312019388E+02 0.  0.
        -11    1    4    4    0    0  0.40881235985E+02  0.75232270017E+01  0.36140092896E+02  0.55081582355E+02  0.00000000000E+00 0.  1.
         11    1    4    4    0    0 -0.36655729379E+02 -0.56109337887E+00 -0.70040285769E+01  0.37323099260E+02  0.00000000000E+00 0. -1.
        -13    1    3    3    0    0  0.32898667543E+02 -0.37257435978E+02 -0.15532017270E+03  0.16307910629E+03  0.00000000000E+00 0.  1.
         13    1    3    3    0    0 -0.12901497348E+02  0.27030040368E+02 -0.23935728657E+02  0.38340459341E+02  0.00000000000E+00 0. -1.
         21    1    1    2  502  501 -0.24222676801E+02  0.32652619873E+01  0.55814719676E+01  0.25070956037E+02  0.00000000000E+00 0. -1.
<scales pt_clust_5="13000.00000" pt_clust_6="13000.00000" pt_clust_7="13000.00000" pt_clust_8="13000.00000" pt_clust_9="24.44177"></scales>
<clustering>
<clus scale="   24.442">  1  9  2 -1</clus>
<clus scale="   87.312">  5  6 -1 -1</clus>
<clus scale="   89.066">  7  8 -1 -1</clus>
<clus scale="   89.344">  1  5  2 -1</clus>
<clus scale="   24.442">  1  5  2 -1</clus>
</clustering>
</event>
<event>
 9    1  0.1234700E-005  0.1397743E+03  0.7546771E-02  0.1214254E+00
          2   -1    0    0  502    0  0.00000000000E+00  0.00000000000E+00  0.10549841707E+03  0.10549841707E+03  0.00000000000E+00 0. -1.
         -2   -1    0    0    0  501 -0.00000000000E+00 -0.00000000000E+00 -0.29656867420E+03  0.29656867420E+03  0.00000000000E+00 0.  1.
         23    2    1    2    0    0  0.20798814436E+02  0.10473272749E+03 -0.18551554772E+03  0.23350000427E+03  0.93298974597E+02 0.  0.
         23    2    1    2    0    0 -0.41891422659E+02 -0.90530394319E+02 -0.24418010401E+02  0.13690593552E+03  0.90533708415E+02 0.  0.
        -11    1    4    4    0    0  0.18805793496E+02 -0.64438092944E+02 -0.20609303909E+01  0.67157822518E+02  0.00000000000E+00 0. -1.
         11    1    4    4    0    0 -0.60697216155E+02 -0.26092301375E+02 -0.22357080010E+02  0.69748112997E+02  0.00000000000E+00 0.  1.
        -11    1    3    3    0    0 -0.37283578240E+02  0.45455258196E+02 -0.75181680479E+02  0.95438623123E+02  0.00000000000E+00 0.  1.
         11    1    3    3    0    0  0.58082392676E+02  0.59277469294E+02 -0.11033386724E+03  0.13806138115E+03  0.00000000000E+00 0. -1.
         21    1    1    2  502  501  0.21092608223E+02 -0.14202333170E+02  0.18863300985E+02  0.31661151482E+02  0.00000000000E+00 0. -1.
<scales pt_clust_5="13000.00000" pt_clust_6="13000.00000" pt_clust_7="13000.00000" pt_clust_8="13000.00000" pt_clust_9="25.42842"></scales>
<clustering>
<clus scale="   25.428">  1  9  2 -1</clus>
<clus scale="   90.534">  5  6 -1 -1</clus>
<clus scale="   93.299">  7  8 -1 -1</clus>
<clus scale="  137.944">  1  5  2 -1</clus>
<clus scale="   25.428">  1  5  2 -1</clus>
</clustering>
</event>
<event>
 9    1  0.1234700E-005  0.9024344E+02  0.7546771E-02  0.1304222E+00
          1   -1    0    0  502    0  0.00000000000E+00  0.00000000000E+00  0.22836458165E+03  0.22836458165E+03  0.00000000000E+00 0. -1.
         -1   -1    0    0    0  501 -0.00000000000E+00 -0.00000000000E+00 -0.72382037529E+02  0.72382037529E+02  0.00000000000E+00 0.  1.
         23    2    1    2    0    0  0.11065159820E+02 -0.69110138544E+00 -0.12861833201E+02  0.88281687190E+02  0.86633216244E+02 0.  0.
         23    2    1    2    0    0  0.58365947785E+01 -0.22945539927E+02  0.93922798442E+02  0.13210571906E+03  0.89832428996E+02 0.  0.
        -11    1    4    4    0    0 -0.39382109065E+02  0.74264349382E+00  0.26233715511E+02  0.47325573037E+02  0.00000000000E+00 0. -1.
         11    1    4    4    0    0  0.45218703844E+02 -0.23688183420E+02  0.67689082931E+02  0.84780146020E+02  0.00000000000E+00 0.  1.
        -13    1    3    3    0    0  0.30713176029E+01 -0.42224249569E+02 -0.17341177057E+02  0.45749717652E+02  0.00000000000E+00 0.  1.
         13    1    3    3    0    0  0.79938422176E+01  0.41533148184E+02  0.44793438556E+01  0.42531969538E+02  0.00000000000E+00 0. -1.
         21    1    1    2  502  501 -0.16901754599E+02  0.23636641312E+02  0.74921578881E+02  0.80359212932E+02  0.00000000000E+00 0. -1.
<scales pt_clust_5="13000.00000" pt_clust_6="13000.00000" pt_clust_7="13000.00000" pt_clust_8="13000.00000" pt_clust_9="29.05788"></scales>
<clustering>
<clus scale="   29.058">  1  9  2 -1</clus>
<clus scale="   86.633">  7  8 -1 -1</clus>
<clus scale="   87.059">  2  7  1 -1</clus>
<clus scale="   89.832">  5  6 -1 -1</clus>
<clus scale="   29.058">  1  5  2 -1</clus>
</clustering>
</event>
<event>
 9    1  0.1234700E-005  0.1167478E+03  0.7546771E-02  0.1251283E+00
         -2   -1    0    0    0  501 -0.00000000000E+00  0.00000000000E+00  0.22200478793E+03  0.22200478793E+03  0.00000000000E+00 0.  1.
          2   -1    0    0  502    0  0.00000000000E+00 -0.00000000000E+00 -0.79718265965E+02  0.79718265965E+02  0.00000000000E+00 0. -1.
         23    2    1    2    0    0  0.28332717735E+02 -0.55138884760E+02  0.11156083023E+03  0.16053211396E+03  0.97374027664E+02 0.  0.
         23    2    1    2    0    0 -0.49745656338E+02  0.50161149157E+02  0.33279796361E+02  0.11905916997E+03  0.89870851221E+02 0.  0.
        -11    1    3    3    0    0 -0.19004406778E+02 -0.19227146782E+02 -0.69911255013E+01  0.27923582975E+02  0.00000000000E+00 0. -1.
         11    1    3    3    0    0  0.47337124514E+02 -0.35911737978E+02  0.11855195573E+03  0.13260853098E+03  0.00000000000E+00 0.  1.
        -11    1    4    4    0    0 -0.97337560895E+01  0.59997711947E+02 -0.73111558180E+01  0.61220294396E+02  0.00000000000E+00 0. -1.
         11    1    4    4    0    0 -0.40011900248E+02 -0.98365627906E+01  0.40590952179E+02  0.57838875576E+02  0.00000000000E+00 0.  1.
         21    1    1    2  502  501  0.21412938603E+02  0.49777356036E+01 -0.25541046277E+01  0.22131769965E+02  0.00000000000E+00 0.  1.
<scales pt_clust_5="13000.00000" pt_clust_6="13000.00000" pt_clust_7="13000.00000" pt_clust_8="13000.00000" pt_clust_9="21.98390"></scales>
<clustering>
<clus scale="   21.984">  2  9  1 -1</clus>
<clus scale="   89.871">  7  8 -1 -1</clus>
<clus scale="   97.374">  5  6 -1 -1</clus>
<clus scale="  110.567">  2  7  1 -1</clus>
<clus scale="   21.984">  2  5  1 -1</clus>
</clustering>
</event>
<event>
 9    1  0.1234700E-005  0.1436026E+03  0.7546771E-02  0.1210558E+00
         -1   -1    0    0    0  501 -0.00000000000E+00  0.00000000000E+00  0.76315391672E+03  0.76315391672E+03  0.00000000000E+00 0.  1.
          1   -1    0    0  502    0  0.00000000000E+00 -0.00000000000E+00 -0.25008852577E+03  0.25008852577E+03  0.00000000000E+00 0. -1.
         23    2    1    2    0    0 -0.12145292175E+03 -0.61130071580E+02  0.68619839165E+03  0.70438713632E+03  0.82494286246E+02 0.  0.
         23    2    1    2    0    0  0.78491335546E+02  0.76352747522E+02 -0.20729159820E+03  0.25189709749E+03  0.92150470592E+02 0.  0.
        -11    1    4    4    0    0  0.44152735364E+02  0.28969030628E+02 -0.17951551022E+03  0.18712158396E+03  0.00000000000E+00 0.  1.
         11    1    4    4    0    0  0.34338600181E+02  0.47383716894E+02 -0.27776087977E+02  0.64775513525E+02  0.00000000000E+00 0. -1.
        -13    1    3    3    0    0 -0.41160479663E+02  0.17522023928E+02  0.14967914125E+03  0.15622116289E+03  0.00000000000E+00 0. -1.
         13    1    3    3    0    0 -0.80292442090E+02 -0.78652095508E+02  0.53651925040E+03  0.54816597344E+03  0.00000000000E+00 0.  1.
         21    1    1    2  502  501  0.42961586208E+02 -0.15222675942E+02  0.34158597498E+02  0.56958208674E+02  0.00000000000E+00 0. -1.
<scales pt_clust_5="13000.00000" pt_clust_6="13000.00000" pt_clust_7="13000.00000" pt_clust_8="13000.00000" pt_clust_9="45.57881"></scales>
<clustering>
<clus scale="   45.579">  1  9  2 -1</clus>
<clus scale="   82.494">  7  8 -1 -1</clus>
<clus scale="   92.150">  5  6 -1 -1</clus>
<clus scale="  137.606">  1  7  2 -1</clus>
<clus scale="  143.603">  2  5  1 -1</clus>
</clustering>
</event>
<event>
 9    1  0.1234700E-005  0.9402166E+02  0.7546771E-02  0.1293775E+00
          2   -1    0    0  502    0  0.00000000000E+00  0.00000000000E+00  0.21906531907E+03  0.21906531907E+03  0.00000000000E+00 0. -1.
         -2   -1    0    0    0  501 -0.00000000000E+00 -0.00000000000E+00 -0.11204781605E+03  0.11204781605E+03  0.00000000000E+00 0.  1.
         23    2    1    2    0    0 -0.13879152675E+02  0.13008455908E+02 -0.60169725619E+02  0.11105627149E+03  0.91385167027E+02 0.  0.
         23    2    1    2    0    0  0.49986269202E+02  0.29549959845E+01  0.12100931800E+03  0.15930363251E+03  0.90702994312E+02 0.  0.
        -13    1    3    3    0    0  0.10282306010E+02  0.35792671212E+02 -0.67459256066E+02  0.77055774335E+02  0.00000000000E+00 0.  1.
         13    1    3    3    0    0 -0.24161458685E+02 -0.22784215304E+02  0.72895304470E+01  0.34000497157E+02  0.00000000000E+00 0. -1.
        -13    1    4    4    0    0  0.21189684986E+02 -0.21229190341E+02 -0.25938629844E+01  0.30106633779E+02  0.00000000000E+00 0. -1.
         13    1    4    4    0    0  0.28796584216E+02  0.24184186326E+02  0.12360318099E+03  0.12919699873E+03  0.00000000000E+00 0.  1.
         21    1    1    2  502  501 -0.36107116526E+02 -0.15963451892E+02  0.46177910644E+02  0.60753231121E+02  0.00000000000E+00 0. -1.
<scales pt_clust_5="13000.00000" pt_clust_6="13000.00000" pt_clust_7="13000.00000" pt_clust_8="13000.00000" pt_clust_9="39.47855"></scales>
<clustering>
<clus scale="   39.479">  1  9  2 -1</clus>
<clus scale="   90.703">  7  8 -1 -1</clus>
<clus scale="   91.385">  5  6 -1 -1</clus>
<clus scale="   93.359">  1  7  2 -1</clus>
<clus scale="   39.479">  1  5  2 -1</clus>
</clustering>
</event>
<event>
 9    1  0.1234700E-005  0.1070079E+03  0.7546771E-02  0.1267195E+00
          2   -1    0    0  502    0  0.00000000000E+00  0.00000000000E+00  0.20312279166E+03  0.20312279166E+03  0.00000000000E+00 0. -1.
         -2   -1    0    0    0  501 -0.00000000000E+00 -0.00000000000E+00 -0.29488569289E+03  0.29488569289E+03  0.00000000000E+00 0.  1.
         23    2    1    2    0    0  0.65889350658E+02  0.17496783838E+02 -0.20251015892E+03  0.23278019696E+03  0.92351024118E+02 0.  0.
         23    2    1    2    0    0 -0.38276527451E+01 -0.44847238242E+02 -0.33315825406E+02  0.10599929018E+03  0.89999886630E+02 0.  0.
        -11    1    3    3    0    0 -0.99581647894E+01  0.35403649312E+02 -0.60978968299E+02  0.71211080637E+02  0.00000000000E+00 0. -1.
         11    1    3    3    0    0  0.75847515448E+02 -0.17906865474E+02 -0.14153119062E+03  0.16156911632E+03  0.00000000000E+00 0.  1.
        -13    1    4    4    0    0 -0.23391185705E+02 -0.18856209457E+02 -0.57894957740E+02  0.65226760884E+02  0.00000000000E+00 0.  1.
         13    1    4    4    0    0  0.19563532959E+02 -0.25991028785E+02  0.24579132334E+02  0.40772529299E+02  0.00000000000E+00 0. -1.
         21    1    1    2  502  501 -0.62061697913E+02  0.27350454404E+02  0.14406308310E+03  0.15922899741E+03  0.00000000000E+00 0. -1.
<scales pt_clust_5="13000.00000" pt_clust_6="13000.00000" pt_clust_7="13000.00000" pt_clust_8="13000.00000" pt_clust_9="67.82110"></scales>
<clustering>
<clus scale="   67.821">  1  9  2 -1</clus>
<clus scale="   90.000">  7  8 -1 -1</clus>
<clus scale="   92.351">  5  6 -1 -1</clus>
<clus scale="  104.986">  1  7  2 -1</clus>
<clus scale="   67.821">  1  5  2 -1</clus>
</clustering>
</event>
<event>
 9    1  0.1234700E-005  0.1328652E+03  0.7546771E-02  0.1223717E+00
         -4   -1    0    0    0  501 -0.00000000000E+00  0.00000000000E+00  0.28686644930E+03  0.28686644930E+03  0.00000000000E+00 0.  1.
          4   -1    0    0  502    0  0.00000000000E+00 -0.00000000000E+00 -0.25862718129E+03  0.25862718129E+03  0.00000000000E+00 0. -1.
         23    2    1    2    0    0 -0.42527447696E+02  0.82268299565E+02  0.23530343578E+03  0.26941375984E+03  0.92948427516E+02 0.  0.
         23    2    1    2    0    0  0.59052038459E+02 -0.10724951887E+03 -0.17191590566E+03  0.22990061407E+03  0.91157068772E+02 0.  0.
        -11    1    4    4    0    0 -0.10867182517E+01 -0.79743932547E+02 -0.12698148620E+03  0.14994856976E+03  0.00000000000E+00 0. -1.
         11    1    4    4    0    0  0.60138756711E+02 -0.27505586325E+02 -0.44934419460E+02  0.79952044314E+02  0.00000000000E+00 0.  1.
        -13    1    3    3    0    0 -0.23031772091E+02  0.76570398101E+02  0.23591108017E+03  0.24909340846E+03  0.00000000000E+00 0.  1.
         13    1    3    3    0    0 -0.19495675605E+02  0.56979014638E+01 -0.60764438765E+00  0.20320351378E+02  0.00000000000E+00 0. -1.
         21    1    1    2  502  501 -0.16524590763E+02  0.24981219307E+02 -0.35148262111E+02  0.46179256679E+02  0.00000000000E+00 0.  1.
<scales pt_clust_5="13000.00000" pt_clust_6="13000.00000" pt_clust_7="13000.00000" pt_clust_8="13000.00000" pt_clust_9="29.95202"></scales>
<clustering>
<clus scale="   29.952">  2  9  1 -1</clus>
<clus scale="   91.157">  5  6 -1 -1</clus>
<clus scale="   92.948">  7  8 -1 -1</clus>
<clus scale="  131.618">  2  5  1 -1</clus>
<clus scale="   29.952">  2  5  1 -1</clus>
</clustering>
</event>
<event>
 9    1  0.1234700E-005  0.9836287E+02  0.7546771E-02  0.1283823E+00
         -2   -1    0    0    0  501 -0.00000000000E+00  0.00000000000E+00  0.73516155956E+02  0.73516155956E+02  0.00000000000E+00 0.  1.
          2   -1    0    0  502    0  0.00000000000E+00 -0.00000000000E+00 -0.38364425435E+03  0.38364425435E+03  0.00000000000E+00 0. -1.
         23    2    1    2    0    0  0.61970513649E+01 -0.35305527905E+02  0.25035774427E+02  0.10210004417E+03  0.92264539620E+02 0.  0.
         23    2    1    2    0    0 -0.18078799003E+02  0.17627370283E+02 -0.28362855262E+03  0.29929673631E+03  0.92172736456E+02 0.  0.
        -11    1    4    4    0    0  0.32581403106E+02 -0.13056451545E+02 -0.83219872624E+02  0.90319244654E+02  0.00000000000E+00 0.  1.
         11    1    4    4    0    0 -0.50660202109E+02  0.30683821827E+02 -0.20040868000E+03  0.20897749166E+03  0.00000000000E+00 0. -1.
        -13    1    3    3    0    0  0.10460081318E+02 -0.65013707729E+02  0.28761978019E+02  0.71857128202E+02  0.00000000000E+00 0.  1.
         13    1    3    3    0    0 -0.42630299532E+01  0.29708179824E+02 -0.37262035920E+01  0.30242915965E+02  0.00000000000E+00 0. -1.
         21    1    1    2  502  501  0.11881747639E+02  0.17678157622E+02 -0.51535320194E+02  0.55763629826E+02  0.00000000000E+00 0. -1.
<scales pt_clust_5="13000.00000" pt_clust_6="13000.00000" pt_clust_7="13000.00000" pt_clust_8="13000.00000" pt_clust_9="21.30007"></scales>
<clustering>
<clus scale="   21.300">  2  9  1 -1</clus>
<clus scale="   92.173">  5  6 -1 -1</clus>
<clus scale="   92.265">  7  8 -1 -1</clus>
<clus scale="   98.277">  2  5  1 -1</clus>
<clus scale="   21.300">  2  5  1 -1</clus>
</clustering>
</event>
<event>
 9    1  0.1234700E-005  0.1583362E+03  0.7546771E-02  0.1190605E+00
         -2   -1    0    0    0  501 -0.00000000000E+00  0.00000000000E+00  0.11400299357E+03  0.11400299357E+03  0.00000000000E+00 0.  1.
          2   -1    0    0  502    0  0.00000000000E+00 -0.00000000000E+00 -0.26479701144E+03  0.26479701144E+03  0.00000000000E+00 0. -1.
         23    2    1    2    0    0 -0.82510018446E+02 -0.88951422174E+02 -0.34865029216E+02  0.15577284022E+03  0.91265266326E+02 0.  0.
         23    2    1    2    0    0  0.92330104161E+02  0.10817461938E+03 -0.10367831769E+03  0.19820692439E+03  0.91160270432E+02 0.  0.
        -11    1    3    3    0    0 -0.78331916037E+02 -0.18432389597E+02 -0.11064256735E+02  0.81228442268E+02  0.00000000000E+00 0.  1.
         11    1    3    3    0    0 -0.41781024092E+01 -0.70519032577E+02 -0.23800772481E+02  0.74544397952E+02  0.00000000000E+00 0. -1.
        -13    1    4    4    0    0  0.53596202326E+02  0.11675145453E+03 -0.87106284520E+02  0.15521262784E+03  0.00000000000E+00 0. -1.
         13    1    4    4    0    0  0.38733901835E+02 -0.85768351490E+01 -0.16572033174E+02  0.42994296553E+02  0.00000000000E+00 0.  1.
         21    1    1    2  502  501 -0.98200857148E+01 -0.19223197204E+02 -0.12250670964E+02  0.24820240395E+02  0.00000000000E+00 0.  1.
<scales pt_clust_5="13000.00000" pt_clust_6="13000.00000" pt_clust_7="13000.00000" pt_clust_8="13000.00000" pt_clust_9="21.58623"></scales>
<clustering>
<clus scale="   21.586">  2  9  1 -1</clus>
<clus scale="   91.160">  7  8 -1 -1</clus>
<clus scale="   91.265">  5  6 -1 -1</clus>
<clus scale="  158.276">  2  7  1 -1</clus>
<clus scale="   21.586">  2  5  1 -1</clus>
</clustering>
</event>
<event>
 9    1  0.1234700E-005  0.1396188E+03  0.7546771E-02  0.1213929E+00
         -3   -1    0    0    0  501 -0.00000000000E+00  0.00000000000E+00  0.66949426763E+03  0.66949426763E+03  0.00000000000E+00 0.  1.
          3   -1    0    0  502    0  0.00000000000E+00 -0.00000000000E+00 -0.36788587258E+02  0.36788587258E+02  0.00000000000E+00 0. -1.
         23    2    1    2    0    0  0.91843424726E+02  0.63295709609E+02  0.33577382785E+03  0.36555228944E+03  0.91884989650E+02 0.  0.
         23    2    1    2    0    0 -0.94461258942E+02 -0.31620187468E+02  0.23628340450E+03  0.27225848351E+03  0.91499010384E+02 0.  0.
        -11    1    3    3    0    0  0.46186652481E+02 -0.17189187134E+02  0.85026249607E+02  0.98275826855E+02  0.00000000000E+00 0. -1.
         11    1    3    3    0    0  0.45656772245E+02  0.80484896743E+02  0.25074757824E+03  0.26727646258E+03  0.00000000000E+00 0.  1.
        -13    1    4    4    0    0 -0.64618071728E+02  0.12385898037E+02  0.19233009802E+03  0.20327265500E+03  0.00000000000E+00 0.  1.
         13    1    4    4    0    0 -0.29843187214E+02 -0.44006085505E+02  0.43953306478E+02  0.68985828508E+02  0.00000000000E+00 0. -1.
         21    1    1    2  502  501  0.26178342152E+01 -0.31675522141E+02  0.60648448020E+02  0.68472081947E+02  0.00000000000E+00 0. -1.
<scales pt_clust_5="13000.00000" pt_clust_6="13000.00000" pt_clust_7="13000.00000" pt_clust_8="13000.00000" pt_clust_9="31.78351"></scales>
<clustering>
<clus scale="   31.784">  2  9  1 -1</clus>
<clus scale="   91.499">  7  8 -1 -1</clus>
<clus scale="   91.885">  5  6 -1 -1</clus>
<clus scale="  139.365">  2  7  1 -1</clus>
<clus scale="   31.784">  2  5  1 -1</clus>
</clustering>
</event>
<event>
 9    1  0.1234700E-005  0.1004389E+03  0.7546771E-02  0.1282326E+00
         -3   -1    0    0    0  501 -0.00000000000E+00  0.00000000000E+00  0.32564644860E+02  0.32564644860E+02  0.00000000000E+00 0.  1.
          3   -1    0    0  502    0  0.00000000000E+00 -0.00000000000E+00 -0.74401431638E+03  0.74401431638E+03  0.00000000000E+00 0. -1.
         23    2    1    2    0    0 -0.24481700875E+02  0.16101414073E+02 -0.15552072642E+03  0.18560798146E+03  0.96979468047E+02 0.  0.
         23    2    1    2    0    0 -0.37115575956E+02  0.30714684094E+02 -0.43747310852E+03  0.44948685777E+03  0.91294889417E+02 0.  0.
        -11    1    3    3    0    0 -0.47228518384E+02  0.34966005918E+01 -0.27064583539E+02  0.54545860032E+02  0.00000000000E+00 0.  1.
         11    1    3    3    0    0  0.22746817509E+02  0.12604813481E+02 -0.12845614288E+03  0.13106212142E+03  0.00000000000E+00 0. -1.
        -11    1    4    4    0    0 -0.26436680848E+02  0.63455278795E+02 -0.29774353049E+03  0.30557598147E+03  0.00000000000E+00 0.  1.
         11    1    4    4    0    0 -0.10678895107E+02 -0.32740594701E+02 -0.13972957803E+03  0.14391087630E+03  0.00000000000E+00 0. -1.
         21    1    1    2  502  501  0.61597276831E+02 -0.46816098167E+02 -0.11845583659E+03  0.14148412202E+03  0.00000000000E+00 0. -1.
<scales pt_clust_5="13000.00000" pt_clust_6="13000.00000" pt_clust_7="13000.00000" pt_clust_8="13000.00000" pt_clust_9="77.36906"></scales>
<clustering>
<clus scale="   77.369">  1  9  2 -1</clus>
<clus scale="   91.295">  7  8 -1 -1</clus>
<clus scale="   94.962">  2  7  1 -1</clus>
<clus scale="   96.979">  5  6 -1 -1</clus>
<clus scale="   94.962">  2  5  1 -1</clus>
</clustering>
</event>
<event>
 9    1  0.1234700E-005  0.9830855E+02  0.7546771E-02  0.1285545E+00
         -2   -1    0    0    0  501 -0.00000000000E+00  0.00000000000E+00  0.59490362763E+03  0.59490362763E+03  0.00000000000E+00 0.  1.
          2   -1    0    0  502    0  0.00000000000E+00 -0.00000000000E+00 -0.85704564288E+02  0.85704564288E+02  0.00000000000E+00 0. -1.
         23    2    1    2    0    0  0.33611466034E+02  0.11205744144E+02  0.54125179177E+03  0.55027462251E+03  0.92700370737E+02 0.  0.
         23    2    1    2    0    0  0.68211523279E+00 -0.76852232618E+01 -0.12466836972E+02  0.90684471979E+02  0.89491471640E+02 0.  0.
        -11    1    3    3    0    0  0.55698029473E+02 -0.21508482921E+02  0.31626899233E+03  0.32185549682E+03  0.00000000000E+00 0. -1.
         11    1    3    3    0    0 -0.22086563439E+02  0.32714227065E+02  0.22498279943E+03  0.22841912568E+03  0.00000000000E+00 0.  1.
        -13    1    4    4    0    0 -0.21612769236E+02  0.31425930582E+02  0.11296495255E+02  0.39778281914E+02  0.00000000000E+00 0.  1.
         13    1    4    4    0    0  0.22294884468E+02 -0.39111153844E+02 -0.23763332227E+02  0.50906190065E+02  0.00000000000E+00 0. -1.
         21    1    1    2  502  501 -0.34293581267E+02 -0.35205208821E+01 -0.19585891450E+02  0.39649097433E+02  0.00000000000E+00 0.  1.
<scales pt_clust_5="13000.00000" pt_clust_6="13000.00000" pt_clust_7="13000.00000" pt_clust_8="13000.00000" pt_clust_9="34.47381"></scales>
<clustering>
<clus scale="   34.474">  2  9  1 -1</clus>
<clus scale="   89.491">  7  8 -1 -1</clus>
<clus scale="   92.700">  5  6 -1 -1</clus>
<clus scale="   95.289">  2  7  1 -1</clus>
<clus scale="   34.474">  2  5  1 -1</clus>
</clustering>
</event>
<event>
 9    1  0.1234700E-005  0.9456695E+02  0.7546771E-02  0.1295358E+00
          1   -1    0    0  502    0  0.00000000000E+00  0.00000000000E+00  0.48176194813E+03  0.48176194813E+03  0.00000000000E+00 0. -1.
         -1   -1    0    0    0  501 -0.00000000000E+00 -0.00000000000E+00 -0.28929296993E+02  0.28929296993E+02  0.00000000000E+00 0.  1.
         23    2    1    2    0    0  0.31525401548E+02 -0.12673082915E+02  0.10891952553E+03  0.14634291873E+03  0.91642396560E+02 0.  0.
         23    2    1    2    0    0 -0.62027383443E+01 -0.97657115449E-01  0.20193171841E+03  0.21956210791E+03  0.85980328158E+02 0.  0.
        -13    1    3    3    0    0 -0.15617923665E+02  0.30209552804E+02  0.37547028928E+02  0.50658819582E+02  0.00000000000E+00 0. -1.
         13    1    3    3    0    0  0.47143325213E+02 -0.42882635719E+02  0.71372496598E+02  0.95684099144E+02  0.00000000000E+00 0.  1.
        -13    1    4    4    0    0 -0.31118391953E+02 -0.18706552911E+02  0.37430324569E+02  0.52147086562E+02  0.00000000000E+00 0.  1.
         13    1    4    4    0    0  0.24915653609E+02  0.18608895796E+02  0.16450139384E+03  0.16741502135E+03  0.00000000000E+00 0. -1.
         21    1    1    2  502  501 -0.25322663204E+02  0.12770740031E+02  0.14198140720E+03  0.14478621848E+03  0.00000000000E+00 0.  1.
<scales pt_clust_5="13000.00000" pt_clust_6="13000.00000" pt_clust_7="13000.00000" pt_clust_8="13000.00000" pt_clust_9="28.36070"></scales>
<clustering>
<clus scale="   28.361">  1  9  2 -1</clus>
<clus scale="   85.980">  7  8 -1 -1</clus>
<clus scale="   89.091">  1  7  2 -1</clus>
<clus scale="   91.642">  5  6 -1 -1</clus>
<clus scale="   28.361">  1  5  2 -1</clus>
</clustering>
</event>
<event>
 9    1  0.1234700E-005  0.1960113E+03  0.7546771E-02  0.1154274E+00
          1   -1    0    0  502    0  0.00000000000E+00  0.00000000000E+00  0.38865738308E+03  0.38865738308E+03  0.00000000000E+00 0. -1.
         -1   -1    0    0    0  501 -0.00000000000E+00 -0.00000000000E+00 -0.13127851491E+03  0.13127851491E+03  0.00000000000E+00 0.  1.
         23    2    1    2    0    0 -0.20441921562E+02 -0.15035150314E+03  0.79039173569E+02  0.19043713594E+03  0.83640092872E+02 0.  0.
         23    2    1    2    0    0  0.20783347228E+02  0.19600748262E+03  0.10378958489E+03  0.24207849042E+03  0.94756724445E+02 0.  0.
        -11    1    3    3    0    0  0.25895309547E+02 -0.17654244696E+02  0.24063692420E+02  0.39513297827E+02  0.00000000000E+00 0.  1.
         11    1    3    3    0    0 -0.46337231109E+02 -0.13269725844E+03  0.54975481149E+02  0.15092383812E+03  0.00000000000E+00 0. -1.
        -13    1    4    4    0    0 -0.11911792676E+02  0.38118774917E+02  0.64921316619E+02  0.76221448146E+02  0.00000000000E+00 0. -1.
         13    1    4    4    0    0  0.32695139904E+02  0.15788870770E+03  0.38868268268E+02  0.16585704227E+03  0.00000000000E+00 0.  1.
         21    1    1    2  502  501 -0.34142566601E+00 -0.45655979485E+02  0.74550109710E+02  0.87420271631E+02  0.00000000000E+00 0. -1.
<scales pt_clust_5="13000.00000" pt_clust_6="13000.00000" pt_clust_7="13000.00000" pt_clust_8="13000.00000" pt_clust_9="45.65726"></scales>
<clustering>
<clus scale="   45.657">  1  9  2 -1</clus>
<clus scale="   83.640">  5  6 -1 -1</clus>
<clus scale="   94.757">  7  8 -1 -1</clus>
<clus scale="  190.885">  2  5  1 -1</clus>
<clus scale="   45.657">  1  5  2 -1</clus>
</clustering>
</event>
<event>
 9    1  0.1234700E-005  0.1673197E+03  0.7546771E-02  0.1181764E+00
         -1   -1    0    0    0  501 -0.00000000000E+00  0.00000000000E+00  0.40298061295E+03  0.40298061295E+03  0.00000000000E+00 0.  1.
          1   -1    0    0  502    0  0.00000000000E+00 -0.00000000000E+00 -0.22022044151E+03  0.22022044151E+03  0.00000000000E+00 0. -1.
         23    2    1    2    0    0 -0.12589237324E+03  0.44380318166E+02  0.23961106664E+03  0.28892211553E+03  0.90796604032E+02 0.  0.
         23    2    1    2    0    0  0.14931555728E+03 -0.48397585437E+02  0.80423066749E+02  0.19496302234E+03  0.83097824831E+02 0.  0.
        -13    1    3    3    0    0 -0.12504657906E+03  0.15149360467E+02  0.22064316297E+03  0.25406604539E+03  0.00000000000E+00 0.  1.
         13    1    3    3    0    0 -0.84579418955E+00  0.29230957698E+02  0.18967903672E+02  0.34856070138E+02  0.00000000000E+00 0. -1.
        -13    1    4    4    0    0  0.80694541084E+02 -0.12866721142E+02 -0.23211947974E+01  0.81746861829E+02  0.00000000000E+00 0. -1.
         13    1    4    4    0    0  0.68621016199E+02 -0.35530864295E+02  0.82744261547E+02  0.11321616051E+03  0.00000000000E+00 0.  1.
         21    1    1    2  502  501 -0.23423184038E+02  0.40172672716E+01 -0.13727396195E+03  0.13931591659E+03  0.00000000000E+00 0. -1.
<scales pt_clust_5="13000.00000" pt_clust_6="13000.00000" pt_clust_7="13000.00000" pt_clust_8="13000.00000" pt_clust_9="23.76518"></scales>
<clustering>
<clus scale="   23.765">  2  9  1 -1</clus>
<clus scale="   83.098">  7  8 -1 -1</clus>
<clus scale="   90.797">  5  6 -1 -1</clus>
<clus scale="  163.270">  2  7  1 -1</clus>
<clus scale="   23.765">  2  5  1 -1</clus>
</clustering>
</event>
<event>
 9    1  0.1234700E-005  0.1735933E+03  0.7546771E-02  0.1174176E+00
         -4   -1    0    0    0  501 -0.00000000000E+00  0.00000000000E+00  0.55735821466E+03  0.55735821466E+03  0.00000000000E+00 0.  1.
          4   -1    0    0  502    0  0.00000000000E+00 -0.00000000000E+00 -0.11564404227E+03  0.11564404227E+03  0.00000000000E+00 0. -1.
         23    2    1    2    0    0  0.12007828639E+03  0.77809786433E+02  0.41321812297E+03  0.44661116402E+03  0.90769801964E+02 0.  0.
         23    2    1    2    0    0 -0.14460231531E+03 -0.93602516681E+02  0.31170779517E+02  0.19709958383E+03  0.90583484867E+02 0.  0.
        -11    1    4    4    0    0 -0.40248998629E+02 -0.64489749552E+02  0.44273540662E+02  0.87971905121E+02  0.00000000000E+00 0.  1.
         11    1    4    4    0    0 -0.10435331668E+03 -0.29112767129E+02 -0.13102761145E+02  0.10912767871E+03  0.00000000000E+00 0. -1.
        -13    1    3    3    0    0  0.12025358932E+01  0.32470272629E+02  0.35903181234E+02  0.48423167181E+02  0.00000000000E+00 0. -1.
         13    1    3    3    0    0  0.11887575050E+03  0.45339513804E+02  0.37731494174E+03  0.39818799684E+03  0.00000000000E+00 0.  1.
         21    1    1    2  502  501  0.24524028914E+02  0.15792730248E+02 -0.26747300969E+01  0.29291509076E+02  0.00000000000E+00 0. -1.
<scales pt_clust_5="13000.00000" pt_clust_6="13000.00000" pt_clust_7="13000.00000" pt_clust_8="13000.00000" pt_clust_9="29.16913"></scales>
<clustering>
<clus scale="   29.169">  2  9  1 -1</clus>
<clus scale="   90.583">  5  6 -1 -1</clus>
<clus scale="   90.770">  7  8 -1 -1</clus>
<clus scale="  173.496">  2  5  1 -1</clus>
<clus scale="   29.169">  2  5  1 -1</clus>
</clustering>
</event>
<event>
 9    1  0.1234700E-005  0.8081627E+02  0.7546771E-02  0.1328066E+00
          2   -1    0    0  502    0  0.00000000000E+00  0.00000000000E+00  0.12339189494E+03  0.12339189494E+03  0.00000000000E+00 0. -1.
         -2   -1    0    0    0  501 -0.00000000000E+00 -0.00000000000E+00 -0.84713815057E+02  0.84713815057E+02  0.00000000000E+00 0.  1.
         23    2    1    2    0    0  0.97050836733E+01 -0.18224293955E+02 -0.20259498165E+02  0.83308549411E+02  0.78125243039E+02 0.  0.
         23    2    1    2    0    0 -0.32174822325E+00 -0.96546314538E+01  0.42594785935E+02  0.91146479758E+02  0.80000309706E+02 0.  0.
        -11    1    4    4    0    0 -0.28569683881E+02 -0.91709607279E+00  0.52655082998E+02  0.59913484858E+02  0.00000000000E+00 0.  1.
         11    1    4    4    0    0  0.28247935658E+02 -0.87375353810E+01 -0.10060297062E+02  0.31232994901E+02  0.00000000000E+00 0. -1.
        -11    1    3    3    0    0  0.37765800506E+02 -0.19310568032E+02  0.83384803029E+01  0.43228277543E+02  0.00000000000E+00 0. -1.
         11    1    3    3    0    0 -0.28060716833E+02  0.10862740768E+01 -0.28597978468E+02  0.40080271868E+02  0.00000000000E+00 0.  1.
         21    1    1    2  502  501 -0.93833354501E+01  0.27878925409E+02  0.16342792112E+02  0.33650680828E+02  0.00000000000E+00 0.  1.
<scales pt_clust_5="13000.00000" pt_clust_6="13000.00000" pt_clust_7="13000.00000" pt_clust_8="13000.00000" pt_clust_9="29.41567"></scales>
<clustering>
<clus scale="   29.416">  1  9  2 -1</clus>
<clus scale="   78.125">  7  8 -1 -1</clus>
<clus scale="   78.961">  2  7  1 -1</clus>
<clus scale="   80.000">  5  6 -1 -1</clus>
<clus scale="   29.416">  1  5  2 -1</clus>
</clustering>
</event>
<event>
 9    1  0.1234700E-005  0.1549688E+03  0.7546771E-02  0.1194572E+00
         -1   -1    0    0    0  501 -0.00000000000E+00  0.00000000000E+00  0.12426808092E+03  0.12426808092E+03  0.00000000000E+00 0.  1.
          1   -1    0    0  502    0  0.00000000000E+00 -0.00000000000E+00 -0.22892744003E+03  0.22892744003E+03  0.00000000000E+00 0. -1.
         23    2    1    2    0    0 -0.58533066914E+02 -0.99843911519E+02 -0.28388018530E+02  0.14920862957E+03  0.89790917976E+02 0.  0.
         23    2    1    2    0    0  0.79643003178E+02  0.10955341441E+03 -0.79216511972E+02  0.18056515170E+03  0.89350767626E+02 0.  0.
        -11    1    4    4    0    0  0.23828249183E+02 -0.13310370356E+02 -0.14379227911E+02  0.30849855972E+02  0.00000000000E+00 0.  1.
         11    1    4    4    0    0  0.55814753995E+02  0.12286378477E+03 -0.64837284061E+02  0.14971529573E+03  0.00000000000E+00 0. -1.
        -13    1    3    3    0    0 -0.59406444615E+02 -0.33144774001E+02 -0.43588296770E+02  0.80793819818E+02  0.00000000000E+00 0.  1.
         13    1    3    3    0    0  0.87337770168E+00 -0.66699137518E+02  0.15200278240E+02  0.68414809748E+02  0.00000000000E+00 0. -1.
         21    1    1    2  502  501 -0.21109936264E+02 -0.97095028930E+01  0.29451713913E+01  0.23421739689E+02  0.00000000000E+00 0.  1.
<scales pt_clust_5="13000.00000" pt_clust_6="13000.00000" pt_clust_7="13000.00000" pt_clust_8="13000.00000" pt_clust_9="23.23583"></scales>
<clustering>
<clus scale="   23.236">  1  9  2 -1</clus>
<clus scale="   89.351">  5  6 -1 -1</clus>
<clus scale="   89.791">  7  8 -1 -1</clus>
<clus scale="  154.714">  2  5  1 -1</clus>
<clus scale="  154.714">  2  5  1 -1</clus>
</clustering>
</event>
<event>
 9    1  0.1234700E-005  0.1192116E+03  0.7546771E-02  0.1251207E+00
          3   -1    0    0  502    0  0.00000000000E+00  0.00000000000E+00  0.62660735646E+03  0.62660735646E+03  0.00000000000E+00 0. -1.
         -3   -1    0    0    0  501 -0.00000000000E+00 -0.00000000000E+00 -0.92594411780E+02  0.92594411780E+02  0.00000000000E+00 0.  1.
         23    2    1    2    0    0 -0.60355383614E+02  0.33543874556E+02 -0.18284355983E+02  0.11660437991E+03  0.92164526198E+02 0.  0.
         23    2    1    2    0    0 -0.20530620447E+02  0.38202039959E+02  0.17960178455E+03  0.21453557672E+03  0.10903123603E+03 0.  0.
        -11    1    3    3    0    0 -0.44881195427E+01  0.51490726607E+02  0.80105596011E+01  0.52303032499E+02  0.00000000000E+00 0.  1.
         11    1    3    3    0    0 -0.55867264072E+02 -0.17946852051E+02 -0.26294915584E+02  0.64301347412E+02  0.00000000000E+00 0. -1.
        -11    1    4    4    0    0 -0.33852048310E+02  0.72347298881E+02  0.11093340950E+03  0.13669789381E+03  0.00000000000E+00 0.  1.
         11    1    4    4    0    0  0.13321427863E+02 -0.34145258922E+02  0.68668375051E+02  0.77837682901E+02  0.00000000000E+00 0. -1.
         21    1    1    2  502  501  0.80886004061E+02 -0.71745914515E+02  0.37269551611E+03  0.38806181161E+03  0.00000000000E+00 0. -1.
<scales pt_clust_5="13000.00000" pt_clust_6="13000.00000" pt_clust_7="13000.00000" pt_clust_8="13000.00000" pt_clust_9="108.12040"></scales>
<clustering>
<clus scale="   92.165">  5  6 -1 -1</clus>
<clus scale="  108.120">  1  9  2 -1</clus>
<clus scale="  104.009">  2  5  1 -1</clus>
<clus scale="  109.031">  7  8 -1 -1</clus>
<clus scale="  108.120">  1  5  2 -1</clus>
</clustering>
</event>
<event>
 9    1  0.1234700E-005  0.2969238E+03  0.7546771E-02  0.1087126E+00
         -1   -1    0    0    0  501 -0.00000000000E+00  0.00000000000E+00  0.28219789240E+03  0.28219789240E+03  0.00000000000E+00 0.  1.
          1   -1    0    0  502    0  0.00000000000E+00 -0.00000000000E+00 -0.13742384289E+04  0.13742384289E+04  0.00000000000E+00 0. -1.
         23    2    1    2    0    0  0.30025147632E+03  0.84037943235E+02  0.10000232954E+03  0.34022028262E+03  0.92390745517E+02 0.  0.
         23    2    1    2    0    0 -0.14104220047E+03 -0.18667643382E+03 -0.25556692149E+03  0.36077402160E+03  0.10051094488E+03 0.  0.
        -11    1    3    3    0    0  0.17562442039E+03  0.70868511604E+02  0.10154489685E+03  0.21488985330E+03  0.00000000000E+00 0. -1.
         11    1    3    3    0    0  0.12462705594E+03  0.13169431631E+02 -0.15425673145E+01  0.12533042932E+03  0.00000000000E+00 0.  1.
        -11    1    4    4    0    0 -0.44093535800E+02 -0.20670710155E+02 -0.10784666237E+03  0.11833182472E+03  0.00000000000E+00 0.  1.
         11    1    4    4    0    0 -0.96948664666E+02 -0.16600572367E+03 -0.14772025912E+03  0.24244219688E+03  0.00000000000E+00 0. -1.
         21    1    1    2  502  501 -0.15920927586E+03  0.10263849059E+03 -0.93647594453E+03  0.95544201706E+03  0.00000000000E+00 0. -1.
<scales pt_clust_5="13000.00000" pt_clust_6="13000.00000" pt_clust_7="13000.00000" pt_clust_8="13000.00000" pt_clust_9="189.42612"></scales>
<clustering>
<clus scale="   92.391">  5  6 -1 -1</clus>
<clus scale="  100.511">  7  8 -1 -1</clus>
<clus scale="  189.426">  2  9  1 -1</clus>
<clus scale="  294.274">  1  5  2 -1</clus>
<clus scale="  189.426">  2  5  1 -1</clus>
</clustering>
</event>
<event>
 9    1  0.1234700E-005  0.1183463E+03  0.7546771E-02  0.1246141E+00
         -2   -1    0    0    0  501 -0.00000000000E+00  0.00000000000E+00  0.11299241200E+03  0.11299241200E+03  0.00000000000E+00 0.  1.
          2   -1    0    0  502    0  0.00000000000E+00 -0.00000000000E+00 -0.20080278915E+03  0.20080278915E+03  0.00000000000E+00 0. -1.
         23    2    1    2    0    0 -0.27206944679E+02 -0.73178830804E+02  0.26795800981E+01  0.11821815851E+03  0.88729892005E+02 0.  0.
         23    2    1    2    0    0  0.69460936223E+02  0.49086411464E+02 -0.54431503957E+02  0.13502907385E+03  0.89642426948E+02 0.  0.
        -11    1    3    3    0    0 -0.29679122904E+01 -0.88541097744E+02  0.82893178668E+01  0.88977790959E+02  0.00000000000E+00 0.  1.
         11    1    3    3    0    0 -0.24239032388E+02  0.15362266941E+02 -0.56097377687E+01  0.29240367551E+02  0.00000000000E+00 0. -1.
        -13    1    4    4    0    0  0.16720126030E+02  0.60138465037E+02 -0.51740167736E+02  0.81075536068E+02  0.00000000000E+00 0. -1.
         13    1    4    4    0    0  0.52740810194E+02 -0.11052053573E+02 -0.26913362215E+01  0.53953537778E+02  0.00000000000E+00 0.  1.
         21    1    1    2  502  501 -0.42253991545E+02  0.24092419340E+02 -0.36058453298E+02  0.60547968796E+02  0.00000000000E+00 0. -1.
<scales pt_clust_5="13000.00000" pt_clust_6="13000.00000" pt_clust_7="13000.00000" pt_clust_8="13000.00000" pt_clust_9="48.63995"></scales>
<clustering>
<clus scale="   48.640">  2  9  1 -1</clus>
<clus scale="   88.730">  5  6 -1 -1</clus>
<clus scale="   89.642">  7  8 -1 -1</clus>
<clus scale="  117.657">  1  5  2 -1</clus>
<clus scale="   48.640">  2  5  1 -1</clus>
</clustering>
</event>
<event>
 9    1  0.1234700E-005  0.9677647E+02  0.7546771E-02  0.1288724E+00
          1   -1    0    0  502    0  0.00000000000E+00  0.00000000000E+00  0.90201293956E+02  0.90201293956E+02  0.00000000000E+00 0. -1.
         -1   -1    0    0    0  501 -0.00000000000E+00 -0.00000000000E+00 -0.24015752219E+03  0.24015752219E+03  0.00000000000E+00 0.  1.
         23    2    1    2    0    0  0.12825000743E+02  0.22953546933E+02 -0.18016953129E+03  0.20443469876E+03  0.92957732834E+02 0.  0.
         23    2    1    2    0    0  0.74858191190E+01 -0.36420592119E+02  0.20281051273E+02  0.99607956289E+02  0.90155015929E+02 0.  0.
        -11    1    3    3    0    0  0.37128143305E+02 -0.98344860780E+00 -0.16115837786E+03  0.16538285568E+03  0.00000000000E+00 0. -1.
         11    1    3    3    0    0 -0.24303142562E+02  0.23936995541E+02 -0.19011153422E+02  0.39051843085E+02  0.00000000000E+00 0.  1.
        -13    1    4    4    0    0 -0.36656188661E+02 -0.10009938754E+02 -0.10805175882E+02  0.39504770178E+02  0.00000000000E+00 0.  1.
         13    1    4    4    0    0  0.44142007780E+02 -0.26410653365E+02  0.31086227155E+02  0.60103186111E+02  0.00000000000E+00 0. -1.
         21    1    1    2  502  501 -0.20310819862E+02  0.13467045186E+02  0.99322517771E+01  0.26316161097E+02  0.00000000000E+00 0. -1.
<scales pt_clust_5="13000.00000" pt_clust_6="13000.00000" pt_clust_7="13000.00000" pt_clust_8="13000.00000" pt_clust_9="24.36987"></scales>
<clustering>
<clus scale="   24.370">  1  9  2 -1</clus>
<clus scale="   90.155">  7  8 -1 -1</clus>
<clus scale="   92.958">  5  6 -1 -1</clus>
<clus scale="   94.088">  1  7  2 -1</clus>
<clus scale="   24.370">  1  5  2 -1</clus>
</clustering>
</event>
<event>
 9    1  0.1234700E-005  0.9977826E+02  0.7546771E-02  0.1283700E+00
          1   -1    0    0  502    0  0.00000000000E+00  0.00000000000E+00  0.52453249459E+03  0.52453249459E+03  0.00000000000E+00 0. -1.
         -1   -1    0    0    0  501 -0.00000000000E+00 -0.00000000000E+00 -0.51559992765E+02  0.51559992765E+02  0.00000000000E+00 0.  1.
         23    2    1    2    0    0  0.29710934224E+02 -0.16429906923E+02  0.70398222988E+02  0.12447272431E+03  0.96875527574E+02 0.  0.
         23    2    1    2    0    0  0.56432636507E+02  0.40047632182E+02  0.20622991749E+03  0.23591250782E+03  0.91298834449E+02 0.  0.
        -13    1    3    3    0    0  0.22282547723E+02  0.39391545763E+02  0.40407473744E+02  0.60670995912E+02  0.00000000000E+00 0. -1.
         13    1    3    3    0    0  0.74283865013E+01 -0.55821452687E+02  0.29990749245E+02  0.63801728396E+02  0.00000000000E+00 0.  1.
        -13    1    4    4    0    0  0.71987268878E+01  0.22522930138E+02  0.50199503381E+00  0.23650709288E+02  0.00000000000E+00 0.  1.
         13    1    4    4    0    0  0.49233909619E+02  0.17524702044E+02  0.20572792245E+03  0.21226179853E+03  0.00000000000E+00 0. -1.
         21    1    1    2  502  501 -0.86143570731E+02 -0.23617725259E+02  0.19634436135E+03  0.21570725523E+03  0.00000000000E+00 0.  1.
<scales pt_clust_5="13000.00000" pt_clust_6="13000.00000" pt_clust_7="13000.00000" pt_clust_8="13000.00000" pt_clust_9="89.32252"></scales>
<clustering>
<clus scale="   89.323">  1  9  2 -1</clus>
<clus scale="   91.299">  7  8 -1 -1</clus>
<clus scale="   94.373">  1  7  2 -1</clus>
<clus scale="   96.876">  5  6 -1 -1</clus>
<clus scale="   89.323">  1  5  2 -1</clus>
</clustering>
</event>
<event>
 9    1  0.1234700E-005  0.1424270E+03  0.7546771E-02  0.1213064E+00
         -1   -1    0    0    0  501 -0.00000000000E+00  0.00000000000E+00  0.10811284497E+03  0.10811284497E+03  0.00000000000E+00 0.  1.
          1   -1    0    0  502    0  0.00000000000E+00 -0.00000000000E+00 -0.33852124774E+03  0.33852124774E+03  0.00000000000E+00 0. -1.
         23    2    1    2    0    0 -0.25816884609E+02 -0.97818246260E+02  0.30762715011E+02  0.14864104060E+03  0.10446479542E+03 0.  0.
         23    2    1    2    0    0  0.20514364057E+02  0.76739686536E+02 -0.21938838060E+03  0.25089507413E+03  0.92234798520E+02 0.  0.
        -11    1    4    4    0    0  0.11456824822E+02  0.17849773038E+02  0.23045300354E+01  0.21335043736E+02  0.00000000000E+00 0.  1.
         11    1    4    4    0    0  0.90575392356E+01  0.58889913498E+02 -0.22169291063E+03  0.22956003039E+03  0.00000000000E+00 0. -1.
        -13    1    3    3    0    0 -0.33894822498E+02 -0.65102932629E+02  0.66841683364E+02  0.99272662219E+02  0.00000000000E+00 0.  1.
         13    1    3    3    0    0  0.80779378889E+01 -0.32715313631E+02 -0.36078968353E+02  0.49368378380E+02  0.00000000000E+00 0. -1.
         21    1    1    2  502  501  0.53025205515E+01  0.21078559724E+02 -0.41782737178E+02  0.47097977985E+02  0.00000000000E+00 0.  1.
<scales pt_clust_5="13000.00000" pt_clust_6="13000.00000" pt_clust_7="13000.00000" pt_clust_8="13000.00000" pt_clust_9="21.73528"></scales>
<clustering>
<clus scale="   21.735">  2  9  1 -1</clus>
<clus scale="   92.235">  5  6 -1 -1</clus>
<clus scale="  104.465">  7  8 -1 -1</clus>
<clus scale="  133.715">  2  5  1 -1</clus>
<clus scale="   21.735">  2  5  1 -1</clus>
</clustering>
</event>
<event>
 9    1  0.1234700E-005  0.2123247E+03  0.7546771E-02  0.1139848E+00
         -1   -1    0    0    0  501 -0.00000000000E+00  0.00000000000E+00  0.29032862076E+03  0.29032862076E+03  0.00000000000E+00 0.  1.
          1   -1    0    0  502    0  0.00000000000E+00 -0.00000000000E+00 -0.21353781099E+03  0.21353781099E+03  0.00000000000E+00 0. -1.
         23    2    1    2    0    0 -0.16511685131E+03  0.11394110696E+03  0.10179360191E+03  0.24293296944E+03  0.91697000021E+02 0.  0.
         23    2    1    2    0    0  0.15923758562E+03 -0.85239647665E+02  0.24455887032E+02  0.20344867758E+03  0.90392852550E+02 0.  0.
        -13    1    4    4    0    0  0.21409242473E+02 -0.50010978050E+02 -0.13822558536E+02  0.56129463860E+02  0.00000000000E+00 0.  1.
         13    1    4    4    0    0  0.13782834314E+03 -0.35228669616E+02  0.38278445568E+02  0.14731921372E+03  0.00000000000E+00 0. -1.
        -13    1    3    3    0    0 -0.53655820749E+02  0.43704899367E+02 -0.10285904929E+02  0.69963313023E+02  0.00000000000E+00 0. -1.
         13    1    3    3    0    0 -0.11146103056E+03  0.70236207596E+02  0.11207950683E+03  0.17296965642E+03  0.00000000000E+00 0.  1.
         21    1    1    2  502  501  0.58792656919E+01 -0.28701459297E+02 -0.49458679167E+02  0.57484784733E+02  0.00000000000E+00 0. -1.
<scales pt_clust_5="13000.00000" pt_clust_6="13000.00000" pt_clust_7="13000.00000" pt_clust_8="13000.00000" pt_clust_9="29.29743"></scales>
<clustering>
<clus scale="   29.297">  2  9  1 -1</clus>
<clus scale="   90.393">  5  6 -1 -1</clus>
<clus scale="   91.697">  7  8 -1 -1</clus>
<clus scale="  211.765">  2  5  1 -1</clus>
<clus scale="   29.297">  2  5  1 -1</clus>
</clustering>
</event>
<event>
 9    1  0.1234700E-005  0.2002622E+03  0.7546771E-02  0.1149569E+00
         -2   -1    0    0    0  501 -0.00000000000E+00  0.00000000000E+00  0.66670869658E+02  0.66670869658E+02  0.00000000000E+00 0.  1.
          2   -1    0    0  502    0  0.00000000000E+00 -0.00000000000E+00 -0.88622567115E+03  0.88622567115E+03  0.00000000000E+00 0. -1.
         23    2    1    2    0    0  0.13078648517E+03 -0.13830536052E+03 -0.17961141821E+03  0.27691234702E+03  0.90480433962E+02 0.  0.
         23    2    1    2    0    0 -0.10896330337E+03  0.10260216570E+03 -0.53754989567E+03  0.56537047091E+03  0.91014686424E+02 0.  0.
        -11    1    3    3    0    0  0.11084304042E+03 -0.14197282516E+03 -0.12661151113E+03  0.22016570452E+03  0.00000000000E+00 0.  1.
         11    1    3    3    0    0  0.19943444746E+02  0.36674646393E+01 -0.52999907078E+02  0.56746642504E+02  0.00000000000E+00 0. -1.
        -11    1    4    4    0    0  0.75299836318E+01  0.38824950276E+02 -0.85278921354E+02  0.94003041679E+02  0.00000000000E+00 0.  1.
         11    1    4    4    0    0 -0.11649328700E+03  0.63777215424E+02 -0.45227097432E+03  0.47136742923E+03  0.00000000000E+00 0. -1.
         21    1    1    2  502  501 -0.21823181797E+02  0.35703194824E+02 -0.10239348761E+03  0.11061372288E+03  0.00000000000E+00 0. -1.
<scales pt_clust_5="13000.00000" pt_clust_6="13000.00000" pt_clust_7="13000.00000" pt_clust_8="13000.00000" pt_clust_9="41.84459"></scales>
<clustering>
<clus scale="   41.845">  2  9  1 -1</clus>
<clus scale="   90.480">  5  6 -1 -1</clus>
<clus scale="   91.015">  7  8 -1 -1</clus>
<clus scale="  200.020">  1  5  2 -1</clus>
<clus scale="   41.845">  2  5  1 -1</clus>
</clustering>
</event>
<event>
 9    1  0.1234700E-005  0.1240569E+03  0.7546771E-02  0.1236939E+00
          1   -1    0    0  502    0  0.00000000000E+00  0.00000000000E+00  0.29847065705E+03  0.29847065705E+03  0.00000000000E+00 0. -1.
         -1   -1    0    0    0  501 -0.00000000000E+00 -0.00000000000E+00 -0.67644958051E+02  0.67644958051E+02  0.00000000000E+00 0.  1.
         23    2    1    2    0    0  0.48470538969E+01  0.88582116392E+02  0.59192755164E+02  0.14074255316E+03  0.91838982629E+02 0.  0.
         23    2    1    2    0    0  0.18405038614E+02 -0.74942729892E+02  0.13563335098E+03  0.18039903215E+03  0.90511030769E+02 0.  0.
        -13    1    3    3    0    0 -0.28503134154E+02  0.47432958413E+02 -0.72062594660E+01  0.55805415292E+02  0.00000000000E+00 0.  1.
         13    1    3    3    0    0  0.33350188051E+02  0.41149157979E+02  0.66399014630E+02  0.84937137869E+02  0.00000000000E+00 0. -1.
        -13    1    4    4    0    0 -0.34618065417E+02 -0.42033026656E+02  0.80132849197E+02  0.96883741173E+02  0.00000000000E+00 0.  1.
         13    1    4    4    0    0  0.53023104031E+02 -0.32909703236E+02  0.55500501784E+02  0.83515290974E+02  0.00000000000E+00 0. -1.
         21    1    1    2  502  501 -0.23252092510E+02 -0.13639386500E+02  0.35999592851E+02  0.44974029791E+02  0.00000000000E+00 0. -1.
<scales pt_clust_5="13000.00000" pt_clust_6="13000.00000" pt_clust_7="13000.00000" pt_clust_8="13000.00000" pt_clust_9="26.95724"></scales>
<clustering>
<clus scale="   26.957">  1  9  2 -1</clus>
<clus scale="   90.511">  7  8 -1 -1</clus>
<clus scale="   91.839">  5  6 -1 -1</clus>
<clus scale="  123.077">  1  7  2 -1</clus>
<clus scale="   26.957">  1  5  2 -1</clus>
</clustering>
</event>
<event>
 9    1  0.1234700E-005  0.9738985E+02  0.7546771E-02  0.1287222E+00
          1   -1    0    0  502    0  0.00000000000E+00  0.00000000000E+00  0.26935098088E+03  0.26935098088E+03  0.00000000000E+00 0. -1.
         -1   -1    0    0    0  501 -0.00000000000E+00 -0.00000000000E+00 -0.47827551163E+02  0.47827551163E+02  0.00000000000E+00 0.  1.
         23    2    1    2    0    0  0.34233738230E+02  0.29087721571E+02  0.60647723084E+02  0.11598837019E+03  0.88074464656E+02 0.  0.
         23    2    1    2    0    0 -0.19697889063E+02 -0.11476372203E+02  0.10375149831E+03  0.13967085014E+03  0.90685495114E+02 0.  0.
        -11    1    3    3    0    0  0.59875683047E+02  0.14790427850E+02  0.60834008567E+02  0.86629272042E+02  0.00000000000E+00 0. -1.
         11    1    3    3    0    0 -0.25641944816E+02  0.14297293721E+02 -0.18628548304E+00  0.29359098147E+02  0.00000000000E+00 0.  1.
        -13    1    4    4    0    0  0.17967418756E+02  0.26233711008E+02  0.69192550337E+02  0.76148832901E+02  0.00000000000E+00 0.  1.
         13    1    4    4    0    0 -0.37665307819E+02 -0.37710083211E+02  0.34558947974E+02  0.63522017237E+02  0.00000000000E+00 0. -1.
         21    1    1    2  502  501 -0.14535849167E+02 -0.17611349368E+02  0.57124208327E+02  0.61519311720E+02  0.00000000000E+00 0. -1.
<scales pt_clust_5="13000.00000" pt_clust_6="13000.00000" pt_clust_7="13000.00000" pt_clust_8="13000.00000" pt_clust_9="22.83529"></scales>
<clustering>
<clus scale="   22.835">  1  9  2 -1</clus>
<clus scale="   88.074">  5  6 -1 -1</clus>
<clus scale="   90.685">  7  8 -1 -1</clus>
<clus scale="   94.963">  2  5  1 -1</clus>
<clus scale="   22.835">  1  5  2 -1</clus>
</clustering>
</event>
<event>
 9    1  0.1234700E-005  0.1112934E+03  0.7546771E-02  0.1260224E+00
          3   -1    0    0  502    0  0.00000000000E+00  0.00000000000E+00  0.12990445064E+03  0.12990445064E+03  0.00000000000E+00 0. -1.
         -3   -1    0    0    0  501 -0.00000000000E+00 -0.00000000000E+00 -0.41763869262E+03  0.41763869262E+03  0.00000000000E+00 0.  1.
         23    2    1    2    0    0 -0.23546155398E+02 -0.52957805859E+02 -0.30881534860E+03  0.32690213423E+03  0.90217155776E+02 0.  0.
         23    2    1    2    0    0 -0.57419531743E+02  0.76237182415E+02  0.20053713744E+02  0.13638884345E+03  0.95344924218E+02 0.  0.
        -11    1    4    4    0    0 -0.47639252196E+02  0.98951129676E+02  0.20169111479E+02  0.11165848589E+03  0.00000000000E+00 0.  1.
         11    1    4    4    0    0 -0.97802795468E+01 -0.22713947261E+02 -0.11539773492E+00  0.24730357556E+02  0.00000000000E+00 0. -1.
        -13    1    3    3    0    0 -0.18027043685E+02  0.92201734883E+01 -0.11879004996E+02  0.23475448086E+02  0.00000000000E+00 0. -1.
         13    1    3    3    0    0 -0.55191117138E+01 -0.62177979347E+02 -0.29693634361E+03  0.30342668615E+03  0.00000000000E+00 0.  1.
         21    1    1    2  502  501  0.80965687142E+02 -0.23279376556E+02  0.10273928813E+01  0.84252165570E+02  0.00000000000E+00 0. -1.
<scales pt_clust_5="13000.00000" pt_clust_6="13000.00000" pt_clust_7="13000.00000" pt_clust_8="13000.00000" pt_clust_9="84.24590"></scales>
<clustering>
<clus scale="   84.246">  1  9  2 -1</clus>
<clus scale="   90.217">  7  8 -1 -1</clus>
<clus scale="   95.345">  5  6 -1 -1</clus>
<clus scale="  106.933">  2  7  1 -1</clus>
<clus scale="   84.246">  1  5  2 -1</clus>
</clustering>
</event>
<event>
 9    1  0.1234700E-005  0.1156158E+03  0.7546771E-02  0.1251215E+00
          1   -1    0    0  502    0  0.00000000000E+00  0.00000000000E+00  0.52666468681E+03  0.52666468681E+03  0.00000000000E+00 0. -1.
         -1   -1    0    0    0  501 -0.00000000000E+00 -0.00000000000E+00 -0.54848552258E+02  0.54848552258E+02  0.00000000000E+00 0.  1.
         23    2    1    2    0    0 -0.18477725220E+02  0.83485933406E+02  0.97525717719E+02  0.16026374893E+03  0.94137538733E+02 0.  0.
         23    2    1    2    0    0  0.38561073022E+02 -0.37195851210E+02  0.11382708124E+03  0.15594351252E+03  0.92148179444E+02 0.  0.
        -11    1    4    4    0    0  0.62773488140E+02 -0.37700245093E+01  0.51976026018E+02  0.81585729014E+02  0.00000000000E+00 0.  1.
         11    1    4    4    0    0 -0.24212415118E+02 -0.33425826701E+02  0.61851055220E+02  0.74357783508E+02  0.00000000000E+00 0. -1.
        -11    1    3    3    0    0  0.16745549617E+02  0.52318129345E+02  0.98987087484E+02  0.11320796606E+03  0.00000000000E+00 0.  1.
         11    1    3    3    0    0 -0.35223274837E+02  0.31167804061E+02 -0.14613697652E+01  0.47055782873E+02  0.00000000000E+00 0. -1.
         21    1    1    2  502  501 -0.20083347802E+02 -0.46290082196E+02  0.26046333559E+03  0.26530597761E+03  0.00000000000E+00 0. -1.
<scales pt_clust_5="13000.00000" pt_clust_6="13000.00000" pt_clust_7="13000.00000" pt_clust_8="13000.00000" pt_clust_9="50.45902"></scales>
<clustering>
<clus scale="   50.459">  1  9  2 -1</clus>
<clus scale="   92.148">  5  6 -1 -1</clus>
<clus scale="   94.138">  7  8 -1 -1</clus>
<clus scale="  114.002">  1  5  2 -1</clus>
<clus scale="   50.459">  1  5  2 -1</clus>
</clustering>
</event>
<event>
 9    1  0.1234700E-005  0.2181686E+03  0.7546771E-02  0.1135293E+00
         -1   -1    0    0    0  501 -0.00000000000E+00  0.00000000000E+00  0.10975619502E+03  0.10975619502E+03  0.00000000000E+00 0.  1.
          1   -1    0    0  502    0  0.00000000000E+00 -0.00000000000E+00 -0.48727842093E+03  0.48727842093E+03  0.00000000000E+00 0. -1.
         23    2    1    2    0    0 -0.12607931575E+03 -0.16812214629E+03 -0.17618305914E+03  0.28887026713E+03  0.90799289497E+02 0.  0.
         23    2    1    2    0    0  0.11126035807E+03  0.15205038693E+03 -0.19307832635E+03  0.28479461539E+03  0.91271821538E+02 0.  0.
        -11    1    3    3    0    0 -0.10997568641E+03 -0.91321358594E+02 -0.14728092319E+03  0.20524598040E+03  0.00000000000E+00 0.  1.
         11    1    3    3    0    0 -0.16103629344E+02 -0.76800787699E+02 -0.28902135950E+02  0.83624286733E+02  0.00000000000E+00 0. -1.
        -13    1    4    4    0    0  0.41686281790E+02  0.90214118080E+01 -0.76524463366E+02  0.87607793340E+02  0.00000000000E+00 0.  1.
         13    1    4    4    0    0  0.69574076277E+02  0.14302897512E+03 -0.11655386299E+03  0.19718682205E+03  0.00000000000E+00 0. -1.
         21    1    1    2  502  501  0.14818957683E+02  0.16071759365E+02 -0.82608404167E+01  0.23369733424E+02  0.00000000000E+00 0. -1.
<scales pt_clust_5="13000.00000" pt_clust_6="13000.00000" pt_clust_7="13000.00000" pt_clust_8="13000.00000" pt_clust_9="21.86099"></scales>
<clustering>
<clus scale="   21.861">  1  9  2 -1</clus>
<clus scale="   90.799">  5  6 -1 -1</clus>
<clus scale="   91.272">  7  8 -1 -1</clus>
<clus scale="  217.971">  1  5  2 -1</clus>
<clus scale="  218.169">  2  5  1 -1</clus>
</clustering>
</event>
<event>
 9    1  0.1234700E-005  0.1105109E+03  0.7546771E-02  0.1262336E+00
         -2   -1    0    0    0  501 -0.00000000000E+00  0.00000000000E+00  0.29772842458E+03  0.29772842458E+03  0.00000000000E+00 0.  1.
          2   -1    0    0  502    0  0.00000000000E+00 -0.00000000000E+00 -0.61020092741E+02  0.61020092741E+02  0.00000000000E+00 0. -1.
         23    2    1    2    0    0 -0.28302327885E+02 -0.58965476398E+02  0.16090560216E+03  0.19519615395E+03  0.89067258516E+02 0.  0.
         23    2    1    2    0    0 -0.79319279694E+01  0.42192347022E+02  0.57299080332E+02  0.11954504346E+03  0.95732560714E+02 0.  0.
        -11    1    4    4    0    0 -0.48894469068E+02  0.69966782624E+01  0.17281755443E+02  0.52328593363E+02  0.00000000000E+00 0.  1.
         11    1    4    4    0    0  0.40962541098E+02  0.35195668759E+02  0.40017324889E+02  0.67216450099E+02  0.00000000000E+00 0. -1.
        -11    1    3    3    0    0  0.13167633787E+02 -0.23485709153E+02  0.12941528318E+03  0.13218653727E+03  0.00000000000E+00 0. -1.
         11    1    3    3    0    0 -0.41469961672E+02 -0.35479767245E+02  0.31490318976E+02  0.63009616679E+02  0.00000000000E+00 0.  1.
         21    1    1    2  502  501  0.36234255854E+02  0.16773129376E+02  0.18503649348E+02  0.44007319909E+02  0.00000000000E+00 0. -1.
<scales pt_clust_5="13000.00000" pt_clust_6="13000.00000" pt_clust_7="13000.00000" pt_clust_8="13000.00000" pt_clust_9="39.92818"></scales>
<clustering>
<clus scale="   39.928">  2  9  1 -1</clus>
<clus scale="   89.067">  7  8 -1 -1</clus>
<clus scale="   95.733">  5  6 -1 -1</clus>
<clus scale="  104.790">  1  7  2 -1</clus>
<clus scale="   39.928">  2  5  1 -1</clus>
</clustering>
</event>
<event>
 9    1  0.1234700E-005  0.2259750E+03  0.7546771E-02  0.1129630E+00
         -1   -1    0    0    0  501 -0.00000000000E+00  0.00000000000E+00  0.11075978764E+03  0.11075978764E+03  0.00000000000E+00 0.  1.
          1   -1    0    0  502    0  0.00000000000E+00 -0.00000000000E+00 -0.67884335524E+03  0.67884335524E+03  0.00000000000E+00 0. -1.
         23    2    1    2    0    0 -0.76482750533E+02 -0.19756306864E+03 -0.11201015975E+03  0.25700581882E+03  0.92870543238E+02 0.  0.
         23    2    1    2    0    0  0.54024702908E+02  0.18904455452E+03 -0.27595164840E+03  0.35088112441E+03  0.91168739683E+02 0.  0.
        -11    1    4    4    0    0 -0.10849890418E+02  0.86212250691E+02 -0.69420255515E+02  0.11121800289E+03  0.00000000000E+00 0. -1.
         11    1    4    4    0    0  0.64874593325E+02  0.10283230383E+03 -0.20653139289E+03  0.23966312152E+03  0.00000000000E+00 0.  1.
        -11    1    3    3    0    0 -0.27720810791E+02 -0.13114272334E+03 -0.23511647992E+02  0.13608693849E+03  0.00000000000E+00 0.  1.
         11    1    3    3    0    0 -0.48761939742E+02 -0.66420345296E+02 -0.88498511760E+02  0.12091888033E+03  0.00000000000E+00 0. -1.
         21    1    1    2  502  501  0.22458047625E+02  0.85185141124E+01 -0.18012175945E+03  0.18171619964E+03  0.00000000000E+00 0. -1.
<scales pt_clust_5="13000.00000" pt_clust_6="13000.00000" pt_clust_7="13000.00000" pt_clust_8="13000.00000" pt_clust_9="24.01935"></scales>
<clustering>
<clus scale="   24.019">  2  9  1 -1</clus>
<clus scale="   91.169">  5  6 -1 -1</clus>
<clus scale="   92.871">  7  8 -1 -1</clus>
<clus scale="  225.281">  2  5  1 -1</clus>
<clus scale="   24.019">  2  5  1 -1</clus>
</clustering>
</event>
<event>
 9    1  0.1234700E-005  0.1002241E+03  0.7546771E-02  0.1280797E+00
         -3   -1    0    0    0  501 -0.00000000000E+00  0.00000000000E+00  0.28104560505E+03  0.28104560505E+03  0.00000000000E+00 0.  1.
          3   -1    0    0  502    0  0.00000000000E+00 -0.00000000000E+00 -0.46215538831E+02  0.46215538831E+02  0.00000000000E+00 0. -1.
         23    2    1    2    0    0  0.38878702977E+02  0.56396755884E+01  0.14322240625E+03  0.17542989674E+03  0.93378967281E+02 0.  0.
         23    2    1    2    0    0 -0.19938889716E+02  0.57432358882E+01  0.83136722203E+02  0.12816599864E+03  0.95311408280E+02 0.  0.
        -11    1    4    4    0    0 -0.22840837020E+02 -0.42989981541E+02  0.43418807336E+02  0.65230630682E+02  0.00000000000E+00 0.  1.
         11    1    4    4    0    0  0.29019473040E+01  0.48733217430E+02  0.39717914867E+02  0.62935367962E+02  0.00000000000E+00 0. -1.
        -13    1    3    3    0    0 -0.24852144816E+02  0.80982871002E+01  0.85511030337E+02  0.89416707976E+02  0.00000000000E+00 0.  1.
         13    1    3    3    0    0  0.63730847792E+02 -0.24586115118E+01  0.57711375917E+02  0.86013188763E+02  0.00000000000E+00 0. -1.
         21    1    1    2  502  501 -0.18939813261E+02 -0.11382911477E+02  0.84709377669E+01  0.23665248503E+02  0.00000000000E+00 0.  1.
<scales pt_clust_5="13000.00000" pt_clust_6="13000.00000" pt_clust_7="13000.00000" pt_clust_8="13000.00000" pt_clust_9="22.09722"></scales>
<clustering>
<clus scale="   22.097">  2  9  1 -1</clus>
<clus scale="   93.379">  7  8 -1 -1</clus>
<clus scale="   95.311">  5  6 -1 -1</clus>
<clus scale="   98.388">  1  7  2 -1</clus>
<clus scale="   22.097">  2  5  1 -1</clus>
</clustering>
</event>
<event>
 9    1  0.1234700E-005  0.9410197E+02  0.7546771E-02  0.1296088E+00
          4   -1    0    0  502    0  0.00000000000E+00  0.00000000000E+00  0.36648170839E+03  0.36648170839E+03  0.00000000000E+00 0. -1.
         -4   -1    0    0    0  501 -0.00000000000E+00 -0.00000000000E+00 -0.16897298402E+03  0.16897298402E+03  0.00000000000E+00 0.  1.
         23    2    1    2    0    0  0.10565603408E+02  0.22438980932E+02 -0.13925619907E+03  0.16911209973E+03  0.92690201516E+02 0.  0.
         23    2    1    2    0    0  0.99358059701E+01 -0.13049202928E+02  0.33134684638E+03  0.34315140304E+03  0.87710608604E+02 0.  0.
        -11    1    4    4    0    0  0.34696915841E+02  0.25629731217E+02  0.14996576251E+03  0.15604643225E+03  0.00000000000E+00 0.  1.
         11    1    4    4    0    0 -0.24761109871E+02 -0.38678934145E+02  0.18138108387E+03  0.18710497079E+03  0.00000000000E+00 0. -1.
        -13    1    3    3    0    0 -0.25340459649E+02  0.39300846977E+02 -0.11088612290E+03  0.12034295875E+03  0.00000000000E+00 0.  1.
         13    1    3    3    0    0  0.35906063057E+02 -0.16861866044E+02 -0.28370076165E+02  0.48769140984E+02  0.00000000000E+00 0. -1.
         21    1    1    2  502  501 -0.20501409378E+02 -0.93897780043E+01  0.54180770563E+01  0.23191189630E+02  0.00000000000E+00 0. -1.
<scales pt_clust_5="13000.00000" pt_clust_6="13000.00000" pt_clust_7="13000.00000" pt_clust_8="13000.00000" pt_clust_9="22.54941"></scales>
<clustering>
<clus scale="   22.549">  2  9  1 -1</clus>
<clus scale="   87.711">  5  6 -1 -1</clus>
<clus scale="   89.201">  1  5  2 -1</clus>
<clus scale="   92.690">  7  8 -1 -1</clus>
<clus scale="   89.201">  1  5  2 -1</clus>
</clustering>
</event>
<event>
 9    1  0.1234700E-005  0.1008397E+03  0.7546771E-02  0.1279080E+00
          2   -1    0    0  502    0  0.00000000000E+00  0.00000000000E+00  0.18956373148E+03  0.18956373148E+03  0.00000000000E+00 0. -1.
         -2   -1    0    0    0  501 -0.00000000000E+00 -0.00000000000E+00 -0.97587234992E+02  0.97587234992E+02  0.00000000000E+00 0.  1.
         23    2    1    2    0    0 -0.25308039969E+02 -0.15668609173E+02 -0.49153457132E+01  0.95543831780E+02  0.90655727713E+02 0.  0.
         23    2    1    2    0    0  0.34408993554E+02  0.63064735888E+02  0.61768381640E+02  0.13191728911E+03  0.91791603355E+02 0.  0.
        -11    1    4    4    0    0 -0.77463691160E+01  0.72829701507E+02  0.40697603752E+02  0.83788224753E+02  0.00000000000E+00 0. -1.
         11    1    4    4    0    0  0.42155362670E+02 -0.97649656190E+01  0.21070777889E+02  0.48129064360E+02  0.00000000000E+00 0.  1.
        -13    1    3    3    0    0 -0.86652684099E+01  0.25788733413E+02 -0.33005765542E+02  0.42772961163E+02  0.00000000000E+00 0.  1.
         13    1    3    3    0    0 -0.16642771559E+02 -0.41457342586E+02  0.28090419829E+02  0.52770870616E+02  0.00000000000E+00 0. -1.
         21    1    1    2  502  501 -0.91009535851E+01 -0.47396126715E+02  0.35123460564E+02  0.59689845583E+02  0.00000000000E+00 0.  1.
<scales pt_clust_5="13000.00000" pt_clust_6="13000.00000" pt_clust_7="13000.00000" pt_clust_8="13000.00000" pt_clust_9="48.26200"></scales>
<clustering>
<clus scale="   48.262">  1  9  2 -1</clus>
<clus scale="   90.656">  7  8 -1 -1</clus>
<clus scale="   91.792">  5  6 -1 -1</clus>
<clus scale="   99.807">  2  7  1 -1</clus>
<clus scale="   48.262">  1  5  2 -1</clus>
</clustering>
</event>
<event>
 9    1  0.1234700E-005  0.9635244E+02  0.7546771E-02  0.1289039E+00
         -1   -1    0    0    0  501 -0.00000000000E+00  0.00000000000E+00  0.97801311098E+02  0.97801311098E+02  0.00000000000E+00 0.  1.
          1   -1    0    0  502    0  0.00000000000E+00 -0.00000000000E+00 -0.17103903802E+03  0.17103903802E+03  0.00000000000E+00 0. -1.
         23    2    1    2    0    0  0.19734994516E+02  0.29935058970E+02  0.36307936571E+02  0.10336660575E+03  0.89893332137E+02 0.  0.
         23    2    1    2    0    0 -0.51188837658E+01 -0.15162936596E+02 -0.57153653173E+02  0.10911090953E+03  0.91556173412E+02 0.  0.
        -11    1    4    4    0    0  0.28729514547E+02  0.26124527448E+02 -0.17423008154E+02  0.42560981586E+02  0.00000000000E+00 0.  1.
         11    1    4    4    0    0 -0.33848398312E+02 -0.41287464043E+02 -0.39730645019E+02  0.66549927942E+02  0.00000000000E+00 0. -1.
        -11    1    3    3    0    0  0.42910716454E+02  0.27274031358E+02  0.53938762670E+02  0.74125518490E+02  0.00000000000E+00 0.  1.
         11    1    3    3    0    0 -0.23175721938E+02  0.26610276124E+01 -0.17630826099E+02  0.29241087262E+02  0.00000000000E+00 0. -1.
         21    1    1    2  502  501 -0.14616110750E+02 -0.14772122375E+02 -0.52392010325E+02  0.56362833843E+02  0.00000000000E+00 0. -1.
<scales pt_clust_5="13000.00000" pt_clust_6="13000.00000" pt_clust_7="13000.00000" pt_clust_8="13000.00000" pt_clust_9="20.78091"></scales>
<clustering>
<clus scale="   20.781">  2  9  1 -1</clus>
<clus scale="   89.893">  7  8 -1 -1</clus>
<clus scale="   91.556">  5  6 -1 -1</clus>
<clus scale="   94.774">  1  7  2 -1</clus>
<clus scale="   20.781">  2  5  1 -1</clus>
</clustering>
</event>
<event>
 9    1  0.1234700E-005  0.1009237E+03  0.7546771E-02  0.1282649E+00
         -1   -1    0    0    0  501 -0.00000000000E+00  0.00000000000E+00  0.12117125031E+03  0.12117125031E+03  0.00000000000E+00 0.  1.
          1   -1    0    0  502    0  0.00000000000E+00 -0.00000000000E+00 -0.51990687426E+03  0.51990687426E+03  0.00000000000E+00 0. -1.
         23    2    1    2    0    0  0.51952092585E+01  0.20300790672E+01 -0.16657346261E+03  0.19283892169E+03  0.97000102343E+02 0.  0.
         23    2    1    2    0    0 -0.78435318151E+01  0.43165770351E+02 -0.32780036870E+03  0.34242641951E+03  0.88757908619E+02 0.  0.
        -11    1    3    3    0    0  0.39435777001E+02 -0.26853841724E+02 -0.56196431126E+02  0.73718031677E+02  0.00000000000E+00 0.  1.
         11    1    3    3    0    0 -0.34240567742E+02  0.28883920792E+02 -0.11037703148E+03  0.11912089002E+03  0.00000000000E+00 0. -1.
        -13    1    4    4    0    0 -0.35766797468E+02  0.33965508271E+01 -0.57563854215E+02  0.67855712145E+02  0.00000000000E+00 0. -1.
         13    1    4    4    0    0  0.27923265652E+02  0.39769219524E+02 -0.27023651448E+03  0.27457070737E+03  0.00000000000E+00 0.  1.
         21    1    1    2  502  501  0.26483225567E+01 -0.45195849418E+02  0.95638207352E+02  0.10581278336E+03  0.00000000000E+00 0.  1.
<scales pt_clust_5="13000.00000" pt_clust_6="13000.00000" pt_clust_7="13000.00000" pt_clust_8="13000.00000" pt_clust_9="45.27337"></scales>
<clustering>
<clus scale="   45.273">  1  9  2 -1</clus>
<clus scale="   88.758">  7  8 -1 -1</clus>
<clus scale="   93.030">  2  7  1 -1</clus>
<clus scale="   97.000">  5  6 -1 -1</clus>
<clus scale="   93.030">  2  5  1 -1</clus>
</clustering>
</event>
<event>
 9    1  0.1234700E-005  0.1318074E+03  0.7546771E-02  0.1233369E+00
         -1   -1    0    0    0  501 -0.00000000000E+00  0.00000000000E+00  0.55109392408E+02  0.55109392408E+02  0.00000000000E+00 0.  1.
          1   -1    0    0  502    0  0.00000000000E+00 -0.00000000000E+00 -0.56234073958E+03  0.56234073958E+03  0.00000000000E+00 0. -1.
         23    2    1    2    0    0 -0.57282044975E+02  0.27160133651E+02 -0.11720539315E+03  0.16101217246E+03  0.90382022320E+02 0.  0.
         23    2    1    2    0    0  0.16768628769E+02  0.77941451712E+02 -0.15872924506E+03  0.19917185661E+03  0.90102155476E+02 0.  0.
        -11    1    4    4    0    0 -0.22682522399E+02  0.48313589734E+02 -0.29808843568E+02  0.61133190087E+02  0.00000000000E+00 0.  1.
         11    1    4    4    0    0  0.39451151168E+02  0.29627861978E+02 -0.12892040150E+03  0.13803866652E+03  0.00000000000E+00 0. -1.
        -13    1    3    3    0    0 -0.82118537584E+02  0.21718682582E+02 -0.91787906564E+02  0.12506068599E+03  0.00000000000E+00 0. -1.
         13    1    3    3    0    0  0.24836492610E+02  0.54414510693E+01 -0.25417486590E+02  0.35951486471E+02  0.00000000000E+00 0.  1.
         21    1    1    2  502  501  0.40513416206E+02 -0.10510158536E+03 -0.23129670896E+03  0.25726610292E+03  0.00000000000E+00 0.  1.
<scales pt_clust_5="13000.00000" pt_clust_6="13000.00000" pt_clust_7="13000.00000" pt_clust_8="13000.00000" pt_clust_9="96.20181"></scales>
<clustering>
<clus scale="   90.102">  5  6 -1 -1</clus>
<clus scale="   90.382">  7  8 -1 -1</clus>
<clus scale="  110.398">  1  7  2 -1</clus>
<clus scale="   96.202">  2  9  1 -1</clus>
<clus scale="   96.202">  2  5  1 -1</clus>
</clustering>
</event>
<event>
 9    1  0.1234700E-005  0.1365616E+03  0.7546771E-02  0.1218530E+00
         -4   -1    0    0    0  501 -0.00000000000E+00  0.00000000000E+00  0.41473508110E+03  0.41473508110E+03  0.00000000000E+00 0.  1.
          4   -1    0    0  502    0  0.00000000000E+00 -0.00000000000E+00 -0.15672362886E+03  0.15672362886E+03  0.00000000000E+00 0. -1.
         23    2    1    2    0    0 -0.10258498725E+03 -0.54996009941E+02  0.27997061590E+03  0.31566534377E+03  0.87822678028E+02 0.  0.
         23    2    1    2    0    0  0.77281595840E+02  0.19706726314E+02  0.80365637182E+02  0.14463600016E+03  0.90000759910E+02 0.  0.
        -13    1    4    4    0    0  0.68326517309E+02 -0.21361581877E+01  0.94866739743E+02  0.11693063948E+03  0.00000000000E+00 0.  1.
         13    1    4    4    0    0  0.89550785311E+01  0.21842884502E+02 -0.14501102562E+02  0.27705360679E+02  0.00000000000E+00 0. -1.
        -13    1    3    3    0    0 -0.16633407446E+02 -0.46782302588E+02  0.16223368782E+03  0.16966149693E+03  0.00000000000E+00 0.  1.
         13    1    3    3    0    0 -0.85951579800E+02 -0.82137073538E+01  0.11773692808E+03  0.14600384684E+03  0.00000000000E+00 0. -1.
         21    1    1    2  502  501  0.25303391406E+02  0.35289283628E+02 -0.10232480084E+03  0.11115736603E+03  0.00000000000E+00 0. -1.
<scales pt_clust_5="13000.00000" pt_clust_6="13000.00000" pt_clust_7="13000.00000" pt_clust_8="13000.00000" pt_clust_9="43.42344"></scales>
<clustering>
<clus scale="   43.423">  2  9  1 -1</clus>
<clus scale="   87.823">  7  8 -1 -1</clus>
<clus scale="   90.001">  5  6 -1 -1</clus>
<clus scale="  135.136">  1  7  2 -1</clus>
<clus scale="   43.423">  2  5  1 -1</clus>
</clustering>
</event>
<event>
 9    1  0.1234700E-005  0.1366440E+03  0.7546771E-02  0.1229306E+00
          1   -1    0    0  502    0  0.00000000000E+00  0.00000000000E+00  0.14047392370E+03  0.14047392370E+03  0.00000000000E+00 0. -1.
         -1   -1    0    0    0  501 -0.00000000000E+00 -0.00000000000E+00 -0.68324517473E+03  0.68324517473E+03  0.00000000000E+00 0.  1.
         23    2    1    2    0    0  0.97269685055E+02  0.31971196260E+02 -0.55681493305E+03  0.57345840980E+03  0.91258583572E+02 0.  0.
         23    2    1    2    0    0  0.79837906976E+01 -0.56609640424E+02 -0.56032007550E+02  0.12143542186E+03  0.91315844787E+02 0.  0.
        -11    1    4    4    0    0  0.38384425816E+02 -0.23506516235E+02 -0.61443999704E+02  0.76166170642E+02  0.00000000000E+00 0.  1.
         11    1    4    4    0    0 -0.30400635118E+02 -0.33103124189E+02  0.54119921541E+01  0.45269251217E+02  0.00000000000E+00 0. -1.
        -11    1    3    3    0    0  0.28582413343E+01 -0.25959402097E+02 -0.92723063733E+02  0.96330818790E+02  0.00000000000E+00 0.  1.
         11    1    3    3    0    0  0.94411443721E+02  0.57930598356E+02 -0.46409186932E+03  0.47712759101E+03  0.00000000000E+00 0. -1.
         21    1    1    2  502  501 -0.10525347575E+03  0.24638444164E+02  0.70075689569E+02  0.12882526677E+03  0.00000000000E+00 0. -1.
<scales pt_clust_5="13000.00000" pt_clust_6="13000.00000" pt_clust_7="13000.00000" pt_clust_8="13000.00000" pt_clust_9="101.70281"></scales>
<clustering>
<clus scale="   91.259">  7  8 -1 -1</clus>
<clus scale="   91.316">  5  6 -1 -1</clus>
<clus scale="  107.736">  1  5  2 -1</clus>
<clus scale="  101.703">  1  9  2 -1</clus>
<clus scale="  107.736">  1  5  2 -1</clus>
</clustering>
</event>
<event>
 9    1  0.1234700E-005  0.1895557E+03  0.7546771E-02  0.1159107E+00
          1   -1    0    0  502    0  0.00000000000E+00  0.00000000000E+00  0.99720884195E+03  0.99720884195E+03  0.00000000000E+00 0. -1.
         -1   -1    0    0    0  501 -0.00000000000E+00 -0.00000000000E+00 -0.45394553997E+02  0.45394553997E+02  0.00000000000E+00 0.  1.
         23    2    1    2    0    0 -0.11022028062E+02 -0.16390728775E+03  0.27631183512E+03  0.33358393379E+03  0.89123097891E+02 0.  0.
         23    2    1    2    0    0 -0.92783777724E+01  0.17041795798E+03  0.62179690475E+03  0.65123727459E+03  0.91379583996E+02 0.  0.
        -11    1    3    3    0    0  0.21827344017E+02 -0.10833367948E+03  0.11337363694E+03  0.15832308931E+03  0.00000000000E+00 0.  1.
         11    1    3    3    0    0 -0.32849372079E+02 -0.55573608269E+02  0.16293819818E+03  0.17526084448E+03  0.00000000000E+00 0. -1.
        -11    1    4    4    0    0 -0.44465072178E+02  0.13591620999E+03  0.49348037054E+03  0.51378325673E+03  0.00000000000E+00 0. -1.
         11    1    4    4    0    0  0.35186694406E+02  0.34501747993E+02  0.12831653421E+03  0.13745401787E+03  0.00000000000E+00 0.  1.
         21    1    1    2  502  501  0.20300405834E+02 -0.65106702354E+01  0.53705548084E+02  0.57782187558E+02  0.00000000000E+00 0.  1.
<scales pt_clust_5="13000.00000" pt_clust_6="13000.00000" pt_clust_7="13000.00000" pt_clust_8="13000.00000" pt_clust_9="21.31890"></scales>
<clustering>
<clus scale="   21.319">  1  9  2 -1</clus>
<clus scale="   89.123">  5  6 -1 -1</clus>
<clus scale="   91.380">  7  8 -1 -1</clus>
<clus scale="  188.478">  2  5  1 -1</clus>
<clus scale="   21.319">  1  5  2 -1</clus>
</clustering>
</event>
<event>
 9    1  0.1234700E-005  0.1874250E+03  0.7546771E-02  0.1184403E+00
          1   -1    0    0  502    0  0.00000000000E+00  0.00000000000E+00  0.29129624242E+03  0.29129624242E+03  0.00000000000E+00 0. -1.
         -1   -1    0    0    0  501 -0.00000000000E+00 -0.00000000000E+00 -0.25754933009E+03  0.25754933009E+03  0.00000000000E+00 0.  1.
         23    2    1    2    0    0  0.61767853843E+02  0.45293190055E+01 -0.11574466354E+03  0.15933803691E+03  0.90310577278E+02 0.  0.
         23    2    1    2    0    0  0.82548547985E+02  0.11719382054E+03  0.76945048622E+02  0.18725337581E+03  0.92707237573E+02 0.  0.
        -11    1    4    4    0    0  0.55879679652E+02  0.12829151863E+03  0.73787348274E+02  0.15819552812E+03  0.00000000000E+00 0.  1.
         11    1    4    4    0    0  0.26668868333E+02 -0.11097698094E+02  0.31577003486E+01  0.29057847694E+02  0.00000000000E+00 0. -1.
        -13    1    3    3    0    0 -0.18596007340E+02  0.11164018521E+02 -0.48507788870E+01  0.22225590078E+02  0.00000000000E+00 0. -1.
         13    1    3    3    0    0  0.80363861183E+02 -0.66346995157E+01 -0.11089388465E+03  0.13711244683E+03  0.00000000000E+00 0.  1.
         21    1    1    2  502  501 -0.14431640183E+03 -0.12172313954E+03  0.72546527244E+02  0.20225415979E+03  0.00000000000E+00 0. -1.
<scales pt_clust_5="13000.00000" pt_clust_6="13000.00000" pt_clust_7="13000.00000" pt_clust_8="13000.00000" pt_clust_9="162.89103"></scales>
<clustering>
<clus scale="   90.311">  7  8 -1 -1</clus>
<clus scale="   92.707">  5  6 -1 -1</clus>
<clus scale="  109.507">  2  7  1 -1</clus>
<clus scale="  162.891">  2  9  1 -1</clus>
<clus scale="  187.425">  1  5  2 -1</clus>
</clustering>
</event>
<event>
 9    1  0.1234700E-005  0.1367698E+03  0.7546771E-02  0.1222805E+00
          1   -1    0    0  502    0  0.00000000000E+00  0.00000000000E+00  0.54968112636E+03  0.54968112636E+03  0.00000000000E+00 0. -1.
         -1   -1    0    0    0  501 -0.00000000000E+00 -0.00000000000E+00 -0.67113597705E+02  0.67113597705E+02  0.00000000000E+00 0.  1.
         23    2    1    2    0    0  0.64815259945E+02 -0.79991348623E+01  0.20821976204E+02  0.11444825157E+03  0.91650660196E+02 0.  0.
         23    2    1    2    0    0 -0.71303913309E+02  0.51205130104E+02  0.41628250074E+03  0.43929292606E+03  0.10945748516E+03 0.  0.
        -11    1    4    4    0    0 -0.99152305251E+02  0.44140374544E+02  0.28650920595E+03  0.30637734478E+03  0.00000000000E+00 0.  1.
         11    1    4    4    0    0  0.27848391942E+02  0.70647555601E+01  0.12977329479E+03  0.13291558128E+03  0.00000000000E+00 0. -1.
        -11    1    3    3    0    0  0.79564664462E+02 -0.28908486145E+02  0.25553769887E+02  0.88426418889E+02  0.00000000000E+00 0. -1.
         11    1    3    3    0    0 -0.14749404517E+02  0.20909351282E+02 -0.47317936837E+01  0.26021832682E+02  0.00000000000E+00 0.  1.
         21    1    1    2  502  501  0.64886533634E+01 -0.43205995242E+02  0.45463051707E+02  0.63053546433E+02  0.00000000000E+00 0.  1.
<scales pt_clust_5="13000.00000" pt_clust_6="13000.00000" pt_clust_7="13000.00000" pt_clust_8="13000.00000" pt_clust_9="43.69051"></scales>
<clustering>
<clus scale="   43.691">  2  9  1 -1</clus>
<clus scale="   91.651">  7  8 -1 -1</clus>
<clus scale="  109.457">  5  6 -1 -1</clus>
<clus scale="  122.983">  2  7  1 -1</clus>
<clus scale="  136.770">  1  5  2 -1</clus>
</clustering>
</event>
<event>
 9    1  0.1234700E-005  0.5119828E+03  0.7546771E-02  0.1010707E+00
         -1   -1    0    0    0  501 -0.00000000000E+00  0.00000000000E+00  0.75281218192E+03  0.75281218192E+03  0.00000000000E+00 0.  1.
          1   -1    0    0  502    0  0.00000000000E+00 -0.00000000000E+00 -0.40124619872E+03  0.40124619872E+03  0.00000000000E+00 0. -1.
         23    2    1    2    0    0 -0.41237689064E+03  0.33950195549E+03  0.24809777450E+03  0.59612145653E+03  0.92152089039E+02 0.  0.
         23    2    1    2    0    0  0.37770657616E+03 -0.27846801373E+03  0.90556086391E+02  0.48656539158E+03  0.91316937899E+02 0.  0.
        -13    1    4    4    0    0  0.22080713164E+03 -0.20920380398E+03  0.34477225544E+02  0.30612203459E+03  0.00000000000E+00 0.  1.
         13    1    4    4    0    0  0.15689944453E+03 -0.69264209752E+02  0.56078860847E+02  0.18044335698E+03  0.00000000000E+00 0. -1.
        -13    1    3    3    0    0 -0.40066298213E+03  0.32074185082E+03  0.25481520508E+03  0.57300693613E+03  0.00000000000E+00 0.  1.
         13    1    3    3    0    0 -0.11713908509E+02  0.18760104669E+02 -0.67174305805E+01  0.23114520400E+02  0.00000000000E+00 0. -1.
         21    1    1    2  502  501  0.34670314476E+02 -0.61033941752E+02  0.12912122312E+02  0.71371532520E+02  0.00000000000E+00 0. -1.
<scales pt_clust_5="13000.00000" pt_clust_6="13000.00000" pt_clust_7="13000.00000" pt_clust_8="13000.00000" pt_clust_9="70.19382"></scales>
<clustering>
<clus scale="   70.194">  2  9  1 -1</clus>
<clus scale="   91.317">  5  6 -1 -1</clus>
<clus scale="   92.152">  7  8 -1 -1</clus>
<clus scale="  511.833">  2  5  1 -1</clus>
<clus scale="   70.194">  2  5  1 -1</clus>
</clustering>
</event>
<event>
 9    1  0.1234700E-005  0.1023176E+03  0.7546771E-02  0.1277603E+00
          3   -1    0    0  502    0  0.00000000000E+00  0.00000000000E+00  0.42886437674E+03  0.42886437674E+03  0.00000000000E+00 0. -1.
         -3   -1    0    0    0  501 -0.00000000000E+00 -0.00000000000E+00 -0.31481355395E+02  0.31481355395E+02  0.00000000000E+00 0.  1.
         23    2    1    2    0    0  0.24423047458E+02  0.35607454728E+02  0.13940085513E+03  0.17234367388E+03  0.91680790989E+02 0.  0.
         23    2    1    2    0    0 -0.43892697570E+02 -0.25299563225E+02  0.17313689049E+03  0.20034339801E+03  0.87146184534E+02 0.  0.
        -11    1    4    4    0    0 -0.19444767593E+02 -0.54551017542E+02  0.13260690761E+03  0.14470143209E+03  0.00000000000E+00 0.  1.
         11    1    4    4    0    0 -0.24447929977E+02  0.29251454317E+02  0.40529982876E+02  0.55641965922E+02  0.00000000000E+00 0. -1.
        -11    1    3    3    0    0  0.13555910943E+02 -0.30968995400E+02  0.49725681871E+02  0.60128901829E+02  0.00000000000E+00 0.  1.
         11    1    3    3    0    0  0.10867136514E+02  0.66576450128E+02  0.89675173257E+02  0.11221477205E+03  0.00000000000E+00 0. -1.
         21    1    1    2  502  501  0.19469650112E+02 -0.10307891503E+02  0.84845275733E+02  0.87658660251E+02  0.00000000000E+00 0. -1.
<scales pt_clust_5="13000.00000" pt_clust_6="13000.00000" pt_clust_7="13000.00000" pt_clust_8="13000.00000" pt_clust_9="22.02998"></scales>
<clustering>
<clus scale="   22.030">  1  9  2 -1</clus>
<clus scale="   87.146">  5  6 -1 -1</clus>
<clus scale="   91.681">  7  8 -1 -1</clus>
<clus scale="   98.275">  1  5  2 -1</clus>
<clus scale="   22.030">  1  5  2 -1</clus>
</clustering>
</event>
<event>
 9    1  0.1234700E-005  0.9593944E+02  0.7546771E-02  0.1289652E+00
          1   -1    0    0  502    0  0.00000000000E+00  0.00000000000E+00  0.39491988185E+03  0.39491988185E+03  0.00000000000E+00 0. -1.
         -1   -1    0    0    0  501 -0.00000000000E+00 -0.00000000000E+00 -0.47237010958E+02  0.47237010958E+02  0.00000000000E+00 0.  1.
         23    2    1    2    0    0 -0.51235840483E+02  0.15192734210E+02  0.67920299619E+02  0.12608406764E+03  0.91804653961E+02 0.  0.
         23    2    1    2    0    0  0.11573369660E+02 -0.19842513796E+02  0.24792544354E+03  0.26500096653E+03  0.90723858337E+02 0.  0.
        -11    1    3    3    0    0 -0.42691715485E+02 -0.27514233403E+02  0.64920707598E+02  0.82427628170E+02  0.00000000000E+00 0.  1.
         11    1    3    3    0    0 -0.85441249978E+01  0.42706967613E+02  0.29995920214E+01  0.43656439467E+02  0.00000000000E+00 0. -1.
        -13    1    4    4    0    0 -0.29605546314E+02 -0.36990481859E+02  0.15196487849E+03  0.15917948491E+03  0.00000000000E+00 0. -1.
         13    1    4    4    0    0  0.41178915974E+02  0.17147968063E+02  0.95960565047E+02  0.10582148163E+03  0.00000000000E+00 0.  1.
         21    1    1    2  502  501  0.39662470823E+02  0.46497795861E+01  0.31837127732E+02  0.51071858633E+02  0.00000000000E+00 0.  1.
<scales pt_clust_5="13000.00000" pt_clust_6="13000.00000" pt_clust_7="13000.00000" pt_clust_8="13000.00000" pt_clust_9="39.93410"></scales>
<clustering>
<clus scale="   39.934">  2  9  1 -1</clus>
<clus scale="   90.724">  7  8 -1 -1</clus>
<clus scale="   91.805">  5  6 -1 -1</clus>
<clus scale="   94.906">  1  7  2 -1</clus>
<clus scale="   94.906">  1  5  2 -1</clus>
</clustering>
</event>
<event>
 9    1  0.1234700E-005  0.1012632E+03  0.7546771E-02  0.1278405E+00
          3   -1    0    0  502    0  0.00000000000E+00  0.00000000000E+00  0.97129498993E+02  0.97129498993E+02  0.00000000000E+00 0. -1.
         -3   -1    0    0    0  501 -0.00000000000E+00 -0.00000000000E+00 -0.21254471119E+03  0.21254471119E+03  0.00000000000E+00 0.  1.
         23    2    1    2    0    0  0.40790705882E+02 -0.40858278692E+02 -0.94763210499E+02  0.14445590613E+03  0.92488713522E+02 0.  0.
         23    2    1    2    0    0  0.15741910672E+02  0.41376854525E+02  0.87271944410E+01  0.10150533189E+03  0.90924785608E+02 0.  0.
        -11    1    3    3    0    0 -0.19622096763E+02 -0.44363891517E+02 -0.41442562547E+02  0.63801783222E+02  0.00000000000E+00 0.  1.
         11    1    3    3    0    0  0.60412802645E+02  0.35056128242E+01 -0.53320647952E+02  0.80654122912E+02  0.00000000000E+00 0. -1.
        -11    1    4    4    0    0  0.27037466196E+02  0.15114575800E+02 -0.36579752047E+02  0.47932799206E+02  0.00000000000E+00 0.  1.
         11    1    4    4    0    0 -0.11295555524E+02  0.26262278724E+02  0.45306946488E+02  0.53572532686E+02  0.00000000000E+00 0. -1.
         21    1    1    2  502  501 -0.56532616554E+02 -0.51857583229E+00 -0.29379196142E+02  0.63712972158E+02  0.00000000000E+00 0.  1.
<scales pt_clust_5="13000.00000" pt_clust_6="13000.00000" pt_clust_7="13000.00000" pt_clust_8="13000.00000" pt_clust_9="56.53499"></scales>
<clustering>
<clus scale="   56.535">  2  9  1 -1</clus>
<clus scale="   90.925">  7  8 -1 -1</clus>
<clus scale="   92.489">  5  6 -1 -1</clus>
<clus scale="   99.837">  1  7  2 -1</clus>
<clus scale="   99.837">  1  5  2 -1</clus>
</clustering>
</event>
<event>
 9    1  0.1234700E-005  0.1276251E+03  0.7546771E-02  0.1232157E+00
         -1   -1    0    0    0  501 -0.00000000000E+00  0.00000000000E+00  0.22142817385E+02  0.22142817385E+02  0.00000000000E+00 0.  1.
          1   -1    0    0  502    0  0.00000000000E+00 -0.00000000000E+00 -0.10671875198E+04  0.10671875198E+04  0.00000000000E+00 0. -1.
         23    2    1    2    0    0 -0.59856077357E+02 -0.39598336552E+02 -0.34370155475E+03  0.36335771177E+03  0.93526946448E+02 0.  0.
         23    2    1    2    0    0  0.77307358337E+02  0.72656510604E+02 -0.42430038928E+03  0.44641926726E+03  0.89464773258E+02 0.  0.
        -11    1    3    3    0    0 -0.60825434950E+02  0.93929613158E+01 -0.25175735261E+03  0.25917122882E+03  0.00000000000E+00 0.  1.
         11    1    3    3    0    0  0.96935759334E+00 -0.48991297868E+02 -0.91944202140E+02  0.10418648294E+03  0.00000000000E+00 0. -1.
        -11    1    4    4    0    0  0.51438268584E+02 -0.26946885688E+01 -0.24280284517E+03  0.24820632233E+03  0.00000000000E+00 0.  1.
         11    1    4    4    0    0  0.25869089753E+02  0.75351199173E+02 -0.18149754411E+03  0.19821294493E+03  0.00000000000E+00 0. -1.
         21    1    1    2  502  501 -0.17451280980E+02 -0.33058174052E+02 -0.27704275843E+03  0.27955335819E+03  0.00000000000E+00 0.  1.
<scales pt_clust_5="13000.00000" pt_clust_6="13000.00000" pt_clust_7="13000.00000" pt_clust_8="13000.00000" pt_clust_9="37.38168"></scales>
<clustering>
<clus scale="   37.382">  2  9  1 -1</clus>
<clus scale="   89.465">  7  8 -1 -1</clus>
<clus scale="   93.527">  5  6 -1 -1</clus>
<clus scale="  124.679">  2  7  1 -1</clus>
<clus scale="   37.382">  2  5  1 -1</clus>
</clustering>
</event>
<event>
 9    1  0.1234700E-005  0.1283105E+03  0.7546771E-02  0.1230425E+00
          1   -1    0    0  502    0  0.00000000000E+00  0.00000000000E+00  0.16557123427E+03  0.16557123427E+03  0.00000000000E+00 0. -1.
         -1   -1    0    0    0  501 -0.00000000000E+00 -0.00000000000E+00 -0.13035015957E+03  0.13035015957E+03  0.00000000000E+00 0.  1.
         23    2    1    2    0    0 -0.63576215677E+02 -0.43763237703E+02  0.11111449398E+02  0.11873328614E+03  0.89537549419E+02 0.  0.
         23    2    1    2    0    0  0.76630405114E+02  0.71797117985E+02  0.18475619087E+01  0.13908417389E+03  0.91180857657E+02 0.  0.
        -11    1    4    4    0    0  0.32002199097E+02  0.32443610866E+02 -0.44475474927E+02  0.63677284043E+02  0.00000000000E+00 0.  1.
         11    1    4    4    0    0  0.44628206017E+02  0.39353507120E+02  0.46323036836E+02  0.75406889848E+02  0.00000000000E+00 0. -1.
        -11    1    3    3    0    0  0.15940410380E+02 -0.30255958497E+02  0.16353934607E+02  0.37907398814E+02  0.00000000000E+00 0. -1.
         11    1    3    3    0    0 -0.79516626057E+02 -0.13507279205E+02 -0.52424852093E+01  0.80825887327E+02  0.00000000000E+00 0.  1.
         21    1    1    2  502  501 -0.13054189438E+02 -0.28033880283E+02  0.22262063392E+02  0.38103933813E+02  0.00000000000E+00 0. -1.
<scales pt_clust_5="13000.00000" pt_clust_6="13000.00000" pt_clust_7="13000.00000" pt_clust_8="13000.00000" pt_clust_9="30.92427"></scales>
<clustering>
<clus scale="   30.924">  1  9  2 -1</clus>
<clus scale="   89.538">  7  8 -1 -1</clus>
<clus scale="   91.181">  5  6 -1 -1</clus>
<clus scale="  127.148">  2  7  1 -1</clus>
<clus scale="   30.924">  1  5  2 -1</clus>
</clustering>
</event>
<event>
 9    1  0.1234700E-005  0.9456319E+02  0.7546771E-02  0.1292947E+00
          1   -1    0    0  502    0  0.00000000000E+00  0.00000000000E+00  0.19380673251E+03  0.19380673251E+03  0.00000000000E+00 0. -1.
         -1   -1    0    0    0  501 -0.00000000000E+00 -0.00000000000E+00 -0.12327698311E+03  0.12327698311E+03  0.00000000000E+00 0.  1.
         23    2    1    2    0    0  0.19207514358E+02  0.65935901844E+01 -0.69722581594E+02  0.11710743801E+03  0.91872246157E+02 0.  0.
         23    2    1    2    0    0 -0.13929753501E+02 -0.46072513228E+02  0.10620676443E+03  0.14757836994E+03  0.90458741743E+02 0.  0.
        -11    1    4    4    0    0 -0.18708258300E+02  0.10950485226E+02  0.83075455475E+02  0.85857110118E+02  0.00000000000E+00 0.  1.
         11    1    4    4    0    0  0.47785047990E+01 -0.57022998454E+02  0.23131308952E+02  0.61721259827E+02  0.00000000000E+00 0. -1.
        -13    1    3    3    0    0  0.11968707381E+02 -0.22747619176E+02 -0.80900293777E+02  0.84885579857E+02  0.00000000000E+00 0.  1.
         13    1    3    3    0    0  0.72388069770E+01  0.29341209360E+02  0.11177712183E+02  0.32221858153E+02  0.00000000000E+00 0. -1.
         21    1    1    2  502  501 -0.52777608568E+01  0.39478923044E+02  0.34045566565E+02  0.52397907660E+02  0.00000000000E+00 0.  1.
<scales pt_clust_5="13000.00000" pt_clust_6="13000.00000" pt_clust_7="13000.00000" pt_clust_8="13000.00000" pt_clust_9="39.83014"></scales>
<clustering>
<clus scale="   39.830">  1  9  2 -1</clus>
<clus scale="   90.459">  5  6 -1 -1</clus>
<clus scale="   91.872">  7  8 -1 -1</clus>
<clus scale="   93.191">  1  5  2 -1</clus>
<clus scale="   39.830">  1  5  2 -1</clus>
</clustering>
</event>
<event>
 9    1  0.1234700E-005  0.1274812E+03  0.7546771E-02  0.1231289E+00
         -1   -1    0    0    0  501 -0.00000000000E+00  0.00000000000E+00  0.25975500352E+03  0.25975500352E+03  0.00000000000E+00 0.  1.
          1   -1    0    0  502    0  0.00000000000E+00 -0.00000000000E+00 -0.25156832689E+03  0.25156832689E+03  0.00000000000E+00 0. -1.
         23    2    1    2    0    0  0.19878748091E+01  0.12368442219E+03  0.16164644669E+03  0.22319798777E+03  0.91574997030E+02 0.  0.
         23    2    1    2    0    0  0.48234790295E+02 -0.72165085651E+02 -0.17241169270E+03  0.21372283260E+03  0.91745641935E+02 0.  0.
        -13    1    3    3    0    0  0.35829593344E+02  0.73343408017E+02  0.13314987534E+03  0.15617907850E+03  0.00000000000E+00 0.  1.
         13    1    3    3    0    0 -0.33841718535E+02  0.50341014172E+02  0.28496571345E+02  0.67018909270E+02  0.00000000000E+00 0. -1.
        -13    1    4    4    0    0  0.69092205637E+02 -0.30336888645E+02 -0.13147350607E+03  0.15158938779E+03  0.00000000000E+00 0.  1.
         13    1    4    4    0    0 -0.20857415343E+02 -0.41828197006E+02 -0.40938186630E+02  0.62133444811E+02  0.00000000000E+00 0. -1.
         21    1    1    2  502  501 -0.50222665104E+02 -0.51519336538E+02  0.18951922653E+02  0.74402510036E+02  0.00000000000E+00 0.  1.
<scales pt_clust_5="13000.00000" pt_clust_6="13000.00000" pt_clust_7="13000.00000" pt_clust_8="13000.00000" pt_clust_9="71.94830"></scales>
<clustering>
<clus scale="   71.948">  1  9  2 -1</clus>
<clus scale="   91.575">  5  6 -1 -1</clus>
<clus scale="   91.746">  7  8 -1 -1</clus>
<clus scale="  127.358">  1  5  2 -1</clus>
<clus scale="  127.481">  2  5  1 -1</clus>
</clustering>
</event>
<event>
 9    1  0.1234700E-005  0.9558965E+02  0.7546771E-02  0.1290582E+00
         -4   -1    0    0    0  501 -0.00000000000E+00  0.00000000000E+00  0.19197484922E+03  0.19197484922E+03  0.00000000000E+00 0.  1.
          4   -1    0    0  502    0  0.00000000000E+00 -0.00000000000E+00 -0.10024578134E+03  0.10024578134E+03  0.00000000000E+00 0. -1.
         23    2    1    2    0    0  0.82377679495E+00  0.15949313876E+02  0.11138676636E+03  0.14482066293E+03  0.91164430943E+02 0.  0.
         23    2    1    2    0    0 -0.18480161643E+02 -0.50370060807E+02 -0.92298038130E+01  0.10733406277E+03  0.92502715374E+02 0.  0.
        -11    1    4    4    0    0 -0.53013649489E+02 -0.44245876258E+02 -0.17636185236E+02  0.71268363441E+02  0.00000000000E+00 0. -1.
         11    1    4    4    0    0  0.34533487846E+02 -0.61241845494E+01  0.84063814228E+01  0.36065699325E+02  0.00000000000E+00 0.  1.
        -13    1    3    3    0    0  0.52866459232E+01 -0.27289305055E+02  0.93966464653E+02  0.97991587776E+02  0.00000000000E+00 0.  1.
         13    1    3    3    0    0 -0.44628691282E+01  0.43238618931E+02  0.17420301706E+02  0.46829075150E+02  0.00000000000E+00 0. -1.
         21    1    1    2  502  501  0.17656384848E+02  0.34420746932E+02 -0.10427894671E+02  0.40065904863E+02  0.00000000000E+00 0. -1.
<scales pt_clust_5="13000.00000" pt_clust_6="13000.00000" pt_clust_7="13000.00000" pt_clust_8="13000.00000" pt_clust_9="38.68508"></scales>
<clustering>
<clus scale="   38.685">  2  9  1 -1</clus>
<clus scale="   91.164">  7  8 -1 -1</clus>
<clus scale="   92.503">  5  6 -1 -1</clus>
<clus scale="   94.295">  1  7  2 -1</clus>
<clus scale="   38.685">  2  5  1 -1</clus>
</clustering>
</event>
<event>
 9    1  0.1234700E-005  0.1645675E+03  0.7546771E-02  0.1184742E+00
         -1   -1    0    0    0  501 -0.00000000000E+00  0.00000000000E+00  0.99796587529E+02  0.99796587529E+02  0.00000000000E+00 0.  1.
          1   -1    0    0  502    0  0.00000000000E+00 -0.00000000000E+00 -0.62643891938E+03  0.62643891938E+03  0.00000000000E+00 0. -1.
         23    2    1    2    0    0  0.45774070301E+02  0.12179724770E+03 -0.81016320293E+02  0.18164741830E+03  0.97479768983E+02 0.  0.
         23    2    1    2    0    0 -0.11780751439E+03 -0.89616632021E+02 -0.12358352408E+03  0.21302244981E+03  0.90531351015E+02 0.  0.
        -13    1    3    3    0    0  0.38795352681E+02  0.46678957833E+02  0.12012582571E+02  0.61873311161E+02  0.00000000000E+00 0.  1.
         13    1    3    3    0    0  0.69787176208E+01  0.75118289871E+02 -0.93028902864E+02  0.11977410714E+03  0.00000000000E+00 0. -1.
        -13    1    4    4    0    0  0.11354398086E+02 -0.18453336890E+02 -0.34487358370E+02  0.40728686274E+02  0.00000000000E+00 0. -1.
         13    1    4    4    0    0 -0.12916191248E+03 -0.71163295131E+02 -0.89096165712E+02  0.17229376354E+03  0.00000000000E+00 0.  1.
         21    1    1    2  502  501  0.72033444089E+02 -0.32180615683E+02 -0.32204248748E+03  0.33156563880E+03  0.00000000000E+00 0. -1.
<scales pt_clust_5="13000.00000" pt_clust_6="13000.00000" pt_clust_7="13000.00000" pt_clust_8="13000.00000" pt_clust_9="78.89492"></scales>
<clustering>
<clus scale="   78.895">  2  9  1 -1</clus>
<clus scale="   90.531">  7  8 -1 -1</clus>
<clus scale="   97.480">  5  6 -1 -1</clus>
<clus scale="  160.549">  2  7  1 -1</clus>
<clus scale="   78.895">  2  5  1 -1</clus>
</clustering>
</event>
<event>
 9    1  0.1234700E-005  0.1251715E+03  0.7546771E-02  0.1235453E+00
         -1   -1    0    0    0  501 -0.00000000000E+00  0.00000000000E+00  0.38860614223E+03  0.38860614223E+03  0.00000000000E+00 0.  1.
          1   -1    0    0  502    0  0.00000000000E+00 -0.00000000000E+00 -0.15389564909E+03  0.15389564909E+03  0.00000000000E+00 0. -1.
         23    2    1    2    0    0 -0.84366439415E+02 -0.33537697778E+02  0.33420298452E+03  0.35787175463E+03  0.90211333139E+02 0.  0.
         23    2    1    2    0    0  0.37565651902E+02  0.36564461874E+01 -0.60322059984E+02  0.11667765922E+03  0.92468250971E+02 0.  0.
        -11    1    4    4    0    0 -0.13446488464E+01  0.32937709830E+02 -0.59443960745E+02  0.67972680382E+02  0.00000000000E+00 0. -1.
         11    1    4    4    0    0  0.38910300749E+02 -0.29281263643E+02 -0.87809923975E+00  0.48704978833E+02  0.00000000000E+00 0.  1.
        -11    1    3    3    0    0 -0.42002161251E+02 -0.51081101234E+02  0.27580820734E+03  0.28362585864E+03  0.00000000000E+00 0.  1.
         11    1    3    3    0    0 -0.42364278164E+02  0.17543403456E+02  0.58394777177E+02  0.74245895986E+02  0.00000000000E+00 0. -1.
         21    1    1    2  502  501  0.46800787512E+02  0.29881251590E+02 -0.39170431393E+02  0.67952377471E+02  0.00000000000E+00 0. -1.
<scales pt_clust_5="13000.00000" pt_clust_6="13000.00000" pt_clust_7="13000.00000" pt_clust_8="13000.00000" pt_clust_9="55.52660"></scales>
<clustering>
<clus scale="   55.527">  2  9  1 -1</clus>
<clus scale="   90.211">  7  8 -1 -1</clus>
<clus scale="   92.468">  5  6 -1 -1</clus>
<clus scale="  123.514">  1  7  2 -1</clus>
<clus scale="   55.527">  2  5  1 -1</clus>
</clustering>
</event>
<event>
 9    1  0.1234700E-005  0.1120807E+03  0.7546771E-02  0.1257306E+00
         -2   -1    0    0    0  501 -0.00000000000E+00  0.00000000000E+00  0.22604788084E+03  0.22604788084E+03  0.00000000000E+00 0.  1.
          2   -1    0    0  502    0  0.00000000000E+00 -0.00000000000E+00 -0.83006875765E+02  0.83006875765E+02  0.00000000000E+00 0. -1.
         23    2    1    2    0    0  0.29766959399E+02  0.27465925943E+02  0.63981318980E+02  0.12095066451E+03  0.94313334723E+02 0.  0.
         23    2    1    2    0    0 -0.65813907744E+02 -0.40862274422E+02  0.27949255169E+02  0.12414222231E+03  0.92892058712E+02 0.  0.
        -11    1    4    4    0    0 -0.89527234383E+02 -0.34713820815E+02  0.17962748705E+02  0.97687437232E+02  0.00000000000E+00 0. -1.
         11    1    4    4    0    0  0.23713326639E+02 -0.61484536067E+01  0.99865064647E+01  0.26454785076E+02  0.00000000000E+00 0.  1.
        -13    1    3    3    0    0  0.42085374144E+02  0.56161782624E+02  0.52633567536E+02  0.87724665721E+02  0.00000000000E+00 0.  1.
         13    1    3    3    0    0 -0.12318414745E+02 -0.28695856681E+02  0.11347751443E+02  0.33225998786E+02  0.00000000000E+00 0. -1.
         21    1    1    2  502  501  0.36046948345E+02  0.13396348479E+02  0.51110430923E+02  0.63961869787E+02  0.00000000000E+00 0.  1.
<scales pt_clust_5="13000.00000" pt_clust_6="13000.00000" pt_clust_7="13000.00000" pt_clust_8="13000.00000" pt_clust_9="38.45575"></scales>
<clustering>
<clus scale="   38.456">  1  9  2 -1</clus>
<clus scale="   92.892">  5  6 -1 -1</clus>
<clus scale="   94.313">  7  8 -1 -1</clus>
<clus scale="  110.887">  2  5  1 -1</clus>
<clus scale="  110.887">  2  5  1 -1</clus>
</clustering>
</event>
<event>
 9    1  0.1234700E-005  0.1350741E+03  0.7546771E-02  0.1220217E+00
          1   -1    0    0  502    0  0.00000000000E+00  0.00000000000E+00  0.72279892426E+02  0.72279892426E+02  0.00000000000E+00 0. -1.
         -1   -1    0    0    0  501 -0.00000000000E+00 -0.00000000000E+00 -0.38085496606E+03  0.38085496606E+03  0.00000000000E+00 0.  1.
         23    2    1    2    0    0 -0.31120130771E+02  0.10185518806E+03 -0.24878903138E+03  0.28548363238E+03  0.90895436345E+02 0.  0.
         23    2    1    2    0    0  0.29330021275E+02 -0.81797168418E+02 -0.71469033276E+02  0.14436988329E+03  0.90464432646E+02 0.  0.
        -11    1    4    4    0    0  0.34321057225E+02  0.67257742111E+01 -0.31675131711E+02  0.47185643757E+02  0.00000000000E+00 0.  1.
         11    1    4    4    0    0 -0.49910359501E+01 -0.88522942629E+02 -0.39793901565E+02  0.97184239531E+02  0.00000000000E+00 0. -1.
        -11    1    3    3    0    0 -0.29838943399E+02  0.39890718049E+02 -0.30148729120E+02  0.58228668173E+02  0.00000000000E+00 0. -1.
         11    1    3    3    0    0 -0.12811873721E+01  0.61964470014E+02 -0.21864030226E+03  0.22725496421E+03  0.00000000000E+00 0.  1.
         21    1    1    2  502  501  0.17901094959E+01 -0.20058019646E+02  0.11682991022E+02  0.23281342817E+02  0.00000000000E+00 0. -1.
<scales pt_clust_5="13000.00000" pt_clust_6="13000.00000" pt_clust_7="13000.00000" pt_clust_8="13000.00000" pt_clust_9="20.13774"></scales>
<clustering>
<clus scale="   20.138">  1  9  2 -1</clus>
<clus scale="   90.464">  5  6 -1 -1</clus>
<clus scale="   90.895">  7  8 -1 -1</clus>
<clus scale="  134.784">  1  5  2 -1</clus>
<clus scale="   20.138">  1  5  2 -1</clus>
</clustering>
</event>
<event>
 9    1  0.1234700E-005  0.9606304E+02  0.7546771E-02  0.1289475E+00
          1   -1    0    0  502    0  0.00000000000E+00  0.00000000000E+00  0.84090879711E+02  0.84090879711E+02  0.00000000000E+00 0. -1.
         -1   -1    0    0    0  501 -0.00000000000E+00 -0.00000000000E+00 -0.18454752327E+03  0.18454752327E+03  0.00000000000E+00 0.  1.
         23    2    1    2    0    0  0.43172930132E+02  0.32834669604E+01 -0.84592104332E+02  0.13086978826E+03  0.89979966179E+02 0.  0.
         23    2    1    2    0    0 -0.64552250192E+01  0.19056329398E+02 -0.15899059099E+02  0.94788880399E+02  0.91254250021E+02 0.  0.
        -11    1    3    3    0    0  0.50313393954E+02  0.23344867293E+02 -0.92747529861E+02  0.10806722322E+03  0.00000000000E+00 0.  1.
         11    1    3    3    0    0 -0.71404638215E+01 -0.20061400332E+02  0.81554255286E+01  0.22802565041E+02  0.00000000000E+00 0. -1.
        -13    1    4    4    0    0  0.70503001702E+01 -0.33615362154E+02 -0.20863905226E+02  0.40187085569E+02  0.00000000000E+00 0. -1.
         13    1    4    4    0    0 -0.13505525189E+02  0.52671691552E+02  0.49648461268E+01  0.54601794830E+02  0.00000000000E+00 0.  1.
         21    1    1    2  502  501 -0.36717705113E+02 -0.22339796358E+02  0.34519875445E-01  0.42979734314E+02  0.00000000000E+00 0.  1.
<scales pt_clust_5="13000.00000" pt_clust_6="13000.00000" pt_clust_7="13000.00000" pt_clust_8="13000.00000" pt_clust_9="42.97972"></scales>
<clustering>
<clus scale="   42.980">  1  9  2 -1</clus>
<clus scale="   89.980">  5  6 -1 -1</clus>
<clus scale="   91.254">  7  8 -1 -1</clus>
<clus scale="   94.853">  2  5  1 -1</clus>
<clus scale="   42.980">  1  5  2 -1</clus>
</clustering>
</event>
<event>
 9    1  0.1234700E-005  0.9976264E+02  0.7546771E-02  0.1281201E+00
         -2   -1    0    0    0  501 -0.00000000000E+00  0.00000000000E+00  0.75787750463E+02  0.75787750463E+02  0.00000000000E+00 0.  1.
          2   -1    0    0  502    0  0.00000000000E+00 -0.00000000000E+00 -0.24229004066E+03  0.24229004066E+03  0.00000000000E+00 0. -1.
         23    2    1    2    0    0 -0.17341478131E+02  0.28733102899E+02  0.10294722661E+02  0.98539012857E+02  0.92074087963E+02 0.  0.
         23    2    1    2    0    0  0.33627988940E+02 -0.44235809432E+02 -0.13585442299E+03  0.17282817980E+03  0.91244216309E+02 0.  0.
        -13    1    3    3    0    0  0.30512781528E+02  0.35924409000E+02 -0.59177888011E+01  0.47503823244E+02  0.00000000000E+00 0. -1.
         13    1    3    3    0    0 -0.47854259658E+02 -0.71913061009E+01  0.16212511462E+02  0.51035189613E+02  0.00000000000E+00 0.  1.
        -13    1    4    4    0    0 -0.23759260726E+02 -0.19751981995E+01 -0.58158548435E+01  0.24540335078E+02  0.00000000000E+00 0.  1.
         13    1    4    4    0    0  0.57387249665E+02 -0.42260611232E+02 -0.13003856815E+03  0.14828784472E+03  0.00000000000E+00 0. -1.
         21    1    1    2  502  501 -0.16286510809E+02  0.15502706533E+02 -0.40942589868E+02  0.46710598468E+02  0.00000000000E+00 0.  1.
<scales pt_clust_5="13000.00000" pt_clust_6="13000.00000" pt_clust_7="13000.00000" pt_clust_8="13000.00000" pt_clust_9="22.48520"></scales>
<clustering>
<clus scale="   22.485">  2  9  1 -1</clus>
<clus scale="   91.244">  7  8 -1 -1</clus>
<clus scale="   92.074">  5  6 -1 -1</clus>
<clus scale="   98.997">  2  7  1 -1</clus>
<clus scale="   22.485">  2  5  1 -1</clus>
</clustering>
</event>
<event>
 9    1  0.1234700E-005  0.9467460E+02  0.7546771E-02  0.1291934E+00
         -1   -1    0    0    0  501 -0.00000000000E+00  0.00000000000E+00  0.57161383981E+02  0.57161383981E+02  0.00000000000E+00 0.  1.
          1   -1    0    0  502    0  0.00000000000E+00 -0.00000000000E+00 -0.26260961203E+03  0.26260961203E+03  0.00000000000E+00 0. -1.
         23    2    1    2    0    0 -0.21198660160E+00 -0.22514847982E+02 -0.49712974515E+02  0.10674854570E+03  0.91743712892E+02 0.  0.
         23    2    1    2    0    0  0.41946136705E+02  0.79926879333E+01 -0.10817998731E+03  0.14810607516E+03  0.91701354408E+02 0.  0.
        -11    1    3    3    0    0 -0.39746649495E+02  0.34128887031E+01 -0.25591670871E+01  0.39974908274E+02  0.00000000000E+00 0. -1.
         11    1    3    3    0    0  0.39534662893E+02 -0.25927736686E+02 -0.47153807428E+02  0.66773637423E+02  0.00000000000E+00 0.  1.
        -13    1    4    4    0    0  0.69610339984E+02  0.17714023481E+02 -0.77444244958E+02  0.10562668762E+03  0.00000000000E+00 0.  1.
         13    1    4    4    0    0 -0.27664203279E+02 -0.97213355481E+01 -0.30735742355E+02  0.42479387543E+02  0.00000000000E+00 0. -1.
         21    1    1    2  502  501 -0.41734150103E+02  0.14522160049E+02 -0.47555266217E+02  0.64916375147E+02  0.00000000000E+00 0. -1.
<scales pt_clust_5="13000.00000" pt_clust_6="13000.00000" pt_clust_7="13000.00000" pt_clust_8="13000.00000" pt_clust_9="44.18860"></scales>
<clustering>
<clus scale="   44.189">  2  9  1 -1</clus>
<clus scale="   91.701">  7  8 -1 -1</clus>
<clus scale="   91.744">  5  6 -1 -1</clus>
<clus scale="   94.634">  2  7  1 -1</clus>
<clus scale="   44.189">  2  5  1 -1</clus>
</clustering>
</event>
<event>
 9    1  0.1234700E-005  0.1346795E+03  0.7546771E-02  0.1220737E+00
         -4   -1    0    0    0  501 -0.00000000000E+00  0.00000000000E+00  0.26340061642E+03  0.26340061642E+03  0.00000000000E+00 0.  1.
          4   -1    0    0  502    0  0.00000000000E+00 -0.00000000000E+00 -0.13603763999E+03  0.13603763999E+03  0.00000000000E+00 0. -1.
         23    2    1    2    0    0 -0.11395468000E+03  0.22025951119E+02  0.12498095088E+03  0.19319072550E+03  0.90728202462E+02 0.  0.
         23    2    1    2    0    0  0.77080616378E+02 -0.27623374289E+02  0.61276825153E+02  0.13653651933E+03  0.90459380844E+02 0.  0.
        -11    1    3    3    0    0 -0.39229989075E+02  0.26174958783E+02 -0.41157110610E+00  0.47162378024E+02  0.00000000000E+00 0. -1.
         11    1    3    3    0    0 -0.74724690924E+02 -0.41490076642E+01  0.12539252198E+03  0.14602834748E+03  0.00000000000E+00 0.  1.
        -13    1    4    4    0    0  0.71689525147E+02  0.20795960230E+01  0.40482859847E+01  0.71833845469E+02  0.00000000000E+00 0.  1.
         13    1    4    4    0    0  0.53910912317E+01 -0.29702970312E+02  0.57228539168E+02  0.64702673866E+02  0.00000000000E+00 0. -1.
         21    1    1    2  502  501  0.36874063620E+02  0.55974231699E+01 -0.58894799603E+02  0.69711011571E+02  0.00000000000E+00 0.  1.
<scales pt_clust_5="13000.00000" pt_clust_6="13000.00000" pt_clust_7="13000.00000" pt_clust_8="13000.00000" pt_clust_9="37.29648"></scales>
<clustering>
<clus scale="   37.296">  2  9  1 -1</clus>
<clus scale="   90.459">  7  8 -1 -1</clus>
<clus scale="   90.728">  5  6 -1 -1</clus>
<clus scale="  134.499">  2  7  1 -1</clus>
<clus scale="   37.296">  2  5  1 -1</clus>
</clustering>
</event>
<event>
 9    1  0.1234700E-005  0.1031744E+03  0.7546771E-02  0.1274042E+00
          1   -1    0    0  502    0  0.00000000000E+00  0.00000000000E+00  0.36844504732E+03  0.36844504732E+03  0.00000000000E+00 0. -1.
         -1   -1    0    0    0  501 -0.00000000000E+00 -0.00000000000E+00 -0.46184841207E+02  0.46184841207E+02  0.00000000000E+00 0.  1.
         23    2    1    2    0    0  0.23705096135E+02  0.27612182702E+02  0.84734309428E+02  0.12981617332E+03  0.91367233977E+02 0.  0.
         23    2    1    2    0    0 -0.40301554870E+02 -0.43763996370E+02  0.11017644761E+03  0.15537567711E+03  0.91995916900E+02 0.  0.
        -13    1    4    4    0    0  0.30052773732E+02 -0.13391446576E+02  0.31575408725E+02  0.45601606184E+02  0.00000000000E+00 0. -1.
         13    1    4    4    0    0 -0.70354328602E+02 -0.30372549793E+02  0.78601038889E+02  0.10977407093E+03  0.00000000000E+00 0.  1.
        -13    1    3    3    0    0 -0.97880279181E+01 -0.30011786954E+02  0.30387805551E+02  0.43817023780E+02  0.00000000000E+00 0.  1.
         13    1    3    3    0    0  0.33493124053E+02  0.57623969656E+02  0.54346503876E+02  0.85999149539E+02  0.00000000000E+00 0. -1.
         21    1    1    2  502  501  0.16596458735E+02  0.16151813668E+02  0.12734944908E+03  0.12943803810E+03  0.00000000000E+00 0. -1.
<scales pt_clust_5="13000.00000" pt_clust_6="13000.00000" pt_clust_7="13000.00000" pt_clust_8="13000.00000" pt_clust_9="23.15866"></scales>
<clustering>
<clus scale="   23.159">  1  9  2 -1</clus>
<clus scale="   91.367">  7  8 -1 -1</clus>
<clus scale="   91.996">  5  6 -1 -1</clus>
<clus scale="  102.614">  2  7  1 -1</clus>
<clus scale="   23.159">  1  5  2 -1</clus>
</clustering>
</event>
<event>
 9    1  0.1234700E-005  0.9276042E+02  0.7546771E-02  0.1296865E+00
         -2   -1    0    0    0  501 -0.00000000000E+00  0.00000000000E+00  0.14135089257E+03  0.14135089257E+03  0.00000000000E+00 0.  1.
          2   -1    0    0  502    0  0.00000000000E+00 -0.00000000000E+00 -0.18446825324E+03  0.18446825324E+03  0.00000000000E+00 0. -1.
         23    2    1    2    0    0 -0.26194020292E+02  0.13878262720E+01  0.10054770077E+03  0.13710607056E+03  0.89443734792E+02 0.  0.
         23    2    1    2    0    0  0.13184731618E+02 -0.19931053123E+02 -0.81755343579E+02  0.12278958915E+03  0.88443558119E+02 0.  0.
        -11    1    4    4    0    0  0.73028336900E+00 -0.39340202175E+02 -0.90058647884E+02  0.98278913708E+02  0.00000000000E+00 0.  1.
         11    1    4    4    0    0  0.12454448249E+02  0.19409149052E+02  0.83033043049E+01  0.24510675439E+02  0.00000000000E+00 0. -1.
        -13    1    3    3    0    0 -0.17887373561E+02 -0.38816302296E+02  0.81114722910E+02  0.91685668071E+02  0.00000000000E+00 0.  1.
         13    1    3    3    0    0 -0.83066467306E+01  0.40204128568E+02  0.19432977863E+02  0.45420402491E+02  0.00000000000E+00 0. -1.
         21    1    1    2  502  501  0.13009288673E+02  0.18543226851E+02 -0.61909717867E+02  0.65923486105E+02  0.00000000000E+00 0. -1.
<scales pt_clust_5="13000.00000" pt_clust_6="13000.00000" pt_clust_7="13000.00000" pt_clust_8="13000.00000" pt_clust_9="22.65155"></scales>
<clustering>
<clus scale="   22.652">  2  9  1 -1</clus>
<clus scale="   88.444">  5  6 -1 -1</clus>
<clus scale="   89.444">  7  8 -1 -1</clus>
<clus scale="   91.796">  2  5  1 -1</clus>
<clus scale="   22.652">  2  5  1 -1</clus>
</clustering>
</event>
<event>
 9    1  0.1234700E-005  0.9133085E+02  0.7546771E-02  0.1299740E+00
          2   -1    0    0  502    0  0.00000000000E+00  0.00000000000E+00  0.15325708207E+03  0.15325708207E+03  0.00000000000E+00 0. -1.
         -2   -1    0    0    0  501 -0.00000000000E+00 -0.00000000000E+00 -0.16113775930E+03  0.16113775930E+03  0.00000000000E+00 0.  1.
         23    2    1    2    0    0 -0.11807292204E+01  0.70767561884E-01 -0.92381903266E+02  0.12944599108E+03  0.90666694134E+02 0.  0.
         23    2    1    2    0    0 -0.52324274303E+02 -0.16309765423E+02  0.39508902893E+02  0.11317977900E+03  0.90801271123E+02 0.  0.
        -11    1    3    3    0    0  0.88643832339E+01 -0.31863587393E+02 -0.89999709062E+02  0.95884373716E+02  0.00000000000E+00 0.  1.
         11    1    3    3    0    0 -0.10045112454E+02  0.31934354955E+02 -0.23821942036E+01  0.33561617360E+02  0.00000000000E+00 0. -1.
        -13    1    4    4    0    0 -0.51554384358E+02  0.27367478014E+02  0.37647265012E+02  0.69456100972E+02  0.00000000000E+00 0.  1.
         13    1    4    4    0    0 -0.76988994495E+00 -0.43677243437E+02  0.18616378811E+01  0.43723678029E+02  0.00000000000E+00 0. -1.
         21    1    1    2  502  501  0.53505003523E+02  0.16238997861E+02  0.44992323144E+02  0.71769071301E+02  0.00000000000E+00 0. -1.
<scales pt_clust_5="13000.00000" pt_clust_6="13000.00000" pt_clust_7="13000.00000" pt_clust_8="13000.00000" pt_clust_9="55.91503"></scales>
<clustering>
<clus scale="   55.915">  1  9  2 -1</clus>
<clus scale="   90.667">  5  6 -1 -1</clus>
<clus scale="   90.801">  7  8 -1 -1</clus>
<clus scale="   91.197">  2  5  1 -1</clus>
<clus scale="   55.915">  1  5  2 -1</clus>
</clustering>
</event>
<event>
 9    1  0.1234700E-005  0.1347826E+03  0.7546771E-02  0.1220999E+00
          2   -1    0    0  502    0  0.00000000000E+00  0.00000000000E+00  0.62628783683E+02  0.62628783683E+02  0.00000000000E+00 0. -1.
         -2   -1    0    0    0  501 -0.00000000000E+00 -0.00000000000E+00 -0.50718742108E+03  0.50718742108E+03  0.00000000000E+00 0.  1.
         23    2    1    2    0    0 -0.98503640496E+02  0.15998663547E+02 -0.35387113962E+03  0.37863673010E+03  0.90454770467E+02 0.  0.
         23    2    1    2    0    0  0.95493992692E+02  0.98437461039E+01 -0.96502749382E+02  0.16452041864E+03  0.92402302649E+02 0.  0.
        -11    1    4    4    0    0  0.38451255614E+02  0.42245736735E+02 -0.77390822650E+02  0.96190128189E+02  0.00000000000E+00 0.  1.
         11    1    4    4    0    0  0.57042737078E+02 -0.32401990631E+02 -0.19111926732E+02  0.68330290454E+02  0.00000000000E+00 0. -1.
        -13    1    3    3    0    0 -0.73528760500E+02  0.51761043395E+01 -0.34035746808E+03  0.34824772325E+03  0.00000000000E+00 0.  1.
         13    1    3    3    0    0 -0.24974879996E+02  0.10822559207E+02 -0.13513671545E+02  0.30389006848E+02  0.00000000000E+00 0. -1.
         21    1    1    2  502  501  0.30096478042E+01 -0.25842409650E+02  0.58152516058E+01  0.26659056016E+02  0.00000000000E+00 0. -1.
<scales pt_clust_5="13000.00000" pt_clust_6="13000.00000" pt_clust_7="13000.00000" pt_clust_8="13000.00000" pt_clust_9="26.01707"></scales>
<clustering>
<clus scale="   26.017">  1  9  2 -1</clus>
<clus scale="   90.455">  7  8 -1 -1</clus>
<clus scale="   92.402">  5  6 -1 -1</clus>
<clus scale="  133.455">  2  7  1 -1</clus>
<clus scale="   26.017">  1  5  2 -1</clus>
</clustering>
</event>
<event>
 9    1  0.1234700E-005  0.1077860E+03  0.7546771E-02  0.1264742E+00
          2   -1    0    0  502    0  0.00000000000E+00  0.00000000000E+00  0.31932183601E+03  0.31932183601E+03  0.00000000000E+00 0. -1.
         -2   -1    0    0    0  501 -0.00000000000E+00 -0.00000000000E+00 -0.68760858600E+02  0.68760858600E+02  0.00000000000E+00 0.  1.
         23    2    1    2    0    0  0.30869621787E+02 -0.45648720289E+01  0.41151263924E+02  0.10464149566E+03  0.91009035187E+02 0.  0.
         23    2    1    2    0    0 -0.52785153121E+02  0.51149838873E+02  0.19914222462E+03  0.23094480881E+03  0.90968679695E+02 0.  0.
        -11    1    3    3    0    0  0.40465807674E+00  0.38518029999E+02  0.13431501679E+01  0.38543565423E+02  0.00000000000E+00 0.  1.
         11    1    3    3    0    0  0.30464963710E+02 -0.43082902027E+02  0.39808113756E+02  0.66097930238E+02  0.00000000000E+00 0. -1.
        -11    1    4    4    0    0 -0.43712979585E+02 -0.20323764897E+01  0.15553705208E+03  0.16157577079E+03  0.00000000000E+00 0. -1.
         11    1    4    4    0    0 -0.90721735354E+01  0.53182215363E+02  0.43605172540E+02  0.69369038020E+02  0.00000000000E+00 0.  1.
         21    1    1    2  502  501  0.21915531334E+02 -0.46584966845E+02  0.10267488867E+02  0.52496390135E+02  0.00000000000E+00 0. -1.
<scales pt_clust_5="13000.00000" pt_clust_6="13000.00000" pt_clust_7="13000.00000" pt_clust_8="13000.00000" pt_clust_9="51.48252"></scales>
<clustering>
<clus scale="   51.483">  2  9  1 -1</clus>
<clus scale="   90.969">  7  8 -1 -1</clus>
<clus scale="   91.009">  5  6 -1 -1</clus>
<clus scale="  107.752">  1  7  2 -1</clus>
<clus scale="  107.752">  1  5  2 -1</clus>
</clustering>
</event>
<event>
 9    1  0.1234700E-005  0.1231521E+03  0.7546771E-02  0.1238566E+00
         -4   -1    0    0    0  501 -0.00000000000E+00  0.00000000000E+00  0.73943746882E+02  0.73943746882E+02  0.00000000000E+00 0.  1.
          4   -1    0    0  502    0  0.00000000000E+00 -0.00000000000E+00 -0.42962559598E+03  0.42962559598E+03  0.00000000000E+00 0. -1.
         23    2    1    2    0    0 -0.47792444580E+02 -0.75176437026E+02 -0.21944463119E+02  0.12904408492E+03  0.90748013465E+02 0.  0.
         23    2    1    2    0    0  0.35235490447E+02  0.53399734899E+02 -0.14242721575E+03  0.18157064388E+03  0.92678559878E+02 0.  0.
        -11    1    3    3    0    0 -0.20675069416E+01 -0.32913709622E+02 -0.50682402570E+02  0.60467286993E+02  0.00000000000E+00 0. -1.
         11    1    3    3    0    0 -0.45724937638E+02 -0.42262727404E+02  0.28737939451E+02  0.68576797924E+02  0.00000000000E+00 0.  1.
        -11    1    4    4    0    0 -0.10800248917E+01  0.60436997945E+02 -0.12856760185E+03  0.14206838290E+03  0.00000000000E+00 0.  1.
         11    1    4    4    0    0  0.36315515338E+02 -0.70372630457E+01 -0.13859613895E+02  0.39502260983E+02  0.00000000000E+00 0. -1.
         21    1    1    2  502  501  0.12556954133E+02  0.21776702126E+02 -0.19131017023E+03  0.19295461406E+03  0.00000000000E+00 0. -1.
<scales pt_clust_5="13000.00000" pt_clust_6="13000.00000" pt_clust_7="13000.00000" pt_clust_8="13000.00000" pt_clust_9="25.13766"></scales>
<clustering>
<clus scale="   25.138">  2  9  1 -1</clus>
<clus scale="   90.748">  5  6 -1 -1</clus>
<clus scale="   92.679">  7  8 -1 -1</clus>
<clus scale="  121.706">  1  5  2 -1</clus>
<clus scale="   25.138">  2  5  1 -1</clus>
</clustering>
</event>
<event>
 9    1  0.3206195E-005  0.2342536E+03  0.7546771E-02  0.1123716E+00
         -2   -1    0    0    0  501 -0.00000000000E+00  0.00000000000E+00  0.19694298900E+03  0.19694298900E+03  0.00000000000E+00 0.  1.
          2   -1    0    0  502    0  0.00000000000E+00 -0.00000000000E+00 -0.96647188944E+03  0.96647188944E+03  0.00000000000E+00 0. -1.
         23    2    1    2    0    0  0.18304375755E+03  0.12922112939E+03  0.97805017609E+02  0.26082424429E+03  0.90886453772E+02 0.  0.
         23    2    1    2    0    0 -0.12440815706E+03 -0.84666994853E+02 -0.62265809327E+03  0.64707260390E+03  0.91400022125E+02 0.  0.
        -11    1    3    3    0    0  0.18364700694E+03  0.95006327407E+02  0.91134703053E+02  0.22596008388E+03  0.00000000000E+00 0.  1.
         11    1    3    3    0    0 -0.60324939307E+00  0.34214801983E+02  0.66703145555E+01  0.34864160406E+02  0.00000000000E+00 0. -1.
        -13    1    4    4    0    0 -0.12079371396E+03 -0.38130230799E+02 -0.50106978830E+03  0.51683263111E+03  0.00000000000E+00 0. -1.
         13    1    4    4    0    0 -0.36144431061E+01 -0.46536764054E+02 -0.12158830497E+03  0.13023997279E+03  0.00000000000E+00 0.  1.
         21    1    1    2  502  501 -0.58635600486E+02 -0.44554134537E+02 -0.24467582479E+03  0.25551803025E+03  0.00000000000E+00 0. -1.
<scales pt_clust_5="13000.00000" pt_clust_6="13000.00000" pt_clust_7="13000.00000" pt_clust_8="13000.00000" pt_clust_9="73.64241"></scales>
<clustering>
<clus scale="   73.642">  2  9  1 -1</clus>
<clus scale="   90.886">  5  6 -1 -1</clus>
<clus scale="   91.400">  7  8 -1 -1</clus>
<clus scale="  234.054">  1  5  2 -1</clus>
<clus scale="   73.642">  2  5  1 -1</clus>
</clustering>
</event>
<event>
 9    1  0.1234700E-005  0.1399267E+03  0.7546771E-02  0.1213622E+00
         -1   -1    0    0    0  501 -0.00000000000E+00  0.00000000000E+00  0.69241231250E+02  0.69241231250E+02  0.00000000000E+00 0.  1.
          1   -1    0    0  502    0  0.00000000000E+00 -0.00000000000E+00 -0.33432569500E+03  0.33432569500E+03  0.00000000000E+00 0. -1.
         23    2    1    2    0    0 -0.89155768752E+02 -0.72121041922E+02 -0.10316972969E+03  0.17958315152E+03  0.91956073194E+02 0.  0.
         23    2    1    2    0    0  0.79854107209E+02  0.52396263173E+02 -0.12936605781E+03  0.18480464597E+03  0.91077623087E+02 0.  0.
        -11    1    4    4    0    0  0.74402412738E+01  0.57853565695E+02 -0.46308035362E+02  0.74477019227E+02  0.00000000000E+00 0. -1.
         11    1    4    4    0    0  0.72413865935E+02 -0.54573025218E+01 -0.83058022444E+02  0.11032762674E+03  0.00000000000E+00 0.  1.
        -11    1    3    3    0    0 -0.65936016392E+02  0.53128736331E+01 -0.46333421511E+02  0.80762434540E+02  0.00000000000E+00 0. -1.
         11    1    3    3    0    0 -0.23219752361E+02 -0.77433915555E+02 -0.56836308174E+02  0.98820716981E+02  0.00000000000E+00 0.  1.
         21    1    1    2  502  501  0.93016615433E+01  0.19724778749E+02 -0.32548676256E+02  0.39179128757E+02  0.00000000000E+00 0.  1.
<scales pt_clust_5="13000.00000" pt_clust_6="13000.00000" pt_clust_7="13000.00000" pt_clust_8="13000.00000" pt_clust_9="21.80798"></scales>
<clustering>
<clus scale="   21.808">  2  9  1 -1</clus>
<clus scale="   91.078">  5  6 -1 -1</clus>
<clus scale="   91.956">  7  8 -1 -1</clus>
<clus scale="  139.351">  2  5  1 -1</clus>
<clus scale="   21.808">  2  5  1 -1</clus>
</clustering>
</event>
<event>
 9    1  0.1234700E-005  0.9965680E+02  0.7546771E-02  0.1281358E+00
          1   -1    0    0  502    0  0.00000000000E+00  0.00000000000E+00  0.68320811956E+02  0.68320811956E+02  0.00000000000E+00 0. -1.
         -1   -1    0    0    0  501 -0.00000000000E+00 -0.00000000000E+00 -0.29525686198E+03  0.29525686198E+03  0.00000000000E+00 0.  1.
         23    2    1    2    0    0 -0.30310186861E+02 -0.65900262854E+00 -0.12691264058E+03  0.15966543257E+03  0.92016793617E+02 0.  0.
         23    2    1    2    0    0  0.40077428919E+02  0.34234272277E+02 -0.12304692817E+03  0.16204602392E+03  0.91324594860E+02 0.  0.
        -11    1    4    4    0    0  0.24331985008E+02 -0.83053059647E+00 -0.12113865224E+03  0.12356094990E+03  0.00000000000E+00 0.  1.
         11    1    4    4    0    0  0.15745443911E+02  0.35064802874E+02 -0.19082759376E+01  0.38485074011E+02  0.00000000000E+00 0. -1.
        -13    1    3    3    0    0 -0.26214331888E+02 -0.23077163151E+02 -0.13180784999E+03  0.13635635656E+03  0.00000000000E+00 0.  1.
         13    1    3    3    0    0 -0.40958549735E+01  0.22418160523E+02  0.48952094136E+01  0.23309076009E+02  0.00000000000E+00 0. -1.
         21    1    1    2  502  501 -0.97672420581E+01 -0.33575269649E+02  0.23023518725E+02  0.41866217454E+02  0.00000000000E+00 0. -1.
<scales pt_clust_5="13000.00000" pt_clust_6="13000.00000" pt_clust_7="13000.00000" pt_clust_8="13000.00000" pt_clust_9="34.96710"></scales>
<clustering>
<clus scale="   34.967">  1  9  2 -1</clus>
<clus scale="   91.325">  5  6 -1 -1</clus>
<clus scale="   92.017">  7  8 -1 -1</clus>
<clus scale="   99.018">  1  5  2 -1</clus>
<clus scale="   34.967">  1  5  2 -1</clus>
</clustering>
</event>
<event>
 9    1  0.1234700E-005  0.1064242E+03  0.7546771E-02  0.1268576E+00
          4   -1    0    0  502    0  0.00000000000E+00  0.00000000000E+00  0.57572510452E+02  0.57572510452E+02  0.00000000000E+00 0. -1.
         -4   -1    0    0    0  501 -0.00000000000E+00 -0.00000000000E+00 -0.38196990875E+03  0.38196990875E+03  0.00000000000E+00 0.  1.
         23    2    1    2    0    0 -0.12948525625E+02  0.56075551429E+02 -0.27862697611E+03  0.29894119801E+03  0.91764460823E+02 0.  0.
         23    2    1    2    0    0  0.31094762327E+02 -0.35561444604E+02 -0.50882200240E+02  0.11274005180E+03  0.88824660945E+02 0.  0.
        -11    1    4    4    0    0  0.60905681475E+02 -0.29826143271E+02 -0.46115202820E+02  0.82010443174E+02  0.00000000000E+00 0.  1.
         11    1    4    4    0    0 -0.29810919149E+02 -0.57353013329E+01 -0.47669974199E+01  0.30729608625E+02  0.00000000000E+00 0. -1.
        -13    1    3    3    0    0  0.29587191850E+01  0.74719514026E+02 -0.25150674026E+03  0.26238788118E+03  0.00000000000E+00 0.  1.
         13    1    3    3    0    0 -0.15907244810E+02 -0.18643962597E+02 -0.27120235844E+02  0.36553316826E+02  0.00000000000E+00 0. -1.
         21    1    1    2  502  501 -0.18146236702E+02 -0.20514106825E+02  0.51117780450E+01  0.27861169395E+02  0.00000000000E+00 0. -1.
<scales pt_clust_5="13000.00000" pt_clust_6="13000.00000" pt_clust_7="13000.00000" pt_clust_8="13000.00000" pt_clust_9="27.38822"></scales>
<clustering>
<clus scale="   27.388">  1  9  2 -1</clus>
<clus scale="   88.825">  5  6 -1 -1</clus>
<clus scale="   91.764">  7  8 -1 -1</clus>
<clus scale="  103.900">  1  5  2 -1</clus>
<clus scale="   27.388">  1  5  2 -1</clus>
</clustering>
</event>
<event>
 9    1  0.1234700E-005  0.1102809E+03  0.7546771E-02  0.1261855E+00
         -2   -1    0    0    0  501 -0.00000000000E+00  0.00000000000E+00  0.14612686892E+03  0.14612686892E+03  0.00000000000E+00 0.  1.
          2   -1    0    0  502    0  0.00000000000E+00 -0.00000000000E+00 -0.15971381482E+03  0.15971381482E+03  0.00000000000E+00 0. -1.
         23    2    1    2    0    0 -0.83283661834E+02  0.35581936726E+02  0.14541338376E+02  0.12769487252E+03  0.88838546794E+02 0.  0.
         23    2    1    2    0    0  0.45949209972E+02 -0.39759682704E+01 -0.59567301844E+02  0.11999763529E+03  0.93402520342E+02 0.  0.
        -11    1    4    4    0    0  0.11103131591E+02 -0.47264849416E+02 -0.29558347731E+02  0.56841370867E+02  0.00000000000E+00 0. -1.
         11    1    4    4    0    0  0.34846078381E+02  0.43288881145E+02 -0.30008954113E+02  0.63156264427E+02  0.00000000000E+00 0.  1.
        -13    1    3    3    0    0 -0.24210281213E+00  0.38274924566E+02  0.22216196600E+02  0.44255935824E+02  0.00000000000E+00 0.  1.
         13    1    3    3    0    0 -0.83041559022E+02 -0.26929878398E+01 -0.76748582236E+01  0.83438936696E+02  0.00000000000E+00 0. -1.
         21    1    1    2  502  501  0.37334451862E+02 -0.31605968456E+02  0.31439017572E+02  0.58148175928E+02  0.00000000000E+00 0.  1.
<scales pt_clust_5="13000.00000" pt_clust_6="13000.00000" pt_clust_7="13000.00000" pt_clust_8="13000.00000" pt_clust_9="48.91624"></scales>
<clustering>
<clus scale="   48.916">  1  9  2 -1</clus>
<clus scale="   88.839">  7  8 -1 -1</clus>
<clus scale="   93.403">  5  6 -1 -1</clus>
<clus scale="  106.443">  1  7  2 -1</clus>
<clus scale="  110.281">  2  5  1 -1</clus>
</clustering>
</event>
<event>
 9    1  0.1234700E-005  0.1001359E+03  0.7546771E-02  0.1283909E+00
         -1   -1    0    0    0  501 -0.00000000000E+00  0.00000000000E+00  0.42125908008E+02  0.42125908008E+02  0.00000000000E+00 0.  1.
          1   -1    0    0  502    0  0.00000000000E+00 -0.00000000000E+00 -0.42068454095E+03  0.42068454095E+03  0.00000000000E+00 0. -1.
         23    2    1    2    0    0 -0.48444536281E+02  0.37986244110E+02 -0.10047685187E+03  0.14265947701E+03  0.80413312228E+02 0.  0.
         23    2    1    2    0    0 -0.11050140415E+02 -0.39694771448E+02 -0.19304273000E+03  0.21635224445E+03  0.88572103911E+02 0.  0.
        -13    1    4    4    0    0  0.28302253044E+02  0.91804067634E+01 -0.32920878815E+02  0.44374335574E+02  0.00000000000E+00 0.  1.
         13    1    4    4    0    0 -0.39352393459E+02 -0.48875178212E+02 -0.16012185118E+03  0.17197790888E+03  0.00000000000E+00 0. -1.
        -13    1    3    3    0    0 -0.50507854263E+02  0.43606575966E+00 -0.20936700352E+02  0.54677041958E+02  0.00000000000E+00 0. -1.
         13    1    3    3    0    0  0.20633179825E+01  0.37550178350E+02 -0.79540151514E+02  0.87982435055E+02  0.00000000000E+00 0.  1.
         21    1    1    2  502  501  0.59494676696E+02  0.17085273382E+01 -0.85039051077E+02  0.10379872749E+03  0.00000000000E+00 0.  1.
<scales pt_clust_5="13000.00000" pt_clust_6="13000.00000" pt_clust_7="13000.00000" pt_clust_8="13000.00000" pt_clust_9="59.51920"></scales>
<clustering>
<clus scale="   59.519">  2  9  1 -1</clus>
<clus scale="   80.413">  7  8 -1 -1</clus>
<clus scale="   88.572">  5  6 -1 -1</clus>
<clus scale="   92.997">  1  7  2 -1</clus>
<clus scale="   59.519">  2  5  1 -1</clus>
</clustering>
</event>
<event>
 9    1  0.1234700E-005  0.1205469E+03  0.7546771E-02  0.1242467E+00
         -2   -1    0    0    0  501 -0.00000000000E+00  0.00000000000E+00  0.16230078646E+03  0.16230078646E+03  0.00000000000E+00 0.  1.
          2   -1    0    0  502    0  0.00000000000E+00 -0.00000000000E+00 -0.15082400717E+03  0.15082400717E+03  0.00000000000E+00 0. -1.
         23    2    1    2    0    0  0.80259444443E+02  0.19367326706E+02  0.93355129151E+02  0.15495078621E+03  0.92075481221E+02 0.  0.
         23    2    1    2    0    0 -0.64137174165E+02 -0.49015707979E+01 -0.57471985691E+02  0.12554187134E+03  0.91214745600E+02 0.  0.
        -11    1    4    4    0    0 -0.55977504247E+02  0.35082549631E+02 -0.52596942770E+02  0.84443499804E+02  0.00000000000E+00 0. -1.
         11    1    4    4    0    0 -0.81596699182E+01 -0.39984120429E+02 -0.48750429209E+01  0.41098371539E+02  0.00000000000E+00 0.  1.
        -11    1    3    3    0    0  0.10028088658E+03  0.12515410737E+02  0.85511588168E+02  0.13238248914E+03  0.00000000000E+00 0.  1.
         11    1    3    3    0    0 -0.20021442135E+02  0.68519159698E+01  0.78435409827E+01  0.22568297073E+02  0.00000000000E+00 0. -1.
         21    1    1    2  502  501 -0.16122270278E+02 -0.14465755909E+02 -0.24406364176E+02  0.32632136081E+02  0.00000000000E+00 0. -1.
<scales pt_clust_5="13000.00000" pt_clust_6="13000.00000" pt_clust_7="13000.00000" pt_clust_8="13000.00000" pt_clust_9="21.66069"></scales>
<clustering>
<clus scale="   21.661">  2  9  1 -1</clus>
<clus scale="   91.215">  5  6 -1 -1</clus>
<clus scale="   92.075">  7  8 -1 -1</clus>
<clus scale="  119.891">  2  5  1 -1</clus>
<clus scale="   21.661">  2  5  1 -1</clus>
</clustering>
</event>
<event>
 9    1  0.1234700E-005  0.1164700E+03  0.7546771E-02  0.1257434E+00
          2   -1    0    0  502    0  0.00000000000E+00  0.00000000000E+00  0.24798384158E+03  0.24798384158E+03  0.00000000000E+00 0. -1.
         -2   -1    0    0    0  501 -0.00000000000E+00 -0.00000000000E+00 -0.75354709726E+02  0.75354709726E+02  0.00000000000E+00 0.  1.
         23    2    1    2    0    0  0.41198768155E+02 -0.35634455860E+02  0.31238548158E+02  0.11057975130E+03  0.91021324780E+02 0.  0.
         23    2    1    2    0    0  0.18205633613E+01  0.16054962172E+02  0.92377905017E+02  0.14466869699E+03  0.11015570023E+03 0.  0.
        -11    1    3    3    0    0  0.43131552814E+02  0.21822520155E+02  0.10508722938E+02  0.49467024287E+02  0.00000000000E+00 0. -1.
         11    1    3    3    0    0 -0.19327846585E+01 -0.57456976015E+02  0.20729825220E+02  0.61112727013E+02  0.00000000000E+00 0.  1.
        -11    1    4    4    0    0 -0.48251262601E+01  0.49275679296E+02  0.35953383156E+01  0.49641725102E+02  0.00000000000E+00 0. -1.
         11    1    4    4    0    0  0.66456896214E+01 -0.33220717124E+02  0.88782566702E+02  0.95026971892E+02  0.00000000000E+00 0.  1.
         21    1    1    2  502  501 -0.43019331517E+02  0.19579493688E+02  0.49012678682E+02  0.68090103016E+02  0.00000000000E+00 0.  1.
<scales pt_clust_5="13000.00000" pt_clust_6="13000.00000" pt_clust_7="13000.00000" pt_clust_8="13000.00000" pt_clust_9="47.26542"></scales>
<clustering>
<clus scale="   47.265">  1  9  2 -1</clus>
<clus scale="   91.021">  5  6 -1 -1</clus>
<clus scale="   98.569">  2  5  1 -1</clus>
<clus scale="  110.156">  7  8 -1 -1</clus>
<clus scale="   47.265">  1  5  2 -1</clus>
</clustering>
</event>
<event>
 9    1  0.1234700E-005  0.3011640E+03  0.7546771E-02  0.1124638E+00
         -3   -1    0    0    0  501 -0.00000000000E+00  0.00000000000E+00  0.82138333805E+03  0.82138333805E+03  0.00000000000E+00 0.  1.
          3   -1    0    0  502    0  0.00000000000E+00 -0.00000000000E+00 -0.15251484560E+03  0.15251484560E+03  0.00000000000E+00 0. -1.
         23    2    1    2    0    0 -0.48853396751E+02 -0.56169931063E+02  0.14464729592E+03  0.18031004845E+03  0.77763473585E+02 0.  0.
         23    2    1    2    0    0  0.25100486005E+03  0.21166474388E+03  0.29007295927E+03  0.44736674947E+03  0.90494658750E+02 0.  0.
        -11    1    4    4    0    0  0.12046851466E+03  0.10939487299E+03  0.20267491394E+03  0.25991733686E+03  0.00000000000E+00 0.  1.
         11    1    4    4    0    0  0.13053634539E+03  0.10226987088E+03  0.87398045326E+02  0.18744941260E+03  0.00000000000E+00 0. -1.
        -13    1    3    3    0    0 -0.33620731205E+02  0.91422337061E+01  0.24104360368E+02  0.42366899729E+02  0.00000000000E+00 0. -1.
         13    1    3    3    0    0 -0.15232665546E+02 -0.65312164770E+02  0.12054293555E+03  0.13794314872E+03  0.00000000000E+00 0.  1.
         21    1    1    2  502  501 -0.20215146330E+03 -0.15549481281E+03  0.23414823727E+03  0.34622138574E+03  0.00000000000E+00 0. -1.
<scales pt_clust_5="13000.00000" pt_clust_6="13000.00000" pt_clust_7="13000.00000" pt_clust_8="13000.00000" pt_clust_9="287.24641"></scales>
<clustering>
<clus scale="   77.763">  7  8 -1 -1</clus>
<clus scale="   90.495">  5  6 -1 -1</clus>
<clus scale="  107.652">  1  7  2 -1</clus>
<clus scale="  287.246">  2  9  1 -1</clus>
<clus scale="  287.246">  2  5  1 -1</clus>
</clustering>
</event>
<event>
 9    1  0.1234700E-005  0.1902528E+03  0.7546771E-02  0.1176081E+00
          1   -1    0    0  502    0  0.00000000000E+00  0.00000000000E+00  0.44014916525E+03  0.44014916525E+03  0.00000000000E+00 0. -1.
         -1   -1    0    0    0  501 -0.00000000000E+00 -0.00000000000E+00 -0.20641586089E+03  0.20641586089E+03  0.00000000000E+00 0.  1.
         23    2    1    2    0    0 -0.12619447077E+03  0.46476686907E+02  0.61795480252E+02  0.17429715790E+03  0.92063516075E+02 0.  0.
         23    2    1    2    0    0 -0.56616070932E+01  0.90741466341E+02  0.23917348179E+03  0.27043754220E+03  0.87558222524E+02 0.  0.
        -11    1    4    4    0    0 -0.17042618038E+02  0.39222295085E+02  0.24311467016E+02  0.49192343813E+02  0.00000000000E+00 0.  1.
         11    1    4    4    0    0  0.11381010945E+02  0.51519171256E+02  0.21486201477E+03  0.22124519839E+03  0.00000000000E+00 0. -1.
        -13    1    3    3    0    0 -0.42717598789E+02  0.34003800366E+02  0.70808005284E+02  0.89413786957E+02  0.00000000000E+00 0.  1.
         13    1    3    3    0    0 -0.83476871981E+02  0.12472886541E+02 -0.90125250322E+01  0.84883370939E+02  0.00000000000E+00 0. -1.
         21    1    1    2  502  501  0.13185607786E+03 -0.13721815325E+03 -0.67235657680E+02  0.20183032605E+03  0.00000000000E+00 0.  1.
<scales pt_clust_5="13000.00000" pt_clust_6="13000.00000" pt_clust_7="13000.00000" pt_clust_8="13000.00000" pt_clust_9="166.49460"></scales>
<clustering>
<clus scale="   87.558">  5  6 -1 -1</clus>
<clus scale="   92.064">  7  8 -1 -1</clus>
<clus scale="  126.224">  1  5  2 -1</clus>
<clus scale="  166.495">  2  9  1 -1</clus>
<clus scale="  126.224">  1  5  2 -1</clus>
</clustering>
</event>
<event>
 9    1  0.1234700E-005  0.1047796E+03  0.7546771E-02  0.1271441E+00
         -1   -1    0    0    0  501 -0.00000000000E+00  0.00000000000E+00  0.16695527116E+03  0.16695527116E+03  0.00000000000E+00 0.  1.
          1   -1    0    0  502    0  0.00000000000E+00 -0.00000000000E+00 -0.13831886087E+03  0.13831886087E+03  0.00000000000E+00 0. -1.
         23    2    1    2    0    0  0.53672476673E+02  0.63567558944E+02  0.27159738707E+02  0.12753889159E+03  0.92773639358E+02 0.  0.
         23    2    1    2    0    0 -0.41494416721E+02  0.85131439600E+01 -0.18724594114E+02  0.10189314123E+03  0.90759801490E+02 0.  0.
        -13    1    4    4    0    0 -0.42910018875E+02  0.45274762130E+02 -0.18640834705E+02  0.65104182080E+02  0.00000000000E+00 0. -1.
         13    1    4    4    0    0  0.14156021531E+01 -0.36761618170E+02 -0.83759409060E-01  0.36788959153E+02  0.00000000000E+00 0.  1.
        -13    1    3    3    0    0  0.74229951245E+02  0.47248844186E+02 -0.23788534809E+01  0.88023848374E+02  0.00000000000E+00 0. -1.
         13    1    3    3    0    0 -0.20557474572E+02  0.16318714758E+02  0.29538592188E+02  0.39515043219E+02  0.00000000000E+00 0.  1.
         21    1    1    2  502  501 -0.12178059951E+02 -0.72080702904E+02  0.20201265701E+02  0.75842099201E+02  0.00000000000E+00 0.  1.
<scales pt_clust_5="13000.00000" pt_clust_6="13000.00000" pt_clust_7="13000.00000" pt_clust_8="13000.00000" pt_clust_9="73.10221"></scales>
<clustering>
<clus scale="   73.102">  1  9  2 -1</clus>
<clus scale="   90.760">  5  6 -1 -1</clus>
<clus scale="   92.774">  7  8 -1 -1</clus>
<clus scale="  103.001">  2  5  1 -1</clus>
<clus scale="  103.001">  2  5  1 -1</clus>
</clustering>
</event>
<event>
 9    1  0.1234700E-005  0.1016421E+03  0.7546771E-02  0.1278314E+00
         -1   -1    0    0    0  501 -0.00000000000E+00  0.00000000000E+00  0.15089231008E+03  0.15089231008E+03  0.00000000000E+00 0.  1.
          1   -1    0    0  502    0  0.00000000000E+00 -0.00000000000E+00 -0.24636081033E+03  0.24636081033E+03  0.00000000000E+00 0. -1.
         23    2    1    2    0    0  0.39111033811E+02 -0.45984587345E+01  0.11257320252E+03  0.15141710405E+03  0.93293058063E+02 0.  0.
         23    2    1    2    0    0 -0.49384212078E+02 -0.13285412079E+02 -0.13701411932E+03  0.17187461671E+03  0.90292371778E+02 0.  0.
        -11    1    4    4    0    0  0.98352001360E+01 -0.36572687245E+02 -0.34578480346E+02  0.51283173820E+02  0.00000000000E+00 0.  1.
         11    1    4    4    0    0 -0.59219412214E+02  0.23287275166E+02 -0.10243563897E+03  0.12059144289E+03  0.00000000000E+00 0. -1.
        -11    1    3    3    0    0  0.60849151045E+02  0.19774599913E+02  0.94408855697E+02  0.11404685887E+03  0.00000000000E+00 0.  1.
         11    1    3    3    0    0 -0.21738117235E+02 -0.24373058647E+02  0.18164346828E+02  0.37370245175E+02  0.00000000000E+00 0. -1.
         21    1    1    2  502  501  0.10273178267E+02  0.17883870813E+02 -0.71027583460E+02  0.73961399657E+02  0.00000000000E+00 0.  1.
<scales pt_clust_5="13000.00000" pt_clust_6="13000.00000" pt_clust_7="13000.00000" pt_clust_8="13000.00000" pt_clust_9="20.62452"></scales>
<clustering>
<clus scale="   20.625">  2  9  1 -1</clus>
<clus scale="   90.292">  5  6 -1 -1</clus>
<clus scale="   93.293">  7  8 -1 -1</clus>
<clus scale="   98.895">  2  5  1 -1</clus>
<clus scale="   20.625">  2  5  1 -1</clus>
</clustering>
</event>
<event>
 9    1  0.1234700E-005  0.1263276E+03  0.7546771E-02  0.1235654E+00
          1   -1    0    0  502    0  0.00000000000E+00  0.00000000000E+00  0.90548146091E+02  0.90548146091E+02  0.00000000000E+00 0. -1.
         -1   -1    0    0    0  501 -0.00000000000E+00 -0.00000000000E+00 -0.61658163813E+03  0.61658163813E+03  0.00000000000E+00 0.  1.
         23    2    1    2    0    0 -0.60012338726E+02  0.55997707805E+02 -0.52835596071E+03  0.54390347460E+03  0.99668171388E+02 0.  0.
         23    2    1    2    0    0  0.14124624456E+02 -0.59114478899E+02 -0.21269464324E+02  0.11153515094E+03  0.91069606073E+02 0.  0.
        -13    1    4    4    0    0  0.30092023007E+02 -0.78677626293E+02 -0.16445519757E+02  0.85826300444E+02  0.00000000000E+00 0. -1.
         13    1    4    4    0    0 -0.15967398551E+02  0.19563147394E+02 -0.48239445670E+01  0.25708850492E+02  0.00000000000E+00 0.  1.
        -13    1    3    3    0    0  0.96254239049E+01  0.53099052622E+02 -0.31096621928E+03  0.31561392192E+03  0.00000000000E+00 0. -1.
         13    1    3    3    0    0 -0.69637762630E+02  0.28986551825E+01 -0.21738974143E+03  0.22828955269E+03  0.00000000000E+00 0.  1.
         21    1    1    2  502  501  0.45887714270E+02  0.31167710944E+01  0.23591932999E+02  0.51691158679E+02  0.00000000000E+00 0. -1.
<scales pt_clust_5="13000.00000" pt_clust_6="13000.00000" pt_clust_7="13000.00000" pt_clust_8="13000.00000" pt_clust_9="45.99344"></scales>
<clustering>
<clus scale="   45.993">  1  9  2 -1</clus>
<clus scale="   91.070">  5  6 -1 -1</clus>
<clus scale="   99.668">  7  8 -1 -1</clus>
<clus scale="  119.660">  1  5  2 -1</clus>
<clus scale="   45.993">  1  5  2 -1</clus>
</clustering>
</event>
<event>
 9    1  0.1234700E-005  0.1091329E+03  0.7546771E-02  0.1263465E+00
          1   -1    0    0  502    0  0.00000000000E+00  0.00000000000E+00  0.21456491929E+03  0.21456491929E+03  0.00000000000E+00 0. -1.
         -1   -1    0    0    0  501 -0.00000000000E+00 -0.00000000000E+00 -0.43664316140E+03  0.43664316140E+03  0.00000000000E+00 0.  1.
         23    2    1    2    0    0  0.56814261240E+01 -0.57896178591E+02 -0.35986936889E+03  0.37649568664E+03  0.94121162873E+02 0.  0.
         23    2    1    2    0    0 -0.23460468209E+02  0.38972039589E+02 -0.29114869519E+02  0.10579872091E+03  0.90975162993E+02 0.  0.
        -13    1    4    4    0    0  0.25595081140E+02 -0.12006464239E+02 -0.19629785500E+02  0.34417900007E+02  0.00000000000E+00 0.  1.
         13    1    4    4    0    0 -0.49055549349E+02  0.50978503828E+02 -0.94850840186E+01  0.71380820907E+02  0.00000000000E+00 0. -1.
        -13    1    3    3    0    0 -0.44054202259E+02 -0.22250955378E+02 -0.15260600361E+03  0.16038849737E+03  0.00000000000E+00 0. -1.
         13    1    3    3    0    0  0.49735628383E+02 -0.35645223213E+02 -0.20726336528E+03  0.21610718927E+03  0.00000000000E+00 0.  1.
         21    1    1    2  502  501  0.17779042085E+02  0.18924139002E+02  0.16690599629E+03  0.16891367313E+03  0.00000000000E+00 0.  1.
<scales pt_clust_5="13000.00000" pt_clust_6="13000.00000" pt_clust_7="13000.00000" pt_clust_8="13000.00000" pt_clust_9="25.96570"></scales>
<clustering>
<clus scale="   25.966">  1  9  2 -1</clus>
<clus scale="   90.975">  5  6 -1 -1</clus>
<clus scale="   94.121">  7  8 -1 -1</clus>
<clus scale="  106.432">  1  5  2 -1</clus>
<clus scale="   25.966">  1  5  2 -1</clus>
</clustering>
</event>
<event>
 9    1  0.1234700E-005  0.1172632E+03  0.7546771E-02  0.1248172E+00
          1   -1    0    0  502    0  0.00000000000E+00  0.00000000000E+00  0.17796260580E+03  0.17796260580E+03  0.00000000000E+00 0. -1.
         -1   -1    0    0    0  501 -0.00000000000E+00 -0.00000000000E+00 -0.29080285398E+03  0.29080285398E+03  0.00000000000E+00 0.  1.
         23    2    1    2    0    0  0.69628283235E+02  0.83048755905E+01 -0.19687102018E+03  0.22864093262E+03  0.92743779822E+02 0.  0.
         23    2    1    2    0    0 -0.79816673023E+02  0.52577110145E+02 -0.44446577173E+01  0.13224347629E+03  0.91288160427E+02 0.  0.
        -13    1    4    4    0    0  0.20546019784E+02  0.53447406017E+01  0.75887193400E-01  0.21229953837E+02  0.00000000000E+00 0.  1.
         13    1    4    4    0    0 -0.10036269281E+03  0.47232369543E+02 -0.45205449107E+01  0.11101352245E+03  0.00000000000E+00 0. -1.
        -13    1    3    3    0    0  0.92701113353E+02  0.88100289203E+01 -0.16090317336E+03  0.18590574015E+03  0.00000000000E+00 0.  1.
         13    1    3    3    0    0 -0.23072830117E+02 -0.50515332977E+00 -0.35967846826E+02  0.42735192462E+02  0.00000000000E+00 0. -1.
         21    1    1    2  502  501  0.10188389787E+02 -0.60881985736E+02  0.88475429721E+02  0.10788105088E+03  0.00000000000E+00 0. -1.
<scales pt_clust_5="13000.00000" pt_clust_6="13000.00000" pt_clust_7="13000.00000" pt_clust_8="13000.00000" pt_clust_9="61.72860"></scales>
<clustering>
<clus scale="   61.729">  1  9  2 -1</clus>
<clus scale="   91.288">  5  6 -1 -1</clus>
<clus scale="   92.744">  7  8 -1 -1</clus>
<clus scale="  116.115">  1  5  2 -1</clus>
<clus scale="   61.729">  1  5  2 -1</clus>
</clustering>
</event>
<event>
 9    1  0.1234700E-005  0.1314025E+03  0.7546771E-02  0.1226125E+00
         -2   -1    0    0    0  501 -0.00000000000E+00  0.00000000000E+00  0.71843101704E+02  0.71843101704E+02  0.00000000000E+00 0.  1.
          2   -1    0    0  502    0  0.00000000000E+00 -0.00000000000E+00 -0.42604358145E+03  0.42604358145E+03  0.00000000000E+00 0. -1.
         23    2    1    2    0    0  0.91915703555E+02  0.30205677797E+02 -0.22662766938E+02  0.13536536642E+03  0.91920084250E+02 0.  0.
         23    2    1    2    0    0 -0.84929246532E+02 -0.84529203645E+01 -0.26862188517E+03  0.29558556840E+03  0.89043148401E+02 0.  0.
        -11    1    4    4    0    0 -0.19354101471E+02  0.36252643659E+02 -0.12380545780E+03  0.13044779338E+03  0.00000000000E+00 0.  1.
         11    1    4    4    0    0 -0.65575145061E+02 -0.44705564023E+02 -0.14481642737E+03  0.16513777502E+03  0.00000000000E+00 0. -1.
        -13    1    3    3    0    0  0.36997644335E+02  0.30054568938E+02  0.32369573213E+02  0.57618504583E+02  0.00000000000E+00 0.  1.
         13    1    3    3    0    0  0.54918059220E+02  0.15110885980E+00 -0.55032340151E+02  0.77746861833E+02  0.00000000000E+00 0. -1.
         21    1    1    2  502  501 -0.69864570229E+01 -0.21752757433E+02 -0.62915827633E+02  0.66935748330E+02  0.00000000000E+00 0.  1.
<scales pt_clust_5="13000.00000" pt_clust_6="13000.00000" pt_clust_7="13000.00000" pt_clust_8="13000.00000" pt_clust_9="22.84717"></scales>
<clustering>
<clus scale="   22.847">  2  9  1 -1</clus>
<clus scale="   89.043">  5  6 -1 -1</clus>
<clus scale="   91.920">  7  8 -1 -1</clus>
<clus scale="  129.406">  2  5  1 -1</clus>
<clus scale="   22.847">  2  5  1 -1</clus>
</clustering>
</event>
<event>
 9    1  0.1234700E-005  0.1081480E+03  0.7546771E-02  0.1265224E+00
         -1   -1    0    0    0  501 -0.00000000000E+00  0.00000000000E+00  0.10935004593E+03  0.10935004593E+03  0.00000000000E+00 0.  1.
          1   -1    0    0  502    0  0.00000000000E+00 -0.00000000000E+00 -0.14502589934E+03  0.14502589934E+03  0.00000000000E+00 0. -1.
         23    2    1    2    0    0  0.25298325320E+02 -0.44140541103E+02  0.20827635946E+01  0.10597817121E+03  0.92944296409E+02 0.  0.
         23    2    1    2    0    0 -0.47201517039E+02  0.40131191960E+02 -0.58208413115E+01  0.10946390444E+03  0.90055362989E+02 0.  0.
        -13    1    3    3    0    0  0.34480568617E+02  0.18221962720E+02  0.14727553963E+02  0.41687532708E+02  0.00000000000E+00 0.  1.
         13    1    3    3    0    0 -0.91822432970E+01 -0.62362503822E+02 -0.12644790369E+02  0.64290638497E+02  0.00000000000E+00 0. -1.
        -13    1    4    4    0    0 -0.55155302699E+02 -0.34970091692E+01  0.19247406452E+02  0.58521783500E+02  0.00000000000E+00 0. -1.
         13    1    4    4    0    0  0.79537856597E+01  0.43628201130E+02 -0.25068247763E+02  0.50942120942E+02  0.00000000000E+00 0.  1.
         21    1    1    2  502  501  0.21903191719E+02  0.40093491423E+01 -0.31937775689E+02  0.38933869625E+02  0.00000000000E+00 0. -1.
<scales pt_clust_5="13000.00000" pt_clust_6="13000.00000" pt_clust_7="13000.00000" pt_clust_8="13000.00000" pt_clust_9="22.26712"></scales>
<clustering>
<clus scale="   22.267">  2  9  1 -1</clus>
<clus scale="   90.055">  7  8 -1 -1</clus>
<clus scale="   92.944">  5  6 -1 -1</clus>
<clus scale="  105.676">  2  7  1 -1</clus>
<clus scale="   22.267">  2  5  1 -1</clus>
</clustering>
</event>
<event>
 9    1  0.1234700E-005  0.1772373E+03  0.7546771E-02  0.1172936E+00
         -2   -1    0    0    0  501 -0.00000000000E+00  0.00000000000E+00  0.24695926362E+02  0.24695926362E+02  0.00000000000E+00 0.  1.
          2   -1    0    0  502    0  0.00000000000E+00 -0.00000000000E+00 -0.16049742635E+04  0.16049742635E+04  0.00000000000E+00 0. -1.
         23    2    1    2    0    0  0.15742248825E+03  0.47876467247E+02 -0.60509364538E+03  0.63108784027E+03  0.71130489490E+02 0.  0.
         23    2    1    2    0    0 -0.12177552758E+03 -0.68734517149E+02 -0.66522726521E+03  0.68588541912E+03  0.91420899275E+02 0.  0.
        -13    1    3    3    0    0  0.11518398330E+03  0.13518200556E+02 -0.49317230679E+03  0.50662512367E+03  0.00000000000E+00 0. -1.
         13    1    3    3    0    0  0.42238504948E+02  0.34358266691E+02 -0.11192133860E+03  0.12446271660E+03  0.00000000000E+00 0.  1.
        -13    1    4    4    0    0 -0.10822621104E+03 -0.14981388188E+02 -0.38370413972E+03  0.39895641565E+03  0.00000000000E+00 0.  1.
         13    1    4    4    0    0 -0.13549316549E+02 -0.53753128961E+02 -0.28152312548E+03  0.28692900347E+03  0.00000000000E+00 0. -1.
         21    1    1    2  502  501 -0.35646960664E+02  0.20858049902E+02 -0.30995742651E+03  0.31269693043E+03  0.00000000000E+00 0. -1.
<scales pt_clust_5="13000.00000" pt_clust_6="13000.00000" pt_clust_7="13000.00000" pt_clust_8="13000.00000" pt_clust_9="41.30090"></scales>
<clustering>
<clus scale="   41.301">  2  9  1 -1</clus>
<clus scale="   71.130">  5  6 -1 -1</clus>
<clus scale="   91.421">  7  8 -1 -1</clus>
<clus scale="  167.675">  1  5  2 -1</clus>
<clus scale="   41.301">  2  5  1 -1</clus>
</clustering>
</event>
<event>
 9    1  0.1234700E-005  0.9831158E+02  0.7546771E-02  0.1284189E+00
          1   -1    0    0  502    0  0.00000000000E+00  0.00000000000E+00  0.15905812562E+03  0.15905812562E+03  0.00000000000E+00 0. -1.
         -1   -1    0    0    0  501 -0.00000000000E+00 -0.00000000000E+00 -0.11798267545E+03  0.11798267545E+03  0.00000000000E+00 0.  1.
         23    2    1    2    0    0 -0.36875092941E+02 -0.15342760175E+02 -0.33544238405E+02  0.10406521808E+03  0.90050990639E+02 0.  0.
         23    2    1    2    0    0  0.16194617126E+02  0.39657985997E+02  0.98303859721E+01  0.10074978415E+03  0.90657934235E+02 0.  0.
        -11    1    3    3    0    0  0.28810071447E+02 -0.49676757204E+01 -0.21960202035E+02  0.36564306260E+02  0.00000000000E+00 0.  1.
         11    1    3    3    0    0 -0.65685164389E+02 -0.10375084454E+02 -0.11584036371E+02  0.67500911822E+02  0.00000000000E+00 0. -1.
        -13    1    4    4    0    0 -0.29043866801E+02  0.23534268974E+02 -0.21770920239E+02  0.43259461196E+02  0.00000000000E+00 0. -1.
         13    1    4    4    0    0  0.45238483927E+02  0.16123717023E+02  0.31601306211E+02  0.57490322950E+02  0.00000000000E+00 0.  1.
         21    1    1    2  502  501  0.20680475815E+02 -0.24315225822E+02  0.64789302603E+02  0.72225798843E+02  0.00000000000E+00 0.  1.
<scales pt_clust_5="13000.00000" pt_clust_6="13000.00000" pt_clust_7="13000.00000" pt_clust_8="13000.00000" pt_clust_9="31.92041"></scales>
<clustering>
<clus scale="   31.920">  1  9  2 -1</clus>
<clus scale="   90.051">  5  6 -1 -1</clus>
<clus scale="   90.658">  7  8 -1 -1</clus>
<clus scale="   97.752">  2  5  1 -1</clus>
<clus scale="   31.920">  1  5  2 -1</clus>
</clustering>
</event>
<event>
 9    1  0.1234700E-005  0.1161215E+03  0.7546771E-02  0.1250667E+00
          2   -1    0    0  502    0  0.00000000000E+00  0.00000000000E+00  0.90864691512E+03  0.90864691512E+03  0.00000000000E+00 0. -1.
         -2   -1    0    0    0  501 -0.00000000000E+00 -0.00000000000E+00 -0.19088707360E+02  0.19088707360E+02  0.00000000000E+00 0.  1.
         23    2    1    2    0    0  0.54829621731E+02 -0.26381291119E+02  0.28518006783E+03  0.30571337855E+03  0.91819054638E+02 0.  0.
         23    2    1    2    0    0 -0.74415041574E+02  0.21726374147E+02  0.45056272781E+03  0.46689507697E+03  0.94734404878E+02 0.  0.
        -11    1    3    3    0    0  0.68198040906E+02  0.46169399397E+01  0.23852596730E+03  0.24812683449E+03  0.00000000000E+00 0.  1.
         11    1    3    3    0    0 -0.13368419175E+02 -0.30998231059E+02  0.46654100529E+02  0.57586544055E+02  0.00000000000E+00 0. -1.
        -13    1    4    4    0    0 -0.32464597450E+02 -0.34518955576E+02  0.24898776256E+03  0.25345692787E+03  0.00000000000E+00 0.  1.
         13    1    4    4    0    0 -0.41950444124E+02  0.56245329722E+02  0.20157496525E+03  0.21343814910E+03  0.00000000000E+00 0. -1.
         21    1    1    2  502  501  0.19585419843E+02  0.46549169726E+01  0.15381541212E+03  0.15512716696E+03  0.00000000000E+00 0.  1.
<scales pt_clust_5="13000.00000" pt_clust_6="13000.00000" pt_clust_7="13000.00000" pt_clust_8="13000.00000" pt_clust_9="20.13099"></scales>
<clustering>
<clus scale="   20.131">  1  9  2 -1</clus>
<clus scale="   91.819">  5  6 -1 -1</clus>
<clus scale="   94.734">  7  8 -1 -1</clus>
<clus scale="  113.756">  2  5  1 -1</clus>
<clus scale="   20.131">  1  5  2 -1</clus>
</clustering>
</event>
<event>
 9    1  0.1234700E-005  0.1641639E+03  0.7546771E-02  0.1184323E+00
          1   -1    0    0  502    0  0.00000000000E+00  0.00000000000E+00  0.59775926826E+03  0.59775926826E+03  0.00000000000E+00 0. -1.
         -1   -1    0    0    0  501 -0.00000000000E+00 -0.00000000000E+00 -0.54556591490E+02  0.54556591490E+02  0.00000000000E+00 0.  1.
         23    2    1    2    0    0 -0.99016148907E+02  0.79137719239E+02  0.21324498888E+03  0.26426480690E+03  0.91079561556E+02 0.  0.
         23    2    1    2    0    0  0.12207090997E+03 -0.79600970675E+02  0.24325157293E+03  0.29833100503E+03  0.92695411073E+02 0.  0.
        -11    1    4    4    0    0  0.10409706025E+02 -0.30942403402E+02  0.83019271661E+01  0.33685550352E+02  0.00000000000E+00 0.  1.
         11    1    4    4    0    0  0.11166120395E+03 -0.48658567273E+02  0.23494964576E+03  0.26464545468E+03  0.00000000000E+00 0. -1.
        -13    1    3    3    0    0 -0.84535151227E+02  0.98851997485E+02  0.16434690985E+03  0.20958963709E+03  0.00000000000E+00 0.  1.
         13    1    3    3    0    0 -0.14480997680E+02 -0.19714278246E+02  0.48898079037E+02  0.54675169813E+02  0.00000000000E+00 0. -1.
         21    1    1    2  502  501 -0.23054761065E+02  0.46325143583E+00  0.86706114955E+02  0.89720047817E+02  0.00000000000E+00 0.  1.
<scales pt_clust_5="13000.00000" pt_clust_6="13000.00000" pt_clust_7="13000.00000" pt_clust_8="13000.00000" pt_clust_9="23.05941"></scales>
<clustering>
<clus scale="   23.059">  1  9  2 -1</clus>
<clus scale="   91.080">  7  8 -1 -1</clus>
<clus scale="   92.695">  5  6 -1 -1</clus>
<clus scale="  163.257">  2  7  1 -1</clus>
<clus scale="   23.059">  1  5  2 -1</clus>
</clustering>
</event>
<event>
 9    1  0.1234700E-005  0.1139205E+03  0.7546771E-02  0.1254302E+00
          3   -1    0    0  502    0  0.00000000000E+00  0.00000000000E+00  0.35944904941E+03  0.35944904941E+03  0.00000000000E+00 0. -1.
         -3   -1    0    0    0  501 -0.00000000000E+00 -0.00000000000E+00 -0.72582467316E+02  0.72582467316E+02  0.00000000000E+00 0.  1.
         23    2    1    2    0    0  0.34852301097E+02  0.50189319351E+02  0.18981438879E+02  0.11077382725E+03  0.90426185992E+02 0.  0.
         23    2    1    2    0    0 -0.33567721978E+02 -0.85676892922E+02  0.14339630472E+03  0.19180310698E+03  0.88082970529E+02 0.  0.
        -11    1    4    4    0    0  0.24750542492E+02 -0.58130466560E+01  0.14254344556E+02  0.29147336136E+02  0.00000000000E+00 0. -1.
         11    1    4    4    0    0 -0.58318264470E+02 -0.79863846266E+02  0.12914196017E+03  0.16265577084E+03  0.00000000000E+00 0.  1.
        -11    1    3    3    0    0  0.32318410106E+02 -0.42827328564E+01 -0.24702825314E+02  0.40902946239E+02  0.00000000000E+00 0.  1.
         11    1    3    3    0    0  0.25338909910E+01  0.54472052207E+02  0.43684264193E+02  0.69870881011E+02  0.00000000000E+00 0. -1.
         21    1    1    2  502  501 -0.12845791189E+01  0.35487573571E+02  0.12448883849E+03  0.12945458250E+03  0.00000000000E+00 0. -1.
<scales pt_clust_5="13000.00000" pt_clust_6="13000.00000" pt_clust_7="13000.00000" pt_clust_8="13000.00000" pt_clust_9="35.51082"></scales>
<clustering>
<clus scale="   35.511">  1  9  2 -1</clus>
<clus scale="   88.083">  5  6 -1 -1</clus>
<clus scale="   90.426">  7  8 -1 -1</clus>
<clus scale="  112.070">  1  5  2 -1</clus>
<clus scale="   35.511">  1  5  2 -1</clus>
</clustering>
</event>
<event>
 9    1  0.1234700E-005  0.1072011E+03  0.7546771E-02  0.1266713E+00
          1   -1    0    0  502    0  0.00000000000E+00  0.00000000000E+00  0.75745375625E+02  0.75745375625E+02  0.00000000000E+00 0. -1.
         -1   -1    0    0    0  501 -0.00000000000E+00 -0.00000000000E+00 -0.30595768232E+03  0.30595768232E+03  0.00000000000E+00 0.  1.
         23    2    1    2    0    0 -0.52898319152E+02 -0.17251999080E+02 -0.22524199281E+03  0.24861742735E+03  0.89335358153E+02 0.  0.
         23    2    1    2    0    0  0.46877647906E+02  0.38674409572E+02  0.18241728537E+01  0.10981906223E+03  0.91453130031E+02 0.  0.
        -13    1    3    3    0    0 -0.45727943677E+02 -0.51420975949E+02 -0.12844311205E+03  0.14571477150E+03  0.00000000000E+00 0.  1.
         13    1    3    3    0    0 -0.71703754751E+01  0.34168976869E+02 -0.96798880757E+02  0.10290265585E+03  0.00000000000E+00 0. -1.
        -13    1    4    4    0    0 -0.10824118893E+02  0.17007989009E+02 -0.33263592315E+02  0.38896012825E+02  0.00000000000E+00 0.  1.
         13    1    4    4    0    0  0.57701766799E+02  0.21666420563E+02  0.35087765169E+02  0.70923049401E+02  0.00000000000E+00 0. -1.
         21    1    1    2  502  501  0.60206712456E+01 -0.21422410492E+02 -0.67944867360E+01  0.23266568366E+02  0.00000000000E+00 0.  1.
<scales pt_clust_5="13000.00000" pt_clust_6="13000.00000" pt_clust_7="13000.00000" pt_clust_8="13000.00000" pt_clust_9="22.25237"></scales>
<clustering>
<clus scale="   22.252">  1  9  2 -1</clus>
<clus scale="   89.335">  5  6 -1 -1</clus>
<clus scale="   91.453">  7  8 -1 -1</clus>
<clus scale="  105.400">  2  5  1 -1</clus>
<clus scale="   22.252">  1  5  2 -1</clus>
</clustering>
</event>
<event>
 9    1  0.1234700E-005  0.1040332E+03  0.7546771E-02  0.1272101E+00
         -2   -1    0    0    0  501 -0.00000000000E+00  0.00000000000E+00  0.63517883921E+02  0.63517883921E+02  0.00000000000E+00 0.  1.
          2   -1    0    0  502    0  0.00000000000E+00 -0.00000000000E+00 -0.27850954908E+03  0.27850954908E+03  0.00000000000E+00 0. -1.
         23    2    1    2    0    0  0.41235754479E+01 -0.42381712002E+02 -0.24674173867E+02  0.10419073831E+03  0.91835078843E+02 0.  0.
         23    2    1    2    0    0 -0.24198193011E+02  0.59423757888E+02 -0.12797903990E+03  0.17016466118E+03  0.91981746632E+02 0.  0.
        -13    1    3    3    0    0 -0.27823369508E+02 -0.58987019541E+02 -0.15548127848E+02  0.67047391036E+02  0.00000000000E+00 0. -1.
         13    1    3    3    0    0  0.31946944956E+02  0.16605307539E+02 -0.91260460190E+01  0.37143347270E+02  0.00000000000E+00 0.  1.
        -13    1    4    4    0    0  0.18383554684E+02 -0.13400160782E+02 -0.93422303997E+01  0.24592613945E+02  0.00000000000E+00 0.  1.
         13    1    4    4    0    0 -0.42581747695E+02  0.72823918670E+02 -0.11863680950E+03  0.14557204723E+03  0.00000000000E+00 0. -1.
         21    1    1    2  502  501  0.20074617563E+02 -0.17042045886E+02 -0.62338451391E+02  0.67672033516E+02  0.00000000000E+00 0. -1.
<scales pt_clust_5="13000.00000" pt_clust_6="13000.00000" pt_clust_7="13000.00000" pt_clust_8="13000.00000" pt_clust_9="26.33290"></scales>
<clustering>
<clus scale="   26.333">  2  9  1 -1</clus>
<clus scale="   91.835">  5  6 -1 -1</clus>
<clus scale="   91.982">  7  8 -1 -1</clus>
<clus scale="  103.904">  1  5  2 -1</clus>
<clus scale="   26.333">  2  5  1 -1</clus>
</clustering>
</event>
<event>
 9    1  0.1234700E-005  0.1280895E+03  0.7546771E-02  0.1231359E+00
         -1   -1    0    0    0  501 -0.00000000000E+00  0.00000000000E+00  0.14319630210E+03  0.14319630210E+03  0.00000000000E+00 0.  1.
          1   -1    0    0  502    0  0.00000000000E+00 -0.00000000000E+00 -0.24688193349E+03  0.24688193349E+03  0.00000000000E+00 0. -1.
         23    2    1    2    0    0  0.87983675107E+02  0.35864904003E+02  0.20446683923E+02  0.13556375188E+03  0.94509499608E+02 0.  0.
         23    2    1    2    0    0 -0.36570355786E+02 -0.82777690891E+02 -0.20705719758E+02  0.12985013578E+03  0.90789833685E+02 0.  0.
        -11    1    4    4    0    0 -0.63939305548E+02 -0.62851552494E+02  0.94829406436E+00  0.89662989614E+02  0.00000000000E+00 0.  1.
         11    1    4    4    0    0  0.27368949763E+02 -0.19926138397E+02 -0.21654013822E+02  0.40187146168E+02  0.00000000000E+00 0. -1.
        -11    1    3    3    0    0  0.95113786389E+02 -0.17319364643E+00  0.36888742874E+01  0.95185451361E+02  0.00000000000E+00 0. -1.
         11    1    3    3    0    0 -0.71301112821E+01  0.36038097649E+02  0.16757809636E+02  0.40378300520E+02  0.00000000000E+00 0.  1.
         21    1    1    2  502  501 -0.51413319321E+02  0.46912786888E+02 -0.10342659555E+03  0.12466434793E+03  0.00000000000E+00 0.  1.
<scales pt_clust_5="13000.00000" pt_clust_6="13000.00000" pt_clust_7="13000.00000" pt_clust_8="13000.00000" pt_clust_9="69.59985"></scales>
<clustering>
<clus scale="   69.600">  2  9  1 -1</clus>
<clus scale="   90.790">  5  6 -1 -1</clus>
<clus scale="   94.509">  7  8 -1 -1</clus>
<clus scale="  125.370">  2  5  1 -1</clus>
<clus scale="   69.600">  2  5  1 -1</clus>
</clustering>
</event>
<event>
 9    1  0.1234700E-005  0.1045103E+03  0.7546771E-02  0.1278103E+00
         -3   -1    0    0    0  501 -0.00000000000E+00  0.00000000000E+00  0.14644574482E+03  0.14644574482E+03  0.00000000000E+00 0.  1.
          3   -1    0    0  502    0  0.00000000000E+00 -0.00000000000E+00 -0.14806136813E+03  0.14806136813E+03  0.00000000000E+00 0. -1.
         23    2    1    2    0    0 -0.46672467243E+02 -0.14537437131E+02  0.52705948873E+02  0.11926667224E+03  0.95168092260E+02 0.  0.
         23    2    1    2    0    0  0.10953831871E+01  0.58634918205E+02 -0.50627492171E+02  0.11171481867E+03  0.80484807571E+02 0.  0.
        -13    1    4    4    0    0  0.22912121669E+02 -0.98480070400E+01 -0.21735916907E+01  0.25033438894E+02  0.00000000000E+00 0.  1.
         13    1    4    4    0    0 -0.21816738482E+02  0.68482925245E+02 -0.48453900480E+02  0.86681379776E+02  0.00000000000E+00 0. -1.
        -13    1    3    3    0    0 -0.16339553249E+02 -0.51474281700E+02  0.46121790692E+02  0.71019731439E+02  0.00000000000E+00 0.  1.
         13    1    3    3    0    0 -0.30332913994E+02  0.36936844569E+02  0.65841581810E+01  0.48246940805E+02  0.00000000000E+00 0. -1.
         21    1    1    2  502  501  0.45577084056E+02 -0.44097481074E+02 -0.36940800149E+01  0.63525622037E+02  0.00000000000E+00 0.  1.
<scales pt_clust_5="13000.00000" pt_clust_6="13000.00000" pt_clust_7="13000.00000" pt_clust_8="13000.00000" pt_clust_9="63.41812"></scales>
<clustering>
<clus scale="   63.418">  2  9  1 -1</clus>
<clus scale="   80.485">  5  6 -1 -1</clus>
<clus scale="   91.341">  2  5  1 -1</clus>
<clus scale="   95.168">  7  8 -1 -1</clus>
<clus scale="   63.418">  2  5  1 -1</clus>
</clustering>
</event>
<event>
 9    1  0.1234700E-005  0.1002774E+03  0.7546771E-02  0.1279879E+00
         -1   -1    0    0    0  501 -0.00000000000E+00  0.00000000000E+00  0.60248296253E+02  0.60248296253E+02  0.00000000000E+00 0.  1.
          1   -1    0    0  502    0  0.00000000000E+00 -0.00000000000E+00 -0.39708690671E+03  0.39708690671E+03  0.00000000000E+00 0. -1.
         23    2    1    2    0    0 -0.37436010685E+01 -0.19766858716E+02 -0.42947975200E+02  0.10403737247E+03  0.92598612543E+02 0.  0.
         23    2    1    2    0    0  0.27479717859E+02  0.61874467298E+02 -0.96610678061E+02  0.15018250499E+03  0.92938566232E+02 0.  0.
        -13    1    4    4    0    0  0.12619190979E+02 -0.22630508219E+02 -0.86808326373E+01  0.27326557385E+02  0.00000000000E+00 0. -1.
         13    1    4    4    0    0  0.14860526880E+02  0.84504975517E+02 -0.87929845424E+02  0.12285594761E+03  0.00000000000E+00 0.  1.
        -13    1    3    3    0    0 -0.33159129405E+02 -0.33221214050E+02 -0.52389783065E+02  0.70341071185E+02  0.00000000000E+00 0. -1.
         13    1    3    3    0    0  0.29415528336E+02  0.13454355334E+02  0.94418078645E+01  0.33696301288E+02  0.00000000000E+00 0.  1.
         21    1    1    2  502  501 -0.23736116790E+02 -0.42107608582E+02 -0.19727995720E+03  0.20311532550E+03  0.00000000000E+00 0. -1.
<scales pt_clust_5="13000.00000" pt_clust_6="13000.00000" pt_clust_7="13000.00000" pt_clust_8="13000.00000" pt_clust_9="48.33688"></scales>
<clustering>
<clus scale="   48.337">  2  9  1 -1</clus>
<clus scale="   92.599">  7  8 -1 -1</clus>
<clus scale="   92.939">  5  6 -1 -1</clus>
<clus scale="   99.962">  1  7  2 -1</clus>
<clus scale="   48.337">  2  5  1 -1</clus>
</clustering>
</event>
<event>
 9    1  0.1234700E-005  0.1211499E+03  0.7546771E-02  0.1241798E+00
         -1   -1    0    0    0  501 -0.00000000000E+00  0.00000000000E+00  0.23751788317E+03  0.23751788317E+03  0.00000000000E+00 0.  1.
          1   -1    0    0  502    0  0.00000000000E+00 -0.00000000000E+00 -0.16198501406E+03  0.16198501406E+03  0.00000000000E+00 0. -1.
         23    2    1    2    0    0 -0.74914856898E+02 -0.30985843209E+02  0.17127014732E+03  0.21104805926E+03  0.92927184881E+02 0.  0.
         23    2    1    2    0    0  0.64652481187E+02 -0.88875036339E+01 -0.95613734617E+02  0.14728184431E+03  0.91055062309E+02 0.  0.
        -13    1    3    3    0    0 -0.86221125135E+02 -0.73353057237E+01  0.86642223270E+02  0.12245310932E+03  0.00000000000E+00 0.  1.
         13    1    3    3    0    0  0.11306268238E+02 -0.23650537485E+02  0.84627924053E+02  0.88594949937E+02  0.00000000000E+00 0. -1.
        -13    1    4    4    0    0  0.10957316401E+02  0.30216867247E+02 -0.16166184722E+01  0.32182841767E+02  0.00000000000E+00 0.  1.
         13    1    4    4    0    0  0.53695164786E+02 -0.39104370881E+02 -0.93997116145E+02  0.11509900255E+03  0.00000000000E+00 0. -1.
         21    1    1    2  502  501  0.10262375711E+02  0.39873346843E+02 -0.12354359010E+00  0.41172993657E+02  0.00000000000E+00 0. -1.
<scales pt_clust_5="13000.00000" pt_clust_6="13000.00000" pt_clust_7="13000.00000" pt_clust_8="13000.00000" pt_clust_9="41.17281"></scales>
<clustering>
<clus scale="   41.173">  2  9  1 -1</clus>
<clus scale="   91.055">  7  8 -1 -1</clus>
<clus scale="   92.927">  5  6 -1 -1</clus>
<clus scale="  119.720">  2  7  1 -1</clus>
<clus scale="   41.173">  2  5  1 -1</clus>
</clustering>
</event>
<event>
 9    1  0.1234700E-005  0.1146505E+03  0.7546771E-02  0.1252491E+00
         -1   -1    0    0    0  501 -0.00000000000E+00  0.00000000000E+00  0.32304307036E+02  0.32304307036E+02  0.00000000000E+00 0.  1.
          1   -1    0    0  502    0  0.00000000000E+00 -0.00000000000E+00 -0.51775916582E+03  0.51775916582E+03  0.00000000000E+00 0. -1.
         23    2    1    2    0    0 -0.17541221164E+02 -0.73099297793E+02 -0.15741068294E+03  0.19727158735E+03  0.92123581630E+02 0.  0.
         23    2    1    2    0    0  0.84703004658E+01  0.54347954428E+02 -0.25753649929E+03  0.27927163705E+03  0.92963179029E+02 0.  0.
        -11    1    3    3    0    0  0.22628927559E+02 -0.37071914786E+02 -0.16635863748E+02  0.46509646214E+02  0.00000000000E+00 0.  1.
         11    1    3    3    0    0 -0.40170148724E+02 -0.36027383007E+02 -0.14077481920E+03  0.15076194113E+03  0.00000000000E+00 0. -1.
        -11    1    4    4    0    0 -0.35532336090E+02  0.11779138663E+02 -0.47406653275E+02  0.60404352413E+02  0.00000000000E+00 0. -1.
         11    1    4    4    0    0  0.44002636556E+02  0.42568815765E+02 -0.21012984601E+03  0.21886728464E+03  0.00000000000E+00 0.  1.
         21    1    1    2  502  501  0.90709206987E+01  0.18751343365E+02 -0.70507676553E+02  0.73520248457E+02  0.00000000000E+00 0. -1.
<scales pt_clust_5="13000.00000" pt_clust_6="13000.00000" pt_clust_7="13000.00000" pt_clust_8="13000.00000" pt_clust_9="20.83013"></scales>
<clustering>
<clus scale="   20.830">  2  9  1 -1</clus>
<clus scale="   92.124">  5  6 -1 -1</clus>
<clus scale="   92.963">  7  8 -1 -1</clus>
<clus scale="  113.971">  1  5  2 -1</clus>
<clus scale="   20.830">  2  5  1 -1</clus>
</clustering>
</event>
<event>
 9    1  0.1234700E-005  0.9484608E+02  0.7546771E-02  0.1292630E+00
          1   -1    0    0  502    0  0.00000000000E+00  0.00000000000E+00  0.21364576948E+03  0.21364576948E+03  0.00000000000E+00 0. -1.
         -1   -1    0    0    0  501 -0.00000000000E+00 -0.00000000000E+00 -0.23722502760E+03  0.23722502760E+03  0.00000000000E+00 0.  1.
         23    2    1    2    0    0  0.15437030180E+02  0.20772236146E+02 -0.18975967337E+03  0.21107546157E+03  0.88737416828E+02 0.  0.
         23    2    1    2    0    0 -0.36052011063E+02 -0.19783748036E+02  0.32918520935E+02  0.10494472549E+03  0.90766856282E+02 0.  0.
        -11    1    4    4    0    0 -0.44038406903E+02 -0.48884331057E+02  0.35313397080E+02  0.74673255713E+02  0.00000000000E+00 0. -1.
         11    1    4    4    0    0  0.79863958402E+01  0.29100583020E+02 -0.23948761446E+01  0.30271469776E+02  0.00000000000E+00 0.  1.
        -13    1    3    3    0    0 -0.30411481259E+02  0.33106345385E+02 -0.91685065274E+02  0.10211287623E+03  0.00000000000E+00 0.  1.
         13    1    3    3    0    0  0.45848511440E+02 -0.12334109239E+02 -0.98074608093E+02  0.10896258534E+03  0.00000000000E+00 0. -1.
         21    1    1    2  502  501  0.20614980883E+02 -0.98848810984E+00  0.13326189432E+03  0.13485061002E+03  0.00000000000E+00 0. -1.
<scales pt_clust_5="13000.00000" pt_clust_6="13000.00000" pt_clust_7="13000.00000" pt_clust_8="13000.00000" pt_clust_9="20.63867"></scales>
<clustering>
<clus scale="   20.639">  1  9  2 -1</clus>
<clus scale="   88.737">  7  8 -1 -1</clus>
<clus scale="   90.767">  5  6 -1 -1</clus>
<clus scale="   92.906">  2  7  1 -1</clus>
<clus scale="   20.639">  1  5  2 -1</clus>
</clustering>
</event>
<event>
 9    1  0.1234700E-005  0.1501487E+03  0.7546771E-02  0.1201332E+00
         -1   -1    0    0    0  501 -0.00000000000E+00  0.00000000000E+00  0.95427742181E+02  0.95427742181E+02  0.00000000000E+00 0.  1.
          1   -1    0    0  502    0  0.00000000000E+00 -0.00000000000E+00 -0.34657989587E+03  0.34657989587E+03  0.00000000000E+00 0. -1.
         23    2    1    2    0    0 -0.38587196500E+02  0.10698690288E+03 -0.19998517291E+02  0.14304213279E+03  0.84415294450E+02 0.  0.
         23    2    1    2    0    0  0.40760137838E+02 -0.13151067576E+03 -0.19393813627E+03  0.25434341925E+03  0.90122846941E+02 0.  0.
        -11    1    3    3    0    0 -0.29682489201E+02  0.30082800123E+02  0.29151261828E+02  0.51340248291E+02  0.00000000000E+00 0. -1.
         11    1    3    3    0    0 -0.89047072997E+01  0.76904102755E+02 -0.49149779119E+02  0.91701884496E+02  0.00000000000E+00 0.  1.
        -13    1    4    4    0    0 -0.23273211853E+02 -0.51745794311E+02 -0.39616982191E+02  0.69200974680E+02  0.00000000000E+00 0.  1.
         13    1    4    4    0    0  0.64033349690E+02 -0.79764881450E+02 -0.15432115408E+03  0.18514244457E+03  0.00000000000E+00 0. -1.
         21    1    1    2  502  501 -0.21729413374E+01  0.24523772884E+02 -0.37215500131E+02  0.44622086017E+02  0.00000000000E+00 0. -1.
<scales pt_clust_5="13000.00000" pt_clust_6="13000.00000" pt_clust_7="13000.00000" pt_clust_8="13000.00000" pt_clust_9="24.61985"></scales>
<clustering>
<clus scale="   24.620">  2  9  1 -1</clus>
<clus scale="   84.415">  5  6 -1 -1</clus>
<clus scale="   90.123">  7  8 -1 -1</clus>
<clus scale="  146.794">  1  5  2 -1</clus>
<clus scale="   24.620">  2  5  1 -1</clus>
</clustering>
</event>
<event>
 9    1  0.1234700E-005  0.1097908E+03  0.7546771E-02  0.1261551E+00
         -2   -1    0    0    0  501 -0.00000000000E+00  0.00000000000E+00  0.45683341986E+02  0.45683341986E+02  0.00000000000E+00 0.  1.
          2   -1    0    0  502    0  0.00000000000E+00 -0.00000000000E+00 -0.41605117897E+03  0.41605117897E+03  0.00000000000E+00 0. -1.
         23    2    1    2    0    0  0.38920967291E+02 -0.37139608046E+02 -0.10837121597E+03  0.15147588066E+03  0.91139617018E+02 0.  0.
         23    2    1    2    0    0 -0.60970728927E+02  0.26279631569E+02 -0.11755397783E+03  0.16373967139E+03  0.92648224290E+02 0.  0.
        -11    1    4    4    0    0 -0.71935836905E+02  0.48554515703E+02 -0.10399119763E+03  0.13544915951E+03  0.00000000000E+00 0.  1.
         11    1    4    4    0    0  0.10965107977E+02 -0.22274884134E+02 -0.13562780191E+02  0.28290511884E+02  0.00000000000E+00 0. -1.
        -11    1    3    3    0    0 -0.15980536729E+02  0.20454777994E+02 -0.21850587154E+02  0.33929686941E+02  0.00000000000E+00 0.  1.
         11    1    3    3    0    0  0.54901504020E+02 -0.57594386041E+02 -0.86520628821E+02  0.11754619372E+03  0.00000000000E+00 0. -1.
         21    1    1    2  502  501  0.22049761636E+02  0.10859976478E+02 -0.14444264318E+03  0.14651896890E+03  0.00000000000E+00 0. -1.
<scales pt_clust_5="13000.00000" pt_clust_6="13000.00000" pt_clust_7="13000.00000" pt_clust_8="13000.00000" pt_clust_9="24.57908"></scales>
<clustering>
<clus scale="   24.579">  2  9  1 -1</clus>
<clus scale="   91.140">  7  8 -1 -1</clus>
<clus scale="   92.648">  5  6 -1 -1</clus>
<clus scale="  108.521">  1  7  2 -1</clus>
<clus scale="   24.579">  2  5  1 -1</clus>
</clustering>
</event>
<event>
 9    1  0.1234700E-005  0.1264784E+03  0.7546771E-02  0.1233289E+00
         -1   -1    0    0    0  501 -0.00000000000E+00  0.00000000000E+00  0.41475786041E+02  0.41475786041E+02  0.00000000000E+00 0.  1.
          1   -1    0    0  502    0  0.00000000000E+00 -0.00000000000E+00 -0.54710038100E+03  0.54710038100E+03  0.00000000000E+00 0. -1.
         23    2    1    2    0    0 -0.51400639875E+02 -0.66001987644E+02 -0.11726652454E+03  0.17089309479E+03  0.91949572676E+02 0.  0.
         23    2    1    2    0    0  0.42677272630E+02  0.85984124298E+02 -0.34140350431E+03  0.36591325286E+03  0.90119568558E+02 0.  0.
        -11    1    4    4    0    0  0.31744209176E+01  0.46861565731E+02 -0.27646341299E+03  0.28042485984E+03  0.00000000000E+00 0. -1.
         11    1    4    4    0    0  0.39502851713E+02  0.39122558567E+02 -0.64940091316E+02  0.85488393027E+02  0.00000000000E+00 0.  1.
        -13    1    3    3    0    0 -0.73065936749E+02 -0.71210309507E+02 -0.96069381273E+02  0.14013873594E+03  0.00000000000E+00 0.  1.
         13    1    3    3    0    0  0.21665296874E+02  0.52083218629E+01 -0.21197143271E+02  0.30754358848E+02  0.00000000000E+00 0. -1.
         21    1    1    2  502  501  0.87233672447E+01 -0.19982136655E+02 -0.46954566109E+02  0.51769819392E+02  0.00000000000E+00 0. -1.
<scales pt_clust_5="13000.00000" pt_clust_6="13000.00000" pt_clust_7="13000.00000" pt_clust_8="13000.00000" pt_clust_9="21.80328"></scales>
<clustering>
<clus scale="   21.803">  2  9  1 -1</clus>
<clus scale="   90.120">  5  6 -1 -1</clus>
<clus scale="   91.950">  7  8 -1 -1</clus>
<clus scale="  125.154">  2  5  1 -1</clus>
<clus scale="   21.803">  2  5  1 -1</clus>
</clustering>
</event>
<event>
 9    1  0.1234700E-005  0.1679943E+03  0.7546771E-02  0.1180070E+00
          1   -1    0    0  502    0  0.00000000000E+00  0.00000000000E+00  0.44304189361E+03  0.44304189361E+03  0.00000000000E+00 0. -1.
         -1   -1    0    0    0  501 -0.00000000000E+00 -0.00000000000E+00 -0.12741077606E+03  0.12741077606E+03  0.00000000000E+00 0.  1.
         23    2    1    2    0    0  0.15252165757E+02  0.72927350183E+02 -0.54188418935E+01  0.11670690950E+03  0.89666671140E+02 0.  0.
         23    2    1    2    0    0 -0.70812927315E+02 -0.16438535093E+03  0.26678555677E+03  0.33376163821E+03  0.90472556963E+02 0.  0.
        -11    1    3    3    0    0 -0.43655546222E+01  0.57647997601E+02  0.36210218756E+02  0.68216784129E+02  0.00000000000E+00 0. -1.
         11    1    3    3    0    0  0.19617720380E+02  0.15279352581E+02 -0.41629060649E+02  0.48490125374E+02  0.00000000000E+00 0.  1.
        -13    1    4    4    0    0  0.17477687357E+02 -0.44245075124E+02  0.38972394634E+02  0.61497510288E+02  0.00000000000E+00 0. -1.
         13    1    4    4    0    0 -0.88290614673E+02 -0.12014027580E+03  0.22781316214E+03  0.27226412792E+03  0.00000000000E+00 0.  1.
         21    1    1    2  502  501  0.55560761558E+02  0.91458000744E+02  0.54264402674E+02  0.11998412196E+03  0.00000000000E+00 0.  1.
<scales pt_clust_5="13000.00000" pt_clust_6="13000.00000" pt_clust_7="13000.00000" pt_clust_8="13000.00000" pt_clust_9="107.01198"></scales>
<clustering>
<clus scale="   89.667">  5  6 -1 -1</clus>
<clus scale="   90.473">  7  8 -1 -1</clus>
<clus scale="  107.012">  2  9  1 -1</clus>
<clus scale="  167.562">  2  5  1 -1</clus>
<clus scale="  167.994">  1  5  2 -1</clus>
</clustering>
</event>
<event>
 9    1  0.1234700E-005  0.9435927E+02  0.7546771E-02  0.1292811E+00
         -3   -1    0    0    0  501 -0.00000000000E+00  0.00000000000E+00  0.84583407637E+02  0.84583407637E+02  0.00000000000E+00 0.  1.
          3   -1    0    0  502    0  0.00000000000E+00 -0.00000000000E+00 -0.14116710886E+03  0.14116710886E+03  0.00000000000E+00 0. -1.
         23    2    1    2    0    0  0.12216421233E+02 -0.18925089578E+02  0.64512974179E+00  0.93024963491E+02  0.90254239107E+02 0.  0.
         23    2    1    2    0    0 -0.33679789910E+02  0.17538007704E+02 -0.41402665170E+02  0.10602222522E+03  0.89914523825E+02 0.  0.
        -11    1    3    3    0    0  0.20557953687E+02  0.32815907397E+02  0.95031221320E+01  0.39872579153E+02  0.00000000000E+00 0.  1.
         11    1    3    3    0    0 -0.83415324534E+01 -0.51740996975E+02 -0.88579923902E+01  0.53152384338E+02  0.00000000000E+00 0. -1.
        -13    1    4    4    0    0  0.15642077393E+02 -0.23903610479E+02 -0.28440302654E+02  0.40310147533E+02  0.00000000000E+00 0.  1.
         13    1    4    4    0    0 -0.49321867303E+02  0.41441618183E+02 -0.12962362517E+02  0.65712077686E+02  0.00000000000E+00 0. -1.
         21    1    1    2  502  501  0.21463368677E+02  0.13870818744E+01 -0.15826165789E+02  0.26703327782E+02  0.00000000000E+00 0. -1.
<scales pt_clust_5="13000.00000" pt_clust_6="13000.00000" pt_clust_7="13000.00000" pt_clust_8="13000.00000" pt_clust_9="21.50814"></scales>
<clustering>
<clus scale="   21.508">  2  9  1 -1</clus>
<clus scale="   89.915">  7  8 -1 -1</clus>
<clus scale="   90.254">  5  6 -1 -1</clus>
<clus scale="   94.034">  2  7  1 -1</clus>
<clus scale="   21.508">  2  5  1 -1</clus>
</clustering>
</event>
<event>
 9    1  0.1234700E-005  0.1258314E+03  0.7546771E-02  0.1239628E+00
          2   -1    0    0  502    0  0.00000000000E+00  0.00000000000E+00  0.17865085022E+03  0.17865085022E+03  0.00000000000E+00 0. -1.
         -2   -1    0    0    0  501 -0.00000000000E+00 -0.00000000000E+00 -0.10802067619E+03  0.10802067619E+03  0.00000000000E+00 0.  1.
         23    2    1    2    0    0 -0.66190042089E+02 -0.87419936324E+01  0.12517516421E-01  0.10708330247E+03  0.83721498957E+02 0.  0.
         23    2    1    2    0    0  0.86571432548E+02 -0.63396519529E+01  0.39680617664E+02  0.13958875540E+03  0.10186100871E+03 0.  0.
        -13    1    3    3    0    0 -0.75897531540E+02  0.14596812346E+02 -0.13441576968E+02  0.78448570516E+02  0.00000000000E+00 0.  1.
         13    1    3    3    0    0  0.97074894518E+01 -0.23338805978E+02  0.13454094484E+02  0.28634731958E+02  0.00000000000E+00 0. -1.
        -13    1    4    4    0    0  0.22323724622E+02  0.40930500454E+02 -0.70374264592E+01  0.47150608899E+02  0.00000000000E+00 0.  1.
         13    1    4    4    0    0  0.64247707926E+02 -0.47270152407E+02  0.46718044123E+02  0.92438146504E+02  0.00000000000E+00 0. -1.
         21    1    1    2  502  501 -0.20381390460E+02  0.15081645585E+02  0.30937038841E+02  0.39999468532E+02  0.00000000000E+00 0.  1.
<scales pt_clust_5="13000.00000" pt_clust_6="13000.00000" pt_clust_7="13000.00000" pt_clust_8="13000.00000" pt_clust_9="25.35463"></scales>
<clustering>
<clus scale="   25.355">  1  9  2 -1</clus>
<clus scale="   83.721">  5  6 -1 -1</clus>
<clus scale="  101.861">  7  8 -1 -1</clus>
<clus scale="  111.656">  2  5  1 -1</clus>
<clus scale="   25.355">  1  5  2 -1</clus>
</clustering>
</event>
<event>
 9    1  0.1234700E-005  0.3417723E+03  0.7546771E-02  0.1066656E+00
          1   -1    0    0  502    0  0.00000000000E+00  0.00000000000E+00  0.15289280026E+04  0.15289280026E+04  0.00000000000E+00 0. -1.
         -1   -1    0    0    0  501 -0.00000000000E+00 -0.00000000000E+00 -0.27104729030E+03  0.27104729030E+03  0.00000000000E+00 0.  1.
         23    2    1    2    0    0 -0.22236847430E+03  0.23645422375E+03 -0.12767825364E+03  0.36342108708E+03  0.10205298519E+03 0.  0.
         23    2    1    2    0    0  0.22960555385E+03 -0.25708094825E+03  0.13406716454E+04  0.13866271727E+04  0.80778284144E+02 0.  0.
        -11    1    3    3    0    0 -0.19046700636E+03  0.23219621107E+03 -0.13673940793E+03  0.32998549457E+03  0.00000000000E+00 0.  1.
         11    1    3    3    0    0 -0.31901467944E+02  0.42580126796E+01  0.90611542936E+01  0.33435592504E+02  0.00000000000E+00 0. -1.
        -13    1    4    4    0    0  0.12174179612E+03 -0.14441507107E+03  0.88711437782E+03  0.90699983298E+03  0.00000000000E+00 0. -1.
         13    1    4    4    0    0  0.10786375773E+03 -0.11266587718E+03  0.45355726754E+03  0.47962733976E+03  0.00000000000E+00 0.  1.
         21    1    1    2  502  501 -0.72370795491E+01  0.20626724500E+02  0.44887320544E+02  0.49927033055E+02  0.00000000000E+00 0. -1.
<scales pt_clust_5="13000.00000" pt_clust_6="13000.00000" pt_clust_7="13000.00000" pt_clust_8="13000.00000" pt_clust_9="21.85948"></scales>
<clustering>
<clus scale="   21.859">  1  9  2 -1</clus>
<clus scale="   80.778">  7  8 -1 -1</clus>
<clus scale="  102.053">  5  6 -1 -1</clus>
<clus scale="  336.034">  1  7  2 -1</clus>
<clus scale="   21.859">  1  5  2 -1</clus>
</clustering>
</event>
<event>
 9    1  0.1234700E-005  0.1044653E+03  0.7546771E-02  0.1272179E+00
          3   -1    0    0  502    0  0.00000000000E+00  0.00000000000E+00  0.44564235740E+03  0.44564235740E+03  0.00000000000E+00 0. -1.
         -3   -1    0    0    0  501 -0.00000000000E+00 -0.00000000000E+00 -0.50428103571E+02  0.50428103571E+02  0.00000000000E+00 0.  1.
         23    2    1    2    0    0 -0.42135917712E+02  0.55306969071E+01  0.31562648266E+02  0.10524382493E+03  0.90961737842E+02 0.  0.
         23    2    1    2    0    0  0.64565114881E+02 -0.52866959850E+01  0.24425630543E+03  0.26934262015E+03  0.93207838050E+02 0.  0.
        -11    1    4    4    0    0 -0.41862803723E+01  0.32586688779E+02  0.50009935160E+02  0.59836534355E+02  0.00000000000E+00 0.  1.
         11    1    4    4    0    0  0.68751395253E+02 -0.37873384764E+02  0.19424637027E+03  0.20950608579E+03  0.00000000000E+00 0. -1.
        -11    1    3    3    0    0 -0.53958118535E+02  0.27989167028E+02 -0.47166254967E+01  0.60968176804E+02  0.00000000000E+00 0.  1.
         11    1    3    3    0    0  0.11822200823E+02 -0.22458470121E+02  0.36279273762E+02  0.44275648128E+02  0.00000000000E+00 0. -1.
         21    1    1    2  502  501 -0.22429197169E+02 -0.24400092206E+00  0.11939530014E+03  0.12148401589E+03  0.00000000000E+00 0.  1.
<scales pt_clust_5="13000.00000" pt_clust_6="13000.00000" pt_clust_7="13000.00000" pt_clust_8="13000.00000" pt_clust_9="22.43052"></scales>
<clustering>
<clus scale="   22.431">  1  9  2 -1</clus>
<clus scale="   90.962">  7  8 -1 -1</clus>
<clus scale="   93.208">  5  6 -1 -1</clus>
<clus scale="  102.466">  2  7  1 -1</clus>
<clus scale="   22.431">  1  5  2 -1</clus>
</clustering>
</event>
<event>
 9    1  0.1234700E-005  0.1178929E+03  0.7546771E-02  0.1247030E+00
         -4   -1    0    0    0  501 -0.00000000000E+00  0.00000000000E+00  0.88107128723E+03  0.88107128723E+03  0.00000000000E+00 0.  1.
          4   -1    0    0  502    0  0.00000000000E+00 -0.00000000000E+00 -0.27176273587E+02  0.27176273587E+02  0.00000000000E+00 0. -1.
         23    2    1    2    0    0  0.11775071777E+02  0.53790114926E+02  0.36748308505E+03  0.38276778029E+03  0.91844036550E+02 0.  0.
         23    2    1    2    0    0 -0.19699668726E+02 -0.91060272232E+02  0.46157420081E+03  0.47999597480E+03  0.93087823268E+02 0.  0.
        -11    1    4    4    0    0 -0.33414267266E+02  0.36532503524E+01  0.16407567069E+03  0.16748338786E+03  0.00000000000E+00 0.  1.
         11    1    4    4    0    0  0.13714598540E+02 -0.94713522584E+02  0.29749853012E+03  0.31251258694E+03  0.00000000000E+00 0. -1.
        -13    1    3    3    0    0  0.38616075499E+02 -0.26967243927E+01  0.20583781621E+03  0.20944612719E+03  0.00000000000E+00 0. -1.
         13    1    3    3    0    0 -0.26841003722E+02  0.56486839319E+02  0.16164526883E+03  0.17332165310E+03  0.00000000000E+00 0.  1.
         21    1    1    2  502  501  0.79245969488E+01  0.37270157306E+02  0.24837727782E+02  0.45483805731E+02  0.00000000000E+00 0. -1.
<scales pt_clust_5="13000.00000" pt_clust_6="13000.00000" pt_clust_7="13000.00000" pt_clust_8="13000.00000" pt_clust_9="38.10333"></scales>
<clustering>
<clus scale="   38.103">  2  9  1 -1</clus>
<clus scale="   91.844">  7  8 -1 -1</clus>
<clus scale="   93.088">  5  6 -1 -1</clus>
<clus scale="  116.913">  1  7  2 -1</clus>
<clus scale="   38.103">  2  5  1 -1</clus>
</clustering>
</event>
<event>
 9    1  0.1234700E-005  0.1134986E+03  0.7546771E-02  0.1255407E+00
         -1   -1    0    0    0  501 -0.00000000000E+00  0.00000000000E+00  0.23493583762E+02  0.23493583762E+02  0.00000000000E+00 0.  1.
          1   -1    0    0  502    0  0.00000000000E+00 -0.00000000000E+00 -0.98515825333E+03  0.98515825333E+03  0.00000000000E+00 0. -1.
         23    2    1    2    0    0 -0.36623880411E+02  0.57912835775E+02 -0.16673920581E+03  0.19977064459E+03  0.86087992900E+02 0.  0.
         23    2    1    2    0    0  0.13753751583E+02 -0.77693064953E+02 -0.62223506187E+03  0.63356355174E+03  0.89447883401E+02 0.  0.
        -11    1    4    4    0    0  0.45271555434E+02 -0.74902153023E+02 -0.44459127999E+03  0.45312388207E+03  0.00000000000E+00 0.  1.
         11    1    4    4    0    0 -0.31517803851E+02 -0.27909119304E+01 -0.17764378188E+03  0.18043966967E+03  0.00000000000E+00 0. -1.
        -11    1    3    3    0    0 -0.62546510115E+01  0.19466431212E+02  0.51086196377E+01  0.21075117983E+02  0.00000000000E+00 0.  1.
         11    1    3    3    0    0 -0.30369229400E+02  0.38446404563E+02 -0.17184782544E+03  0.17869552660E+03  0.00000000000E+00 0. -1.
         21    1    1    2  502  501  0.22870128828E+02  0.19780229179E+02 -0.17269040189E+03  0.17531764077E+03  0.00000000000E+00 0.  1.
<scales pt_clust_5="13000.00000" pt_clust_6="13000.00000" pt_clust_7="13000.00000" pt_clust_8="13000.00000" pt_clust_9="30.23740"></scales>
<clustering>
<clus scale="   30.237">  2  9  1 -1</clus>
<clus scale="   86.088">  7  8 -1 -1</clus>
<clus scale="   89.448">  5  6 -1 -1</clus>
<clus scale="  110.870">  1  7  2 -1</clus>
<clus scale="   30.237">  2  5  1 -1</clus>
</clustering>
</event>
<event>
 9    1  0.1234700E-005  0.1001997E+03  0.7546771E-02  0.1280575E+00
          1   -1    0    0  502    0  0.00000000000E+00  0.00000000000E+00  0.10754762377E+03  0.10754762377E+03  0.00000000000E+00 0. -1.
         -1   -1    0    0    0  501 -0.00000000000E+00 -0.00000000000E+00 -0.18277021529E+03  0.18277021529E+03  0.00000000000E+00 0.  1.
         23    2    1    2    0    0  0.23237360477E+02 -0.40722838782E+02 -0.10090540783E+03  0.14337722517E+03  0.90425675828E+02 0.  0.
         23    2    1    2    0    0  0.21037182777E+02  0.31048172297E+02  0.20509113351E+02  0.10132700238E+03  0.91869394357E+02 0.  0.
        -13    1    3    3    0    0  0.52445899698E+02 -0.28617086239E+02 -0.93410887570E+02  0.11088328971E+03  0.00000000000E+00 0.  1.
         13    1    3    3    0    0 -0.29208539221E+02 -0.12105752543E+02 -0.74945202582E+01  0.32493935464E+02  0.00000000000E+00 0. -1.
        -13    1    4    4    0    0  0.27084815367E+02 -0.21831385310E+02  0.31556668998E+02  0.46968286814E+02  0.00000000000E+00 0.  1.
         13    1    4    4    0    0 -0.60476325892E+01  0.52879557607E+02 -0.11047555648E+02  0.54358715570E+02  0.00000000000E+00 0. -1.
         21    1    1    2  502  501 -0.44274543254E+02  0.96746664850E+01  0.51737029585E+01  0.45613611502E+02  0.00000000000E+00 0. -1.
<scales pt_clust_5="13000.00000" pt_clust_6="13000.00000" pt_clust_7="13000.00000" pt_clust_8="13000.00000" pt_clust_9="45.31925"></scales>
<clustering>
<clus scale="   45.319">  1  9  2 -1</clus>
<clus scale="   90.426">  5  6 -1 -1</clus>
<clus scale="   91.869">  7  8 -1 -1</clus>
<clus scale="   98.878">  2  5  1 -1</clus>
<clus scale="   45.319">  1  5  2 -1</clus>
</clustering>
</event>
<event>
 9    1  0.1234700E-005  0.2753110E+03  0.7546771E-02  0.1098309E+00
         -3   -1    0    0    0  501 -0.00000000000E+00  0.00000000000E+00  0.54676529598E+03  0.54676529598E+03  0.00000000000E+00 0.  1.
          3   -1    0    0  502    0  0.00000000000E+00 -0.00000000000E+00 -0.23382164836E+03  0.23382164836E+03  0.00000000000E+00 0. -1.
         23    2    1    2    0    0 -0.22844084570E+01  0.27627496998E+03  0.23325126715E+03  0.37385190354E+03  0.95005339803E+02 0.  0.
         23    2    1    2    0    0  0.10306039910E+03 -0.22633908291E+03  0.11364111709E+03  0.28925351109E+03  0.94352868898E+02 0.  0.
        -13    1    3    3    0    0 -0.36447193197E+02  0.23386267986E+03  0.17693299934E+03  0.29550877682E+03  0.00000000000E+00 0.  1.
         13    1    3    3    0    0  0.34162784740E+02  0.42412290123E+02  0.56318267810E+02  0.78343126717E+02  0.00000000000E+00 0. -1.
        -13    1    4    4    0    0  0.75377282559E+02 -0.74273311374E+02  0.17586637612E+02  0.10727324611E+03  0.00000000000E+00 0.  1.
         13    1    4    4    0    0  0.27683116538E+02 -0.15206577154E+03  0.96054479478E+02  0.18198026498E+03  0.00000000000E+00 0. -1.
         21    1    1    2  502  501 -0.10077599064E+03 -0.49935887066E+02 -0.33948736617E+02  0.11748152972E+03  0.00000000000E+00 0. -1.
<scales pt_clust_5="13000.00000" pt_clust_6="13000.00000" pt_clust_7="13000.00000" pt_clust_8="13000.00000" pt_clust_9="112.46952"></scales>
<clustering>
<clus scale="   94.353">  7  8 -1 -1</clus>
<clus scale="   95.005">  5  6 -1 -1</clus>
<clus scale="  112.470">  2  9  1 -1</clus>
<clus scale="  275.087">  2  7  1 -1</clus>
<clus scale="  112.470">  2  5  1 -1</clus>
</clustering>
</event>
<event>
 9    1  0.1234700E-005  0.1104831E+03  0.7546771E-02  0.1260662E+00
         -1   -1    0    0    0  501 -0.00000000000E+00  0.00000000000E+00  0.41712489949E+03  0.41712489949E+03  0.00000000000E+00 0.  1.
          1   -1    0    0  502    0  0.00000000000E+00 -0.00000000000E+00 -0.10717497895E+03  0.10717497895E+03  0.00000000000E+00 0. -1.
         23    2    1    2    0    0  0.15118642835E+02  0.45016142197E+02  0.20581623126E+03  0.23039448291E+03  0.92012337688E+02 0.  0.
         23    2    1    2    0    0  0.52753017944E+01 -0.86524171476E+02  0.17163826657E+03  0.21207815417E+03  0.89460538060E+02 0.  0.
        -11    1    3    3    0    0 -0.33936802190E+02  0.41006437526E+02  0.12355836923E+03  0.13453588766E+03  0.00000000000E+00 0.  1.
         11    1    3    3    0    0  0.49055445025E+02  0.40097046711E+01  0.82257862025E+02  0.95858595248E+02  0.00000000000E+00 0. -1.
        -13    1    4    4    0    0 -0.24025441400E+02  0.62824610642E+01  0.19953626572E+02  0.31856527822E+02  0.00000000000E+00 0. -1.
         13    1    4    4    0    0  0.29300743195E+02 -0.92806632540E+02  0.15168463999E+03  0.18022162635E+03  0.00000000000E+00 0.  1.
         21    1    1    2  502  501 -0.20393944629E+02  0.41508029279E+02 -0.67504577285E+02  0.81827241348E+02  0.00000000000E+00 0. -1.
<scales pt_clust_5="13000.00000" pt_clust_6="13000.00000" pt_clust_7="13000.00000" pt_clust_8="13000.00000" pt_clust_9="46.24748"></scales>
<clustering>
<clus scale="   46.247">  2  9  1 -1</clus>
<clus scale="   89.461">  7  8 -1 -1</clus>
<clus scale="   92.012">  5  6 -1 -1</clus>
<clus scale="  108.367">  2  7  1 -1</clus>
<clus scale="   46.247">  2  5  1 -1</clus>
</clustering>
</event>
<event>
 9    1  0.1234700E-005  0.4739034E+03  0.7546771E-02  0.1020855E+00
         -1   -1    0    0    0  501 -0.00000000000E+00  0.00000000000E+00  0.14112035809E+03  0.14112035809E+03  0.00000000000E+00 0.  1.
          1   -1    0    0  502    0  0.00000000000E+00 -0.00000000000E+00 -0.17588915373E+04  0.17588915373E+04  0.00000000000E+00 0. -1.
         23    2    1    2    0    0 -0.27185666587E+03  0.38582234317E+03 -0.57957985036E+03  0.75311250662E+03  0.92199335248E+02 0.  0.
         23    2    1    2    0    0  0.24785472277E+03 -0.38026551891E+03 -0.98770512773E+03  0.10907226314E+04  0.89892217522E+02 0.  0.
        -11    1    4    4    0    0  0.22289377113E+03 -0.36002059764E+03 -0.95599765500E+03  0.10455754302E+04  0.00000000000E+00 0. -1.
         11    1    4    4    0    0  0.24960951644E+02 -0.20244921272E+02 -0.31707472733E+02  0.45147201147E+02  0.00000000000E+00 0.  1.
        -13    1    3    3    0    0 -0.25157385683E+03  0.32760819657E+03 -0.53995537263E+03  0.67982964067E+03  0.00000000000E+00 0.  1.
         13    1    3    3    0    0 -0.20282809045E+02  0.58214146598E+02 -0.39624477726E+02  0.73282865951E+02  0.00000000000E+00 0. -1.
         21    1    1    2  502  501  0.24001943099E+02 -0.55568242625E+01 -0.50486201143E+02  0.56176757420E+02  0.00000000000E+00 0.  1.
<scales pt_clust_5="13000.00000" pt_clust_6="13000.00000" pt_clust_7="13000.00000" pt_clust_8="13000.00000" pt_clust_9="24.63679"></scales>
<clustering>
<clus scale="   24.637">  2  9  1 -1</clus>
<clus scale="   89.892">  5  6 -1 -1</clus>
<clus scale="   92.199">  7  8 -1 -1</clus>
<clus scale="  473.460">  2  5  1 -1</clus>
<clus scale="   24.637">  2  5  1 -1</clus>
</clustering>
</event>
<event>
 9    1  0.1234700E-005  0.1125939E+03  0.7546771E-02  0.1258509E+00
          2   -1    0    0  502    0  0.00000000000E+00  0.00000000000E+00  0.23054815670E+03  0.23054815670E+03  0.00000000000E+00 0. -1.
         -2   -1    0    0    0  501 -0.00000000000E+00 -0.00000000000E+00 -0.14695124156E+03  0.14695124156E+03  0.00000000000E+00 0.  1.
         23    2    1    2    0    0 -0.18097324788E+02 -0.52148781364E+02 -0.54154019006E+02  0.12041736952E+03  0.92307510778E+02 0.  0.
         23    2    1    2    0    0  0.60307501348E+02  0.24760807620E+02  0.89759555451E+01  0.11882576224E+03  0.98938878513E+02 0.  0.
        -11    1    3    3    0    0 -0.21713603996E+02 -0.78203155289E+02 -0.42963533668E+02  0.91831799072E+02  0.00000000000E+00 0. -1.
         11    1    3    3    0    0  0.36162792079E+01  0.26054373924E+02 -0.11190485338E+02  0.28585570451E+02  0.00000000000E+00 0.  1.
        -13    1    4    4    0    0 -0.39076900687E+01  0.49360547882E+02  0.30923942093E+00  0.49515950540E+02  0.00000000000E+00 0.  1.
         13    1    4    4    0    0  0.64215191417E+02 -0.24599740262E+02  0.86667161242E+01  0.69309811701E+02  0.00000000000E+00 0. -1.
         21    1    1    2  502  501 -0.42210176560E+02  0.27387973744E+02  0.12877497860E+03  0.13825626650E+03  0.00000000000E+00 0. -1.
<scales pt_clust_5="13000.00000" pt_clust_6="13000.00000" pt_clust_7="13000.00000" pt_clust_8="13000.00000" pt_clust_9="50.31700"></scales>
<clustering>
<clus scale="   50.317">  1  9  2 -1</clus>
<clus scale="   92.308">  5  6 -1 -1</clus>
<clus scale="   98.939">  7  8 -1 -1</clus>
<clus scale="  106.814">  2  5  1 -1</clus>
<clus scale="   50.317">  1  5  2 -1</clus>
</clustering>
</event>
<event>
 9    1  0.1234700E-005  0.1128288E+03  0.7546771E-02  0.1257490E+00
          1   -1    0    0  502    0  0.00000000000E+00  0.00000000000E+00  0.32998373371E+03  0.32998373371E+03  0.00000000000E+00 0. -1.
         -1   -1    0    0    0  501 -0.00000000000E+00 -0.00000000000E+00 -0.14735203518E+03  0.14735203518E+03  0.00000000000E+00 0.  1.
         23    2    1    2    0    0 -0.54994809501E+02 -0.37516891890E+02  0.26863077427E+02  0.11551433598E+03  0.90498567057E+02 0.  0.
         23    2    1    2    0    0 -0.53027503053E+02  0.45313937596E+02  0.20784557068E+03  0.24164813051E+03  0.10163055007E+03 0.  0.
        -13    1    3    3    0    0 -0.27901833037E+02 -0.66040086487E+02  0.88151207664E+01  0.72232345000E+02  0.00000000000E+00 0.  1.
         13    1    3    3    0    0 -0.27092976464E+02  0.28523194598E+02  0.18047956660E+02  0.43281990982E+02  0.00000000000E+00 0. -1.
        -13    1    4    4    0    0  0.23162649757E+02 -0.97153539244E+01  0.73640103471E+02  0.77805920629E+02  0.00000000000E+00 0.  1.
         13    1    4    4    0    0 -0.76190152810E+02  0.55029291520E+02  0.13420546721E+03  0.16384220988E+03  0.00000000000E+00 0. -1.
         21    1    1    2  502  501  0.10802231255E+03 -0.77970457063E+01 -0.52076949579E+02  0.12017330240E+03  0.00000000000E+00 0.  1.
<scales pt_clust_5="13000.00000" pt_clust_6="13000.00000" pt_clust_7="13000.00000" pt_clust_8="13000.00000" pt_clust_9="108.30334"></scales>
<clustering>
<clus scale="   90.499">  5  6 -1 -1</clus>
<clus scale="  101.631">  7  8 -1 -1</clus>
<clus scale="  108.303">  2  9  1 -1</clus>
<clus scale="  108.303">  2  5  1 -1</clus>
<clus scale="  112.829">  1  5  2 -1</clus>
</clustering>
</event>
<event>
 9    1  0.1234700E-005  0.1639175E+03  0.7546771E-02  0.1184904E+00
          1   -1    0    0  502    0  0.00000000000E+00  0.00000000000E+00  0.64530180063E+03  0.64530180063E+03  0.00000000000E+00 0. -1.
         -1   -1    0    0    0  501 -0.00000000000E+00 -0.00000000000E+00 -0.54877466007E+02  0.54877466007E+02  0.00000000000E+00 0.  1.
         23    2    1    2    0    0  0.10537792759E+03  0.57771580163E+02  0.24399874780E+03  0.28774461252E+03  0.93912246320E+02 0.  0.
         23    2    1    2    0    0 -0.14696418012E+03 -0.37651405183E+02  0.25734378112E+03  0.31208623137E+03  0.90309997119E+02 0.  0.
        -13    1    4    4    0    0 -0.25345498106E+02  0.15114322783E+02  0.94789416685E+01  0.30994957051E+02  0.00000000000E+00 0. -1.
         13    1    4    4    0    0 -0.12161868201E+03 -0.52765727966E+02  0.24786483945E+03  0.28109127432E+03  0.00000000000E+00 0.  1.
        -13    1    3    3    0    0  0.77916971467E+00  0.34278350715E+02  0.20716588561E+02  0.40059823699E+02  0.00000000000E+00 0.  1.
         13    1    3    3    0    0  0.10459875788E+03  0.23493229448E+02  0.22328215924E+03  0.24768478882E+03  0.00000000000E+00 0. -1.
         21    1    1    2  502  501  0.41586252522E+02 -0.20120174980E+02  0.89081805698E+02  0.10034842274E+03  0.00000000000E+00 0. -1.
<scales pt_clust_5="13000.00000" pt_clust_6="13000.00000" pt_clust_7="13000.00000" pt_clust_8="13000.00000" pt_clust_9="46.19781"></scales>
<clustering>
<clus scale="   46.198">  1  9  2 -1</clus>
<clus scale="   90.310">  5  6 -1 -1</clus>
<clus scale="   93.912">  7  8 -1 -1</clus>
<clus scale="  161.881">  1  5  2 -1</clus>
<clus scale="   46.198">  1  5  2 -1</clus>
</clustering>
</event>
<event>
 9    1  0.1234700E-005  0.9435420E+02  0.7546771E-02  0.1294754E+00
         -2   -1    0    0    0  501 -0.00000000000E+00  0.00000000000E+00  0.58043200222E+02  0.58043200222E+02  0.00000000000E+00 0.  1.
          2   -1    0    0  502    0  0.00000000000E+00 -0.00000000000E+00 -0.44719778609E+03  0.44719778609E+03  0.00000000000E+00 0. -1.
         23    2    1    2    0    0 -0.60070154847E+01 -0.24911157468E+00 -0.18756067860E+02  0.94690001841E+02  0.92618896968E+02 0.  0.
         23    2    1    2    0    0  0.46587760174E+02 -0.11149560849E+02 -0.12094684025E+03  0.15756310707E+03  0.88900294936E+02 0.  0.
        -11    1    4    4    0    0  0.54833362256E+02  0.20363712086E+02 -0.41561929254E+02  0.71754946516E+02  0.00000000000E+00 0. -1.
         11    1    4    4    0    0 -0.82456020816E+01 -0.31513272935E+02 -0.79384910995E+02  0.85808160558E+02  0.00000000000E+00 0.  1.
        -13    1    3    3    0    0 -0.10801980104E+02  0.25258193508E+02  0.29243520169E+02  0.40122843685E+02  0.00000000000E+00 0.  1.
         13    1    3    3    0    0  0.47949646194E+01 -0.25507305083E+02 -0.47999588029E+02  0.54567158156E+02  0.00000000000E+00 0. -1.
         21    1    1    2  502  501 -0.40580744689E+02  0.11398672424E+02 -0.24945167776E+03  0.25298787740E+03  0.00000000000E+00 0. -1.
<scales pt_clust_5="13000.00000" pt_clust_6="13000.00000" pt_clust_7="13000.00000" pt_clust_8="13000.00000" pt_clust_9="42.15123"></scales>
<clustering>
<clus scale="   42.151">  2  9  1 -1</clus>
<clus scale="   88.900">  5  6 -1 -1</clus>
<clus scale="   90.707">  2  5  1 -1</clus>
<clus scale="   92.619">  7  8 -1 -1</clus>
<clus scale="   42.151">  2  5  1 -1</clus>
</clustering>
</event>
<event>
 9    1  0.1234700E-005  0.1115075E+03  0.7546771E-02  0.1257833E+00
          2   -1    0    0  502    0  0.00000000000E+00  0.00000000000E+00  0.49804819400E+02  0.49804819400E+02  0.00000000000E+00 0. -1.
         -2   -1    0    0    0  501 -0.00000000000E+00 -0.00000000000E+00 -0.40738547198E+03  0.40738547198E+03  0.00000000000E+00 0.  1.
         23    2    1    2    0    0  0.81275979551E+02 -0.31599383744E+00 -0.23577117698E+03  0.26551702908E+03  0.91133748611E+02 0.  0.
         23    2    1    2    0    0 -0.34695933144E+02 -0.12962716935E+02 -0.69521346615E+02  0.12039862925E+03  0.91053679129E+02 0.  0.
        -11    1    4    4    0    0  0.11629708338E+02 -0.38399788315E+02 -0.49886587722E+02  0.64019258768E+02  0.00000000000E+00 0.  1.
         11    1    4    4    0    0 -0.46325641482E+02  0.25437071381E+02 -0.19634758893E+02  0.56379370482E+02  0.00000000000E+00 0. -1.
        -13    1    3    3    0    0  0.11685345052E+02 -0.25579768415E+02 -0.14819852896E+03  0.15084321604E+03  0.00000000000E+00 0. -1.
         13    1    3    3    0    0  0.69590634499E+02  0.25263774578E+02 -0.87572648019E+02  0.11467381304E+03  0.00000000000E+00 0.  1.
         21    1    1    2  502  501 -0.46580046407E+02  0.13278710772E+02 -0.52288128984E+02  0.71274633045E+02  0.00000000000E+00 0.  1.
<scales pt_clust_5="13000.00000" pt_clust_6="13000.00000" pt_clust_7="13000.00000" pt_clust_8="13000.00000" pt_clust_9="48.43578"></scales>
<clustering>
<clus scale="   48.436">  1  9  2 -1</clus>
<clus scale="   91.054">  5  6 -1 -1</clus>
<clus scale="   91.134">  7  8 -1 -1</clus>
<clus scale="  111.442">  1  5  2 -1</clus>
<clus scale="   48.436">  1  5  2 -1</clus>
</clustering>
</event>
<event>
 9    1  0.1234700E-005  0.9731169E+02  0.7546771E-02  0.1288355E+00
          1   -1    0    0  502    0  0.00000000000E+00  0.00000000000E+00  0.25362424286E+02  0.25362424286E+02  0.00000000000E+00 0. -1.
         -1   -1    0    0    0  501 -0.00000000000E+00 -0.00000000000E+00 -0.60613972111E+03  0.60613972111E+03  0.00000000000E+00 0.  1.
         23    2    1    2    0    0  0.11419387960E+02 -0.18354971429E+02 -0.41192895492E+03  0.42250681519E+03  0.91428866228E+02 0.  0.
         23    2    1    2    0    0 -0.17155879734E+02 -0.30756375704E+01 -0.15462976603E+03  0.18264487974E+03  0.95629513204E+02 0.  0.
        -11    1    3    3    0    0  0.38223883575E+02  0.20195850654E+02 -0.25728788822E+03  0.26089460532E+03  0.00000000000E+00 0. -1.
         11    1    3    3    0    0 -0.26804495615E+02 -0.38550822083E+02 -0.15464106670E+03  0.16161220987E+03  0.00000000000E+00 0.  1.
        -13    1    4    4    0    0 -0.51790441634E+02 -0.11668919124E+02 -0.12655831061E+03  0.13724219286E+03  0.00000000000E+00 0.  1.
         13    1    4    4    0    0  0.34634561901E+02  0.85932815532E+01 -0.28071455429E+02  0.45402686879E+02  0.00000000000E+00 0. -1.
         21    1    1    2  502  501  0.57364917736E+01  0.21430609000E+02 -0.14218575860E+02  0.26350450460E+02  0.00000000000E+00 0.  1.
<scales pt_clust_5="13000.00000" pt_clust_6="13000.00000" pt_clust_7="13000.00000" pt_clust_8="13000.00000" pt_clust_9="22.18509"></scales>
<clustering>
<clus scale="   22.185">  1  9  2 -1</clus>
<clus scale="   91.429">  5  6 -1 -1</clus>
<clus scale="   93.187">  2  5  1 -1</clus>
<clus scale="   95.630">  7  8 -1 -1</clus>
<clus scale="   22.185">  1  5  2 -1</clus>
</clustering>
</event>
<event>
 9    1  0.1234700E-005  0.1052300E+03  0.7546771E-02  0.1270812E+00
         -2   -1    0    0    0  501 -0.00000000000E+00  0.00000000000E+00  0.14928635504E+03  0.14928635504E+03  0.00000000000E+00 0. -1.
          2   -1    0    0  502    0  0.00000000000E+00 -0.00000000000E+00 -0.15863415247E+03  0.15863415247E+03  0.00000000000E+00 0.  1.
         23    2    1    2    0    0  0.53023989216E+02  0.27250245054E+02  0.87415084978E+02  0.13874394221E+03  0.89746114854E+02 0.  0.
         23    2    1    2    0    0 -0.43617354697E+02 -0.65199135385E+01 -0.35510666091E+02  0.10383082770E+03  0.87033616901E+02 0.  0.
        -13    1    3    3    0    0 -0.55967184486E+01  0.32853103570E+02  0.69686284063E+02  0.77245244890E+02  0.00000000000E+00 0.  1.
         13    1    3    3    0    0  0.58620707665E+02 -0.56028585165E+01  0.17728800915E+02  0.61498697324E+02  0.00000000000E+00 0. -1.
        -13    1    4    4    0    0 -0.69443274985E+02  0.35020226484E+01 -0.29229067587E+02  0.75425267619E+02  0.00000000000E+00 0.  1.
         13    1    4    4    0    0  0.25825920288E+02 -0.10021936187E+02 -0.62815985038E+01  0.28405560080E+02  0.00000000000E+00 0. -1.
         21    1    1    2  502  501 -0.94066345188E+01 -0.20730331515E+02 -0.61252216324E+02  0.65345737599E+02  0.00000000000E+00 0. -1.
<scales pt_clust_5="13000.00000" pt_clust_6="13000.00000" pt_clust_7="13000.00000" pt_clust_8="13000.00000" pt_clust_9="22.76470"></scales>
<clustering>
<clus scale="   22.765">  2  9  1 -1</clus>
<clus scale="   87.034">  7  8 -1 -1</clus>
<clus scale="   89.746">  5  6 -1 -1</clus>
<clus scale="  102.926">  2  7  1 -1</clus>
<clus scale="   22.765">  2  5  1 -1</clus>
</clustering>
</event>
<event>
 9    1  0.1234700E-005  0.8973865E+02  0.7546771E-02  0.1303619E+00
          3   -1    0    0  502    0  0.00000000000E+00  0.00000000000E+00  0.18116325973E+03  0.18116325973E+03  0.00000000000E+00 0. -1.
         -3   -1    0    0    0  501 -0.00000000000E+00 -0.00000000000E+00 -0.12096659018E+03  0.12096659018E+03  0.00000000000E+00 0.  1.
         23    2    1    2    0    0  0.18525663124E+02  0.83449998717E+00 -0.45825566082E+02  0.10225792438E+03  0.89514267063E+02 0.  0.
         23    2    1    2    0    0  0.36737495895E+02  0.89679203819E+00  0.22228959142E+02  0.99481052926E+02  0.89732410121E+02 0.  0.
        -11    1    3    3    0    0  0.46457341224E+02 -0.25483553707E+02 -0.24904136044E+02  0.58548373635E+02  0.00000000000E+00 0. -1.
         11    1    3    3    0    0 -0.27931678100E+02  0.26318053694E+02 -0.20921430037E+02  0.43709550748E+02  0.00000000000E+00 0.  1.
        -13    1    4    4    0    0 -0.22517117592E+02  0.24392806427E+02  0.87048923132E+01  0.34319159957E+02  0.00000000000E+00 0.  1.
         13    1    4    4    0    0  0.59254613487E+02 -0.23496014388E+02  0.13524066829E+02  0.65161892968E+02  0.00000000000E+00 0. -1.
         21    1    1    2  502  501 -0.55263159019E+02 -0.17312920254E+01  0.83793276491E+02  0.10039087260E+03  0.00000000000E+00 0.  1.
<scales pt_clust_5="13000.00000" pt_clust_6="13000.00000" pt_clust_7="13000.00000" pt_clust_8="13000.00000" pt_clust_9="55.29027"></scales>
<clustering>
<clus scale="   55.290">  1  9  2 -1</clus>
<clus scale="   89.514">  5  6 -1 -1</clus>
<clus scale="   89.521">  2  5  1 -1</clus>
<clus scale="   89.732">  7  8 -1 -1</clus>
<clus scale="   55.290">  1  5  2 -1</clus>
</clustering>
</event>
<event>
 9    1  0.1234700E-005  0.1510881E+03  0.7546771E-02  0.1199614E+00
          1   -1    0    0  502    0  0.00000000000E+00  0.00000000000E+00  0.15997250480E+03  0.15997250480E+03  0.00000000000E+00 0. -1.
         -1   -1    0    0    0  501 -0.00000000000E+00 -0.00000000000E+00 -0.64255755784E+03  0.64255755784E+03  0.00000000000E+00 0.  1.
         23    2    1    2    0    0  0.15416266306E+02 -0.78478510115E+02 -0.17028289100E+03  0.20893859494E+03  0.90898491021E+02 0.  0.
         23    2    1    2    0    0 -0.82440622202E+02  0.13971495744E+03 -0.41575329143E+03  0.45595316294E+03  0.93411786931E+02 0.  0.
        -11    1    3    3    0    0  0.47465666790E+02 -0.22826678258E+02 -0.50194468688E+02  0.72756659152E+02  0.00000000000E+00 0.  1.
         11    1    3    3    0    0 -0.32049400484E+02 -0.55651831857E+02 -0.12008842231E+03  0.13618193579E+03  0.00000000000E+00 0. -1.
        -13    1    4    4    0    0  0.19808696230E+02  0.33021361681E+02 -0.68885153360E+02  0.78917419668E+02  0.00000000000E+00 0. -1.
         13    1    4    4    0    0 -0.10224931843E+03  0.10669359576E+03 -0.34686813807E+03  0.37703574327E+03  0.00000000000E+00 0.  1.
         21    1    1    2  502  501  0.67024355896E+02 -0.61236447329E+02  0.10345112939E+03  0.13763830476E+03  0.00000000000E+00 0. -1.
<scales pt_clust_5="13000.00000" pt_clust_6="13000.00000" pt_clust_7="13000.00000" pt_clust_8="13000.00000" pt_clust_9="90.78638"></scales>
<clustering>
<clus scale="   90.786">  1  9  2 -1</clus>
<clus scale="   90.898">  5  6 -1 -1</clus>
<clus scale="   93.412">  7  8 -1 -1</clus>
<clus scale="  149.547">  2  5  1 -1</clus>
<clus scale="   90.786">  1  5  2 -1</clus>
</clustering>
</event>
<event>
 9    1  0.1234700E-005  0.1171178E+03  0.7546771E-02  0.1248317E+00
          2   -1    0    0  502    0  0.00000000000E+00  0.00000000000E+00  0.48089428893E+03  0.48089428893E+03  0.00000000000E+00 0. -1.
         -2   -1    0    0    0  501 -0.00000000000E+00 -0.00000000000E+00 -0.62041888892E+02  0.62041888892E+02  0.00000000000E+00 0.  1.
         23    2    1    2    0    0 -0.52473602512E+02  0.54479923649E+02  0.21437063329E+02  0.12003357296E+03  0.90702645564E+02 0.  0.
         23    2    1    2    0    0  0.65352601911E+02 -0.29523716111E+02  0.28960016830E+03  0.31148989706E+03  0.89527013255E+02 0.  0.
        -11    1    4    4    0    0  0.87778626269E+02 -0.23912287191E+02  0.21704983254E+03  0.23534552155E+03  0.00000000000E+00 0.  1.
         11    1    4    4    0    0 -0.22426024358E+02 -0.56114289197E+01  0.72550335752E+02  0.76144375503E+02  0.00000000000E+00 0. -1.
        -11    1    3    3    0    0 -0.49494358638E+02 -0.12484775661E+02  0.10566905780E+02  0.52126966707E+02  0.00000000000E+00 0. -1.
         11    1    3    3    0    0 -0.29792438735E+01  0.66964699310E+02  0.10870157549E+02  0.67906606254E+02  0.00000000000E+00 0.  1.
         21    1    1    2  502  501 -0.12878999400E+02 -0.24956207538E+02  0.10781516841E+03  0.11141270780E+03  0.00000000000E+00 0. -1.
<scales pt_clust_5="13000.00000" pt_clust_6="13000.00000" pt_clust_7="13000.00000" pt_clust_8="13000.00000" pt_clust_9="28.08346"></scales>
<clustering>
<clus scale="   28.083">  1  9  2 -1</clus>
<clus scale="   89.527">  5  6 -1 -1</clus>
<clus scale="   90.703">  7  8 -1 -1</clus>
<clus scale="  116.210">  1  5  2 -1</clus>
<clus scale="   28.083">  1  5  2 -1</clus>
</clustering>
</event>
<event>
 9    1  0.1234700E-005  0.1051458E+03  0.7546771E-02  0.1269965E+00
         -2   -1    0    0    0  501 -0.00000000000E+00  0.00000000000E+00  0.69594182453E+02  0.69594182453E+02  0.00000000000E+00 0.  1.
          2   -1    0    0  502    0  0.00000000000E+00 -0.00000000000E+00 -0.33538580352E+03  0.33538580352E+03  0.00000000000E+00 0. -1.
         23    2    1    2    0    0  0.44207008147E+02 -0.50671889863E+01 -0.10853380269E+02  0.10433819597E+03  0.93748212253E+02 0.  0.
         23    2    1    2    0    0 -0.55787164350E+02 -0.16679667956E+02 -0.11754537037E+03  0.16105731147E+03  0.93445836998E+02 0.  0.
        -11    1    3    3    0    0  0.62607846017E+02  0.25800386780E+02 -0.94796865135E+01  0.68375922643E+02  0.00000000000E+00 0.  1.
         11    1    3    3    0    0 -0.18400837870E+02 -0.30867575766E+02 -0.13736937554E+01  0.35962273323E+02  0.00000000000E+00 0. -1.
        -11    1    4    4    0    0  0.11130741199E+02  0.27657081427E+02 -0.33082209536E+02  0.44533584411E+02  0.00000000000E+00 0.  1.
         11    1    4    4    0    0 -0.66917905550E+02 -0.44336749383E+02 -0.84463160832E+02  0.11652372705E+03  0.00000000000E+00 0. -1.
         21    1    1    2  502  501  0.11580156203E+02  0.21746856942E+02 -0.13739287043E+03  0.13958447854E+03  0.00000000000E+00 0. -1.
<scales pt_clust_5="13000.00000" pt_clust_6="13000.00000" pt_clust_7="13000.00000" pt_clust_8="13000.00000" pt_clust_9="24.63789"></scales>
<clustering>
<clus scale="   24.638">  2  9  1 -1</clus>
<clus scale="   93.446">  7  8 -1 -1</clus>
<clus scale="   93.748">  5  6 -1 -1</clus>
<clus scale="  104.876">  2  7  1 -1</clus>
<clus scale="   24.638">  2  5  1 -1</clus>
</clustering>
</event>
<event>
 9    1  0.1234700E-005  0.2207626E+03  0.7546771E-02  0.1133342E+00
          2   -1    0    0  502    0  0.00000000000E+00  0.00000000000E+00  0.26852584164E+03  0.26852584164E+03  0.00000000000E+00 0. -1.
         -2   -1    0    0    0  501 -0.00000000000E+00 -0.00000000000E+00 -0.27475631744E+03  0.27475631744E+03  0.00000000000E+00 0.  1.
         23    2    1    2    0    0 -0.12238605262E+03 -0.16235224169E+03 -0.13034869833E+03  0.25827630855E+03  0.91538364332E+02 0.  0.
         23    2    1    2    0    0  0.10257234894E+03  0.16625677461E+03  0.69530953809E+02  0.22680277383E+03  0.91883310833E+02 0.  0.
        -11    1    3    3    0    0 -0.10000486201E+03 -0.15086116804E+03 -0.14247675743E+03  0.23034689244E+03  0.00000000000E+00 0.  1.
         11    1    3    3    0    0 -0.22381190609E+02 -0.11491073644E+02  0.12128059101E+02  0.27929416108E+02  0.00000000000E+00 0. -1.
        -13    1    4    4    0    0  0.95084829015E+02  0.99582927620E+02  0.79472546095E+02  0.15897726179E+03  0.00000000000E+00 0. -1.
         13    1    4    4    0    0  0.74875199214E+01  0.66673846987E+02 -0.99415922862E+01  0.67825512043E+02  0.00000000000E+00 0.  1.
         21    1    1    2  502  501  0.19813703679E+02 -0.39045329197E+01  0.54587268719E+02  0.58203076697E+02  0.00000000000E+00 0.  1.
<scales pt_clust_5="13000.00000" pt_clust_6="13000.00000" pt_clust_7="13000.00000" pt_clust_8="13000.00000" pt_clust_9="20.19476"></scales>
<clustering>
<clus scale="   20.195">  1  9  2 -1</clus>
<clus scale="   91.538">  5  6 -1 -1</clus>
<clus scale="   91.883">  7  8 -1 -1</clus>
<clus scale="  220.619">  2  5  1 -1</clus>
<clus scale="   20.195">  1  5  2 -1</clus>
</clustering>
</event>
<event>
 9    1  0.1234700E-005  0.1608557E+03  0.7546771E-02  0.1189452E+00
         -1   -1    0    0    0  501 -0.00000000000E+00  0.00000000000E+00  0.41262557636E+03  0.41262557636E+03  0.00000000000E+00 0.  1.
          1   -1    0    0  502    0  0.00000000000E+00 -0.00000000000E+00 -0.82273181681E+03  0.82273181681E+03  0.00000000000E+00 0. -1.
         23    2    1    2    0    0  0.97985313616E+02  0.71878504116E+02  0.35477324580E+03  0.38609273628E+03  0.91847177586E+02 0.  0.
         23    2    1    2    0    0 -0.19198883400E+03 -0.13487937837E+03 -0.51718342281E+03  0.57694295036E+03  0.10164800074E+03 0.  0.
        -11    1    3    3    0    0  0.20191627581E+02  0.71133684899E+02  0.15600623513E+03  0.17264312425E+03  0.00000000000E+00 0.  1.
         11    1    3    3    0    0  0.77793686035E+02  0.74481921659E+00  0.19876701067E+03  0.21344961203E+03  0.00000000000E+00 0. -1.
        -13    1    4    4    0    0 -0.15953111140E+03 -0.14301071381E+03 -0.48631908508E+03  0.53142120044E+03  0.00000000000E+00 0. -1.
         13    1    4    4    0    0 -0.32457722598E+02  0.81313354375E+01 -0.30864337734E+02  0.45521749922E+02  0.00000000000E+00 0.  1.
         21    1    1    2  502  501  0.94003520382E+02  0.63000874255E+02 -0.24769606344E+03  0.27232170653E+03  0.00000000000E+00 0.  1.
<scales pt_clust_5="13000.00000" pt_clust_6="13000.00000" pt_clust_7="13000.00000" pt_clust_8="13000.00000" pt_clust_9="113.16259"></scales>
<clustering>
<clus scale="   91.847">  5  6 -1 -1</clus>
<clus scale="  101.648">  7  8 -1 -1</clus>
<clus scale="  113.163">  2  9  1 -1</clus>
<clus scale="  154.849">  1  5  2 -1</clus>
<clus scale="  113.163">  2  5  1 -1</clus>
</clustering>
</event>
<event>
 9    1  0.1234700E-005  0.1199230E+03  0.7546771E-02  0.1247519E+00
          1   -1    0    0  502    0  0.00000000000E+00  0.00000000000E+00  0.74292546877E+03  0.74292546877E+03  0.00000000000E+00 0. -1.
         -1   -1    0    0    0  501 -0.00000000000E+00 -0.00000000000E+00 -0.30451598029E+02  0.30451598029E+02  0.00000000000E+00 0.  1.
         23    2    1    2    0    0 -0.33241445479E+02  0.34103283608E+02  0.17328406174E+03  0.20091201846E+03  0.89834544923E+02 0.  0.
         23    2    1    2    0    0  0.66456478994E+02 -0.60576703170E+02  0.29690350642E+03  0.32648388480E+03  0.10175477552E+03 0.  0.
        -11    1    4    4    0    0  0.25829383298E+02 -0.63208895021E+02  0.77305690756E+02  0.10314403170E+03  0.00000000000E+00 0.  1.
         11    1    4    4    0    0  0.40627095695E+02  0.26321918512E+01  0.21959781566E+03  0.22333985310E+03  0.00000000000E+00 0. -1.
        -13    1    3    3    0    0  0.33157897778E+01  0.33057563324E+02  0.15769359744E+03  0.16115541451E+03  0.00000000000E+00 0. -1.
         13    1    3    3    0    0 -0.36557235257E+02  0.10457202847E+01  0.15590464298E+02  0.39756603949E+02  0.00000000000E+00 0.  1.
         21    1    1    2  502  501 -0.33215033514E+02  0.26473419562E+02  0.24228630259E+03  0.24598116354E+03  0.00000000000E+00 0. -1.
<scales pt_clust_5="13000.00000" pt_clust_6="13000.00000" pt_clust_7="13000.00000" pt_clust_8="13000.00000" pt_clust_9="42.47447"></scales>
<clustering>
<clus scale="   42.474">  1  9  2 -1</clus>
<clus scale="   89.835">  7  8 -1 -1</clus>
<clus scale="  101.755">  5  6 -1 -1</clus>
<clus scale="  109.990">  2  7  1 -1</clus>
<clus scale="   42.474">  1  5  2 -1</clus>
</clustering>
</event>
<event>
 9    1  0.1234700E-005  0.1369675E+03  0.7546771E-02  0.1222416E+00
          4   -1    0    0  502    0  0.00000000000E+00  0.00000000000E+00  0.19331329369E+03  0.19331329369E+03  0.00000000000E+00 0. -1.
         -4   -1    0    0    0  501 -0.00000000000E+00 -0.00000000000E+00 -0.12610833592E+03  0.12610833592E+03  0.00000000000E+00 0.  1.
         23    2    1    2    0    0  0.19483347320E+02  0.77973309613E+02  0.16505151503E+02  0.13374402304E+03  0.10562010148E+03 0.  0.
         23    2    1    2    0    0  0.10823401511E+02 -0.95515775727E+02  0.75811394445E+01  0.13013072033E+03  0.87384902960E+02 0.  0.
        -11    1    4    4    0    0 -0.34180101314E+02 -0.29575670554E+02  0.19838480032E+02  0.49361573157E+02  0.00000000000E+00 0.  1.
         11    1    4    4    0    0  0.45003502825E+02 -0.65940105172E+02 -0.12257340588E+02  0.80769147172E+02  0.00000000000E+00 0. -1.
        -13    1    3    3    0    0  0.22496901589E+02  0.16103191565E+02  0.54468975140E+02  0.61092492276E+02  0.00000000000E+00 0. -1.
         13    1    3    3    0    0 -0.30135542686E+01  0.61870118048E+02 -0.37963823637E+02  0.72651530760E+02  0.00000000000E+00 0.  1.
         21    1    1    2  502  501 -0.30306748831E+02  0.17542466113E+02  0.43118666823E+02  0.55546886237E+02  0.00000000000E+00 0.  1.
<scales pt_clust_5="13000.00000" pt_clust_6="13000.00000" pt_clust_7="13000.00000" pt_clust_8="13000.00000" pt_clust_9="35.01767"></scales>
<clustering>
<clus scale="   35.018">  1  9  2 -1</clus>
<clus scale="   87.385">  5  6 -1 -1</clus>
<clus scale="  105.620">  7  8 -1 -1</clus>
<clus scale="  123.453">  1  5  2 -1</clus>
<clus scale="   35.018">  1  5  2 -1</clus>
</clustering>
</event>
<event>
 9    1  0.1234700E-005  0.1225999E+03  0.7546771E-02  0.1240030E+00
         -1   -1    0    0    0  501 -0.00000000000E+00  0.00000000000E+00  0.37305398294E+03  0.37305398294E+03  0.00000000000E+00 0.  1.
          1   -1    0    0  502    0  0.00000000000E+00 -0.00000000000E+00 -0.24311232126E+03  0.24311232126E+03  0.00000000000E+00 0. -1.
         23    2    1    2    0    0 -0.24802950957E+02 -0.10595848973E+03  0.22656459016E+03  0.26836728329E+03  0.94059009711E+02 0.  0.
         23    2    1    2    0    0  0.17989690852E+02  0.44319033219E+02  0.99184247545E+02  0.14240599937E+03  0.90300321226E+02 0.  0.
        -11    1    4    4    0    0 -0.20597849443E+02  0.39647802277E+02  0.92827727021E+02  0.10302041803E+03  0.00000000000E+00 0.  1.
         11    1    4    4    0    0  0.38587540295E+02  0.46712309422E+01  0.63565205249E+01  0.39385581343E+02  0.00000000000E+00 0. -1.
        -13    1    3    3    0    0 -0.46776189447E+02 -0.42552625042E+02  0.16725038628E+03  0.17880556341E+03  0.00000000000E+00 0.  1.
         13    1    3    3    0    0  0.21973238490E+02 -0.63405864687E+02  0.59314203880E+02  0.89561719883E+02  0.00000000000E+00 0. -1.
         21    1    1    2  502  501  0.68132601047E+01  0.61639456510E+02 -0.19580717602E+03  0.20539302153E+03  0.00000000000E+00 0.  1.
<scales pt_clust_5="13000.00000" pt_clust_6="13000.00000" pt_clust_7="13000.00000" pt_clust_8="13000.00000" pt_clust_9="62.01486"></scales>
<clustering>
<clus scale="   62.015">  2  9  1 -1</clus>
<clus scale="   90.300">  5  6 -1 -1</clus>
<clus scale="   94.059">  7  8 -1 -1</clus>
<clus scale="  119.740">  2  5  1 -1</clus>
<clus scale="   62.015">  2  5  1 -1</clus>
</clustering>
</event>
<event>
 9    1  0.1234700E-005  0.1014392E+03  0.7546771E-02  0.1279057E+00
         -3   -1    0    0    0  501 -0.00000000000E+00  0.00000000000E+00  0.11357010280E+03  0.11357010280E+03  0.00000000000E+00 0.  1.
          3   -1    0    0  502    0  0.00000000000E+00 -0.00000000000E+00 -0.16396038161E+03  0.16396038161E+03  0.00000000000E+00 0. -1.
         23    2    1    2    0    0  0.53108701577E+02  0.14455463551E+02  0.25670723055E+02  0.11286707424E+03  0.95134093867E+02 0.  0.
         23    2    1    2    0    0 -0.46125305002E+01  0.82218699743E+01 -0.41671645790E+02  0.10103348107E+03  0.91555249174E+02 0.  0.
        -11    1    3    3    0    0  0.55400094896E+02 -0.23774256115E+02 -0.93068276410E+01  0.61000023025E+02  0.00000000000E+00 0.  1.
         11    1    3    3    0    0 -0.22913933192E+01  0.38229719666E+02  0.34977550696E+02  0.51867051216E+02  0.00000000000E+00 0. -1.
        -11    1    4    4    0    0  0.15074841570E+02 -0.29987504067E+02  0.88406762637E+01  0.34708195074E+02  0.00000000000E+00 0.  1.
         11    1    4    4    0    0 -0.19687372070E+02  0.38209374041E+02 -0.50512322053E+02  0.66325285999E+02  0.00000000000E+00 0. -1.
         21    1    1    2  502  501 -0.48496171077E+02 -0.22677333525E+02 -0.34389356078E+02  0.63629929093E+02  0.00000000000E+00 0. -1.
<scales pt_clust_5="13000.00000" pt_clust_6="13000.00000" pt_clust_7="13000.00000" pt_clust_8="13000.00000" pt_clust_9="53.53634"></scales>
<clustering>
<clus scale="   53.536">  2  9  1 -1</clus>
<clus scale="   91.555">  7  8 -1 -1</clus>
<clus scale="   95.134">  5  6 -1 -1</clus>
<clus scale="   98.091">  2  7  1 -1</clus>
<clus scale="   53.536">  2  5  1 -1</clus>
</clustering>
</event>
<event>
 9    1  0.1234700E-005  0.1335053E+03  0.7546771E-02  0.1223033E+00
          2   -1    0    0  502    0  0.00000000000E+00  0.00000000000E+00  0.59312879810E+03  0.59312879810E+03  0.00000000000E+00 0. -1.
         -2   -1    0    0    0  501 -0.00000000000E+00 -0.00000000000E+00 -0.38661804070E+02  0.38661804070E+02  0.00000000000E+00 0.  1.
         23    2    1    2    0    0  0.44825636135E+02  0.92676836789E+02  0.17327639545E+03  0.22011433321E+03  0.88471897976E+02 0.  0.
         23    2    1    2    0    0 -0.58347998594E+02 -0.75332803630E+02  0.34439713311E+03  0.36881102810E+03  0.91283453665E+02 0.  0.
        -11    1    4    4    0    0 -0.17339728953E+02  0.14964889927E+02  0.22994381726E+02  0.32455442096E+02  0.00000000000E+00 0.  1.
         11    1    4    4    0    0 -0.41008269641E+02 -0.90297693557E+02  0.32140275138E+03  0.33635558601E+03  0.00000000000E+00 0. -1.
        -13    1    3    3    0    0  0.27908405398E+02  0.63920779501E+02  0.35319735750E+02  0.78180744927E+02  0.00000000000E+00 0.  1.
         13    1    3    3    0    0  0.16917230738E+02  0.28756057288E+02  0.13795665970E+03  0.14193358828E+03  0.00000000000E+00 0. -1.
         21    1    1    2  502  501  0.13522362459E+02 -0.17344033159E+02  0.36793465470E+02  0.42865240860E+02  0.00000000000E+00 0. -1.
<scales pt_clust_5="13000.00000" pt_clust_6="13000.00000" pt_clust_7="13000.00000" pt_clust_8="13000.00000" pt_clust_9="21.99249"></scales>
<clustering>
<clus scale="   21.992">  2  9  1 -1</clus>
<clus scale="   88.472">  7  8 -1 -1</clus>
<clus scale="   91.283">  5  6 -1 -1</clus>
<clus scale="  131.599">  2  7  1 -1</clus>
<clus scale="  133.505">  1  5  2 -1</clus>
</clustering>
</event>
<event>
 9    1  0.1234700E-005  0.1489580E+03  0.7546771E-02  0.1202540E+00
         -1   -1    0    0    0  501 -0.00000000000E+00  0.00000000000E+00  0.87441910924E+02  0.87441910924E+02  0.00000000000E+00 0.  1.
          1   -1    0    0  502    0  0.00000000000E+00 -0.00000000000E+00 -0.36842431523E+03  0.36842431523E+03  0.00000000000E+00 0. -1.
         23    2    1    2    0    0 -0.28731633780E+02 -0.13739027729E+03 -0.12344680515E+03  0.20845085728E+03  0.92255358243E+02 0.  0.
         23    2    1    2    0    0  0.38539548730E+02  0.89203853798E+02 -0.13871149243E+03  0.19476108511E+03  0.96168486474E+02 0.  0.
        -11    1    3    3    0    0  0.23556773273E+02 -0.92160458159E+02 -0.49549764490E+02  0.10725507343E+03  0.00000000000E+00 0.  1.
         11    1    3    3    0    0 -0.52288407053E+02 -0.45229819135E+02 -0.73897040659E+02  0.10119578385E+03  0.00000000000E+00 0. -1.
        -13    1    4    4    0    0 -0.40694457542E+01  0.92716105510E+02 -0.82772071656E+02  0.12435454337E+03  0.00000000000E+00 0. -1.
         13    1    4    4    0    0  0.42608994485E+02 -0.35122517120E+01 -0.55939420779E+02  0.70406541743E+02  0.00000000000E+00 0.  1.
         21    1    1    2  502  501 -0.98079149502E+01  0.48186423496E+02 -0.18824106723E+02  0.52654283767E+02  0.00000000000E+00 0. -1.
<scales pt_clust_5="13000.00000" pt_clust_6="13000.00000" pt_clust_7="13000.00000" pt_clust_8="13000.00000" pt_clust_9="49.17445"></scales>
<clustering>
<clus scale="   49.174">  1  9  2 -1</clus>
<clus scale="   92.255">  5  6 -1 -1</clus>
<clus scale="   96.168">  7  8 -1 -1</clus>
<clus scale="  146.462">  1  5  2 -1</clus>
<clus scale="  148.958">  2  5  1 -1</clus>
</clustering>
</event>
<event>
 9    1  0.1234700E-005  0.3343432E+03  0.7546771E-02  0.1069303E+00
         -1   -1    0    0    0  501 -0.00000000000E+00  0.00000000000E+00  0.11108173373E+03  0.11108173373E+03  0.00000000000E+00 0.  1.
          1   -1    0    0  502    0  0.00000000000E+00 -0.00000000000E+00 -0.19959450689E+04  0.19959450689E+04  0.00000000000E+00 0. -1.
         23    2    1    2    0    0  0.15902284690E+03 -0.27308556342E+03 -0.23030011103E+03  0.40124834681E+03  0.89989465474E+02 0.  0.
         23    2    1    2    0    0 -0.21067776848E+03  0.28081738886E+03 -0.14077622970E+04  0.14535113163E+04  0.87503906764E+02 0.  0.
        -11    1    3    3    0    0  0.14471723006E+03 -0.19019091178E+03 -0.20066426637E+03  0.31206058290E+03  0.00000000000E+00 0. -1.
         11    1    3    3    0    0  0.14305616837E+02 -0.82894651638E+02 -0.29635844658E+02  0.89187763913E+02  0.00000000000E+00 0.  1.
        -11    1    4    4    0    0 -0.15611035563E+03  0.13942792714E+03 -0.76432558948E+03  0.79246715814E+03  0.00000000000E+00 0.  1.
         11    1    4    4    0    0 -0.54567412854E+02  0.14138946173E+03 -0.64343670757E+03  0.66104415819E+03  0.00000000000E+00 0. -1.
         21    1    1    2  502  501  0.51654921585E+02 -0.77318254491E+01 -0.24680092712E+03  0.25226713951E+03  0.00000000000E+00 0.  1.
<scales pt_clust_5="13000.00000" pt_clust_6="13000.00000" pt_clust_7="13000.00000" pt_clust_8="13000.00000" pt_clust_9="52.23037"></scales>
<clustering>
<clus scale="   52.230">  2  9  1 -1</clus>
<clus scale="   87.504">  7  8 -1 -1</clus>
<clus scale="   89.989">  5  6 -1 -1</clus>
<clus scale="  333.683">  2  7  1 -1</clus>
<clus scale="   52.230">  2  5  1 -1</clus>
</clustering>
</event>
<event>
 9    1  0.1234700E-005  0.1054620E+03  0.7546771E-02  0.1270962E+00
          1   -1    0    0  502    0  0.00000000000E+00  0.00000000000E+00  0.13744832366E+03  0.13744832366E+03  0.00000000000E+00 0. -1.
         -1   -1    0    0    0  501 -0.00000000000E+00 -0.00000000000E+00 -0.12895936185E+03  0.12895936185E+03  0.00000000000E+00 0.  1.
         23    2    1    2    0    0  0.26627812897E+02  0.49604918552E+02 -0.64514245177E+02  0.12599575113E+03  0.92429178877E+02 0.  0.
         23    2    1    2    0    0 -0.20206497838E+02 -0.27760895047E+02  0.69026072224E+02  0.11729890232E+03  0.88405112920E+02 0.  0.
        -11    1    4    4    0    0 -0.51585711497E+02 -0.28465303079E+02  0.26907943761E+02  0.64771880840E+02  0.00000000000E+00 0.  1.
         11    1    4    4    0    0  0.31379213659E+02  0.70440803240E+00  0.42118128463E+02  0.52527021482E+02  0.00000000000E+00 0. -1.
        -13    1    3    3    0    0  0.96095451989E+01  0.75043366312E+02 -0.56302700071E+02  0.94307180117E+02  0.00000000000E+00 0.  1.
         13    1    3    3    0    0  0.17018267698E+02 -0.25438447759E+02 -0.82115451061E+01  0.31688571014E+02  0.00000000000E+00 0. -1.
         21    1    1    2  502  501 -0.64213150592E+01 -0.21844023505E+02  0.39771347691E+01  0.23113032059E+02  0.00000000000E+00 0. -1.
<scales pt_clust_5="13000.00000" pt_clust_6="13000.00000" pt_clust_7="13000.00000" pt_clust_8="13000.00000" pt_clust_9="22.76828"></scales>
<clustering>
<clus scale="   22.768">  1  9  2 -1</clus>
<clus scale="   88.405">  5  6 -1 -1</clus>
<clus scale="   92.429">  7  8 -1 -1</clus>
<clus scale="  101.954">  1  5  2 -1</clus>
<clus scale="   22.768">  1  5  2 -1</clus>
</clustering>
</event>
<event>
 9    1  0.1234700E-005  0.1176783E+03  0.7546771E-02  0.1247541E+00
         -1   -1    0    0    0  501 -0.00000000000E+00  0.00000000000E+00  0.18683148507E+03  0.18683148507E+03  0.00000000000E+00 0.  1.
          1   -1    0    0  502    0  0.00000000000E+00 -0.00000000000E+00 -0.14361331576E+03  0.14361331576E+03  0.00000000000E+00 0. -1.
         23    2    1    2    0    0 -0.65786438799E+01  0.73139186829E+02  0.94284974545E+02  0.15107993761E+03  0.92427657756E+02 0.  0.
         23    2    1    2    0    0 -0.36345110442E+02 -0.71238503395E+02 -0.12437592880E+02  0.12158703589E+03  0.90734900463E+02 0.  0.
        -13    1    3    3    0    0  0.31773114332E+02  0.10326408869E+02  0.25985814829E+01  0.33509970758E+02  0.00000000000E+00 0.  1.
         13    1    3    3    0    0 -0.38351758212E+02  0.62812777960E+02  0.91686393062E+02  0.11756996685E+03  0.00000000000E+00 0. -1.
        -13    1    4    4    0    0 -0.47396851808E+02 -0.88410464511E+02 -0.76031634782E+01  0.10060158990E+03  0.00000000000E+00 0.  1.
         13    1    4    4    0    0  0.11051741366E+02  0.17171961116E+02 -0.48344294021E+01  0.20985445991E+02  0.00000000000E+00 0. -1.
         21    1    1    2  502  501  0.42923754322E+02 -0.19006834342E+01 -0.38629212352E+02  0.57777827318E+02  0.00000000000E+00 0. -1.
<scales pt_clust_5="13000.00000" pt_clust_6="13000.00000" pt_clust_7="13000.00000" pt_clust_8="13000.00000" pt_clust_9="42.96582"></scales>
<clustering>
<clus scale="   42.966">  2  9  1 -1</clus>
<clus scale="   90.735">  7  8 -1 -1</clus>
<clus scale="   92.428">  5  6 -1 -1</clus>
<clus scale="  116.353">  2  7  1 -1</clus>
<clus scale="   42.966">  2  5  1 -1</clus>
</clustering>
</event>
<event>
 9    1  0.1234700E-005  0.1060094E+03  0.7546771E-02  0.1268579E+00
         -1   -1    0    0    0  501 -0.00000000000E+00  0.00000000000E+00  0.35019352205E+02  0.35019352205E+02  0.00000000000E+00 0.  1.
          1   -1    0    0  502    0  0.00000000000E+00 -0.00000000000E+00 -0.46270970234E+03  0.46270970234E+03  0.00000000000E+00 0. -1.
         23    2    1    2    0    0 -0.26604513303E+02 -0.36977643701E+02 -0.10714863147E+03  0.14890962168E+03  0.92833722001E+02 0.  0.
         23    2    1    2    0    0  0.22604755637E+02  0.58845532592E+02 -0.22940706422E+03  0.25501256816E+03  0.91815233596E+02 0.  0.
        -11    1    3    3    0    0 -0.34820795784E+01 -0.64825162387E+02 -0.53143770351E+02  0.83896882444E+02  0.00000000000E+00 0.  1.
         11    1    3    3    0    0 -0.23122433724E+02  0.27847518686E+02 -0.54004861116E+02  0.65012739232E+02  0.00000000000E+00 0. -1.
        -11    1    4    4    0    0  0.43388964938E+02  0.17542262091E+02 -0.45103254308E+02  0.64997205992E+02  0.00000000000E+00 0.  1.
         11    1    4    4    0    0 -0.20784209301E+02  0.41303270501E+02 -0.18430380991E+03  0.19001536216E+03  0.00000000000E+00 0. -1.
         21    1    1    2  502  501  0.39997576657E+01 -0.21867888891E+02 -0.91134654450E+02  0.93806864715E+02  0.00000000000E+00 0.  1.
<scales pt_clust_5="13000.00000" pt_clust_6="13000.00000" pt_clust_7="13000.00000" pt_clust_8="13000.00000" pt_clust_9="22.23067"></scales>
<clustering>
<clus scale="   22.231">  2  9  1 -1</clus>
<clus scale="   91.815">  7  8 -1 -1</clus>
<clus scale="   92.834">  5  6 -1 -1</clus>
<clus scale="  105.119">  2  7  1 -1</clus>
<clus scale="   22.231">  2  5  1 -1</clus>
</clustering>
</event>
<event>
 9    1  0.1234700E-005  0.1218095E+03  0.7546771E-02  0.1251545E+00
         -2   -1    0    0    0  501 -0.00000000000E+00  0.00000000000E+00  0.20529290084E+03  0.20529290084E+03  0.00000000000E+00 0.  1.
          2   -1    0    0  502    0  0.00000000000E+00 -0.00000000000E+00 -0.11295877702E+03  0.11295877702E+03  0.00000000000E+00 0. -1.
         23    2    1    2    0    0 -0.58091045732E+02 -0.18536905662E+02  0.76365976669E+02  0.15413967489E+03  0.11920188973E+03 0.  0.
         23    2    1    2    0    0  0.90382270410E+01 -0.21715434641E+02 -0.68104403881E+01  0.96693207591E+02  0.93541138790E+02 0.  0.
        -11    1    3    3    0    0 -0.28718466981E+02  0.30017557475E+02  0.86995209028E+02  0.96405241021E+02  0.00000000000E+00 0.  1.
         11    1    3    3    0    0 -0.29372578751E+02 -0.48554463137E+02 -0.10629232359E+02  0.57734433864E+02  0.00000000000E+00 0. -1.
        -13    1    4    4    0    0 -0.39222101961E+02 -0.77325282832E+01  0.13931576956E+02  0.42335022291E+02  0.00000000000E+00 0.  1.
         13    1    4    4    0    0  0.48260329002E+02 -0.13982906358E+02 -0.20742017344E+02  0.54358185300E+02  0.00000000000E+00 0. -1.
         21    1    1    2  502  501  0.49052818691E+02  0.40252340303E+02  0.22778587540E+02  0.67418795389E+02  0.00000000000E+00 0. -1.
<scales pt_clust_5="13000.00000" pt_clust_6="13000.00000" pt_clust_7="13000.00000" pt_clust_8="13000.00000" pt_clust_9="63.45416"></scales>
<clustering>
<clus scale="   63.454">  1  9  2 -1</clus>
<clus scale="   93.541">  7  8 -1 -1</clus>
<clus scale="   96.842">  2  7  1 -1</clus>
<clus scale="  119.202">  5  6 -1 -1</clus>
<clus scale="   96.842">  2  5  1 -1</clus>
</clustering>
</event>
<event>
 9    1  0.1234700E-005  0.1043807E+03  0.7546771E-02  0.1273095E+00
          2   -1    0    0  502    0  0.00000000000E+00  0.00000000000E+00  0.65756537801E+03  0.65756537801E+03  0.00000000000E+00 0. -1.
         -2   -1    0    0    0  501 -0.00000000000E+00 -0.00000000000E+00 -0.21510945412E+02  0.21510945412E+02  0.00000000000E+00 0.  1.
         23    2    1    2    0    0  0.38400367990E+02 -0.27603459855E+02  0.26799153593E+03  0.28587324814E+03  0.87564327290E+02 0.  0.
         23    2    1    2    0    0 -0.57209516488E+02  0.38454772843E+01  0.28396123364E+03  0.30380891704E+03  0.91532286066E+02 0.  0.
        -11    1    4    4    0    0 -0.81178845378E+02  0.62470179580E+00  0.18670273679E+03  0.20358857314E+03  0.00000000000E+00 0.  1.
         11    1    4    4    0    0  0.23969328889E+02  0.32207754885E+01  0.97258496850E+02  0.10022034390E+03  0.00000000000E+00 0. -1.
        -11    1    3    3    0    0 -0.24036661142E+02  0.95627269583E+01  0.89354370209E+02  0.93023708275E+02  0.00000000000E+00 0.  1.
         11    1    3    3    0    0  0.62437029132E+02 -0.37166186813E+02  0.17863716572E+03  0.19284953987E+03  0.00000000000E+00 0. -1.
         21    1    1    2  502  501  0.18809148498E+02  0.23757982570E+02  0.84101663022E+02  0.89394158233E+02  0.00000000000E+00 0. -1.
<scales pt_clust_5="13000.00000" pt_clust_6="13000.00000" pt_clust_7="13000.00000" pt_clust_8="13000.00000" pt_clust_9="30.30224"></scales>
<clustering>
<clus scale="   30.302">  1  9  2 -1</clus>
<clus scale="   87.564">  7  8 -1 -1</clus>
<clus scale="   91.532">  5  6 -1 -1</clus>
<clus scale="  100.919">  2  7  1 -1</clus>
<clus scale="   30.302">  1  5  2 -1</clus>
</clustering>
</event>
<event>
 9    1  0.1234700E-005  0.2090304E+03  0.7546771E-02  0.1153954E+00
          1   -1    0    0  502    0  0.00000000000E+00  0.00000000000E+00  0.55856186692E+03  0.55856186692E+03  0.00000000000E+00 0. -1.
         -1   -1    0    0    0  501 -0.00000000000E+00 -0.00000000000E+00 -0.57249941079E+03  0.57249941079E+03  0.00000000000E+00 0.  1.
         23    2    1    2    0    0 -0.98492893398E+02  0.93179879783E+02 -0.46239760106E+02  0.16518981935E+03  0.82257041992E+02 0.  0.
         23    2    1    2    0    0 -0.44042567056E+02 -0.21995404972E+03 -0.41500284043E+03  0.47958978959E+03  0.86368263945E+02 0.  0.
        -11    1    4    4    0    0 -0.50350828479E+02 -0.19806976197E+03 -0.30423549846E+03  0.36650521832E+03  0.00000000000E+00 0.  1.
         11    1    4    4    0    0  0.63082614229E+01 -0.21884287754E+02 -0.11076734197E+03  0.11308457127E+03  0.00000000000E+00 0. -1.
        -11    1    3    3    0    0 -0.74924427923E+02  0.60563618281E+02  0.90958747115E+01  0.96769606260E+02  0.00000000000E+00 0. -1.
         11    1    3    3    0    0 -0.23568465476E+02  0.32616261501E+02 -0.55335634818E+02  0.68420213094E+02  0.00000000000E+00 0.  1.
         21    1    1    2  502  501  0.14253546045E+03  0.12677416994E+03  0.44730505667E+03  0.48628166876E+03  0.00000000000E+00 0. -1.
<scales pt_clust_5="13000.00000" pt_clust_6="13000.00000" pt_clust_7="13000.00000" pt_clust_8="13000.00000" pt_clust_9="190.35290"></scales>
<clustering>
<clus scale="   82.257">  7  8 -1 -1</clus>
<clus scale="   86.368">  5  6 -1 -1</clus>
<clus scale="  158.586">  2  7  1 -1</clus>
<clus scale="  190.353">  1  9  2 -1</clus>
<clus scale="  190.353">  1  5  2 -1</clus>
</clustering>
</event>
<event>
 9    1  0.1234700E-005  0.2278545E+03  0.7546771E-02  0.1164801E+00
          1   -1    0    0  502    0  0.00000000000E+00  0.00000000000E+00  0.15423449812E+03  0.15423449812E+03  0.00000000000E+00 0. -1.
         -1   -1    0    0    0  501 -0.00000000000E+00 -0.00000000000E+00 -0.46477283140E+03  0.46477283140E+03  0.00000000000E+00 0.  1.
         23    2    1    2    0    0  0.25139559887E+02  0.22555588582E+03 -0.14275986596E+03  0.28325925968E+03  0.91367246691E+02 0.  0.
         23    2    1    2    0    0 -0.38938218506E+02 -0.30323885593E+02 -0.53422166239E+02  0.10906922103E+03  0.81280035885E+02 0.  0.
        -13    1    4    4    0    0 -0.24556460334E+02  0.16995553417E+02  0.73112400561E+01  0.30746102374E+02  0.00000000000E+00 0. -1.
         13    1    4    4    0    0 -0.14381758172E+02 -0.47319439010E+02 -0.60733406296E+02  0.78323118660E+02  0.00000000000E+00 0.  1.
        -13    1    3    3    0    0 -0.18360738640E+01  0.18558157715E+03 -0.75185715181E+02  0.20024181560E+03  0.00000000000E+00 0. -1.
         13    1    3    3    0    0  0.26975633751E+02  0.39974308670E+02 -0.67574150774E+02  0.83017444087E+02  0.00000000000E+00 0.  1.
         21    1    1    2  502  501  0.13798658618E+02 -0.19523200023E+03 -0.11435630109E+03  0.22667884880E+03  0.00000000000E+00 0.  1.
<scales pt_clust_5="13000.00000" pt_clust_6="13000.00000" pt_clust_7="13000.00000" pt_clust_8="13000.00000" pt_clust_9="208.73351"></scales>
<clustering>
<clus scale="   81.280">  5  6 -1 -1</clus>
<clus scale="   91.367">  7  8 -1 -1</clus>
<clus scale="   95.090">  1  5  2 -1</clus>
<clus scale="  208.734">  2  9  1 -1</clus>
<clus scale="   95.090">  1  5  2 -1</clus>
</clustering>
</event>
<event>
 9    1  0.1234700E-005  0.1174383E+03  0.7546771E-02  0.1252618E+00
          3   -1    0    0  502    0  0.00000000000E+00  0.00000000000E+00  0.12644792854E+03  0.12644792854E+03  0.00000000000E+00 0. -1.
         -3   -1    0    0    0  501 -0.00000000000E+00 -0.00000000000E+00 -0.19307364846E+03  0.19307364846E+03  0.00000000000E+00 0.  1.
         23    2    1    2    0    0 -0.47664379558E+02 -0.21011864114E+02 -0.12197830254E+03  0.16955533363E+03  0.10562629105E+03 0.  0.
         23    2    1    2    0    0  0.34940841224E+02  0.39666332240E+02  0.20570377478E+02  0.10849722597E+03  0.92489065923E+02 0.  0.
        -11    1    3    3    0    0 -0.80064491132E+02 -0.18091464585E+01 -0.81349961802E+02  0.11415521029E+03  0.00000000000E+00 0.  1.
         11    1    3    3    0    0  0.32400111574E+02 -0.19202717655E+02 -0.40628340736E+02  0.55400123342E+02  0.00000000000E+00 0. -1.
        -13    1    4    4    0    0 -0.20148097016E+02 -0.13677292200E+02  0.20472071564E+02  0.31813831102E+02  0.00000000000E+00 0. -1.
         13    1    4    4    0    0  0.55088938240E+02  0.53343624440E+02  0.98305914042E-01  0.76683394870E+02  0.00000000000E+00 0.  1.
         21    1    1    2  502  501  0.12723538334E+02 -0.18654468126E+02  0.34782205141E+02  0.41469017390E+02  0.00000000000E+00 0. -1.
<scales pt_clust_5="13000.00000" pt_clust_6="13000.00000" pt_clust_7="13000.00000" pt_clust_8="13000.00000" pt_clust_9="22.58047"></scales>
<clustering>
<clus scale="   22.580">  1  9  2 -1</clus>
<clus scale="   92.489">  7  8 -1 -1</clus>
<clus scale="  105.626">  5  6 -1 -1</clus>
<clus scale="  105.778">  1  7  2 -1</clus>
<clus scale="   22.580">  1  5  2 -1</clus>
</clustering>
</event>
<event>
 9    1  0.1234700E-005  0.1070626E+03  0.7546771E-02  0.1271385E+00
          1   -1    0    0  502    0  0.00000000000E+00  0.00000000000E+00  0.25700789321E+03  0.25700789321E+03  0.00000000000E+00 0. -1.
         -1   -1    0    0    0  501 -0.00000000000E+00 -0.00000000000E+00 -0.61431287508E+02  0.61431287508E+02  0.00000000000E+00 0.  1.
         23    2    1    2    0    0 -0.34942071537E+02 -0.26653102587E+02  0.41532400665E+02  0.11862171463E+03  0.10205309714E+03 0.  0.
         23    2    1    2    0    0  0.37025544164E+01  0.19009387633E+02  0.97861711250E+02  0.13508102800E+03  0.91076362851E+02 0.  0.
        -11    1    3    3    0    0 -0.24996882419E+02 -0.54402994767E+02 -0.85794793976E+01  0.60482538282E+02  0.00000000000E+00 0.  1.
         11    1    3    3    0    0 -0.99451891177E+01  0.27749892180E+02  0.50111880063E+02  0.58139176344E+02  0.00000000000E+00 0. -1.
        -11    1    4    4    0    0  0.33490253361E+02 -0.21049843574E+02  0.62270915886E+02  0.73772352206E+02  0.00000000000E+00 0.  1.
         11    1    4    4    0    0 -0.29787698945E+02  0.40059231207E+02  0.35590795364E+02  0.61308675797E+02  0.00000000000E+00 0. -1.
         21    1    1    2  502  501  0.31239517120E+02  0.76437149538E+01  0.56182493782E+02  0.64736438084E+02  0.00000000000E+00 0.  1.
<scales pt_clust_5="13000.00000" pt_clust_6="13000.00000" pt_clust_7="13000.00000" pt_clust_8="13000.00000" pt_clust_9="32.16106"></scales>
<clustering>
<clus scale="   32.161">  1  9  2 -1</clus>
<clus scale="   91.076">  7  8 -1 -1</clus>
<clus scale="   96.656">  1  7  2 -1</clus>
<clus scale="  102.053">  5  6 -1 -1</clus>
<clus scale="   32.161">  1  5  2 -1</clus>
</clustering>
</event>
<event>
 9    1  0.1234700E-005  0.9854658E+02  0.7546771E-02  0.1285415E+00
          2   -1    0    0  502    0  0.00000000000E+00  0.00000000000E+00  0.86264606704E+02  0.86264606704E+02  0.00000000000E+00 0. -1.
         -2   -1    0    0    0  501 -0.00000000000E+00 -0.00000000000E+00 -0.15173522227E+03  0.15173522227E+03  0.00000000000E+00 0.  1.
         23    2    1    2    0    0 -0.43907872421E+02  0.85392411356E+01 -0.45116294369E+02  0.10698755650E+03  0.86081573684E+02 0.  0.
         23    2    1    2    0    0  0.35265751298E+02  0.11276611785E+02 -0.36453959814E+02  0.10405763191E+03  0.90156887617E+02 0.  0.
        -13    1    3    3    0    0 -0.49530079691E+02  0.38268784428E+02 -0.15141525720E+02  0.64397161870E+02  0.00000000000E+00 0.  1.
         13    1    3    3    0    0  0.56222072699E+01 -0.29729543292E+02 -0.29974768648E+02  0.42590394627E+02  0.00000000000E+00 0. -1.
        -13    1    4    4    0    0  0.21865393853E+02 -0.38463843848E+02 -0.26553761158E+02  0.51601017078E+02  0.00000000000E+00 0. -1.
         13    1    4    4    0    0  0.13400357444E+02  0.49740455633E+02 -0.99001986561E+01  0.52456614832E+02  0.00000000000E+00 0.  1.
         21    1    1    2  502  501  0.86421211232E+01 -0.19815852921E+02  0.16099638616E+02  0.26954640566E+02  0.00000000000E+00 0. -1.
<scales pt_clust_5="13000.00000" pt_clust_6="13000.00000" pt_clust_7="13000.00000" pt_clust_8="13000.00000" pt_clust_9="21.61838"></scales>
<clustering>
<clus scale="   21.618">  1  9  2 -1</clus>
<clus scale="   86.082">  5  6 -1 -1</clus>
<clus scale="   90.157">  7  8 -1 -1</clus>
<clus scale="   94.832">  2  5  1 -1</clus>
<clus scale="   21.618">  1  5  2 -1</clus>
</clustering>
</event>
<event>
 9    1  0.1234700E-005  0.9270910E+02  0.7546771E-02  0.1296942E+00
          1   -1    0    0  502    0  0.00000000000E+00  0.00000000000E+00  0.10105823127E+03  0.10105823127E+03  0.00000000000E+00 0. -1.
         -1   -1    0    0    0  501 -0.00000000000E+00 -0.00000000000E+00 -0.13402997289E+03  0.13402997289E+03  0.00000000000E+00 0.  1.
         23    2    1    2    0    0 -0.14181527378E+02 -0.96322281070E+01 -0.46477648296E+02  0.10428422404E+03  0.91766726295E+02 0.  0.
         23    2    1    2    0    0  0.10734866624E+02 -0.24920647828E+02  0.15185775846E+02  0.96039016932E+02  0.90865884332E+02 0.  0.
        -11    1    3    3    0    0  0.38132657378E+02  0.55737513924E+01 -0.23647214754E+02  0.45214566557E+02  0.00000000000E+00 0.  1.
         11    1    3    3    0    0 -0.52314184755E+02 -0.15205979499E+02 -0.22830433541E+02  0.59069657480E+02  0.00000000000E+00 0. -1.
        -13    1    4    4    0    0  0.43343078096E+02 -0.39215106707E+02  0.34545786454E+01  0.58552379341E+02  0.00000000000E+00 0.  1.
         13    1    4    4    0    0 -0.32608211472E+02  0.14294458879E+02  0.11731197201E+02  0.37486637590E+02  0.00000000000E+00 0. -1.
         21    1    1    2  502  501  0.34466607534E+01  0.34552875935E+02 -0.16798691722E+01  0.34764963198E+02  0.00000000000E+00 0. -1.
<scales pt_clust_5="13000.00000" pt_clust_6="13000.00000" pt_clust_7="13000.00000" pt_clust_8="13000.00000" pt_clust_9="34.72435"></scales>
<clustering>
<clus scale="   34.724">  1  9  2 -1</clus>
<clus scale="   90.866">  7  8 -1 -1</clus>
<clus scale="   91.767">  5  6 -1 -1</clus>
<clus scale="   91.818">  1  7  2 -1</clus>
<clus scale="   34.724">  1  5  2 -1</clus>
</clustering>
</event>
<event>
 9    1  0.1234700E-005  0.2330055E+03  0.7546771E-02  0.1157581E+00
          2   -1    0    0  502    0  0.00000000000E+00  0.00000000000E+00  0.13509375023E+04  0.13509375023E+04  0.00000000000E+00 0. -1.
         -2   -1    0    0    0  501 -0.00000000000E+00 -0.00000000000E+00 -0.59478319897E+02  0.59478319897E+02  0.00000000000E+00 0.  1.
         23    2    1    2    0    0  0.21506758570E+03  0.95238924129E+02  0.54418048663E+03  0.59690150233E+03  0.69530442024E+02 0.  0.
         23    2    1    2    0    0 -0.46095926899E+01 -0.54986787566E+02  0.29129469327E+03  0.30969469752E+03  0.89517664129E+02 0.  0.
        -13    1    4    4    0    0 -0.40796334585E+02 -0.32457730522E+01  0.93432987743E+02  0.10200293700E+03  0.00000000000E+00 0.  1.
         13    1    4    4    0    0  0.36186741896E+02 -0.51741014514E+02  0.19786170553E+03  0.20769176052E+03  0.00000000000E+00 0. -1.
        -13    1    3    3    0    0  0.14557874127E+03  0.80107856939E+02  0.30443088244E+03  0.34682647078E+03  0.00000000000E+00 0. -1.
         13    1    3    3    0    0  0.69488844438E+02  0.15131067190E+02  0.23974960419E+03  0.25007503155E+03  0.00000000000E+00 0.  1.
         21    1    1    2  502  501 -0.21045799301E+03 -0.40252136563E+02  0.45598400248E+03  0.50381962233E+03  0.00000000000E+00 0.  1.
<scales pt_clust_5="13000.00000" pt_clust_6="13000.00000" pt_clust_7="13000.00000" pt_clust_8="13000.00000" pt_clust_9="222.38947"></scales>
<clustering>
<clus scale="   69.530">  7  8 -1 -1</clus>
<clus scale="   89.518">  5  6 -1 -1</clus>
<clus scale="  105.158">  1  5  2 -1</clus>
<clus scale="  222.389">  2  9  1 -1</clus>
<clus scale="  105.158">  1  5  2 -1</clus>
</clustering>
</event>
<event>
 9    1  0.1234700E-005  0.1207649E+03  0.7546771E-02  0.1250650E+00
         -1   -1    0    0    0  501 -0.00000000000E+00  0.00000000000E+00  0.14843013969E+03  0.14843013969E+03  0.00000000000E+00 0.  1.
          1   -1    0    0  502    0  0.00000000000E+00 -0.00000000000E+00 -0.16826031291E+03  0.16826031291E+03  0.00000000000E+00 0. -1.
         23    2    1    2    0    0  0.22600342772E+02  0.47128273911E+02  0.78284469857E+02  0.14633944098E+03  0.11204875755E+03 0.  0.
         23    2    1    2    0    0  0.11274571984E+02 -0.34481814585E+02 -0.48522614224E+02  0.10897665127E+03  0.90583414156E+02 0.  0.
        -11    1    3    3    0    0  0.46357924047E+02 -0.82559817519E+01 -0.57266844920E+00  0.47090830379E+02  0.00000000000E+00 0. -1.
         11    1    3    3    0    0 -0.23757581276E+02  0.55384255663E+02  0.78857138306E+02  0.99248610596E+02  0.00000000000E+00 0.  1.
        -11    1    4    4    0    0  0.47112571585E+02 -0.57585779196E+01 -0.40414273106E+02  0.62338343671E+02  0.00000000000E+00 0. -1.
         11    1    4    4    0    0 -0.35837999601E+02 -0.28723236665E+02 -0.81083411181E+01  0.46638307598E+02  0.00000000000E+00 0.  1.
         21    1    1    2  502  501 -0.33874914756E+02 -0.12646459327E+02 -0.49592028851E+02  0.61374360353E+02  0.00000000000E+00 0.  1.
<scales pt_clust_5="13000.00000" pt_clust_6="13000.00000" pt_clust_7="13000.00000" pt_clust_8="13000.00000" pt_clust_9="36.15858"></scales>
<clustering>
<clus scale="   36.159">  2  9  1 -1</clus>
<clus scale="   90.583">  7  8 -1 -1</clus>
<clus scale="  101.166">  2  7  1 -1</clus>
<clus scale="  112.049">  5  6 -1 -1</clus>
<clus scale="   36.159">  2  5  1 -1</clus>
</clustering>
</event>
<event>
 9    1  0.1234700E-005  0.9180911E+02  0.7546771E-02  0.1299600E+00
          1   -1    0    0  502    0  0.00000000000E+00  0.00000000000E+00  0.40972185515E+02  0.40972185515E+02  0.00000000000E+00 0. -1.
         -1   -1    0    0    0  501 -0.00000000000E+00 -0.00000000000E+00 -0.29384368370E+03  0.29384368370E+03  0.00000000000E+00 0.  1.
         23    2    1    2    0    0 -0.24837471919E+02  0.50296564603E+01 -0.17435867720E+03  0.19829842046E+03  0.90989657568E+02 0.  0.
         23    2    1    2    0    0  0.66988088721E+01  0.45998371713E+01 -0.54111923655E+02  0.10462478447E+03  0.89175179854E+02 0.  0.
        -11    1    4    4    0    0 -0.38081753293E+02  0.19353051151E+01 -0.44761316258E+02  0.58800856906E+02  0.00000000000E+00 0.  1.
         11    1    4    4    0    0  0.44780562166E+02  0.26645320563E+01 -0.93506073976E+01  0.45823927567E+02  0.00000000000E+00 0. -1.
        -13    1    3    3    0    0  0.20054732191E+02 -0.30741111556E+02 -0.59855856422E+02  0.70213472859E+02  0.00000000000E+00 0.  1.
         13    1    3    3    0    0 -0.44892204110E+02  0.35770768016E+02 -0.11450282078E+03  0.12808494760E+03  0.00000000000E+00 0. -1.
         21    1    1    2  502  501  0.18138663047E+02 -0.96294936316E+01 -0.24400897321E+02  0.31892664279E+02  0.00000000000E+00 0.  1.
<scales pt_clust_5="13000.00000" pt_clust_6="13000.00000" pt_clust_7="13000.00000" pt_clust_8="13000.00000" pt_clust_9="20.53627"></scales>
<clustering>
<clus scale="   20.536">  2  9  1 -1</clus>
<clus scale="   89.175">  5  6 -1 -1</clus>
<clus scale="   90.011">  1  5  2 -1</clus>
<clus scale="   90.990">  7  8 -1 -1</clus>
<clus scale="   90.011">  1  5  2 -1</clus>
</clustering>
</event>
<event>
 9    1  0.1234700E-005  0.9283884E+02  0.7546771E-02  0.1297077E+00
         -3   -1    0    0    0  501 -0.00000000000E+00  0.00000000000E+00  0.16599233668E+03  0.16599233668E+03  0.00000000000E+00 0.  1.
          3   -1    0    0  502    0  0.00000000000E+00 -0.00000000000E+00 -0.97591632851E+02  0.97591632851E+02  0.00000000000E+00 0. -1.
         23    2    1    2    0    0 -0.63464996892E+01  0.12821717988E+02  0.79785111514E+02  0.12303719278E+03  0.92562477696E+02 0.  0.
         23    2    1    2    0    0 -0.10777566018E+02  0.17778700199E+01  0.27502784821E+02  0.95617996020E+02  0.90923491128E+02 0.  0.
        -11    1    4    4    0    0 -0.35352259924E+02  0.21383238017E+02 -0.13936708143E+02  0.43603405643E+02  0.00000000000E+00 0.  1.
         11    1    4    4    0    0  0.24574693906E+02 -0.19605367997E+02  0.41439492965E+02  0.52014590376E+02  0.00000000000E+00 0. -1.
        -11    1    3    3    0    0 -0.28071593901E+02 -0.12004466536E+02  0.84375850169E+02  0.89729625502E+02  0.00000000000E+00 0.  1.
         11    1    3    3    0    0  0.21725094212E+02  0.24826184524E+02 -0.45907386550E+01  0.33307567277E+02  0.00000000000E+00 0. -1.
         21    1    1    2  502  501  0.17124065707E+02 -0.14599588007E+02 -0.38887192510E+02  0.44928780727E+02  0.00000000000E+00 0.  1.
<scales pt_clust_5="13000.00000" pt_clust_6="13000.00000" pt_clust_7="13000.00000" pt_clust_8="13000.00000" pt_clust_9="22.50292"></scales>
<clustering>
<clus scale="   22.503">  2  9  1 -1</clus>
<clus scale="   90.923">  5  6 -1 -1</clus>
<clus scale="   91.205">  2  5  1 -1</clus>
<clus scale="   92.562">  7  8 -1 -1</clus>
<clus scale="   22.503">  2  5  1 -1</clus>
</clustering>
</event>
<event>
 9    1  0.1234700E-005  0.1032444E+03  0.7546771E-02  0.1277337E+00
         -2   -1    0    0    0  501 -0.00000000000E+00  0.00000000000E+00  0.45425728517E+02  0.45425728517E+02  0.00000000000E+00 0.  1.
          2   -1    0    0  502    0  0.00000000000E+00 -0.00000000000E+00 -0.34392911618E+03  0.34392911618E+03  0.00000000000E+00 0. -1.
         23    2    1    2    0    0  0.16194904499E+00  0.24891329285E+02 -0.52419402709E+02  0.10780325184E+03  0.90852313263E+02 0.  0.
         23    2    1    2    0    0  0.13496573938E+02 -0.46985800866E+02 -0.18445347478E+03  0.21467079809E+03  0.98339433614E+02 0.  0.
        -11    1    4    4    0    0  0.11988863432E+02  0.24503795155E+02 -0.15894943196E+02  0.31572425352E+02  0.00000000000E+00 0.  1.
         11    1    4    4    0    0  0.15077105063E+01 -0.71489596021E+02 -0.16855853158E+03  0.18309837274E+03  0.00000000000E+00 0. -1.
        -13    1    3    3    0    0 -0.22327727915E+02  0.44419739312E+02 -0.59149147163E+02  0.77267472358E+02  0.00000000000E+00 0.  1.
         13    1    3    3    0    0  0.22489676960E+02 -0.19528410028E+02  0.67297444543E+01  0.30535779479E+02  0.00000000000E+00 0. -1.
         21    1    1    2  502  501 -0.13658522983E+02  0.22094471582E+02 -0.61630510177E+02  0.66880794771E+02  0.00000000000E+00 0. -1.
<scales pt_clust_5="13000.00000" pt_clust_6="13000.00000" pt_clust_7="13000.00000" pt_clust_8="13000.00000" pt_clust_9="25.97539"></scales>
<clustering>
<clus scale="   25.975">  2  9  1 -1</clus>
<clus scale="   90.852">  7  8 -1 -1</clus>
<clus scale="   96.140">  1  7  2 -1</clus>
<clus scale="   98.339">  5  6 -1 -1</clus>
<clus scale="   25.975">  2  5  1 -1</clus>
</clustering>
</event>
<event>
 9    1  0.1234700E-005  0.1067754E+03  0.7546771E-02  0.1267737E+00
         -1   -1    0    0    0  501 -0.00000000000E+00  0.00000000000E+00  0.55621565817E+02  0.55621565817E+02  0.00000000000E+00 0.  1.
          1   -1    0    0  502    0  0.00000000000E+00 -0.00000000000E+00 -0.35037149736E+03  0.35037149736E+03  0.00000000000E+00 0. -1.
         23    2    1    2    0    0 -0.42001237830E+02 -0.26866422445E+02 -0.33384287139E+02  0.10989389499E+03  0.92066546006E+02 0.  0.
         23    2    1    2    0    0  0.65566380906E+02  0.23818432799E+02 -0.23249942618E+03  0.25871113850E+03  0.89494144870E+02 0.  0.
        -11    1    4    4    0    0  0.68405601412E+02 -0.85327401881E+01 -0.94680165878E+02  0.11711732481E+03  0.00000000000E+00 0.  1.
         11    1    4    4    0    0 -0.28392205060E+01  0.32351172987E+02 -0.13781926030E+03  0.14159381370E+03  0.00000000000E+00 0. -1.
        -11    1    3    3    0    0  0.16069253984E+02 -0.34304584091E+02 -0.34645301613E+02  0.51335390689E+02  0.00000000000E+00 0.  1.
         11    1    3    3    0    0 -0.58070491814E+02  0.74381616462E+01  0.12610144739E+01  0.58558504299E+02  0.00000000000E+00 0. -1.
         21    1    1    2  502  501 -0.23565143076E+02  0.30479896457E+01 -0.28866218220E+02  0.37388029680E+02  0.00000000000E+00 0.  1.
<scales pt_clust_5="13000.00000" pt_clust_6="13000.00000" pt_clust_7="13000.00000" pt_clust_8="13000.00000" pt_clust_9="23.76144"></scales>
<clustering>
<clus scale="   23.761">  2  9  1 -1</clus>
<clus scale="   89.494">  5  6 -1 -1</clus>
<clus scale="   92.067">  7  8 -1 -1</clus>
<clus scale="  104.565">  2  5  1 -1</clus>
<clus scale="   23.761">  2  5  1 -1</clus>
</clustering>
</event>
<event>
 9    1  0.1234700E-005  0.1075397E+03  0.7546771E-02  0.1269023E+00
          1   -1    0    0  502    0  0.00000000000E+00  0.00000000000E+00  0.41451150101E+03  0.41451150101E+03  0.00000000000E+00 0. -1.
         -1   -1    0    0    0  501 -0.00000000000E+00 -0.00000000000E+00 -0.43634707862E+02  0.43634707862E+02  0.00000000000E+00 0.  1.
         23    2    1    2    0    0  0.38238916683E+02  0.28809658794E+02  0.58724133636E+02  0.11613880469E+03  0.88019809674E+02 0.  0.
         23    2    1    2    0    0 -0.49258955016E+02 -0.66896611746E+01  0.20497298358E+03  0.23201550233E+03  0.96675090423E+02 0.  0.
        -11    1    3    3    0    0  0.47023465454E+02  0.90633515674E+01 -0.56617661806E+01  0.48222466147E+02  0.00000000000E+00 0.  1.
         11    1    3    3    0    0 -0.87845487717E+01  0.19746307227E+02  0.64385899816E+02  0.67916338545E+02  0.00000000000E+00 0. -1.
        -13    1    4    4    0    0 -0.60821449551E+02 -0.39627020212E+02  0.12144411279E+03  0.14148576603E+03  0.00000000000E+00 0. -1.
         13    1    4    4    0    0  0.11562494535E+02  0.32937359037E+02  0.83528870785E+02  0.90529736302E+02  0.00000000000E+00 0.  1.
         21    1    1    2  502  501  0.11020038334E+02 -0.22119997619E+02  0.10717967593E+03  0.10999190185E+03  0.00000000000E+00 0. -1.
<scales pt_clust_5="13000.00000" pt_clust_6="13000.00000" pt_clust_7="13000.00000" pt_clust_8="13000.00000" pt_clust_9="24.71306"></scales>
<clustering>
<clus scale="   24.713">  1  9  2 -1</clus>
<clus scale="   88.020">  5  6 -1 -1</clus>
<clus scale="   96.675">  7  8 -1 -1</clus>
<clus scale="   99.831">  2  5  1 -1</clus>
<clus scale="   24.713">  1  5  2 -1</clus>
</clustering>
</event>
<event>
 9    1  0.1234700E-005  0.3522710E+03  0.7546771E-02  0.1061734E+00
          1   -1    0    0  502    0  0.00000000000E+00  0.00000000000E+00  0.77279584111E+03  0.77279584111E+03  0.00000000000E+00 0. -1.
         -1   -1    0    0    0  501 -0.00000000000E+00 -0.00000000000E+00 -0.32828650125E+03  0.32828650125E+03  0.00000000000E+00 0.  1.
         23    2    1    2    0    0  0.34423245327E+03  0.13591436028E+02 -0.16577098361E+03  0.39359268292E+03  0.93565335550E+02 0.  0.
         23    2    1    2    0    0 -0.31376924034E+03 -0.13952950269E+02  0.55095673796E+03  0.64080063611E+03  0.91794918832E+02 0.  0.
        -13    1    4    4    0    0 -0.19678027756E+02 -0.26065673684E+02  0.62354033993E+02  0.70389414518E+02  0.00000000000E+00 0.  1.
         13    1    4    4    0    0 -0.29409121259E+03  0.12112723414E+02  0.48860270397E+03  0.57041122159E+03  0.00000000000E+00 0. -1.
        -13    1    3    3    0    0  0.43514402771E+02  0.11113475454E+02  0.89475860223E+01  0.45793797406E+02  0.00000000000E+00 0. -1.
         13    1    3    3    0    0  0.30071805050E+03  0.24779605744E+01 -0.17471856963E+03  0.34779888551E+03  0.00000000000E+00 0.  1.
         21    1    1    2  502  501 -0.30463212931E+02  0.36151424104E+00  0.59323585519E+02  0.66689023336E+02  0.00000000000E+00 0. -1.
<scales pt_clust_5="13000.00000" pt_clust_6="13000.00000" pt_clust_7="13000.00000" pt_clust_8="13000.00000" pt_clust_9="30.46536"></scales>
<clustering>
<clus scale="   30.465">  1  9  2 -1</clus>
<clus scale="   91.795">  5  6 -1 -1</clus>
<clus scale="   93.565">  7  8 -1 -1</clus>
<clus scale="  351.805">  1  5  2 -1</clus>
<clus scale="   30.465">  1  5  2 -1</clus>
</clustering>
</event>
<event>
 9    1  0.1234700E-005  0.1322996E+03  0.7546771E-02  0.1227178E+00
          2   -1    0    0  502    0  0.00000000000E+00  0.00000000000E+00  0.57165845344E+03  0.57165845344E+03  0.00000000000E+00 0. -1.
         -2   -1    0    0    0  501 -0.00000000000E+00 -0.00000000000E+00 -0.49331782995E+02  0.49331782995E+02  0.00000000000E+00 0.  1.
         23    2    1    2    0    0  0.64083596377E+02 -0.64268457008E+02  0.87971022172E+02  0.16317224238E+03  0.10319466096E+03 0.  0.
         23    2    1    2    0    0 -0.43604308314E+02  0.39519291738E+02  0.37027198981E+03  0.38613370216E+03  0.92383869750E+02 0.  0.
        -13    1    4    4    0    0 -0.31906093489E+01 -0.29435464149E+02  0.99087889226E+02  0.10341680874E+03  0.00000000000E+00 0.  1.
         13    1    4    4    0    0 -0.40413698965E+02  0.68954755887E+02  0.27118410058E+03  0.28271689343E+03  0.00000000000E+00 0. -1.
        -13    1    3    3    0    0 -0.86834128854E+01 -0.40593683575E+02 -0.60464387771E+01  0.41950068265E+02  0.00000000000E+00 0.  1.
         13    1    3    3    0    0  0.72767009263E+02 -0.23674773433E+02  0.94017460949E+02  0.12122217412E+03  0.00000000000E+00 0. -1.
         21    1    1    2  502  501 -0.20479288064E+02  0.24749165270E+02  0.64083658473E+02  0.71684291895E+02  0.00000000000E+00 0. -1.
<scales pt_clust_5="13000.00000" pt_clust_6="13000.00000" pt_clust_7="13000.00000" pt_clust_8="13000.00000" pt_clust_9="32.12355"></scales>
<clustering>
<clus scale="   32.124">  1  9  2 -1</clus>
<clus scale="   92.384">  5  6 -1 -1</clus>
<clus scale="  103.195">  7  8 -1 -1</clus>
<clus scale="  124.052">  1  5  2 -1</clus>
<clus scale="   32.124">  1  5  2 -1</clus>
</clustering>
</event>
<event>
 9    1  0.1234700E-005  0.1245211E+03  0.7546771E-02  0.1240100E+00
          3   -1    0    0  502    0  0.00000000000E+00  0.00000000000E+00  0.44970841571E+03  0.44970841571E+03  0.00000000000E+00 0. -1.
         -3   -1    0    0    0  501 -0.00000000000E+00 -0.00000000000E+00 -0.48503579490E+03  0.48503579490E+03  0.00000000000E+00 0.  1.
         23    2    1    2    0    0  0.62460092916E+02  0.28614455100E+02 -0.44026914434E+03  0.45771229013E+03  0.10461152337E+03 0.  0.
         23    2    1    2    0    0 -0.50863201821E+00 -0.30014422584E+02  0.40361380112E+03  0.41505041595E+03  0.91987080926E+02 0.  0.
        -13    1    4    4    0    0 -0.43264690935E+02 -0.25481646130E+02  0.27187943425E+03  0.27647707779E+03  0.00000000000E+00 0. -1.
         13    1    4    4    0    0  0.42756058917E+02 -0.45327764540E+01  0.13173436686E+03  0.13857333816E+03  0.00000000000E+00 0.  1.
        -13    1    3    3    0    0  0.74856552419E+02 -0.12884529669E+02 -0.34181344311E+03  0.35015131648E+03  0.00000000000E+00 0.  1.
         13    1    3    3    0    0 -0.12396459503E+02  0.41498984769E+02 -0.98455701236E+02  0.10756097364E+03  0.00000000000E+00 0. -1.
         21    1    1    2  502  501 -0.61951460898E+02  0.13999674834E+01  0.13279640329E+01  0.61981504539E+02  0.00000000000E+00 0. -1.
<scales pt_clust_5="13000.00000" pt_clust_6="13000.00000" pt_clust_7="13000.00000" pt_clust_8="13000.00000" pt_clust_9="61.96728"></scales>
<clustering>
<clus scale="   61.967">  1  9  2 -1</clus>
<clus scale="   91.987">  5  6 -1 -1</clus>
<clus scale="  104.612">  7  8 -1 -1</clus>
<clus scale="  114.121">  1  5  2 -1</clus>
<clus scale="   61.967">  1  5  2 -1</clus>
</clustering>
</event>
<event>
 9    1  0.1234700E-005  0.1654161E+03  0.7546771E-02  0.1182788E+00
          1   -1    0    0  502    0  0.00000000000E+00  0.00000000000E+00  0.27270907949E+03  0.27270907949E+03  0.00000000000E+00 0. -1.
         -1   -1    0    0    0  501 -0.00000000000E+00 -0.00000000000E+00 -0.15316350847E+03  0.15316350847E+03  0.00000000000E+00 0.  1.
         23    2    1    2    0    0 -0.28416096589E+02 -0.12882355137E+03 -0.18498733859E+02  0.16186488207E+03  0.91951372810E+02 0.  0.
         23    2    1    2    0    0  0.49138732346E+02  0.13839514530E+03  0.61460308315E+02  0.18409430543E+03  0.92441941423E+02 0.  0.
        -11    1    4    4    0    0  0.71935831565E+02  0.74654075132E+02  0.22844454108E+02  0.10615961511E+03  0.00000000000E+00 0.  1.
         11    1    4    4    0    0 -0.22797099220E+02  0.63741070165E+02  0.38615854208E+02  0.77934690316E+02  0.00000000000E+00 0. -1.
        -13    1    3    3    0    0  0.32011807376E+02 -0.56506965931E+02  0.36845864070E+01  0.65048975297E+02  0.00000000000E+00 0.  1.
         13    1    3    3    0    0 -0.60427903965E+02 -0.72316585436E+02 -0.22183320266E+02  0.96815906776E+02  0.00000000000E+00 0. -1.
         21    1    1    2  502  501 -0.20722635757E+02 -0.95715939290E+01  0.76583996561E+02  0.79913400455E+02  0.00000000000E+00 0. -1.
<scales pt_clust_5="13000.00000" pt_clust_6="13000.00000" pt_clust_7="13000.00000" pt_clust_8="13000.00000" pt_clust_9="22.82637"></scales>
<clustering>
<clus scale="   22.826">  1  9  2 -1</clus>
<clus scale="   91.951">  7  8 -1 -1</clus>
<clus scale="   92.442">  5  6 -1 -1</clus>
<clus scale="  165.142">  2  7  1 -1</clus>
<clus scale="   22.826">  1  5  2 -1</clus>
</clustering>
</event>
<event>
 9    1  0.1234700E-005  0.1522138E+03  0.7546771E-02  0.1198224E+00
          3   -1    0    0  502    0  0.00000000000E+00  0.00000000000E+00  0.12351117768E+03  0.12351117768E+03  0.00000000000E+00 0. -1.
         -3   -1    0    0    0  501 -0.00000000000E+00 -0.00000000000E+00 -0.25007274067E+03  0.25007274067E+03  0.00000000000E+00 0.  1.
         23    2    1    2    0    0 -0.14678905294E+01  0.12827675520E+03 -0.12536009893E+03  0.20124364205E+03  0.91251128395E+02 0.  0.
         23    2    1    2    0    0  0.23985316125E+02 -0.10894367450E+03 -0.30927093351E+01  0.14260176132E+03  0.88778814343E+02 0.  0.
        -11    1    4    4    0    0 -0.32728919411E+02 -0.55141781245E+02  0.29791937592E+01  0.64192474638E+02  0.00000000000E+00 0.  1.
         11    1    4    4    0    0  0.56714235536E+02 -0.53801893256E+02 -0.60719030942E+01  0.78409286679E+02  0.00000000000E+00 0. -1.
        -13    1    3    3    0    0  0.31000451016E+02  0.65811194253E+02 -0.21657242982E+02  0.75902420421E+02  0.00000000000E+00 0. -1.
         13    1    3    3    0    0 -0.32468341546E+02  0.62465560951E+02 -0.10370285594E+03  0.12534122163E+03  0.00000000000E+00 0.  1.
         21    1    1    2  502  501 -0.22517425596E+02 -0.19333080701E+02  0.18912452806E+01  0.29738514986E+02  0.00000000000E+00 0.  1.
<scales pt_clust_5="13000.00000" pt_clust_6="13000.00000" pt_clust_7="13000.00000" pt_clust_8="13000.00000" pt_clust_9="29.67832"></scales>
<clustering>
<clus scale="   29.678">  1  9  2 -1</clus>
<clus scale="   88.779">  5  6 -1 -1</clus>
<clus scale="   91.251">  7  8 -1 -1</clus>
<clus scale="  150.745">  1  5  2 -1</clus>
<clus scale="   29.678">  1  5  2 -1</clus>
</clustering>
</event>
<event>
 9    1  0.1234700E-005  0.1466055E+03  0.7546771E-02  0.1214596E+00
          2   -1    0    0  502    0  0.00000000000E+00  0.00000000000E+00  0.54498939900E+02  0.54498939900E+02  0.00000000000E+00 0. -1.
         -2   -1    0    0    0  501 -0.00000000000E+00 -0.00000000000E+00 -0.45546646359E+03  0.45546646359E+03  0.00000000000E+00 0.  1.
         23    2    1    2    0    0  0.83376173809E+02 -0.26979507072E+02 -0.23154304592E+03  0.26393855562E+03  0.91498081205E+02 0.  0.
         23    2    1    2    0    0 -0.53912786477E+02  0.18452644132E+02 -0.16496084953E+03  0.21503132301E+03  0.12561568125E+03 0.  0.
        -11    1    4    4    0    0  0.19578327510E+02  0.46837215517E+02 -0.30591586402E+02  0.59269560687E+02  0.00000000000E+00 0.  1.
         11    1    4    4    0    0 -0.73491113987E+02 -0.28384571385E+02 -0.13436926313E+03  0.15576176232E+03  0.00000000000E+00 0. -1.
        -13    1    3    3    0    0  0.74302019970E+02 -0.57779019287E+02 -0.18205492196E+03  0.20494682201E+03  0.00000000000E+00 0. -1.
         13    1    3    3    0    0  0.90741538389E+01  0.30799512216E+02 -0.49488123964E+02  0.58991733608E+02  0.00000000000E+00 0.  1.
         21    1    1    2  502  501 -0.29463387331E+02  0.85268629401E+01 -0.44636282367E+01  0.30995524865E+02  0.00000000000E+00 0.  1.
<scales pt_clust_5="13000.00000" pt_clust_6="13000.00000" pt_clust_7="13000.00000" pt_clust_8="13000.00000" pt_clust_9="30.67244"></scales>
<clustering>
<clus scale="   30.672">  1  9  2 -1</clus>
<clus scale="   91.498">  7  8 -1 -1</clus>
<clus scale="  118.684">  2  7  1 -1</clus>
<clus scale="  125.616">  5  6 -1 -1</clus>
<clus scale="   30.672">  1  5  2 -1</clus>
</clustering>
</event>
<event>
 9    1  0.1234700E-005  0.1361473E+03  0.7546771E-02  0.1219054E+00
         -2   -1    0    0    0  501 -0.00000000000E+00  0.00000000000E+00  0.54935632280E+02  0.54935632280E+02  0.00000000000E+00 0.  1.
          2   -1    0    0  502    0  0.00000000000E+00 -0.00000000000E+00 -0.55716423916E+03  0.55716423916E+03  0.00000000000E+00 0. -1.
         23    2    1    2    0    0 -0.10645279449E+03 -0.55097713303E+01 -0.72206522467E+02  0.15721866971E+03  0.90229558269E+02 0.  0.
         23    2    1    2    0    0  0.88090003695E+02 -0.63423739434E+01 -0.33903871460E+03  0.36130963010E+03  0.88302459474E+02 0.  0.
        -11    1    3    3    0    0 -0.63596810435E+02  0.40575233012E+02 -0.28705159184E+02  0.80714868489E+02  0.00000000000E+00 0.  1.
         11    1    3    3    0    0 -0.42855984055E+02 -0.46085004342E+02 -0.43501363283E+02  0.76503801226E+02  0.00000000000E+00 0. -1.
        -11    1    4    4    0    0  0.71848707595E+02 -0.33709615139E+02 -0.15089061477E+03  0.17048915673E+03  0.00000000000E+00 0.  1.
         11    1    4    4    0    0  0.16241296100E+02  0.27367241196E+02 -0.18814809983E+03  0.19082047338E+03  0.00000000000E+00 0. -1.
         21    1    1    2  502  501  0.18362790794E+02  0.11852145274E+02 -0.90983369812E+02  0.93571571621E+02  0.00000000000E+00 0.  1.
<scales pt_clust_5="13000.00000" pt_clust_6="13000.00000" pt_clust_7="13000.00000" pt_clust_8="13000.00000" pt_clust_9="21.85556"></scales>
<clustering>
<clus scale="   21.856">  2  9  1 -1</clus>
<clus scale="   88.302">  7  8 -1 -1</clus>
<clus scale="   90.230">  5  6 -1 -1</clus>
<clus scale="  134.878">  2  7  1 -1</clus>
<clus scale="   21.856">  2  5  1 -1</clus>
</clustering>
</event>
<event>
 9    1  0.1234700E-005  0.4056552E+03  0.7546771E-02  0.1093027E+00
          1   -1    0    0  502    0  0.00000000000E+00  0.00000000000E+00  0.18126662874E+04  0.18126662874E+04  0.00000000000E+00 0. -1.
         -1   -1    0    0    0  501 -0.00000000000E+00 -0.00000000000E+00 -0.12090551073E+03  0.12090551073E+03  0.00000000000E+00 0.  1.
         23    2    1    2    0    0  0.48209702357E+00  0.38593982381E+03  0.50760577292E+03  0.64431516811E+03  0.92350609814E+02 0.  0.
         23    2    1    2    0    0  0.25289476105E+02  0.24244375515E+02  0.24127299392E+03  0.26069368308E+03  0.92310299844E+02 0.  0.
        -11    1    3    3    0    0  0.35168193573E+02  0.19720356687E+03  0.21010109343E+03  0.29029040302E+03  0.00000000000E+00 0.  1.
         11    1    3    3    0    0 -0.34686096550E+02  0.18873625694E+03  0.29750467949E+03  0.35402476509E+03  0.00000000000E+00 0. -1.
        -11    1    4    4    0    0  0.56648251496E+02  0.28017424849E+02  0.19230173966E+03  0.20242025484E+03  0.00000000000E+00 0.  1.
         11    1    4    4    0    0 -0.31358775391E+02 -0.37730493335E+01  0.48971254258E+02  0.58273428240E+02  0.00000000000E+00 0. -1.
         21    1    1    2  502  501 -0.25771573128E+02 -0.41018419932E+03  0.94288200985E+03  0.10285629470E+04  0.00000000000E+00 0. -1.
<scales pt_clust_5="13000.00000" pt_clust_6="13000.00000" pt_clust_7="13000.00000" pt_clust_8="13000.00000" pt_clust_9="395.00314"></scales>
<clustering>
<clus scale="   92.310">  7  8 -1 -1</clus>
<clus scale="   92.351">  5  6 -1 -1</clus>
<clus scale="   98.735">  1  7  2 -1</clus>
<clus scale="  395.003">  1  9  2 -1</clus>
<clus scale="   98.735">  1  5  2 -1</clus>
</clustering>
</event>
<event>
 9    1  0.1234700E-005  0.1207129E+03  0.7546771E-02  0.1242454E+00
          2   -1    0    0  502    0  0.00000000000E+00  0.00000000000E+00  0.62814073749E+02  0.62814073749E+02  0.00000000000E+00 0. -1.
         -2   -1    0    0    0  501 -0.00000000000E+00 -0.00000000000E+00 -0.27663625217E+03  0.27663625217E+03  0.00000000000E+00 0.  1.
         23    2    1    2    0    0 -0.27455017570E+02  0.64766687887E+02 -0.10321225797E+03  0.15563712908E+03  0.92852807742E+02 0.  0.
         23    2    1    2    0    0  0.18029888684E+02 -0.84071062643E+02 -0.94622826811E+02  0.15703486413E+03  0.91178115459E+02 0.  0.
        -11    1    4    4    0    0  0.39460792280E+02 -0.83291927719E+02 -0.98877340918E+02  0.13517184580E+03  0.00000000000E+00 0.  1.
         11    1    4    4    0    0 -0.21430903596E+02 -0.77913492462E+00  0.42545141068E+01  0.21863018329E+02  0.00000000000E+00 0. -1.
        -13    1    3    3    0    0  0.20587555288E+02  0.38221269451E+02 -0.57644957463E+01  0.43794317923E+02  0.00000000000E+00 0.  1.
         13    1    3    3    0    0 -0.48042572859E+02  0.26545418437E+02 -0.97447762220E+02  0.11184281116E+03  0.00000000000E+00 0. -1.
         21    1    1    2  502  501  0.94251288861E+01  0.19304374756E+02 -0.15987093646E+02  0.26778332705E+02  0.00000000000E+00 0.  1.
<scales pt_clust_5="13000.00000" pt_clust_6="13000.00000" pt_clust_7="13000.00000" pt_clust_8="13000.00000" pt_clust_9="21.48236"></scales>
<clustering>
<clus scale="   21.482">  1  9  2 -1</clus>
<clus scale="   91.178">  5  6 -1 -1</clus>
<clus scale="   92.853">  7  8 -1 -1</clus>
<clus scale="  119.430">  1  5  2 -1</clus>
<clus scale="   21.482">  1  5  2 -1</clus>
</clustering>
</event>
<event>
 9    1  0.1234700E-005  0.9580839E+02  0.7546771E-02  0.1289633E+00
         -3   -1    0    0    0  501 -0.00000000000E+00  0.00000000000E+00  0.31565997260E+03  0.31565997260E+03  0.00000000000E+00 0.  1.
          3   -1    0    0  502    0  0.00000000000E+00 -0.00000000000E+00 -0.71990597993E+02  0.71990597993E+02  0.00000000000E+00 0. -1.
         23    2    1    2    0    0  0.23254778196E+02  0.79858171409E+01  0.20017146237E+03  0.22239944242E+03  0.93746144761E+02 0.  0.
         23    2    1    2    0    0 -0.18506928589E+01 -0.33707659450E+01  0.79342865963E+02  0.12324762504E+03  0.94233219048E+02 0.  0.
        -13    1    3    3    0    0 -0.13764381483E+02  0.19662432541E+02  0.64857415209E+01  0.24862306694E+02  0.00000000000E+00 0. -1.
         13    1    3    3    0    0  0.37019159679E+02 -0.11676615400E+02  0.19368572085E+03  0.19753713573E+03  0.00000000000E+00 0.  1.
        -13    1    4    4    0    0  0.20553788911E+02  0.39271777373E+02  0.26059318697E+02  0.51418078801E+02  0.00000000000E+00 0.  1.
         13    1    4    4    0    0 -0.22404481770E+02 -0.42642543318E+02  0.53283547266E+02  0.71829546241E+02  0.00000000000E+00 0. -1.
         21    1    1    2  502  501 -0.21404085337E+02 -0.46150511960E+01 -0.35844953731E+02  0.42003503124E+02  0.00000000000E+00 0. -1.
<scales pt_clust_5="13000.00000" pt_clust_6="13000.00000" pt_clust_7="13000.00000" pt_clust_8="13000.00000" pt_clust_9="21.89597"></scales>
<clustering>
<clus scale="   21.896">  2  9  1 -1</clus>
<clus scale="   93.746">  5  6 -1 -1</clus>
<clus scale="   94.233">  7  8 -1 -1</clus>
<clus scale="   95.329">  1  5  2 -1</clus>
<clus scale="   21.896">  2  5  1 -1</clus>
</clustering>
</event>
<event>
 9    1  0.1234700E-005  0.1408226E+03  0.7546771E-02  0.1212633E+00
          2   -1    0    0  502    0  0.00000000000E+00  0.00000000000E+00  0.68416914776E+03  0.68416914776E+03  0.00000000000E+00 0. -1.
         -2   -1    0    0    0  501 -0.00000000000E+00 -0.00000000000E+00 -0.37739531068E+02  0.37739531068E+02  0.00000000000E+00 0.  1.
         23    2    1    2    0    0  0.41225919412E+02 -0.93613000485E+02  0.22245140251E+03  0.26121248968E+03  0.91018503565E+02 0.  0.
         23    2    1    2    0    0 -0.18301557586E+02  0.11625660987E+03  0.35891904027E+03  0.38809484261E+03  0.89130146643E+02 0.  0.
        -11    1    4    4    0    0 -0.19668549763E+02  0.82097571534E+02  0.33716671094E+03  0.34757481794E+03  0.00000000000E+00 0. -1.
         11    1    4    4    0    0  0.13669921764E+01  0.34159038331E+02  0.21752329329E+02  0.40520024662E+02  0.00000000000E+00 0.  1.
        -11    1    3    3    0    0  0.28143643397E+02 -0.11074052856E+03  0.19812876741E+03  0.22871497066E+03  0.00000000000E+00 0.  1.
         11    1    3    3    0    0  0.13082276015E+02  0.17127528075E+02  0.24322635105E+02  0.32497519015E+02  0.00000000000E+00 0. -1.
         21    1    1    2  502  501 -0.22924361826E+02 -0.22643609381E+02  0.65059173908E+02  0.72601346547E+02  0.00000000000E+00 0. -1.
<scales pt_clust_5="13000.00000" pt_clust_6="13000.00000" pt_clust_7="13000.00000" pt_clust_8="13000.00000" pt_clust_9="32.22203"></scales>
<clustering>
<clus scale="   32.222">  1  9  2 -1</clus>
<clus scale="   89.130">  5  6 -1 -1</clus>
<clus scale="   91.019">  7  8 -1 -1</clus>
<clus scale="  139.609">  1  5  2 -1</clus>
<clus scale="   32.222">  1  5  2 -1</clus>
</clustering>
</event>
<event>
 9    1  0.1234700E-005  0.1043776E+03  0.7546771E-02  0.1272539E+00
          1   -1    0    0  502    0  0.00000000000E+00  0.00000000000E+00  0.18102235610E+03  0.18102235610E+03  0.00000000000E+00 0. -1.
         -1   -1    0    0    0  501 -0.00000000000E+00 -0.00000000000E+00 -0.98970062732E+02  0.98970062732E+02  0.00000000000E+00 0.  1.
         23    2    1    2    0    0  0.53709301236E+01  0.25198757455E+02  0.24517379215E+02  0.96944035702E+02  0.90184366200E+02 0.  0.
         23    2    1    2    0    0 -0.12748857572E+02 -0.69109061020E+02  0.84127028428E+01  0.11674951273E+03  0.92849768274E+02 0.  0.
        -11    1    4    4    0    0 -0.59549733351E+01  0.22287567058E+02  0.98627232085E+01  0.25089253912E+02  0.00000000000E+00 0. -1.
         11    1    4    4    0    0 -0.67938842372E+01 -0.91396628078E+02 -0.14500203657E+01  0.91660258816E+02  0.00000000000E+00 0.  1.
        -13    1    3    3    0    0  0.20918395410E+02 -0.27577737970E+02  0.23643653423E+02  0.41918173210E+02  0.00000000000E+00 0. -1.
         13    1    3    3    0    0 -0.15547465287E+02  0.52776495425E+02  0.87372579235E+00  0.55025862492E+02  0.00000000000E+00 0.  1.
         21    1    1    2  502  501  0.73779274488E+01  0.43910303566E+02  0.49122211308E+02  0.66298870401E+02  0.00000000000E+00 0. -1.
<scales pt_clust_5="13000.00000" pt_clust_6="13000.00000" pt_clust_7="13000.00000" pt_clust_8="13000.00000" pt_clust_9="44.52582"></scales>
<clustering>
<clus scale="   44.526">  1  9  2 -1</clus>
<clus scale="   90.184">  7  8 -1 -1</clus>
<clus scale="   92.850">  5  6 -1 -1</clus>
<clus scale="  102.014">  2  7  1 -1</clus>
<clus scale="   44.526">  1  5  2 -1</clus>
</clustering>
</event>
<event>
 9    1  0.1234700E-005  0.9462878E+02  0.7546771E-02  0.1295754E+00
          1   -1    0    0  502    0  0.00000000000E+00  0.00000000000E+00  0.42844135415E+03  0.42844135415E+03  0.00000000000E+00 0. -1.
         -1   -1    0    0    0  501 -0.00000000000E+00 -0.00000000000E+00 -0.33197675063E+02  0.33197675063E+02  0.00000000000E+00 0.  1.
         23    2    1    2    0    0 -0.16378509593E+02  0.86500696470E+01  0.10484604554E+03  0.14223009385E+03  0.94306028704E+02 0.  0.
         23    2    1    2    0    0 -0.84272484297E+01 -0.29770496320E+01  0.13117839764E+03  0.15816913299E+03  0.87919402191E+02 0.  0.
        -11    1    4    4    0    0  0.39245542805E+02 -0.80763880708E+00  0.45463877366E+02  0.60065206698E+02  0.00000000000E+00 0.  1.
         11    1    4    4    0    0 -0.47672791235E+02 -0.21694108249E+01  0.85714520273E+02  0.98103926288E+02  0.00000000000E+00 0. -1.
        -13    1    3    3    0    0 -0.33754624373E+02 -0.33913266493E+02  0.68835782428E+02  0.83832268569E+02  0.00000000000E+00 0. -1.
         13    1    3    3    0    0  0.17376114780E+02  0.42563336140E+02  0.36010263110E+02  0.58397825280E+02  0.00000000000E+00 0.  1.
         21    1    1    2  502  501  0.24805758023E+02 -0.56730200150E+01  0.15921923591E+03  0.16123980238E+03  0.00000000000E+00 0. -1.
<scales pt_clust_5="13000.00000" pt_clust_6="13000.00000" pt_clust_7="13000.00000" pt_clust_8="13000.00000" pt_clust_9="25.44619"></scales>
<clustering>
<clus scale="   25.446">  1  9  2 -1</clus>
<clus scale="   87.919">  5  6 -1 -1</clus>
<clus scale="   88.266">  1  5  2 -1</clus>
<clus scale="   94.306">  7  8 -1 -1</clus>
<clus scale="   25.446">  1  5  2 -1</clus>
</clustering>
</event>
<event>
 9    1  0.1234700E-005  0.9889161E+02  0.7546771E-02  0.1284487E+00
          1   -1    0    0  502    0  0.00000000000E+00  0.00000000000E+00  0.66231015144E+03  0.66231015144E+03  0.00000000000E+00 0. -1.
         -1   -1    0    0    0  501 -0.00000000000E+00 -0.00000000000E+00 -0.30903325054E+02  0.30903325054E+02  0.00000000000E+00 0.  1.
         23    2    1    2    0    0  0.27017324935E+02 -0.29545879281E+02  0.85262395227E+02  0.12959918525E+03  0.89013358256E+02 0.  0.
         23    2    1    2    0    0  0.13137225712E+02  0.29891378719E+02  0.35790342549E+03  0.37113784198E+03  0.92640998210E+02 0.  0.
        -13    1    3    3    0    0 -0.28812627887E+02  0.15329020611E+01  0.46916587490E+02  0.55078884304E+02  0.00000000000E+00 0.  1.
         13    1    3    3    0    0  0.55829952822E+02 -0.31078781342E+02  0.38345807736E+02  0.74520300944E+02  0.00000000000E+00 0. -1.
        -13    1    4    4    0    0 -0.10248766243E+02 -0.29880875759E+02  0.82179123227E+02  0.88041537015E+02  0.00000000000E+00 0.  1.
         13    1    4    4    0    0  0.23385991956E+02  0.59772254478E+02  0.27572430226E+03  0.28309630496E+03  0.00000000000E+00 0. -1.
         21    1    1    2  502  501 -0.40154550648E+02 -0.34549943864E+00  0.18824100567E+03  0.19247644927E+03  0.00000000000E+00 0. -1.
<scales pt_clust_5="13000.00000" pt_clust_6="13000.00000" pt_clust_7="13000.00000" pt_clust_8="13000.00000" pt_clust_9="40.15604"></scales>
<clustering>
<clus scale="   40.156">  1  9  2 -1</clus>
<clus scale="   89.013">  5  6 -1 -1</clus>
<clus scale="   92.641">  7  8 -1 -1</clus>
<clus scale="   95.502">  2  5  1 -1</clus>
<clus scale="   40.156">  1  5  2 -1</clus>
</clustering>
</event>
<event>
 9    1  0.1234700E-005  0.1658297E+03  0.7546771E-02  0.1182462E+00
          1   -1    0    0  502    0  0.00000000000E+00  0.00000000000E+00  0.95585869168E+03  0.95585869168E+03  0.00000000000E+00 0. -1.
         -1   -1    0    0    0  501 -0.00000000000E+00 -0.00000000000E+00 -0.46434968535E+02  0.46434968535E+02  0.00000000000E+00 0.  1.
         23    2    1    2    0    0 -0.17407223945E+02 -0.13988295304E+03  0.15904946147E+03  0.23138416194E+03  0.91496705988E+02 0.  0.
         23    2    1    2    0    0  0.29954537966E+01  0.12553023131E+03  0.67681388790E+03  0.69458893532E+03  0.92789754258E+02 0.  0.
        -11    1    3    3    0    0  0.35329591700E+02 -0.38299216014E+02  0.36004506455E+02  0.63335096763E+02  0.00000000000E+00 0.  1.
         11    1    3    3    0    0 -0.52736815645E+02 -0.10158373703E+03  0.12304495501E+03  0.16804906518E+03  0.00000000000E+00 0. -1.
        -11    1    4    4    0    0  0.22377237951E+02 -0.54124043378E+01  0.12661067588E+03  0.12868682195E+03  0.00000000000E+00 0. -1.
         11    1    4    4    0    0 -0.19381784154E+02  0.13094263565E+03  0.55020321202E+03  0.56590211336E+03  0.00000000000E+00 0.  1.
         21    1    1    2  502  501  0.14411770148E+02  0.14352721734E+02  0.73560373773E+02  0.76320562954E+02  0.00000000000E+00 0. -1.
<scales pt_clust_5="13000.00000" pt_clust_6="13000.00000" pt_clust_7="13000.00000" pt_clust_8="13000.00000" pt_clust_9="20.33961"></scales>
<clustering>
<clus scale="   20.340">  1  9  2 -1</clus>
<clus scale="   91.497">  5  6 -1 -1</clus>
<clus scale="   92.790">  7  8 -1 -1</clus>
<clus scale="  165.110">  2  5  1 -1</clus>
<clus scale="   20.340">  1  5  2 -1</clus>
</clustering>
</event>
<event>
 9    1  0.1234700E-005  0.1447010E+03  0.7546771E-02  0.1208124E+00
         -3   -1    0    0    0  501 -0.00000000000E+00  0.00000000000E+00  0.76407003113E+02  0.76407003113E+02  0.00000000000E+00 0.  1.
          3   -1    0    0  502    0  0.00000000000E+00 -0.00000000000E+00 -0.54649355137E+03  0.54649355137E+03  0.00000000000E+00 0. -1.
         23    2    1    2    0    0  0.19937956376E+02 -0.11774559845E+03 -0.80107495430E+02  0.16972412911E+03  0.90152765445E+02 0.  0.
         23    2    1    2    0    0  0.83186561123E+01  0.98371463618E+02 -0.12307301679E+03  0.18408048464E+03  0.94828858836E+02 0.  0.
        -13    1    4    4    0    0 -0.40880145555E+01  0.73673816433E+02 -0.18713679022E+02  0.76123221643E+02  0.00000000000E+00 0.  1.
         13    1    4    4    0    0  0.12406670668E+02  0.24697647186E+02 -0.10435933777E+03  0.10795726299E+03  0.00000000000E+00 0. -1.
        -13    1    3    3    0    0 -0.54606896632E+01 -0.11051284694E+03 -0.88850555310E+02  0.14190605924E+03  0.00000000000E+00 0.  1.
         13    1    3    3    0    0  0.25398646040E+02 -0.72327515172E+01  0.87430598805E+01  0.27818069869E+02  0.00000000000E+00 0. -1.
         21    1    1    2  502  501 -0.28256612489E+02  0.19374134835E+02 -0.26690603604E+03  0.26909594075E+03  0.00000000000E+00 0. -1.
<scales pt_clust_5="13000.00000" pt_clust_6="13000.00000" pt_clust_7="13000.00000" pt_clust_8="13000.00000" pt_clust_9="34.26067"></scales>
<clustering>
<clus scale="   34.261">  2  9  1 -1</clus>
<clus scale="   90.153">  7  8 -1 -1</clus>
<clus scale="   94.829">  5  6 -1 -1</clus>
<clus scale="  141.681">  1  7  2 -1</clus>
<clus scale="   34.261">  2  5  1 -1</clus>
</clustering>
</event>
<event>
 9    1  0.1234700E-005  0.9382437E+02  0.7546771E-02  0.1294255E+00
         -2   -1    0    0    0  501 -0.00000000000E+00  0.00000000000E+00  0.68526173299E+02  0.68526173299E+02  0.00000000000E+00 0.  1.
          2   -1    0    0  502    0  0.00000000000E+00 -0.00000000000E+00 -0.19069920573E+03  0.19069920573E+03  0.00000000000E+00 0. -1.
         23    2    1    2    0    0  0.10671766879E+02 -0.58472926480E+01 -0.16441638331E+02  0.94394232187E+02  0.92151322072E+02 0.  0.
         23    2    1    2    0    0 -0.28736765017E+02 -0.11017843531E+02 -0.62225338817E+02  0.11479562124E+03  0.91426732004E+02 0.  0.
        -11    1    3    3    0    0  0.44388971757E+02  0.83829381810E-01  0.16043927453E+02  0.47199528061E+02  0.00000000000E+00 0. -1.
         11    1    3    3    0    0 -0.33717204878E+02 -0.59311220298E+01 -0.32485565784E+02  0.47194704127E+02  0.00000000000E+00 0.  1.
        -13    1    4    4    0    0 -0.23883930230E+02 -0.49971405004E+02 -0.47179165755E+02  0.72756148350E+02  0.00000000000E+00 0. -1.
         13    1    4    4    0    0 -0.48528347868E+01  0.38953561474E+02 -0.15046173062E+02  0.42039472889E+02  0.00000000000E+00 0.  1.
         21    1    1    2  502  501  0.18064998138E+02  0.16865136179E+02 -0.43506055284E+02  0.50035525604E+02  0.00000000000E+00 0.  1.
<scales pt_clust_5="13000.00000" pt_clust_6="13000.00000" pt_clust_7="13000.00000" pt_clust_8="13000.00000" pt_clust_9="24.71390"></scales>
<clustering>
<clus scale="   24.714">  2  9  1 -1</clus>
<clus scale="   91.427">  7  8 -1 -1</clus>
<clus scale="   92.151">  5  6 -1 -1</clus>
<clus scale="   93.113">  2  7  1 -1</clus>
<clus scale="   24.714">  2  5  1 -1</clus>
</clustering>
</event>
<event>
 9    1  0.1234700E-005  0.1139605E+03  0.7546771E-02  0.1258963E+00
          1   -1    0    0  502    0  0.00000000000E+00  0.00000000000E+00  0.19175649257E+03  0.19175649257E+03  0.00000000000E+00 0. -1.
         -1   -1    0    0    0  501 -0.00000000000E+00 -0.00000000000E+00 -0.35012364947E+03  0.35012364947E+03  0.00000000000E+00 0.  1.
         23    2    1    2    0    0 -0.77622823691E+02 -0.11955819349E+02 -0.29468938676E+03  0.31720931815E+03  0.87244899453E+02 0.  0.
         23    2    1    2    0    0  0.52272639655E+02  0.35489013456E+01  0.26177034261E+01  0.88324909055E+02  0.71059226221E+02 0.  0.
        -13    1    4    4    0    0  0.27585644931E+02  0.18754958951E+02 -0.29872785776E+02  0.44778338754E+02  0.00000000000E+00 0.  1.
         13    1    4    4    0    0  0.24686994725E+02 -0.15206057606E+02  0.32490489202E+02  0.43546570302E+02  0.00000000000E+00 0. -1.
        -13    1    3    3    0    0 -0.71778104561E+02 -0.44201991840E+02 -0.22235356864E+03  0.23779617714E+03  0.00000000000E+00 0. -1.
         13    1    3    3    0    0 -0.58447191299E+01  0.32246172492E+02 -0.72335818122E+02  0.79413141012E+02  0.00000000000E+00 0.  1.
         21    1    1    2  502  501  0.25350184035E+02  0.84069180030E+01  0.13370452644E+03  0.13634591483E+03  0.00000000000E+00 0. -1.
<scales pt_clust_5="13000.00000" pt_clust_6="13000.00000" pt_clust_7="13000.00000" pt_clust_8="13000.00000" pt_clust_9="26.70783"></scales>
<clustering>
<clus scale="   26.708">  1  9  2 -1</clus>
<clus scale="   71.059">  5  6 -1 -1</clus>
<clus scale="   87.245">  7  8 -1 -1</clus>
<clus scale="  102.102">  1  5  2 -1</clus>
<clus scale="   26.708">  1  5  2 -1</clus>
</clustering>
</event>
<event>
 9    1  0.1234700E-005  0.1994907E+03  0.7546771E-02  0.1150191E+00
          2   -1    0    0  502    0  0.00000000000E+00  0.00000000000E+00  0.15681232477E+03  0.15681232477E+03  0.00000000000E+00 0. -1.
         -2   -1    0    0    0  501 -0.00000000000E+00 -0.00000000000E+00 -0.30642036673E+03  0.30642036673E+03  0.00000000000E+00 0.  1.
         23    2    1    2    0    0 -0.16888141810E+03  0.70800172478E+02 -0.14405063974E+03  0.25021471344E+03  0.91231673293E+02 0.  0.
         23    2    1    2    0    0  0.14825351261E+03 -0.78475763292E+02 -0.30252723151E+01  0.19086313973E+03  0.91005694376E+02 0.  0.
        -13    1    4    4    0    0  0.39258996286E+02 -0.69279572842E+02 -0.14293025217E+02  0.80902525130E+02  0.00000000000E+00 0. -1.
         13    1    4    4    0    0  0.10899451632E+03 -0.91961904507E+01  0.11267752902E+02  0.10996061460E+03  0.00000000000E+00 0.  1.
        -13    1    3    3    0    0 -0.55943361788E+02  0.25348265073E+02 -0.10627778643E+03  0.12274836927E+03  0.00000000000E+00 0.  1.
         13    1    3    3    0    0 -0.11293805631E+03  0.45451907404E+02 -0.37772853316E+02  0.12746634417E+03  0.00000000000E+00 0. -1.
         21    1    1    2  502  501  0.20627905489E+02  0.76755908149E+01 -0.25321298991E+01  0.22154838321E+02  0.00000000000E+00 0.  1.
<scales pt_clust_5="13000.00000" pt_clust_6="13000.00000" pt_clust_7="13000.00000" pt_clust_8="13000.00000" pt_clust_9="22.00966"></scales>
<clustering>
<clus scale="   22.010">  1  9  2 -1</clus>
<clus scale="   91.006">  5  6 -1 -1</clus>
<clus scale="   91.232">  7  8 -1 -1</clus>
<clus scale="  199.387">  1  5  2 -1</clus>
<clus scale="   22.010">  1  5  2 -1</clus>
</clustering>
</event>
<event>
 9    1  0.1234700E-005  0.9820020E+02  0.7546771E-02  0.1284568E+00
          1   -1    0    0  502    0  0.00000000000E+00  0.00000000000E+00  0.12380371743E+03  0.12380371743E+03  0.00000000000E+00 0. -1.
         -1   -1    0    0    0  501 -0.00000000000E+00 -0.00000000000E+00 -0.12359236045E+03  0.12359236045E+03  0.00000000000E+00 0.  1.
         23    2    1    2    0    0  0.17359155843E+02 -0.44957353053E+02 -0.49533972769E+02  0.11400912722E+03  0.90675039263E+02 0.  0.
         23    2    1    2    0    0 -0.73886512344E+01  0.16137991291E+02  0.27269778826E+02  0.95504013029E+02  0.89790582677E+02 0.  0.
        -11    1    4    4    0    0  0.14455720196E+02  0.28613148849E+02 -0.22889318952E+02  0.39390367547E+02  0.00000000000E+00 0.  1.
         11    1    4    4    0    0 -0.21844371430E+02 -0.12475157558E+02  0.50159097779E+02  0.56113645482E+02  0.00000000000E+00 0. -1.
        -11    1    3    3    0    0  0.54573403014E+02 -0.27699355235E+02 -0.24301892536E+02  0.65849013492E+02  0.00000000000E+00 0.  1.
         11    1    3    3    0    0 -0.37214247171E+02 -0.17257997818E+02 -0.25232080233E+02  0.48160113726E+02  0.00000000000E+00 0. -1.
         21    1    1    2  502  501 -0.99705046086E+01  0.28819361762E+02  0.22475550925E+02  0.37882937636E+02  0.00000000000E+00 0.  1.
<scales pt_clust_5="13000.00000" pt_clust_6="13000.00000" pt_clust_7="13000.00000" pt_clust_8="13000.00000" pt_clust_9="30.49535"></scales>
<clustering>
<clus scale="   30.495">  1  9  2 -1</clus>
<clus scale="   89.791">  5  6 -1 -1</clus>
<clus scale="   90.675">  7  8 -1 -1</clus>
<clus scale="   97.384">  1  5  2 -1</clus>
<clus scale="   30.495">  1  5  2 -1</clus>
</clustering>
</event>
<event>
 9    1  0.1234700E-005  0.1575575E+03  0.7546771E-02  0.1191619E+00
          1   -1    0    0  502    0  0.00000000000E+00  0.00000000000E+00  0.66648064430E+03  0.66648064430E+03  0.00000000000E+00 0. -1.
         -1   -1    0    0    0  501 -0.00000000000E+00 -0.00000000000E+00 -0.46939348221E+03  0.46939348221E+03  0.00000000000E+00 0.  1.
         23    2    1    2    0    0 -0.10032609765E+03  0.81891219130E+02 -0.41114872807E+03  0.44056293397E+03  0.90999585484E+02 0.  0.
         23    2    1    2    0    0 -0.20902320666E+02 -0.16494377786E+03  0.34747532040E+03  0.39599508596E+03  0.91813141489E+02 0.  0.
        -11    1    3    3    0    0 -0.83833585380E+02  0.10104898401E+03 -0.31785751652E+03  0.34390749922E+03  0.00000000000E+00 0.  1.
         11    1    3    3    0    0 -0.16492512271E+02 -0.19157764882E+02 -0.93291211544E+02  0.96655434755E+02  0.00000000000E+00 0. -1.
        -13    1    4    4    0    0 -0.17566984784E+02 -0.53199986038E+02  0.40033704736E+02  0.68858804693E+02  0.00000000000E+00 0.  1.
         13    1    4    4    0    0 -0.33353358819E+01 -0.11174379182E+03  0.30744161566E+03  0.32713628126E+03  0.00000000000E+00 0. -1.
         21    1    1    2  502  501  0.12122841832E+03  0.83052558731E+02  0.26076056975E+03  0.29931610658E+03  0.00000000000E+00 0. -1.
<scales pt_clust_5="13000.00000" pt_clust_6="13000.00000" pt_clust_7="13000.00000" pt_clust_8="13000.00000" pt_clust_9="146.94916"></scales>
<clustering>
<clus scale="   91.000">  5  6 -1 -1</clus>
<clus scale="   91.813">  7  8 -1 -1</clus>
<clus scale="  146.949">  1  9  2 -1</clus>
<clus scale="  157.085">  2  5  1 -1</clus>
<clus scale="  146.949">  1  5  2 -1</clus>
</clustering>
</event>
<event>
 9    1  0.1234700E-005  0.1512199E+03  0.7546771E-02  0.1221452E+00
          1   -1    0    0  502    0  0.00000000000E+00  0.00000000000E+00  0.39259009861E+03  0.39259009861E+03  0.00000000000E+00 0. -1.
         -1   -1    0    0    0  501 -0.00000000000E+00 -0.00000000000E+00 -0.13048039473E+03  0.13048039473E+03  0.00000000000E+00 0.  1.
         23    2    1    2    0    0  0.27350991311E+02 -0.80839330235E+01 -0.11157521561E+02  0.94264846029E+02  0.89151243461E+02 0.  0.
         23    2    1    2    0    0 -0.12448764426E+03 -0.61540108995E+02  0.43998001067E+02  0.17025697914E+03  0.88132038771E+02 0.  0.
        -11    1    3    3    0    0  0.28390117396E+02 -0.35788115008E+02 -0.35119515732E+02  0.57620901822E+02  0.00000000000E+00 0. -1.
         11    1    3    3    0    0 -0.10391260845E+01  0.27704181984E+02  0.23961994171E+02  0.36643944207E+02  0.00000000000E+00 0.  1.
        -13    1    4    4    0    0 -0.91059275708E+02 -0.73379729332E+02  0.42990366557E+01  0.11702503188E+03  0.00000000000E+00 0.  1.
         13    1    4    4    0    0 -0.33428368555E+02  0.11839620337E+02  0.39698964412E+02  0.53231947262E+02  0.00000000000E+00 0. -1.
         21    1    1    2  502  501  0.97136652952E+02  0.69624042018E+02  0.22926922437E+03  0.25854866818E+03  0.00000000000E+00 0. -1.
<scales pt_clust_5="13000.00000" pt_clust_6="13000.00000" pt_clust_7="13000.00000" pt_clust_8="13000.00000" pt_clust_9="122.88293"></scales>
<clustering>
<clus scale="   88.132">  7  8 -1 -1</clus>
<clus scale="   89.151">  5  6 -1 -1</clus>
<clus scale="   93.602">  2  5  1 -1</clus>
<clus scale="  122.883">  1  9  2 -1</clus>
<clus scale="  122.883">  1  5  2 -1</clus>
</clustering>
</event>
<event>
 9    1  0.1234700E-005  0.1010961E+03  0.7546771E-02  0.1279357E+00
         -2   -1    0    0    0  501 -0.00000000000E+00  0.00000000000E+00  0.95542280446E+02  0.95542280446E+02  0.00000000000E+00 0.  1.
          2   -1    0    0  502    0  0.00000000000E+00 -0.00000000000E+00 -0.19742868652E+03  0.19742868652E+03  0.00000000000E+00 0. -1.
         23    2    1    2    0    0 -0.39128605162E+02 -0.52895215020E+02 -0.10560065974E+02  0.11261030761E+03  0.90777832490E+02 0.  0.
         23    2    1    2    0    0  0.40288298597E+01  0.56371017154E+01 -0.38995236029E+02  0.10159602292E+03  0.93558083859E+02 0.  0.
        -11    1    3    3    0    0  0.22986367404E+02 -0.24997634789E+02  0.18390191660E+02  0.38619347234E+02  0.00000000000E+00 0.  1.
         11    1    3    3    0    0 -0.62114972566E+02 -0.27897580231E+02 -0.28950257634E+02  0.73990960371E+02  0.00000000000E+00 0. -1.
        -11    1    4    4    0    0 -0.86405565398E+01 -0.35725031546E+02  0.81119118954E+01  0.37639609600E+02  0.00000000000E+00 0.  1.
         11    1    4    4    0    0  0.12669386399E+02  0.41362133261E+02 -0.47107147924E+02  0.63956413324E+02  0.00000000000E+00 0. -1.
         21    1    1    2  502  501  0.35099775302E+02  0.47258113305E+02 -0.52331104067E+02  0.78764636432E+02  0.00000000000E+00 0. -1.
<scales pt_clust_5="13000.00000" pt_clust_6="13000.00000" pt_clust_7="13000.00000" pt_clust_8="13000.00000" pt_clust_9="58.86700"></scales>
<clustering>
<clus scale="   58.867">  2  9  1 -1</clus>
<clus scale="   90.778">  5  6 -1 -1</clus>
<clus scale="   93.558">  7  8 -1 -1</clus>
<clus scale="   98.529">  1  5  2 -1</clus>
<clus scale="   58.867">  2  5  1 -1</clus>
</clustering>
</event>
<event>
 9    1  0.1234700E-005  0.1434058E+03  0.7546771E-02  0.1209093E+00
         -2   -1    0    0    0  501 -0.00000000000E+00  0.00000000000E+00  0.29430822317E+03  0.29430822317E+03  0.00000000000E+00 0.  1.
          2   -1    0    0  502    0  0.00000000000E+00 -0.00000000000E+00 -0.36579709805E+03  0.36579709805E+03  0.00000000000E+00 0. -1.
         23    2    1    2    0    0  0.86657780196E+02 -0.95043507336E+02  0.23217995871E+03  0.28045692777E+03  0.90585406961E+02 0.  0.
         23    2    1    2    0    0 -0.48490722740E+02 -0.17249188910E+00 -0.72386665740E+02  0.12663801432E+03  0.91901998613E+02 0.  0.
        -11    1    4    4    0    0  0.11237832207E+02 -0.28569336446E+02 -0.46279186157E+02  0.55536104734E+02  0.00000000000E+00 0.  1.
         11    1    4    4    0    0 -0.59728554947E+02  0.28396844557E+02 -0.26107479583E+02  0.71101909588E+02  0.00000000000E+00 0. -1.
        -11    1    3    3    0    0  0.59436367839E+02 -0.39427882187E+02  0.47553846257E+02  0.85724022360E+02  0.00000000000E+00 0. -1.
         11    1    3    3    0    0  0.27221412357E+02 -0.55615625148E+02  0.18462611245E+03  0.19473290541E+03  0.00000000000E+00 0.  1.
         21    1    1    2  502  501 -0.38167057456E+02  0.95215999225E+02 -0.23128216785E+03  0.25301037913E+03  0.00000000000E+00 0. -1.
<scales pt_clust_5="13000.00000" pt_clust_6="13000.00000" pt_clust_7="13000.00000" pt_clust_8="13000.00000" pt_clust_9="102.58075"></scales>
<clustering>
<clus scale="   90.585">  7  8 -1 -1</clus>
<clus scale="   91.902">  5  6 -1 -1</clus>
<clus scale="  102.581">  2  9  1 -1</clus>
<clus scale="  142.566">  1  7  2 -1</clus>
<clus scale="  102.581">  2  5  1 -1</clus>
</clustering>
</event>
<event>
 9    1  0.1234700E-005  0.1384009E+03  0.7546771E-02  0.1215706E+00
          1   -1    0    0  502    0  0.00000000000E+00  0.00000000000E+00  0.22264073575E+03  0.22264073575E+03  0.00000000000E+00 0. -1.
         -1   -1    0    0    0  501 -0.00000000000E+00 -0.00000000000E+00 -0.17002640463E+03  0.17002640463E+03  0.00000000000E+00 0.  1.
         23    2    1    2    0    0 -0.93476907147E+02  0.10950433746E+03 -0.25462909703E+01  0.16942802718E+03  0.89276204566E+02 0.  0.
         23    2    1    2    0    0  0.77970411019E+02 -0.46964109995E+02  0.83384415281E+02  0.15289485987E+03  0.90215657403E+02 0.  0.
        -13    1    3    3    0    0  0.10413148544E+02  0.44333886766E+02  0.83735011528E+01  0.46303808698E+02  0.00000000000E+00 0. -1.
         13    1    3    3    0    0 -0.10389005569E+03  0.65170450698E+02 -0.10919792123E+02  0.12312421848E+03  0.00000000000E+00 0.  1.
        -13    1    4    4    0    0  0.62792169812E+02 -0.22899512522E+02  0.99750206382E+02  0.12007226131E+03  0.00000000000E+00 0. -1.
         13    1    4    4    0    0  0.15178241207E+02 -0.24064597472E+02 -0.16365791101E+02  0.32822598557E+02  0.00000000000E+00 0.  1.
         21    1    1    2  502  501  0.15506496128E+02 -0.62540227470E+02 -0.28223793194E+02  0.70344253329E+02  0.00000000000E+00 0. -1.
<scales pt_clust_5="13000.00000" pt_clust_6="13000.00000" pt_clust_7="13000.00000" pt_clust_8="13000.00000" pt_clust_9="64.43393"></scales>
<clustering>
<clus scale="   64.434">  2  9  1 -1</clus>
<clus scale="   89.276">  5  6 -1 -1</clus>
<clus scale="   90.216">  7  8 -1 -1</clus>
<clus scale="  137.790">  2  5  1 -1</clus>
<clus scale="  138.401">  1  5  2 -1</clus>
</clustering>
</event>
<event>
 9    1  0.1234700E-005  0.2078264E+03  0.7546771E-02  0.1143449E+00
          1   -1    0    0  502    0  0.00000000000E+00  0.00000000000E+00  0.12460174548E+03  0.12460174548E+03  0.00000000000E+00 0. -1.
         -1   -1    0    0    0  501 -0.00000000000E+00 -0.00000000000E+00 -0.49814838025E+03  0.49814838025E+03  0.00000000000E+00 0.  1.
         23    2    1    2    0    0 -0.14335518628E+03  0.11387726263E+03 -0.25936111339E+03  0.33070734202E+03  0.92630548692E+02 0.  0.
         23    2    1    2    0    0  0.18054854449E+03 -0.77921205955E+02 -0.85749723043E+02  0.23301077092E+03  0.90947859290E+02 0.  0.
        -11    1    3    3    0    0 -0.23359906094E+02  0.75104722118E+02 -0.89424744691E+02  0.11909319653E+03  0.00000000000E+00 0.  1.
         11    1    3    3    0    0 -0.11999528019E+03  0.38772540508E+02 -0.16993636870E+03  0.21161414549E+03  0.00000000000E+00 0. -1.
        -13    1    4    4    0    0  0.70162982535E+02 -0.77509068257E+02 -0.27068741724E+02  0.10799637290E+03  0.00000000000E+00 0. -1.
         13    1    4    4    0    0  0.11038556195E+03 -0.41213769779E+00 -0.58680981319E+02  0.12501439802E+03  0.00000000000E+00 0.  1.
         21    1    1    2  502  501 -0.37193358207E+02 -0.35956056671E+02 -0.28435798337E+02  0.59032012782E+02  0.00000000000E+00 0. -1.
<scales pt_clust_5="13000.00000" pt_clust_6="13000.00000" pt_clust_7="13000.00000" pt_clust_8="13000.00000" pt_clust_9="51.73185"></scales>
<clustering>
<clus scale="   51.732">  1  9  2 -1</clus>
<clus scale="   90.948">  7  8 -1 -1</clus>
<clus scale="   92.631">  5  6 -1 -1</clus>
<clus scale="  207.082">  1  7  2 -1</clus>
<clus scale="   51.732">  1  5  2 -1</clus>
</clustering>
</event>
<event>
 9    1  0.1234700E-005  0.9389418E+02  0.7546771E-02  0.1295101E+00
         -2   -1    0    0    0  501 -0.00000000000E+00  0.00000000000E+00  0.36532016542E+02  0.36532016542E+02  0.00000000000E+00 0.  1.
          2   -1    0    0  502    0  0.00000000000E+00 -0.00000000000E+00 -0.56838244901E+03  0.56838244901E+03  0.00000000000E+00 0. -1.
         23    2    1    2    0    0  0.15100181839E+01  0.97105856204E+01 -0.73135383312E+02  0.11769547105E+03  0.91688952364E+02 0.  0.
         23    2    1    2    0    0  0.24101301184E+02 -0.56892093859E+02 -0.34087067347E+03  0.35772254173E+03  0.89190906305E+02 0.  0.
        -11    1    4    4    0    0  0.19575476779E+02  0.17360454498E+02 -0.40041593612E+02  0.47832142859E+02  0.00000000000E+00 0.  1.
         11    1    4    4    0    0  0.45258244041E+01 -0.74252548357E+02 -0.30082907985E+03  0.30989039887E+03  0.00000000000E+00 0. -1.
        -11    1    3    3    0    0  0.16734839824E+02 -0.34873041079E+02 -0.11970799893E+02  0.40490540971E+02  0.00000000000E+00 0. -1.
         11    1    3    3    0    0 -0.15224821640E+02  0.44583626700E+02 -0.61164583419E+02  0.77204930079E+02  0.00000000000E+00 0.  1.
         21    1    1    2  502  501 -0.25611319367E+02  0.47181508239E+02 -0.11784437569E+03  0.12949645278E+03  0.00000000000E+00 0.  1.
<scales pt_clust_5="13000.00000" pt_clust_6="13000.00000" pt_clust_7="13000.00000" pt_clust_8="13000.00000" pt_clust_9="53.68458"></scales>
<clustering>
<clus scale="   53.685">  2  9  1 -1</clus>
<clus scale="   89.191">  5  6 -1 -1</clus>
<clus scale="   91.456">  2  5  1 -1</clus>
<clus scale="   91.689">  7  8 -1 -1</clus>
<clus scale="   53.685">  2  5  1 -1</clus>
</clustering>
</event>
<event>
 9    1  0.1234700E-005  0.1526664E+03  0.7546771E-02  0.1197378E+00
         -1   -1    0    0    0  501 -0.00000000000E+00  0.00000000000E+00  0.21892769093E+03  0.21892769093E+03  0.00000000000E+00 0.  1.
          1   -1    0    0  502    0  0.00000000000E+00 -0.00000000000E+00 -0.62453942583E+03  0.62453942583E+03  0.00000000000E+00 0. -1.
         23    2    1    2    0    0 -0.57758786978E+02  0.11118700796E+03  0.16762545185E+03  0.22845104610E+03  0.91613100272E+02 0.  0.
         23    2    1    2    0    0 -0.24425739297E+02 -0.10068101372E+03 -0.39819912569E+03  0.42135917021E+03  0.90816977216E+02 0.  0.
        -11    1    3    3    0    0 -0.21916422611E+02  0.27089966409E+02  0.12082872992E+03  0.12575284424E+03  0.00000000000E+00 0. -1.
         11    1    3    3    0    0 -0.35842364368E+02  0.84097041555E+02  0.46796721934E+02  0.10269820186E+03  0.00000000000E+00 0.  1.
        -13    1    4    4    0    0  0.20911819063E+02  0.72640234749E+00 -0.11987006121E+03  0.12168263397E+03  0.00000000000E+00 0.  1.
         13    1    4    4    0    0 -0.45337558360E+02 -0.10140741606E+03 -0.27832906449E+03  0.29967653623E+03  0.00000000000E+00 0. -1.
         21    1    1    2  502  501  0.82184526276E+02 -0.10505994250E+02 -0.17503806106E+03  0.19365690046E+03  0.00000000000E+00 0. -1.
<scales pt_clust_5="13000.00000" pt_clust_6="13000.00000" pt_clust_7="13000.00000" pt_clust_8="13000.00000" pt_clust_9="82.85332"></scales>
<clustering>
<clus scale="   82.853">  2  9  1 -1</clus>
<clus scale="   90.817">  7  8 -1 -1</clus>
<clus scale="   91.613">  5  6 -1 -1</clus>
<clus scale="  152.190">  2  7  1 -1</clus>
<clus scale="   82.853">  2  5  1 -1</clus>
</clustering>
</event>
<event>
 9    1  0.1234700E-005  0.1625531E+03  0.7546771E-02  0.1198123E+00
          1   -1    0    0  502    0  0.00000000000E+00  0.00000000000E+00  0.10019680116E+04  0.10019680116E+04  0.00000000000E+00 0. -1.
         -1   -1    0    0    0  501 -0.00000000000E+00 -0.00000000000E+00 -0.48834818629E+02  0.48834818629E+02  0.00000000000E+00 0.  1.
         23    2    1    2    0    0  0.46364918961E+02  0.70212586604E+02  0.19781713729E+03  0.23349205389E+03  0.91144974592E+02 0.  0.
         23    2    1    2    0    0  0.85573646424E+02  0.48415360173E+02  0.28800062165E+03  0.31744670515E+03  0.90339119297E+02 0.  0.
        -11    1    3    3    0    0  0.26783248940E+01  0.31734129191E+02  0.16208636463E+03  0.16518540486E+03  0.00000000000E+00 0. -1.
         11    1    3    3    0    0  0.43686594067E+02  0.38478457413E+02  0.35730772661E+02  0.68306649025E+02  0.00000000000E+00 0.  1.
        -11    1    4    4    0    0 -0.89127516611E+01  0.25431195788E+02  0.23924110955E+02  0.36035343017E+02  0.00000000000E+00 0.  1.
         11    1    4    4    0    0  0.94486398085E+02  0.22984164385E+02  0.26407651069E+03  0.28141136213E+03  0.00000000000E+00 0. -1.
         21    1    1    2  502  501 -0.13193856539E+03 -0.11862794678E+03  0.46731543406E+03  0.49986407123E+03  0.00000000000E+00 0. -1.
<scales pt_clust_5="13000.00000" pt_clust_6="13000.00000" pt_clust_7="13000.00000" pt_clust_8="13000.00000" pt_clust_9="135.13829"></scales>
<clustering>
<clus scale="   90.339">  7  8 -1 -1</clus>
<clus scale="   91.145">  5  6 -1 -1</clus>
<clus scale="  124.044">  2  5  1 -1</clus>
<clus scale="  135.138">  2  9  1 -1</clus>
<clus scale="  162.553">  1  5  2 -1</clus>
</clustering>
</event>
<event>
 9    1  0.1234700E-005  0.1823083E+03  0.7546771E-02  0.1165823E+00
          1   -1    0    0  502    0  0.00000000000E+00  0.00000000000E+00  0.80643318398E+03  0.80643318398E+03  0.00000000000E+00 0. -1.
         -1   -1    0    0    0  501 -0.00000000000E+00 -0.00000000000E+00 -0.62949030628E+02  0.62949030628E+02  0.00000000000E+00 0.  1.
         23    2    1    2    0    0  0.50601834925E+02 -0.13322212637E+03  0.18664296539E+03  0.25175083686E+03  0.90742529597E+02 0.  0.
         23    2    1    2    0    0 -0.97339753820E+02  0.16323976622E+03  0.45028857420E+03  0.49746919042E+03  0.92701382998E+02 0.  0.
        -11    1    4    4    0    0 -0.74981442611E+02  0.62956282272E+02  0.29874090563E+03  0.31437531536E+03  0.00000000000E+00 0.  1.
         11    1    4    4    0    0 -0.22358311209E+02  0.10028348395E+03  0.15154766857E+03  0.18309387506E+03  0.00000000000E+00 0. -1.
        -11    1    3    3    0    0  0.62963571208E+02 -0.53675614093E+02  0.62075495802E+02  0.10343524557E+03  0.00000000000E+00 0.  1.
         11    1    3    3    0    0 -0.12361736283E+02 -0.79546512272E+02  0.12456746959E+03  0.14831559128E+03  0.00000000000E+00 0. -1.
         21    1    1    2  502  501  0.46737918895E+02 -0.30017639856E+02  0.10655261376E+03  0.12016218733E+03  0.00000000000E+00 0.  1.
<scales pt_clust_5="13000.00000" pt_clust_6="13000.00000" pt_clust_7="13000.00000" pt_clust_8="13000.00000" pt_clust_9="55.54720"></scales>
<clustering>
<clus scale="   55.547">  1  9  2 -1</clus>
<clus scale="   90.743">  7  8 -1 -1</clus>
<clus scale="   92.701">  5  6 -1 -1</clus>
<clus scale="  181.320">  2  7  1 -1</clus>
<clus scale="   55.547">  1  5  2 -1</clus>
</clustering>
</event>
<event>
 9    1  0.1234700E-005  0.3924331E+03  0.7546771E-02  0.1046741E+00
         -1   -1    0    0    0  501 -0.00000000000E+00  0.00000000000E+00  0.95886713596E+03  0.95886713596E+03  0.00000000000E+00 0.  1.
          1   -1    0    0  502    0  0.00000000000E+00 -0.00000000000E+00 -0.20179119830E+03  0.20179119830E+03  0.00000000000E+00 0. -1.
         23    2    1    2    0    0 -0.26575692905E+03  0.28319668359E+03  0.62748978552E+03  0.74362414469E+03  0.91686044152E+02 0.  0.
         23    2    1    2    0    0  0.24776099697E+03 -0.26895545093E+03  0.12043001321E+03  0.39232586791E+03  0.75456294260E+02 0.  0.
        -11    1    3    3    0    0 -0.26100152386E+03  0.25333105428E+03  0.54017077885E+03  0.65121646850E+03  0.00000000000E+00 0.  1.
         11    1    3    3    0    0 -0.47554051944E+01  0.29865629305E+02  0.87319006672E+02  0.92407676188E+02  0.00000000000E+00 0. -1.
        -11    1    4    4    0    0 -0.54952788529E+00 -0.25628255370E+02  0.60867773911E+01  0.26346884317E+02  0.00000000000E+00 0.  1.
         11    1    4    4    0    0  0.24831052485E+03 -0.24332719556E+03  0.11434323581E+03  0.36597898359E+03  0.00000000000E+00 0. -1.
         21    1    1    2  502  501  0.17995932086E+02 -0.14241232657E+02  0.91561389388E+01  0.24708321666E+02  0.00000000000E+00 0.  1.
<scales pt_clust_5="13000.00000" pt_clust_6="13000.00000" pt_clust_7="13000.00000" pt_clust_8="13000.00000" pt_clust_9="22.94921"></scales>
<clustering>
<clus scale="   22.949">  2  9  1 -1</clus>
<clus scale="   75.456">  7  8 -1 -1</clus>
<clus scale="   91.686">  5  6 -1 -1</clus>
<clus scale="  388.962">  2  7  1 -1</clus>
<clus scale="   22.949">  2  5  1 -1</clus>
</clustering>
</event>
<event>
 9    1  0.1234700E-005  0.1220821E+03  0.7546771E-02  0.1245351E+00
         -1   -1    0    0    0  501 -0.00000000000E+00  0.00000000000E+00  0.46765216487E+02  0.46765216487E+02  0.00000000000E+00 0.  1.
          1   -1    0    0  502    0  0.00000000000E+00 -0.00000000000E+00 -0.54202268958E+03  0.54202268958E+03  0.00000000000E+00 0. -1.
         23    2    1    2    0    0 -0.54305620344E+02  0.13023955059E+02 -0.58808560466E+02  0.12397124762E+03  0.93764063724E+02 0.  0.
         23    2    1    2    0    0  0.57453011196E+02  0.16422820786E+02 -0.29073149226E+03  0.31612037310E+03  0.10879674701E+03 0.  0.
        -11    1    4    4    0    0 -0.25607287538E+02  0.22332978925E+02 -0.13845498096E+03  0.14256323817E+03  0.00000000000E+00 0.  1.
         11    1    4    4    0    0  0.83060298734E+02 -0.59101581393E+01 -0.15227651129E+03  0.17355713493E+03  0.00000000000E+00 0. -1.
        -11    1    3    3    0    0 -0.32570390385E+02  0.46287811711E+02 -0.46359042461E+01  0.56788057292E+02  0.00000000000E+00 0.  1.
         11    1    3    3    0    0 -0.21735229959E+02 -0.33263856652E+02 -0.54172656220E+02  0.67183190328E+02  0.00000000000E+00 0. -1.
         21    1    1    2  502  501 -0.31473908522E+01 -0.29446775845E+02 -0.14571742037E+03  0.14869628535E+03  0.00000000000E+00 0. -1.
<scales pt_clust_5="13000.00000" pt_clust_6="13000.00000" pt_clust_7="13000.00000" pt_clust_8="13000.00000" pt_clust_9="29.61450"></scales>
<clustering>
<clus scale="   29.615">  2  9  1 -1</clus>
<clus scale="   93.764">  7  8 -1 -1</clus>
<clus scale="  108.797">  5  6 -1 -1</clus>
<clus scale="  108.899">  1  7  2 -1</clus>
<clus scale="   29.615">  2  5  1 -1</clus>
</clustering>
</event>
<event>
 9    1  0.1234700E-005  0.9102136E+02  0.7546771E-02  0.1301097E+00
          2   -1    0    0  502    0  0.00000000000E+00  0.00000000000E+00  0.13985926578E+03  0.13985926578E+03  0.00000000000E+00 0. -1.
         -2   -1    0    0    0  501 -0.00000000000E+00 -0.00000000000E+00 -0.21779800789E+03  0.21779800789E+03  0.00000000000E+00 0.  1.
         23    2    1    2    0    0 -0.37810362267E+01  0.37949846233E+01 -0.17542963785E+03  0.19758907949E+03  0.90758957433E+02 0.  0.
         23    2    1    2    0    0  0.31298667806E+02  0.91429738886E+01  0.82903801561E+02  0.12634291976E+03  0.89589577980E+02 0.  0.
        -11    1    4    4    0    0  0.60771810848E+02  0.46329777740E+01  0.36064950169E+02  0.70819193072E+02  0.00000000000E+00 0. -1.
         11    1    4    4    0    0 -0.29473143041E+02  0.45099961146E+01  0.46838851393E+02  0.55523726689E+02  0.00000000000E+00 0.  1.
        -13    1    3    3    0    0 -0.37239766039E+02  0.29272345268E+01 -0.15252391387E+03  0.15703156746E+03  0.00000000000E+00 0.  1.
         13    1    3    3    0    0  0.33458729813E+02  0.86775009651E+00 -0.22905723976E+02  0.40557512026E+02  0.00000000000E+00 0. -1.
         21    1    1    2  502  501 -0.27517631580E+02 -0.12937958512E+02  0.14587094171E+02  0.33725274418E+02  0.00000000000E+00 0. -1.
<scales pt_clust_5="13000.00000" pt_clust_6="13000.00000" pt_clust_7="13000.00000" pt_clust_8="13000.00000" pt_clust_9="30.40741"></scales>
<clustering>
<clus scale="   30.407">  1  9  2 -1</clus>
<clus scale="   89.590">  5  6 -1 -1</clus>
<clus scale="   89.855">  1  5  2 -1</clus>
<clus scale="   90.759">  7  8 -1 -1</clus>
<clus scale="   30.407">  1  5  2 -1</clus>
</clustering>
</event>
<event>
 9    1  0.1234700E-005  0.1018889E+03  0.7546771E-02  0.1276585E+00
          2   -1    0    0  502    0  0.00000000000E+00  0.00000000000E+00  0.18366206346E+03  0.18366206346E+03  0.00000000000E+00 0. -1.
         -2   -1    0    0    0  501 -0.00000000000E+00 -0.00000000000E+00 -0.11261885575E+03  0.11261885575E+03  0.00000000000E+00 0.  1.
         23    2    1    2    0    0 -0.34985708743E+02  0.27692070724E+02 -0.40620485539E+02  0.10861895020E+03  0.90317229257E+02 0.  0.
         23    2    1    2    0    0  0.12870811158E+02 -0.58876342861E+02  0.63308659096E+02  0.12601996342E+03  0.90779751796E+02 0.  0.
        -11    1    3    3    0    0 -0.60220912180E+02  0.14821041708E+02 -0.37617339996E+01  0.62131893451E+02  0.00000000000E+00 0.  1.
         11    1    3    3    0    0  0.25235203438E+02  0.12871029016E+02 -0.36858751539E+02  0.46487056752E+02  0.00000000000E+00 0. -1.
        -11    1    4    4    0    0 -0.15853609200E+02  0.16736166396E+02  0.31660479595E+02  0.39164041652E+02  0.00000000000E+00 0.  1.
         11    1    4    4    0    0  0.28724420358E+02 -0.75612509258E+02  0.31648179502E+02  0.86855921772E+02  0.00000000000E+00 0. -1.
         21    1    1    2  502  501  0.22114897585E+02  0.31184272137E+02  0.48355034159E+02  0.61642005584E+02  0.00000000000E+00 0. -1.
<scales pt_clust_5="13000.00000" pt_clust_6="13000.00000" pt_clust_7="13000.00000" pt_clust_8="13000.00000" pt_clust_9="38.22993"></scales>
<clustering>
<clus scale="   38.230">  1  9  2 -1</clus>
<clus scale="   90.317">  5  6 -1 -1</clus>
<clus scale="   90.780">  7  8 -1 -1</clus>
<clus scale="  101.477">  2  5  1 -1</clus>
<clus scale="   38.230">  1  5  2 -1</clus>
</clustering>
</event>
<event>
 9    1  0.1234700E-005  0.1126609E+03  0.7546771E-02  0.1256139E+00
         -2   -1    0    0    0  501 -0.00000000000E+00  0.00000000000E+00  0.42606703442E+03  0.42606703442E+03  0.00000000000E+00 0.  1.
          2   -1    0    0  502    0  0.00000000000E+00 -0.00000000000E+00 -0.17112910355E+03  0.17112910355E+03  0.00000000000E+00 0. -1.
         23    2    1    2    0    0  0.60173794820E+02  0.30145101241E+02  0.22981994369E+03  0.25644762362E+03  0.91752735294E+02 0.  0.
         23    2    1    2    0    0 -0.36950661560E+02 -0.57464931207E+02  0.16281484619E+03  0.19845968130E+03  0.90609057228E+02 0.  0.
        -11    1    3    3    0    0 -0.16839328921E+02  0.13785004608E+02  0.12034792271E+02  0.24868163896E+02  0.00000000000E+00 0.  1.
         11    1    3    3    0    0  0.77013123741E+02  0.16360096632E+02  0.21778515142E+03  0.23157945973E+03  0.00000000000E+00 0. -1.
        -13    1    4    4    0    0 -0.23782687651E+02 -0.56916676739E+01 -0.26380503277E+01  0.24596150559E+02  0.00000000000E+00 0. -1.
         13    1    4    4    0    0 -0.13167973910E+02 -0.51773263533E+02  0.16545289652E+03  0.17386353074E+03  0.00000000000E+00 0.  1.
         21    1    1    2  502  501 -0.23223133260E+02  0.27319829966E+02 -0.13769685901E+03  0.14228883305E+03  0.00000000000E+00 0. -1.
<scales pt_clust_5="13000.00000" pt_clust_6="13000.00000" pt_clust_7="13000.00000" pt_clust_8="13000.00000" pt_clust_9="35.85648"></scales>
<clustering>
<clus scale="   35.856">  2  9  1 -1</clus>
<clus scale="   90.609">  7  8 -1 -1</clus>
<clus scale="   91.753">  5  6 -1 -1</clus>
<clus scale="  111.731">  2  7  1 -1</clus>
<clus scale="   35.856">  2  5  1 -1</clus>
</clustering>
</event>
<event>
 9    1  0.1234700E-005  0.9489710E+02  0.7546771E-02  0.1291840E+00
          3   -1    0    0  502    0  0.00000000000E+00  0.00000000000E+00  0.61696878129E+02  0.61696878129E+02  0.00000000000E+00 0. -1.
         -3   -1    0    0    0  501 -0.00000000000E+00 -0.00000000000E+00 -0.42222870433E+03  0.42222870433E+03  0.00000000000E+00 0.  1.
         23    2    1    2    0    0  0.24066273173E+02  0.33702567486E+01 -0.33044584386E+03  0.34395970919E+03  0.92321620891E+02 0.  0.
         23    2    1    2    0    0 -0.11322517743E+02  0.28264806889E+02 -0.40024062155E+02  0.10444199420E+03  0.91537456184E+02 0.  0.
        -13    1    3    3    0    0 -0.19524124063E+02  0.36036023614E+02 -0.13949749448E+03  0.14539373227E+03  0.00000000000E+00 0.  1.
         13    1    3    3    0    0  0.43590397236E+02 -0.32665766865E+02 -0.19094834938E+03  0.19856597691E+03  0.00000000000E+00 0. -1.
        -13    1    4    4    0    0 -0.26693705941E+02  0.57431562460E+02 -0.23380675835E+02  0.67509957087E+02  0.00000000000E+00 0.  1.
         13    1    4    4    0    0  0.15371188198E+02 -0.29166755570E+02 -0.16643386320E+02  0.36932037113E+02  0.00000000000E+00 0. -1.
         21    1    1    2  502  501 -0.12743755430E+02 -0.31635063638E+02  0.99380798154E+01  0.35523879071E+02  0.00000000000E+00 0. -1.
<scales pt_clust_5="13000.00000" pt_clust_6="13000.00000" pt_clust_7="13000.00000" pt_clust_8="13000.00000" pt_clust_9="34.10543"></scales>
<clustering>
<clus scale="   34.105">  1  9  2 -1</clus>
<clus scale="   91.537">  7  8 -1 -1</clus>
<clus scale="   92.322">  5  6 -1 -1</clus>
<clus scale="   94.134">  1  7  2 -1</clus>
<clus scale="   34.105">  1  5  2 -1</clus>
</clustering>
</event>
<event>
 9    1  0.1234700E-005  0.1256280E+03  0.7546771E-02  0.1234199E+00
         -1   -1    0    0    0  501 -0.00000000000E+00  0.00000000000E+00  0.23121712657E+03  0.23121712657E+03  0.00000000000E+00 0.  1.
          1   -1    0    0  502    0  0.00000000000E+00 -0.00000000000E+00 -0.40128612010E+03  0.40128612010E+03  0.00000000000E+00 0. -1.
         23    2    1    2    0    0  0.75572755278E+02 -0.10652538363E+02  0.15150061557E+03  0.19416672193E+03  0.94464604339E+02 0.  0.
         23    2    1    2    0    0 -0.11052616549E+03 -0.78770145237E+01 -0.36247026572E+02  0.15028433967E+03  0.94833829410E+02 0.  0.
        -11    1    3    3    0    0  0.95120033711E+02 -0.23102526911E+02  0.12826837758E+03  0.16135155484E+03  0.00000000000E+00 0.  1.
         11    1    3    3    0    0 -0.19547278433E+02  0.12449988548E+02  0.23232237993E+02  0.32815167090E+02  0.00000000000E+00 0. -1.
        -11    1    4    4    0    0 -0.23218345383E+02 -0.28101406912E+01 -0.55946600540E+02  0.60638358858E+02  0.00000000000E+00 0. -1.
         11    1    4    4    0    0 -0.87307820105E+02 -0.50668738325E+01  0.19699573968E+02  0.89645980816E+02  0.00000000000E+00 0.  1.
         21    1    1    2  502  501  0.34953410210E+02  0.18529552886E+02 -0.28532258253E+03  0.28805218506E+03  0.00000000000E+00 0. -1.
<scales pt_clust_5="13000.00000" pt_clust_6="13000.00000" pt_clust_7="13000.00000" pt_clust_8="13000.00000" pt_clust_9="39.56116"></scales>
<clustering>
<clus scale="   39.561">  2  9  1 -1</clus>
<clus scale="   94.465">  5  6 -1 -1</clus>
<clus scale="   94.834">  7  8 -1 -1</clus>
<clus scale="  125.349">  1  5  2 -1</clus>
<clus scale="   39.561">  2  5  1 -1</clus>
</clustering>
</event>
<event>
 9    1  0.1234700E-005  0.1041416E+03  0.7546771E-02  0.1272043E+00
          2   -1    0    0  502    0  0.00000000000E+00  0.00000000000E+00  0.54368446410E+03  0.54368446410E+03  0.00000000000E+00 0. -1.
         -2   -1    0    0    0  501 -0.00000000000E+00 -0.00000000000E+00 -0.30693709768E+02  0.30693709768E+02  0.00000000000E+00 0.  1.
         23    2    1    2    0    0 -0.42345358253E+02  0.70565830251E+01  0.13784807074E+03  0.17106393197E+03  0.91748860959E+02 0.  0.
         23    2    1    2    0    0  0.58665794814E+02  0.24462969520E+02  0.26907107090E+03  0.29146154473E+03  0.92252254736E+02 0.  0.
        -11    1    3    3    0    0 -0.44971294592E+02  0.39228890278E+02  0.51311986056E+02  0.78703513789E+02  0.00000000000E+00 0.  1.
         11    1    3    3    0    0  0.26259363389E+01 -0.32172307253E+02  0.86536084679E+02  0.92360418184E+02  0.00000000000E+00 0. -1.
        -13    1    4    4    0    0  0.44114960853E+01  0.33536762879E+02  0.27174285137E+02  0.43389140748E+02  0.00000000000E+00 0.  1.
         13    1    4    4    0    0  0.54254298728E+02 -0.90737933594E+01  0.24189678576E+03  0.24807240398E+03  0.00000000000E+00 0. -1.
         21    1    1    2  502  501 -0.16320436560E+02 -0.31519552545E+02  0.10607161269E+03  0.11185269716E+03  0.00000000000E+00 0. -1.
<scales pt_clust_5="13000.00000" pt_clust_6="13000.00000" pt_clust_7="13000.00000" pt_clust_8="13000.00000" pt_clust_9="35.49421"></scales>
<clustering>
<clus scale="   35.494">  1  9  2 -1</clus>
<clus scale="   91.749">  5  6 -1 -1</clus>
<clus scale="   92.252">  7  8 -1 -1</clus>
<clus scale="  103.696">  2  5  1 -1</clus>
<clus scale="   35.494">  1  5  2 -1</clus>
</clustering>
</event>
<event>
 9    1  0.1234700E-005  0.1993289E+03  0.7546771E-02  0.1150565E+00
         -1   -1    0    0    0  501 -0.00000000000E+00  0.00000000000E+00  0.35618175417E+03  0.35618175417E+03  0.00000000000E+00 0.  1.
          1   -1    0    0  502    0  0.00000000000E+00 -0.00000000000E+00 -0.36365783273E+03  0.36365783273E+03  0.00000000000E+00 0. -1.
         23    2    1    2    0    0 -0.16797041688E+03 -0.39810090856E+02  0.25963046220E+03  0.32552053346E+03  0.93577435954E+02 0.  0.
         23    2    1    2    0    0  0.18329659333E+03  0.10013320806E+03 -0.20775670176E+03  0.30831804448E+03  0.90955312888E+02 0.  0.
        -11    1    3    3    0    0 -0.91761732862E+02 -0.54068236187E+02  0.20389004000E+03  0.23003203732E+03  0.00000000000E+00 0.  1.
         11    1    3    3    0    0 -0.76208684015E+02  0.14258145331E+02  0.55740422203E+02  0.95488496140E+02  0.00000000000E+00 0. -1.
        -11    1    4    4    0    0  0.32640503560E+02 -0.11268992531E+02 -0.61858075119E+02  0.70843589143E+02  0.00000000000E+00 0.  1.
         11    1    4    4    0    0  0.15065608977E+03  0.11140220059E+03 -0.14589862664E+03  0.23747445533E+03  0.00000000000E+00 0. -1.
         21    1    1    2  502  501 -0.15326176455E+02 -0.60323117200E+02 -0.59349839003E+02  0.86001008966E+02  0.00000000000E+00 0.  1.
<scales pt_clust_5="13000.00000" pt_clust_6="13000.00000" pt_clust_7="13000.00000" pt_clust_8="13000.00000" pt_clust_9="62.23962"></scales>
<clustering>
<clus scale="   62.240">  2  9  1 -1</clus>
<clus scale="   90.955">  7  8 -1 -1</clus>
<clus scale="   93.577">  5  6 -1 -1</clus>
<clus scale="  198.111">  2  7  1 -1</clus>
<clus scale="   62.240">  2  5  1 -1</clus>
</clustering>
</event>
<event>
 9    1  0.1234700E-005  0.9874159E+02  0.7546771E-02  0.1284076E+00
          1   -1    0    0  502    0  0.00000000000E+00  0.00000000000E+00  0.26304922796E+02  0.26304922796E+02  0.00000000000E+00 0. -1.
         -1   -1    0    0    0  501 -0.00000000000E+00 -0.00000000000E+00 -0.83257889190E+03  0.83257889190E+03  0.00000000000E+00 0.  1.
         23    2    1    2    0    0  0.36271358146E+02 -0.10508241911E+01 -0.56109961658E+03  0.56987861302E+03  0.92801606654E+02 0.  0.
         23    2    1    2    0    0 -0.25112224744E+02  0.23755526011E+02 -0.24522513266E+03  0.26370634159E+03  0.90613023680E+02 0.  0.
        -11    1    4    4    0    0 -0.54866744705E+02  0.26532200406E+02 -0.20317610950E+03  0.21211989253E+03  0.00000000000E+00 0.  1.
         11    1    4    4    0    0  0.29754519960E+02 -0.27766743951E+01 -0.42049023157E+02  0.51586449066E+02  0.00000000000E+00 0. -1.
        -13    1    3    3    0    0 -0.93491436205E+01  0.38262852355E+02 -0.21481761229E+03  0.21839885280E+03  0.00000000000E+00 0.  1.
         13    1    3    3    0    0  0.45620501766E+02 -0.39313676546E+02 -0.34628200429E+03  0.35147976021E+03  0.00000000000E+00 0. -1.
         21    1    1    2  502  501 -0.11159133401E+02 -0.22704701820E+02  0.50780134360E-01  0.25298860085E+02  0.00000000000E+00 0.  1.
<scales pt_clust_5="13000.00000" pt_clust_6="13000.00000" pt_clust_7="13000.00000" pt_clust_8="13000.00000" pt_clust_9="25.29881"></scales>
<clustering>
<clus scale="   25.299">  1  9  2 -1</clus>
<clus scale="   90.613">  5  6 -1 -1</clus>
<clus scale="   92.802">  7  8 -1 -1</clus>
<clus scale="   96.688">  1  5  2 -1</clus>
<clus scale="   25.299">  1  5  2 -1</clus>
</clustering>
</event>
<event>
 9    1  0.1234700E-005  0.9447342E+02  0.7546771E-02  0.1293379E+00
         -2   -1    0    0    0  501 -0.00000000000E+00  0.00000000000E+00  0.31080278780E+02  0.31080278780E+02  0.00000000000E+00 0.  1.
          2   -1    0    0  502    0  0.00000000000E+00 -0.00000000000E+00 -0.55965609020E+03  0.55965609020E+03  0.00000000000E+00 0. -1.
         23    2    1    2    0    0  0.96466014591E+00 -0.18709166915E+02 -0.77491378116E+02  0.12138003773E+03  0.91527243928E+02 0.  0.
         23    2    1    2    0    0  0.19413272703E+02  0.36508139473E+02 -0.29925158691E+03  0.31513157054E+03  0.89703261251E+02 0.  0.
        -13    1    4    4    0    0  0.46491432902E+02 -0.50500201591E+01 -0.11086778189E+03  0.12032714198E+03  0.00000000000E+00 0. -1.
         13    1    4    4    0    0 -0.27078160198E+02  0.41558159632E+02 -0.18838380502E+03  0.19480442856E+03  0.00000000000E+00 0.  1.
        -13    1    3    3    0    0 -0.29071973107E+02  0.10679974098E+02 -0.72777452110E+02  0.79093609114E+02  0.00000000000E+00 0. -1.
         13    1    3    3    0    0  0.30036633252E+02 -0.29389141013E+02 -0.47139260053E+01  0.42286428615E+02  0.00000000000E+00 0.  1.
         21    1    1    2  502  501 -0.20377932849E+02 -0.17798972558E+02 -0.15183284640E+03  0.15422476071E+03  0.00000000000E+00 0. -1.
<scales pt_clust_5="13000.00000" pt_clust_6="13000.00000" pt_clust_7="13000.00000" pt_clust_8="13000.00000" pt_clust_9="27.05667"></scales>
<clustering>
<clus scale="   27.057">  2  9  1 -1</clus>
<clus scale="   89.703">  5  6 -1 -1</clus>
<clus scale="   91.527">  7  8 -1 -1</clus>
<clus scale="   92.707">  2  5  1 -1</clus>
<clus scale="   27.057">  2  5  1 -1</clus>
</clustering>
</event>
<event>
 9    1  0.1234700E-005  0.9447116E+02  0.7546771E-02  0.1292444E+00
          1   -1    0    0  502    0  0.00000000000E+00  0.00000000000E+00  0.85727236172E+02  0.85727236172E+02  0.00000000000E+00 0. -1.
         -1   -1    0    0    0  501 -0.00000000000E+00 -0.00000000000E+00 -0.20244858379E+03  0.20244858379E+03  0.00000000000E+00 0.  1.
         23    2    1    2    0    0  0.22220983758E+02 -0.28680052374E+02 -0.98768337448E+02  0.13836462354E+03  0.89851360827E+02 0.  0.
         23    2    1    2    0    0 -0.18553405677E+02  0.85835849425E+01 -0.55056894535E+02  0.10745535423E+03  0.89986025164E+02 0.  0.
        -11    1    3    3    0    0  0.27479382334E+02 -0.54178672946E+02 -0.36496067359E+02  0.70868949395E+02  0.00000000000E+00 0.  1.
         11    1    3    3    0    0 -0.52583985753E+01  0.25498620572E+02 -0.62272270089E+02  0.67495674148E+02  0.00000000000E+00 0. -1.
        -13    1    4    4    0    0  0.90324270513E+01  0.45167958516E+02 -0.22619164957E+02  0.51316233672E+02  0.00000000000E+00 0. -1.
         13    1    4    4    0    0 -0.27585832729E+02 -0.36584373574E+02 -0.32437729579E+02  0.56139120561E+02  0.00000000000E+00 0.  1.
         21    1    1    2  502  501 -0.36675780811E+01  0.20096467432E+02  0.37103884366E+02  0.42355842186E+02  0.00000000000E+00 0. -1.
<scales pt_clust_5="13000.00000" pt_clust_6="13000.00000" pt_clust_7="13000.00000" pt_clust_8="13000.00000" pt_clust_9="20.42839"></scales>
<clustering>
<clus scale="   20.428">  1  9  2 -1</clus>
<clus scale="   89.851">  5  6 -1 -1</clus>
<clus scale="   89.986">  7  8 -1 -1</clus>
<clus scale="   94.343">  2  5  1 -1</clus>
<clus scale="   20.428">  1  5  2 -1</clus>
</clustering>
</event>
<event>
 9    1  0.1234700E-005  0.1044134E+03  0.7546771E-02  0.1275378E+00
         -2   -1    0    0    0  501 -0.00000000000E+00  0.00000000000E+00  0.71168213094E+02  0.71168213094E+02  0.00000000000E+00 0.  1.
          2   -1    0    0  502    0  0.00000000000E+00 -0.00000000000E+00 -0.37409920278E+03  0.37409920278E+03  0.00000000000E+00 0. -1.
         23    2    1    2    0    0  0.16103081585E+02 -0.23480398923E+02  0.32145048698E+01  0.10335034621E+03  0.99299157345E+02 0.  0.
         23    2    1    2    0    0  0.51381860249E+01  0.60361200124E+02 -0.23145691398E+03  0.25595330396E+03  0.90939074884E+02 0.  0.
        -13    1    4    4    0    0 -0.70249784748E+01  0.81798593717E+02 -0.15191876510E+03  0.17268373243E+03  0.00000000000E+00 0. -1.
         13    1    4    4    0    0  0.12163164500E+02 -0.21437393594E+02 -0.79538148879E+02  0.83269571525E+02  0.00000000000E+00 0.  1.
        -13    1    3    3    0    0 -0.24578822952E+01  0.36389546156E+02 -0.12804263388E+02  0.38654746354E+02  0.00000000000E+00 0. -1.
         13    1    3    3    0    0  0.18560963880E+02 -0.59869945079E+02  0.16018768258E+02  0.64695599853E+02  0.00000000000E+00 0.  1.
         21    1    1    2  502  501 -0.21241267610E+02 -0.36880801200E+02 -0.74688580575E+02  0.85963765711E+02  0.00000000000E+00 0.  1.
<scales pt_clust_5="13000.00000" pt_clust_6="13000.00000" pt_clust_7="13000.00000" pt_clust_8="13000.00000" pt_clust_9="42.56037"></scales>
<clustering>
<clus scale="   42.560">  2  9  1 -1</clus>
<clus scale="   90.939">  5  6 -1 -1</clus>
<clus scale="   96.497">  2  5  1 -1</clus>
<clus scale="   99.299">  7  8 -1 -1</clus>
<clus scale="   42.560">  2  5  1 -1</clus>
</clustering>
</event>
<event>
 9    1  0.1234700E-005  0.9605402E+02  0.7546771E-02  0.1295092E+00
          1   -1    0    0  502    0  0.00000000000E+00  0.00000000000E+00  0.16227323554E+03  0.16227323554E+03  0.00000000000E+00 0. -1.
         -1   -1    0    0    0  501 -0.00000000000E+00 -0.00000000000E+00 -0.10836680482E+03  0.10836680482E+03  0.00000000000E+00 0.  1.
         23    2    1    2    0    0 -0.45930735794E+00  0.46589778091E+01 -0.52731795387E+02  0.10008661511E+03  0.84939809523E+02 0.  0.
         23    2    1    2    0    0  0.69748625320E+01 -0.23910358865E+02  0.50726481392E+02  0.11106232231E+03  0.95610195868E+02 0.  0.
        -11    1    4    4    0    0 -0.17538349013E+00  0.25134181443E+02 -0.14595838756E+02  0.29065380527E+02  0.00000000000E+00 0.  1.
         11    1    4    4    0    0  0.71502460222E+01 -0.49044540307E+02  0.65322320148E+02  0.81996941783E+02  0.00000000000E+00 0. -1.
        -11    1    3    3    0    0  0.12037067641E+02  0.27673885946E+02  0.10254353215E+02  0.31872977906E+02  0.00000000000E+00 0.  1.
         11    1    3    3    0    0 -0.12496374999E+02 -0.23014908137E+02 -0.62986148602E+02  0.68213637203E+02  0.00000000000E+00 0. -1.
         21    1    1    2  502  501 -0.65155551741E+01  0.19251381056E+02  0.55911744715E+02  0.59491102938E+02  0.00000000000E+00 0. -1.
<scales pt_clust_5="13000.00000" pt_clust_6="13000.00000" pt_clust_7="13000.00000" pt_clust_8="13000.00000" pt_clust_9="20.32408"></scales>
<clustering>
<clus scale="   20.324">  1  9  2 -1</clus>
<clus scale="   84.940">  7  8 -1 -1</clus>
<clus scale="   85.439">  2  7  1 -1</clus>
<clus scale="   95.610">  5  6 -1 -1</clus>
<clus scale="   20.324">  1  5  2 -1</clus>
</clustering>
</event>
<event>
 9    1  0.1234700E-005  0.1062329E+03  0.7546771E-02  0.1268816E+00
         -1   -1    0    0    0  501 -0.00000000000E+00  0.00000000000E+00  0.52716750755E+02  0.52716750755E+02  0.00000000000E+00 0.  1.
          1   -1    0    0  502    0  0.00000000000E+00 -0.00000000000E+00 -0.34570982267E+03  0.34570982267E+03  0.00000000000E+00 0. -1.
         23    2    1    2    0    0  0.13250926305E+02  0.58373794620E+02 -0.47948828484E+02  0.12013327189E+03  0.92465268704E+02 0.  0.
         23    2    1    2    0    0 -0.30817501489E+01 -0.38562052965E+02 -0.13927460023E+03  0.17020475138E+03  0.89864976549E+02 0.  0.
        -11    1    4    4    0    0  0.20642482215E+02 -0.52771002652E+02 -0.46208946542E+02  0.73117422913E+02  0.00000000000E+00 0.  1.
         11    1    4    4    0    0 -0.23724232364E+02  0.14208949687E+02 -0.93065653687E+02  0.97087328466E+02  0.00000000000E+00 0. -1.
        -13    1    3    3    0    0 -0.29491418690E+02  0.59764938324E+02 -0.35919363355E+02  0.75708601182E+02  0.00000000000E+00 0. -1.
         13    1    3    3    0    0  0.42742344995E+02 -0.13911437037E+01 -0.12029465129E+02  0.44424670711E+02  0.00000000000E+00 0.  1.
         21    1    1    2  502  501 -0.10169176156E+02 -0.19811741655E+02 -0.10576964321E+03  0.10808855016E+03  0.00000000000E+00 0.  1.
<scales pt_clust_5="13000.00000" pt_clust_6="13000.00000" pt_clust_7="13000.00000" pt_clust_8="13000.00000" pt_clust_9="22.26920"></scales>
<clustering>
<clus scale="   22.269">  2  9  1 -1</clus>
<clus scale="   89.865">  5  6 -1 -1</clus>
<clus scale="   92.465">  7  8 -1 -1</clus>
<clus scale="  103.977">  2  5  1 -1</clus>
<clus scale="   22.269">  2  5  1 -1</clus>
</clustering>
</event>
<event>
 9    1  0.1234700E-005  0.1208144E+03  0.7546771E-02  0.1241770E+00
         -1   -1    0    0    0  501 -0.00000000000E+00  0.00000000000E+00  0.10290784807E+03  0.10290784807E+03  0.00000000000E+00 0.  1.
          1   -1    0    0  502    0  0.00000000000E+00 -0.00000000000E+00 -0.17803366306E+03  0.17803366306E+03  0.00000000000E+00 0. -1.
         23    2    1    2    0    0  0.56010315518E+02  0.49422481885E+02 -0.88086890857E+01  0.11845945815E+03  0.91516736514E+02 0.  0.
         23    2    1    2    0    0 -0.50046632548E+02 -0.69958147021E+02 -0.48529813292E+02  0.13466717301E+03  0.91549423513E+02 0.  0.
        -11    1    4    4    0    0 -0.50625975691E+02  0.91168058953E+00 -0.36189716688E+01  0.50763348314E+02  0.00000000000E+00 0. -1.
         11    1    4    4    0    0  0.57934314247E+00 -0.70869827610E+02 -0.44910841623E+02  0.83903824700E+02  0.00000000000E+00 0.  1.
        -11    1    3    3    0    0  0.90612881032E+01 -0.20030845190E+02  0.20093574677E+02  0.29784113960E+02  0.00000000000E+00 0.  1.
         11    1    3    3    0    0  0.46949027415E+02  0.69453327075E+02 -0.28902263763E+02  0.88675344192E+02  0.00000000000E+00 0. -1.
         21    1    1    2  502  501 -0.59636829699E+01  0.20535665136E+02 -0.17787312621E+02  0.27814879964E+02  0.00000000000E+00 0. -1.
<scales pt_clust_5="13000.00000" pt_clust_6="13000.00000" pt_clust_7="13000.00000" pt_clust_8="13000.00000" pt_clust_9="21.38408"></scales>
<clustering>
<clus scale="   21.384">  2  9  1 -1</clus>
<clus scale="   91.517">  7  8 -1 -1</clus>
<clus scale="   91.549">  5  6 -1 -1</clus>
<clus scale="  120.790">  1  7  2 -1</clus>
<clus scale="   21.384">  2  5  1 -1</clus>
</clustering>
</event>
<event>
 9    1  0.1234700E-005  0.1101540E+03  0.7546771E-02  0.1260494E+00
         -4   -1    0    0    0  501 -0.00000000000E+00  0.00000000000E+00  0.15367735533E+03  0.15367735533E+03  0.00000000000E+00 0.  1.
          4   -1    0    0  502    0  0.00000000000E+00 -0.00000000000E+00 -0.26929110264E+03  0.26929110264E+03  0.00000000000E+00 0. -1.
         23    2    1    2    0    0 -0.59137253334E+02  0.22375126859E+02  0.11109800865E+03  0.15706734784E+03  0.91266221549E+02 0.  0.
         23    2    1    2    0    0  0.43936671116E+02  0.61409026140E+01 -0.19782586238E+03  0.22255810050E+03  0.91809011073E+02 0.  0.
        -11    1    4    4    0    0  0.68027813500E+02 -0.59381825265E+01 -0.17270875460E+03  0.18571849487E+03  0.00000000000E+00 0. -1.
         11    1    4    4    0    0 -0.24091142383E+02  0.12079085140E+02 -0.25117107784E+02  0.36839605625E+02  0.00000000000E+00 0.  1.
        -13    1    3    3    0    0  0.89969918387E+01  0.32134263987E+02  0.68301995380E+02  0.76017888401E+02  0.00000000000E+00 0.  1.
         13    1    3    3    0    0 -0.68134245172E+02 -0.97591371279E+01  0.42796013275E+02  0.81049459436E+02  0.00000000000E+00 0. -1.
         21    1    1    2  502  501  0.15200582217E+02 -0.28516029473E+02 -0.28885893582E+02  0.43343009640E+02  0.00000000000E+00 0.  1.
<scales pt_clust_5="13000.00000" pt_clust_6="13000.00000" pt_clust_7="13000.00000" pt_clust_8="13000.00000" pt_clust_9="32.31442"></scales>
<clustering>
<clus scale="   32.314">  2  9  1 -1</clus>
<clus scale="   91.266">  7  8 -1 -1</clus>
<clus scale="   91.809">  5  6 -1 -1</clus>
<clus scale="  109.702">  1  7  2 -1</clus>
<clus scale="   32.314">  2  5  1 -1</clus>
</clustering>
</event>
<event>
 9    1  0.1234700E-005  0.1514942E+03  0.7546771E-02  0.1198967E+00
          2   -1    0    0  502    0  0.00000000000E+00  0.00000000000E+00  0.83496986503E+03  0.83496986503E+03  0.00000000000E+00 0. -1.
         -2   -1    0    0    0  501 -0.00000000000E+00 -0.00000000000E+00 -0.54759790108E+02  0.54759790108E+02  0.00000000000E+00 0.  1.
         23    2    1    2    0    0  0.38035402482E+00 -0.81670740769E+02  0.23636276084E+03  0.26615458830E+03  0.91107933756E+02 0.  0.
         23    2    1    2    0    0  0.57703889756E+02  0.16226001143E+03  0.27168113955E+03  0.33384616513E+03  0.89356422185E+02 0.  0.
        -11    1    3    3    0    0  0.17888375844E+02 -0.46159787568E+02  0.34243838304E+02  0.60194355553E+02  0.00000000000E+00 0.  1.
         11    1    3    3    0    0 -0.17508021819E+02 -0.35510953200E+02  0.20211892253E+03  0.20596023274E+03  0.00000000000E+00 0. -1.
        -13    1    4    4    0    0  0.80894952889E+02  0.10908736095E+03  0.19716643114E+03  0.23941313099E+03  0.00000000000E+00 0.  1.
         13    1    4    4    0    0 -0.23191063133E+02  0.53172650482E+02  0.74514708408E+02  0.94433034144E+02  0.00000000000E+00 0. -1.
         21    1    1    2  502  501 -0.58084243781E+02 -0.80589270666E+02  0.27216617454E+03  0.28972890171E+03  0.00000000000E+00 0. -1.
<scales pt_clust_5="13000.00000" pt_clust_6="13000.00000" pt_clust_7="13000.00000" pt_clust_8="13000.00000" pt_clust_9="99.33987"></scales>
<clustering>
<clus scale="   89.356">  7  8 -1 -1</clus>
<clus scale="   91.108">  5  6 -1 -1</clus>
<clus scale="   99.340">  1  9  2 -1</clus>
<clus scale="  150.447">  1  7  2 -1</clus>
<clus scale="   99.340">  1  5  2 -1</clus>
</clustering>
</event>
<event>
 9    1  0.1234700E-005  0.3473111E+03  0.7546771E-02  0.1063761E+00
         -1   -1    0    0    0  501 -0.00000000000E+00  0.00000000000E+00  0.13757360050E+04  0.13757360050E+04  0.00000000000E+00 0.  1.
          1   -1    0    0  502    0  0.00000000000E+00 -0.00000000000E+00 -0.17102984609E+03  0.17102984609E+03  0.00000000000E+00 0. -1.
         23    2    1    2    0    0 -0.32491760322E+03  0.52291765281E+02  0.77655683628E+03  0.84859347811E+03  0.93618873723E+02 0.  0.
         23    2    1    2    0    0  0.34185720559E+03 -0.31498392537E+02  0.50454552950E+03  0.61720512713E+03  0.92290193762E+02 0.  0.
        -11    1    4    4    0    0  0.90580627163E+02 -0.43958051241E+02  0.10860498367E+03  0.14809524896E+03  0.00000000000E+00 0.  1.
         11    1    4    4    0    0  0.25127657843E+03  0.12459658704E+02  0.39594054584E+03  0.46910987817E+03  0.00000000000E+00 0. -1.
        -13    1    3    3    0    0 -0.26461845057E+03  0.35874665752E+01  0.60140165553E+03  0.65705383765E+03  0.00000000000E+00 0.  1.
         13    1    3    3    0    0 -0.60299152644E+02  0.48704298706E+02  0.17515518075E+03  0.19153964046E+03  0.00000000000E+00 0. -1.
         21    1    1    2  502  501 -0.16939602379E+02 -0.20793372743E+02 -0.76396206861E+02  0.80967245856E+02  0.00000000000E+00 0.  1.
<scales pt_clust_5="13000.00000" pt_clust_6="13000.00000" pt_clust_7="13000.00000" pt_clust_8="13000.00000" pt_clust_9="26.82004"></scales>
<clustering>
<clus scale="   26.820">  2  9  1 -1</clus>
<clus scale="   92.290">  5  6 -1 -1</clus>
<clus scale="   93.619">  7  8 -1 -1</clus>
<clus scale="  346.955">  2  5  1 -1</clus>
<clus scale="   26.820">  2  5  1 -1</clus>
</clustering>
</event>
<event>
 9    1  0.1234700E-005  0.1967269E+03  0.7546771E-02  0.1152561E+00
         -1   -1    0    0    0  501 -0.00000000000E+00  0.00000000000E+00  0.46620438641E+03  0.46620438641E+03  0.00000000000E+00 0.  1.
          1   -1    0    0  502    0  0.00000000000E+00 -0.00000000000E+00 -0.18321844779E+03  0.18321844779E+03  0.00000000000E+00 0. -1.
         23    2    1    2    0    0  0.18971038162E+03 -0.25328638159E+02  0.30189936944E+03  0.36900646633E+03  0.91602260417E+02 0.  0.
         23    2    1    2    0    0 -0.16875489517E+03 -0.33111230490E+02 -0.62267025827E+02  0.20469394808E+03  0.91912249709E+02 0.  0.
        -13    1    3    3    0    0  0.17302744226E+03 -0.10653847009E+02  0.30028148094E+03  0.34672895470E+03  0.00000000000E+00 0.  1.
         13    1    3    3    0    0  0.16682939365E+02 -0.14674791150E+02  0.16178885040E+01  0.22277511628E+02  0.00000000000E+00 0. -1.
        -13    1    4    4    0    0 -0.53845584001E+02 -0.54831132073E+02 -0.35866890552E+02  0.84807038616E+02  0.00000000000E+00 0. -1.
         13    1    4    4    0    0 -0.11490931117E+03  0.21719901584E+02 -0.26400135274E+02  0.11988690947E+03  0.00000000000E+00 0.  1.
         21    1    1    2  502  501 -0.20955486451E+02  0.58439868649E+02  0.43353594998E+02  0.75722419793E+02  0.00000000000E+00 0. -1.
<scales pt_clust_5="13000.00000" pt_clust_6="13000.00000" pt_clust_7="13000.00000" pt_clust_8="13000.00000" pt_clust_9="62.08342"></scales>
<clustering>
<clus scale="   62.083">  1  9  2 -1</clus>
<clus scale="   91.602">  5  6 -1 -1</clus>
<clus scale="   91.912">  7  8 -1 -1</clus>
<clus scale="  196.582">  1  5  2 -1</clus>
<clus scale="  196.727">  2  5  1 -1</clus>
</clustering>
</event>
<event>
 9    1  0.1234700E-005  0.1037066E+03  0.7546771E-02  0.1273961E+00
         -1   -1    0    0    0  501 -0.00000000000E+00  0.00000000000E+00  0.42525120864E+03  0.42525120864E+03  0.00000000000E+00 0.  1.
          1   -1    0    0  502    0  0.00000000000E+00 -0.00000000000E+00 -0.37649994399E+02  0.37649994399E+02  0.00000000000E+00 0. -1.
         23    2    1    2    0    0 -0.98387829086E+01 -0.35927700198E+02  0.19130914541E+03  0.21669035287E+03  0.94699095133E+02 0.  0.
         23    2    1    2    0    0  0.46436923521E+02  0.22420857746E+02  0.11478568018E+03  0.15584963017E+03  0.91947115889E+02 0.  0.
        -11    1    4    4    0    0  0.27935425972E+02  0.52168796152E+01  0.12530187042E+03  0.12848409468E+03  0.00000000000E+00 0.  1.
         11    1    4    4    0    0  0.18501497549E+02  0.17203978131E+02 -0.10516190236E+02  0.27365535481E+02  0.00000000000E+00 0. -1.
        -13    1    3    3    0    0 -0.44708352366E+02  0.57060284898E+01  0.11039468922E+03  0.11924086103E+03  0.00000000000E+00 0.  1.
         13    1    3    3    0    0  0.34869569457E+02 -0.41633728688E+02  0.80914456194E+02  0.97449491840E+02  0.00000000000E+00 0. -1.
         21    1    1    2  502  501 -0.36598140612E+02  0.13506842453E+02  0.81506388648E+02  0.90361219999E+02  0.00000000000E+00 0.  1.
<scales pt_clust_5="13000.00000" pt_clust_6="13000.00000" pt_clust_7="13000.00000" pt_clust_8="13000.00000" pt_clust_9="39.01101"></scales>
<clustering>
<clus scale="   39.011">  1  9  2 -1</clus>
<clus scale="   91.947">  5  6 -1 -1</clus>
<clus scale="   94.699">  7  8 -1 -1</clus>
<clus scale="  101.200">  2  5  1 -1</clus>
<clus scale="  101.200">  2  5  1 -1</clus>
</clustering>
</event>
<event>
 9    1  0.1234700E-005  0.1138031E+03  0.7546771E-02  0.1254776E+00
         -2   -1    0    0    0  501 -0.00000000000E+00  0.00000000000E+00  0.73754247902E+02  0.73754247902E+02  0.00000000000E+00 0.  1.
          2   -1    0    0  502    0  0.00000000000E+00 -0.00000000000E+00 -0.33306657527E+03  0.33306657527E+03  0.00000000000E+00 0. -1.
         23    2    1    2    0    0 -0.22871605116E+02  0.61509727927E+02 -0.12534409857E+01  0.11160231164E+03  0.90260444818E+02 0.  0.
         23    2    1    2    0    0  0.33584548481E+02 -0.78688701942E+02 -0.23232846692E+03  0.26247803522E+03  0.87168622334E+02 0.  0.
        -11    1    4    4    0    0  0.58011435473E+02 -0.57734017838E+02 -0.11729114345E+03  0.14302361970E+03  0.00000000000E+00 0. -1.
         11    1    4    4    0    0 -0.24426886993E+02 -0.20954684104E+02 -0.11503732348E+03  0.11945441552E+03  0.00000000000E+00 0.  1.
        -11    1    3    3    0    0 -0.68587542103E+01  0.35455803834E+02  0.44038860998E+02  0.56952417094E+02  0.00000000000E+00 0.  1.
         11    1    3    3    0    0 -0.16012850906E+02  0.26053924093E+02 -0.45292301984E+02  0.54649894545E+02  0.00000000000E+00 0. -1.
         21    1    1    2  502  501 -0.10712943364E+02  0.17178974015E+02 -0.25730419463E+02  0.32740476317E+02  0.00000000000E+00 0.  1.
<scales pt_clust_5="13000.00000" pt_clust_6="13000.00000" pt_clust_7="13000.00000" pt_clust_8="13000.00000" pt_clust_9="20.24560"></scales>
<clustering>
<clus scale="   20.246">  2  9  1 -1</clus>
<clus scale="   87.169">  5  6 -1 -1</clus>
<clus scale="   90.260">  7  8 -1 -1</clus>
<clus scale="  111.367">  2  5  1 -1</clus>
<clus scale="   20.246">  2  5  1 -1</clus>
</clustering>
</event>
<event>
 9    1  0.1234700E-005  0.1210332E+03  0.7546771E-02  0.1241501E+00
          1   -1    0    0  502    0  0.00000000000E+00  0.00000000000E+00  0.66648216971E+02  0.66648216971E+02  0.00000000000E+00 0. -1.
         -1   -1    0    0    0  501 -0.00000000000E+00 -0.00000000000E+00 -0.36590769358E+03  0.36590769358E+03  0.00000000000E+00 0.  1.
         23    2    1    2    0    0  0.77771562936E+02 -0.42100418377E+02 -0.24748735244E+03  0.27797846183E+03  0.90560335636E+02 0.  0.
         23    2    1    2    0    0 -0.60468356398E+02  0.10433229115E+02 -0.33640767114E+02  0.11419232844E+03  0.90238086562E+02 0.  0.
        -11    1    4    4    0    0 -0.78919135524E+02 -0.12076529393E+02 -0.21712783816E+02  0.82737642552E+02  0.00000000000E+00 0. -1.
         11    1    4    4    0    0  0.18450779126E+02  0.22509758509E+02 -0.11927983297E+02  0.31454685883E+02  0.00000000000E+00 0.  1.
        -13    1    3    3    0    0  0.97201464874E+02 -0.33948022139E+02 -0.22334552728E+03  0.24593457979E+03  0.00000000000E+00 0.  1.
         13    1    3    3    0    0 -0.19429901938E+02 -0.81523962374E+01 -0.24141825169E+02  0.32043882040E+02  0.00000000000E+00 0. -1.
         21    1    1    2  502  501 -0.17303206538E+02  0.31667189261E+02 -0.18131357051E+02  0.40385120289E+02  0.00000000000E+00 0. -1.
<scales pt_clust_5="13000.00000" pt_clust_6="13000.00000" pt_clust_7="13000.00000" pt_clust_8="13000.00000" pt_clust_9="36.08617"></scales>
<clustering>
<clus scale="   36.086">  1  9  2 -1</clus>
<clus scale="   90.238">  5  6 -1 -1</clus>
<clus scale="   90.560">  7  8 -1 -1</clus>
<clus scale="  120.792">  1  5  2 -1</clus>
<clus scale="   36.086">  1  5  2 -1</clus>
</clustering>
</event>
<event>
 9    1  0.1234700E-005  0.1163950E+03  0.7546771E-02  0.1251028E+00
          1   -1    0    0  502    0  0.00000000000E+00  0.00000000000E+00  0.35073519637E+03  0.35073519637E+03  0.00000000000E+00 0. -1.
         -1   -1    0    0    0  501 -0.00000000000E+00 -0.00000000000E+00 -0.18771602784E+03  0.18771602784E+03  0.00000000000E+00 0.  1.
         23    2    1    2    0    0 -0.87657123309E+02 -0.21728972748E+02 -0.11914044871E+03  0.17525909825E+03  0.91462481243E+02 0.  0.
         23    2    1    2    0    0  0.33925023544E+02  0.72090268131E+01  0.19561967657E+02  0.94760583591E+02  0.85988489542E+02 0.  0.
        -11    1    3    3    0    0 -0.19710388992E+02  0.25385932784E+02 -0.24343463893E+01  0.32231522767E+02  0.00000000000E+00 0.  1.
         11    1    3    3    0    0 -0.67946734316E+02 -0.47114905533E+02 -0.11670610233E+03  0.14302757548E+03  0.00000000000E+00 0. -1.
        -11    1    4    4    0    0  0.53526497595E+02 -0.58949238841E+01  0.37084504312E+02  0.65384222351E+02  0.00000000000E+00 0. -1.
         11    1    4    4    0    0 -0.19601474051E+02  0.13103950697E+02 -0.17522536655E+02  0.29376361239E+02  0.00000000000E+00 0.  1.
         21    1    1    2  502  501  0.53732099764E+02  0.14519945935E+02  0.26259764958E+03  0.26843154237E+03  0.00000000000E+00 0. -1.
<scales pt_clust_5="13000.00000" pt_clust_6="13000.00000" pt_clust_7="13000.00000" pt_clust_8="13000.00000" pt_clust_9="55.65939"></scales>
<clustering>
<clus scale="   55.659">  1  9  2 -1</clus>
<clus scale="   85.988">  7  8 -1 -1</clus>
<clus scale="   91.462">  5  6 -1 -1</clus>
<clus scale="  112.145">  1  7  2 -1</clus>
<clus scale="   55.659">  1  5  2 -1</clus>
</clustering>
</event>
<event>
 9    1  0.1234700E-005  0.1000501E+03  0.7546771E-02  0.1280693E+00
         -2   -1    0    0    0  501 -0.00000000000E+00  0.00000000000E+00  0.58427664334E+02  0.58427664334E+02  0.00000000000E+00 0.  1.
          2   -1    0    0  502    0  0.00000000000E+00 -0.00000000000E+00 -0.34267575285E+03  0.34267575285E+03  0.00000000000E+00 0. -1.
         23    2    1    2    0    0 -0.21252440984E+01  0.45636334169E+02 -0.94197180852E+02  0.13866085201E+03  0.90920467124E+02 0.  0.
         23    2    1    2    0    0 -0.59313716604E+02 -0.10245542589E+02 -0.10977900219E+03  0.15534059119E+03  0.91957500132E+02 0.  0.
        -11    1    4    4    0    0  0.20346456318E+02  0.15732130040E+02 -0.20388940734E+02  0.32820528706E+02  0.00000000000E+00 0. -1.
         11    1    4    4    0    0 -0.79660172922E+02 -0.25977672629E+02 -0.89390061452E+02  0.12252006249E+03  0.00000000000E+00 0.  1.
        -13    1    3    3    0    0  0.23246553869E+02 -0.91993195729E+01  0.19806540167E+01  0.25078930155E+02  0.00000000000E+00 0.  1.
         13    1    3    3    0    0 -0.25371797967E+02  0.54835653742E+02 -0.96177834869E+02  0.11358192186E+03  0.00000000000E+00 0. -1.
         21    1    1    2  502  501  0.61438960702E+02 -0.35390791580E+02 -0.80271905475E+02  0.10710197398E+03  0.00000000000E+00 0. -1.
<scales pt_clust_5="13000.00000" pt_clust_6="13000.00000" pt_clust_7="13000.00000" pt_clust_8="13000.00000" pt_clust_9="70.90313"></scales>
<clustering>
<clus scale="   70.903">  2  9  1 -1</clus>
<clus scale="   90.920">  7  8 -1 -1</clus>
<clus scale="   91.958">  5  6 -1 -1</clus>
<clus scale="   99.098">  1  7  2 -1</clus>
<clus scale="   70.903">  2  5  1 -1</clus>
</clustering>
</event>
<event>
 9    1  0.1234700E-005  0.1007308E+03  0.7546771E-02  0.1280058E+00
         -1   -1    0    0    0  501 -0.00000000000E+00  0.00000000000E+00  0.15133791836E+03  0.15133791836E+03  0.00000000000E+00 0.  1.
          1   -1    0    0  502    0  0.00000000000E+00 -0.00000000000E+00 -0.11548141464E+03  0.11548141464E+03  0.00000000000E+00 0. -1.
         23    2    1    2    0    0  0.10372987737E+02 -0.39689005237E+02  0.85981134823E+02  0.13246687969E+03  0.92042939203E+02 0.  0.
         23    2    1    2    0    0 -0.12301886379E+02  0.11217059399E+02 -0.39349571490E+02  0.10384877715E+03  0.94652104617E+02 0.  0.
        -13    1    4    4    0    0 -0.34678359439E+02  0.55090656047E+01  0.19828140017E+02  0.40324850325E+02  0.00000000000E+00 0. -1.
         13    1    4    4    0    0  0.22376473060E+02  0.57079937948E+01 -0.59177711507E+02  0.63523926823E+02  0.00000000000E+00 0.  1.
        -13    1    3    3    0    0 -0.33767162406E+02 -0.40944980324E+02  0.29327420495E+02  0.60636707229E+02  0.00000000000E+00 0.  1.
         13    1    3    3    0    0  0.44140150144E+02  0.12559750870E+01  0.56653714328E+02  0.71830172458E+02  0.00000000000E+00 0. -1.
         21    1    1    2  502  501  0.19288986415E+01  0.28471945837E+02 -0.10775059612E+02  0.30503676162E+02  0.00000000000E+00 0. -1.
<scales pt_clust_5="13000.00000" pt_clust_6="13000.00000" pt_clust_7="13000.00000" pt_clust_8="13000.00000" pt_clust_9="28.53721"></scales>
<clustering>
<clus scale="   28.537">  2  9  1 -1</clus>
<clus scale="   92.043">  7  8 -1 -1</clus>
<clus scale="   94.652">  5  6 -1 -1</clus>
<clus scale="   98.283">  1  7  2 -1</clus>
<clus scale="   28.537">  2  5  1 -1</clus>
</clustering>
</event>
<event>
 9    1  0.1234700E-005  0.1046711E+03  0.7546771E-02  0.1276145E+00
         -2   -1    0    0    0  501 -0.00000000000E+00  0.00000000000E+00  0.24030361964E+03  0.24030361964E+03  0.00000000000E+00 0.  1.
          2   -1    0    0  502    0  0.00000000000E+00 -0.00000000000E+00 -0.25098258144E+03  0.25098258144E+03  0.00000000000E+00 0. -1.
         23    2    1    2    0    0 -0.43268698865E+02  0.24152020669E+02  0.19211163923E+03  0.21803652623E+03  0.90429776302E+02 0.  0.
         23    2    1    2    0    0  0.50991805082E+02 -0.65075434627E+02 -0.69035262775E+02  0.13316090766E+03  0.78300596709E+02 0.  0.
        -13    1    3    3    0    0 -0.50350082217E+02 -0.22130400045E+02  0.86397894385E+02  0.10241816997E+03  0.00000000000E+00 0.  1.
         13    1    3    3    0    0  0.70813833522E+01  0.46282420713E+02  0.10571374484E+03  0.11561835627E+03  0.00000000000E+00 0. -1.
        -13    1    4    4    0    0 -0.19141223979E+02 -0.15023646386E+02 -0.28218531257E+01  0.24496107063E+02  0.00000000000E+00 0.  1.
         13    1    4    4    0    0  0.70133029061E+02 -0.50051788241E+02 -0.66213409650E+02  0.10866480060E+03  0.00000000000E+00 0. -1.
         21    1    1    2  502  501 -0.77231062174E+01  0.40923413959E+02 -0.13375533825E+03  0.14008876718E+03  0.00000000000E+00 0. -1.
<scales pt_clust_5="13000.00000" pt_clust_6="13000.00000" pt_clust_7="13000.00000" pt_clust_8="13000.00000" pt_clust_9="41.64579"></scales>
<clustering>
<clus scale="   41.646">  2  9  1 -1</clus>
<clus scale="   78.301">  7  8 -1 -1</clus>
<clus scale="   90.430">  5  6 -1 -1</clus>
<clus scale="   94.390">  2  7  1 -1</clus>
<clus scale="   41.646">  2  5  1 -1</clus>
</clustering>
</event>
<event>
 9    1  0.1234700E-005  0.2240790E+03  0.7546771E-02  0.1131244E+00
          1   -1    0    0  502    0  0.00000000000E+00  0.00000000000E+00  0.62259196727E+03  0.62259196727E+03  0.00000000000E+00 0. -1.
         -1   -1    0    0    0  501 -0.00000000000E+00 -0.00000000000E+00 -0.10619083136E+03  0.10619083136E+03  0.00000000000E+00 0.  1.
         23    2    1    2    0    0 -0.84917600540E+02  0.18248383845E+03  0.10764824834E+03  0.24536777694E+03  0.90032496430E+02 0.  0.
         23    2    1    2    0    0  0.58745289645E+02 -0.19915411444E+03  0.37904502110E+03  0.44045637541E+03  0.84931267913E+02 0.  0.
        -11    1    4    4    0    0  0.28554098859E+02 -0.11948550245E+03  0.13780537348E+03  0.18461430827E+03  0.00000000000E+00 0.  1.
         11    1    4    4    0    0  0.30191190786E+02 -0.79668611985E+02  0.24123964762E+03  0.25584206714E+03  0.00000000000E+00 0. -1.
        -13    1    3    3    0    0 -0.35673978363E+02  0.16360363721E+03  0.76265959201E+02  0.18399804176E+03  0.00000000000E+00 0.  1.
         13    1    3    3    0    0 -0.49243622177E+02  0.18880201241E+02  0.31382289144E+02  0.61369735179E+02  0.00000000000E+00 0. -1.
         21    1    1    2  502  501  0.26172310895E+02  0.16670275991E+02  0.29707866476E+02  0.42958646275E+02  0.00000000000E+00 0.  1.
<scales pt_clust_5="13000.00000" pt_clust_6="13000.00000" pt_clust_7="13000.00000" pt_clust_8="13000.00000" pt_clust_9="31.03044"></scales>
<clustering>
<clus scale="   31.030">  2  9  1 -1</clus>
<clus scale="   84.931">  5  6 -1 -1</clus>
<clus scale="   90.032">  7  8 -1 -1</clus>
<clus scale="  222.079">  1  5  2 -1</clus>
<clus scale="  222.079">  1  5  2 -1</clus>
</clustering>
</event>
<event>
 9    1  0.1234700E-005  0.9710384E+02  0.7546771E-02  0.1288498E+00
         -2   -1    0    0    0  501 -0.00000000000E+00  0.00000000000E+00  0.34715012350E+02  0.34715012350E+02  0.00000000000E+00 0.  1.
          2   -1    0    0  502    0  0.00000000000E+00 -0.00000000000E+00 -0.54934899617E+03  0.54934899617E+03  0.00000000000E+00 0. -1.
         23    2    1    2    0    0 -0.43877134461E+02 -0.94899167553E+00 -0.10345569479E+03  0.14273742970E+03  0.88004485911E+02 0.  0.
         23    2    1    2    0    0  0.58521508399E+01  0.31697703800E+02 -0.17580471645E+03  0.20092670080E+03  0.91789153365E+02 0.  0.
        -11    1    4    4    0    0  0.36922209991E+02  0.14665370658E+02 -0.27178066778E+02  0.48134914573E+02  0.00000000000E+00 0.  1.
         11    1    4    4    0    0 -0.31070059151E+02  0.17032333141E+02 -0.14862664967E+03  0.15279178623E+03  0.00000000000E+00 0. -1.
        -11    1    3    3    0    0 -0.22572510226E+02  0.43250630279E+02 -0.58681532360E+02  0.76312891949E+02  0.00000000000E+00 0.  1.
         11    1    3    3    0    0 -0.21304624235E+02 -0.44199621955E+02 -0.44774162428E+02  0.66424537754E+02  0.00000000000E+00 0. -1.
         21    1    1    2  502  501  0.38024983621E+02 -0.30748712124E+02 -0.23537357259E+03  0.24039987802E+03  0.00000000000E+00 0. -1.
<scales pt_clust_5="13000.00000" pt_clust_6="13000.00000" pt_clust_7="13000.00000" pt_clust_8="13000.00000" pt_clust_9="48.90177"></scales>
<clustering>
<clus scale="   48.902">  2  9  1 -1</clus>
<clus scale="   88.004">  7  8 -1 -1</clus>
<clus scale="   91.789">  5  6 -1 -1</clus>
<clus scale="   93.534">  1  7  2 -1</clus>
<clus scale="   48.902">  2  5  1 -1</clus>
</clustering>
</event>
<event>
 9    1  0.1234700E-005  0.1356890E+03  0.7546771E-02  0.1219487E+00
          1   -1    0    0  502    0  0.00000000000E+00  0.00000000000E+00  0.32856030930E+03  0.32856030930E+03  0.00000000000E+00 0. -1.
         -1   -1    0    0    0  501 -0.00000000000E+00 -0.00000000000E+00 -0.39574718759E+03  0.39574718759E+03  0.00000000000E+00 0.  1.
         23    2    1    2    0    0 -0.68839853653E+02 -0.70582226710E+02 -0.33189663075E+03  0.35813771569E+03  0.91577692267E+02 0.  0.
         23    2    1    2    0    0  0.55993919643E+02  0.10259911982E+03  0.61661763929E+02  0.16021205469E+03  0.90575001576E+02 0.  0.
        -13    1    3    3    0    0 -0.71355631087E+02 -0.16780368776E+02 -0.24655707072E+03  0.25722285277E+03  0.00000000000E+00 0.  1.
         13    1    3    3    0    0  0.25157774335E+01 -0.53801857934E+02 -0.85339560029E+02  0.10091486292E+03  0.00000000000E+00 0. -1.
        -13    1    4    4    0    0  0.65633821819E+02  0.34672909208E+02  0.52672780297E+02  0.91018849607E+02  0.00000000000E+00 0.  1.
         13    1    4    4    0    0 -0.96399021757E+01  0.67926210614E+02  0.89889836316E+01  0.69193205079E+02  0.00000000000E+00 0. -1.
         21    1    1    2  502  501  0.12845934011E+02 -0.32016893112E+02  0.20304798853E+03  0.20595772652E+03  0.00000000000E+00 0. -1.
<scales pt_clust_5="13000.00000" pt_clust_6="13000.00000" pt_clust_7="13000.00000" pt_clust_8="13000.00000" pt_clust_9="34.49782"></scales>
<clustering>
<clus scale="   34.498">  1  9  2 -1</clus>
<clus scale="   90.575">  7  8 -1 -1</clus>
<clus scale="   91.578">  5  6 -1 -1</clus>
<clus scale="  135.014">  1  7  2 -1</clus>
<clus scale="   34.498">  1  5  2 -1</clus>
</clustering>
</event>
<event>
 9    1  0.1234700E-005  0.2760350E+03  0.7546771E-02  0.1098002E+00
         -1   -1    0    0    0  501 -0.00000000000E+00  0.00000000000E+00  0.49189497831E+03  0.49189497831E+03  0.00000000000E+00 0.  1.
          1   -1    0    0  502    0  0.00000000000E+00 -0.00000000000E+00 -0.27140518726E+03  0.27140518726E+03  0.00000000000E+00 0. -1.
         23    2    1    2    0    0  0.24283605447E+03 -0.15710448716E+03  0.29774409350E+03  0.42437016598E+03  0.88245811933E+02 0.  0.
         23    2    1    2    0    0 -0.22589305219E+03  0.11501673847E+03 -0.10107312195E+03  0.28768763354E+03  0.91059746068E+02 0.  0.
        -11    1    4    4    0    0 -0.36462188299E+02  0.32305344293E+02 -0.59411554841E+02  0.76830067643E+02  0.00000000000E+00 0.  1.
         11    1    4    4    0    0 -0.18943086389E+03  0.82711394179E+02 -0.41661567113E+02  0.21085756590E+03  0.00000000000E+00 0. -1.
        -13    1    3    3    0    0  0.18456772904E+03 -0.11856310664E+03  0.27308902145E+03  0.35028569839E+03  0.00000000000E+00 0.  1.
         13    1    3    3    0    0  0.58268325430E+02 -0.38541380522E+02  0.24655072054E+02  0.74084467596E+02  0.00000000000E+00 0. -1.
         21    1    1    2  502  501 -0.16943002276E+02  0.42087748690E+02  0.23818819502E+02  0.51242366050E+02  0.00000000000E+00 0.  1.
<scales pt_clust_5="13000.00000" pt_clust_6="13000.00000" pt_clust_7="13000.00000" pt_clust_8="13000.00000" pt_clust_9="45.37008"></scales>
<clustering>
<clus scale="   45.370">  1  9  2 -1</clus>
<clus scale="   88.246">  7  8 -1 -1</clus>
<clus scale="   91.060">  5  6 -1 -1</clus>
<clus scale="  275.120">  1  7  2 -1</clus>
<clus scale="  276.035">  2  5  1 -1</clus>
</clustering>
</event>
<event>
 9    1  0.1234700E-005  0.1273947E+03  0.7546771E-02  0.1235115E+00
          2   -1    0    0  502    0  0.00000000000E+00  0.00000000000E+00  0.22670324338E+03  0.22670324338E+03  0.00000000000E+00 0. -1.
         -2   -1    0    0    0  501 -0.00000000000E+00 -0.00000000000E+00 -0.10691750346E+03  0.10691750346E+03  0.00000000000E+00 0.  1.
         23    2    1    2    0    0 -0.14377025397E+01 -0.85092055385E+02 -0.20796685693E+02  0.12496531621E+03  0.89112867996E+02 0.  0.
         23    2    1    2    0    0  0.22374235394E+02  0.55468571368E+02  0.11290499498E+03  0.16302726630E+03  0.10125701381E+03 0.  0.
        -11    1    3    3    0    0 -0.26697611368E+02 -0.92989495760E+02 -0.17010734127E+02  0.98230208439E+02  0.00000000000E+00 0.  1.
         11    1    3    3    0    0  0.25259908828E+02  0.78974403754E+01 -0.37859515663E+01  0.26735107775E+02  0.00000000000E+00 0. -1.
        -13    1    4    4    0    0  0.57764199851E+02  0.10211652979E+02  0.44085212668E+02  0.73379061162E+02  0.00000000000E+00 0.  1.
         13    1    4    4    0    0 -0.35389964456E+02  0.45256918388E+02  0.68819782314E+02  0.89648205135E+02  0.00000000000E+00 0. -1.
         21    1    1    2  502  501 -0.20936532854E+02  0.29623484017E+02  0.27677430633E+02  0.45628164325E+02  0.00000000000E+00 0. -1.
<scales pt_clust_5="13000.00000" pt_clust_6="13000.00000" pt_clust_7="13000.00000" pt_clust_8="13000.00000" pt_clust_9="36.27519"></scales>
<clustering>
<clus scale="   36.275">  1  9  2 -1</clus>
<clus scale="   89.113">  5  6 -1 -1</clus>
<clus scale="  101.257">  7  8 -1 -1</clus>
<clus scale="  117.973">  2  5  1 -1</clus>
<clus scale="   36.275">  1  5  2 -1</clus>
</clustering>
</event>
<event>
 9    1  0.1234700E-005  0.1021810E+03  0.7546771E-02  0.1276451E+00
          1   -1    0    0  502    0  0.00000000000E+00  0.00000000000E+00  0.28924489156E+03  0.28924489156E+03  0.00000000000E+00 0. -1.
         -1   -1    0    0    0  501 -0.00000000000E+00 -0.00000000000E+00 -0.71953489462E+02  0.71953489462E+02  0.00000000000E+00 0.  1.
         23    2    1    2    0    0  0.31236624546E+02 -0.28879310397E+02 -0.22910693760E+00  0.10121018782E+03  0.91835223890E+02 0.  0.
         23    2    1    2    0    0 -0.20663156396E+02  0.50644393039E+02  0.12166036358E+03  0.16112118891E+03  0.90371305566E+02 0.  0.
        -11    1    3    3    0    0  0.88683938342E+01 -0.27302558563E+02 -0.43706446438E+02  0.52290836420E+02  0.00000000000E+00 0.  1.
         11    1    3    3    0    0  0.22368230712E+02 -0.15767518341E+01  0.43477339500E+02  0.48919351402E+02  0.00000000000E+00 0. -1.
        -11    1    4    4    0    0  0.24796772202E+02  0.47569121032E+02  0.92790692247E+02  0.10718121923E+03  0.00000000000E+00 0.  1.
         11    1    4    4    0    0 -0.45459928599E+02  0.30752720073E+01  0.28869671333E+02  0.53939969679E+02  0.00000000000E+00 0. -1.
         21    1    1    2  502  501 -0.10573468150E+02 -0.21765082642E+02  0.95860145459E+02  0.98867004296E+02  0.00000000000E+00 0.  1.
<scales pt_clust_5="13000.00000" pt_clust_6="13000.00000" pt_clust_7="13000.00000" pt_clust_8="13000.00000" pt_clust_9="24.19746"></scales>
<clustering>
<clus scale="   24.197">  1  9  2 -1</clus>
<clus scale="   90.371">  7  8 -1 -1</clus>
<clus scale="   91.835">  5  6 -1 -1</clus>
<clus scale="  100.867">  1  7  2 -1</clus>
<clus scale="   24.197">  1  5  2 -1</clus>
</clustering>
</event>
<event>
 9    1  0.1234700E-005  0.9816472E+02  0.7546771E-02  0.1284696E+00
          1   -1    0    0  502    0  0.00000000000E+00  0.00000000000E+00  0.11366142164E+03  0.11366142164E+03  0.00000000000E+00 0. -1.
         -1   -1    0    0    0  501 -0.00000000000E+00 -0.00000000000E+00 -0.26433311545E+03  0.26433311545E+03  0.00000000000E+00 0.  1.
         23    2    1    2    0    0  0.22697044454E+02 -0.29440467791E+02 -0.16239890894E+03  0.19018669278E+03  0.91736990998E+02 0.  0.
         23    2    1    2    0    0  0.33770994615E+02  0.46985363060E+02 -0.34195057250E+02  0.11293917338E+03  0.90762605321E+02 0.  0.
        -11    1    3    3    0    0  0.43180242214E+02 -0.40670099715E+02 -0.15455226876E+03  0.16554453813E+03  0.00000000000E+00 0.  1.
         11    1    3    3    0    0 -0.20483197760E+02  0.11229631924E+02 -0.78466401811E+01  0.24642154649E+02  0.00000000000E+00 0. -1.
        -13    1    4    4    0    0  0.32896402406E+01  0.32566724379E+02  0.27420700587E+02  0.42700211830E+02  0.00000000000E+00 0. -1.
         13    1    4    4    0    0  0.30481354375E+02  0.14418638681E+02 -0.61615757837E+02  0.70238961551E+02  0.00000000000E+00 0.  1.
         21    1    1    2  502  501 -0.56468039070E+02 -0.17544895269E+02  0.45922272378E+02  0.74868670929E+02  0.00000000000E+00 0.  1.
<scales pt_clust_5="13000.00000" pt_clust_6="13000.00000" pt_clust_7="13000.00000" pt_clust_8="13000.00000" pt_clust_9="59.13090"></scales>
<clustering>
<clus scale="   59.131">  1  9  2 -1</clus>
<clus scale="   90.763">  7  8 -1 -1</clus>
<clus scale="   91.737">  5  6 -1 -1</clus>
<clus scale="   97.255">  1  7  2 -1</clus>
<clus scale="   59.131">  1  5  2 -1</clus>
</clustering>
</event>
<event>
 9    1  0.1234700E-005  0.1290197E+03  0.7546771E-02  0.1236094E+00
         -1   -1    0    0    0  501 -0.00000000000E+00  0.00000000000E+00  0.29620438294E+03  0.29620438294E+03  0.00000000000E+00 0.  1.
          1   -1    0    0  502    0  0.00000000000E+00 -0.00000000000E+00 -0.14641241629E+03  0.14641241629E+03  0.00000000000E+00 0. -1.
         23    2    1    2    0    0  0.10902918255E+02  0.67116616529E+02  0.18779173560E+03  0.22562859973E+03  0.10497149714E+03 0.  0.
         23    2    1    2    0    0 -0.56191696516E+02 -0.82849968762E+02  0.30759522899E+02  0.13316426482E+03  0.82249310603E+02 0.  0.
        -11    1    3    3    0    0 -0.38048395485E+02 -0.43278910473E+01  0.63109183880E+02  0.73818562231E+02  0.00000000000E+00 0.  1.
         11    1    3    3    0    0  0.48951313740E+02  0.71444507577E+02  0.12468255172E+03  0.15181003749E+03  0.00000000000E+00 0. -1.
        -13    1    4    4    0    0 -0.76334790681E+02 -0.77018969197E+02  0.28147245038E+02  0.11203209044E+03  0.00000000000E+00 0.  1.
         13    1    4    4    0    0  0.20143094165E+02 -0.58309995650E+01  0.26122778605E+01  0.21132174382E+02  0.00000000000E+00 0. -1.
         21    1    1    2  502  501  0.45288778261E+02  0.15733352233E+02 -0.68759291857E+02  0.83823934682E+02  0.00000000000E+00 0. -1.
<scales pt_clust_5="13000.00000" pt_clust_6="13000.00000" pt_clust_7="13000.00000" pt_clust_8="13000.00000" pt_clust_9="47.94384"></scales>
<clustering>
<clus scale="   47.944">  2  9  1 -1</clus>
<clus scale="   82.249">  7  8 -1 -1</clus>
<clus scale="  104.971">  5  6 -1 -1</clus>
<clus scale="  111.319">  2  7  1 -1</clus>
<clus scale="   47.944">  2  5  1 -1</clus>
</clustering>
</event>
<event>
 9    1  0.1234700E-005  0.1648211E+03  0.7546771E-02  0.1183519E+00
          2   -1    0    0  502    0  0.00000000000E+00  0.00000000000E+00  0.12802959854E+03  0.12802959854E+03  0.00000000000E+00 0. -1.
         -2   -1    0    0    0  501 -0.00000000000E+00 -0.00000000000E+00 -0.39793368891E+03  0.39793368891E+03  0.00000000000E+00 0.  1.
         23    2    1    2    0    0 -0.17886844292E+02  0.14430788493E+03 -0.27504247842E+03  0.32447102998E+03  0.92132402058E+02 0.  0.
         23    2    1    2    0    0  0.50296933169E+02 -0.10554414287E+03 -0.10575539270E+02  0.14857752350E+03  0.91071899499E+02 0.  0.
        -11    1    3    3    0    0 -0.28685773583E+02  0.14406225117E+02 -0.10752187398E+03  0.11221125751E+03  0.00000000000E+00 0.  1.
         11    1    3    3    0    0  0.10798929291E+02  0.12990165981E+03 -0.16752060444E+03  0.21225977246E+03  0.00000000000E+00 0. -1.
        -11    1    4    4    0    0  0.72594947939E+01 -0.54460402407E+02 -0.47170628194E+02  0.72413423198E+02  0.00000000000E+00 0.  1.
         11    1    4    4    0    0  0.43037438375E+02 -0.51083740464E+02  0.36595088924E+02  0.76164100304E+02  0.00000000000E+00 0. -1.
         21    1    1    2  502  501 -0.32410088877E+02 -0.38763742059E+02  0.15713927324E+02  0.52914733972E+02  0.00000000000E+00 0.  1.
<scales pt_clust_5="13000.00000" pt_clust_6="13000.00000" pt_clust_7="13000.00000" pt_clust_8="13000.00000" pt_clust_9="50.52763"></scales>
<clustering>
<clus scale="   50.528">  1  9  2 -1</clus>
<clus scale="   91.072">  7  8 -1 -1</clus>
<clus scale="   92.132">  5  6 -1 -1</clus>
<clus scale="  164.231">  1  7  2 -1</clus>
<clus scale="   50.528">  1  5  2 -1</clus>
</clustering>
</event>
<event>
 9    1  0.1234700E-005  0.1036487E+03  0.7546771E-02  0.1272842E+00
         -2   -1    0    0    0  501 -0.00000000000E+00  0.00000000000E+00  0.19781041742E+03  0.19781041742E+03  0.00000000000E+00 0.  1.
          2   -1    0    0  502    0  0.00000000000E+00 -0.00000000000E+00 -0.93452081852E+02  0.93452081852E+02  0.00000000000E+00 0. -1.
         23    2    1    2    0    0  0.31008657907E+02  0.56023774830E+02  0.10299374039E+03  0.15182922510E+03  0.91346608161E+02 0.  0.
         23    2    1    2    0    0 -0.17942126976E+02 -0.17897845738E+02  0.16949638296E+02  0.96221999393E+02  0.91264068101E+02 0.  0.
        -11    1    4    4    0    0 -0.77152277763E-01  0.34573045724E+02  0.21324810903E+02  0.40620795206E+02  0.00000000000E+00 0.  1.
         11    1    4    4    0    0 -0.17864974699E+02 -0.52470891461E+02 -0.43751726076E+01  0.55601204187E+02  0.00000000000E+00 0. -1.
        -13    1    3    3    0    0 -0.28593953315E+02  0.31171371205E+01  0.12839427975E+02  0.31498914596E+02  0.00000000000E+00 0. -1.
         13    1    3    3    0    0  0.59602611222E+02  0.52906637709E+02  0.90154312417E+02  0.12033031050E+03  0.00000000000E+00 0.  1.
         21    1    1    2  502  501 -0.13066530931E+02 -0.38125929092E+02 -0.15585043115E+02  0.43211274786E+02  0.00000000000E+00 0. -1.
<scales pt_clust_5="13000.00000" pt_clust_6="13000.00000" pt_clust_7="13000.00000" pt_clust_8="13000.00000" pt_clust_9="40.30286"></scales>
<clustering>
<clus scale="   40.303">  2  9  1 -1</clus>
<clus scale="   91.264">  5  6 -1 -1</clus>
<clus scale="   91.347">  7  8 -1 -1</clus>
<clus scale="  103.576">  2  5  1 -1</clus>
<clus scale="   40.303">  2  5  1 -1</clus>
</clustering>
</event>
<event>
 9    1  0.1234700E-005  0.9431967E+02  0.7546771E-02  0.1292933E+00
         -1   -1    0    0    0  501 -0.00000000000E+00  0.00000000000E+00  0.22846055277E+02  0.22846055277E+02  0.00000000000E+00 0.  1.
          1   -1    0    0  502    0  0.00000000000E+00 -0.00000000000E+00 -0.83155826690E+03  0.83155826690E+03  0.00000000000E+00 0. -1.
         23    2    1    2    0    0 -0.38417659544E+02  0.70714270551E+01 -0.17027548191E+03  0.19743412319E+03  0.91981365599E+02 0.  0.
         23    2    1    2    0    0 -0.93330584182E+01  0.18784495910E+02 -0.30514306660E+03  0.31928199117E+03  0.91590040557E+02 0.  0.
        -13    1    3    3    0    0  0.23053048043E+02 -0.43535115358E+00 -0.10482129966E+03  0.10732724452E+03  0.00000000000E+00 0. -1.
         13    1    3    3    0    0 -0.61470707587E+02  0.75067782087E+01 -0.65454182251E+02  0.90106878674E+02  0.00000000000E+00 0.  1.
        -13    1    4    4    0    0 -0.37228361910E+02 -0.16301475360E+02 -0.80122542432E+02  0.89840474371E+02  0.00000000000E+00 0.  1.
         13    1    4    4    0    0  0.27895303492E+02  0.35085971270E+02 -0.22502052416E+03  0.22944151680E+03  0.00000000000E+00 0. -1.
         21    1    1    2  502  501  0.47750717962E+02 -0.25855922965E+02 -0.33329366312E+03  0.33768820781E+03  0.00000000000E+00 0.  1.
<scales pt_clust_5="13000.00000" pt_clust_6="13000.00000" pt_clust_7="13000.00000" pt_clust_8="13000.00000" pt_clust_9="54.30156"></scales>
<clustering>
<clus scale="   54.302">  2  9  1 -1</clus>
<clus scale="   91.590">  7  8 -1 -1</clus>
<clus scale="   91.981">  5  6 -1 -1</clus>
<clus scale="   93.938">  2  7  1 -1</clus>
<clus scale="   54.302">  2  5  1 -1</clus>
</clustering>
</event>
<event>
 9    1  0.1234700E-005  0.2771260E+03  0.7546771E-02  0.1097460E+00
         -2   -1    0    0    0  501 -0.00000000000E+00  0.00000000000E+00  0.16287115153E+03  0.16287115153E+03  0.00000000000E+00 0.  1.
          2   -1    0    0  502    0  0.00000000000E+00 -0.00000000000E+00 -0.99985975727E+03  0.99985975727E+03  0.00000000000E+00 0. -1.
         23    2    1    2    0    0  0.30109923549E+03 -0.23088470307E+02 -0.69127328145E+02  0.32277079346E+03  0.90601161909E+02 0.  0.
         23    2    1    2    0    0 -0.25071575742E+03  0.43198038441E+02 -0.71667973354E+03  0.76537834784E+03  0.86311721899E+02 0.  0.
        -11    1    3    3    0    0  0.25879646762E+03  0.13783588413E+02 -0.56431047372E+02  0.26523586121E+03  0.00000000000E+00 0.  1.
         11    1    3    3    0    0  0.42302767867E+02 -0.36872058720E+02 -0.12696280773E+02  0.57534932249E+02  0.00000000000E+00 0. -1.
        -13    1    4    4    0    0 -0.14134655823E+03  0.71495754012E+01 -0.50435259573E+03  0.52383347237E+03  0.00000000000E+00 0.  1.
         13    1    4    4    0    0 -0.10936919919E+03  0.36048463040E+02 -0.21232713781E+03  0.24154487548E+03  0.00000000000E+00 0. -1.
         21    1    1    2  502  501 -0.50383478068E+02 -0.20109568133E+02 -0.51181544055E+02  0.74581767507E+02  0.00000000000E+00 0. -1.
<scales pt_clust_5="13000.00000" pt_clust_6="13000.00000" pt_clust_7="13000.00000" pt_clust_8="13000.00000" pt_clust_9="54.24841"></scales>
<clustering>
<clus scale="   54.248">  1  9  2 -1</clus>
<clus scale="   86.312">  7  8 -1 -1</clus>
<clus scale="   90.601">  5  6 -1 -1</clus>
<clus scale="  275.753">  2  7  1 -1</clus>
<clus scale="  275.753">  2  5  1 -1</clus>
</clustering>
</event>
<event>
 9    1  0.1234700E-005  0.2716251E+03  0.7546771E-02  0.1141720E+00
         -1   -1    0    0    0  501 -0.00000000000E+00  0.00000000000E+00  0.15709712810E+03  0.15709712810E+03  0.00000000000E+00 0.  1.
          1   -1    0    0  502    0  0.00000000000E+00 -0.00000000000E+00 -0.82412642788E+03  0.82412642788E+03  0.00000000000E+00 0. -1.
         23    2    1    2    0    0 -0.25409482405E+03  0.48083971363E+01 -0.48908521570E+03  0.55874161439E+03  0.91654476931E+02 0.  0.
         23    2    1    2    0    0  0.32166345699E+00  0.33537691931E+02 -0.12898775428E+03  0.16120055723E+03  0.90680199879E+02 0.  0.
        -11    1    3    3    0    0 -0.13724789259E+03  0.43150831312E+02 -0.21972900026E+03  0.26264008037E+03  0.00000000000E+00 0.  1.
         11    1    3    3    0    0 -0.11684693146E+03 -0.38342434176E+02 -0.26935621544E+03  0.29610153402E+03  0.00000000000E+00 0. -1.
        -11    1    4    4    0    0 -0.48208832921E+01  0.64540529816E+02 -0.94544785505E+02  0.11457502944E+03  0.00000000000E+00 0.  1.
         11    1    4    4    0    0  0.51425467491E+01 -0.31002837884E+02 -0.34442968777E+02  0.46625527795E+02  0.00000000000E+00 0. -1.
         21    1    1    2  502  501  0.25377316060E+03 -0.38346089068E+02 -0.48956329800E+02  0.26128138436E+03  0.00000000000E+00 0.  1.
<scales pt_clust_5="13000.00000" pt_clust_6="13000.00000" pt_clust_7="13000.00000" pt_clust_8="13000.00000" pt_clust_9="255.69448"></scales>
<clustering>
<clus scale="   90.680">  7  8 -1 -1</clus>
<clus scale="   91.654">  5  6 -1 -1</clus>
<clus scale="   96.684">  2  7  1 -1</clus>
<clus scale="  255.694">  1  9  2 -1</clus>
<clus scale="   96.684">  2  5  1 -1</clus>
</clustering>
</event>
<event>
 9    1  0.1234700E-005  0.1421840E+03  0.7546771E-02  0.1210458E+00
         -1   -1    0    0    0  501 -0.00000000000E+00  0.00000000000E+00  0.69981554097E+02  0.69981554097E+02  0.00000000000E+00 0.  1.
          1   -1    0    0  502    0  0.00000000000E+00 -0.00000000000E+00 -0.40122699088E+03  0.40122699088E+03  0.00000000000E+00 0. -1.
         23    2    1    2    0    0  0.99389870342E+02  0.19459495031E+02 -0.69398358133E+02  0.15416389117E+03  0.93238162544E+02 0.  0.
         23    2    1    2    0    0 -0.11513007341E+03 -0.31833182244E+02 -0.19280637846E+03  0.24515946472E+03  0.93062227946E+02 0.  0.
        -13    1    3    3    0    0  0.19835847906E+02  0.46026118918E+02 -0.92794048439E+01  0.50970303502E+02  0.00000000000E+00 0. -1.
         13    1    3    3    0    0  0.79554022435E+02 -0.26566623888E+02 -0.60118953289E+02  0.10319358766E+03  0.00000000000E+00 0.  1.
        -13    1    4    4    0    0 -0.32427558004E+02 -0.98009606400E+01 -0.14122381041E+03  0.14523005878E+03  0.00000000000E+00 0.  1.
         13    1    4    4    0    0 -0.82702515409E+02 -0.22032221605E+02 -0.51582568048E+02  0.99929405933E+02  0.00000000000E+00 0. -1.
         21    1    1    2  502  501  0.15740203071E+02  0.12373687214E+02 -0.69040700196E+02  0.71885189097E+02  0.00000000000E+00 0.  1.
<scales pt_clust_5="13000.00000" pt_clust_6="13000.00000" pt_clust_7="13000.00000" pt_clust_8="13000.00000" pt_clust_9="20.02154"></scales>
<clustering>
<clus scale="   20.022">  2  9  1 -1</clus>
<clus scale="   93.062">  7  8 -1 -1</clus>
<clus scale="   93.238">  5  6 -1 -1</clus>
<clus scale="  142.069">  2  7  1 -1</clus>
<clus scale="   20.022">  2  5  1 -1</clus>
</clustering>
</event>
<event>
 9    1  0.1234700E-005  0.1276530E+03  0.7546771E-02  0.1231697E+00
          1   -1    0    0  502    0  0.00000000000E+00  0.00000000000E+00  0.47041517483E+03  0.47041517483E+03  0.00000000000E+00 0. -1.
         -1   -1    0    0    0  501 -0.00000000000E+00 -0.00000000000E+00 -0.45650895321E+02  0.45650895321E+02  0.00000000000E+00 0.  1.
         23    2    1    2    0    0 -0.16909240999E+02  0.92209076069E+02  0.11995175188E+03  0.17823682849E+03  0.92690388437E+02 0.  0.
         23    2    1    2    0    0 -0.40768749790E+01 -0.79037272215E+02  0.23658277543E+03  0.26523989971E+03  0.90095968052E+02 0.  0.
        -11    1    4    4    0    0 -0.38199304534E+02 -0.59612986991E+02  0.19763944231E+03  0.20993866781E+03  0.00000000000E+00 0.  1.
         11    1    4    4    0    0  0.34122429555E+02 -0.19424285224E+02  0.38943333118E+02  0.55301231899E+02  0.00000000000E+00 0. -1.
        -13    1    3    3    0    0  0.34772385855E+02  0.13755668331E+02  0.41294548287E+02  0.55709756305E+02  0.00000000000E+00 0.  1.
         13    1    3    3    0    0 -0.51681626854E+02  0.78453407737E+02  0.78657203595E+02  0.12252707218E+03  0.00000000000E+00 0. -1.
         21    1    1    2  502  501  0.20986115978E+02 -0.13171803854E+02  0.68229752199E+02  0.72589341957E+02  0.00000000000E+00 0. -1.
<scales pt_clust_5="13000.00000" pt_clust_6="13000.00000" pt_clust_7="13000.00000" pt_clust_8="13000.00000" pt_clust_9="24.77728"></scales>
<clustering>
<clus scale="   24.777">  1  9  2 -1</clus>
<clus scale="   90.096">  5  6 -1 -1</clus>
<clus scale="   92.690">  7  8 -1 -1</clus>
<clus scale="  125.782">  1  5  2 -1</clus>
<clus scale="   24.777">  1  5  2 -1</clus>
</clustering>
</event>
<event>
 9    1  0.1234700E-005  0.1001586E+03  0.7546771E-02  0.1293673E+00
         -2   -1    0    0    0  501 -0.00000000000E+00  0.00000000000E+00  0.47234101558E+02  0.47234101558E+02  0.00000000000E+00 0.  1.
          2   -1    0    0  502    0  0.00000000000E+00 -0.00000000000E+00 -0.46813405286E+03  0.46813405286E+03  0.00000000000E+00 0. -1.
         23    2    1    2    0    0 -0.21206327974E+02  0.50764873633E+02 -0.41507536646E+02  0.11467255244E+03  0.91652266443E+02 0.  0.
         23    2    1    2    0    0  0.18203343277E+02 -0.80330653766E+01 -0.12521198277E+03  0.14293075311E+03  0.65994452125E+02 0.  0.
        -13    1    4    4    0    0  0.21653673879E+02  0.24750598859E+02 -0.83655455527E+02  0.89887201402E+02  0.00000000000E+00 0.  1.
         13    1    4    4    0    0 -0.34503306020E+01 -0.32783664235E+02 -0.41556527238E+02  0.53043551711E+02  0.00000000000E+00 0. -1.
        -13    1    3    3    0    0 -0.11721711821E+02 -0.20979573983E+02  0.98082163242E+01  0.25956543683E+02  0.00000000000E+00 0. -1.
         13    1    3    3    0    0 -0.94846161526E+01  0.71744447616E+02 -0.51315752970E+02  0.88716008759E+02  0.00000000000E+00 0.  1.
         21    1    1    2  502  501  0.30029846965E+01 -0.42731808256E+02 -0.25418043189E+03  0.25776484887E+03  0.00000000000E+00 0. -1.
<scales pt_clust_5="13000.00000" pt_clust_6="13000.00000" pt_clust_7="13000.00000" pt_clust_8="13000.00000" pt_clust_9="42.83720"></scales>
<clustering>
<clus scale="   42.837">  2  9  1 -1</clus>
<clus scale="   65.994">  5  6 -1 -1</clus>
<clus scale="   77.375">  2  5  1 -1</clus>
<clus scale="   91.652">  7  8 -1 -1</clus>
<clus scale="   42.837">  2  5  1 -1</clus>
</clustering>
</event>
<event>
 9    1  0.1234700E-005  0.9223735E+02  0.7546771E-02  0.1298225E+00
         -2   -1    0    0    0  501 -0.00000000000E+00  0.00000000000E+00  0.21329628218E+03  0.21329628218E+03  0.00000000000E+00 0.  1.
          2   -1    0    0  502    0  0.00000000000E+00 -0.00000000000E+00 -0.12434686664E+03  0.12434686664E+03  0.00000000000E+00 0. -1.
         23    2    1    2    0    0  0.80425784445E+01  0.66803670673E+01  0.80214523003E+02  0.12132088497E+03  0.90416132728E+02 0.  0.
         23    2    1    2    0    0  0.97763817212E+01  0.28941158475E+02  0.86050830688E+02  0.12935006877E+03  0.91616191443E+02 0.  0.
        -11    1    3    3    0    0  0.33825062601E+02 -0.30312308595E+02  0.33853260040E+02  0.56648160850E+02  0.00000000000E+00 0.  1.
         11    1    3    3    0    0 -0.25782484156E+02  0.36992675662E+02  0.46361262963E+02  0.64672724122E+02  0.00000000000E+00 0. -1.
        -13    1    4    4    0    0 -0.33331377484E+02 -0.57723814914E+01  0.99681771997E+01  0.35265644326E+02  0.00000000000E+00 0. -1.
         13    1    4    4    0    0  0.43107759205E+02  0.34713539966E+02  0.76082653488E+02  0.94084424441E+02  0.00000000000E+00 0.  1.
         21    1    1    2  502  501 -0.17818960166E+02 -0.35621525542E+02 -0.77315938157E+02  0.86972195076E+02  0.00000000000E+00 0. -1.
<scales pt_clust_5="13000.00000" pt_clust_6="13000.00000" pt_clust_7="13000.00000" pt_clust_8="13000.00000" pt_clust_9="39.82974"></scales>
<clustering>
<clus scale="   39.830">  2  9  1 -1</clus>
<clus scale="   90.416">  5  6 -1 -1</clus>
<clus scale="   91.045">  1  5  2 -1</clus>
<clus scale="   91.616">  7  8 -1 -1</clus>
<clus scale="   39.830">  2  5  1 -1</clus>
</clustering>
</event>
<event>
 9    1  0.1234700E-005  0.3399547E+03  0.7546771E-02  0.1066836E+00
         -2   -1    0    0    0  501 -0.00000000000E+00  0.00000000000E+00  0.25262629651E+03  0.25262629651E+03  0.00000000000E+00 0.  1.
          2   -1    0    0  502    0  0.00000000000E+00 -0.00000000000E+00 -0.52669937657E+03  0.52669937657E+03  0.00000000000E+00 0. -1.
         23    2    1    2    0    0  0.11860368636E+03 -0.29307134027E+03 -0.67367702543E+02  0.33591336813E+03  0.91333119075E+02 0.  0.
         23    2    1    2    0    0 -0.11308421951E+03  0.32359637137E+03 -0.16492725585E+03  0.39137718711E+03  0.92045915736E+02 0.  0.
        -11    1    3    3    0    0  0.32699512342E+02 -0.42590392315E+02 -0.45195870947E+02  0.70184516637E+02  0.00000000000E+00 0. -1.
         11    1    3    3    0    0  0.85904174020E+02 -0.25048094795E+03 -0.22171831596E+02  0.26572885150E+03  0.00000000000E+00 0.  1.
        -13    1    4    4    0    0 -0.10456206641E+03  0.21481257806E+03 -0.14778005132E+03  0.28092100846E+03  0.00000000000E+00 0. -1.
         13    1    4    4    0    0 -0.85221531031E+01  0.10878379330E+03 -0.17147204532E+02  0.11045617865E+03  0.00000000000E+00 0.  1.
         21    1    1    2  502  501 -0.55194668483E+01 -0.30525031101E+02 -0.41778121668E+02  0.52035117835E+02  0.00000000000E+00 0. -1.
<scales pt_clust_5="13000.00000" pt_clust_6="13000.00000" pt_clust_7="13000.00000" pt_clust_8="13000.00000" pt_clust_9="31.02003"></scales>
<clustering>
<clus scale="   31.020">  2  9  1 -1</clus>
<clus scale="   91.333">  5  6 -1 -1</clus>
<clus scale="   92.046">  7  8 -1 -1</clus>
<clus scale="  339.762">  1  5  2 -1</clus>
<clus scale="   31.020">  2  5  1 -1</clus>
</clustering>
</event>
