<event>
 9    1  0.1671478E-005  0.1653043E+03  0.7546771E-02  0.1187162E+00
         -1   -1    0    0    0  501 -0.00000000000E+00  0.00000000000E+00  0.12270009565E+04  0.12270009565E+04  0.00000000000E+00 0.  1.
         21   -1    0    0  501  502  0.00000000000E+00 -0.00000000000E+00 -0.19449158624E+03  0.19449158624E+03  0.00000000000E+00 0.  1.
         23    2    1    2    0    0  0.11283444655E+03  0.59554416325E+01  0.73744881784E+03  0.75099349909E+03  0.85984865681E+02 0.  0.
         23    2    1    2    0    0 -0.14788139868E+03 -0.34998398408E+02  0.46133541560E+03  0.49810672279E+03  0.11039087660E+03 0.  0.
        -11    1    3    3    0    0  0.10902430103E+03  0.33516835271E+02  0.60392748936E+03  0.61460400981E+03  0.00000000000E+00 0. -1.
         11    1    3    3    0    0  0.38101455155E+01 -0.27561393639E+02  0.13352132848E+03  0.13638948929E+03  0.00000000000E+00 0.  1.
        -11    1    4    4    0    0 -0.93953067676E+02 -0.51062502341E+02  0.40344219428E+03  0.41737292940E+03  0.00000000000E+00 0.  1.
         11    1    4    4    0    0 -0.53928331008E+02  0.16064103932E+02  0.57893221320E+02  0.80733793390E+02  0.00000000000E+00 0. -1.
         -1    1    1    2    0  502  0.35046952134E+02  0.29042956776E+02 -0.16627486315E+03  0.17239232090E+03  0.00000000000E+00 0.  1.
<scales pt_clust_5="13000.00000" pt_clust_6="13000.00000" pt_clust_7="13000.00000" pt_clust_8="13000.00000" pt_clust_9="45.51683"></scales>
<clustering>
<clus scale="   45.517">  2  9  1 -1</clus>
<clus scale="   85.985">  5  6 -1 -1</clus>
<clus scale="  110.391">  7  8 -1 -1</clus>
<clus scale="  150.109">  1  5  2 -1</clus>
<clus scale="   45.517">  2  5  1 -1</clus>
</clustering>
</event>
<event>
 9    1  0.1671478E-005  0.9628977E+02  0.7546771E-02  0.1289249E+00
         21   -1    0    0  501  502  0.00000000000E+00  0.00000000000E+00  0.46329101076E+03  0.46329101076E+03  0.00000000000E+00 0. -1.
         -3   -1    0    0    0  501 -0.00000000000E+00 -0.00000000000E+00 -0.53626318001E+02  0.53626318001E+02  0.00000000000E+00 0.  1.
         23    2    1    2    0    0 -0.22992615118E+02 -0.12753460336E+02  0.10966090001E+02  0.97186234622E+02  0.92917156486E+02 0.  0.
         23    2    1    2    0    0  0.65466679454E+00  0.32718039322E+02  0.34391466111E+03  0.35729033332E+03  0.91149270268E+02 0.  0.
        -11    1    4    4    0    0 -0.44536447952E+02  0.24744220359E+02  0.17867932770E+03  0.18580116734E+03  0.00000000000E+00 0.  1.
         11    1    4    4    0    0  0.45191114747E+02  0.79738189630E+01  0.16523533342E+03  0.17148916598E+03  0.00000000000E+00 0. -1.
        -13    1    3    3    0    0 -0.59610625503E+01  0.40087731625E+02 -0.33331620459E+00  0.40529885187E+02  0.00000000000E+00 0.  1.
         13    1    3    3    0    0 -0.17031552567E+02 -0.52841191961E+02  0.11299406206E+02  0.56656349435E+02  0.00000000000E+00 0. -1.
         -3    1    1    2    0  502  0.22337948323E+02 -0.19964578986E+02  0.54783941647E+02  0.62440760820E+02  0.00000000000E+00 0.  1.
<scales pt_clust_5="13000.00000" pt_clust_6="13000.00000" pt_clust_7="13000.00000" pt_clust_8="13000.00000" pt_clust_9="29.95945"></scales>
<clustering>
<clus scale="   29.959">  1  9  2 -1</clus>
<clus scale="   91.149">  5  6 -1 -1</clus>
<clus scale="   92.917">  7  8 -1 -1</clus>
<clus scale="   94.585">  1  5  2 -1</clus>
<clus scale="   29.959">  1  5  2 -1</clus>
</clustering>
</event>
<event>
 9    1  0.1671478E-005  0.9001798E+02  0.7546771E-02  0.1303356E+00
         21   -1    0    0  501  502  0.00000000000E+00  0.00000000000E+00  0.40312211745E+02  0.40312211745E+02  0.00000000000E+00 0.  1.
          1   -1    0    0  502    0 -0.00000000000E+00 -0.00000000000E+00 -0.29964386896E+03  0.29964386896E+03  0.00000000000E+00 0. -1.
         23    2    1    2    0    0  0.48089112080E+01 -0.82730155368E+01 -0.14145355269E+03  0.16789650655E+03  0.89936427169E+02 0.  0.
         23    2    1    2    0    0  0.25978195013E+01 -0.17931388712E+02 -0.11196637672E+03  0.14419420160E+03  0.89034908272E+02 0.  0.
        -11    1    4    4    0    0  0.13504286213E+02  0.30671616476E+02 -0.75054620416E+02  0.82196775175E+02  0.00000000000E+00 0. -1.
         11    1    4    4    0    0 -0.10906466712E+02 -0.48603005188E+02 -0.36911756305E+02  0.61997426423E+02  0.00000000000E+00 0.  1.
        -13    1    3    3    0    0 -0.38894688735E+02  0.13537184949E+02 -0.56737224892E+02  0.70108236866E+02  0.00000000000E+00 0.  1.
         13    1    3    3    0    0  0.43703599943E+02 -0.21810200486E+02 -0.84716327797E+02  0.97788269688E+02  0.00000000000E+00 0. -1.
          1    1    1    2  501    0 -0.74067307093E+01  0.26204404249E+02 -0.59117278042E+01  0.27865372552E+02  0.00000000000E+00 0. -1.
<scales pt_clust_5="13000.00000" pt_clust_6="13000.00000" pt_clust_7="13000.00000" pt_clust_8="13000.00000" pt_clust_9="27.23106"></scales>
<clustering>
<clus scale="   27.231">  1  9  2 -1</clus>
<clus scale="   89.035">  5  6 -1 -1</clus>
<clus scale="   89.117">  1  5  2 -1</clus>
<clus scale="   89.936">  7  8 -1 -1</clus>
<clus scale="   27.231">  1  5  2 -1</clus>
</clustering>
</event>
<event>
 9    1  0.1671478E-005  0.1280452E+03  0.7546771E-02  0.1231152E+00
          1   -1    0    0  502    0 -0.00000000000E+00  0.00000000000E+00  0.10493251630E+04  0.10493251630E+04  0.00000000000E+00 0. -1.
         21   -1    0    0  501  502  0.00000000000E+00 -0.00000000000E+00 -0.52932184021E+02  0.52932184021E+02  0.00000000000E+00 0. -1.
         23    2    1    2    0    0  0.10256568256E+03 -0.40818026758E+02  0.71996153809E+03  0.73379429791E+03  0.89014744641E+02 0.  0.
         23    2    1    2    0    0 -0.56764376032E+02 -0.52947563043E+02  0.21773826348E+03  0.24873571479E+03  0.91836080128E+02 0.  0.
        -11    1    3    3    0    0  0.33301548615E+02  0.28487167097E+02  0.22367128985E+03  0.22792401745E+03  0.00000000000E+00 0.  1.
         11    1    3    3    0    0  0.69264133946E+02 -0.69305193855E+02  0.49629024824E+03  0.50587028046E+03  0.00000000000E+00 0. -1.
        -11    1    4    4    0    0 -0.77832343417E+02 -0.45817337328E+02  0.13048966577E+03  0.15869673895E+03  0.00000000000E+00 0.  1.
         11    1    4    4    0    0  0.21067967385E+02 -0.71302257152E+01  0.87248597708E+02  0.90038975841E+02  0.00000000000E+00 0. -1.
          1    1    1    2  501    0 -0.45801306528E+02  0.93765589801E+02  0.58693177424E+02  0.11972733433E+03  0.00000000000E+00 0. -1.
<scales pt_clust_5="13000.00000" pt_clust_6="13000.00000" pt_clust_7="13000.00000" pt_clust_8="13000.00000" pt_clust_9="104.35394"></scales>
<clustering>
<clus scale="   89.015">  5  6 -1 -1</clus>
<clus scale="   91.836">  7  8 -1 -1</clus>
<clus scale="  104.354">  2  9  1 -1</clus>
<clus scale="  126.037">  1  5  2 -1</clus>
<clus scale="  104.354">  2  5  1 -1</clus>
</clustering>
</event>
<event>
 9    1  0.1671478E-005  0.1251184E+03  0.7546771E-02  0.1235108E+00
         21   -1    0    0  501  502  0.00000000000E+00  0.00000000000E+00  0.42950578890E+03  0.42950578890E+03  0.00000000000E+00 0. -1.
         -3   -1    0    0    0  501 -0.00000000000E+00 -0.00000000000E+00 -0.46886431466E+02  0.46886431466E+02  0.00000000000E+00 0.  1.
         23    2    1    2    0    0  0.71326970827E+02  0.28105549856E+02  0.13696445047E+03  0.18077820177E+03  0.89688565844E+02 0.  0.
         23    2    1    2    0    0 -0.86638519219E+02 -0.52211243263E+02  0.20787231819E+03  0.24825314885E+03  0.90479159518E+02 0.  0.
        -13    1    4    4    0    0 -0.65851001960E+02  0.96350569333E+01  0.75301929601E+02  0.10049661379E+03  0.00000000000E+00 0.  1.
         13    1    4    4    0    0 -0.20787517258E+02 -0.61846300196E+02  0.13257038859E+03  0.14775653506E+03  0.00000000000E+00 0. -1.
        -13    1    3    3    0    0  0.45171760349E+01  0.47982901159E+02  0.52532001393E+02  0.71290776776E+02  0.00000000000E+00 0.  1.
         13    1    3    3    0    0  0.66809794792E+02 -0.19877351304E+02  0.84432449077E+02  0.10948742500E+03  0.00000000000E+00 0. -1.
         -3    1    1    2    0  502  0.15311548392E+02  0.24105693407E+02  0.37782588774E+02  0.47360869748E+02  0.00000000000E+00 0.  1.
<scales pt_clust_5="13000.00000" pt_clust_6="13000.00000" pt_clust_7="13000.00000" pt_clust_8="13000.00000" pt_clust_9="28.55746"></scales>
<clustering>
<clus scale="   28.557">  1  9  2 -1</clus>
<clus scale="   89.689">  7  8 -1 -1</clus>
<clus scale="   90.479">  5  6 -1 -1</clus>
<clus scale="  124.548">  2  7  1 -1</clus>
<clus scale="   28.557">  1  5  2 -1</clus>
</clustering>
</event>
<event>
 9    1  0.1671478E-005  0.2014342E+03  0.7546771E-02  0.1148564E+00
         21   -1    0    0  501  502  0.00000000000E+00  0.00000000000E+00  0.63076982271E+03  0.63076982271E+03  0.00000000000E+00 0.  1.
          1   -1    0    0  502    0 -0.00000000000E+00 -0.00000000000E+00 -0.90402972957E+02  0.90402972957E+02  0.00000000000E+00 0. -1.
         23    2    1    2    0    0 -0.17072744750E+03  0.59233543405E+01  0.13937939755E+03  0.23858813891E+03  0.91185174856E+02 0.  0.
         23    2    1    2    0    0  0.19155773820E+03 -0.35332511058E+02  0.26141522908E+03  0.33843471753E+03  0.90870141594E+02 0.  0.
        -13    1    4    4    0    0  0.15392424261E+03 -0.33318373537E+02  0.13800948061E+03  0.20940249095E+03  0.00000000000E+00 0. -1.
         13    1    4    4    0    0  0.37633495588E+02 -0.20141375210E+01  0.12340574847E+03  0.12903222658E+03  0.00000000000E+00 0.  1.
        -13    1    3    3    0    0 -0.10748808600E+03  0.27275686062E+02  0.38031116222E+02  0.11723488168E+03  0.00000000000E+00 0.  1.
         13    1    3    3    0    0 -0.63239361498E+02 -0.21352331722E+02  0.10134828133E+03  0.12135325723E+03  0.00000000000E+00 0. -1.
          1    1    1    2  501    0 -0.20830290704E+02  0.29409156718E+02  0.13957222312E+03  0.14414993921E+03  0.00000000000E+00 0. -1.
<scales pt_clust_5="13000.00000" pt_clust_6="13000.00000" pt_clust_7="13000.00000" pt_clust_8="13000.00000" pt_clust_9="36.03886"></scales>
<clustering>
<clus scale="   36.039">  1  9  2 -1</clus>
<clus scale="   90.870">  5  6 -1 -1</clus>
<clus scale="   91.185">  7  8 -1 -1</clus>
<clus scale="  201.292">  1  5  2 -1</clus>
<clus scale="   36.039">  1  5  2 -1</clus>
</clustering>
</event>
<event>
 9    1  0.1671478E-005  0.1003821E+03  0.7546771E-02  0.1281961E+00
         21   -1    0    0  501  502  0.00000000000E+00  0.00000000000E+00  0.23949459645E+03  0.23949459645E+03  0.00000000000E+00 0.  1.
         -4   -1    0    0    0  501 -0.00000000000E+00 -0.00000000000E+00 -0.76557714827E+02  0.76557714827E+02  0.00000000000E+00 0.  1.
         23    2    1    2    0    0  0.91471825560E+01 -0.35018719766E+02  0.65102278723E+01  0.97136656177E+02  0.89906424818E+02 0.  0.
         23    2    1    2    0    0  0.26492281579E+02  0.28902383417E+02  0.67173007410E+02  0.12261511326E+03  0.94789579196E+02 0.  0.
        -13    1    4    4    0    0  0.53282373559E+02  0.43637129216E+02  0.31795326156E+02  0.75856134516E+02  0.00000000000E+00 0. -1.
         13    1    4    4    0    0 -0.26790091980E+02 -0.14734745799E+02  0.35377681254E+02  0.46758978742E+02  0.00000000000E+00 0.  1.
        -13    1    3    3    0    0 -0.95308518113E+00  0.28371841016E+02  0.15461532621E+02  0.32325357307E+02  0.00000000000E+00 0. -1.
         13    1    3    3    0    0  0.10100267737E+02 -0.63390560782E+02 -0.89513047489E+01  0.64811298870E+02  0.00000000000E+00 0.  1.
         -4    1    1    2    0  502 -0.35639464135E+02  0.61163363481E+01  0.89253646336E+02  0.96300541839E+02  0.00000000000E+00 0.  1.
<scales pt_clust_5="13000.00000" pt_clust_6="13000.00000" pt_clust_7="13000.00000" pt_clust_8="13000.00000" pt_clust_9="36.16049"></scales>
<clustering>
<clus scale="   36.160">  1  9  2 -1</clus>
<clus scale="   89.906">  7  8 -1 -1</clus>
<clus scale="   94.790">  5  6 -1 -1</clus>
<clus scale="   95.785">  2  7  1 -1</clus>
<clus scale="   36.160">  1  5  2 -1</clus>
</clustering>
</event>
<event>
 9    1  0.1671478E-005  0.1113855E+03  0.7546771E-02  0.1259673E+00
          1   -1    0    0  502    0 -0.00000000000E+00  0.00000000000E+00  0.23612610572E+03  0.23612610572E+03  0.00000000000E+00 0. -1.
         21   -1    0    0  501  502  0.00000000000E+00 -0.00000000000E+00 -0.16652370095E+03  0.16652370095E+03  0.00000000000E+00 0.  1.
         23    2    1    2    0    0 -0.20496966337E+02  0.65662903586E+02  0.18530179783E+03  0.21608603671E+03  0.87319393300E+02 0.  0.
         23    2    1    2    0    0 -0.11848728194E+02 -0.36025158881E+02 -0.61063625635E+02  0.11649446892E+03  0.91673281175E+02 0.  0.
        -11    1    4    4    0    0  0.20261801648E+02 -0.54292298536E+02 -0.53322032852E+02  0.78749180782E+02  0.00000000000E+00 0.  1.
         11    1    4    4    0    0 -0.32110529842E+02  0.18267139655E+02 -0.77415927831E+01  0.37745288139E+02  0.00000000000E+00 0. -1.
        -13    1    3    3    0    0  0.34392286470E+01  0.76517117997E+02  0.94968478205E+02  0.12200700592E+03  0.00000000000E+00 0.  1.
         13    1    3    3    0    0 -0.23936194984E+02 -0.10854214411E+02  0.90333319623E+02  0.94079030793E+02  0.00000000000E+00 0. -1.
          1    1    1    2  501    0  0.32345694531E+02 -0.29637744705E+02 -0.54635767420E+02  0.70069301034E+02  0.00000000000E+00 0. -1.
<scales pt_clust_5="13000.00000" pt_clust_6="13000.00000" pt_clust_7="13000.00000" pt_clust_8="13000.00000" pt_clust_9="43.87072"></scales>
<clustering>
<clus scale="   43.871">  2  9  1 -1</clus>
<clus scale="   87.319">  7  8 -1 -1</clus>
<clus scale="   91.673">  5  6 -1 -1</clus>
<clus scale="  107.830">  1  7  2 -1</clus>
<clus scale="   43.871">  2  5  1 -1</clus>
</clustering>
</event>
<event>
 9    1  0.1671478E-005  0.1041007E+03  0.7546771E-02  0.1272329E+00
         21   -1    0    0  501  502  0.00000000000E+00  0.00000000000E+00  0.46711676109E+02  0.46711676109E+02  0.00000000000E+00 0.  1.
          2   -1    0    0  502    0 -0.00000000000E+00 -0.00000000000E+00 -0.62243041867E+03  0.62243041867E+03  0.00000000000E+00 0. -1.
         23    2    1    2    0    0 -0.16427634919E+02 -0.45533266023E+02 -0.42890203379E+03  0.44097324274E+03  0.90317776313E+02 0.  0.
         23    2    1    2    0    0  0.40315058148E+02  0.49206913463E+02 -0.39358912656E+02  0.11802675010E+03  0.91293841454E+02 0.  0.
        -13    1    4    4    0    0 -0.41623672487E+01  0.56602191784E+02 -0.45209721824E+02  0.72560680560E+02  0.00000000000E+00 0. -1.
         13    1    4    4    0    0  0.44477425397E+02 -0.73952783219E+01  0.58508091688E+01  0.45466069539E+02  0.00000000000E+00 0.  1.
        -13    1    3    3    0    0 -0.27711404246E+02  0.21082578578E+02 -0.15461053222E+03  0.15848284992E+03  0.00000000000E+00 0.  1.
         13    1    3    3    0    0  0.11283769327E+02 -0.66615844602E+02 -0.27429150157E+03  0.28249039282E+03  0.00000000000E+00 0. -1.
          2    1    1    2  501    0 -0.23887423229E+02 -0.36736474392E+01 -0.10745779612E+03  0.11014210194E+03  0.00000000000E+00 0. -1.
<scales pt_clust_5="13000.00000" pt_clust_6="13000.00000" pt_clust_7="13000.00000" pt_clust_8="13000.00000" pt_clust_9="24.16827"></scales>
<clustering>
<clus scale="   24.168">  1  9  2 -1</clus>
<clus scale="   90.318">  7  8 -1 -1</clus>
<clus scale="   91.294">  5  6 -1 -1</clus>
<clus scale="  103.246">  2  7  1 -1</clus>
<clus scale="   24.168">  1  5  2 -1</clus>
</clustering>
</event>
<event>
 9    1  0.1671478E-005  0.2241957E+03  0.7546771E-02  0.1130795E+00
          1   -1    0    0  502    0 -0.00000000000E+00  0.00000000000E+00  0.13758359060E+04  0.13758359060E+04  0.00000000000E+00 0. -1.
         21   -1    0    0  501  502  0.00000000000E+00 -0.00000000000E+00 -0.47715623284E+02  0.47715623284E+02  0.00000000000E+00 0. -1.
         23    2    1    2    0    0 -0.42069892420E+02  0.22566370073E+03  0.81518037844E+03  0.85174337816E+03  0.90850157725E+02 0.  0.
         23    2    1    2    0    0  0.34397981825E+02 -0.17201209357E+03  0.42196533189E+03  0.46591326937E+03  0.90824290638E+02 0.  0.
        -11    1    3    3    0    0  0.11977514376E+02  0.68062365439E+02  0.13760123406E+03  0.15398066779E+03  0.00000000000E+00 0.  1.
         11    1    3    3    0    0 -0.54047406796E+02  0.15760133529E+03  0.67757914439E+03  0.69776271036E+03  0.00000000000E+00 0. -1.
        -11    1    4    4    0    0 -0.20894199681E+02 -0.38372981005E+02  0.47752709897E+02  0.64725377975E+02  0.00000000000E+00 0.  1.
         11    1    4    4    0    0  0.55292181506E+02 -0.13363911256E+03  0.37421262199E+03  0.40118789140E+03  0.00000000000E+00 0. -1.
          1    1    1    2  501    0  0.76719105951E+01 -0.53651607159E+02  0.90974572387E+02  0.10589488176E+03  0.00000000000E+00 0. -1.
<scales pt_clust_5="13000.00000" pt_clust_6="13000.00000" pt_clust_7="13000.00000" pt_clust_8="13000.00000" pt_clust_9="54.19735"></scales>
<clustering>
<clus scale="   54.197">  2  9  1 -1</clus>
<clus scale="   90.824">  7  8 -1 -1</clus>
<clus scale="   90.850">  5  6 -1 -1</clus>
<clus scale="  224.185">  2  7  1 -1</clus>
<clus scale="   54.197">  2  5  1 -1</clus>
</clustering>
</event>
<event>
 9    1  0.1671478E-005  0.1190809E+03  0.7546771E-02  0.1245596E+00
          2   -1    0    0  502    0 -0.00000000000E+00  0.00000000000E+00  0.85489965236E+02  0.85489965236E+02  0.00000000000E+00 0. -1.
         21   -1    0    0  501  502  0.00000000000E+00 -0.00000000000E+00 -0.25106374496E+03  0.25106374496E+03  0.00000000000E+00 0.  1.
         23    2    1    2    0    0 -0.40010295739E+02 -0.81736559910E+02 -0.37460816880E+02  0.13497328931E+03  0.92373086102E+02 0.  0.
         23    2    1    2    0    0  0.32973684370E+02  0.49561846931E+02 -0.53387853984E+02  0.11991912069E+03  0.89368294276E+02 0.  0.
        -11    1    4    4    0    0 -0.30521856689E+02  0.86545122995E+01 -0.18426846543E+02  0.36688322289E+02  0.00000000000E+00 0.  1.
         11    1    4    4    0    0  0.63495541059E+02  0.40907334631E+02 -0.34961007441E+02  0.83230798400E+02  0.00000000000E+00 0. -1.
        -11    1    3    3    0    0 -0.60054683345E+02 -0.46069265821E+02  0.51950129255E+01  0.75867848291E+02  0.00000000000E+00 0.  1.
         11    1    3    3    0    0  0.20044387606E+02 -0.35667294089E+02 -0.42655829806E+02  0.59105441024E+02  0.00000000000E+00 0. -1.
          2    1    1    2  501    0  0.70366113690E+01  0.32174712980E+02 -0.74725108858E+02  0.81661300190E+02  0.00000000000E+00 0. -1.
<scales pt_clust_5="13000.00000" pt_clust_6="13000.00000" pt_clust_7="13000.00000" pt_clust_8="13000.00000" pt_clust_9="32.93518"></scales>
<clustering>
<clus scale="   32.935">  2  9  1 -1</clus>
<clus scale="   89.368">  5  6 -1 -1</clus>
<clus scale="   92.373">  7  8 -1 -1</clus>
<clus scale="  116.765">  2  5  1 -1</clus>
<clus scale="   32.935">  2  5  1 -1</clus>
</clustering>
</event>
<event>
 9    1  0.3398014E-005  0.9834276E+02  0.7546771E-02  0.1284880E+00
          2   -1    0    0  502    0 -0.00000000000E+00  0.00000000000E+00  0.69087167948E+03  0.69087167948E+03  0.00000000000E+00 0. -1.
         21   -1    0    0  501  502  0.00000000000E+00 -0.00000000000E+00 -0.19735262134E+03  0.19735262134E+03  0.00000000000E+00 0. -1.
         23    2    1    2    0    0  0.31031032553E+02  0.53921913562E+02  0.46027299709E+03  0.47257833178E+03  0.87227003131E+02 0.  0.
         23    2    1    2    0    0 -0.39119056696E+02  0.92640303798E+01  0.20874014946E+03  0.22894820602E+03  0.85021810063E+02 0.  0.
        -11    1    4    4    0    0 -0.55265562610E+02  0.33185757473E+02  0.15668267970E+03  0.16942561503E+03  0.00000000000E+00 0.  1.
         11    1    4    4    0    0  0.16146505914E+02 -0.23921727093E+02  0.52057469761E+02  0.59522590990E+02  0.00000000000E+00 0. -1.
        -11    1    3    3    0    0  0.37259257178E+02  0.75759762836E+02  0.36075726421E+03  0.37050451764E+03  0.00000000000E+00 0. -1.
         11    1    3    3    0    0 -0.62282246253E+01 -0.21837849274E+02  0.99515732880E+02  0.10207381414E+03  0.00000000000E+00 0.  1.
          2    1    1    2  501    0  0.80880241437E+01 -0.63185943942E+02 -0.17549408841E+03  0.18669776301E+03  0.00000000000E+00 0. -1.
<scales pt_clust_5="13000.00000" pt_clust_6="13000.00000" pt_clust_7="13000.00000" pt_clust_8="13000.00000" pt_clust_9="63.70149"></scales>
<clustering>
<clus scale="   63.701">  2  9  1 -1</clus>
<clus scale="   85.022">  5  6 -1 -1</clus>
<clus scale="   87.227">  7  8 -1 -1</clus>
<clus scale="   96.392">  2  5  1 -1</clus>
<clus scale="   63.701">  2  5  1 -1</clus>
</clustering>
</event>
<event>
 9    1  0.1671478E-005  0.1052757E+03  0.7546771E-02  0.1273460E+00
          3   -1    0    0  502    0 -0.00000000000E+00  0.00000000000E+00  0.38251276833E+03  0.38251276833E+03  0.00000000000E+00 0. -1.
         21   -1    0    0  501  502  0.00000000000E+00 -0.00000000000E+00 -0.53601637473E+02  0.53601637473E+02  0.00000000000E+00 0. -1.
         23    2    1    2    0    0 -0.29108109542E+02  0.21348978431E+02  0.18529706037E+03  0.21362768014E+03  0.99993620909E+02 0.  0.
         23    2    1    2    0    0  0.74628018586E+00 -0.37357074161E+02  0.15823133625E+03  0.18678914939E+03  0.91961528000E+02 0.  0.
        -11    1    3    3    0    0 -0.60093976277E+02  0.32326062527E+02  0.15307957752E+03  0.16759957446E+03  0.00000000000E+00 0. -1.
         11    1    3    3    0    0  0.30985866735E+02 -0.10977084095E+02  0.32217482843E+02  0.46028105689E+02  0.00000000000E+00 0.  1.
        -11    1    4    4    0    0  0.14686379371E+02 -0.52001095678E+02  0.41005474304E+02  0.67832533593E+02  0.00000000000E+00 0. -1.
         11    1    4    4    0    0 -0.13940099185E+02  0.14644021516E+02  0.11722586195E+03  0.11895661579E+03  0.00000000000E+00 0.  1.
          3    1    1    2  501    0  0.28361829356E+02  0.16008095730E+02 -0.14617265762E+02  0.35697576272E+02  0.00000000000E+00 0. -1.
<scales pt_clust_5="13000.00000" pt_clust_6="13000.00000" pt_clust_7="13000.00000" pt_clust_8="13000.00000" pt_clust_9="32.56766"></scales>
<clustering>
<clus scale="   32.568">  2  9  1 -1</clus>
<clus scale="   91.962">  7  8 -1 -1</clus>
<clus scale="   97.679">  2  7  1 -1</clus>
<clus scale="   99.994">  5  6 -1 -1</clus>
<clus scale="   32.568">  2  5  1 -1</clus>
</clustering>
</event>
<event>
 9    1  0.1671478E-005  0.9824505E+02  0.7546771E-02  0.1285249E+00
         21   -1    0    0  501  502  0.00000000000E+00  0.00000000000E+00  0.64078531131E+02  0.64078531131E+02  0.00000000000E+00 0.  1.
          1   -1    0    0  502    0 -0.00000000000E+00 -0.00000000000E+00 -0.56775893131E+03  0.56775893131E+03  0.00000000000E+00 0. -1.
         23    2    1    2    0    0  0.43827535884E+02 -0.12695845686E+02 -0.45837920375E+03  0.46900773591E+03  0.88174398322E+02 0.  0.
         23    2    1    2    0    0 -0.78138528943E+01 -0.96030929105E+01 -0.68756529673E+02  0.11441092148E+03  0.90604210112E+02 0.  0.
        -11    1    3    3    0    0 -0.65221071087E+01  0.31165007157E+02 -0.12369527334E+03  0.12772750760E+03  0.00000000000E+00 0. -1.
         11    1    3    3    0    0  0.50349642992E+02 -0.43860852843E+02 -0.33468393041E+03  0.34128022831E+03  0.00000000000E+00 0.  1.
        -11    1    4    4    0    0 -0.12368976318E+02  0.38154281507E+02 -0.16216321767E+02  0.43263262292E+02  0.00000000000E+00 0. -1.
         11    1    4    4    0    0  0.45551234241E+01 -0.47757374418E+02 -0.52540207906E+02  0.71147659185E+02  0.00000000000E+00 0.  1.
          1    1    1    2  501    0 -0.36013682989E+02  0.22298938596E+02  0.23455333241E+02  0.48418805050E+02  0.00000000000E+00 0. -1.
<scales pt_clust_5="13000.00000" pt_clust_6="13000.00000" pt_clust_7="13000.00000" pt_clust_8="13000.00000" pt_clust_9="42.35833"></scales>
<clustering>
<clus scale="   42.358">  1  9  2 -1</clus>
<clus scale="   88.174">  5  6 -1 -1</clus>
<clus scale="   90.604">  7  8 -1 -1</clus>
<clus scale="   96.009">  2  5  1 -1</clus>
<clus scale="   42.358">  1  5  2 -1</clus>
</clustering>
</event>
<event>
 9    1  0.1671478E-005  0.1607460E+03  0.7546771E-02  0.1212912E+00
          1   -1    0    0  502    0 -0.00000000000E+00  0.00000000000E+00  0.18841943010E+03  0.18841943010E+03  0.00000000000E+00 0. -1.
         21   -1    0    0  501  502  0.00000000000E+00 -0.00000000000E+00 -0.23062909592E+03  0.23062909592E+03  0.00000000000E+00 0. -1.
         23    2    1    2    0    0  0.24138616306E+02  0.62017737925E+00  0.87994695951E+01  0.93725847680E+02  0.90133492338E+02 0.  0.
         23    2    1    2    0    0 -0.15101824531E+03  0.11661835210E+02  0.24140455435E+02  0.17734717667E+03  0.89032301261E+02 0.  0.
        -13    1    4    4    0    0 -0.33076005789E+02 -0.27960598740E+02 -0.16665760376E+02  0.46406516890E+02  0.00000000000E+00 0.  1.
         13    1    4    4    0    0 -0.11794223952E+03  0.39622433951E+02  0.40806215811E+02  0.13094065978E+03  0.00000000000E+00 0. -1.
        -13    1    3    3    0    0 -0.30166669319E+02  0.14010853203E+02 -0.99782646585E+01  0.34726037938E+02  0.00000000000E+00 0. -1.
         13    1    3    3    0    0  0.54305285625E+02 -0.13390675824E+02  0.18777734254E+02  0.58999809742E+02  0.00000000000E+00 0.  1.
          1    1    1    2  501    0  0.12687962900E+03 -0.12282012590E+02 -0.75149590849E+02  0.14797550167E+03  0.00000000000E+00 0. -1.
<scales pt_clust_5="13000.00000" pt_clust_6="13000.00000" pt_clust_7="13000.00000" pt_clust_8="13000.00000" pt_clust_9="133.83772"></scales>
<clustering>
<clus scale="   89.032">  5  6 -1 -1</clus>
<clus scale="   90.133">  7  8 -1 -1</clus>
<clus scale="   93.312">  1  7  2 -1</clus>
<clus scale="  133.838">  2  9  1 -1</clus>
<clus scale="  133.838">  2  5  1 -1</clus>
</clustering>
</event>
<event>
 9    1  0.1671478E-005  0.1726419E+03  0.7546771E-02  0.1175174E+00
         21   -1    0    0  501  502  0.00000000000E+00  0.00000000000E+00  0.40964365616E+03  0.40964365616E+03  0.00000000000E+00 0. -1.
          1   -1    0    0  502    0 -0.00000000000E+00 -0.00000000000E+00 -0.28901877718E+03  0.28901877718E+03  0.00000000000E+00 0. -1.
         23    2    1    2    0    0 -0.10328749465E+02  0.14423051624E+03 -0.20122435466E+03  0.26407504461E+03  0.91297663699E+02 0.  0.
         23    2    1    2    0    0 -0.22116082897E+02 -0.15562946271E+03  0.95267786109E+02  0.20541113452E+03  0.91695868653E+02 0.  0.
        -11    1    3    3    0    0  0.88377256330E+01  0.11351279111E+03 -0.84285138674E+02  0.14165889927E+03  0.00000000000E+00 0. -1.
         11    1    3    3    0    0 -0.19166475098E+02  0.30717725125E+02 -0.11693921599E+03  0.12241614534E+03  0.00000000000E+00 0.  1.
        -11    1    4    4    0    0 -0.16707570277E+02 -0.10277737705E+03  0.95493282845E+01  0.10456348220E+03  0.00000000000E+00 0. -1.
         11    1    4    4    0    0 -0.54085126196E+01 -0.52852085657E+02  0.85718457825E+02  0.10084765232E+03  0.00000000000E+00 0.  1.
          1    1    1    2  501    0  0.32444832361E+02  0.11398946473E+02  0.22658144753E+03  0.22917625421E+03  0.00000000000E+00 0. -1.
<scales pt_clust_5="13000.00000" pt_clust_6="13000.00000" pt_clust_7="13000.00000" pt_clust_8="13000.00000" pt_clust_9="34.38900"></scales>
<clustering>
<clus scale="   34.389">  1  9  2 -1</clus>
<clus scale="   91.298">  5  6 -1 -1</clus>
<clus scale="   91.696">  7  8 -1 -1</clus>
<clus scale="  172.431">  2  5  1 -1</clus>
<clus scale="   34.389">  1  5  2 -1</clus>
</clustering>
</event>
<event>
 9    1  0.1671478E-005  0.1955183E+03  0.7546771E-02  0.1155173E+00
          2   -1    0    0  502    0 -0.00000000000E+00  0.00000000000E+00  0.89494658757E+03  0.89494658757E+03  0.00000000000E+00 0. -1.
         21   -1    0    0  501  502  0.00000000000E+00 -0.00000000000E+00 -0.54556852599E+02  0.54556852599E+02  0.00000000000E+00 0.  1.
         23    2    1    2    0    0 -0.10159232900E+00  0.16668204343E+03  0.56584723303E+03  0.59704301025E+03  0.92164803697E+02 0.  0.
         23    2    1    2    0    0 -0.87971884303E+01 -0.18517357570E+03  0.25382909932E+03  0.32330275317E+03  0.75688935047E+02 0.  0.
        -11    1    4    4    0    0  0.13614628047E+02 -0.24492384873E+02  0.86867291351E+01  0.29337591528E+02  0.00000000000E+00 0. -1.
         11    1    4    4    0    0 -0.22411816477E+02 -0.16068119083E+03  0.24514237018E+03  0.29396516164E+03  0.00000000000E+00 0.  1.
        -11    1    3    3    0    0 -0.30190371408E+02  0.12646972053E+02  0.78620023157E+02  0.85161684278E+02  0.00000000000E+00 0.  1.
         11    1    3    3    0    0  0.30088779079E+02  0.15403507137E+03  0.48722720987E+03  0.51188132597E+03  0.00000000000E+00 0. -1.
          2    1    1    2  501    0  0.88987807593E+01  0.18491532272E+02  0.20713402624E+02  0.29157676743E+02  0.00000000000E+00 0. -1.
<scales pt_clust_5="13000.00000" pt_clust_6="13000.00000" pt_clust_7="13000.00000" pt_clust_8="13000.00000" pt_clust_9="20.52133"></scales>
<clustering>
<clus scale="   20.521">  2  9  1 -1</clus>
<clus scale="   75.689">  5  6 -1 -1</clus>
<clus scale="   92.165">  7  8 -1 -1</clus>
<clus scale="  188.313">  2  5  1 -1</clus>
<clus scale="   20.521">  2  5  1 -1</clus>
</clustering>
</event>
<event>
 9    1  0.1671478E-005  0.9650803E+02  0.7546771E-02  0.1289497E+00
         21   -1    0    0  501  502  0.00000000000E+00  0.00000000000E+00  0.24785744894E+03  0.24785744894E+03  0.00000000000E+00 0. -1.
          1   -1    0    0  502    0 -0.00000000000E+00 -0.00000000000E+00 -0.76272723384E+02  0.76272723384E+02  0.00000000000E+00 0. -1.
         23    2    1    2    0    0 -0.25816468726E+01 -0.19060264637E+02  0.59031244873E+01  0.91591030286E+02  0.89353854765E+02 0.  0.
         23    2    1    2    0    0  0.32169864721E+01  0.40964165752E+02  0.46528207698E+02  0.11138751930E+03  0.92487261104E+02 0.  0.
        -11    1    3    3    0    0 -0.30302049374E+02 -0.12165241219E+02 -0.30932084166E+02  0.44977784750E+02  0.00000000000E+00 0.  1.
         11    1    3    3    0    0  0.27720402501E+02 -0.68950234180E+01  0.36835208654E+02  0.46613245535E+02  0.00000000000E+00 0. -1.
        -13    1    4    4    0    0  0.27966463245E+02 -0.14880127635E+02 -0.42400504853E+01  0.31961215449E+02  0.00000000000E+00 0. -1.
         13    1    4    4    0    0 -0.24749476773E+02  0.55844293387E+02  0.50768258183E+02  0.79426303850E+02  0.00000000000E+00 0.  1.
          1    1    1    2  501    0 -0.63533959944E+00 -0.21903901114E+02  0.11915339338E+03  0.12115162274E+03  0.00000000000E+00 0. -1.
<scales pt_clust_5="13000.00000" pt_clust_6="13000.00000" pt_clust_7="13000.00000" pt_clust_8="13000.00000" pt_clust_9="21.91311"></scales>
<clustering>
<clus scale="   21.913">  1  9  2 -1</clus>
<clus scale="   89.354">  5  6 -1 -1</clus>
<clus scale="   92.487">  7  8 -1 -1</clus>
<clus scale="   93.509">  2  5  1 -1</clus>
<clus scale="   21.913">  1  5  2 -1</clus>
</clustering>
</event>
<event>
 9    1  0.1671478E-005  0.1066926E+03  0.7546771E-02  0.1268708E+00
         21   -1    0    0  501  502  0.00000000000E+00  0.00000000000E+00  0.77863756486E+02  0.77863756486E+02  0.00000000000E+00 0. -1.
          3   -1    0    0  502    0 -0.00000000000E+00 -0.00000000000E+00 -0.22051104410E+03  0.22051104410E+03  0.00000000000E+00 0. -1.
         23    2    1    2    0    0  0.40485789469E+02 -0.17256790763E+02 -0.67633703464E+02  0.12258991005E+03  0.92287985274E+02 0.  0.
         23    2    1    2    0    0 -0.36112667403E+02  0.59732681352E+02 -0.71299598556E+02  0.13292326239E+03  0.87822792950E+02 0.  0.
        -11    1    4    4    0    0 -0.18287289573E+02 -0.19972656051E+02 -0.45868814395E+01  0.27465822963E+02  0.00000000000E+00 0.  1.
         11    1    4    4    0    0 -0.17825377829E+02  0.79705337404E+02 -0.66712717116E+02  0.10545743943E+03  0.00000000000E+00 0. -1.
        -13    1    3    3    0    0  0.47268604173E+02  0.27294044657E+02 -0.50554176932E+02  0.74397651976E+02  0.00000000000E+00 0. -1.
         13    1    3    3    0    0 -0.67828147034E+01 -0.44550835420E+02 -0.17079526532E+02  0.48192258077E+02  0.00000000000E+00 0.  1.
          3    1    1    2  501    0 -0.43731220667E+01 -0.42475890589E+02 -0.37139855907E+01  0.42861628141E+02  0.00000000000E+00 0. -1.
<scales pt_clust_5="13000.00000" pt_clust_6="13000.00000" pt_clust_7="13000.00000" pt_clust_8="13000.00000" pt_clust_9="42.70042"></scales>
<clustering>
<clus scale="   42.700">  1  9  2 -1</clus>
<clus scale="   87.823">  5  6 -1 -1</clus>
<clus scale="   92.288">  7  8 -1 -1</clus>
<clus scale="  102.855">  1  5  2 -1</clus>
<clus scale="   42.700">  1  5  2 -1</clus>
</clustering>
</event>
<event>
 9    1  0.1671478E-005  0.1141987E+03  0.7546771E-02  0.1253777E+00
          1   -1    0    0  502    0 -0.00000000000E+00  0.00000000000E+00  0.55983467102E+03  0.55983467102E+03  0.00000000000E+00 0. -1.
         21   -1    0    0  501  502  0.00000000000E+00 -0.00000000000E+00 -0.63065331399E+02  0.63065331399E+02  0.00000000000E+00 0. -1.
         23    2    1    2    0    0  0.74574553219E+02  0.15239098382E+02  0.37262339845E+03  0.39109487257E+03  0.91177892999E+02 0.  0.
         23    2    1    2    0    0 -0.28440059831E+02 -0.68340807613E+02  0.11080216607E+03  0.16020736915E+03  0.88938057862E+02 0.  0.
        -11    1    3    3    0    0  0.71056485230E+02  0.47446881284E+02  0.29073996901E+03  0.30303458584E+03  0.00000000000E+00 0. -1.
         11    1    3    3    0    0  0.35180679886E+01 -0.32207782902E+02  0.81883429442E+02  0.88060286731E+02  0.00000000000E+00 0.  1.
        -13    1    4    4    0    0 -0.13045707305E+02  0.17989944708E+02  0.49815003051E+01  0.22773755399E+02  0.00000000000E+00 0.  1.
         13    1    4    4    0    0 -0.15394352525E+02 -0.86330752321E+02  0.10582066576E+03  0.13743361375E+03  0.00000000000E+00 0. -1.
          1    1    1    2  501    0 -0.46134493388E+02  0.53101709231E+02  0.13343775108E+02  0.71597760702E+02  0.00000000000E+00 0. -1.
<scales pt_clust_5="13000.00000" pt_clust_6="13000.00000" pt_clust_7="13000.00000" pt_clust_8="13000.00000" pt_clust_9="70.34332"></scales>
<clustering>
<clus scale="   70.343">  2  9  1 -1</clus>
<clus scale="   88.938">  7  8 -1 -1</clus>
<clus scale="   91.178">  5  6 -1 -1</clus>
<clus scale="  112.419">  2  7  1 -1</clus>
<clus scale="   70.343">  2  5  1 -1</clus>
</clustering>
</event>
<event>
 9    1  0.1713682E-005  0.1432083E+03  0.7546771E-02  0.1221046E+00
         21   -1    0    0  501  502  0.00000000000E+00  0.00000000000E+00  0.20850014570E+03  0.20850014570E+03  0.00000000000E+00 0.  1.
         -1   -1    0    0    0  501 -0.00000000000E+00 -0.00000000000E+00 -0.46208840546E+03  0.46208840546E+03  0.00000000000E+00 0.  1.
         23    2    1    2    0    0 -0.35012158091E+02 -0.72517781946E+02 -0.33791207931E+03  0.37000669035E+03  0.12741937702E+03 0.  0.
         23    2    1    2    0    0  0.25427161924E+02  0.35411467497E+02 -0.82404130395E+02  0.12950597117E+03  0.89893510718E+02 0.  0.
        -11    1    4    4    0    0  0.45159891353E+02  0.44685600193E+02 -0.25304644697E+02  0.68385259339E+02  0.00000000000E+00 0. -1.
         11    1    4    4    0    0 -0.19732729429E+02 -0.92741326952E+01 -0.57099485698E+02  0.61120711833E+02  0.00000000000E+00 0.  1.
        -13    1    3    3    0    0  0.36796864529E+02 -0.61546155304E+02 -0.22121857322E+03  0.23255020019E+03  0.00000000000E+00 0.  1.
         13    1    3    3    0    0 -0.71809022620E+02 -0.10971626642E+02 -0.11669350610E+03  0.13745649016E+03  0.00000000000E+00 0. -1.
         -1    1    1    2    0  502  0.95849961676E+01  0.37106314449E+02  0.16672794994E+03  0.17107588964E+03  0.00000000000E+00 0.  1.
<scales pt_clust_5="13000.00000" pt_clust_6="13000.00000" pt_clust_7="13000.00000" pt_clust_8="13000.00000" pt_clust_9="38.32428"></scales>
<clustering>
<clus scale="   38.324">  1  9  2 -1</clus>
<clus scale="   89.894">  5  6 -1 -1</clus>
<clus scale="  111.148">  1  5  2 -1</clus>
<clus scale="  127.419">  7  8 -1 -1</clus>
<clus scale="   38.324">  1  5  2 -1</clus>
</clustering>
</event>
<event>
 9    1  0.1671478E-005  0.1223232E+03  0.7546771E-02  0.1240020E+00
          3   -1    0    0  502    0 -0.00000000000E+00  0.00000000000E+00  0.15253258797E+03  0.15253258797E+03  0.00000000000E+00 0. -1.
         21   -1    0    0  501  502  0.00000000000E+00 -0.00000000000E+00 -0.25036294449E+03  0.25036294449E+03  0.00000000000E+00 0.  1.
         23    2    1    2    0    0 -0.39877119374E+02 -0.65724082450E+02  0.78000958530E+02  0.14228209218E+03  0.90830636676E+02 0.  0.
         23    2    1    2    0    0  0.58875999760E+02  0.79709147808E+02 -0.66101273636E+02  0.14837609579E+03  0.88465562980E+02 0.  0.
        -11    1    3    3    0    0 -0.76027534823E+01 -0.72917071903E+02  0.80794177027E+02  0.10909812224E+03  0.00000000000E+00 0. -1.
         11    1    3    3    0    0 -0.32274365891E+02  0.71929894531E+01 -0.27932184968E+01  0.33183969933E+02  0.00000000000E+00 0.  1.
        -11    1    4    4    0    0  0.63349825176E+02  0.45439891665E+02 -0.79464903215E+02  0.11132230211E+03  0.00000000000E+00 0.  1.
         11    1    4    4    0    0 -0.44738254153E+01  0.34269256143E+02  0.13363629579E+02  0.37053793678E+02  0.00000000000E+00 0. -1.
          3    1    1    2  501    0 -0.18998880387E+02 -0.13985065358E+02 -0.10973004142E+03  0.11223734449E+03  0.00000000000E+00 0. -1.
<scales pt_clust_5="13000.00000" pt_clust_6="13000.00000" pt_clust_7="13000.00000" pt_clust_8="13000.00000" pt_clust_9="23.59109"></scales>
<clustering>
<clus scale="   23.591">  2  9  1 -1</clus>
<clus scale="   88.466">  7  8 -1 -1</clus>
<clus scale="   90.831">  5  6 -1 -1</clus>
<clus scale="  120.577">  2  7  1 -1</clus>
<clus scale="   23.591">  2  5  1 -1</clus>
</clustering>
</event>
<event>
 9    1  0.1671478E-005  0.1067990E+03  0.7546771E-02  0.1267935E+00
         21   -1    0    0  501  502  0.00000000000E+00  0.00000000000E+00  0.33738233036E+02  0.33738233036E+02  0.00000000000E+00 0.  1.
          1   -1    0    0  502    0 -0.00000000000E+00 -0.00000000000E+00 -0.48062680794E+03  0.48062680794E+03  0.00000000000E+00 0. -1.
         23    2    1    2    0    0 -0.44812600531E+02  0.47043875357E+02 -0.32020855442E+03  0.33896316293E+03  0.90228665754E+02 0.  0.
         23    2    1    2    0    0  0.31703079588E+02 -0.27872222305E+02 -0.11177106250E+03  0.14780316705E+03  0.87011836826E+02 0.  0.
        -11    1    3    3    0    0 -0.46545754720E+01  0.66428456807E+02 -0.19042965003E+03  0.20173709763E+03  0.00000000000E+00 0.  1.
         11    1    3    3    0    0 -0.40158025059E+02 -0.19384581450E+02 -0.12977890438E+03  0.13722606530E+03  0.00000000000E+00 0. -1.
        -13    1    4    4    0    0  0.56016582989E+02 -0.89882017919E+01 -0.99747705919E+02  0.11475299638E+03  0.00000000000E+00 0. -1.
         13    1    4    4    0    0 -0.24313503402E+02 -0.18884020513E+02 -0.12023356577E+02  0.33050170677E+02  0.00000000000E+00 0.  1.
          1    1    1    2  501    0  0.13109520944E+02 -0.19171653053E+02 -0.14908957985E+02  0.27598710991E+02  0.00000000000E+00 0. -1.
<scales pt_clust_5="13000.00000" pt_clust_6="13000.00000" pt_clust_7="13000.00000" pt_clust_8="13000.00000" pt_clust_9="23.22524"></scales>
<clustering>
<clus scale="   23.225">  1  9  2 -1</clus>
<clus scale="   87.012">  7  8 -1 -1</clus>
<clus scale="   90.229">  5  6 -1 -1</clus>
<clus scale="  104.096">  1  7  2 -1</clus>
<clus scale="   23.225">  1  5  2 -1</clus>
</clustering>
</event>
<event>
 9    1  0.1671478E-005  0.1430544E+03  0.7546771E-02  0.1210851E+00
          3   -1    0    0  502    0 -0.00000000000E+00  0.00000000000E+00  0.45926920324E+03  0.45926920324E+03  0.00000000000E+00 0. -1.
         21   -1    0    0  501  502  0.00000000000E+00 -0.00000000000E+00 -0.10717656635E+03  0.10717656635E+03  0.00000000000E+00 0.  1.
         23    2    1    2    0    0 -0.95906911254E+02 -0.27100738980E+02  0.28386266547E+03  0.31466345190E+03  0.92208944443E+02 0.  0.
         23    2    1    2    0    0  0.11600000262E+03 -0.75273097676E+01  0.11425115921E+03  0.19078408979E+03  0.99159369381E+02 0.  0.
        -11    1    3    3    0    0  0.72997669771E+01 -0.30949329431E+02  0.54041051088E+02  0.62702334827E+02  0.00000000000E+00 0.  1.
         11    1    3    3    0    0 -0.10320667823E+03  0.38485904503E+01  0.22982161439E+03  0.25196111708E+03  0.00000000000E+00 0. -1.
        -13    1    4    4    0    0  0.12461652802E+03 -0.28142076750E+02  0.82932382920E+02  0.15231229654E+03  0.00000000000E+00 0.  1.
         13    1    4    4    0    0 -0.86165254014E+01  0.20614766982E+02  0.31318776292E+02  0.38471793254E+02  0.00000000000E+00 0. -1.
          3    1    1    2  501    0 -0.20093091363E+02  0.34628048748E+02 -0.46021187797E+02  0.60998227899E+02  0.00000000000E+00 0. -1.
<scales pt_clust_5="13000.00000" pt_clust_6="13000.00000" pt_clust_7="13000.00000" pt_clust_8="13000.00000" pt_clust_9="40.03541"></scales>
<clustering>
<clus scale="   40.035">  2  9  1 -1</clus>
<clus scale="   92.209">  5  6 -1 -1</clus>
<clus scale="   99.159">  7  8 -1 -1</clus>
<clus scale="  138.327">  1  5  2 -1</clus>
<clus scale="   40.035">  2  5  1 -1</clus>
</clustering>
</event>
<event>
 9    1  0.1671478E-005  0.9419246E+02  0.7546771E-02  0.1294925E+00
         21   -1    0    0  501  502  0.00000000000E+00  0.00000000000E+00  0.22663770502E+03  0.22663770502E+03  0.00000000000E+00 0. -1.
         -3   -1    0    0    0  501 -0.00000000000E+00 -0.00000000000E+00 -0.73035713092E+02  0.73035713092E+02  0.00000000000E+00 0.  1.
         23    2    1    2    0    0 -0.26204137108E+02 -0.33720541465E+02  0.14189148795E+02  0.10157757867E+03  0.91065585309E+02 0.  0.
         23    2    1    2    0    0 -0.10146890371E+02 -0.39165479593E+01  0.84024932572E+02  0.12190024681E+03  0.87642353615E+02 0.  0.
        -11    1    3    3    0    0 -0.30991743831E+02  0.17145660244E+02  0.31736712965E+02  0.47557131965E+02  0.00000000000E+00 0.  1.
         11    1    3    3    0    0  0.47876067232E+01 -0.50866201709E+02 -0.17547564170E+02  0.54020446710E+02  0.00000000000E+00 0. -1.
        -13    1    4    4    0    0 -0.23855820843E+02  0.18738268501E+02 -0.34262131291E+01  0.30528049904E+02  0.00000000000E+00 0.  1.
         13    1    4    4    0    0  0.13708930472E+02 -0.22654816460E+02  0.87451145701E+02  0.91372196909E+02  0.00000000000E+00 0. -1.
         -3    1    1    2    0  502  0.36351027479E+02  0.37637089424E+02  0.55387910560E+02  0.76195592624E+02  0.00000000000E+00 0.  1.
<scales pt_clust_5="13000.00000" pt_clust_6="13000.00000" pt_clust_7="13000.00000" pt_clust_8="13000.00000" pt_clust_9="52.32540"></scales>
<clustering>
<clus scale="   52.325">  1  9  2 -1</clus>
<clus scale="   87.642">  7  8 -1 -1</clus>
<clus scale="   90.887">  1  7  2 -1</clus>
<clus scale="   91.066">  5  6 -1 -1</clus>
<clus scale="   52.325">  1  5  2 -1</clus>
</clustering>
</event>
<event>
 9    1  0.1859414E-005  0.1331461E+03  0.7546771E-02  0.1223453E+00
         -1   -1    0    0    0  501 -0.00000000000E+00  0.00000000000E+00  0.29491143998E+03  0.29491143998E+03  0.00000000000E+00 0.  1.
         21   -1    0    0  501  502  0.00000000000E+00 -0.00000000000E+00 -0.21137935411E+03  0.21137935411E+03  0.00000000000E+00 0. -1.
         23    2    1    2    0    0 -0.31011064757E+02 -0.91892301746E+02  0.23826285404E+03  0.27162359765E+03  0.87202694471E+02 0.  0.
         23    2    1    2    0    0  0.17007943908E+02  0.11424260991E+03 -0.14664176602E+03  0.20707995982E+03  0.89652987373E+02 0.  0.
        -11    1    4    4    0    0 -0.35865660515E+02  0.31149340757E+02 -0.42469397709E+02  0.63720301126E+02  0.00000000000E+00 0.  1.
         11    1    4    4    0    0  0.52873604422E+02  0.83093269152E+02 -0.10417236831E+03  0.14335965870E+03  0.00000000000E+00 0. -1.
        -13    1    3    3    0    0 -0.56519642112E+02 -0.84873783759E+02  0.20635012288E+03  0.23017037674E+03  0.00000000000E+00 0.  1.
         13    1    3    3    0    0  0.25508577355E+02 -0.70185179868E+01  0.31912731162E+02  0.41453220908E+02  0.00000000000E+00 0. -1.
         -1    1    1    2    0  502  0.14003120849E+02 -0.22350308163E+02 -0.80890021495E+01  0.27587236619E+02  0.00000000000E+00 0.  1.
<scales pt_clust_5="13000.00000" pt_clust_6="13000.00000" pt_clust_7="13000.00000" pt_clust_8="13000.00000" pt_clust_9="26.37468"></scales>
<clustering>
<clus scale="   26.375">  2  9  1 -1</clus>
<clus scale="   87.203">  7  8 -1 -1</clus>
<clus scale="   89.653">  5  6 -1 -1</clus>
<clus scale="  131.509">  1  7  2 -1</clus>
<clus scale="   26.375">  2  5  1 -1</clus>
</clustering>
</event>
<event>
 9    1  0.1671478E-005  0.2074040E+03  0.7546771E-02  0.1145107E+00
         21   -1    0    0  501  502  0.00000000000E+00  0.00000000000E+00  0.52435356291E+03  0.52435356291E+03  0.00000000000E+00 0.  1.
          3   -1    0    0  502    0 -0.00000000000E+00 -0.00000000000E+00 -0.45479227629E+03  0.45479227629E+03  0.00000000000E+00 0. -1.
         23    2    1    2    0    0  0.68904457318E+02 -0.15570329282E+03 -0.31837458039E+03  0.37641986712E+03  0.10648099967E+03 0.  0.
         23    2    1    2    0    0  0.26749447568E+01  0.29220488810E+03  0.27530201256E+03  0.41182630869E+03  0.91754337521E+02 0.  0.
        -11    1    3    3    0    0  0.69157499461E+02 -0.51664754521E+02 -0.86165749677E+02  0.12196943473E+03  0.00000000000E+00 0.  1.
         11    1    3    3    0    0 -0.25304214353E+00 -0.10403853830E+03 -0.23220883071E+03  0.25445043239E+03  0.00000000000E+00 0. -1.
        -13    1    4    4    0    0  0.63677512060E+01  0.66023024720E+02  0.17001413915E+02  0.68473616260E+02  0.00000000000E+00 0. -1.
         13    1    4    4    0    0 -0.36928064492E+01  0.22618186338E+03  0.25830059864E+03  0.34335269243E+03  0.00000000000E+00 0.  1.
          3    1    1    2  501    0 -0.71579402074E+02 -0.13650159527E+03  0.11263385445E+03  0.19089966339E+03  0.00000000000E+00 0. -1.
<scales pt_clust_5="13000.00000" pt_clust_6="13000.00000" pt_clust_7="13000.00000" pt_clust_8="13000.00000" pt_clust_9="154.13078"></scales>
<clustering>
<clus scale="   91.754">  7  8 -1 -1</clus>
<clus scale="  106.481">  5  6 -1 -1</clus>
<clus scale="  154.131">  1  9  2 -1</clus>
<clus scale="  200.243">  1  7  2 -1</clus>
<clus scale="  154.131">  1  5  2 -1</clus>
</clustering>
</event>
<event>
 9    1  0.1671478E-005  0.1142333E+03  0.7546771E-02  0.1253917E+00
         21   -1    0    0  501  502  0.00000000000E+00  0.00000000000E+00  0.26223199198E+03  0.26223199198E+03  0.00000000000E+00 0. -1.
          1   -1    0    0  502    0 -0.00000000000E+00 -0.00000000000E+00 -0.83187779336E+02  0.83187779336E+02  0.00000000000E+00 0. -1.
         23    2    1    2    0    0 -0.86450682640E+02 -0.66140356347E+01  0.35188947160E+02  0.13053883030E+03  0.91020097877E+02 0.  0.
         23    2    1    2    0    0  0.33771298503E+02  0.25644057464E+02  0.83217655377E+02  0.13233290044E+03  0.93748067106E+02 0.  0.
        -11    1    4    4    0    0  0.29266822929E+02 -0.23918244371E+02  0.29797262183E+01  0.37914484125E+02  0.00000000000E+00 0.  1.
         11    1    4    4    0    0  0.45044755742E+01  0.49562301835E+02  0.80237929159E+02  0.94418416313E+02  0.00000000000E+00 0. -1.
        -13    1    3    3    0    0  0.80137543497E+01  0.24612687277E+02  0.11151250698E+02  0.28184304602E+02  0.00000000000E+00 0.  1.
         13    1    3    3    0    0 -0.94464436990E+02 -0.31226722912E+02  0.24037696461E+02  0.10235452570E+03  0.00000000000E+00 0. -1.
          1    1    1    2  501    0  0.52679384137E+02 -0.19030021829E+02  0.60637610106E+02  0.82548040578E+02  0.00000000000E+00 0. -1.
<scales pt_clust_5="13000.00000" pt_clust_6="13000.00000" pt_clust_7="13000.00000" pt_clust_8="13000.00000" pt_clust_9="56.01124"></scales>
<clustering>
<clus scale="   56.011">  1  9  2 -1</clus>
<clus scale="   91.020">  7  8 -1 -1</clus>
<clus scale="   93.748">  5  6 -1 -1</clus>
<clus scale="  112.005">  2  7  1 -1</clus>
<clus scale="   56.011">  1  5  2 -1</clus>
</clustering>
</event>
<event>
 9    1  0.1671478E-005  0.1088239E+03  0.7546771E-02  0.1263396E+00
         21   -1    0    0  501  502  0.00000000000E+00  0.00000000000E+00  0.16500641058E+03  0.16500641058E+03  0.00000000000E+00 0. -1.
         -1   -1    0    0    0  501 -0.00000000000E+00 -0.00000000000E+00 -0.31376390266E+03  0.31376390266E+03  0.00000000000E+00 0.  1.
         23    2    1    2    0    0 -0.66725183161E+01 -0.52470767773E+02 -0.21728928768E+03  0.24422679498E+03  0.98154922820E+02 0.  0.
         23    2    1    2    0    0 -0.16942078921E+01  0.33402998380E+02 -0.50238344629E+02  0.11396189383E+03  0.96668460906E+02 0.  0.
        -11    1    4    4    0    0  0.31604860029E+02 -0.19832707608E+02 -0.76472189451E+01  0.38087838297E+02  0.00000000000E+00 0. -1.
         11    1    4    4    0    0 -0.33299067921E+02  0.53235705989E+02 -0.42591125684E+02  0.75874055537E+02  0.00000000000E+00 0.  1.
        -13    1    3    3    0    0  0.10639774731E+02 -0.77675707750E+02 -0.13086806691E+03  0.15255546964E+03  0.00000000000E+00 0. -1.
         13    1    3    3    0    0 -0.17312293047E+02  0.25204939977E+02 -0.86421220773E+02  0.91671325340E+02  0.00000000000E+00 0.  1.
         -1    1    1    2    0  502  0.83667262082E+01  0.19067769393E+02  0.11877014023E+03  0.12058162442E+03  0.00000000000E+00 0.  1.
<scales pt_clust_5="13000.00000" pt_clust_6="13000.00000" pt_clust_7="13000.00000" pt_clust_8="13000.00000" pt_clust_9="20.82263"></scales>
<clustering>
<clus scale="   20.823">  1  9  2 -1</clus>
<clus scale="   96.668">  5  6 -1 -1</clus>
<clus scale="   98.155">  7  8 -1 -1</clus>
<clus scale="  107.485">  1  5  2 -1</clus>
<clus scale="   20.823">  1  5  2 -1</clus>
</clustering>
</event>
<event>
 9    1  0.1671478E-005  0.9867705E+02  0.7546771E-02  0.1283972E+00
         21   -1    0    0  501  502  0.00000000000E+00  0.00000000000E+00  0.64050099829E+02  0.64050099829E+02  0.00000000000E+00 0.  1.
         -2   -1    0    0    0  501 -0.00000000000E+00 -0.00000000000E+00 -0.35848664687E+03  0.35848664687E+03  0.00000000000E+00 0.  1.
         23    2    1    2    0    0 -0.52880420708E+01 -0.14267911456E+02 -0.10241333961E+03  0.13759468003E+03  0.90621560119E+02 0.  0.
         23    2    1    2    0    0  0.41247677478E+02  0.67374003458E+02 -0.54472440728E+02  0.13317393494E+03  0.92344046416E+02 0.  0.
        -11    1    4    4    0    0  0.57839998469E+02  0.46367741416E+02 -0.70226281411E+02  0.10211348328E+03  0.00000000000E+00 0. -1.
         11    1    4    4    0    0 -0.16592320991E+02  0.21006262042E+02  0.15753840683E+02  0.31060451657E+02  0.00000000000E+00 0.  1.
        -13    1    3    3    0    0 -0.29874010924E+02 -0.11533320283E+01 -0.10541127251E+03  0.10956880521E+03  0.00000000000E+00 0.  1.
         13    1    3    3    0    0  0.24585968853E+02 -0.13114579428E+02  0.29979329015E+01  0.28025874825E+02  0.00000000000E+00 0. -1.
         -2    1    1    2    0  502 -0.35959635407E+02 -0.53106092002E+02 -0.13755076670E+03  0.15176813173E+03  0.00000000000E+00 0.  1.
<scales pt_clust_5="13000.00000" pt_clust_6="13000.00000" pt_clust_7="13000.00000" pt_clust_8="13000.00000" pt_clust_9="64.13545"></scales>
<clustering>
<clus scale="   64.135">  1  9  2 -1</clus>
<clus scale="   90.622">  7  8 -1 -1</clus>
<clus scale="   92.344">  5  6 -1 -1</clus>
<clus scale="   97.067">  2  7  1 -1</clus>
<clus scale="   64.135">  1  5  2 -1</clus>
</clustering>
</event>
<event>
 9    1  0.1671478E-005  0.1068895E+03  0.7546771E-02  0.1270701E+00
         -1   -1    0    0    0  501 -0.00000000000E+00  0.00000000000E+00  0.51354173657E+03  0.51354173657E+03  0.00000000000E+00 0.  1.
         21   -1    0    0  501  502  0.00000000000E+00 -0.00000000000E+00 -0.39092704578E+02  0.39092704578E+02  0.00000000000E+00 0. -1.
         23    2    1    2    0    0  0.24321842394E+02 -0.42822176267E+02  0.32582353014E+03  0.33949697756E+03  0.81681908525E+02 0.  0.
         23    2    1    2    0    0 -0.53603397016E+02  0.53266182854E+02  0.13295704869E+03  0.17832385793E+03  0.91712655078E+02 0.  0.
        -11    1    3    3    0    0  0.48970239455E+02 -0.27776928830E+02  0.27789998875E+03  0.28354549172E+03  0.00000000000E+00 0.  1.
         11    1    3    3    0    0 -0.24648397061E+02 -0.15045247437E+02  0.47923541394E+02  0.55951485842E+02  0.00000000000E+00 0. -1.
        -13    1    4    4    0    0  0.34856152880E+01 -0.22880056756E+02  0.32994739684E+02  0.40302597409E+02  0.00000000000E+00 0.  1.
         13    1    4    4    0    0 -0.57089012304E+02  0.76146239610E+02  0.99962309010E+02  0.13802126052E+03  0.00000000000E+00 0. -1.
         -1    1    1    2    0  502  0.29281554622E+02 -0.10444006587E+02  0.15668453154E+02  0.34813605658E+02  0.00000000000E+00 0.  1.
<scales pt_clust_5="13000.00000" pt_clust_6="13000.00000" pt_clust_7="13000.00000" pt_clust_8="13000.00000" pt_clust_9="31.08837"></scales>
<clustering>
<clus scale="   31.088">  2  9  1 -1</clus>
<clus scale="   81.682">  5  6 -1 -1</clus>
<clus scale="   91.713">  7  8 -1 -1</clus>
<clus scale="   98.418">  1  5  2 -1</clus>
<clus scale="   31.088">  2  5  1 -1</clus>
</clustering>
</event>
<event>
 9    1  0.1671478E-005  0.1146093E+03  0.7546771E-02  0.1253400E+00
         21   -1    0    0  501  502  0.00000000000E+00  0.00000000000E+00  0.24142009794E+03  0.24142009794E+03  0.00000000000E+00 0.  1.
         -4   -1    0    0    0  501 -0.00000000000E+00 -0.00000000000E+00 -0.17444431105E+03  0.17444431105E+03  0.00000000000E+00 0.  1.
         23    2    1    2    0    0 -0.54308241120E+02  0.43460552582E+02 -0.87317921624E+02  0.14545858221E+03  0.93250067111E+02 0.  0.
         23    2    1    2    0    0  0.84218668142E+02  0.36048871118E+02  0.12829026657E+03  0.18156573958E+03  0.90085626596E+02 0.  0.
        -11    1    4    4    0    0 -0.72624784792E+01  0.36196136166E+02  0.39886227296E+02  0.54349010984E+02  0.00000000000E+00 0. -1.
         11    1    4    4    0    0  0.91481146621E+02 -0.14726504786E+00  0.88404039272E+02  0.12721672859E+03  0.00000000000E+00 0.  1.
        -11    1    3    3    0    0 -0.48673740841E+02  0.70160361123E+02 -0.49107063625E+02  0.98504380706E+02  0.00000000000E+00 0.  1.
         11    1    3    3    0    0 -0.56345002788E+01 -0.26699808541E+02 -0.38210857998E+02  0.46954201500E+02  0.00000000000E+00 0. -1.
         -4    1    1    2    0  502 -0.29910427022E+02 -0.79509423700E+02  0.26003441952E+02  0.88840087208E+02  0.00000000000E+00 0.  1.
<scales pt_clust_5="13000.00000" pt_clust_6="13000.00000" pt_clust_7="13000.00000" pt_clust_8="13000.00000" pt_clust_9="84.94929"></scales>
<clustering>
<clus scale="   84.949">  1  9  2 -1</clus>
<clus scale="   90.086">  5  6 -1 -1</clus>
<clus scale="   93.250">  7  8 -1 -1</clus>
<clus scale="  112.050">  1  5  2 -1</clus>
<clus scale="   84.949">  1  5  2 -1</clus>
</clustering>
</event>
<event>
 9    1  0.1671478E-005  0.1057081E+03  0.7546771E-02  0.1269875E+00
         21   -1    0    0  501  502  0.00000000000E+00  0.00000000000E+00  0.37987323699E+03  0.37987323699E+03  0.00000000000E+00 0.  1.
          2   -1    0    0  502    0 -0.00000000000E+00 -0.00000000000E+00 -0.14890272100E+03  0.14890272100E+03  0.00000000000E+00 0. -1.
         23    2    1    2    0    0  0.11307211079E+02  0.54317961885E+02 -0.11041221350E+03  0.15310907956E+03  0.90405969655E+02 0.  0.
         23    2    1    2    0    0 -0.20974830568E+02  0.56238430164E+01  0.19346320235E+03  0.21577107063E+03  0.93046080677E+02 0.  0.
        -11    1    4    4    0    0 -0.42233000661E+02 -0.95581433392E+01  0.18228440476E+03  0.18735684847E+03  0.00000000000E+00 0.  1.
         11    1    4    4    0    0  0.21258170093E+02  0.15181986356E+02  0.11178797587E+02  0.28414222159E+02  0.00000000000E+00 0. -1.
        -13    1    3    3    0    0 -0.24145562865E+02  0.64759268840E+02 -0.71676471951E+02  0.99570516410E+02  0.00000000000E+00 0. -1.
         13    1    3    3    0    0  0.35452773944E+02 -0.10441306955E+02 -0.38735741549E+02  0.53538563154E+02  0.00000000000E+00 0.  1.
          2    1    1    2  501    0  0.96676194885E+01 -0.59941804902E+02  0.14791952715E+03  0.15989580780E+03  0.00000000000E+00 0. -1.
<scales pt_clust_5="13000.00000" pt_clust_6="13000.00000" pt_clust_7="13000.00000" pt_clust_8="13000.00000" pt_clust_9="60.71641"></scales>
<clustering>
<clus scale="   60.716">  1  9  2 -1</clus>
<clus scale="   90.406">  7  8 -1 -1</clus>
<clus scale="   93.046">  5  6 -1 -1</clus>
<clus scale="  103.392">  2  7  1 -1</clus>
<clus scale="   60.716">  1  5  2 -1</clus>
</clustering>
</event>
<event>
 9    1  0.1671478E-005  0.9221041E+02  0.7546771E-02  0.1300114E+00
          3   -1    0    0  502    0 -0.00000000000E+00  0.00000000000E+00  0.19116182006E+03  0.19116182006E+03  0.00000000000E+00 0. -1.
         21   -1    0    0  501  502  0.00000000000E+00 -0.00000000000E+00 -0.15622574318E+03  0.15622574318E+03  0.00000000000E+00 0. -1.
         23    2    1    2    0    0  0.58962543990E+01 -0.29254311147E+01  0.11906984814E+03  0.14789259857E+03  0.87471526872E+02 0.  0.
         23    2    1    2    0    0 -0.16526040928E+02 -0.25903317205E+02  0.13031153934E+02  0.97587596052E+02  0.91702977375E+02 0.  0.
        -11    1    4    4    0    0 -0.33765194389E+02  0.16427716928E+02 -0.18698016262E+02  0.41947277000E+02  0.00000000000E+00 0.  1.
         11    1    4    4    0    0  0.17239153461E+02 -0.42331034133E+02  0.31729170196E+02  0.55640319052E+02  0.00000000000E+00 0. -1.
        -13    1    3    3    0    0  0.75935585565E+01  0.41695569912E+02  0.48790586313E+02  0.64627424478E+02  0.00000000000E+00 0.  1.
         13    1    3    3    0    0 -0.16973041575E+01 -0.44621001027E+02  0.70279261826E+02  0.83265174094E+02  0.00000000000E+00 0. -1.
          3    1    1    2  501    0  0.10629786529E+02  0.28828748319E+02 -0.97164925193E+02  0.10190736862E+03  0.00000000000E+00 0. -1.
<scales pt_clust_5="13000.00000" pt_clust_6="13000.00000" pt_clust_7="13000.00000" pt_clust_8="13000.00000" pt_clust_9="30.72603"></scales>
<clustering>
<clus scale="   30.726">  2  9  1 -1</clus>
<clus scale="   87.472">  7  8 -1 -1</clus>
<clus scale="   88.003">  1  7  2 -1</clus>
<clus scale="   91.703">  5  6 -1 -1</clus>
<clus scale="   30.726">  2  5  1 -1</clus>
</clustering>
</event>
<event>
 9    1  0.2961698E-005  0.9505349E+02  0.7546771E-02  0.1292698E+00
         21   -1    0    0  501  502  0.00000000000E+00  0.00000000000E+00  0.34578223349E+03  0.34578223349E+03  0.00000000000E+00 0. -1.
          1   -1    0    0  502    0 -0.00000000000E+00 -0.00000000000E+00 -0.24844155505E+03  0.24844155505E+03  0.00000000000E+00 0. -1.
         23    2    1    2    0    0  0.19666004995E+02 -0.22070169234E+02 -0.21188653996E+03  0.23265160466E+03  0.91416733751E+02 0.  0.
         23    2    1    2    0    0  0.16153832934E+02  0.10673644222E+02  0.57914848694E+02  0.10746423686E+03  0.88428273223E+02 0.  0.
        -11    1    4    4    0    0 -0.16664334409E+02 -0.13037366827E+02  0.63186525151E+02  0.66634900283E+02  0.00000000000E+00 0.  1.
         11    1    4    4    0    0  0.32818167343E+02  0.23711011049E+02 -0.52716764563E+01  0.40829336578E+02  0.00000000000E+00 0. -1.
        -13    1    3    3    0    0  0.19223833334E+02  0.31217998339E+02 -0.48523713415E+02  0.60816691393E+02  0.00000000000E+00 0.  1.
         13    1    3    3    0    0  0.44217166047E+00 -0.53288167573E+02 -0.16336282655E+03  0.17183491327E+03  0.00000000000E+00 0. -1.
          1    1    1    2  501    0 -0.35819837929E+02  0.11396525012E+02  0.25131236971E+03  0.25410794703E+03  0.00000000000E+00 0. -1.
<scales pt_clust_5="13000.00000" pt_clust_6="13000.00000" pt_clust_7="13000.00000" pt_clust_8="13000.00000" pt_clust_9="37.58912"></scales>
<clustering>
<clus scale="   37.589">  1  9  2 -1</clus>
<clus scale="   88.428">  5  6 -1 -1</clus>
<clus scale="   91.417">  7  8 -1 -1</clus>
<clus scale="   92.183">  1  5  2 -1</clus>
<clus scale="   37.589">  1  5  2 -1</clus>
</clustering>
</event>
<event>
 9    1  0.1671478E-005  0.1401759E+03  0.7546771E-02  0.1213471E+00
         21   -1    0    0  501  502  0.00000000000E+00  0.00000000000E+00  0.35729857733E+03  0.35729857733E+03  0.00000000000E+00 0.  1.
          4   -1    0    0  502    0 -0.00000000000E+00 -0.00000000000E+00 -0.10251230605E+03  0.10251230605E+03  0.00000000000E+00 0. -1.
         23    2    1    2    0    0 -0.45937523193E+02  0.88615543743E+02  0.60973916527E+01  0.13453419030E+03  0.89996108501E+02 0.  0.
         23    2    1    2    0    0  0.73968201613E+02 -0.95878059531E+02  0.12061854216E+03  0.19397370603E+03  0.91722782170E+02 0.  0.
        -11    1    4    4    0    0  0.16461282923E+01 -0.77188284826E+02  0.60359482999E+02  0.98000042044E+02  0.00000000000E+00 0. -1.
         11    1    4    4    0    0  0.72322073321E+02 -0.18689774704E+02  0.60259059161E+02  0.95973663986E+02  0.00000000000E+00 0.  1.
        -13    1    3    3    0    0 -0.33822896247E+02  0.13664201464E+02 -0.32950593726E+02  0.49157301991E+02  0.00000000000E+00 0. -1.
         13    1    3    3    0    0 -0.12114626946E+02  0.74951342279E+02  0.39047985378E+02  0.85376888311E+02  0.00000000000E+00 0.  1.
          4    1    1    2  501    0 -0.28030678420E+02  0.72625157876E+01  0.12807033747E+03  0.13130298705E+03  0.00000000000E+00 0. -1.
<scales pt_clust_5="13000.00000" pt_clust_6="13000.00000" pt_clust_7="13000.00000" pt_clust_8="13000.00000" pt_clust_9="28.95623"></scales>
<clustering>
<clus scale="   28.956">  1  9  2 -1</clus>
<clus scale="   89.996">  7  8 -1 -1</clus>
<clus scale="   91.723">  5  6 -1 -1</clus>
<clus scale="  139.052">  2  7  1 -1</clus>
<clus scale="   28.956">  1  5  2 -1</clus>
</clustering>
</event>
<event>
 9    1  0.1671478E-005  0.1124083E+03  0.7546771E-02  0.1261708E+00
         21   -1    0    0  501  502  0.00000000000E+00  0.00000000000E+00  0.65387531970E+02  0.65387531970E+02  0.00000000000E+00 0.  1.
         -1   -1    0    0    0  501 -0.00000000000E+00 -0.00000000000E+00 -0.25000614857E+03  0.25000614857E+03  0.00000000000E+00 0.  1.
         23    2    1    2    0    0 -0.11127495669E+02 -0.48974045558E+02 -0.12906870814E+03  0.17334265913E+03  0.10424331036E+03 0.  0.
         23    2    1    2    0    0  0.17006972826E+02  0.28961975924E+02 -0.66899559514E+02  0.11830516362E+03  0.91610739015E+02 0.  0.
        -13    1    4    4    0    0  0.27947669298E+02  0.59157750217E+02 -0.46232643734E+02  0.80113475624E+02  0.00000000000E+00 0.  1.
         13    1    4    4    0    0 -0.10940696472E+02 -0.30195774293E+02 -0.20666915780E+02  0.38191688000E+02  0.00000000000E+00 0. -1.
        -13    1    3    3    0    0 -0.35592310371E+02 -0.62228612944E+02 -0.12649827574E+03  0.14539954124E+03  0.00000000000E+00 0.  1.
         13    1    3    3    0    0  0.24464814702E+02  0.13254567386E+02 -0.25704324004E+01  0.27943117895E+02  0.00000000000E+00 0. -1.
         -1    1    1    2    0  502 -0.58794771573E+01  0.20012069634E+02  0.11349651057E+02  0.23745857782E+02  0.00000000000E+00 0.  1.
<scales pt_clust_5="13000.00000" pt_clust_6="13000.00000" pt_clust_7="13000.00000" pt_clust_8="13000.00000" pt_clust_9="20.85788"></scales>
<clustering>
<clus scale="   20.858">  1  9  2 -1</clus>
<clus scale="   91.611">  5  6 -1 -1</clus>
<clus scale="  100.804">  1  5  2 -1</clus>
<clus scale="  104.243">  7  8 -1 -1</clus>
<clus scale="   20.858">  1  5  2 -1</clus>
</clustering>
</event>
<event>
 9    1  0.1671478E-005  0.1000619E+03  0.7546771E-02  0.1283406E+00
          1   -1    0    0  502    0 -0.00000000000E+00  0.00000000000E+00  0.23188157890E+03  0.23188157890E+03  0.00000000000E+00 0. -1.
         21   -1    0    0  501  502  0.00000000000E+00 -0.00000000000E+00 -0.13492177395E+03  0.13492177395E+03  0.00000000000E+00 0. -1.
         23    2    1    2    0    0  0.11033250077E+02  0.15053197402E+02  0.11252839565E+03  0.14762227005E+03  0.93708929293E+02 0.  0.
         23    2    1    2    0    0  0.51946293896E+01 -0.77325419095E+02  0.50278788536E+02  0.12711018066E+03  0.87308858877E+02 0.  0.
        -11    1    4    4    0    0 -0.21739537068E+02 -0.63645249797E+02  0.64975706432E+02  0.93515601479E+02  0.00000000000E+00 0. -1.
         11    1    4    4    0    0  0.26934166458E+02 -0.13680169298E+02 -0.14696917896E+02  0.33594579182E+02  0.00000000000E+00 0.  1.
        -13    1    3    3    0    0  0.51427377973E+02  0.96012297165E+01  0.79454645854E+02  0.95131485666E+02  0.00000000000E+00 0. -1.
         13    1    3    3    0    0 -0.40394127896E+02  0.54519676851E+01  0.33073749794E+02  0.52490784387E+02  0.00000000000E+00 0.  1.
          1    1    1    2  501    0 -0.16227879467E+02  0.62272221693E+02 -0.65847379241E+02  0.92070902133E+02  0.00000000000E+00 0. -1.
<scales pt_clust_5="13000.00000" pt_clust_6="13000.00000" pt_clust_7="13000.00000" pt_clust_8="13000.00000" pt_clust_9="64.35195"></scales>
<clustering>
<clus scale="   64.352">  2  9  1 -1</clus>
<clus scale="   87.309">  5  6 -1 -1</clus>
<clus scale="   93.709">  7  8 -1 -1</clus>
<clus scale="   94.095">  2  5  1 -1</clus>
<clus scale="   64.352">  2  5  1 -1</clus>
</clustering>
</event>
<event>
 9    1  0.1671478E-005  0.9197375E+02  0.7546771E-02  0.1307372E+00
         21   -1    0    0  501  502  0.00000000000E+00  0.00000000000E+00  0.33409138078E+02  0.33409138078E+02  0.00000000000E+00 0.  1.
          1   -1    0    0  502    0 -0.00000000000E+00 -0.00000000000E+00 -0.38225471270E+03  0.38225471270E+03  0.00000000000E+00 0. -1.
         23    2    1    2    0    0 -0.14737817367E+02 -0.25136574657E+02 -0.17003147706E+03  0.18855132418E+03  0.76104191814E+02 0.  0.
         23    2    1    2    0    0  0.10695421649E+02 -0.15982795057E+02 -0.15140833276E+03  0.17753209222E+03  0.90682516274E+02 0.  0.
        -11    1    4    4    0    0  0.38008546090E+02  0.17413996752E+02 -0.39182034525E+02  0.57298592376E+02  0.00000000000E+00 0.  1.
         11    1    4    4    0    0 -0.27313124441E+02 -0.33396791809E+02 -0.11222629823E+03  0.12023349984E+03  0.00000000000E+00 0. -1.
        -13    1    3    3    0    0 -0.27342355213E+02 -0.30790619187E+01 -0.15811365321E+03  0.16048991353E+03  0.00000000000E+00 0. -1.
         13    1    3    3    0    0  0.12604537846E+02 -0.22057512738E+02 -0.11917823844E+02  0.28061410650E+02  0.00000000000E+00 0.  1.
          1    1    1    2  501    0  0.40423957185E+01  0.41119369714E+02 -0.27405764808E+02  0.49580434383E+02  0.00000000000E+00 0. -1.
<scales pt_clust_5="13000.00000" pt_clust_6="13000.00000" pt_clust_7="13000.00000" pt_clust_8="13000.00000" pt_clust_9="41.31759"></scales>
<clustering>
<clus scale="   41.318">  1  9  2 -1</clus>
<clus scale="   76.104">  7  8 -1 -1</clus>
<clus scale="   77.638">  2  7  1 -1</clus>
<clus scale="   90.683">  5  6 -1 -1</clus>
<clus scale="   41.318">  1  5  2 -1</clus>
</clustering>
</event>
<event>
 9    1  0.1671478E-005  0.1395334E+03  0.7546771E-02  0.1214285E+00
         -1   -1    0    0    0  501 -0.00000000000E+00  0.00000000000E+00  0.26848998123E+03  0.26848998123E+03  0.00000000000E+00 0.  1.
         21   -1    0    0  501  502  0.00000000000E+00 -0.00000000000E+00 -0.13272700646E+03  0.13272700646E+03  0.00000000000E+00 0.  1.
         23    2    1    2    0    0 -0.60695860301E+02 -0.45631277115E+02  0.41192099713E+02  0.12491382109E+03  0.90224568225E+02 0.  0.
         23    2    1    2    0    0  0.14227618109E+03  0.36618231369E+02  0.87198954916E+02  0.19389607382E+03  0.91698544855E+02 0.  0.
        -11    1    4    4    0    0  0.96533233501E+02  0.26918022044E+02  0.10379346308E+03  0.14427864728E+03  0.00000000000E+00 0.  1.
         11    1    4    4    0    0  0.45742947593E+02  0.97002093243E+01 -0.16594508167E+02  0.49617426543E+02  0.00000000000E+00 0. -1.
        -13    1    3    3    0    0 -0.57865070238E+02 -0.70108319683E+02  0.21603021108E+02  0.93435717814E+02  0.00000000000E+00 0.  1.
         13    1    3    3    0    0 -0.28307900634E+01  0.24477042567E+02  0.19589078605E+02  0.31478103275E+02  0.00000000000E+00 0. -1.
         -1    1    1    2    0  502 -0.81580320792E+02  0.90130457467E+01  0.73719201361E+01  0.82407092781E+02  0.00000000000E+00 0.  1.
<scales pt_clust_5="13000.00000" pt_clust_6="13000.00000" pt_clust_7="13000.00000" pt_clust_8="13000.00000" pt_clust_9="82.07669"></scales>
<clustering>
<clus scale="   82.077">  2  9  1 -1</clus>
<clus scale="   90.225">  7  8 -1 -1</clus>
<clus scale="   91.699">  5  6 -1 -1</clus>
<clus scale="  138.569">  1  7  2 -1</clus>
<clus scale="   82.077">  2  5  1 -1</clus>
</clustering>
</event>
<event>
 9    1  0.1671478E-005  0.9407014E+02  0.7546771E-02  0.1293485E+00
          1   -1    0    0  502    0 -0.00000000000E+00  0.00000000000E+00  0.29694001070E+03  0.29694001070E+03  0.00000000000E+00 0. -1.
         21   -1    0    0  501  502  0.00000000000E+00 -0.00000000000E+00 -0.54734168938E+02  0.54734168938E+02  0.00000000000E+00 0.  1.
         23    2    1    2    0    0 -0.20065667503E+02 -0.76513006138E+01  0.15764545334E+03  0.18285677155E+03  0.90129554152E+02 0.  0.
         23    2    1    2    0    0  0.34967675047E+02 -0.24401582859E+02  0.88089554546E+02  0.13329400480E+03  0.90495008428E+02 0.  0.
        -11    1    4    4    0    0  0.31410158106E+02 -0.37573125671E+01 -0.98554934382E+01  0.33133761949E+02  0.00000000000E+00 0.  1.
         11    1    4    4    0    0  0.35575169407E+01 -0.20644270292E+02  0.97945047985E+02  0.10016024285E+03  0.00000000000E+00 0. -1.
        -11    1    3    3    0    0  0.64420030985E+00 -0.46059893008E+02  0.57935546896E+02  0.74016594978E+02  0.00000000000E+00 0. -1.
         11    1    3    3    0    0 -0.20709867813E+02  0.38408592394E+02  0.99709906441E+02  0.10884017658E+03  0.00000000000E+00 0.  1.
          1    1    1    2  501    0 -0.14902007544E+02  0.32052883473E+02 -0.35291661202E+01  0.35523403290E+02  0.00000000000E+00 0. -1.
<scales pt_clust_5="13000.00000" pt_clust_6="13000.00000" pt_clust_7="13000.00000" pt_clust_8="13000.00000" pt_clust_9="35.34766"></scales>
<clustering>
<clus scale="   35.348">  2  9  1 -1</clus>
<clus scale="   90.130">  7  8 -1 -1</clus>
<clus scale="   90.495">  5  6 -1 -1</clus>
<clus scale="   93.719">  1  7  2 -1</clus>
<clus scale="   35.348">  2  5  1 -1</clus>
</clustering>
</event>
<event>
 9    1  0.1671478E-005  0.1749649E+03  0.7546771E-02  0.1172805E+00
          1   -1    0    0  502    0 -0.00000000000E+00  0.00000000000E+00  0.64972568114E+03  0.64972568114E+03  0.00000000000E+00 0. -1.
         21   -1    0    0  501  502  0.00000000000E+00 -0.00000000000E+00 -0.13051490846E+03  0.13051490846E+03  0.00000000000E+00 0. -1.
         23    2    1    2    0    0 -0.14310731030E+03 -0.80919582736E+02  0.46743497183E+03  0.50382796047E+03  0.91211182018E+02 0.  0.
         23    2    1    2    0    0  0.10690301980E+03 -0.27406300921E+02 -0.15547881181E+02  0.14383161284E+03  0.90919938795E+02 0.  0.
        -13    1    3    3    0    0 -0.11108202235E+02 -0.51492550568E+02  0.12405870102E+03  0.13477921286E+03  0.00000000000E+00 0. -1.
         13    1    3    3    0    0 -0.13199910806E+03 -0.29427032168E+02  0.34337627081E+03  0.36904874761E+03  0.00000000000E+00 0.  1.
        -13    1    4    4    0    0  0.26920130367E+02  0.31530869969E+02 -0.16105675996E+02  0.44477881911E+02  0.00000000000E+00 0.  1.
         13    1    4    4    0    0  0.79982889428E+02 -0.58937170890E+02  0.55779481576E+00  0.99353730926E+02  0.00000000000E+00 0. -1.
          1    1    1    2  501    0  0.36204290503E+02  0.10832588366E+03  0.67323682032E+02  0.13258101630E+03  0.00000000000E+00 0. -1.
<scales pt_clust_5="13000.00000" pt_clust_6="13000.00000" pt_clust_7="13000.00000" pt_clust_8="13000.00000" pt_clust_9="114.21579"></scales>
<clustering>
<clus scale="   90.920">  7  8 -1 -1</clus>
<clus scale="   91.211">  5  6 -1 -1</clus>
<clus scale="  114.216">  2  9  1 -1</clus>
<clus scale="  174.813">  2  7  1 -1</clus>
<clus scale="  114.216">  2  5  1 -1</clus>
</clustering>
</event>
<event>
 9    1  0.1671478E-005  0.9639433E+02  0.7546771E-02  0.1289032E+00
         21   -1    0    0  501  502  0.00000000000E+00  0.00000000000E+00  0.51255242081E+02  0.51255242081E+02  0.00000000000E+00 0.  1.
          1   -1    0    0  502    0 -0.00000000000E+00 -0.00000000000E+00 -0.29103694658E+03  0.29103694658E+03  0.00000000000E+00 0. -1.
         23    2    1    2    0    0 -0.64699319758E+01 -0.21818455616E+02 -0.18313148877E+03  0.20621595436E+03  0.92032454216E+02 0.  0.
         23    2    1    2    0    0  0.85351020117E+01  0.44487879479E+02 -0.46850379846E+02  0.11129308500E+03  0.90217366905E+02 0.  0.
        -11    1    3    3    0    0 -0.97206013163E+01 -0.51896590507E+02 -0.15893830401E+03  0.16747874694E+03  0.00000000000E+00 0. -1.
         11    1    3    3    0    0  0.32506693404E+01  0.30078134892E+02 -0.24193184759E+02  0.38737207417E+02  0.00000000000E+00 0.  1.
        -13    1    4    4    0    0 -0.37213481447E+02  0.32122829784E+02 -0.75689924147E+01  0.49739411345E+02  0.00000000000E+00 0.  1.
         13    1    4    4    0    0  0.45748583459E+02  0.12365049695E+02 -0.39281387431E+02  0.61553673660E+02  0.00000000000E+00 0. -1.
          1    1    1    2  501    0 -0.20651700359E+01 -0.22669423864E+02 -0.97998358822E+01  0.24783149294E+02  0.00000000000E+00 0. -1.
<scales pt_clust_5="13000.00000" pt_clust_6="13000.00000" pt_clust_7="13000.00000" pt_clust_8="13000.00000" pt_clust_9="22.76330"></scales>
<clustering>
<clus scale="   22.763">  1  9  2 -1</clus>
<clus scale="   90.217">  7  8 -1 -1</clus>
<clus scale="   92.032">  5  6 -1 -1</clus>
<clus scale="   94.663">  1  7  2 -1</clus>
<clus scale="   22.763">  1  5  2 -1</clus>
</clustering>
</event>
<event>
 9    1  0.1671478E-005  0.1082180E+03  0.7546771E-02  0.1269754E+00
          3   -1    0    0  502    0 -0.00000000000E+00  0.00000000000E+00  0.87225242318E+02  0.87225242318E+02  0.00000000000E+00 0. -1.
         21   -1    0    0  501  502  0.00000000000E+00 -0.00000000000E+00 -0.23193170917E+03  0.23193170917E+03  0.00000000000E+00 0. -1.
         23    2    1    2    0    0  0.55304693882E+01 -0.25477182902E+02 -0.80415971822E+01  0.10693948105E+03  0.10340073685E+03 0.  0.
         23    2    1    2    0    0  0.17851567182E+02  0.38960871935E+02 -0.34387066379E+02  0.10643808421E+03  0.91159022836E+02 0.  0.
        -11    1    3    3    0    0 -0.48727486106E+02 -0.15209297505E+02  0.58159702732E+00  0.51049279015E+02  0.00000000000E+00 0.  1.
         11    1    3    3    0    0  0.54257955494E+02 -0.10267885397E+02 -0.86231942095E+01  0.55890202033E+02  0.00000000000E+00 0. -1.
        -13    1    4    4    0    0  0.53425943404E+02  0.36927796333E+02 -0.19395255893E+02  0.67780303347E+02  0.00000000000E+00 0. -1.
         13    1    4    4    0    0 -0.35574376222E+02  0.20330756012E+01 -0.14991810486E+02  0.38657780868E+02  0.00000000000E+00 0.  1.
          3    1    1    2  501    0 -0.23382036571E+02 -0.13483689033E+02 -0.10227780329E+03  0.10577938622E+03  0.00000000000E+00 0. -1.
<scales pt_clust_5="13000.00000" pt_clust_6="13000.00000" pt_clust_7="13000.00000" pt_clust_8="13000.00000" pt_clust_9="26.99129"></scales>
<clustering>
<clus scale="   26.991">  2  9  1 -1</clus>
<clus scale="   91.159">  7  8 -1 -1</clus>
<clus scale="   96.589">  2  7  1 -1</clus>
<clus scale="  103.401">  5  6 -1 -1</clus>
<clus scale="   26.991">  2  5  1 -1</clus>
</clustering>
</event>
<event>
 9    1  0.1671478E-005  0.1144806E+03  0.7546771E-02  0.1254172E+00
         21   -1    0    0  501  502  0.00000000000E+00  0.00000000000E+00  0.33942962561E+02  0.33942962561E+02  0.00000000000E+00 0.  1.
          3   -1    0    0  502    0 -0.00000000000E+00 -0.00000000000E+00 -0.49866649648E+03  0.49866649648E+03  0.00000000000E+00 0. -1.
         23    2    1    2    0    0  0.31996271731E+02  0.55528294732E+02 -0.23234967944E+03  0.25605995764E+03  0.86447530036E+02 0.  0.
         23    2    1    2    0    0 -0.60507989698E+02 -0.51646094423E+02 -0.18301873045E+03  0.21941879329E+03  0.91215214026E+02 0.  0.
        -11    1    4    4    0    0 -0.46162548668E+02 -0.73222055144E+02 -0.99043466391E+02  0.13153728937E+03  0.00000000000E+00 0.  1.
         11    1    4    4    0    0 -0.14345441030E+02  0.21575960722E+02 -0.83975264054E+02  0.87881503926E+02  0.00000000000E+00 0. -1.
        -13    1    3    3    0    0  0.12667370633E+02  0.76511722657E+02 -0.14919975132E+03  0.16815193063E+03  0.00000000000E+00 0. -1.
         13    1    3    3    0    0  0.19328901098E+02 -0.20983427924E+02 -0.83149928121E+02  0.87908027003E+02  0.00000000000E+00 0.  1.
          3    1    1    2  501    0  0.28511717967E+02 -0.38822003097E+01 -0.49355124030E+02  0.57130708106E+02  0.00000000000E+00 0. -1.
<scales pt_clust_5="13000.00000" pt_clust_6="13000.00000" pt_clust_7="13000.00000" pt_clust_8="13000.00000" pt_clust_9="28.77481"></scales>
<clustering>
<clus scale="   28.775">  1  9  2 -1</clus>
<clus scale="   86.448">  7  8 -1 -1</clus>
<clus scale="   91.215">  5  6 -1 -1</clus>
<clus scale="  110.719">  2  7  1 -1</clus>
<clus scale="   28.775">  1  5  2 -1</clus>
</clustering>
</event>
<event>
 9    1  0.1671478E-005  0.1469243E+03  0.7546771E-02  0.1204538E+00
         21   -1    0    0  501  502  0.00000000000E+00  0.00000000000E+00  0.73271123587E+03  0.73271123587E+03  0.00000000000E+00 0.  1.
         -1   -1    0    0    0  501 -0.00000000000E+00 -0.00000000000E+00 -0.40769458859E+02  0.40769458859E+02  0.00000000000E+00 0.  1.
         23    2    1    2    0    0  0.89341115727E+02 -0.74907693829E+02  0.18582158535E+03  0.23796191378E+03  0.92212869349E+02 0.  0.
         23    2    1    2    0    0 -0.66913682688E+02  0.90203168130E+02  0.38144837905E+03  0.40792566928E+03  0.91029848425E+02 0.  0.
        -11    1    4    4    0    0 -0.24750059633E+02 -0.16235447733E+02  0.92619382183E+02  0.97234279814E+02  0.00000000000E+00 0. -1.
         11    1    4    4    0    0 -0.42163623055E+02  0.10643861586E+03  0.28882899687E+03  0.31069138946E+03  0.00000000000E+00 0.  1.
        -13    1    3    3    0    0  0.85321996021E+02 -0.12643334543E+02  0.10806952691E+03  0.13827045802E+03  0.00000000000E+00 0.  1.
         13    1    3    3    0    0  0.40191197053E+01 -0.62264359287E+02  0.77752058441E+02  0.99691455764E+02  0.00000000000E+00 0. -1.
         -1    1    1    2    0  502 -0.22427433038E+02 -0.15295474300E+02  0.12467181260E+03  0.12759311167E+03  0.00000000000E+00 0.  1.
<scales pt_clust_5="13000.00000" pt_clust_6="13000.00000" pt_clust_7="13000.00000" pt_clust_8="13000.00000" pt_clust_9="27.14666"></scales>
<clustering>
<clus scale="   27.147">  1  9  2 -1</clus>
<clus scale="   91.030">  5  6 -1 -1</clus>
<clus scale="   92.213">  7  8 -1 -1</clus>
<clus scale="  146.185">  1  5  2 -1</clus>
<clus scale="   27.147">  1  5  2 -1</clus>
</clustering>
</event>
<event>
 9    1  0.1671478E-005  0.1064246E+03  0.7546771E-02  0.1268073E+00
         -4   -1    0    0    0  501 -0.00000000000E+00  0.00000000000E+00  0.21990813501E+03  0.21990813501E+03  0.00000000000E+00 0.  1.
         21   -1    0    0  501  502  0.00000000000E+00 -0.00000000000E+00 -0.11133130880E+03  0.11133130880E+03  0.00000000000E+00 0. -1.
         23    2    1    2    0    0  0.23213565483E+02  0.54286301449E+02  0.89636976915E+02  0.14154344341E+03  0.92270724467E+02 0.  0.
         23    2    1    2    0    0 -0.47327320608E+02 -0.15352667681E+02  0.65090649454E+02  0.12467909968E+03  0.93981410774E+02 0.  0.
        -11    1    4    4    0    0  0.12753642491E+02 -0.34696379538E+02  0.45430710601E+02  0.58569989035E+02  0.00000000000E+00 0. -1.
         11    1    4    4    0    0 -0.60080963098E+02  0.19343711857E+02  0.19659938853E+02  0.66109110650E+02  0.00000000000E+00 0.  1.
        -11    1    3    3    0    0  0.51237202907E+02  0.19884132997E+02  0.78444791766E+02  0.95782122872E+02  0.00000000000E+00 0.  1.
         11    1    3    3    0    0 -0.28023637424E+02  0.34402168452E+02  0.11192185150E+02  0.45761320535E+02  0.00000000000E+00 0. -1.
         -4    1    1    2    0  502  0.24113755125E+02 -0.38933633769E+02 -0.46150800160E+02  0.65016900727E+02  0.00000000000E+00 0.  1.
<scales pt_clust_5="13000.00000" pt_clust_6="13000.00000" pt_clust_7="13000.00000" pt_clust_8="13000.00000" pt_clust_9="45.79630"></scales>
<clustering>
<clus scale="   45.796">  2  9  1 -1</clus>
<clus scale="   92.271">  7  8 -1 -1</clus>
<clus scale="   93.981">  5  6 -1 -1</clus>
<clus scale="  104.917">  1  7  2 -1</clus>
<clus scale="   45.796">  2  5  1 -1</clus>
</clustering>
</event>
<event>
 9    1  0.1671478E-005  0.1014030E+03  0.7546771E-02  0.1280973E+00
         21   -1    0    0  501  502  0.00000000000E+00  0.00000000000E+00  0.13935399067E+03  0.13935399067E+03  0.00000000000E+00 0.  1.
          1   -1    0    0  502    0 -0.00000000000E+00 -0.00000000000E+00 -0.20516125887E+03  0.20516125887E+03  0.00000000000E+00 0. -1.
         23    2    1    2    0    0  0.27146710148E+02 -0.20156484275E+01 -0.87764675986E+02  0.12869777219E+03  0.90108110097E+02 0.  0.
         23    2    1    2    0    0 -0.85434375555E+02 -0.53007768508E+01 -0.44680812722E+02  0.12698260554E+03  0.82468638422E+02 0.  0.
        -11    1    4    4    0    0 -0.38162085293E+02  0.22263939825E+01  0.22602499855E+02  0.44409172293E+02  0.00000000000E+00 0.  1.
         11    1    4    4    0    0 -0.47272290262E+02 -0.75271708333E+01 -0.67283312577E+02  0.82573433250E+02  0.00000000000E+00 0. -1.
        -11    1    3    3    0    0  0.72269911301E+01  0.20783750252E+02  0.11563682560E+02  0.24857844429E+02  0.00000000000E+00 0.  1.
         11    1    3    3    0    0  0.19919719018E+02 -0.22799398680E+02 -0.99328358546E+02  0.10383992776E+03  0.00000000000E+00 0. -1.
          1    1    1    2  501    0  0.58287665407E+02  0.73164252784E+01  0.66638220503E+02  0.88834871808E+02  0.00000000000E+00 0. -1.
<scales pt_clust_5="13000.00000" pt_clust_6="13000.00000" pt_clust_7="13000.00000" pt_clust_8="13000.00000" pt_clust_9="58.74506"></scales>
<clustering>
<clus scale="   58.745">  1  9  2 -1</clus>
<clus scale="   82.469">  5  6 -1 -1</clus>
<clus scale="   90.108">  7  8 -1 -1</clus>
<clus scale="   94.679">  1  5  2 -1</clus>
<clus scale="   58.745">  1  5  2 -1</clus>
</clustering>
</event>
<event>
 9    1  0.1671478E-005  0.1717957E+03  0.7546771E-02  0.1179793E+00
          1   -1    0    0  502    0 -0.00000000000E+00  0.00000000000E+00  0.91839898623E+03  0.91839898623E+03  0.00000000000E+00 0. -1.
         21   -1    0    0  501  502  0.00000000000E+00 -0.00000000000E+00 -0.38493969292E+02  0.38493969292E+02  0.00000000000E+00 0.  1.
         23    2    1    2    0    0  0.82992040156E+02  0.11104988849E+03  0.63415328141E+03  0.65864203741E+03  0.11153112867E+03 0.  0.
         23    2    1    2    0    0 -0.69005211710E+02 -0.92634279799E+02  0.20336195148E+03  0.24996365472E+03  0.88220838443E+02 0.  0.
        -13    1    4    4    0    0  0.18207052409E+02 -0.29602021328E+02  0.73578622393E+02  0.81373153419E+02  0.00000000000E+00 0. -1.
         13    1    4    4    0    0 -0.87212264119E+02 -0.63032258471E+02  0.12978332908E+03  0.16859050130E+03  0.00000000000E+00 0.  1.
        -13    1    3    3    0    0  0.68627037119E+01  0.21612169900E+02  0.12304895975E+02  0.25799090197E+02  0.00000000000E+00 0.  1.
         13    1    3    3    0    0  0.76129336444E+02  0.89437718594E+02  0.62184838544E+03  0.63284294722E+03  0.00000000000E+00 0. -1.
          1    1    1    2  501    0 -0.13986828446E+02 -0.18415608695E+02  0.42389784052E+02  0.48287263388E+02  0.00000000000E+00 0. -1.
<scales pt_clust_5="13000.00000" pt_clust_6="13000.00000" pt_clust_7="13000.00000" pt_clust_8="13000.00000" pt_clust_9="23.12501"></scales>
<clustering>
<clus scale="   23.125">  2  9  1 -1</clus>
<clus scale="   88.221">  5  6 -1 -1</clus>
<clus scale="  111.531">  7  8 -1 -1</clus>
<clus scale="  157.663">  2  5  1 -1</clus>
<clus scale="   23.125">  2  5  1 -1</clus>
</clustering>
</event>
<event>
 9    1  0.1671478E-005  0.3722281E+03  0.7546771E-02  0.1053891E+00
         21   -1    0    0  501  502  0.00000000000E+00  0.00000000000E+00  0.29000145597E+03  0.29000145597E+03  0.00000000000E+00 0. -1.
          2   -1    0    0  502    0 -0.00000000000E+00 -0.00000000000E+00 -0.15618859902E+04  0.15618859902E+04  0.00000000000E+00 0. -1.
         23    2    1    2    0    0 -0.35772183988E+03  0.28198386150E+02 -0.85560564520E+03  0.93195729618E+03  0.87882410621E+02 0.  0.
         23    2    1    2    0    0  0.35766957381E+03 -0.80895813492E+02 -0.61097375357E+03  0.71822959999E+03  0.89962070205E+02 0.  0.
        -11    1    3    3    0    0 -0.94663285801E+02 -0.30404366554E+02 -0.20953474676E+03  0.23192751730E+03  0.00000000000E+00 0.  1.
         11    1    3    3    0    0 -0.26305855408E+03  0.58602752704E+02 -0.64607089844E+03  0.70002977887E+03  0.00000000000E+00 0. -1.
        -11    1    4    4    0    0  0.31717846374E+03 -0.89371195035E+02 -0.49104753739E+03  0.59136881245E+03  0.00000000000E+00 0.  1.
         11    1    4    4    0    0  0.40491110070E+02  0.84753815425E+01 -0.11992621618E+03  0.12686078754E+03  0.00000000000E+00 0. -1.
          2    1    1    2  501    0  0.52266065039E-01  0.52697427342E+02  0.19469486456E+03  0.20170054999E+03  0.00000000000E+00 0. -1.
<scales pt_clust_5="13000.00000" pt_clust_6="13000.00000" pt_clust_7="13000.00000" pt_clust_8="13000.00000" pt_clust_9="52.69745"></scales>
<clustering>
<clus scale="   52.697">  1  9  2 -1</clus>
<clus scale="   87.882">  5  6 -1 -1</clus>
<clus scale="   89.962">  7  8 -1 -1</clus>
<clus scale="  371.731">  2  5  1 -1</clus>
<clus scale="   52.697">  1  5  2 -1</clus>
</clustering>
</event>
<event>
 9    1  0.1671478E-005  0.1028904E+03  0.7546771E-02  0.1274362E+00
          2   -1    0    0  502    0 -0.00000000000E+00  0.00000000000E+00  0.20033629505E+03  0.20033629505E+03  0.00000000000E+00 0. -1.
         21   -1    0    0  501  502  0.00000000000E+00 -0.00000000000E+00 -0.19697110739E+03  0.19697110739E+03  0.00000000000E+00 0. -1.
         23    2    1    2    0    0  0.40983564034E+02 -0.22731347791E+02  0.16067005512E+03  0.19148438203E+03  0.93032441948E+02 0.  0.
         23    2    1    2    0    0 -0.19751960343E+02  0.12871781197E+02 -0.79810995409E+02  0.12487061307E+03  0.93097004961E+02 0.  0.
        -11    1    4    4    0    0 -0.51988235381E+02  0.24170496769E+02 -0.30660795670E+02  0.65015951298E+02  0.00000000000E+00 0.  1.
         11    1    4    4    0    0  0.32236275038E+02 -0.11298715572E+02 -0.49150199738E+02  0.59854661775E+02  0.00000000000E+00 0. -1.
        -13    1    3    3    0    0  0.44682381349E+00  0.32020939348E+02  0.78279679273E+02  0.84576878610E+02  0.00000000000E+00 0.  1.
         13    1    3    3    0    0  0.40536740220E+02 -0.54752287140E+02  0.82390375847E+02  0.10690750342E+03  0.00000000000E+00 0. -1.
          2    1    1    2  501    0 -0.21231603690E+02  0.98595665945E+01 -0.77493872050E+02  0.80952407339E+02  0.00000000000E+00 0. -1.
<scales pt_clust_5="13000.00000" pt_clust_6="13000.00000" pt_clust_7="13000.00000" pt_clust_8="13000.00000" pt_clust_9="23.40923"></scales>
<clustering>
<clus scale="   23.409">  2  9  1 -1</clus>
<clus scale="   93.032">  7  8 -1 -1</clus>
<clus scale="   93.097">  5  6 -1 -1</clus>
<clus scale="  102.832">  1  7  2 -1</clus>
<clus scale="   23.409">  2  5  1 -1</clus>
</clustering>
</event>
<event>
 9    1  0.1671478E-005  0.1733188E+03  0.7546771E-02  0.1175192E+00
         -1   -1    0    0    0  501 -0.00000000000E+00  0.00000000000E+00  0.27205838483E+03  0.27205838483E+03  0.00000000000E+00 0.  1.
         21   -1    0    0  501  502  0.00000000000E+00 -0.00000000000E+00 -0.14764983480E+03  0.14764983480E+03  0.00000000000E+00 0.  1.
         23    2    1    2    0    0 -0.76804295663E+02 -0.12015922467E+03  0.64305257242E+02  0.18183432810E+03  0.92689900531E+02 0.  0.
         23    2    1    2    0    0  0.39468212661E+02  0.15041875099E+03  0.28778699827E+02  0.18050794213E+03  0.87013580251E+02 0.  0.
        -11    1    3    3    0    0 -0.36228363346E+02 -0.89791911103E+02  0.83284465911E+02  0.12771602825E+03  0.00000000000E+00 0.  1.
         11    1    3    3    0    0 -0.40575932317E+02 -0.30367313567E+02 -0.18979208668E+02  0.54118299847E+02  0.00000000000E+00 0. -1.
        -13    1    4    4    0    0 -0.22075314047E+02  0.48534049448E+02 -0.12063078374E+02  0.54666180642E+02  0.00000000000E+00 0.  1.
         13    1    4    4    0    0  0.61543526707E+02  0.10188470154E+03  0.40841778201E+02  0.12584176149E+03  0.00000000000E+00 0. -1.
         -1    1    1    2    0  502  0.37336083002E+02 -0.30259526322E+02  0.31324592961E+02  0.57365949407E+02  0.00000000000E+00 0.  1.
<scales pt_clust_5="13000.00000" pt_clust_6="13000.00000" pt_clust_7="13000.00000" pt_clust_8="13000.00000" pt_clust_9="48.05855"></scales>
<clustering>
<clus scale="   48.059">  2  9  1 -1</clus>
<clus scale="   87.014">  7  8 -1 -1</clus>
<clus scale="   92.690">  5  6 -1 -1</clus>
<clus scale="  170.351">  2  7  1 -1</clus>
<clus scale="   48.059">  2  5  1 -1</clus>
</clustering>
</event>
<event>
 9    1  0.1671478E-005  0.1328017E+03  0.7546771E-02  0.1227991E+00
         21   -1    0    0  501  502  0.00000000000E+00  0.00000000000E+00  0.58873891363E+03  0.58873891363E+03  0.00000000000E+00 0. -1.
         -3   -1    0    0    0  501 -0.00000000000E+00 -0.00000000000E+00 -0.52715637145E+02  0.52715637145E+02  0.00000000000E+00 0.  1.
         23    2    1    2    0    0 -0.43605354270E+01 -0.74819740581E+02  0.50714344086E+02  0.12933104970E+03  0.92398960338E+02 0.  0.
         23    2    1    2    0    0  0.22204508031E+02  0.88319352864E+02  0.42136354016E+03  0.44437647104E+03  0.10784185999E+03 0.  0.
        -11    1    3    3    0    0 -0.25328799890E+02 -0.85849973144E+02  0.22128753785E+02  0.92203295693E+02  0.00000000000E+00 0.  1.
         11    1    3    3    0    0  0.20968264463E+02  0.11030232563E+02  0.28585590301E+02  0.37127754010E+02  0.00000000000E+00 0. -1.
        -13    1    4    4    0    0 -0.12954629023E+02 -0.17942676054E+02  0.29730067516E+02  0.37062635519E+02  0.00000000000E+00 0.  1.
         13    1    4    4    0    0  0.35159137054E+02  0.10626202892E+03  0.39163347265E+03  0.40731383552E+03  0.00000000000E+00 0. -1.
         -3    1    1    2    0  502 -0.17843972604E+02 -0.13499612283E+02  0.63945392230E+02  0.67747030027E+02  0.00000000000E+00 0.  1.
<scales pt_clust_5="13000.00000" pt_clust_6="13000.00000" pt_clust_7="13000.00000" pt_clust_8="13000.00000" pt_clust_9="22.37514"></scales>
<clustering>
<clus scale="   22.375">  1  9  2 -1</clus>
<clus scale="   92.399">  5  6 -1 -1</clus>
<clus scale="  107.842">  7  8 -1 -1</clus>
<clus scale="  120.598">  2  5  1 -1</clus>
<clus scale="   22.375">  1  5  2 -1</clus>
</clustering>
</event>
<event>
 9    1  0.1671478E-005  0.1173807E+03  0.7546771E-02  0.1248528E+00
          1   -1    0    0  502    0 -0.00000000000E+00  0.00000000000E+00  0.26199349793E+03  0.26199349793E+03  0.00000000000E+00 0. -1.
         21   -1    0    0  501  502  0.00000000000E+00 -0.00000000000E+00 -0.23972476922E+03  0.23972476922E+03  0.00000000000E+00 0. -1.
         23    2    1    2    0    0  0.72143564363E+02 -0.46901143202E+01  0.22125320112E+03  0.25061028509E+03  0.92875426960E+02 0.  0.
         23    2    1    2    0    0 -0.68090367244E+02 -0.19619054631E+02 -0.10967541004E+03  0.15846094905E+03  0.89777343425E+02 0.  0.
        -11    1    3    3    0    0  0.73547124502E-02  0.34085518076E+02  0.46872263918E+02  0.57955428748E+02  0.00000000000E+00 0.  1.
         11    1    3    3    0    0  0.72136209650E+02 -0.38775632396E+02  0.17438093720E+03  0.19265485634E+03  0.00000000000E+00 0. -1.
        -11    1    4    4    0    0 -0.61929600275E+02 -0.45012259106E+02 -0.10785843207E+03  0.13226798641E+03  0.00000000000E+00 0.  1.
         11    1    4    4    0    0 -0.61607669681E+01  0.25393204475E+02 -0.18169779653E+01  0.26192962644E+02  0.00000000000E+00 0. -1.
          1    1    1    2  501    0 -0.40531971193E+01  0.24309168952E+02 -0.89309062381E+02  0.92647033009E+02  0.00000000000E+00 0. -1.
<scales pt_clust_5="13000.00000" pt_clust_6="13000.00000" pt_clust_7="13000.00000" pt_clust_8="13000.00000" pt_clust_9="24.64476"></scales>
<clustering>
<clus scale="   24.645">  2  9  1 -1</clus>
<clus scale="   89.777">  7  8 -1 -1</clus>
<clus scale="   92.875">  5  6 -1 -1</clus>
<clus scale="  114.945">  2  7  1 -1</clus>
<clus scale="   24.645">  2  5  1 -1</clus>
</clustering>
</event>
<event>
 9    1  0.1671478E-005  0.3619117E+03  0.7546771E-02  0.1057850E+00
          2   -1    0    0  502    0 -0.00000000000E+00  0.00000000000E+00  0.81056969116E+03  0.81056969116E+03  0.00000000000E+00 0. -1.
         21   -1    0    0  501  502  0.00000000000E+00 -0.00000000000E+00 -0.20655643633E+03  0.20655643633E+03  0.00000000000E+00 0. -1.
         23    2    1    2    0    0  0.23878859842E+03  0.24595004570E+03  0.44350754108E+03  0.56787376551E+03  0.90940941515E+02 0.  0.
         23    2    1    2    0    0 -0.26513753117E+03 -0.24963757074E+03  0.17981121261E+03  0.41638039240E+03  0.91780890389E+02 0.  0.
        -13    1    4    4    0    0 -0.23893241113E+03 -0.17429818421E+03  0.14396778449E+03  0.32893050494E+03  0.00000000000E+00 0. -1.
         13    1    4    4    0    0 -0.26205120037E+02 -0.75339386525E+02  0.35843428116E+02  0.87449887463E+02  0.00000000000E+00 0.  1.
        -13    1    3    3    0    0  0.22190932239E+03  0.18766450583E+03  0.33451036074E+03  0.44312401825E+03  0.00000000000E+00 0. -1.
         13    1    3    3    0    0  0.16879276022E+02  0.58285539871E+02  0.10899718034E+03  0.12474974725E+03  0.00000000000E+00 0.  1.
          2    1    1    2  501    0  0.26348932754E+02  0.36875250400E+01 -0.19305498850E+02  0.32871969580E+02  0.00000000000E+00 0. -1.
<scales pt_clust_5="13000.00000" pt_clust_6="13000.00000" pt_clust_7="13000.00000" pt_clust_8="13000.00000" pt_clust_9="26.60572"></scales>
<clustering>
<clus scale="   26.606">  2  9  1 -1</clus>
<clus scale="   90.941">  7  8 -1 -1</clus>
<clus scale="   91.781">  5  6 -1 -1</clus>
<clus scale="  361.700">  1  7  2 -1</clus>
<clus scale="   26.606">  2  5  1 -1</clus>
</clustering>
</event>
<event>
 9    1  0.1671478E-005  0.9771536E+02  0.7546771E-02  0.1286358E+00
          1   -1    0    0  502    0 -0.00000000000E+00  0.00000000000E+00  0.34516399916E+03  0.34516399916E+03  0.00000000000E+00 0. -1.
         21   -1    0    0  501  502  0.00000000000E+00 -0.00000000000E+00 -0.92205542992E+02  0.92205542992E+02  0.00000000000E+00 0. -1.
         23    2    1    2    0    0  0.10206389258E+02  0.33327808906E+02  0.20298465252E+03  0.22550646652E+03  0.91844891286E+02 0.  0.
         23    2    1    2    0    0 -0.51628862439E-01 -0.13675606279E+02  0.11147057948E+03  0.14650879754E+03  0.94085667319E+02 0.  0.
        -11    1    3    3    0    0  0.44356837894E+02  0.15906452119E+02  0.54006490742E+02  0.71674579380E+02  0.00000000000E+00 0.  1.
         11    1    3    3    0    0 -0.34150448636E+02  0.17421356787E+02  0.14897816178E+03  0.15383188714E+03  0.00000000000E+00 0. -1.
        -13    1    4    4    0    0 -0.21069402128E+02 -0.14334873600E+02 -0.68066424955E+01  0.26376858972E+02  0.00000000000E+00 0.  1.
         13    1    4    4    0    0  0.21017773266E+02  0.65926732142E+00  0.11827722197E+03  0.12013193857E+03  0.00000000000E+00 0. -1.
          1    1    1    2  501    0 -0.10154760395E+02 -0.19652202628E+02 -0.61496775832E+02  0.65354278089E+02  0.00000000000E+00 0. -1.
<scales pt_clust_5="13000.00000" pt_clust_6="13000.00000" pt_clust_7="13000.00000" pt_clust_8="13000.00000" pt_clust_9="22.12076"></scales>
<clustering>
<clus scale="   22.121">  2  9  1 -1</clus>
<clus scale="   91.845">  5  6 -1 -1</clus>
<clus scale="   94.086">  7  8 -1 -1</clus>
<clus scale="   95.560">  1  5  2 -1</clus>
<clus scale="   22.121">  2  5  1 -1</clus>
</clustering>
</event>
<event>
 9    1  0.1671478E-005  0.1095073E+03  0.7546771E-02  0.1262892E+00
         -1   -1    0    0    0  501 -0.00000000000E+00  0.00000000000E+00  0.34426927835E+03  0.34426927835E+03  0.00000000000E+00 0.  1.
         21   -1    0    0  501  502  0.00000000000E+00 -0.00000000000E+00 -0.10397995043E+03  0.10397995043E+03  0.00000000000E+00 0. -1.
         23    2    1    2    0    0 -0.81253033580E+01  0.56565493161E+02  0.26038850884E+03  0.28084107862E+03  0.88339460809E+02 0.  0.
         23    2    1    2    0    0  0.35208237566E+02 -0.66272598265E+02  0.17635679315E+02  0.11995677618E+03  0.91907201530E+02 0.  0.
        -13    1    3    3    0    0  0.20488502757E+02 -0.28264956265E+00  0.10595285959E+02  0.23067698640E+02  0.00000000000E+00 0. -1.
         13    1    3    3    0    0 -0.28613806115E+02  0.56848142724E+02  0.24979322288E+03  0.25777337998E+03  0.00000000000E+00 0.  1.
        -13    1    4    4    0    0  0.43171439058E+01  0.21713264786E+02  0.14862293820E+02  0.26664421554E+02  0.00000000000E+00 0.  1.
         13    1    4    4    0    0  0.30891093661E+02 -0.87985863051E+02  0.27733854948E+01  0.93292354625E+02  0.00000000000E+00 0. -1.
         -1    1    1    2    0  502 -0.27082934208E+02  0.97071051032E+01 -0.37734860239E+02  0.47451373975E+02  0.00000000000E+00 0.  1.
<scales pt_clust_5="13000.00000" pt_clust_6="13000.00000" pt_clust_7="13000.00000" pt_clust_8="13000.00000" pt_clust_9="28.77001"></scales>
<clustering>
<clus scale="   28.770">  2  9  1 -1</clus>
<clus scale="   88.339">  5  6 -1 -1</clus>
<clus scale="   91.907">  7  8 -1 -1</clus>
<clus scale="  106.531">  1  5  2 -1</clus>
<clus scale="   28.770">  2  5  1 -1</clus>
</clustering>
</event>
<event>
 9    1  0.1671478E-005  0.1360343E+03  0.7546771E-02  0.1219605E+00
          1   -1    0    0  502    0 -0.00000000000E+00  0.00000000000E+00  0.63283496361E+03  0.63283496361E+03  0.00000000000E+00 0. -1.
         21   -1    0    0  501  502  0.00000000000E+00 -0.00000000000E+00 -0.50513968998E+02  0.50513968998E+02  0.00000000000E+00 0. -1.
         23    2    1    2    0    0  0.92649043578E+02  0.51397073178E+02  0.31428875389E+03  0.34321469044E+03  0.88280227153E+02 0.  0.
         23    2    1    2    0    0 -0.40707201995E+02 -0.97302305898E+02  0.17157220389E+03  0.22134963035E+03  0.91835846389E+02 0.  0.
        -11    1    4    4    0    0 -0.12563451800E+02  0.16754140850E+02  0.15741524866E+02  0.26198037366E+02  0.00000000000E+00 0.  1.
         11    1    4    4    0    0 -0.28143750195E+02 -0.11405644675E+03  0.15583067903E+03  0.19515159299E+03  0.00000000000E+00 0. -1.
        -11    1    3    3    0    0  0.52080331982E+02 -0.12614206096E+02  0.74745986592E+02  0.91969786813E+02  0.00000000000E+00 0. -1.
         11    1    3    3    0    0  0.40568711596E+02  0.64011279273E+02  0.23954276730E+03  0.25124490363E+03  0.00000000000E+00 0.  1.
          1    1    1    2  501    0 -0.51941841584E+02  0.45905232721E+02  0.96460036830E+02  0.11878461181E+03  0.00000000000E+00 0. -1.
<scales pt_clust_5="13000.00000" pt_clust_6="13000.00000" pt_clust_7="13000.00000" pt_clust_8="13000.00000" pt_clust_9="69.31988"></scales>
<clustering>
<clus scale="   69.320">  2  9  1 -1</clus>
<clus scale="   88.280">  7  8 -1 -1</clus>
<clus scale="   91.836">  5  6 -1 -1</clus>
<clus scale="  133.660">  1  7  2 -1</clus>
<clus scale="   69.320">  2  5  1 -1</clus>
</clustering>
</event>
<event>
 9    1  0.1862602E-005  0.1279224E+03  0.7546771E-02  0.1238440E+00
         -1   -1    0    0    0  501 -0.00000000000E+00  0.00000000000E+00  0.32042242769E+03  0.32042242769E+03  0.00000000000E+00 0.  1.
         21   -1    0    0  501  502  0.00000000000E+00 -0.00000000000E+00 -0.12678076584E+03  0.12678076584E+03  0.00000000000E+00 0.  1.
         23    2    1    2    0    0  0.13370371104E+02  0.29748499710E+02  0.13636240931E+03  0.18187616749E+03  0.11584685394E+03 0.  0.
         23    2    1    2    0    0 -0.18167844724E+02 -0.75464136281E+02  0.13055604980E+03  0.17882601913E+03  0.94387268899E+02 0.  0.
        -11    1    3    3    0    0  0.48029983165E+01  0.74555122555E+02  0.82954864433E+02  0.11163800708E+03  0.00000000000E+00 0. -1.
         11    1    3    3    0    0  0.85673727873E+01 -0.44806622846E+02  0.53407544881E+02  0.70238160408E+02  0.00000000000E+00 0.  1.
        -11    1    4    4    0    0 -0.17989638274E+02 -0.96617532109E+02  0.90852246102E+02  0.13383835481E+03  0.00000000000E+00 0.  1.
         11    1    4    4    0    0 -0.17820645022E+00  0.21153395828E+02  0.39703803699E+02  0.44987664318E+02  0.00000000000E+00 0. -1.
         -1    1    1    2    0  502  0.47974736204E+01  0.45715636571E+02 -0.73276797261E+02  0.86501006914E+02  0.00000000000E+00 0.  1.
<scales pt_clust_5="13000.00000" pt_clust_6="13000.00000" pt_clust_7="13000.00000" pt_clust_8="13000.00000" pt_clust_9="45.96667"></scales>
<clustering>
<clus scale="   45.967">  2  9  1 -1</clus>
<clus scale="   94.387">  7  8 -1 -1</clus>
<clus scale="  108.870">  2  7  1 -1</clus>
<clus scale="  115.847">  5  6 -1 -1</clus>
<clus scale="   45.967">  2  5  1 -1</clus>
</clustering>
</event>
<event>
 9    1  0.1671478E-005  0.2327933E+03  0.7546771E-02  0.1155865E+00
         21   -1    0    0  501  502  0.00000000000E+00  0.00000000000E+00  0.89438403107E+02  0.89438403107E+02  0.00000000000E+00 0. -1.
          2   -1    0    0  502    0 -0.00000000000E+00 -0.00000000000E+00 -0.89671672818E+03  0.89671672818E+03  0.00000000000E+00 0. -1.
         23    2    1    2    0    0  0.62551366297E+02  0.24378390722E+02 -0.13268202376E+03  0.17220249199E+03  0.86845837311E+02 0.  0.
         23    2    1    2    0    0 -0.41985675205E+02 -0.22726145552E+03 -0.40790757358E+03  0.47823346628E+03  0.94382697544E+02 0.  0.
        -11    1    3    3    0    0  0.21458806853E+02  0.34167747714E+02 -0.12218631764E+03  0.12867560606E+03  0.00000000000E+00 0. -1.
         11    1    3    3    0    0  0.41092559444E+02 -0.97893569920E+01 -0.10495706119E+02  0.43526885932E+02  0.00000000000E+00 0.  1.
        -13    1    4    4    0    0 -0.72640092121E+02 -0.15874938169E+03 -0.28486504079E+03  0.33410483479E+03  0.00000000000E+00 0. -1.
         13    1    4    4    0    0  0.30654416916E+02 -0.68512073836E+02 -0.12304253279E+03  0.14412863148E+03  0.00000000000E+00 0.  1.
          2    1    1    2  501    0 -0.20565691092E+02  0.20288306480E+03 -0.26668872773E+03  0.33571917302E+03  0.00000000000E+00 0. -1.
<scales pt_clust_5="13000.00000" pt_clust_6="13000.00000" pt_clust_7="13000.00000" pt_clust_8="13000.00000" pt_clust_9="212.80186"></scales>
<clustering>
<clus scale="   86.846">  5  6 -1 -1</clus>
<clus scale="   94.383">  7  8 -1 -1</clus>
<clus scale="  109.769">  2  5  1 -1</clus>
<clus scale="  212.802">  1  9  2 -1</clus>
<clus scale="  212.802">  1  5  2 -1</clus>
</clustering>
</event>
<event>
 9    1  0.1671478E-005  0.1055034E+03  0.7546771E-02  0.1270222E+00
         -1   -1    0    0    0  501 -0.00000000000E+00  0.00000000000E+00  0.88612309859E+02  0.88612309859E+02  0.00000000000E+00 0.  1.
         21   -1    0    0  501  502  0.00000000000E+00 -0.00000000000E+00 -0.48997602969E+03  0.48997602969E+03  0.00000000000E+00 0.  1.
         23    2    1    2    0    0  0.14008655869E+02  0.80192434036E+02 -0.19842635203E+02  0.12768630645E+03  0.96348294051E+02 0.  0.
         23    2    1    2    0    0 -0.51638280500E+01 -0.40930979753E+01 -0.42456951334E+02  0.10329043028E+03  0.93930302351E+02 0.  0.
        -11    1    4    4    0    0  0.99888641532E+01 -0.45413198635E+02 -0.75298370100E+01  0.47104505758E+02  0.00000000000E+00 0. -1.
         11    1    4    4    0    0 -0.15152692203E+02  0.41320100659E+02 -0.34927114324E+02  0.56185924523E+02  0.00000000000E+00 0.  1.
        -13    1    3    3    0    0 -0.19485530099E+01  0.96796900137E+02  0.71076870041E+00  0.96819119636E+02  0.00000000000E+00 0.  1.
         13    1    3    3    0    0  0.15957208879E+02 -0.16604466101E+02 -0.20553403903E+02  0.30867186812E+02  0.00000000000E+00 0. -1.
         -1    1    1    2    0  502 -0.88448278188E+01 -0.76099336061E+02 -0.33906413329E+03  0.34761160282E+03  0.00000000000E+00 0.  1.
<scales pt_clust_5="13000.00000" pt_clust_6="13000.00000" pt_clust_7="13000.00000" pt_clust_8="13000.00000" pt_clust_9="76.61162"></scales>
<clustering>
<clus scale="   76.612">  2  9  1 -1</clus>
<clus scale="   93.930">  5  6 -1 -1</clus>
<clus scale="   96.348">  7  8 -1 -1</clus>
<clus scale="  103.300">  2  5  1 -1</clus>
<clus scale="   76.612">  2  5  1 -1</clus>
</clustering>
</event>
<event>
 9    1  0.1671478E-005  0.1290815E+03  0.7546771E-02  0.1229171E+00
         21   -1    0    0  501  502  0.00000000000E+00  0.00000000000E+00  0.22683488365E+03  0.22683488365E+03  0.00000000000E+00 0. -1.
          1   -1    0    0  502    0 -0.00000000000E+00 -0.00000000000E+00 -0.34994434332E+03  0.34994434332E+03  0.00000000000E+00 0. -1.
         23    2    1    2    0    0  0.48852504369E+02  0.85184111025E+02 -0.16506363733E+03  0.21268675007E+03  0.91360545825E+02 0.  0.
         23    2    1    2    0    0 -0.23905142223E+02 -0.79105921247E+02 -0.13608806015E+03  0.18420819824E+03  0.92647167148E+02 0.  0.
        -13    1    4    4    0    0 -0.39084522346E+02 -0.63392691448E+02 -0.37791703294E+02  0.83513148988E+02  0.00000000000E+00 0.  1.
         13    1    4    4    0    0  0.15179380123E+02 -0.15713229799E+02 -0.98296356857E+02  0.10069504925E+03  0.00000000000E+00 0. -1.
        -13    1    3    3    0    0 -0.15595122210E+02  0.63892854581E+02 -0.72221716967E+02  0.97680505245E+02  0.00000000000E+00 0.  1.
         13    1    3    3    0    0  0.64447626579E+02  0.21291256444E+02 -0.92841920360E+02  0.11500624483E+03  0.00000000000E+00 0. -1.
          1    1    1    2  501    0 -0.24947362147E+02 -0.60781897782E+01  0.17804223780E+03  0.17988427866E+03  0.00000000000E+00 0. -1.
<scales pt_clust_5="13000.00000" pt_clust_6="13000.00000" pt_clust_7="13000.00000" pt_clust_8="13000.00000" pt_clust_9="25.67714"></scales>
<clustering>
<clus scale="   25.677">  1  9  2 -1</clus>
<clus scale="   91.361">  7  8 -1 -1</clus>
<clus scale="   92.647">  5  6 -1 -1</clus>
<clus scale="  128.161">  2  7  1 -1</clus>
<clus scale="   25.677">  1  5  2 -1</clus>
</clustering>
</event>
<event>
 9    1  0.1671478E-005  0.1032270E+03  0.7546771E-02  0.1276446E+00
          1   -1    0    0  502    0 -0.00000000000E+00  0.00000000000E+00  0.54825190499E+03  0.54825190499E+03  0.00000000000E+00 0. -1.
         21   -1    0    0  501  502  0.00000000000E+00 -0.00000000000E+00 -0.33579013568E+02  0.33579013568E+02  0.00000000000E+00 0.  1.
         23    2    1    2    0    0 -0.20613001854E+02 -0.22571051385E+02  0.28403380085E+03  0.30175206833E+03  0.97184168007E+02 0.  0.
         23    2    1    2    0    0 -0.17372668703E+02  0.55722405229E+02  0.15716190197E+03  0.19096756770E+03  0.91443711749E+02 0.  0.
        -11    1    3    3    0    0 -0.36595772264E+02  0.14497890069E+02  0.47003038116E+02  0.61308441150E+02  0.00000000000E+00 0. -1.
         11    1    3    3    0    0  0.15982770410E+02 -0.37068941454E+02  0.23703076273E+03  0.24044362718E+03  0.00000000000E+00 0.  1.
        -13    1    4    4    0    0 -0.29499357670E+02  0.36530331424E+02  0.16120867599E+03  0.16790745794E+03  0.00000000000E+00 0. -1.
         13    1    4    4    0    0  0.12126688968E+02  0.19192073805E+02 -0.40467740152E+01  0.23060109761E+02  0.00000000000E+00 0.  1.
          1    1    1    2  501    0  0.37985670556E+02 -0.33151353844E+02  0.73477188594E+02  0.89111282523E+02  0.00000000000E+00 0. -1.
<scales pt_clust_5="13000.00000" pt_clust_6="13000.00000" pt_clust_7="13000.00000" pt_clust_8="13000.00000" pt_clust_9="50.41749"></scales>
<clustering>
<clus scale="   50.417">  2  9  1 -1</clus>
<clus scale="   91.444">  7  8 -1 -1</clus>
<clus scale="   97.184">  5  6 -1 -1</clus>
<clus scale="   97.842">  2  7  1 -1</clus>
<clus scale="   50.417">  2  5  1 -1</clus>
</clustering>
</event>
<event>
 9    1  0.1671478E-005  0.8778167E+02  0.7546771E-02  0.1317692E+00
          1   -1    0    0  502    0 -0.00000000000E+00  0.00000000000E+00  0.14222488959E+03  0.14222488959E+03  0.00000000000E+00 0. -1.
         21   -1    0    0  501  502  0.00000000000E+00 -0.00000000000E+00 -0.83928372398E+02  0.83928372398E+02  0.00000000000E+00 0. -1.
         23    2    1    2    0    0  0.12717780761E+02 -0.22150026269E+01  0.24443665139E+02  0.91086986269E+02  0.86791117737E+02 0.  0.
         23    2    1    2    0    0  0.18486165337E+02 -0.30518763491E+02  0.48317714794E+01  0.81331661048E+02  0.72927085773E+02 0.  0.
        -11    1    3    3    0    0 -0.15136140248E+02 -0.38866754363E+02  0.11381620933E+02  0.43235039394E+02  0.00000000000E+00 0.  1.
         11    1    3    3    0    0  0.27853921009E+02  0.36651751736E+02  0.13062044206E+02  0.47851946875E+02  0.00000000000E+00 0. -1.
        -13    1    4    4    0    0 -0.10367159586E+02  0.17717305697E+02  0.13344243158E+02  0.24483662808E+02  0.00000000000E+00 0.  1.
         13    1    4    4    0    0  0.28853324923E+02 -0.48236069188E+02 -0.85124716788E+01  0.56847998240E+02  0.00000000000E+00 0. -1.
          1    1    1    2  501    0 -0.31203946097E+02  0.32733766118E+02  0.29021080577E+02  0.53734614674E+02  0.00000000000E+00 0. -1.
<scales pt_clust_5="13000.00000" pt_clust_6="13000.00000" pt_clust_7="13000.00000" pt_clust_8="13000.00000" pt_clust_9="45.22375"></scales>
<clustering>
<clus scale="   45.224">  2  9  1 -1</clus>
<clus scale="   72.927">  7  8 -1 -1</clus>
<clus scale="   74.103">  2  7  1 -1</clus>
<clus scale="   86.791">  5  6 -1 -1</clus>
<clus scale="   45.224">  2  5  1 -1</clus>
</clustering>
</event>
<event>
 9    1  0.1671478E-005  0.9380931E+02  0.7546771E-02  0.1294253E+00
          3   -1    0    0  502    0 -0.00000000000E+00  0.00000000000E+00  0.10408421169E+03  0.10408421169E+03  0.00000000000E+00 0. -1.
         21   -1    0    0  501  502  0.00000000000E+00 -0.00000000000E+00 -0.16536267083E+03  0.16536267083E+03  0.00000000000E+00 0.  1.
         23    2    1    2    0    0  0.60374896269E+01 -0.48455002371E+01  0.21657514258E+02  0.94666662754E+02  0.91830272566E+02 0.  0.
         23    2    1    2    0    0 -0.22677138629E+02  0.29355960966E+02 -0.13576276935E+02  0.99358683733E+02  0.91169115807E+02 0.  0.
        -13    1    3    3    0    0  0.35639347056E+02 -0.21719062367E+02 -0.15250901787E+02  0.44435016980E+02  0.00000000000E+00 0.  1.
         13    1    3    3    0    0 -0.29601857429E+02  0.16873562130E+02  0.36908416045E+02  0.50231645774E+02  0.00000000000E+00 0. -1.
        -13    1    4    4    0    0  0.22524004429E+02 -0.86342947774E+01 -0.29593229768E+02  0.38179065859E+02  0.00000000000E+00 0.  1.
         13    1    4    4    0    0 -0.45201143057E+02  0.37990255743E+02  0.16016952832E+02  0.61179617874E+02  0.00000000000E+00 0. -1.
          3    1    1    2  501    0  0.16639649002E+02 -0.24510460729E+02 -0.69359696463E+02  0.75421536033E+02  0.00000000000E+00 0. -1.
<scales pt_clust_5="13000.00000" pt_clust_6="13000.00000" pt_clust_7="13000.00000" pt_clust_8="13000.00000" pt_clust_9="29.62500"></scales>
<clustering>
<clus scale="   29.625">  2  9  1 -1</clus>
<clus scale="   91.169">  7  8 -1 -1</clus>
<clus scale="   91.830">  5  6 -1 -1</clus>
<clus scale="   93.162">  2  7  1 -1</clus>
<clus scale="   29.625">  2  5  1 -1</clus>
</clustering>
</event>
<event>
 9    1  0.1671478E-005  0.1175640E+03  0.7546771E-02  0.1247211E+00
         21   -1    0    0  501  502  0.00000000000E+00  0.00000000000E+00  0.47884138628E+02  0.47884138628E+02  0.00000000000E+00 0.  1.
          4   -1    0    0  502    0 -0.00000000000E+00 -0.00000000000E+00 -0.78009264390E+03  0.78009264390E+03  0.00000000000E+00 0. -1.
         23    2    1    2    0    0 -0.81394903457E+02 -0.25318718244E+01 -0.52149449302E+03  0.53557374380E+03  0.90836050728E+02 0.  0.
         23    2    1    2    0    0  0.62128460255E+02  0.11803498081E+02 -0.23519838949E+03  0.25989698365E+03  0.90713238016E+02 0.  0.
        -11    1    3    3    0    0 -0.62269715195E+02  0.40822627967E+02 -0.33153629565E+03  0.33979452573E+03  0.00000000000E+00 0. -1.
         11    1    3    3    0    0 -0.19125188262E+02 -0.43354499791E+02 -0.18995819738E+03  0.19577921807E+03  0.00000000000E+00 0.  1.
        -13    1    4    4    0    0  0.70090453505E+02  0.36872786777E+02 -0.20545784232E+03  0.22019354906E+03  0.00000000000E+00 0. -1.
         13    1    4    4    0    0 -0.79619932496E+01 -0.25069288696E+02 -0.29740547168E+02  0.39703434588E+02  0.00000000000E+00 0.  1.
          4    1    1    2  501    0  0.19266443202E+02 -0.92716262561E+01  0.24484377247E+02  0.32506055071E+02  0.00000000000E+00 0. -1.
<scales pt_clust_5="13000.00000" pt_clust_6="13000.00000" pt_clust_7="13000.00000" pt_clust_8="13000.00000" pt_clust_9="21.38127"></scales>
<clustering>
<clus scale="   21.381">  1  9  2 -1</clus>
<clus scale="   90.713">  7  8 -1 -1</clus>
<clus scale="   90.836">  5  6 -1 -1</clus>
<clus scale="  117.469">  1  7  2 -1</clus>
<clus scale="   21.381">  1  5  2 -1</clus>
</clustering>
</event>
<event>
 9    1  0.1671478E-005  0.9795163E+02  0.7546771E-02  0.1285902E+00
          4   -1    0    0  502    0 -0.00000000000E+00  0.00000000000E+00  0.96165781456E+02  0.96165781456E+02  0.00000000000E+00 0. -1.
         21   -1    0    0  501  502  0.00000000000E+00 -0.00000000000E+00 -0.30844248423E+03  0.30844248423E+03  0.00000000000E+00 0.  1.
         23    2    1    2    0    0  0.21219717424E+02  0.21584130771E+02  0.46201068150E+02  0.10761441083E+03  0.92358928163E+02 0.  0.
         23    2    1    2    0    0 -0.57354398425E+02 -0.65783199720E+01 -0.18123259993E+03  0.21040456007E+03  0.89955668582E+02 0.  0.
        -11    1    3    3    0    0 -0.12846144539E+02  0.37136628166E+02 -0.95634069869E+01  0.40442691976E+02  0.00000000000E+00 0.  1.
         11    1    3    3    0    0  0.34065861963E+02 -0.15552497395E+02  0.55764475137E+02  0.67171718854E+02  0.00000000000E+00 0. -1.
        -13    1    4    4    0    0 -0.78313481026E+02  0.10532087419E+02 -0.12302312567E+03  0.14621427983E+03  0.00000000000E+00 0.  1.
         13    1    4    4    0    0  0.20959082600E+02 -0.17110407391E+02 -0.58209474256E+02  0.64190280243E+02  0.00000000000E+00 0. -1.
          4    1    1    2  501    0  0.36134681002E+02 -0.15005810799E+02 -0.77245170993E+02  0.86589294781E+02  0.00000000000E+00 0. -1.
<scales pt_clust_5="13000.00000" pt_clust_6="13000.00000" pt_clust_7="13000.00000" pt_clust_8="13000.00000" pt_clust_9="39.12658"></scales>
<clustering>
<clus scale="   39.127">  2  9  1 -1</clus>
<clus scale="   89.956">  7  8 -1 -1</clus>
<clus scale="   92.359">  5  6 -1 -1</clus>
<clus scale="   95.689">  2  7  1 -1</clus>
<clus scale="   39.127">  2  5  1 -1</clus>
</clustering>
</event>
<event>
 9    1  0.1671478E-005  0.1146000E+03  0.7546771E-02  0.1252936E+00
         21   -1    0    0  501  502  0.00000000000E+00  0.00000000000E+00  0.26385109676E+03  0.26385109676E+03  0.00000000000E+00 0.  1.
          1   -1    0    0  502    0 -0.00000000000E+00 -0.00000000000E+00 -0.77845610831E+02  0.77845610831E+02  0.00000000000E+00 0. -1.
         23    2    1    2    0    0 -0.68833246525E+02 -0.49078129613E+02  0.76063688195E+02  0.14527215304E+03  0.90397097034E+02 0.  0.
         23    2    1    2    0    0  0.20692744828E+02  0.50895639386E+02  0.10103744751E+03  0.14743375238E+03  0.92247437603E+02 0.  0.
        -11    1    4    4    0    0  0.40771725121E+02 -0.67950419478E+00  0.76922590262E+02  0.87062507361E+02  0.00000000000E+00 0.  1.
         11    1    4    4    0    0 -0.20078980292E+02  0.51575143581E+02  0.24114857246E+02  0.60371245017E+02  0.00000000000E+00 0. -1.
        -13    1    3    3    0    0  0.18314148539E+02 -0.26400330163E+02  0.10216610402E+02  0.33715939814E+02  0.00000000000E+00 0. -1.
         13    1    3    3    0    0 -0.87147395064E+02 -0.22677799449E+02  0.65847077793E+02  0.11155621322E+03  0.00000000000E+00 0.  1.
          1    1    1    2  501    0  0.48140501697E+02 -0.18175097735E+01  0.89043502311E+01  0.48990802182E+02  0.00000000000E+00 0. -1.
<scales pt_clust_5="13000.00000" pt_clust_6="13000.00000" pt_clust_7="13000.00000" pt_clust_8="13000.00000" pt_clust_9="48.17482"></scales>
<clustering>
<clus scale="   48.175">  1  9  2 -1</clus>
<clus scale="   90.397">  7  8 -1 -1</clus>
<clus scale="   92.247">  5  6 -1 -1</clus>
<clus scale="  113.116">  2  7  1 -1</clus>
<clus scale="   48.175">  1  5  2 -1</clus>
</clustering>
</event>
<event>
 9    1  0.1671478E-005  0.1215416E+03  0.7546771E-02  0.1247028E+00
          2   -1    0    0  502    0 -0.00000000000E+00  0.00000000000E+00  0.30635406325E+03  0.30635406325E+03  0.00000000000E+00 0. -1.
         21   -1    0    0  501  502  0.00000000000E+00 -0.00000000000E+00 -0.18997591895E+03  0.18997591895E+03  0.00000000000E+00 0. -1.
         23    2    1    2    0    0  0.41838697197E+02 -0.31083044211E+02  0.20203358448E+03  0.22831934099E+03  0.92712027218E+02 0.  0.
         23    2    1    2    0    0 -0.71511816422E+02 -0.12463991003E+02  0.35355822628E+02  0.13602365697E+03  0.10946739288E+03 0.  0.
        -11    1    3    3    0    0 -0.24038999062E+02 -0.13849373881E+02  0.20678652960E+02  0.34601810950E+02  0.00000000000E+00 0.  1.
         11    1    3    3    0    0  0.65877696258E+02 -0.17233670330E+02  0.18135493152E+03  0.19371753004E+03  0.00000000000E+00 0. -1.
        -11    1    4    4    0    0 -0.61732835121E+02 -0.32604162928E+02 -0.23012411979E+02  0.73508812243E+02  0.00000000000E+00 0.  1.
         11    1    4    4    0    0 -0.97789813008E+01  0.20140171926E+02  0.58368234608E+02  0.62514844731E+02  0.00000000000E+00 0. -1.
          2    1    1    2  501    0  0.29673119225E+02  0.43547035214E+02 -0.12101126281E+03  0.13198698423E+03  0.00000000000E+00 0. -1.
<scales pt_clust_5="13000.00000" pt_clust_6="13000.00000" pt_clust_7="13000.00000" pt_clust_8="13000.00000" pt_clust_9="52.69571"></scales>
<clustering>
<clus scale="   52.696">  2  9  1 -1</clus>
<clus scale="   92.712">  5  6 -1 -1</clus>
<clus scale="  106.699">  1  5  2 -1</clus>
<clus scale="  109.467">  7  8 -1 -1</clus>
<clus scale="   52.696">  2  5  1 -1</clus>
</clustering>
</event>
<event>
 9    1  0.1671478E-005  0.1014246E+03  0.7546771E-02  0.1281754E+00
         21   -1    0    0  501  502  0.00000000000E+00  0.00000000000E+00  0.15743152157E+03  0.15743152157E+03  0.00000000000E+00 0.  1.
          3   -1    0    0  502    0 -0.00000000000E+00 -0.00000000000E+00 -0.99535443109E+02  0.99535443109E+02  0.00000000000E+00 0. -1.
         23    2    1    2    0    0 -0.21873842656E+02 -0.23914459409E+02  0.13226778678E+02  0.92246610098E+02  0.85347073992E+02 0.  0.
         23    2    1    2    0    0 -0.13729509272E+02  0.52571375216E+02  0.13984409379E+02  0.10967146730E+03  0.94233848041E+02 0.  0.
        -11    1    3    3    0    0 -0.47028453175E+02 -0.37932502229E+02 -0.32429488771E+00  0.60420652930E+02  0.00000000000E+00 0.  1.
         11    1    3    3    0    0  0.25154610519E+02  0.14018042820E+02  0.13551073566E+02  0.31825957168E+02  0.00000000000E+00 0. -1.
        -13    1    4    4    0    0  0.15562442451E+02  0.50520470225E+02  0.43184962382E+02  0.68260153111E+02  0.00000000000E+00 0.  1.
         13    1    4    4    0    0 -0.29291951723E+02  0.20509049915E+01 -0.29200553003E+02  0.41411314187E+02  0.00000000000E+00 0. -1.
          3    1    1    2  501    0  0.35603351928E+02 -0.28656915807E+02  0.30684890405E+02  0.55048887284E+02  0.00000000000E+00 0. -1.
<scales pt_clust_5="13000.00000" pt_clust_6="13000.00000" pt_clust_7="13000.00000" pt_clust_8="13000.00000" pt_clust_9="45.70358"></scales>
<clustering>
<clus scale="   45.704">  1  9  2 -1</clus>
<clus scale="   85.347">  5  6 -1 -1</clus>
<clus scale="   93.226">  2  5  1 -1</clus>
<clus scale="   94.234">  7  8 -1 -1</clus>
<clus scale="   45.704">  1  5  2 -1</clus>
</clustering>
</event>
<event>
 9    1  0.1671478E-005  0.1346323E+03  0.7546771E-02  0.1222937E+00
         21   -1    0    0  501  502  0.00000000000E+00  0.00000000000E+00  0.11962487446E+03  0.11962487446E+03  0.00000000000E+00 0.  1.
          2   -1    0    0  502    0 -0.00000000000E+00 -0.00000000000E+00 -0.26803921274E+03  0.26803921274E+03  0.00000000000E+00 0. -1.
         23    2    1    2    0    0  0.88644408247E+02 -0.19993901198E+02 -0.17083676309E+03  0.21549036531E+03  0.94833067653E+02 0.  0.
         23    2    1    2    0    0 -0.10551327804E+03  0.31737493478E+02 -0.25752677243E+01  0.13981085181E+03  0.86023961467E+02 0.  0.
        -11    1    3    3    0    0  0.57841377421E+02  0.35497634499E+02 -0.89587387269E+02  0.11239042199E+03  0.00000000000E+00 0.  1.
         11    1    3    3    0    0  0.30803030826E+02 -0.55491535697E+02 -0.81249375823E+02  0.10309994332E+03  0.00000000000E+00 0. -1.
        -13    1    4    4    0    0 -0.71129562418E+02  0.57024588162E+02  0.17194827314E+02  0.92773274121E+02  0.00000000000E+00 0.  1.
         13    1    4    4    0    0 -0.34383715619E+02 -0.25287094684E+02 -0.19770095038E+02  0.47037577692E+02  0.00000000000E+00 0. -1.
          2    1    1    2  501    0  0.16868869791E+02 -0.11743592280E+02  0.24997692530E+02  0.32362870075E+02  0.00000000000E+00 0. -1.
<scales pt_clust_5="13000.00000" pt_clust_6="13000.00000" pt_clust_7="13000.00000" pt_clust_8="13000.00000" pt_clust_9="20.55409"></scales>
<clustering>
<clus scale="   20.554">  1  9  2 -1</clus>
<clus scale="   86.024">  7  8 -1 -1</clus>
<clus scale="   94.833">  5  6 -1 -1</clus>
<clus scale="  128.579">  1  7  2 -1</clus>
<clus scale="   20.554">  1  5  2 -1</clus>
</clustering>
</event>
<event>
 9    1  0.1671478E-005  0.9384163E+02  0.7546771E-02  0.1293942E+00
          1   -1    0    0  502    0 -0.00000000000E+00  0.00000000000E+00  0.43524908418E+03  0.43524908418E+03  0.00000000000E+00 0. -1.
         21   -1    0    0  501  502  0.00000000000E+00 -0.00000000000E+00 -0.36263934115E+02  0.36263934115E+02  0.00000000000E+00 0.  1.
         23    2    1    2    0    0 -0.13664248737E+01 -0.17770926392E+02  0.25926880412E+03  0.27511336282E+03  0.90273898054E+02 0.  0.
         23    2    1    2    0    0  0.25885647004E+02  0.37959543752E+02  0.12669399657E+03  0.16207249264E+03  0.90028497842E+02 0.  0.
        -11    1    4    4    0    0  0.34369768221E+02  0.95736247100E+01  0.40575984442E+01  0.35908207457E+02  0.00000000000E+00 0.  1.
         11    1    4    4    0    0 -0.84841212170E+01  0.28385919042E+02  0.12263639812E+03  0.12616428519E+03  0.00000000000E+00 0. -1.
        -13    1    3    3    0    0 -0.30818542159E+01 -0.48907249516E+02  0.21770522330E+03  0.22315237201E+03  0.00000000000E+00 0. -1.
         13    1    3    3    0    0  0.17154293422E+01  0.31136323124E+02  0.41563580822E+02  0.51960990813E+02  0.00000000000E+00 0.  1.
          1    1    1    2  501    0 -0.24519222130E+02 -0.20188617360E+02  0.13022349380E+02  0.34327162833E+02  0.00000000000E+00 0. -1.
<scales pt_clust_5="13000.00000" pt_clust_6="13000.00000" pt_clust_7="13000.00000" pt_clust_8="13000.00000" pt_clust_9="31.76118"></scales>
<clustering>
<clus scale="   31.761">  2  9  1 -1</clus>
<clus scale="   90.028">  5  6 -1 -1</clus>
<clus scale="   90.274">  7  8 -1 -1</clus>
<clus scale="   93.606">  2  5  1 -1</clus>
<clus scale="   31.761">  2  5  1 -1</clus>
</clustering>
</event>
<event>
 9    1  0.1671478E-005  0.2835907E+03  0.7546771E-02  0.1094152E+00
         21   -1    0    0  501  502  0.00000000000E+00  0.00000000000E+00  0.12698543694E+03  0.12698543694E+03  0.00000000000E+00 0.  1.
          1   -1    0    0  502    0 -0.00000000000E+00 -0.00000000000E+00 -0.10273954948E+04  0.10273954948E+04  0.00000000000E+00 0. -1.
         23    2    1    2    0    0  0.19950336710E+03 -0.16298100587E+03 -0.58314017628E+03  0.64518024068E+03  0.99200181501E+02 0.  0.
         23    2    1    2    0    0 -0.21603096345E+03  0.17704308531E+03 -0.35806726856E+03  0.46299105667E+03  0.90193783123E+02 0.  0.
        -11    1    4    4    0    0 -0.67587429725E+02  0.11325786696E+03 -0.15661478681E+03  0.20475252510E+03  0.00000000000E+00 0.  1.
         11    1    4    4    0    0 -0.14844353373E+03  0.63785218351E+02 -0.20145248175E+03  0.25823853157E+03  0.00000000000E+00 0. -1.
        -13    1    3    3    0    0  0.72906419380E+02 -0.57176094997E+02 -0.10847390130E+03  0.14265706813E+03  0.00000000000E+00 0.  1.
         13    1    3    3    0    0  0.12659694772E+03 -0.10580491087E+03 -0.47466627499E+03  0.50252317255E+03  0.00000000000E+00 0. -1.
          1    1    1    2  501    0  0.16527596351E+02 -0.14062079445E+02  0.40797387024E+02  0.46209634358E+02  0.00000000000E+00 0. -1.
<scales pt_clust_5="13000.00000" pt_clust_6="13000.00000" pt_clust_7="13000.00000" pt_clust_8="13000.00000" pt_clust_9="21.70031"></scales>
<clustering>
<clus scale="   21.700">  1  9  2 -1</clus>
<clus scale="   90.194">  5  6 -1 -1</clus>
<clus scale="   99.200">  7  8 -1 -1</clus>
<clus scale="  280.567">  1  5  2 -1</clus>
<clus scale="   21.700">  1  5  2 -1</clus>
</clustering>
</event>
<event>
 9    1  0.1671478E-005  0.1262315E+03  0.7546771E-02  0.1233405E+00
         21   -1    0    0  501  502  0.00000000000E+00  0.00000000000E+00  0.36965243614E+02  0.36965243614E+02  0.00000000000E+00 0.  1.
          1   -1    0    0  502    0 -0.00000000000E+00 -0.00000000000E+00 -0.60425649087E+03  0.60425649087E+03  0.00000000000E+00 0. -1.
         23    2    1    2    0    0  0.23945123198E+02 -0.93614274038E+02 -0.37744705136E+03  0.40004399888E+03  0.90729946710E+02 0.  0.
         23    2    1    2    0    0 -0.32099381399E+02  0.64367924872E+02 -0.16487364221E+03  0.20186654868E+03  0.91614330436E+02 0.  0.
        -13    1    3    3    0    0  0.54132550452E+02 -0.61759637316E+02 -0.29988315940E+03  0.31092522430E+03  0.00000000000E+00 0.  1.
         13    1    3    3    0    0 -0.30187427254E+02 -0.31854636722E+02 -0.77563891961E+02  0.89118774571E+02  0.00000000000E+00 0. -1.
        -13    1    4    4    0    0  0.44667287030E+00  0.74980286989E+02 -0.76613325633E+02  0.10720002154E+03  0.00000000000E+00 0.  1.
         13    1    4    4    0    0 -0.32546054269E+02 -0.10612362117E+02 -0.88260316576E+02  0.94666527138E+02  0.00000000000E+00 0. -1.
          1    1    1    2  501    0  0.81542582003E+01  0.29246349167E+02 -0.24970553693E+02  0.39311186933E+02  0.00000000000E+00 0. -1.
<scales pt_clust_5="13000.00000" pt_clust_6="13000.00000" pt_clust_7="13000.00000" pt_clust_8="13000.00000" pt_clust_9="30.36183"></scales>
<clustering>
<clus scale="   30.362">  1  9  2 -1</clus>
<clus scale="   90.730">  5  6 -1 -1</clus>
<clus scale="   91.614">  7  8 -1 -1</clus>
<clus scale="  125.591">  2  5  1 -1</clus>
<clus scale="   30.362">  1  5  2 -1</clus>
</clustering>
</event>
<event>
 9    1  0.1671478E-005  0.1195201E+03  0.7546771E-02  0.1244283E+00
         21   -1    0    0  501  502  0.00000000000E+00  0.00000000000E+00  0.14594826072E+03  0.14594826072E+03  0.00000000000E+00 0.  1.
          2   -1    0    0  502    0 -0.00000000000E+00 -0.00000000000E+00 -0.35064746601E+03  0.35064746601E+03  0.00000000000E+00 0. -1.
         23    2    1    2    0    0  0.69612439312E+02  0.36737964144E+02 -0.30252871352E+03  0.32591445229E+03  0.92201073680E+02 0.  0.
         23    2    1    2    0    0 -0.49200640254E+02 -0.28455555990E+02  0.50682991312E+02  0.11864250156E+03  0.90977227370E+02 0.  0.
        -13    1    4    4    0    0 -0.29389138024E+02  0.36233975395E+01 -0.21914080006E+02  0.36838530726E+02  0.00000000000E+00 0. -1.
         13    1    4    4    0    0 -0.19811502230E+02 -0.32078953530E+02  0.72597071319E+02  0.81803970834E+02  0.00000000000E+00 0.  1.
        -13    1    3    3    0    0  0.32572766189E+02 -0.17573096157E+02 -0.20489957027E+03  0.20821535175E+03  0.00000000000E+00 0.  1.
         13    1    3    3    0    0  0.37039673123E+02  0.54311060301E+02 -0.97629143251E+02  0.11769910054E+03  0.00000000000E+00 0. -1.
          2    1    1    2  501    0 -0.20411799058E+02 -0.82824081538E+01  0.47146516921E+02  0.52038772885E+02  0.00000000000E+00 0. -1.
<scales pt_clust_5="13000.00000" pt_clust_6="13000.00000" pt_clust_7="13000.00000" pt_clust_8="13000.00000" pt_clust_9="22.02816"></scales>
<clustering>
<clus scale="   22.028">  1  9  2 -1</clus>
<clus scale="   90.977">  5  6 -1 -1</clus>
<clus scale="   92.201">  7  8 -1 -1</clus>
<clus scale="  118.579">  1  5  2 -1</clus>
<clus scale="   22.028">  1  5  2 -1</clus>
</clustering>
</event>
<event>
 9    1  0.1671478E-005  0.9819641E+02  0.7546771E-02  0.1287097E+00
          3   -1    0    0  502    0 -0.00000000000E+00  0.00000000000E+00  0.49758579880E+03  0.49758579880E+03  0.00000000000E+00 0. -1.
         21   -1    0    0  501  502  0.00000000000E+00 -0.00000000000E+00 -0.46000146228E+02  0.46000146228E+02  0.00000000000E+00 0.  1.
         23    2    1    2    0    0 -0.21881836932E+02  0.80589701910E+01  0.31683517018E+03  0.32937117075E+03  0.86931474574E+02 0.  0.
         23    2    1    2    0    0  0.67138476300E+02 -0.25707997716E+02  0.10403305952E+03  0.15674120080E+03  0.92609127035E+02 0.  0.
        -11    1    3    3    0    0  0.12459893881E+00 -0.34657822475E+02  0.72530313566E+02  0.80385487307E+02  0.00000000000E+00 0.  1.
         11    1    3    3    0    0 -0.22006435871E+02  0.42716792666E+02  0.24430485662E+03  0.24898568345E+03  0.00000000000E+00 0. -1.
        -13    1    4    4    0    0  0.52933941538E+02 -0.47749151308E+02  0.28478820126E+02  0.76766052479E+02  0.00000000000E+00 0.  1.
         13    1    4    4    0    0  0.14204534761E+02  0.22041153592E+02  0.75554239392E+02  0.79975148325E+02  0.00000000000E+00 0. -1.
          3    1    1    2  501    0 -0.45256639368E+02  0.17649027525E+02  0.30717422868E+02  0.57473573467E+02  0.00000000000E+00 0. -1.
<scales pt_clust_5="13000.00000" pt_clust_6="13000.00000" pt_clust_7="13000.00000" pt_clust_8="13000.00000" pt_clust_9="48.57625"></scales>
<clustering>
<clus scale="   48.576">  2  9  1 -1</clus>
<clus scale="   86.931">  5  6 -1 -1</clus>
<clus scale="   92.609">  7  8 -1 -1</clus>
<clus scale="   92.861">  1  5  2 -1</clus>
<clus scale="   48.576">  2  5  1 -1</clus>
</clustering>
</event>
<event>
 9    1  0.1671478E-005  0.1332232E+03  0.7546771E-02  0.1222834E+00
         -1   -1    0    0    0  501 -0.00000000000E+00  0.00000000000E+00  0.20340688943E+03  0.20340688943E+03  0.00000000000E+00 0.  1.
         21   -1    0    0  501  502  0.00000000000E+00 -0.00000000000E+00 -0.35161111560E+03  0.35161111560E+03  0.00000000000E+00 0.  1.
         23    2    1    2    0    0 -0.41926409816E+02  0.11197472288E+03  0.71456273397E+02  0.16619346406E+03  0.90653770381E+02 0.  0.
         23    2    1    2    0    0 -0.27924803063E+02 -0.81275795493E+02  0.29204273152E+02  0.12852607539E+03  0.90997323732E+02 0.  0.
        -11    1    3    3    0    0 -0.35892542609E+02  0.10971239313E+02 -0.69714460353E+01  0.38173862351E+02  0.00000000000E+00 0. -1.
         11    1    3    3    0    0 -0.60338672072E+01  0.10100348357E+03  0.78427719432E+02  0.12801960171E+03  0.00000000000E+00 0.  1.
        -13    1    4    4    0    0 -0.58574439304E+02 -0.32229790216E+02  0.21217267521E+02  0.70141975722E+02  0.00000000000E+00 0.  1.
         13    1    4    4    0    0  0.30649636241E+02 -0.49046005277E+02  0.79870056308E+01  0.58384099670E+02  0.00000000000E+00 0. -1.
         -1    1    1    2    0  502  0.69851212879E+02 -0.30698927391E+02 -0.24886477272E+03  0.26029846558E+03  0.00000000000E+00 0.  1.
<scales pt_clust_5="13000.00000" pt_clust_6="13000.00000" pt_clust_7="13000.00000" pt_clust_8="13000.00000" pt_clust_9="76.29952"></scales>
<clustering>
<clus scale="   76.300">  2  9  1 -1</clus>
<clus scale="   90.654">  5  6 -1 -1</clus>
<clus scale="   90.997">  7  8 -1 -1</clus>
<clus scale="  132.989">  1  5  2 -1</clus>
<clus scale="   76.300">  2  5  1 -1</clus>
</clustering>
</event>
<event>
 9    1  0.1671478E-005  0.2675681E+03  0.7546771E-02  0.1102695E+00
         -1   -1    0    0    0  501 -0.00000000000E+00  0.00000000000E+00  0.21950010211E+03  0.21950010211E+03  0.00000000000E+00 0.  1.
         21   -1    0    0  501  502  0.00000000000E+00 -0.00000000000E+00 -0.49585390400E+03  0.49585390400E+03  0.00000000000E+00 0.  1.
         23    2    1    2    0    0  0.27627792412E+01 -0.29008727136E+03 -0.38431657633E+02  0.30652003485E+03  0.91210095407E+02 0.  0.
         23    2    1    2    0    0 -0.54165344988E+02  0.19588619039E+03 -0.18238436525E+03  0.28800139154E+03  0.91517542907E+02 0.  0.
        -11    1    4    4    0    0  0.59803275595E+01  0.10173802396E+03 -0.46315488883E+02  0.11194424660E+03  0.00000000000E+00 0. -1.
         11    1    4    4    0    0 -0.60145672547E+02  0.94148166426E+02 -0.13606887637E+03  0.17605714494E+03  0.00000000000E+00 0.  1.
        -13    1    3    3    0    0 -0.21991899619E+02 -0.16584490468E+03 -0.60554139444E+02  0.17791846408E+03  0.00000000000E+00 0.  1.
         13    1    3    3    0    0  0.24754678860E+02 -0.12424236668E+03  0.22122481811E+02  0.12860157077E+03  0.00000000000E+00 0. -1.
         -1    1    1    2    0  502  0.51402565747E+02  0.94201080973E+02 -0.55537779002E+02  0.12083257971E+03  0.00000000000E+00 0.  1.
<scales pt_clust_5="13000.00000" pt_clust_6="13000.00000" pt_clust_7="13000.00000" pt_clust_8="13000.00000" pt_clust_9="107.31294"></scales>
<clustering>
<clus scale="   91.210">  7  8 -1 -1</clus>
<clus scale="   91.518">  5  6 -1 -1</clus>
<clus scale="  107.313">  2  9  1 -1</clus>
<clus scale="  267.463">  1  7  2 -1</clus>
<clus scale="  107.313">  2  5  1 -1</clus>
</clustering>
</event>
<event>
 9    1  0.1671478E-005  0.1316267E+03  0.7546771E-02  0.1225320E+00
          3   -1    0    0  502    0 -0.00000000000E+00  0.00000000000E+00  0.19213685350E+03  0.19213685350E+03  0.00000000000E+00 0. -1.
         21   -1    0    0  501  502  0.00000000000E+00 -0.00000000000E+00 -0.53713349722E+03  0.53713349722E+03  0.00000000000E+00 0. -1.
         23    2    1    2    0    0 -0.89552279836E+02 -0.11796652387E+02  0.12162642119E+03  0.17759820416E+03  0.92678821523E+02 0.  0.
         23    2    1    2    0    0  0.11661009653E+03 -0.58927295803E+02 -0.12773776798E+03  0.20442980069E+03  0.91674779730E+02 0.  0.
        -11    1    3    3    0    0 -0.21693469091E+02  0.34469868004E+02  0.68781859788E+02  0.79935740675E+02  0.00000000000E+00 0.  1.
         11    1    3    3    0    0 -0.67858810744E+02 -0.46266520390E+02  0.52844561405E+02  0.97662463489E+02  0.00000000000E+00 0. -1.
        -13    1    4    4    0    0 -0.46017472478E+01 -0.28635001400E+02 -0.48412792826E+02  0.56435253983E+02  0.00000000000E+00 0.  1.
         13    1    4    4    0    0  0.12121184377E+03 -0.30292294403E+02 -0.79324975153E+02  0.14799454671E+03  0.00000000000E+00 0. -1.
          3    1    1    2  501    0 -0.27057816691E+02  0.70723948190E+02 -0.33888529693E+03  0.34724234587E+03  0.00000000000E+00 0. -1.
<scales pt_clust_5="13000.00000" pt_clust_6="13000.00000" pt_clust_7="13000.00000" pt_clust_8="13000.00000" pt_clust_9="75.72320"></scales>
<clustering>
<clus scale="   75.723">  2  9  1 -1</clus>
<clus scale="   91.675">  7  8 -1 -1</clus>
<clus scale="   92.679">  5  6 -1 -1</clus>
<clus scale="  130.922">  2  7  1 -1</clus>
<clus scale="   75.723">  2  5  1 -1</clus>
</clustering>
</event>
<event>
 9    1  0.1671478E-005  0.1106940E+03  0.7546771E-02  0.1260986E+00
          1   -1    0    0  502    0 -0.00000000000E+00  0.00000000000E+00  0.51763631657E+03  0.51763631657E+03  0.00000000000E+00 0. -1.
         21   -1    0    0  501  502  0.00000000000E+00 -0.00000000000E+00 -0.91030473743E+02  0.91030473743E+02  0.00000000000E+00 0. -1.
         23    2    1    2    0    0 -0.67798905746E+02 -0.85629937183E+01  0.40419173182E+03  0.42082623470E+03  0.95151181078E+02 0.  0.
         23    2    1    2    0    0  0.18032663406E+02  0.23827639987E+02  0.69009431896E+02  0.11797774553E+03  0.90903868858E+02 0.  0.
        -11    1    4    4    0    0 -0.31433687861E+01 -0.33703880548E+02  0.18697295584E+02  0.38670676145E+02  0.00000000000E+00 0. -1.
         11    1    4    4    0    0  0.21176032192E+02  0.57531520536E+02  0.50312136312E+02  0.79307069387E+02  0.00000000000E+00 0.  1.
        -13    1    3    3    0    0  0.14826231314E+02  0.22945877118E+02  0.12560573707E+03  0.12854233386E+03  0.00000000000E+00 0.  1.
         13    1    3    3    0    0 -0.82625137060E+02 -0.31508870836E+02  0.27858599476E+03  0.29228390084E+03  0.00000000000E+00 0. -1.
          1    1    1    2  501    0  0.49766242340E+02 -0.15264646269E+02 -0.46595320894E+02  0.69862810075E+02  0.00000000000E+00 0. -1.
<scales pt_clust_5="13000.00000" pt_clust_6="13000.00000" pt_clust_7="13000.00000" pt_clust_8="13000.00000" pt_clust_9="52.05467"></scales>
<clustering>
<clus scale="   52.055">  2  9  1 -1</clus>
<clus scale="   90.904">  5  6 -1 -1</clus>
<clus scale="   95.151">  7  8 -1 -1</clus>
<clus scale="  107.065">  2  5  1 -1</clus>
<clus scale="   52.055">  2  5  1 -1</clus>
</clustering>
</event>
<event>
 9    1  0.1671478E-005  0.1175176E+03  0.7546771E-02  0.1247360E+00
         21   -1    0    0  501  502  0.00000000000E+00  0.00000000000E+00  0.14392095159E+03  0.14392095159E+03  0.00000000000E+00 0. -1.
          2   -1    0    0  502    0 -0.00000000000E+00 -0.00000000000E+00 -0.35299772361E+03  0.35299772361E+03  0.00000000000E+00 0. -1.
         23    2    1    2    0    0 -0.54521919824E+02  0.53828584345E+02 -0.30039483767E+03  0.32307170987E+03  0.90929175663E+02 0.  0.
         23    2    1    2    0    0  0.35375919586E+02 -0.45522282329E+02  0.34515856892E+02  0.11333205067E+03  0.91263768586E+02 0.  0.
        -11    1    4    4    0    0 -0.24951274000E+02 -0.38999478061E+02  0.74632112829E+01  0.46895894126E+02  0.00000000000E+00 0. -1.
         11    1    4    4    0    0  0.60327193586E+02 -0.65228042677E+01  0.27052645609E+02  0.66436156541E+02  0.00000000000E+00 0.  1.
        -13    1    3    3    0    0  0.23999292376E+02  0.10776515162E+01 -0.52257989013E+02  0.57515430826E+02  0.00000000000E+00 0.  1.
         13    1    3    3    0    0 -0.78521212200E+02  0.52750932829E+02 -0.24813684865E+03  0.26555627904E+03  0.00000000000E+00 0. -1.
          2    1    1    2  501    0  0.19146000238E+02 -0.83063020162E+01  0.56802208748E+02  0.60514914665E+02  0.00000000000E+00 0. -1.
<scales pt_clust_5="13000.00000" pt_clust_6="13000.00000" pt_clust_7="13000.00000" pt_clust_8="13000.00000" pt_clust_9="20.87017"></scales>
<clustering>
<clus scale="   20.870">  1  9  2 -1</clus>
<clus scale="   90.929">  7  8 -1 -1</clus>
<clus scale="   91.264">  5  6 -1 -1</clus>
<clus scale="  117.258">  2  7  1 -1</clus>
<clus scale="   20.870">  1  5  2 -1</clus>
</clustering>
</event>
<event>
 9    1  0.1671478E-005  0.2076137E+03  0.7546771E-02  0.1164937E+00
         -3   -1    0    0    0  501 -0.00000000000E+00  0.00000000000E+00  0.34823845044E+03  0.34823845044E+03  0.00000000000E+00 0.  1.
         21   -1    0    0  501  502  0.00000000000E+00 -0.00000000000E+00 -0.75840058680E+03  0.75840058680E+03  0.00000000000E+00 0.  1.
         23    2    1    2    0    0  0.62199939594E+02 -0.63827609357E+02  0.26415219875E+03  0.29236649280E+03  0.88085105449E+02 0.  0.
         23    2    1    2    0    0  0.11691525957E+03 -0.11338537553E+03 -0.40662637133E+03  0.44665379828E+03  0.87345225115E+02 0.  0.
        -13    1    3    3    0    0  0.22680664020E+02 -0.13117747003E+02  0.67492804696E+01  0.27056248699E+02  0.00000000000E+00 0. -1.
         13    1    3    3    0    0  0.39519275574E+02 -0.50709862354E+02  0.25740291828E+03  0.26531024410E+03  0.00000000000E+00 0.  1.
        -13    1    4    4    0    0 -0.87947809305E+01 -0.36205043540E+02 -0.85757883145E+02  0.93501699829E+02  0.00000000000E+00 0.  1.
         13    1    4    4    0    0  0.12571004050E+03 -0.77180331992E+02 -0.32086848818E+03  0.35315209845E+03  0.00000000000E+00 0. -1.
         -3    1    1    2    0  502 -0.17911519916E+03  0.17721298489E+03 -0.26768796378E+03  0.36761874617E+03  0.00000000000E+00 0.  1.
<scales pt_clust_5="13000.00000" pt_clust_6="13000.00000" pt_clust_7="13000.00000" pt_clust_8="13000.00000" pt_clust_9="188.34618"></scales>
<clustering>
<clus scale="   87.345">  7  8 -1 -1</clus>
<clus scale="   88.085">  5  6 -1 -1</clus>
<clus scale="  125.307">  1  5  2 -1</clus>
<clus scale="  188.346">  2  9  1 -1</clus>
<clus scale="  188.346">  2  5  1 -1</clus>
</clustering>
</event>
<event>
 9    1  0.1671478E-005  0.1021567E+03  0.7546771E-02  0.1275955E+00
         21   -1    0    0  501  502  0.00000000000E+00  0.00000000000E+00  0.80679944243E+03  0.80679944243E+03  0.00000000000E+00 0.  1.
         -1   -1    0    0    0  501 -0.00000000000E+00 -0.00000000000E+00 -0.47585339297E+02  0.47585339297E+02  0.00000000000E+00 0.  1.
         23    2    1    2    0    0  0.30183079824E+02  0.70802095944E+01  0.71429758374E+02  0.12016196942E+03  0.91517980955E+02 0.  0.
         23    2    1    2    0    0 -0.11379609718E+03 -0.46746609576E+02  0.52489936059E+03  0.54688333962E+03  0.91800060813E+02 0.  0.
        -13    1    3    3    0    0 -0.26471957377E+02 -0.99983448919E+01  0.49573761889E+02  0.57081426890E+02  0.00000000000E+00 0.  1.
         13    1    3    3    0    0  0.56655037201E+02  0.17078554486E+02  0.21855996485E+02  0.63080542530E+02  0.00000000000E+00 0. -1.
        -13    1    4    4    0    0 -0.48220227908E+02 -0.56864918104E+02  0.16702938090E+03  0.18291425143E+03  0.00000000000E+00 0. -1.
         13    1    4    4    0    0 -0.65575869273E+02  0.10118308528E+02  0.35786997968E+03  0.36396908819E+03  0.00000000000E+00 0.  1.
         -1    1    1    2    0  502  0.83613017357E+02  0.39666399981E+02  0.16288498417E+03  0.18733947269E+03  0.00000000000E+00 0.  1.
<scales pt_clust_5="13000.00000" pt_clust_6="13000.00000" pt_clust_7="13000.00000" pt_clust_8="13000.00000" pt_clust_9="92.54495"></scales>
<clustering>
<clus scale="   91.518">  5  6 -1 -1</clus>
<clus scale="   91.800">  7  8 -1 -1</clus>
<clus scale="   92.545">  1  9  2 -1</clus>
<clus scale="  101.903">  2  5  1 -1</clus>
<clus scale="   92.545">  1  5  2 -1</clus>
</clustering>
</event>
<event>
 9    1  0.1671478E-005  0.9675302E+02  0.7546771E-02  0.1290018E+00
          1   -1    0    0  502    0 -0.00000000000E+00  0.00000000000E+00  0.32255500355E+03  0.32255500355E+03  0.00000000000E+00 0. -1.
         21   -1    0    0  501  502  0.00000000000E+00 -0.00000000000E+00 -0.28367196550E+03  0.28367196550E+03  0.00000000000E+00 0. -1.
         23    2    1    2    0    0 -0.28874049274E+02 -0.45118149130E+00  0.20729799795E+03  0.22685895981E+03  0.87513504123E+02 0.  0.
         23    2    1    2    0    0  0.77281610976E+01 -0.63643749758E+02  0.69312395477E+02  0.13224535893E+03  0.92597923494E+02 0.  0.
        -11    1    4    4    0    0  0.23127104077E+02 -0.81815607314E+02  0.67126158901E+02  0.10832625606E+03  0.00000000000E+00 0. -1.
         11    1    4    4    0    0 -0.15398942979E+02  0.18171857556E+02  0.21862365760E+01  0.23919102874E+02  0.00000000000E+00 0.  1.
        -13    1    3    3    0    0 -0.39926937897E+02  0.33518902470E+02  0.15494203818E+03  0.16347694757E+03  0.00000000000E+00 0. -1.
         13    1    3    3    0    0  0.11052888623E+02 -0.33970083961E+02  0.52355959775E+02  0.63382012237E+02  0.00000000000E+00 0.  1.
          1    1    1    2  501    0  0.21145888176E+02  0.64094931250E+02 -0.23772735538E+03  0.24712265030E+03  0.00000000000E+00 0. -1.
<scales pt_clust_5="13000.00000" pt_clust_6="13000.00000" pt_clust_7="13000.00000" pt_clust_8="13000.00000" pt_clust_9="67.49303"></scales>
<clustering>
<clus scale="   67.493">  2  9  1 -1</clus>
<clus scale="   87.514">  7  8 -1 -1</clus>
<clus scale="   91.899">  1  7  2 -1</clus>
<clus scale="   92.598">  5  6 -1 -1</clus>
<clus scale="   67.493">  2  5  1 -1</clus>
</clustering>
</event>
<event>
 9    1  0.1671478E-005  0.3229724E+03  0.7546771E-02  0.1107715E+00
         21   -1    0    0  501  502  0.00000000000E+00  0.00000000000E+00  0.12202223086E+03  0.12202223086E+03  0.00000000000E+00 0. -1.
          1   -1    0    0  502    0 -0.00000000000E+00 -0.00000000000E+00 -0.20949360049E+04  0.20949360049E+04  0.00000000000E+00 0. -1.
         23    2    1    2    0    0  0.66286147410E+02 -0.65361401837E+02 -0.35646440415E+03  0.38070368448E+03  0.95929441572E+02 0.  0.
         23    2    1    2    0    0 -0.19945402661E+03  0.32785331202E+03 -0.14390874883E+04  0.14926080411E+04  0.98164465075E+02 0.  0.
        -11    1    3    3    0    0  0.26380155749E+02 -0.22902307306E+02 -0.22184555739E+02  0.41383363935E+02  0.00000000000E+00 0.  1.
         11    1    3    3    0    0  0.39905991661E+02 -0.42459094530E+02 -0.33427984842E+03  0.33932032055E+03  0.00000000000E+00 0. -1.
        -13    1    4    4    0    0 -0.66721802962E+01  0.83459754875E+02 -0.26163420573E+03  0.27470439800E+03  0.00000000000E+00 0.  1.
         13    1    4    4    0    0 -0.19278184632E+03  0.24439355715E+03 -0.11774532826E+04  0.12179036431E+04  0.00000000000E+00 0. -1.
          1    1    1    2  501    0  0.13316787920E+03 -0.26249191019E+03 -0.17736188158E+03  0.34364651025E+03  0.00000000000E+00 0. -1.
<scales pt_clust_5="13000.00000" pt_clust_6="13000.00000" pt_clust_7="13000.00000" pt_clust_8="13000.00000" pt_clust_9="307.69290"></scales>
<clustering>
<clus scale="   95.929">  5  6 -1 -1</clus>
<clus scale="   98.164">  7  8 -1 -1</clus>
<clus scale="  133.673">  2  5  1 -1</clus>
<clus scale="  307.693">  1  9  2 -1</clus>
<clus scale="  307.693">  1  5  2 -1</clus>
</clustering>
</event>
<event>
 9    1  0.1671478E-005  0.1367828E+03  0.7546771E-02  0.1218924E+00
         -1   -1    0    0    0  501 -0.00000000000E+00  0.00000000000E+00  0.13088669180E+03  0.13088669180E+03  0.00000000000E+00 0.  1.
         21   -1    0    0  501  502  0.00000000000E+00 -0.00000000000E+00 -0.19891709621E+03  0.19891709621E+03  0.00000000000E+00 0.  1.
         23    2    1    2    0    0  0.46716701878E+02  0.89159630078E+02  0.21323074270E+02  0.13782571683E+03  0.91702589129E+02 0.  0.
         23    2    1    2    0    0 -0.67731621093E+02 -0.64429304516E+02 -0.56549211527E+02  0.14583334478E+03  0.96596290558E+02 0.  0.
        -11    1    4    4    0    0 -0.82679801679E+02 -0.33860819699E+02 -0.12566386470E+02  0.90224269381E+02  0.00000000000E+00 0.  1.
         11    1    4    4    0    0  0.14948180587E+02 -0.30568484817E+02 -0.43982825057E+02  0.55609075400E+02  0.00000000000E+00 0. -1.
        -13    1    3    3    0    0  0.71575053516E+02  0.50159230941E+02  0.26394413849E+02  0.91299517068E+02  0.00000000000E+00 0.  1.
         13    1    3    3    0    0 -0.24858351638E+02  0.39000399137E+02 -0.50713395790E+01  0.46526199760E+02  0.00000000000E+00 0. -1.
         -1    1    1    2    0  502  0.21014919215E+02 -0.24730325562E+02 -0.32804267153E+02  0.46144726410E+02  0.00000000000E+00 0.  1.
<scales pt_clust_5="13000.00000" pt_clust_6="13000.00000" pt_clust_7="13000.00000" pt_clust_8="13000.00000" pt_clust_9="32.45329"></scales>
<clustering>
<clus scale="   32.453">  2  9  1 -1</clus>
<clus scale="   91.703">  7  8 -1 -1</clus>
<clus scale="   96.596">  5  6 -1 -1</clus>
<clus scale="  133.372">  1  7  2 -1</clus>
<clus scale="   32.453">  2  5  1 -1</clus>
</clustering>
</event>
<event>
 9    1  0.1671478E-005  0.1098962E+03  0.7546771E-02  0.1262700E+00
         21   -1    0    0  501  502  0.00000000000E+00  0.00000000000E+00  0.32874604009E+03  0.32874604009E+03  0.00000000000E+00 0. -1.
         -4   -1    0    0    0  501 -0.00000000000E+00 -0.00000000000E+00 -0.82118207568E+02  0.82118207568E+02  0.00000000000E+00 0.  1.
         23    2    1    2    0    0  0.41887067605E+02  0.59474930019E+02 -0.12797728344E+02  0.11649532056E+03  0.90086536885E+02 0.  0.
         23    2    1    2    0    0 -0.26106882059E+02 -0.25013381084E+02  0.12993186363E+03  0.15944216832E+03  0.85042797042E+02 0.  0.
        -11    1    4    4    0    0  0.22996360831E+02 -0.50767148867E+01  0.90152219262E+02  0.93177402215E+02  0.00000000000E+00 0. -1.
         11    1    4    4    0    0 -0.49103242890E+02 -0.19936666198E+02  0.39779644371E+02  0.66264766110E+02  0.00000000000E+00 0.  1.
        -11    1    3    3    0    0  0.47990626395E+02  0.28396702345E+02  0.29947148015E+02  0.63295375819E+02  0.00000000000E+00 0.  1.
         11    1    3    3    0    0 -0.61035587899E+01  0.31078227674E+02 -0.42744876359E+02  0.53199944739E+02  0.00000000000E+00 0. -1.
         -4    1    1    2    0  502 -0.15780185546E+02 -0.34461548935E+02  0.12949369724E+03  0.13492675878E+03  0.00000000000E+00 0.  1.
<scales pt_clust_5="13000.00000" pt_clust_6="13000.00000" pt_clust_7="13000.00000" pt_clust_8="13000.00000" pt_clust_9="37.90267"></scales>
<clustering>
<clus scale="   37.903">  1  9  2 -1</clus>
<clus scale="   85.043">  5  6 -1 -1</clus>
<clus scale="   90.087">  7  8 -1 -1</clus>
<clus scale="  105.801">  1  5  2 -1</clus>
<clus scale="   37.903">  1  5  2 -1</clus>
</clustering>
</event>
<event>
 9    1  0.1671478E-005  0.1152597E+03  0.7546771E-02  0.1251388E+00
         21   -1    0    0  501  502  0.00000000000E+00  0.00000000000E+00  0.15105669575E+03  0.15105669575E+03  0.00000000000E+00 0. -1.
          1   -1    0    0  502    0 -0.00000000000E+00 -0.00000000000E+00 -0.16237009844E+03  0.16237009844E+03  0.00000000000E+00 0. -1.
         23    2    1    2    0    0 -0.10393379548E+02 -0.70152354415E+02 -0.57803157428E+02  0.12883847537E+03  0.90712582137E+02 0.  0.
         23    2    1    2    0    0  0.49233196372E+02  0.57812288563E+02 -0.49285675640E+01  0.11897846845E+03  0.91462652723E+02 0.  0.
        -11    1    3    3    0    0 -0.39417074123E+02 -0.22626322082E+02 -0.57315754637E+02  0.73148833982E+02  0.00000000000E+00 0.  1.
         11    1    3    3    0    0  0.29023694575E+02 -0.47526032333E+02 -0.48740279114E+00  0.55689641385E+02  0.00000000000E+00 0. -1.
        -13    1    4    4    0    0 -0.25671381564E+02  0.23530947711E+02  0.76294042559E+01  0.35650149240E+02  0.00000000000E+00 0.  1.
         13    1    4    4    0    0  0.74904577936E+02  0.34281340852E+02 -0.12557971820E+02  0.83328319211E+02  0.00000000000E+00 0. -1.
          1    1    1    2  501    0 -0.38839816824E+02  0.12340065852E+02  0.51418322303E+02  0.65609850362E+02  0.00000000000E+00 0. -1.
<scales pt_clust_5="13000.00000" pt_clust_6="13000.00000" pt_clust_7="13000.00000" pt_clust_8="13000.00000" pt_clust_9="40.75302"></scales>
<clustering>
<clus scale="   40.753">  1  9  2 -1</clus>
<clus scale="   90.713">  5  6 -1 -1</clus>
<clus scale="   91.463">  7  8 -1 -1</clus>
<clus scale="  114.665">  2  5  1 -1</clus>
<clus scale="   40.753">  1  5  2 -1</clus>
</clustering>
</event>
<event>
 9    1  0.1671478E-005  0.1676654E+03  0.7546771E-02  0.1180643E+00
         21   -1    0    0  501  502  0.00000000000E+00  0.00000000000E+00  0.38273675376E+03  0.38273675376E+03  0.00000000000E+00 0. -1.
         -1   -1    0    0    0  501 -0.00000000000E+00 -0.00000000000E+00 -0.23946143206E+03  0.23946143206E+03  0.00000000000E+00 0.  1.
         23    2    1    2    0    0  0.12332679000E+03 -0.71302693258E+02 -0.17772740399E+03  0.24531558157E+03  0.91099578675E+02 0.  0.
         23    2    1    2    0    0 -0.81303300826E+02  0.79248139915E+02  0.28616565149E+03  0.32172169869E+03  0.93400090515E+02 0.  0.
        -11    1    3    3    0    0 -0.83095667315E+01 -0.28722572341E+02 -0.41530761130E+02  0.51174595076E+02  0.00000000000E+00 0. -1.
         11    1    3    3    0    0  0.13163635673E+03 -0.42580120917E+02 -0.13619664286E+03  0.19414098649E+03  0.00000000000E+00 0.  1.
        -11    1    4    4    0    0  0.55540911952E+01  0.35441217424E+02  0.26996377808E+02  0.44896906755E+02  0.00000000000E+00 0.  1.
         11    1    4    4    0    0 -0.86857392021E+02  0.43806922491E+02  0.25916927368E+03  0.27682479193E+03  0.00000000000E+00 0. -1.
         -1    1    1    2    0  502 -0.42023489172E+02 -0.79454466569E+01  0.34837074198E+02  0.55160905571E+02  0.00000000000E+00 0.  1.
<scales pt_clust_5="13000.00000" pt_clust_6="13000.00000" pt_clust_7="13000.00000" pt_clust_8="13000.00000" pt_clust_9="42.76802"></scales>
<clustering>
<clus scale="   42.768">  1  9  2 -1</clus>
<clus scale="   91.100">  5  6 -1 -1</clus>
<clus scale="   93.400">  7  8 -1 -1</clus>
<clus scale="  166.395">  2  5  1 -1</clus>
<clus scale="   42.768">  1  5  2 -1</clus>
</clustering>
</event>
<event>
 9    1  0.1671478E-005  0.1031431E+03  0.7546771E-02  0.1274130E+00
         -4   -1    0    0    0  501 -0.00000000000E+00  0.00000000000E+00  0.15572888861E+03  0.15572888861E+03  0.00000000000E+00 0.  1.
         21   -1    0    0  501  502  0.00000000000E+00 -0.00000000000E+00 -0.10966442936E+03  0.10966442936E+03  0.00000000000E+00 0. -1.
         23    2    1    2    0    0 -0.13143675163E+02  0.38816696903E+02  0.55079302635E+02  0.11460182061E+03  0.91762495353E+02 0.  0.
         23    2    1    2    0    0  0.37566255225E+02 -0.44451175125E+02  0.22625174760E+02  0.11042690260E+03  0.91077284668E+02 0.  0.
        -11    1    3    3    0    0 -0.12181693974E+01  0.68447025217E+02  0.39917257348E+02  0.79245609544E+02  0.00000000000E+00 0.  1.
         11    1    3    3    0    0 -0.11925505765E+02 -0.29630328314E+02  0.15162045287E+02  0.35356211068E+02  0.00000000000E+00 0. -1.
        -13    1    4    4    0    0  0.36128930746E+02  0.11085652634E+02  0.37161105616E+02  0.53001312264E+02  0.00000000000E+00 0.  1.
         13    1    4    4    0    0  0.14373244793E+01 -0.55536827759E+02 -0.14535930855E+02  0.57425590332E+02  0.00000000000E+00 0. -1.
         -4    1    1    2    0  502 -0.24422580062E+02  0.56344782221E+01 -0.31640018153E+02  0.40364594764E+02  0.00000000000E+00 0.  1.
<scales pt_clust_5="13000.00000" pt_clust_6="13000.00000" pt_clust_7="13000.00000" pt_clust_8="13000.00000" pt_clust_9="25.06411"></scales>
<clustering>
<clus scale="   25.064">  2  9  1 -1</clus>
<clus scale="   91.077">  7  8 -1 -1</clus>
<clus scale="   91.762">  5  6 -1 -1</clus>
<clus scale="  102.534">  2  7  1 -1</clus>
<clus scale="   25.064">  2  5  1 -1</clus>
</clustering>
</event>
<event>
 9    1  0.1671478E-005  0.9886009E+02  0.7546771E-02  0.1284374E+00
          1   -1    0    0  502    0 -0.00000000000E+00  0.00000000000E+00  0.10514496872E+03  0.10514496872E+03  0.00000000000E+00 0. -1.
         21   -1    0    0  501  502  0.00000000000E+00 -0.00000000000E+00 -0.13204401580E+03  0.13204401580E+03  0.00000000000E+00 0.  1.
         23    2    1    2    0    0 -0.94970437364E+01 -0.25026145408E+02 -0.58801785491E+00  0.99653116683E+02  0.95989041593E+02 0.  0.
         23    2    1    2    0    0  0.31497969134E+02 -0.11490938612E+01 -0.70499295131E+01  0.98290819346E+02  0.92832866946E+02 0.  0.
        -11    1    3    3    0    0  0.15114373549E+02 -0.52736972010E+02 -0.19273186374E+02  0.58147125617E+02  0.00000000000E+00 0.  1.
         11    1    3    3    0    0 -0.24611417285E+02  0.27710826602E+02  0.18685168519E+02  0.41505991066E+02  0.00000000000E+00 0. -1.
        -13    1    4    4    0    0  0.64512609640E+02 -0.46119700924E+01 -0.19586172790E+01  0.64706902663E+02  0.00000000000E+00 0.  1.
         13    1    4    4    0    0 -0.33014640505E+02  0.34628762312E+01 -0.50913122341E+01  0.33583916683E+02  0.00000000000E+00 0. -1.
          1    1    1    2  501    0 -0.22000925398E+02  0.26175239269E+02 -0.19261099707E+02  0.39245048491E+02  0.00000000000E+00 0. -1.
<scales pt_clust_5="13000.00000" pt_clust_6="13000.00000" pt_clust_7="13000.00000" pt_clust_8="13000.00000" pt_clust_9="34.19333"></scales>
<clustering>
<clus scale="   34.193">  2  9  1 -1</clus>
<clus scale="   92.833">  7  8 -1 -1</clus>
<clus scale="   95.799">  2  7  1 -1</clus>
<clus scale="   95.989">  5  6 -1 -1</clus>
<clus scale="   34.193">  2  5  1 -1</clus>
</clustering>
</event>
<event>
 9    1  0.1671478E-005  0.1096669E+03  0.7546771E-02  0.1261617E+00
         21   -1    0    0  501  502  0.00000000000E+00  0.00000000000E+00  0.13120983530E+03  0.13120983530E+03  0.00000000000E+00 0. -1.
         -1   -1    0    0    0  501 -0.00000000000E+00 -0.00000000000E+00 -0.27436918963E+03  0.27436918963E+03  0.00000000000E+00 0.  1.
         23    2    1    2    0    0 -0.61446056897E+02 -0.38565627918E+00 -0.20718465267E+03  0.23389301199E+03  0.89468956169E+02 0.  0.
         23    2    1    2    0    0  0.62614811861E+02  0.23546584406E+02  0.10188383907E+02  0.11306683574E+03  0.90582834339E+02 0.  0.
        -11    1    4    4    0    0 -0.11889132216E+02  0.18923995435E+02  0.28489046181E+02  0.36209043351E+02  0.00000000000E+00 0. -1.
         11    1    4    4    0    0  0.74503944077E+02  0.46225889705E+01 -0.18300662274E+02  0.76857792392E+02  0.00000000000E+00 0.  1.
        -11    1    3    3    0    0 -0.58199118353E+02  0.34726128258E+02 -0.16812879830E+03  0.18127419612E+03  0.00000000000E+00 0. -1.
         11    1    3    3    0    0 -0.32469385443E+01 -0.35111784538E+02 -0.39055854368E+02  0.52618815872E+02  0.00000000000E+00 0.  1.
         -1    1    1    2    0  502 -0.11687549640E+01 -0.23160928127E+02  0.53836914426E+02  0.58619177193E+02  0.00000000000E+00 0.  1.
<scales pt_clust_5="13000.00000" pt_clust_6="13000.00000" pt_clust_7="13000.00000" pt_clust_8="13000.00000" pt_clust_9="23.19040"></scales>
<clustering>
<clus scale="   23.190">  1  9  2 -1</clus>
<clus scale="   89.469">  7  8 -1 -1</clus>
<clus scale="   90.583">  5  6 -1 -1</clus>
<clus scale="  108.749">  2  7  1 -1</clus>
<clus scale="   23.190">  1  5  2 -1</clus>
</clustering>
</event>
<event>
 9    1  0.1671478E-005  0.1867670E+03  0.7546771E-02  0.1162945E+00
          1   -1    0    0  502    0 -0.00000000000E+00  0.00000000000E+00  0.56687045755E+02  0.56687045755E+02  0.00000000000E+00 0. -1.
         21   -1    0    0  501  502  0.00000000000E+00 -0.00000000000E+00 -0.85525756709E+03  0.85525756709E+03  0.00000000000E+00 0. -1.
         23    2    1    2    0    0 -0.13996557820E+03  0.38127522424E+02 -0.20149164072E+03  0.26478920534E+03  0.92034618145E+02 0.  0.
         23    2    1    2    0    0  0.16774951307E+03 -0.42302217342E+02 -0.40020078469E+03  0.44828268497E+03  0.10424644287E+03 0.  0.
        -13    1    4    4    0    0  0.17721014711E+03 -0.20721709431E+02 -0.35301178367E+03  0.39553779199E+03  0.00000000000E+00 0. -1.
         13    1    4    4    0    0 -0.94606340451E+01 -0.21580507912E+02 -0.47189001018E+02  0.52744892978E+02  0.00000000000E+00 0.  1.
        -13    1    3    3    0    0 -0.16863181710E+02 -0.17752086498E+02 -0.77759795959E+02  0.81523550830E+02  0.00000000000E+00 0.  1.
         13    1    3    3    0    0 -0.12310239649E+03  0.55879608922E+02 -0.12373184476E+03  0.18326565451E+03  0.00000000000E+00 0. -1.
          1    1    1    2  501    0 -0.27783934871E+02  0.41746949183E+01 -0.19687809592E+03  0.19887272254E+03  0.00000000000E+00 0. -1.
<scales pt_clust_5="13000.00000" pt_clust_6="13000.00000" pt_clust_7="13000.00000" pt_clust_8="13000.00000" pt_clust_9="28.09582"></scales>
<clustering>
<clus scale="   28.096">  2  9  1 -1</clus>
<clus scale="   92.035">  7  8 -1 -1</clus>
<clus scale="  104.246">  5  6 -1 -1</clus>
<clus scale="  180.236">  1  7  2 -1</clus>
<clus scale="   28.096">  2  5  1 -1</clus>
</clustering>
</event>
<event>
 9    1  0.1671478E-005  0.1459924E+03  0.7546771E-02  0.1215908E+00
         21   -1    0    0  501  502  0.00000000000E+00  0.00000000000E+00  0.11366185280E+04  0.11366185280E+04  0.00000000000E+00 0. -1.
          1   -1    0    0  502    0 -0.00000000000E+00 -0.00000000000E+00 -0.47605891987E+02  0.47605891987E+02  0.00000000000E+00 0. -1.
         23    2    1    2    0    0  0.73402422464E+02  0.87273069253E+01  0.86824175879E+02  0.14561001211E+03  0.90552507413E+02 0.  0.
         23    2    1    2    0    0 -0.60137617347E+02  0.10776945224E+03  0.50423638548E+03  0.52704455086E+03  0.91054040551E+02 0.  0.
        -11    1    4    4    0    0 -0.16754657353E+02  0.10090593511E+03  0.41716394390E+03  0.42952122459E+03  0.00000000000E+00 0.  1.
         11    1    4    4    0    0 -0.43382959994E+02  0.68635171271E+01  0.87072441573E+02  0.97523326269E+02  0.00000000000E+00 0. -1.
        -13    1    3    3    0    0  0.26892218897E+01 -0.28654837939E+02  0.17419109979E+01  0.28833416474E+02  0.00000000000E+00 0.  1.
         13    1    3    3    0    0  0.70713200575E+02  0.37382144864E+02  0.85082264881E+02  0.11677659563E+03  0.00000000000E+00 0. -1.
          1    1    1    2  501    0 -0.13264805118E+02 -0.11649675917E+03  0.49795207464E+03  0.51156985699E+03  0.00000000000E+00 0. -1.
<scales pt_clust_5="13000.00000" pt_clust_6="13000.00000" pt_clust_7="13000.00000" pt_clust_8="13000.00000" pt_clust_9="114.11805"></scales>
<clustering>
<clus scale="   90.553">  7  8 -1 -1</clus>
<clus scale="   91.054">  5  6 -1 -1</clus>
<clus scale="  116.892">  2  7  1 -1</clus>
<clus scale="  114.118">  1  9  2 -1</clus>
<clus scale="  114.118">  1  5  2 -1</clus>
</clustering>
</event>
<event>
 9    1  0.1671478E-005  0.1030997E+03  0.7546771E-02  0.1274927E+00
         21   -1    0    0  501  502  0.00000000000E+00  0.00000000000E+00  0.11207404531E+03  0.11207404531E+03  0.00000000000E+00 0.  1.
          2   -1    0    0  502    0 -0.00000000000E+00 -0.00000000000E+00 -0.13571452354E+03  0.13571452354E+03  0.00000000000E+00 0. -1.
         23    2    1    2    0    0  0.89534219537E+00 -0.34839692916E+02 -0.11510921065E+02  0.98409609607E+02  0.91309058253E+02 0.  0.
         23    2    1    2    0    0  0.19486014305E+02  0.63472114536E+02  0.29891522128E+01  0.11111944234E+03  0.89051565721E+02 0.  0.
        -11    1    4    4    0    0  0.38284160070E+02  0.26997965350E+02  0.35491966407E+02  0.58772840026E+02  0.00000000000E+00 0.  1.
         11    1    4    4    0    0 -0.18798145765E+02  0.36474149185E+02 -0.32502814194E+02  0.52346602311E+02  0.00000000000E+00 0. -1.
        -11    1    3    3    0    0  0.21518991290E+02 -0.16823763156E+02  0.35023414613E+02  0.44415600457E+02  0.00000000000E+00 0.  1.
         11    1    3    3    0    0 -0.20623649094E+02 -0.18015929760E+02 -0.46534335677E+02  0.53994009149E+02  0.00000000000E+00 0. -1.
          2    1    1    2  501    0 -0.20381356500E+02 -0.28632421620E+02 -0.15118709378E+02  0.38259516906E+02  0.00000000000E+00 0. -1.
<scales pt_clust_5="13000.00000" pt_clust_6="13000.00000" pt_clust_7="13000.00000" pt_clust_8="13000.00000" pt_clust_9="35.14565"></scales>
<clustering>
<clus scale="   35.146">  1  9  2 -1</clus>
<clus scale="   89.052">  5  6 -1 -1</clus>
<clus scale="   91.309">  7  8 -1 -1</clus>
<clus scale="  101.106">  1  5  2 -1</clus>
<clus scale="   35.146">  1  5  2 -1</clus>
</clustering>
</event>
<event>
 9    1  0.1671478E-005  0.1869494E+03  0.7546771E-02  0.1190708E+00
         21   -1    0    0  501  502  0.00000000000E+00  0.00000000000E+00  0.15584689901E+04  0.15584689901E+04  0.00000000000E+00 0.  1.
         -3   -1    0    0    0  501 -0.00000000000E+00 -0.00000000000E+00 -0.57136378697E+02  0.57136378697E+02  0.00000000000E+00 0.  1.
         23    2    1    2    0    0 -0.17310075389E+01  0.32249161500E+02  0.39439091860E+03  0.40589251263E+03  0.90341188482E+02 0.  0.
         23    2    1    2    0    0 -0.83120151158E+02  0.10785337703E+03  0.11113855515E+03  0.20052886431E+03  0.96533603051E+02 0.  0.
        -11    1    4    4    0    0 -0.15519972181E+02  0.81412094134E+02  0.22337708406E+02  0.85835725806E+02  0.00000000000E+00 0.  1.
         11    1    4    4    0    0 -0.67600178977E+02  0.26441282891E+02  0.88800846740E+02  0.11469313851E+03  0.00000000000E+00 0. -1.
        -13    1    3    3    0    0 -0.25679076120E+02  0.54259493405E+02  0.30291856900E+03  0.30880927289E+03  0.00000000000E+00 0.  1.
         13    1    3    3    0    0  0.23948068581E+02 -0.22010331905E+02  0.91472349597E+02  0.97083239749E+02  0.00000000000E+00 0. -1.
         -3    1    1    2    0  502  0.84851158697E+02 -0.14010253853E+03  0.99580313771E+03  0.10091839919E+04  0.00000000000E+00 0.  1.
<scales pt_clust_5="13000.00000" pt_clust_6="13000.00000" pt_clust_7="13000.00000" pt_clust_8="13000.00000" pt_clust_9="160.09789"></scales>
<clustering>
<clus scale="   90.341">  7  8 -1 -1</clus>
<clus scale="   95.940">  2  7  1 -1</clus>
<clus scale="   96.534">  5  6 -1 -1</clus>
<clus scale="  160.098">  1  9  2 -1</clus>
<clus scale="  160.098">  1  5  2 -1</clus>
</clustering>
</event>
<event>
 9    1  0.1671478E-005  0.1030702E+03  0.7546771E-02  0.1274450E+00
         -1   -1    0    0    0  501 -0.00000000000E+00  0.00000000000E+00  0.91187844225E+02  0.91187844225E+02  0.00000000000E+00 0.  1.
         21   -1    0    0  501  502  0.00000000000E+00 -0.00000000000E+00 -0.31085935021E+03  0.31085935021E+03  0.00000000000E+00 0.  1.
         23    2    1    2    0    0  0.57504873957E+02  0.59132380677E+02 -0.13816164262E+02  0.12328991699E+03  0.90587351559E+02 0.  0.
         23    2    1    2    0    0  0.50108237443E+01 -0.20756192053E+02 -0.46003038067E+02  0.10287747958E+03  0.89507365235E+02 0.  0.
        -13    1    4    4    0    0  0.60399422129E+00  0.27415943109E+02  0.97133350416E+01  0.29092054297E+02  0.00000000000E+00 0.  1.
         13    1    4    4    0    0  0.44068295230E+01 -0.48172135162E+02 -0.55716373108E+02  0.73785425288E+02  0.00000000000E+00 0. -1.
        -13    1    3    3    0    0  0.65165430836E+02  0.34325689121E+01  0.55514872006E+00  0.65258134324E+02  0.00000000000E+00 0.  1.
         13    1    3    3    0    0 -0.76605568785E+01  0.55699811764E+02 -0.14371312982E+02  0.58031782663E+02  0.00000000000E+00 0. -1.
         -1    1    1    2    0  502 -0.62515697702E+02 -0.38376188624E+02 -0.15985230366E+03  0.17587979787E+03  0.00000000000E+00 0.  1.
<scales pt_clust_5="13000.00000" pt_clust_6="13000.00000" pt_clust_7="13000.00000" pt_clust_8="13000.00000" pt_clust_9="73.35492"></scales>
<clustering>
<clus scale="   73.355">  2  9  1 -1</clus>
<clus scale="   89.507">  5  6 -1 -1</clus>
<clus scale="   90.587">  7  8 -1 -1</clus>
<clus scale="  102.122">  2  5  1 -1</clus>
<clus scale="   73.355">  2  5  1 -1</clus>
</clustering>
</event>
<event>
 9    1  0.1671478E-005  0.1069329E+03  0.7546771E-02  0.1267818E+00
         21   -1    0    0  501  502  0.00000000000E+00  0.00000000000E+00  0.26050872130E+03  0.26050872130E+03  0.00000000000E+00 0.  1.
         -2   -1    0    0    0  501 -0.00000000000E+00 -0.00000000000E+00 -0.61017021079E+02  0.61017021079E+02  0.00000000000E+00 0.  1.
         23    2    1    2    0    0  0.27934561132E+02 -0.33647274903E+02  0.60126266204E+02  0.12047005964E+03  0.94791289510E+02 0.  0.
         23    2    1    2    0    0 -0.13316175175E+02  0.57816219726E+02  0.79586096691E+02  0.13493908669E+03  0.91403361792E+02 0.  0.
        -11    1    4    4    0    0 -0.51049450585E+02  0.28115190298E+02  0.28667572701E+02  0.64948749450E+02  0.00000000000E+00 0.  1.
         11    1    4    4    0    0  0.37733275411E+02  0.29701029428E+02  0.50918523990E+02  0.69990337245E+02  0.00000000000E+00 0. -1.
        -13    1    3    3    0    0  0.25928920782E+02  0.29432695254E+02  0.11739202683E+02  0.40943880648E+02  0.00000000000E+00 0.  1.
         13    1    3    3    0    0  0.20056403493E+01 -0.63079970157E+02  0.48387063521E+02  0.79526178988E+02  0.00000000000E+00 0. -1.
         -2    1    1    2    0  502 -0.14618385957E+02 -0.24168944824E+02  0.59779337325E+02  0.66116596048E+02  0.00000000000E+00 0.  1.
<scales pt_clust_5="13000.00000" pt_clust_6="13000.00000" pt_clust_7="13000.00000" pt_clust_8="13000.00000" pt_clust_9="28.24597"></scales>
<clustering>
<clus scale="   28.246">  1  9  2 -1</clus>
<clus scale="   91.403">  5  6 -1 -1</clus>
<clus scale="   94.791">  7  8 -1 -1</clus>
<clus scale="  103.941">  1  5  2 -1</clus>
<clus scale="   28.246">  1  5  2 -1</clus>
</clustering>
</event>
<event>
 9    1  0.1671478E-005  0.2533650E+03  0.7546771E-02  0.1129706E+00
         -3   -1    0    0    0  501 -0.00000000000E+00  0.00000000000E+00  0.85297501188E+02  0.85297501188E+02  0.00000000000E+00 0.  1.
         21   -1    0    0  501  502  0.00000000000E+00 -0.00000000000E+00 -0.15572144669E+04  0.15572144669E+04  0.00000000000E+00 0.  1.
         23    2    1    2    0    0 -0.10076384257E+03  0.83902848324E+02 -0.17379334669E+03  0.23591611709E+03  0.90880399553E+02 0.  0.
         23    2    1    2    0    0 -0.55248670369E+02 -0.25910251450E+03 -0.48176342624E+03  0.55719677425E+03  0.90474956636E+02 0.  0.
        -11    1    3    3    0    0 -0.10045146615E+03  0.55284663618E+02 -0.85297663357E+02  0.14290760112E+03  0.00000000000E+00 0.  1.
         11    1    3    3    0    0 -0.31237641870E+00  0.28618184706E+02 -0.88495683333E+02  0.93008515973E+02  0.00000000000E+00 0. -1.
        -11    1    4    4    0    0 -0.79510499013E+02 -0.19066392662E+03 -0.37385482373E+03  0.42713239352E+03  0.00000000000E+00 0.  1.
         11    1    4    4    0    0  0.24261828644E+02 -0.68438587879E+02 -0.10790860251E+03  0.13006438074E+03  0.00000000000E+00 0. -1.
         -3    1    1    2    0  502  0.15601251293E+03  0.17519966617E+03 -0.81636019277E+03  0.84939907674E+03  0.00000000000E+00 0.  1.
<scales pt_clust_5="13000.00000" pt_clust_6="13000.00000" pt_clust_7="13000.00000" pt_clust_8="13000.00000" pt_clust_9="236.66028"></scales>
<clustering>
<clus scale="   90.475">  7  8 -1 -1</clus>
<clus scale="   90.880">  5  6 -1 -1</clus>
<clus scale="  159.538">  1  5  2 -1</clus>
<clus scale="  236.660">  2  9  1 -1</clus>
<clus scale="  236.660">  2  5  1 -1</clus>
</clustering>
</event>
<event>
 9    1  0.1671478E-005  0.1129571E+03  0.7546771E-02  0.1258454E+00
         21   -1    0    0  501  502  0.00000000000E+00  0.00000000000E+00  0.85361492087E+02  0.85361492087E+02  0.00000000000E+00 0. -1.
          2   -1    0    0  502    0 -0.00000000000E+00 -0.00000000000E+00 -0.24077532002E+03  0.24077532002E+03  0.00000000000E+00 0. -1.
         23    2    1    2    0    0  0.13115752928E+02 -0.51726248382E+02 -0.77841386078E+02  0.12540324701E+03  0.82577631526E+02 0.  0.
         23    2    1    2    0    0  0.22278118214E+02  0.90500482441E+02 -0.68516028661E+02  0.14745893735E+03  0.91449659096E+02 0.  0.
        -11    1    4    4    0    0 -0.11063953983E+02  0.91273466986E+02 -0.67559047044E+02  0.11409417904E+03  0.00000000000E+00 0. -1.
         11    1    4    4    0    0  0.33342072197E+02 -0.77298454491E+00 -0.95698161700E+00  0.33364758313E+02  0.00000000000E+00 0.  1.
        -13    1    3    3    0    0  0.39337812916E+02 -0.51149695892E+02 -0.75127493155E+02  0.99034817831E+02  0.00000000000E+00 0. -1.
         13    1    3    3    0    0 -0.26222059988E+02 -0.57655248981E+00 -0.27138929229E+01  0.26368429183E+02  0.00000000000E+00 0.  1.
          2    1    1    2  501    0 -0.35393871142E+02 -0.38774234059E+02 -0.90564131964E+01  0.53274627744E+02  0.00000000000E+00 0. -1.
<scales pt_clust_5="13000.00000" pt_clust_6="13000.00000" pt_clust_7="13000.00000" pt_clust_8="13000.00000" pt_clust_9="52.49921"></scales>
<clustering>
<clus scale="   52.499">  1  9  2 -1</clus>
<clus scale="   82.578">  7  8 -1 -1</clus>
<clus scale="   91.450">  5  6 -1 -1</clus>
<clus scale="  105.903">  2  7  1 -1</clus>
<clus scale="   52.499">  1  5  2 -1</clus>
</clustering>
</event>
<event>
 9    1  0.1671478E-005  0.1266265E+03  0.7546771E-02  0.1237515E+00
          1   -1    0    0  502    0 -0.00000000000E+00  0.00000000000E+00  0.37986090669E+03  0.37986090669E+03  0.00000000000E+00 0. -1.
         21   -1    0    0  501  502  0.00000000000E+00 -0.00000000000E+00 -0.19221027796E+03  0.19221027796E+03  0.00000000000E+00 0. -1.
         23    2    1    2    0    0 -0.90090938168E+02 -0.12083501170E+01  0.31760345726E+03  0.34326740337E+03  0.94035721421E+02 0.  0.
         23    2    1    2    0    0  0.53874636089E+02  0.49317519589E+02 -0.26691248703E+02  0.10926689747E+03  0.76760262982E+02 0.  0.
        -11    1    4    4    0    0  0.20146826900E+02 -0.43020019013E-01 -0.42840120153E+02  0.47341022165E+02  0.00000000000E+00 0.  1.
         11    1    4    4    0    0  0.33727809189E+02  0.49360539608E+02  0.16148871450E+02  0.61925875304E+02  0.00000000000E+00 0. -1.
        -11    1    3    3    0    0 -0.26627392908E+02 -0.33089821284E+02  0.46335885464E+02  0.62856730804E+02  0.00000000000E+00 0.  1.
         11    1    3    3    0    0 -0.63463545260E+02  0.31881471167E+02  0.27126757180E+03  0.28041067257E+03  0.00000000000E+00 0. -1.
          1    1    1    2  501    0  0.36216302079E+02 -0.48109169472E+02 -0.10326157982E+03  0.11953688381E+03  0.00000000000E+00 0. -1.
<scales pt_clust_5="13000.00000" pt_clust_6="13000.00000" pt_clust_7="13000.00000" pt_clust_8="13000.00000" pt_clust_9="60.21721"></scales>
<clustering>
<clus scale="   60.217">  2  9  1 -1</clus>
<clus scale="   76.760">  5  6 -1 -1</clus>
<clus scale="   94.036">  7  8 -1 -1</clus>
<clus scale="  114.384">  2  5  1 -1</clus>
<clus scale="   60.217">  2  5  1 -1</clus>
</clustering>
</event>
<event>
 9    1  0.3858141E-005  0.1033181E+03  0.7546771E-02  0.1275424E+00
         21   -1    0    0  501  502  0.00000000000E+00  0.00000000000E+00  0.25377079985E+03  0.25377079985E+03  0.00000000000E+00 0. -1.
          1   -1    0    0  502    0 -0.00000000000E+00 -0.00000000000E+00 -0.44787818762E+03  0.44787818762E+03  0.00000000000E+00 0. -1.
         23    2    1    2    0    0  0.39719679635E+02  0.31598682222E+02 -0.38062193802E+03  0.39456505080E+03  0.90732518651E+02 0.  0.
         23    2    1    2    0    0  0.31203431202E+02  0.45776800881E+01 -0.45467593031E+01  0.10009784812E+03  0.94890973778E+02 0.  0.
        -11    1    3    3    0    0  0.51214979646E+02 -0.99056812533E+01 -0.12672294579E+03  0.13703941641E+03  0.00000000000E+00 0.  1.
         11    1    3    3    0    0 -0.11495300011E+02  0.41504363475E+02 -0.25389899223E+03  0.25752563439E+03  0.00000000000E+00 0. -1.
        -13    1    4    4    0    0 -0.17495258509E+02  0.27803014178E+02  0.22429185216E+02  0.39776375113E+02  0.00000000000E+00 0. -1.
         13    1    4    4    0    0  0.48698689712E+02 -0.23225334090E+02 -0.26975944519E+02  0.60321473008E+02  0.00000000000E+00 0.  1.
          1    1    1    2  501    0 -0.70923110838E+02 -0.36176362310E+02  0.19106130956E+03  0.20698608854E+03  0.00000000000E+00 0. -1.
<scales pt_clust_5="13000.00000" pt_clust_6="13000.00000" pt_clust_7="13000.00000" pt_clust_8="13000.00000" pt_clust_9="79.61669"></scales>
<clustering>
<clus scale="   79.617">  1  9  2 -1</clus>
<clus scale="   90.733">  5  6 -1 -1</clus>
<clus scale="   94.891">  7  8 -1 -1</clus>
<clus scale="   99.512">  2  5  1 -1</clus>
<clus scale="   79.617">  1  5  2 -1</clus>
</clustering>
</event>
<event>
 9    1  0.1671478E-005  0.9410573E+02  0.7546771E-02  0.1294290E+00
         21   -1    0    0  501  502  0.00000000000E+00  0.00000000000E+00  0.27695508104E+02  0.27695508104E+02  0.00000000000E+00 0. -1.
         -2   -1    0    0    0  501 -0.00000000000E+00 -0.00000000000E+00 -0.56429009910E+03  0.56429009910E+03  0.00000000000E+00 0.  1.
         23    2    1    2    0    0 -0.64362205492E+01 -0.11314998252E+02 -0.37244443112E+03  0.38350613169E+03  0.90513229151E+02 0.  0.
         23    2    1    2    0    0  0.34529391494E+02  0.14052376168E+02 -0.11890158606E+03  0.15514887526E+03  0.92432884695E+02 0.  0.
        -13    1    3    3    0    0  0.10315922277E+02 -0.49067806188E+02 -0.20317047252E+03  0.20926611947E+03  0.00000000000E+00 0.  1.
         13    1    3    3    0    0 -0.16752142826E+02  0.37752807936E+02 -0.16927395860E+03  0.17424001221E+03  0.00000000000E+00 0. -1.
        -13    1    4    4    0    0 -0.18993740183E+02  0.33377627069E+02 -0.71193215933E+02  0.80890680241E+02  0.00000000000E+00 0.  1.
         13    1    4    4    0    0  0.53523131677E+02 -0.19325250902E+02 -0.47708370131E+02  0.74258195019E+02  0.00000000000E+00 0. -1.
         -2    1    1    2    0  502 -0.28093170945E+02 -0.27373779159E+01 -0.45248573820E+02  0.53330600262E+02  0.00000000000E+00 0.  1.
<scales pt_clust_5="13000.00000" pt_clust_6="13000.00000" pt_clust_7="13000.00000" pt_clust_8="13000.00000" pt_clust_9="28.22622"></scales>
<clustering>
<clus scale="   28.226">  1  9  2 -1</clus>
<clus scale="   90.513">  5  6 -1 -1</clus>
<clus scale="   92.221">  2  5  1 -1</clus>
<clus scale="   92.433">  7  8 -1 -1</clus>
<clus scale="   28.226">  1  5  2 -1</clus>
</clustering>
</event>
<event>
 9    1  0.1671478E-005  0.9900651E+02  0.7546771E-02  0.1285041E+00
         21   -1    0    0  501  502  0.00000000000E+00  0.00000000000E+00  0.32100640570E+03  0.32100640570E+03  0.00000000000E+00 0. -1.
         -3   -1    0    0    0  501 -0.00000000000E+00 -0.00000000000E+00 -0.10611981332E+03  0.10611981332E+03  0.00000000000E+00 0.  1.
         23    2    1    2    0    0 -0.71753768336E+01  0.25667230872E+02 -0.64290285465E+02  0.11848853680E+03  0.95895775588E+02 0.  0.
         23    2    1    2    0    0 -0.16977098736E+02 -0.16275100063E+02  0.15058968444E+03  0.17746519842E+03  0.90904030858E+02 0.  0.
        -11    1    4    4    0    0 -0.95107660723E+00  0.37208665869E+02  0.48876053708E+02  0.61434989937E+02  0.00000000000E+00 0. -1.
         11    1    4    4    0    0 -0.16026022129E+02 -0.53483765932E+02  0.10171363073E+03  0.11603020848E+03  0.00000000000E+00 0.  1.
        -13    1    3    3    0    0  0.11351044870E+02 -0.34607689883E+02 -0.25370814964E+02  0.44387122802E+02  0.00000000000E+00 0.  1.
         13    1    3    3    0    0 -0.18526421703E+02  0.60274920755E+02 -0.38919470501E+02  0.74101414003E+02  0.00000000000E+00 0. -1.
         -3    1    1    2    0  502  0.24152475569E+02 -0.93921308088E+01  0.12858719341E+03  0.13117248380E+03  0.00000000000E+00 0.  1.
<scales pt_clust_5="13000.00000" pt_clust_6="13000.00000" pt_clust_7="13000.00000" pt_clust_8="13000.00000" pt_clust_9="25.91436"></scales>
<clustering>
<clus scale="   25.914">  1  9  2 -1</clus>
<clus scale="   90.904">  5  6 -1 -1</clus>
<clus scale="   94.180">  1  5  2 -1</clus>
<clus scale="   95.896">  7  8 -1 -1</clus>
<clus scale="   25.914">  1  5  2 -1</clus>
</clustering>
</event>
<event>
 9    1  0.1671478E-005  0.1362350E+03  0.7546771E-02  0.1219110E+00
         -3   -1    0    0    0  501 -0.00000000000E+00  0.00000000000E+00  0.28119460606E+03  0.28119460606E+03  0.00000000000E+00 0.  1.
         21   -1    0    0  501  502  0.00000000000E+00 -0.00000000000E+00 -0.16082507625E+03  0.16082507625E+03  0.00000000000E+00 0.  1.
         23    2    1    2    0    0 -0.67448573372E+02 -0.10598046425E+03  0.18460291295E+03  0.24189619353E+03  0.93028834890E+02 0.  0.
         23    2    1    2    0    0  0.39280725326E+02  0.29716566680E+02 -0.12387844562E+02  0.10369958299E+03  0.90410702365E+02 0.  0.
        -11    1    4    4    0    0  0.44386424858E+02 -0.17296159918E+01  0.27810623681E+02  0.52407795915E+02  0.00000000000E+00 0.  1.
         11    1    4    4    0    0 -0.51056995313E+01  0.31446182671E+02 -0.40198468243E+02  0.51291787076E+02  0.00000000000E+00 0. -1.
        -13    1    3    3    0    0 -0.64472851321E+02 -0.16184306210E+02  0.78625765694E+02  0.10295965888E+03  0.00000000000E+00 0.  1.
         13    1    3    3    0    0 -0.29757220510E+01 -0.89796158039E+02  0.10597714726E+03  0.13893653465E+03  0.00000000000E+00 0. -1.
         -3    1    1    2    0  502  0.28167848046E+02  0.76263897569E+02 -0.51845538585E+02  0.96423905787E+02  0.00000000000E+00 0.  1.
<scales pt_clust_5="13000.00000" pt_clust_6="13000.00000" pt_clust_7="13000.00000" pt_clust_8="13000.00000" pt_clust_9="81.29951"></scales>
<clustering>
<clus scale="   81.300">  2  9  1 -1</clus>
<clus scale="   90.411">  5  6 -1 -1</clus>
<clus scale="   93.029">  7  8 -1 -1</clus>
<clus scale="  134.461">  2  5  1 -1</clus>
<clus scale="   81.300">  2  5  1 -1</clus>
</clustering>
</event>
<event>
 9    1  0.1671478E-005  0.1029323E+03  0.7546771E-02  0.1274414E+00
         -4   -1    0    0    0  501 -0.00000000000E+00  0.00000000000E+00  0.20175825108E+03  0.20175825108E+03  0.00000000000E+00 0.  1.
         21   -1    0    0  501  502  0.00000000000E+00 -0.00000000000E+00 -0.19297413902E+03  0.19297413902E+03  0.00000000000E+00 0.  1.
         23    2    1    2    0    0  0.17283346800E+02  0.24077451090E+02  0.68324254529E+02  0.11662147804E+03  0.89743677528E+02 0.  0.
         23    2    1    2    0    0 -0.30624377333E+02 -0.72841637019E+02  0.70177802747E+02  0.13888923904E+03  0.90119588056E+02 0.  0.
        -11    1    4    4    0    0 -0.43369651857E+02 -0.48381623541E+02  0.16239590039E+01  0.64994964740E+02  0.00000000000E+00 0.  1.
         11    1    4    4    0    0  0.12745274524E+02 -0.24460013477E+02  0.68553843743E+02  0.73894274297E+02  0.00000000000E+00 0. -1.
        -13    1    3    3    0    0 -0.13397657443E+02  0.45620580145E+02  0.12130398969E+02  0.49070165446E+02  0.00000000000E+00 0. -1.
         13    1    3    3    0    0  0.30681004243E+02 -0.21543129055E+02  0.56193855559E+02  0.67551312596E+02  0.00000000000E+00 0.  1.
         -4    1    1    2    0  502  0.13341030533E+02  0.48764185928E+02 -0.12971794522E+03  0.13922167301E+03  0.00000000000E+00 0.  1.
<scales pt_clust_5="13000.00000" pt_clust_6="13000.00000" pt_clust_7="13000.00000" pt_clust_8="13000.00000" pt_clust_9="50.55620"></scales>
<clustering>
<clus scale="   50.556">  2  9  1 -1</clus>
<clus scale="   89.744">  7  8 -1 -1</clus>
<clus scale="   90.120">  5  6 -1 -1</clus>
<clus scale="  102.603">  1  7  2 -1</clus>
<clus scale="   50.556">  2  5  1 -1</clus>
</clustering>
</event>
<event>
 9    1  0.1671478E-005  0.9655248E+02  0.7546771E-02  0.1288142E+00
          3   -1    0    0  502    0 -0.00000000000E+00  0.00000000000E+00  0.23609431142E+03  0.23609431142E+03  0.00000000000E+00 0. -1.
         21   -1    0    0  501  502  0.00000000000E+00 -0.00000000000E+00 -0.12560011270E+03  0.12560011270E+03  0.00000000000E+00 0. -1.
         23    2    1    2    0    0 -0.13318115703E+01 -0.34021197984E+02  0.18610634467E+03  0.20987681609E+03  0.90848724657E+02 0.  0.
         23    2    1    2    0    0  0.78657171879E+01  0.11058209319E+02 -0.25176500010E+02  0.96016665810E+02  0.91658008163E+02 0.  0.
        -11    1    4    4    0    0 -0.22548193654E+02  0.26313864557E+02  0.19574326150E+02  0.39799431518E+02  0.00000000000E+00 0.  1.
         11    1    4    4    0    0  0.30413910842E+02 -0.15255655238E+02 -0.44750826160E+02  0.56217234292E+02  0.00000000000E+00 0. -1.
        -11    1    3    3    0    0 -0.44621926911E+02 -0.61344513886E+01  0.97327191453E+02  0.10724425416E+03  0.00000000000E+00 0. -1.
         11    1    3    3    0    0  0.43290115340E+02 -0.27886746595E+02  0.88779153217E+02  0.10263256193E+03  0.00000000000E+00 0.  1.
          3    1    1    2  501    0 -0.65339056176E+01  0.22962988665E+02 -0.50435645941E+02  0.55800942219E+02  0.00000000000E+00 0. -1.
<scales pt_clust_5="13000.00000" pt_clust_6="13000.00000" pt_clust_7="13000.00000" pt_clust_8="13000.00000" pt_clust_9="23.87448"></scales>
<clustering>
<clus scale="   23.874">  2  9  1 -1</clus>
<clus scale="   90.849">  7  8 -1 -1</clus>
<clus scale="   91.658">  5  6 -1 -1</clus>
<clus scale="   95.785">  1  7  2 -1</clus>
<clus scale="   23.874">  2  5  1 -1</clus>
</clustering>
</event>
<event>
 9    1  0.1671478E-005  0.1198818E+03  0.7546771E-02  0.1247157E+00
          1   -1    0    0  502    0 -0.00000000000E+00  0.00000000000E+00  0.57690933448E+02  0.57690933448E+02  0.00000000000E+00 0. -1.
         21   -1    0    0  501  502  0.00000000000E+00 -0.00000000000E+00 -0.30800148466E+03  0.30800148466E+03  0.00000000000E+00 0. -1.
         23    2    1    2    0    0 -0.53056257829E+02 -0.46081489469E+02 -0.80583321935E+02  0.14655966408E+03  0.10023768350E+03 0.  0.
         23    2    1    2    0    0  0.59121217373E+02  0.21204620770E+02 -0.11425206369E+03  0.15803335691E+03  0.89308754081E+02 0.  0.
        -11    1    4    4    0    0  0.78298142059E+02  0.28126662202E+02 -0.67872122315E+02  0.10737007574E+03  0.00000000000E+00 0. -1.
         11    1    4    4    0    0 -0.19176924686E+02 -0.69220414313E+01 -0.46379941371E+02  0.50663281176E+02  0.00000000000E+00 0.  1.
        -11    1    3    3    0    0 -0.78753574230E+02 -0.22290044157E+02 -0.75161701830E+02  0.11112269320E+03  0.00000000000E+00 0.  1.
         11    1    3    3    0    0  0.25697316401E+02 -0.23791445313E+02 -0.54216201049E+01  0.35436970875E+02  0.00000000000E+00 0. -1.
          1    1    1    2  501    0 -0.60649595438E+01  0.24876868699E+02 -0.55475165590E+02  0.61099397115E+02  0.00000000000E+00 0. -1.
<scales pt_clust_5="13000.00000" pt_clust_6="13000.00000" pt_clust_7="13000.00000" pt_clust_8="13000.00000" pt_clust_9="25.60551"></scales>
<clustering>
<clus scale="   25.606">  2  9  1 -1</clus>
<clus scale="   89.309">  5  6 -1 -1</clus>
<clus scale="  100.238">  7  8 -1 -1</clus>
<clus scale="  110.906">  2  5  1 -1</clus>
<clus scale="   25.606">  2  5  1 -1</clus>
</clustering>
</event>
<event>
 9    1  0.1671478E-005  0.2261275E+03  0.7546771E-02  0.1129427E+00
         -2   -1    0    0    0  501 -0.00000000000E+00  0.00000000000E+00  0.75931028999E+02  0.75931028999E+02  0.00000000000E+00 0.  1.
         21   -1    0    0  501  502  0.00000000000E+00 -0.00000000000E+00 -0.12881757995E+04  0.12881757995E+04  0.00000000000E+00 0. -1.
         23    2    1    2    0    0  0.12762321034E+03  0.15636658826E+03 -0.17006855920E+03  0.27909753584E+03  0.90740982706E+02 0.  0.
         23    2    1    2    0    0 -0.11205297461E+03 -0.19774837869E+03 -0.73389870422E+03  0.77357726766E+03  0.90300557009E+02 0.  0.
        -13    1    3    3    0    0  0.10599987676E+03  0.67374028737E+02 -0.71394682409E+02  0.14447295352E+03  0.00000000000E+00 0.  1.
         13    1    3    3    0    0  0.21623333583E+02  0.88992559521E+02 -0.98673876790E+02  0.13462458232E+03  0.00000000000E+00 0. -1.
        -13    1    4    4    0    0 -0.10060546098E+02 -0.97766217962E+02 -0.23729241477E+03  0.25684068617E+03  0.00000000000E+00 0.  1.
         13    1    4    4    0    0 -0.10199242851E+03 -0.99982160732E+02 -0.49660628945E+03  0.51673658150E+03  0.00000000000E+00 0. -1.
         -2    1    1    2    0  502 -0.15570235735E+02  0.41381790436E+02 -0.30827750712E+03  0.31143202503E+03  0.00000000000E+00 0.  1.
<scales pt_clust_5="13000.00000" pt_clust_6="13000.00000" pt_clust_7="13000.00000" pt_clust_8="13000.00000" pt_clust_9="44.21408"></scales>
<clustering>
<clus scale="   44.214">  2  9  1 -1</clus>
<clus scale="   90.301">  7  8 -1 -1</clus>
<clus scale="   90.741">  5  6 -1 -1</clus>
<clus scale="  225.951">  2  7  1 -1</clus>
<clus scale="   44.214">  2  5  1 -1</clus>
</clustering>
</event>
<event>
 9    1  0.1671478E-005  0.1129395E+03  0.7546771E-02  0.1256821E+00
         21   -1    0    0  501  502  0.00000000000E+00  0.00000000000E+00  0.16289367244E+03  0.16289367244E+03  0.00000000000E+00 0.  1.
         -4   -1    0    0    0  501 -0.00000000000E+00 -0.00000000000E+00 -0.24715556599E+03  0.24715556599E+03  0.00000000000E+00 0.  1.
         23    2    1    2    0    0 -0.69697679938E+02  0.58793789216E+01 -0.13934299239E+03  0.18226905226E+03  0.94409767494E+02 0.  0.
         23    2    1    2    0    0  0.49781807256E+02 -0.85882059566E+01 -0.54171499455E+02  0.11669413862E+03  0.90171974688E+02 0.  0.
        -11    1    3    3    0    0 -0.71444049635E+02  0.26782032103E+02 -0.14192603514E+03  0.16113512628E+03  0.00000000000E+00 0.  1.
         11    1    3    3    0    0  0.17463696967E+01 -0.20902653182E+02  0.25830427547E+01  0.21133925973E+02  0.00000000000E+00 0. -1.
        -11    1    4    4    0    0  0.84646127475E+01  0.22295424181E+02 -0.60207092971E+02  0.64758240034E+02  0.00000000000E+00 0.  1.
         11    1    4    4    0    0  0.41317194508E+02 -0.30883630138E+02  0.60355935151E+01  0.51935898583E+02  0.00000000000E+00 0. -1.
         -4    1    1    2    0  502  0.19915872682E+02  0.27088270350E+01  0.10925259829E+03  0.11108604756E+03  0.00000000000E+00 0.  1.
<scales pt_clust_5="13000.00000" pt_clust_6="13000.00000" pt_clust_7="13000.00000" pt_clust_8="13000.00000" pt_clust_9="20.09925"></scales>
<clustering>
<clus scale="   20.099">  1  9  2 -1</clus>
<clus scale="   90.172">  7  8 -1 -1</clus>
<clus scale="   94.410">  5  6 -1 -1</clus>
<clus scale="  109.422">  1  7  2 -1</clus>
<clus scale="   20.099">  1  5  2 -1</clus>
</clustering>
</event>
<event>
 9    1  0.1671478E-005  0.1057963E+03  0.7546771E-02  0.1269043E+00
          4   -1    0    0  502    0 -0.00000000000E+00  0.00000000000E+00  0.29396264498E+02  0.29396264498E+02  0.00000000000E+00 0. -1.
         21   -1    0    0  501  502  0.00000000000E+00 -0.00000000000E+00 -0.52685619505E+03  0.52685619505E+03  0.00000000000E+00 0.  1.
         23    2    1    2    0    0 -0.17703203763E+01 -0.50016829709E+02 -0.16210697931E+03  0.19258927329E+03  0.91143503109E+02 0.  0.
         23    2    1    2    0    0 -0.24809963192E+02  0.58392758796E+02 -0.29256668776E+03  0.31260114550E+03  0.89994226646E+02 0.  0.
        -11    1    4    4    0    0  0.27381011719E+02  0.25505234721E+02 -0.18369064176E+03  0.18746329953E+03  0.00000000000E+00 0.  1.
         11    1    4    4    0    0 -0.52190974911E+02  0.32887524075E+02 -0.10887604600E+03  0.12513784597E+03  0.00000000000E+00 0. -1.
        -11    1    3    3    0    0  0.28492370177E+02  0.14601727871E+02 -0.40923815363E+02  0.51959448409E+02  0.00000000000E+00 0.  1.
         11    1    3    3    0    0 -0.30262690554E+02 -0.64618557580E+02 -0.12118316395E+03  0.14062982488E+03  0.00000000000E+00 0. -1.
          4    1    1    2  501    0  0.26580283568E+02 -0.83759290866E+01 -0.42786263479E+02  0.51062040746E+02  0.00000000000E+00 0. -1.
<scales pt_clust_5="13000.00000" pt_clust_6="13000.00000" pt_clust_7="13000.00000" pt_clust_8="13000.00000" pt_clust_9="27.86877"></scales>
<clustering>
<clus scale="   27.869">  2  9  1 -1</clus>
<clus scale="   89.994">  5  6 -1 -1</clus>
<clus scale="   91.144">  7  8 -1 -1</clus>
<clus scale="  104.808">  2  5  1 -1</clus>
<clus scale="   27.869">  2  5  1 -1</clus>
</clustering>
</event>
<event>
 9    1  0.1671478E-005  0.9340343E+02  0.7546771E-02  0.1295292E+00
         21   -1    0    0  501  502  0.00000000000E+00  0.00000000000E+00  0.23354623191E+02  0.23354623191E+02  0.00000000000E+00 0.  1.
          2   -1    0    0  502    0 -0.00000000000E+00 -0.00000000000E+00 -0.50416104780E+03  0.50416104780E+03  0.00000000000E+00 0. -1.
         23    2    1    2    0    0  0.23552881333E+01  0.65068020256E+01 -0.21830021336E+03  0.23665591772E+03  0.91121646085E+02 0.  0.
         23    2    1    2    0    0 -0.29393464256E+02 -0.52230030891E+01 -0.22200745533E+03  0.24214773895E+03  0.91961740715E+02 0.  0.
        -11    1    4    4    0    0 -0.52484454225E+02 -0.31436312410E+02 -0.12827815537E+03  0.14212017738E+03  0.00000000000E+00 0.  1.
         11    1    4    4    0    0  0.23090989968E+02  0.26213309320E+02 -0.93729299958E+02  0.10002756157E+03  0.00000000000E+00 0. -1.
        -13    1    3    3    0    0  0.41103898481E+02 -0.17724829226E+02 -0.91294500144E+02  0.10167785304E+03  0.00000000000E+00 0. -1.
         13    1    3    3    0    0 -0.38748610348E+02  0.24231631252E+02 -0.12700571322E+03  0.13497806469E+03  0.00000000000E+00 0.  1.
          2    1    1    2  501    0  0.27038176123E+02 -0.12837989365E+01 -0.40498755921E+02  0.48712014318E+02  0.00000000000E+00 0. -1.
<scales pt_clust_5="13000.00000" pt_clust_6="13000.00000" pt_clust_7="13000.00000" pt_clust_8="13000.00000" pt_clust_9="27.06864"></scales>
<clustering>
<clus scale="   27.069">  1  9  2 -1</clus>
<clus scale="   91.122">  7  8 -1 -1</clus>
<clus scale="   91.962">  5  6 -1 -1</clus>
<clus scale="   92.576">  2  7  1 -1</clus>
<clus scale="   27.069">  1  5  2 -1</clus>
</clustering>
</event>
<event>
 9    1  0.1671478E-005  0.1494714E+03  0.7546771E-02  0.1202002E+00
          2   -1    0    0  502    0 -0.00000000000E+00  0.00000000000E+00  0.11364052839E+03  0.11364052839E+03  0.00000000000E+00 0. -1.
         21   -1    0    0  501  502  0.00000000000E+00 -0.00000000000E+00 -0.60586430781E+03  0.60586430781E+03  0.00000000000E+00 0. -1.
         23    2    1    2    0    0  0.34985867382E+02  0.15018694498E+03 -0.29047044919E+02  0.17760762497E+03  0.83190193361E+02 0.  0.
         23    2    1    2    0    0 -0.43956786786E+02 -0.76454414507E+02 -0.72412803107E+02  0.14413671355E+03  0.88058512003E+02 0.  0.
        -11    1    4    4    0    0 -0.64569051966E+02 -0.51430430159E+02 -0.24173217563E+02  0.86015092080E+02  0.00000000000E+00 0.  1.
         11    1    4    4    0    0  0.20612265180E+02 -0.25023984348E+02 -0.48239585544E+02  0.58121621467E+02  0.00000000000E+00 0. -1.
        -13    1    3    3    0    0  0.51170580835E+01  0.52773331659E+02 -0.50791437658E+02  0.73423286206E+02  0.00000000000E+00 0.  1.
         13    1    3    3    0    0  0.29868809298E+02  0.97413613318E+02  0.21744392739E+02  0.10418433877E+03  0.00000000000E+00 0. -1.
          2    1    1    2  501    0  0.89709194040E+01 -0.73732530470E+02 -0.39076393139E+03  0.39776049769E+03  0.00000000000E+00 0. -1.
<scales pt_clust_5="13000.00000" pt_clust_6="13000.00000" pt_clust_7="13000.00000" pt_clust_8="13000.00000" pt_clust_9="74.27626"></scales>
<clustering>
<clus scale="   74.276">  2  9  1 -1</clus>
<clus scale="   83.190">  7  8 -1 -1</clus>
<clus scale="   88.059">  5  6 -1 -1</clus>
<clus scale="  146.656">  1  7  2 -1</clus>
<clus scale="   74.276">  2  5  1 -1</clus>
</clustering>
</event>
<event>
 9    1  0.1671478E-005  0.9909848E+02  0.7546771E-02  0.1283601E+00
         -2   -1    0    0    0  501 -0.00000000000E+00  0.00000000000E+00  0.28737229097E+03  0.28737229097E+03  0.00000000000E+00 0.  1.
         21   -1    0    0  501  502  0.00000000000E+00 -0.00000000000E+00 -0.13971275314E+03  0.13971275314E+03  0.00000000000E+00 0.  1.
         23    2    1    2    0    0  0.22894370288E+02  0.25576852879E+02  0.21842095778E+03  0.24043041675E+03  0.94449684525E+02 0.  0.
         23    2    1    2    0    0  0.12014098426E+02 -0.25524742207E+02  0.12110689198E+02  0.96730268160E+02  0.91729084590E+02 0.  0.
        -11    1    4    4    0    0 -0.26479877490E+02 -0.63065397488E+01 -0.27178301529E+02  0.38465782580E+02  0.00000000000E+00 0.  1.
         11    1    4    4    0    0  0.38493975916E+02 -0.19218202459E+02  0.39288990728E+02  0.58264485580E+02  0.00000000000E+00 0. -1.
        -11    1    3    3    0    0 -0.16624746652E+02  0.48974857735E+02  0.14369828612E+03  0.15272235044E+03  0.00000000000E+00 0.  1.
         11    1    3    3    0    0  0.39519116940E+02 -0.23398004856E+02  0.74722671658E+02  0.87708066304E+02  0.00000000000E+00 0. -1.
         -2    1    1    2    0  502 -0.34908468714E+02 -0.52110671399E-01 -0.82872109151E+02  0.89924359206E+02  0.00000000000E+00 0.  1.
<scales pt_clust_5="13000.00000" pt_clust_6="13000.00000" pt_clust_7="13000.00000" pt_clust_8="13000.00000" pt_clust_9="34.90851"></scales>
<clustering>
<clus scale="   34.909">  2  9  1 -1</clus>
<clus scale="   91.729">  5  6 -1 -1</clus>
<clus scale="   94.450">  7  8 -1 -1</clus>
<clus scale="   96.509">  2  5  1 -1</clus>
<clus scale="   34.909">  2  5  1 -1</clus>
</clustering>
</event>
<event>
 9    1  0.1671478E-005  0.9004661E+02  0.7546771E-02  0.1302819E+00
         21   -1    0    0  501  502  0.00000000000E+00  0.00000000000E+00  0.64302485221E+02  0.64302485221E+02  0.00000000000E+00 0.  1.
          1   -1    0    0  502    0 -0.00000000000E+00 -0.00000000000E+00 -0.35724534520E+03  0.35724534520E+03  0.00000000000E+00 0. -1.
         23    2    1    2    0    0  0.34103046672E+02  0.46692321352E+01 -0.13597054608E+03  0.16620303353E+03  0.89166358199E+02 0.  0.
         23    2    1    2    0    0  0.52884425756E+02 -0.22354091974E+02 -0.11746939526E+03  0.15818485037E+03  0.89033253041E+02 0.  0.
        -11    1    3    3    0    0  0.59253402324E+02  0.13921497207E+02 -0.12114763557E+03  0.13557847681E+03  0.00000000000E+00 0.  1.
         11    1    3    3    0    0 -0.25150355652E+02 -0.92522650721E+01 -0.14822910511E+02  0.30624556722E+02  0.00000000000E+00 0. -1.
        -11    1    4    4    0    0  0.53081426477E+02 -0.52514533781E+02 -0.93517527735E+02  0.11967013867E+03  0.00000000000E+00 0.  1.
         11    1    4    4    0    0 -0.19700072193E+00  0.30160441807E+02 -0.23951867528E+02  0.38514711700E+02  0.00000000000E+00 0. -1.
          1    1    1    2  501    0 -0.86987472427E+02  0.17684859839E+02 -0.39502918641E+02  0.97159946521E+02  0.00000000000E+00 0. -1.
<scales pt_clust_5="13000.00000" pt_clust_6="13000.00000" pt_clust_7="13000.00000" pt_clust_8="13000.00000" pt_clust_9="88.76697"></scales>
<clustering>
<clus scale="   88.767">  1  9  2 -1</clus>
<clus scale="   89.033">  7  8 -1 -1</clus>
<clus scale="   89.166">  5  6 -1 -1</clus>
<clus scale="   89.915">  1  7  2 -1</clus>
<clus scale="   88.767">  1  5  2 -1</clus>
</clustering>
</event>
<event>
 9    1  0.1671478E-005  0.1059249E+03  0.7546771E-02  0.1270926E+00
         -3   -1    0    0    0  501 -0.00000000000E+00  0.00000000000E+00  0.20339974910E+03  0.20339974910E+03  0.00000000000E+00 0.  1.
         21   -1    0    0  501  502  0.00000000000E+00 -0.00000000000E+00 -0.30168547007E+03  0.30168547007E+03  0.00000000000E+00 0.  1.
         23    2    1    2    0    0 -0.32332063793E+02  0.42883651425E+02  0.15998349906E+03  0.19160165954E+03  0.90730954244E+02 0.  0.
         23    2    1    2    0    0  0.21077243081E+02 -0.72546241139E+02 -0.25793032268E+03  0.28175573164E+03  0.84563784666E+02 0.  0.
        -11    1    4    4    0    0  0.52506614370E+02 -0.41744823332E+02 -0.18236645197E+03  0.19431185664E+03  0.00000000000E+00 0.  1.
         11    1    4    4    0    0 -0.31429371290E+02 -0.30801417807E+02 -0.75563870709E+02  0.87443875001E+02  0.00000000000E+00 0. -1.
        -13    1    3    3    0    0  0.12765201267E+02  0.25352723915E+02  0.44698041110E+01  0.28734824205E+02  0.00000000000E+00 0. -1.
         13    1    3    3    0    0 -0.45097265060E+02  0.17530927510E+02  0.15551369495E+03  0.16286683533E+03  0.00000000000E+00 0.  1.
         -3    1    1    2    0  502  0.11254820712E+02  0.29662589714E+02 -0.33889734994E+00  0.31727827994E+02  0.00000000000E+00 0.  1.
<scales pt_clust_5="13000.00000" pt_clust_6="13000.00000" pt_clust_7="13000.00000" pt_clust_8="13000.00000" pt_clust_9="31.72603"></scales>
<clustering>
<clus scale="   31.726">  2  9  1 -1</clus>
<clus scale="   84.564">  5  6 -1 -1</clus>
<clus scale="   90.731">  7  8 -1 -1</clus>
<clus scale="  100.693">  2  5  1 -1</clus>
<clus scale="   31.726">  2  5  1 -1</clus>
</clustering>
</event>
<event>
 9    1  0.1671478E-005  0.1190028E+03  0.7546771E-02  0.1253737E+00
         21   -1    0    0  501  502  0.00000000000E+00  0.00000000000E+00  0.24332876085E+02  0.24332876085E+02  0.00000000000E+00 0. -1.
         -4   -1    0    0    0  501 -0.00000000000E+00 -0.00000000000E+00 -0.81999091883E+03  0.81999091883E+03  0.00000000000E+00 0.  1.
         23    2    1    2    0    0 -0.29546952329E+01  0.29944503631E+02 -0.56969108218E+03  0.58165646227E+03  0.11345002190E+03 0.  0.
         23    2    1    2    0    0  0.17525680296E+02 -0.49621331517E+02 -0.15959748011E+03  0.19192555505E+03  0.92707265146E+02 0.  0.
        -11    1    4    4    0    0  0.10841755086E+02  0.19786914081E+02 -0.92300185765E+02  0.95017839980E+02  0.00000000000E+00 0.  1.
         11    1    4    4    0    0  0.66839252100E+01 -0.69408245599E+02 -0.67297294350E+02  0.96907715070E+02  0.00000000000E+00 0. -1.
        -13    1    3    3    0    0  0.52995496168E+02  0.27130387775E+01 -0.20863522248E+03  0.21527781877E+03  0.00000000000E+00 0.  1.
         13    1    3    3    0    0 -0.55950191401E+02  0.27231464854E+02 -0.36105585970E+03  0.36637864350E+03  0.00000000000E+00 0. -1.
         -4    1    1    2    0  502 -0.14570985063E+02  0.19676827886E+02 -0.66369480455E+02  0.70741777594E+02  0.00000000000E+00 0.  1.
<scales pt_clust_5="13000.00000" pt_clust_6="13000.00000" pt_clust_7="13000.00000" pt_clust_8="13000.00000" pt_clust_9="24.48451"></scales>
<clustering>
<clus scale="   24.485">  1  9  2 -1</clus>
<clus scale="   92.707">  5  6 -1 -1</clus>
<clus scale="   99.425">  1  5  2 -1</clus>
<clus scale="  113.450">  7  8 -1 -1</clus>
<clus scale="   24.485">  1  5  2 -1</clus>
</clustering>
</event>
<event>
 9    1  0.1671478E-005  0.1298643E+03  0.7546771E-02  0.1227680E+00
         -1   -1    0    0    0  501 -0.00000000000E+00  0.00000000000E+00  0.31585380322E+03  0.31585380322E+03  0.00000000000E+00 0.  1.
         21   -1    0    0  501  502  0.00000000000E+00 -0.00000000000E+00 -0.64348888890E+02  0.64348888890E+02  0.00000000000E+00 0. -1.
         23    2    1    2    0    0  0.56272735875E+02 -0.82299116794E+02  0.14269931159E+03  0.19763424763E+03  0.93575834926E+02 0.  0.
         23    2    1    2    0    0 -0.49425968686E+02  0.60875854445E+02  0.79974612723E+02  0.14600260829E+03  0.93659099461E+02 0.  0.
        -13    1    3    3    0    0 -0.15598262661E+02 -0.51902092576E+02  0.84088144716E+02  0.10003973757E+03  0.00000000000E+00 0.  1.
         13    1    3    3    0    0  0.71870998536E+02 -0.30397024218E+02  0.58611166872E+02  0.97594510061E+02  0.00000000000E+00 0. -1.
        -13    1    4    4    0    0 -0.44975730027E+02  0.17828115170E+02  0.89454443963E+02  0.10169933887E+03  0.00000000000E+00 0.  1.
         13    1    4    4    0    0 -0.44502386591E+01  0.43047739275E+02 -0.94798312394E+01  0.44303269418E+02  0.00000000000E+00 0. -1.
         -1    1    1    2    0  502 -0.68467671887E+01  0.21423262350E+02  0.28830990019E+02  0.36565836188E+02  0.00000000000E+00 0.  1.
<scales pt_clust_5="13000.00000" pt_clust_6="13000.00000" pt_clust_7="13000.00000" pt_clust_8="13000.00000" pt_clust_9="22.49077"></scales>
<clustering>
<clus scale="   22.491">  2  9  1 -1</clus>
<clus scale="   93.576">  5  6 -1 -1</clus>
<clus scale="   93.659">  7  8 -1 -1</clus>
<clus scale="  129.804">  1  5  2 -1</clus>
<clus scale="   22.491">  2  5  1 -1</clus>
</clustering>
</event>
<event>
 9    1  0.1671478E-005  0.1220488E+03  0.7546771E-02  0.1239781E+00
         21   -1    0    0  501  502  0.00000000000E+00  0.00000000000E+00  0.25543318496E+03  0.25543318496E+03  0.00000000000E+00 0. -1.
          2   -1    0    0  502    0 -0.00000000000E+00 -0.00000000000E+00 -0.26356662407E+03  0.26356662407E+03  0.00000000000E+00 0. -1.
         23    2    1    2    0    0 -0.29687763516E+02 -0.64794230283E+02 -0.20719102415E+03  0.23965576591E+03  0.97093305955E+02 0.  0.
         23    2    1    2    0    0  0.15756561475E+02  0.96553807124E+02  0.89169801866E+02  0.16411351765E+03  0.97010753064E+02 0.  0.
        -13    1    3    3    0    0  0.19789323571E+02 -0.55012823787E+02 -0.58759294511E+02  0.82889581974E+02  0.00000000000E+00 0.  1.
         13    1    3    3    0    0 -0.49477087087E+02 -0.97814064961E+01 -0.14843172964E+03  0.15676618393E+03  0.00000000000E+00 0. -1.
        -13    1    4    4    0    0  0.48235791465E+02  0.22869262182E+02  0.17120641777E+02  0.56060780460E+02  0.00000000000E+00 0.  1.
         13    1    4    4    0    0 -0.32479229990E+02  0.73684544942E+02  0.72049160088E+02  0.10805273719E+03  0.00000000000E+00 0. -1.
          2    1    1    2  501    0  0.13931202041E+02 -0.31759576841E+02  0.10988778318E+03  0.11523052548E+03  0.00000000000E+00 0. -1.
<scales pt_clust_5="13000.00000" pt_clust_6="13000.00000" pt_clust_7="13000.00000" pt_clust_8="13000.00000" pt_clust_9="34.68067"></scales>
<clustering>
<clus scale="   34.681">  1  9  2 -1</clus>
<clus scale="   97.011">  7  8 -1 -1</clus>
<clus scale="   97.093">  5  6 -1 -1</clus>
<clus scale="  121.983">  1  7  2 -1</clus>
<clus scale="   34.681">  1  5  2 -1</clus>
</clustering>
</event>
<event>
 9    1  0.1671478E-005  0.1286880E+03  0.7546771E-02  0.1229803E+00
         21   -1    0    0  501  502  0.00000000000E+00  0.00000000000E+00  0.38294596686E+03  0.38294596686E+03  0.00000000000E+00 0.  1.
         -2   -1    0    0    0  501 -0.00000000000E+00 -0.00000000000E+00 -0.11882062311E+03  0.11882062311E+03  0.00000000000E+00 0.  1.
         23    2    1    2    0    0 -0.81555541113E+02  0.68556255939E+00  0.14969146151E+02  0.12336957979E+03  0.91346601467E+02 0.  0.
         23    2    1    2    0    0  0.90806034563E+02 -0.11213533009E+03  0.12315328124E+03  0.20992340024E+03  0.89894577819E+02 0.  0.
        -13    1    3    3    0    0 -0.74175783894E+01  0.38437201446E+02  0.22967931691E+01  0.39213698920E+02  0.00000000000E+00 0. -1.
         13    1    3    3    0    0 -0.74137962723E+02 -0.37751638886E+02  0.12672352981E+02  0.84155880873E+02  0.00000000000E+00 0.  1.
        -13    1    4    4    0    0  0.24884912069E+02 -0.27678104311E+02 -0.10458197392E+02  0.38661482119E+02  0.00000000000E+00 0.  1.
         13    1    4    4    0    0  0.65921122494E+02 -0.84457225782E+02  0.13361147863E+03  0.17126191812E+03  0.00000000000E+00 0. -1.
         -2    1    1    2    0  502 -0.92504934503E+01  0.11144976753E+03  0.12600291636E+03  0.16847360993E+03  0.00000000000E+00 0.  1.
<scales pt_clust_5="13000.00000" pt_clust_6="13000.00000" pt_clust_7="13000.00000" pt_clust_8="13000.00000" pt_clust_9="111.83301"></scales>
<clustering>
<clus scale="   89.895">  7  8 -1 -1</clus>
<clus scale="   91.347">  5  6 -1 -1</clus>
<clus scale="  111.833">  1  9  2 -1</clus>
<clus scale="  127.661">  1  7  2 -1</clus>
<clus scale="  111.833">  1  5  2 -1</clus>
</clustering>
</event>
<event>
 9    1  0.1671478E-005  0.1578532E+03  0.7546771E-02  0.1193514E+00
          2   -1    0    0  502    0 -0.00000000000E+00  0.00000000000E+00  0.28041434710E+03  0.28041434710E+03  0.00000000000E+00 0. -1.
         21   -1    0    0  501  502  0.00000000000E+00 -0.00000000000E+00 -0.11463692363E+03  0.11463692363E+03  0.00000000000E+00 0.  1.
         23    2    1    2    0    0 -0.99783411547E+02  0.47182276394E+02  0.85601595723E+02  0.17534935046E+03  0.10600408054E+03 0.  0.
         23    2    1    2    0    0  0.12165829427E+03 -0.27195635840E+02  0.98920420719E+02  0.18464003126E+03  0.93628779416E+02 0.  0.
        -11    1    4    4    0    0  0.11457083383E+03  0.82427517089E+01  0.93469565142E+02  0.14809111563E+03  0.00000000000E+00 0.  1.
         11    1    4    4    0    0  0.70874604468E+01 -0.35438387549E+02  0.54508555775E+01  0.36548915636E+02  0.00000000000E+00 0. -1.
        -13    1    3    3    0    0 -0.10344218413E+03  0.72972077214E+02  0.66093285274E+02  0.14280592379E+03  0.00000000000E+00 0. -1.
         13    1    3    3    0    0  0.36587725814E+01 -0.25789800820E+02  0.19508310449E+02  0.32543426675E+02  0.00000000000E+00 0.  1.
          2    1    1    2  501    0 -0.21874882725E+02 -0.19986640554E+02 -0.18744592977E+02  0.35061889007E+02  0.00000000000E+00 0. -1.
<scales pt_clust_5="13000.00000" pt_clust_6="13000.00000" pt_clust_7="13000.00000" pt_clust_8="13000.00000" pt_clust_9="29.63066"></scales>
<clustering>
<clus scale="   29.631">  2  9  1 -1</clus>
<clus scale="   93.629">  5  6 -1 -1</clus>
<clus scale="  106.004">  7  8 -1 -1</clus>
<clus scale="  149.824">  2  5  1 -1</clus>
<clus scale="   29.631">  2  5  1 -1</clus>
</clustering>
</event>
<event>
 9    1  0.1671478E-005  0.2073152E+03  0.7546771E-02  0.1144187E+00
          1   -1    0    0  502    0 -0.00000000000E+00  0.00000000000E+00  0.30329275229E+03  0.30329275229E+03  0.00000000000E+00 0. -1.
         21   -1    0    0  501  502  0.00000000000E+00 -0.00000000000E+00 -0.40291027775E+03  0.40291027775E+03  0.00000000000E+00 0. -1.
         23    2    1    2    0    0 -0.15478776165E+03  0.10804202060E+03  0.13426888150E+03  0.24902116373E+03  0.91384233199E+02 0.  0.
         23    2    1    2    0    0  0.17720466799E+03 -0.42885128082E+02  0.72080029199E+01  0.20643407907E+03  0.96552810035E+02 0.  0.
        -11    1    3    3    0    0 -0.13405735440E+03  0.67438032853E+02  0.13720968923E+03  0.20333657163E+03  0.00000000000E+00 0.  1.
         11    1    3    3    0    0 -0.20730407245E+02  0.40603987742E+02 -0.29408077334E+01  0.45684592099E+02  0.00000000000E+00 0. -1.
        -13    1    4    4    0    0  0.52575136867E+02 -0.13560528705E+02 -0.42641827426E+02  0.69038818078E+02  0.00000000000E+00 0.  1.
         13    1    4    4    0    0  0.12462953113E+03 -0.29324599377E+02  0.49849830346E+02  0.13739526099E+03  0.00000000000E+00 0. -1.
          1    1    1    2  501    0 -0.22416906348E+02 -0.65156892513E+02 -0.24109440988E+03  0.25074778724E+03  0.00000000000E+00 0. -1.
<scales pt_clust_5="13000.00000" pt_clust_6="13000.00000" pt_clust_7="13000.00000" pt_clust_8="13000.00000" pt_clust_9="68.90529"></scales>
<clustering>
<clus scale="   68.905">  2  9  1 -1</clus>
<clus scale="   91.384">  5  6 -1 -1</clus>
<clus scale="   96.553">  7  8 -1 -1</clus>
<clus scale="  204.959">  1  5  2 -1</clus>
<clus scale="   68.905">  2  5  1 -1</clus>
</clustering>
</event>
<event>
 9    1  0.1671478E-005  0.1004159E+03  0.7546771E-02  0.1281125E+00
          4   -1    0    0  502    0 -0.00000000000E+00  0.00000000000E+00  0.27640313088E+03  0.27640313088E+03  0.00000000000E+00 0. -1.
         21   -1    0    0  501  502  0.00000000000E+00 -0.00000000000E+00 -0.12280073547E+03  0.12280073547E+03  0.00000000000E+00 0.  1.
         23    2    1    2    0    0 -0.28288016860E+01 -0.36137356979E+02  0.20217878225E+03  0.22496024234E+03  0.91743882376E+02 0.  0.
         23    2    1    2    0    0 -0.20270908688E+02  0.17535760407E+02  0.18823232391E+02  0.10060718814E+03  0.95126650293E+02 0.  0.
        -11    1    4    4    0    0  0.98694448091E+01 -0.35729629324E+02  0.12317929080E+02  0.39060769697E+02  0.00000000000E+00 0. -1.
         11    1    4    4    0    0 -0.30140353498E+02  0.53265389731E+02  0.65053033113E+01  0.61546418445E+02  0.00000000000E+00 0.  1.
        -11    1    3    3    0    0  0.43473221770E+02 -0.72958615980E+01  0.92235424645E+02  0.10222780525E+03  0.00000000000E+00 0. -1.
         11    1    3    3    0    0 -0.46302023456E+02 -0.28841495381E+02  0.10994335760E+03  0.12273243708E+03  0.00000000000E+00 0.  1.
          4    1    1    2  501    0  0.23099710374E+02  0.18601596571E+02 -0.67399619232E+02  0.73636435866E+02  0.00000000000E+00 0. -1.
<scales pt_clust_5="13000.00000" pt_clust_6="13000.00000" pt_clust_7="13000.00000" pt_clust_8="13000.00000" pt_clust_9="29.65832"></scales>
<clustering>
<clus scale="   29.658">  2  9  1 -1</clus>
<clus scale="   91.744">  7  8 -1 -1</clus>
<clus scale="   95.127">  5  6 -1 -1</clus>
<clus scale="   97.217">  1  7  2 -1</clus>
<clus scale="   29.658">  2  5  1 -1</clus>
</clustering>
</event>
<event>
 9    1  0.1671478E-005  0.1038389E+03  0.7546771E-02  0.1280449E+00
          1   -1    0    0  502    0 -0.00000000000E+00  0.00000000000E+00  0.31302003730E+03  0.31302003730E+03  0.00000000000E+00 0. -1.
         21   -1    0    0  501  502  0.00000000000E+00 -0.00000000000E+00 -0.49434543272E+02  0.49434543272E+02  0.00000000000E+00 0.  1.
         23    2    1    2    0    0 -0.62527427431E+02  0.28259320241E+02  0.16519238714E+03  0.19124741616E+03  0.67666690912E+02 0.  0.
         23    2    1    2    0    0  0.20329518392E+02 -0.37479969846E+02  0.59534028754E+02  0.11310628782E+03  0.86201475093E+02 0.  0.
        -11    1    4    4    0    0 -0.24647384928E+02 -0.72477352570E+01 -0.76346773083E+01  0.26801334812E+02  0.00000000000E+00 0.  1.
         11    1    4    4    0    0  0.44976903320E+02 -0.30232234589E+02  0.67168706062E+02  0.86304953012E+02  0.00000000000E+00 0. -1.
        -13    1    3    3    0    0 -0.41972244063E+02 -0.16767134482E+02  0.96711564136E+02  0.10675173398E+03  0.00000000000E+00 0. -1.
         13    1    3    3    0    0 -0.20555183368E+02  0.45026454723E+02  0.68480823000E+02  0.84495682179E+02  0.00000000000E+00 0.  1.
          1    1    1    2  501    0  0.42197909039E+02  0.92206496045E+01  0.38859078143E+02  0.58100876590E+02  0.00000000000E+00 0. -1.
<scales pt_clust_5="13000.00000" pt_clust_6="13000.00000" pt_clust_7="13000.00000" pt_clust_8="13000.00000" pt_clust_9="43.19356"></scales>
<clustering>
<clus scale="   43.194">  2  9  1 -1</clus>
<clus scale="   67.667">  7  8 -1 -1</clus>
<clus scale="   86.201">  5  6 -1 -1</clus>
<clus scale="   89.054">  1  7  2 -1</clus>
<clus scale="   43.194">  2  5  1 -1</clus>
</clustering>
</event>
<event>
 9    1  0.1671478E-005  0.1038015E+03  0.7546771E-02  0.1272957E+00
          1   -1    0    0  502    0 -0.00000000000E+00  0.00000000000E+00  0.63745594614E+03  0.63745594614E+03  0.00000000000E+00 0. -1.
         21   -1    0    0  501  502  0.00000000000E+00 -0.00000000000E+00 -0.51789606775E+02  0.51789606775E+02  0.00000000000E+00 0.  1.
         23    2    1    2    0    0  0.11257817715E+02 -0.45366420541E+02  0.49808510773E+03  0.50843359716E+03  0.90725396708E+02 0.  0.
         23    2    1    2    0    0 -0.24835179563E+02  0.63965466740E+02  0.10320934368E+03  0.15298198701E+03  0.89682510265E+02 0.  0.
        -13    1    3    3    0    0 -0.12562306961E+02  0.22633148994E+02  0.77157744666E+02  0.81384203329E+02  0.00000000000E+00 0.  1.
         13    1    3    3    0    0  0.23820124676E+02 -0.67999569536E+02  0.42092736306E+03  0.42704939383E+03  0.00000000000E+00 0. -1.
        -13    1    4    4    0    0 -0.27232482238E+01  0.56261343297E+02  0.10418932585E+02  0.57282711063E+02  0.00000000000E+00 0.  1.
         13    1    4    4    0    0 -0.22111931339E+02  0.77041234424E+01  0.92790411095E+02  0.95699275947E+02  0.00000000000E+00 0. -1.
          1    1    1    2  501    0  0.13577361848E+02 -0.18599046198E+02 -0.15628112044E+02  0.27829968744E+02  0.00000000000E+00 0. -1.
<scales pt_clust_5="13000.00000" pt_clust_6="13000.00000" pt_clust_7="13000.00000" pt_clust_8="13000.00000" pt_clust_9="23.02758"></scales>
<clustering>
<clus scale="   23.028">  2  9  1 -1</clus>
<clus scale="   89.683">  7  8 -1 -1</clus>
<clus scale="   90.725">  5  6 -1 -1</clus>
<clus scale="  102.891">  2  7  1 -1</clus>
<clus scale="   23.028">  2  5  1 -1</clus>
</clustering>
</event>
<event>
 9    1  0.1671478E-005  0.9388192E+02  0.7546771E-02  0.1294235E+00
         21   -1    0    0  501  502  0.00000000000E+00  0.00000000000E+00  0.12851318673E+03  0.12851318673E+03  0.00000000000E+00 0.  1.
          1   -1    0    0  502    0 -0.00000000000E+00 -0.00000000000E+00 -0.16307966632E+03  0.16307966632E+03  0.00000000000E+00 0. -1.
         23    2    1    2    0    0 -0.11323311854E+02 -0.12861643854E+02 -0.10145613806E+03  0.13753114132E+03  0.91256931844E+02 0.  0.
         23    2    1    2    0    0  0.28795557059E+02  0.11671706483E+01  0.83182695357E+02  0.12746278117E+03  0.92178378068E+02 0.  0.
        -13    1    4    4    0    0 -0.26905441885E+02  0.38760539043E+01  0.62197495086E+02  0.67878236511E+02  0.00000000000E+00 0.  1.
         13    1    4    4    0    0  0.55700998944E+02 -0.27088832560E+01  0.20985200271E+02  0.59584544659E+02  0.00000000000E+00 0. -1.
        -13    1    3    3    0    0  0.54291908413E+00 -0.45813329302E+02 -0.89460983192E+02  0.10051081244E+03  0.00000000000E+00 0. -1.
         13    1    3    3    0    0 -0.11866230938E+02  0.32951685448E+02 -0.11995154865E+02  0.37020328885E+02  0.00000000000E+00 0.  1.
          1    1    1    2  501    0 -0.17472245205E+02  0.11694473206E+02 -0.16293036885E+02  0.26598930562E+02  0.00000000000E+00 0. -1.
<scales pt_clust_5="13000.00000" pt_clust_6="13000.00000" pt_clust_7="13000.00000" pt_clust_8="13000.00000" pt_clust_9="21.02476"></scales>
<clustering>
<clus scale="   21.025">  1  9  2 -1</clus>
<clus scale="   91.257">  7  8 -1 -1</clus>
<clus scale="   92.178">  5  6 -1 -1</clus>
<clus scale="   92.977">  2  7  1 -1</clus>
<clus scale="   21.025">  1  5  2 -1</clus>
</clustering>
</event>
<event>
 9    1  0.1671478E-005  0.1443985E+03  0.7546771E-02  0.1207669E+00
          1   -1    0    0  502    0 -0.00000000000E+00  0.00000000000E+00  0.52266803574E+03  0.52266803574E+03  0.00000000000E+00 0. -1.
         21   -1    0    0  501  502  0.00000000000E+00 -0.00000000000E+00 -0.23979860993E+03  0.23979860993E+03  0.00000000000E+00 0. -1.
         23    2    1    2    0    0 -0.53545246343E+02 -0.80076580550E+02  0.24082172876E+03  0.27520701000E+03  0.92002397539E+02 0.  0.
         23    2    1    2    0    0  0.86960320755E+02  0.99379385210E+02  0.23801034180E+03  0.28753351419E+03  0.92672754308E+02 0.  0.
        -11    1    3    3    0    0 -0.48564696639E+02 -0.95554144094E+01  0.44554822312E+02  0.66595554622E+02  0.00000000000E+00 0.  1.
         11    1    3    3    0    0 -0.49805497040E+01 -0.70521166141E+02  0.19626690645E+03  0.20861145538E+03  0.00000000000E+00 0. -1.
        -13    1    4    4    0    0  0.14581285099E+02  0.63280156398E+02  0.47173378679E+02  0.80264062475E+02  0.00000000000E+00 0.  1.
         13    1    4    4    0    0  0.72379035656E+02  0.36099228811E+02  0.19083696312E+03  0.20726945172E+03  0.00000000000E+00 0. -1.
          1    1    1    2  501    0 -0.33415074412E+02 -0.19302804659E+02 -0.19596264474E+03  0.19972612148E+03  0.00000000000E+00 0. -1.
<scales pt_clust_5="13000.00000" pt_clust_6="13000.00000" pt_clust_7="13000.00000" pt_clust_8="13000.00000" pt_clust_9="38.58971"></scales>
<clustering>
<clus scale="   38.590">  2  9  1 -1</clus>
<clus scale="   92.002">  5  6 -1 -1</clus>
<clus scale="   92.673">  7  8 -1 -1</clus>
<clus scale="  143.969">  1  5  2 -1</clus>
<clus scale="   38.590">  2  5  1 -1</clus>
</clustering>
</event>
<event>
 9    1  0.1671478E-005  0.1499304E+03  0.7546771E-02  0.1222740E+00
          1   -1    0    0  502    0 -0.00000000000E+00  0.00000000000E+00  0.15957318958E+03  0.15957318958E+03  0.00000000000E+00 0. -1.
         21   -1    0    0  501  502  0.00000000000E+00 -0.00000000000E+00 -0.75694676495E+03  0.75694676495E+03  0.00000000000E+00 0. -1.
         23    2    1    2    0    0 -0.27032272503E+01  0.24706839536E+02  0.83412005033E+02  0.12528729427E+03  0.90119965401E+02 0.  0.
         23    2    1    2    0    0 -0.20728752782E+02 -0.13765734929E+03 -0.91368398499E+02  0.19063338481E+03  0.92809892544E+02 0.  0.
        -11    1    3    3    0    0 -0.11103850239E+02  0.54071098251E+02  0.75873592535E+02  0.93828466898E+02  0.00000000000E+00 0.  1.
         11    1    3    3    0    0  0.84006229885E+01 -0.29364258715E+02  0.75384124984E+01  0.31458827370E+02  0.00000000000E+00 0. -1.
        -13    1    4    4    0    0 -0.44707060666E+02 -0.13612671972E+03 -0.78679458067E+02  0.16346150072E+03  0.00000000000E+00 0. -1.
         13    1    4    4    0    0  0.23978307884E+02 -0.15306295712E+01 -0.12688940432E+02  0.27171884092E+02  0.00000000000E+00 0.  1.
          1    1    1    2  501    0  0.23431980032E+02  0.11295050975E+03 -0.58941718191E+03  0.60059927545E+03  0.00000000000E+00 0. -1.
<scales pt_clust_5="13000.00000" pt_clust_6="13000.00000" pt_clust_7="13000.00000" pt_clust_8="13000.00000" pt_clust_9="117.75166"></scales>
<clustering>
<clus scale="   90.120">  5  6 -1 -1</clus>
<clus scale="   92.810">  7  8 -1 -1</clus>
<clus scale="   93.484">  1  5  2 -1</clus>
<clus scale="  117.752">  2  9  1 -1</clus>
<clus scale="  117.752">  2  5  1 -1</clus>
</clustering>
</event>
<event>
 9    1  0.1671478E-005  0.1039918E+03  0.7546771E-02  0.1272496E+00
         21   -1    0    0  501  502  0.00000000000E+00  0.00000000000E+00  0.27338970212E+03  0.27338970212E+03  0.00000000000E+00 0. -1.
          4   -1    0    0  502    0 -0.00000000000E+00 -0.00000000000E+00 -0.86833284304E+02  0.86833284304E+02  0.00000000000E+00 0. -1.
         23    2    1    2    0    0 -0.43359892914E+02 -0.24706285207E+02 -0.29581814824E+02  0.10790690404E+03  0.90985357773E+02 0.  0.
         23    2    1    2    0    0  0.25751391270E+02  0.41360600102E+02  0.15589758673E+03  0.18738257059E+03  0.91838645558E+02 0.  0.
        -11    1    3    3    0    0 -0.49259365291E+02  0.19055532885E+02  0.31962149451E+01  0.52913270476E+02  0.00000000000E+00 0.  1.
         11    1    3    3    0    0  0.58994723776E+01 -0.43761818092E+02 -0.32778029770E+02  0.54993633565E+02  0.00000000000E+00 0. -1.
        -11    1    4    4    0    0 -0.12055955172E+02 -0.21479832423E+02  0.71234476065E+02  0.75372938355E+02  0.00000000000E+00 0.  1.
         11    1    4    4    0    0  0.37807346442E+02  0.62840432525E+02  0.84663110668E+02  0.11200963223E+03  0.00000000000E+00 0. -1.
          4    1    1    2  501    0  0.17608501643E+02 -0.16654314895E+02  0.60240645909E+02  0.64933511797E+02  0.00000000000E+00 0. -1.
<scales pt_clust_5="13000.00000" pt_clust_6="13000.00000" pt_clust_7="13000.00000" pt_clust_8="13000.00000" pt_clust_9="24.23686"></scales>
<clustering>
<clus scale="   24.237">  1  9  2 -1</clus>
<clus scale="   90.985">  5  6 -1 -1</clus>
<clus scale="   91.839">  7  8 -1 -1</clus>
<clus scale="  103.239">  2  5  1 -1</clus>
<clus scale="   24.237">  1  5  2 -1</clus>
</clustering>
</event>
<event>
 9    1  0.1671478E-005  0.1369257E+03  0.7546771E-02  0.1218109E+00
         21   -1    0    0  501  502  0.00000000000E+00  0.00000000000E+00  0.18692785121E+03  0.18692785121E+03  0.00000000000E+00 0. -1.
          2   -1    0    0  502    0 -0.00000000000E+00 -0.00000000000E+00 -0.26590827592E+03  0.26590827592E+03  0.00000000000E+00 0. -1.
         23    2    1    2    0    0 -0.69309771947E+02 -0.90306327933E+02 -0.16736761651E+03  0.22237326017E+03  0.92080782099E+02 0.  0.
         23    2    1    2    0    0 -0.19641100208E+02  0.82759532387E+02  0.53565835797E+02  0.13464147783E+03  0.89577428904E+02 0.  0.
        -11    1    3    3    0    0  0.80458182582E+01 -0.61079947078E+02 -0.90448846340E+02  0.10943714603E+03  0.00000000000E+00 0. -1.
         11    1    3    3    0    0 -0.77355590205E+02 -0.29226380855E+02 -0.76918770168E+02  0.11293611414E+03  0.00000000000E+00 0.  1.
        -11    1    4    4    0    0 -0.43229096723E+02  0.78037527316E+02  0.16913979117E+02  0.90800292745E+02  0.00000000000E+00 0. -1.
         11    1    4    4    0    0  0.23587996515E+02  0.47220050710E+01  0.36651856680E+02  0.43841185084E+02  0.00000000000E+00 0.  1.
          2    1    1    2  501    0  0.88950872155E+02  0.75467955464E+01  0.34821356001E+02  0.95821389125E+02  0.00000000000E+00 0. -1.
<scales pt_clust_5="13000.00000" pt_clust_6="13000.00000" pt_clust_7="13000.00000" pt_clust_8="13000.00000" pt_clust_9="89.27044"></scales>
<clustering>
<clus scale="   89.270">  1  9  2 -1</clus>
<clus scale="   89.577">  7  8 -1 -1</clus>
<clus scale="   92.081">  5  6 -1 -1</clus>
<clus scale="  135.255">  1  7  2 -1</clus>
<clus scale="   89.270">  1  5  2 -1</clus>
</clustering>
</event>
<event>
 9    1  0.1671478E-005  0.2249744E+03  0.7546771E-02  0.1130645E+00
          2   -1    0    0  502    0 -0.00000000000E+00  0.00000000000E+00  0.16705302833E+04  0.16705302833E+04  0.00000000000E+00 0. -1.
         21   -1    0    0  501  502  0.00000000000E+00 -0.00000000000E+00 -0.95699534007E+02  0.95699534007E+02  0.00000000000E+00 0. -1.
         23    2    1    2    0    0  0.25225111509E+02 -0.19746833472E+03  0.11365738247E+04  0.11571169995E+04  0.86542718534E+02 0.  0.
         23    2    1    2    0    0 -0.15776058739E+02  0.22134751988E+03  0.49310332913E+03  0.54855187196E+03  0.92274885228E+02 0.  0.
        -11    1    3    3    0    0  0.31006772268E+02 -0.28681474915E+02  0.13657659547E+03  0.14295878203E+03  0.00000000000E+00 0. -1.
         11    1    3    3    0    0 -0.57816607591E+01 -0.16878685980E+03  0.99999722920E+03  0.10141582175E+04  0.00000000000E+00 0.  1.
        -13    1    4    4    0    0  0.26168275063E+02  0.10497140736E+03  0.30309225104E+03  0.32182089370E+03  0.00000000000E+00 0.  1.
         13    1    4    4    0    0 -0.41944333802E+02  0.11637611253E+03  0.19001107808E+03  0.22673097825E+03  0.00000000000E+00 0. -1.
          2    1    1    2  501    0 -0.94490527705E+01 -0.23879185165E+02 -0.54846404475E+02  0.60560945884E+02  0.00000000000E+00 0. -1.
<scales pt_clust_5="13000.00000" pt_clust_6="13000.00000" pt_clust_7="13000.00000" pt_clust_8="13000.00000" pt_clust_9="25.68073"></scales>
<clustering>
<clus scale="   25.681">  2  9  1 -1</clus>
<clus scale="   86.543">  5  6 -1 -1</clus>
<clus scale="   92.275">  7  8 -1 -1</clus>
<clus scale="  222.685">  1  5  2 -1</clus>
<clus scale="   25.681">  2  5  1 -1</clus>
</clustering>
</event>
<event>
 9    1  0.1671478E-005  0.1004438E+03  0.7546771E-02  0.1279837E+00
         21   -1    0    0  501  502  0.00000000000E+00  0.00000000000E+00  0.34144864722E+03  0.34144864722E+03  0.00000000000E+00 0. -1.
          2   -1    0    0  502    0 -0.00000000000E+00 -0.00000000000E+00 -0.55431095824E+02  0.55431095824E+02  0.00000000000E+00 0. -1.
         23    2    1    2    0    0  0.20502536254E+02 -0.35872959536E+02  0.83435717748E+02  0.13008259753E+03  0.90844592388E+02 0.  0.
         23    2    1    2    0    0  0.40116874098E+02  0.47628379699E+02  0.14294610145E+03  0.18095238231E+03  0.91827831309E+02 0.  0.
        -11    1    3    3    0    0  0.20693903514E+02  0.20227779006E+02  0.64799006656E+02  0.70966977882E+02  0.00000000000E+00 0. -1.
         11    1    3    3    0    0 -0.19136726048E+00 -0.56100738542E+02  0.18636711092E+02  0.59115619651E+02  0.00000000000E+00 0.  1.
        -13    1    4    4    0    0  0.36186863888E+02  0.16529422633E+02  0.57209450596E+01  0.40192538399E+02  0.00000000000E+00 0.  1.
         13    1    4    4    0    0  0.39300102104E+01  0.31098957066E+02  0.13722515639E+03  0.14075984391E+03  0.00000000000E+00 0. -1.
          2    1    1    2  501    0 -0.60619410352E+02 -0.11755420163E+02  0.59635732199E+02  0.85844763203E+02  0.00000000000E+00 0. -1.
<scales pt_clust_5="13000.00000" pt_clust_6="13000.00000" pt_clust_7="13000.00000" pt_clust_8="13000.00000" pt_clust_9="61.74874"></scales>
<clustering>
<clus scale="   61.749">  1  9  2 -1</clus>
<clus scale="   90.845">  5  6 -1 -1</clus>
<clus scale="   91.828">  7  8 -1 -1</clus>
<clus scale="   99.546">  2  5  1 -1</clus>
<clus scale="   61.749">  1  5  2 -1</clus>
</clustering>
</event>
<event>
 9    1  0.1671478E-005  0.9826299E+02  0.7546771E-02  0.1285057E+00
         21   -1    0    0  501  502  0.00000000000E+00  0.00000000000E+00  0.15597943710E+03  0.15597943710E+03  0.00000000000E+00 0. -1.
          2   -1    0    0  502    0 -0.00000000000E+00 -0.00000000000E+00 -0.14787115806E+03  0.14787115806E+03  0.00000000000E+00 0. -1.
         23    2    1    2    0    0 -0.41012112230E+02  0.25308953585E+02 -0.79994457949E+02  0.13106938953E+03  0.91964857902E+02 0.  0.
         23    2    1    2    0    0 -0.27060732730E+01 -0.10045333118E+02  0.23814526832E+02  0.93552222175E+02  0.89870212171E+02 0.  0.
        -13    1    4    4    0    0 -0.10749406407E+01 -0.40781312623E+02 -0.15483825608E+02  0.43635075479E+02  0.00000000000E+00 0.  1.
         13    1    4    4    0    0 -0.16311326323E+01  0.30735979504E+02  0.39298352440E+02  0.49917146696E+02  0.00000000000E+00 0. -1.
        -13    1    3    3    0    0 -0.10503927659E+02  0.23347230615E+02 -0.94013587883E+02  0.97437058557E+02  0.00000000000E+00 0.  1.
         13    1    3    3    0    0 -0.30508184571E+02  0.19617229700E+01  0.14019129934E+02  0.33632330976E+02  0.00000000000E+00 0. -1.
          2    1    1    2  501    0  0.43718185503E+02 -0.15263620467E+02  0.64288210158E+02  0.79228983452E+02  0.00000000000E+00 0. -1.
<scales pt_clust_5="13000.00000" pt_clust_6="13000.00000" pt_clust_7="13000.00000" pt_clust_8="13000.00000" pt_clust_9="46.30613"></scales>
<clustering>
<clus scale="   46.306">  1  9  2 -1</clus>
<clus scale="   89.870">  5  6 -1 -1</clus>
<clus scale="   91.965">  7  8 -1 -1</clus>
<clus scale="   96.305">  1  5  2 -1</clus>
<clus scale="   46.306">  1  5  2 -1</clus>
</clustering>
</event>
<event>
 9    1  0.1671478E-005  0.1605247E+03  0.7546771E-02  0.1188261E+00
         21   -1    0    0  501  502  0.00000000000E+00  0.00000000000E+00  0.23568531977E+03  0.23568531977E+03  0.00000000000E+00 0. -1.
          2   -1    0    0  502    0 -0.00000000000E+00 -0.00000000000E+00 -0.33852057202E+03  0.33852057202E+03  0.00000000000E+00 0. -1.
         23    2    1    2    0    0  0.63399842406E+02  0.10650534078E+03 -0.21888262562E+03  0.26731674125E+03  0.90474906608E+02 0.  0.
         23    2    1    2    0    0 -0.68114691493E+02 -0.15001740943E+03  0.60812227654E+01  0.18853339784E+03  0.91449584487E+02 0.  0.
        -11    1    3    3    0    0  0.84248506031E+02  0.64727336524E+02 -0.16192007495E+03  0.19366349561E+03  0.00000000000E+00 0. -1.
         11    1    3    3    0    0 -0.20848663626E+02  0.41778004258E+02 -0.56962550667E+02  0.73653245639E+02  0.00000000000E+00 0.  1.
        -13    1    4    4    0    0  0.15709149634E+02 -0.55638859895E+02 -0.16891432660E+02  0.60231060176E+02  0.00000000000E+00 0. -1.
         13    1    4    4    0    0 -0.83823841127E+02 -0.94378549531E+02  0.22972655426E+02  0.12830233766E+03  0.00000000000E+00 0.  1.
          2    1    1    2  501    0  0.47148490876E+01  0.43512068643E+02  0.10996615060E+03  0.11835575270E+03  0.00000000000E+00 0. -1.
<scales pt_clust_5="13000.00000" pt_clust_6="13000.00000" pt_clust_7="13000.00000" pt_clust_8="13000.00000" pt_clust_9="43.76677"></scales>
<clustering>
<clus scale="   43.767">  1  9  2 -1</clus>
<clus scale="   90.475">  5  6 -1 -1</clus>
<clus scale="   91.450">  7  8 -1 -1</clus>
<clus scale="  159.971">  2  5  1 -1</clus>
<clus scale="   43.767">  1  5  2 -1</clus>
</clustering>
</event>
<event>
 9    1  0.1671478E-005  0.1691993E+03  0.7546771E-02  0.1203797E+00
         21   -1    0    0  501  502  0.00000000000E+00  0.00000000000E+00  0.52458120321E+03  0.52458120321E+03  0.00000000000E+00 0.  1.
         -2   -1    0    0    0  501 -0.00000000000E+00 -0.00000000000E+00 -0.16265469326E+03  0.16265469326E+03  0.00000000000E+00 0.  1.
         23    2    1    2    0    0  0.35763433709E+02 -0.62998970580E+01  0.49634064933E+02  0.10919127861E+03  0.90224625409E+02 0.  0.
         23    2    1    2    0    0 -0.17012406264E+03  0.35094504146E+02 -0.38731588424E+02  0.20108337309E+03  0.93597895725E+02 0.  0.
        -11    1    3    3    0    0 -0.29934371723E-01 -0.39853927251E+02  0.64524660808E+00  0.39859161514E+02  0.00000000000E+00 0. -1.
         11    1    3    3    0    0  0.35793368080E+02  0.33554030194E+02  0.48988818325E+02  0.69332117100E+02  0.00000000000E+00 0.  1.
        -13    1    4    4    0    0 -0.68635843856E+02  0.56707153066E+02 -0.39296101885E+02  0.97317849822E+02  0.00000000000E+00 0.  1.
         13    1    4    4    0    0 -0.10148821878E+03 -0.21612648920E+02  0.56451346165E+00  0.10376552327E+03  0.00000000000E+00 0. -1.
         -2    1    1    2    0  502  0.13436062893E+03 -0.28794607088E+02  0.35102403343E+03  0.37696124476E+03  0.00000000000E+00 0.  1.
<scales pt_clust_5="13000.00000" pt_clust_6="13000.00000" pt_clust_7="13000.00000" pt_clust_8="13000.00000" pt_clust_9="140.95335"></scales>
<clustering>
<clus scale="   90.225">  5  6 -1 -1</clus>
<clus scale="   93.598">  7  8 -1 -1</clus>
<clus scale="   97.258">  2  5  1 -1</clus>
<clus scale="  140.953">  1  9  2 -1</clus>
<clus scale="  140.953">  1  5  2 -1</clus>
</clustering>
</event>
<event>
 9    1  0.1671478E-005  0.1232918E+03  0.7546771E-02  0.1244017E+00
          1   -1    0    0  502    0 -0.00000000000E+00  0.00000000000E+00  0.36993752163E+03  0.36993752163E+03  0.00000000000E+00 0. -1.
         21   -1    0    0  501  502  0.00000000000E+00 -0.00000000000E+00 -0.22186585221E+03  0.22186585221E+03  0.00000000000E+00 0.  1.
         23    2    1    2    0    0  0.40646740790E+02 -0.45392345868E+02  0.28189337761E+03  0.30209142064E+03  0.89903990369E+02 0.  0.
         23    2    1    2    0    0 -0.33774412977E+02 -0.66935609567E+02 -0.13212637929E+03  0.17716119753E+03  0.91146162869E+02 0.  0.
        -11    1    3    3    0    0  0.43371569592E+02  0.18785012355E+01  0.53777321588E+02  0.69113111151E+02  0.00000000000E+00 0.  1.
         11    1    3    3    0    0 -0.27248288025E+01 -0.47270847103E+02  0.22811605602E+03  0.23297830949E+03  0.00000000000E+00 0. -1.
        -13    1    4    4    0    0 -0.26288710514E+02 -0.29831329537E+02 -0.13348879450E+03  0.13928482609E+03  0.00000000000E+00 0.  1.
         13    1    4    4    0    0 -0.74857024625E+01 -0.37104280031E+02  0.13624152112E+01  0.37876371436E+02  0.00000000000E+00 0. -1.
          1    1    1    2  501    0 -0.68723278128E+01  0.11232795544E+03 -0.16953288944E+01  0.11255075567E+03  0.00000000000E+00 0. -1.
<scales pt_clust_5="13000.00000" pt_clust_6="13000.00000" pt_clust_7="13000.00000" pt_clust_8="13000.00000" pt_clust_9="83.02558"></scales>
<clustering>
<clus scale="   89.904">  5  6 -1 -1</clus>
<clus scale="   91.146">  7  8 -1 -1</clus>
<clus scale="  108.606">  1  5  2 -1</clus>
<clus scale="   83.026">  2  9  1 -1</clus>
<clus scale="   83.026">  2  5  1 -1</clus>
</clustering>
</event>
<event>
 9    1  0.1671478E-005  0.1170052E+03  0.7546771E-02  0.1248404E+00
         21   -1    0    0  501  502  0.00000000000E+00  0.00000000000E+00  0.35346053077E+02  0.35346053077E+02  0.00000000000E+00 0. -1.
          2   -1    0    0  502    0 -0.00000000000E+00 -0.00000000000E+00 -0.60551732562E+03  0.60551732562E+03  0.00000000000E+00 0. -1.
         23    2    1    2    0    0  0.70242153271E+02  0.47955233037E+02 -0.28117269038E+03  0.30728516725E+03  0.90179974066E+02 0.  0.
         23    2    1    2    0    0 -0.20924472652E+02 -0.64691714616E+02 -0.18155355162E+03  0.21417646094E+03  0.91033031464E+02 0.  0.
        -11    1    3    3    0    0  0.74945627006E+02  0.11168544405E+01 -0.14538389785E+03  0.16356824913E+03  0.00000000000E+00 0. -1.
         11    1    3    3    0    0 -0.47034737346E+01  0.46838378596E+02 -0.13578879253E+03  0.14371691812E+03  0.00000000000E+00 0.  1.
        -13    1    4    4    0    0  0.35728929952E+02 -0.30648683430E+02 -0.66218422426E+02  0.81245170318E+02  0.00000000000E+00 0.  1.
         13    1    4    4    0    0 -0.56653402604E+02 -0.34043031186E+02 -0.11533512920E+03  0.13293129062E+03  0.00000000000E+00 0. -1.
          2    1    1    2  501    0 -0.49317680619E+02  0.16736481579E+02 -0.10744503053E+03  0.11940175050E+03  0.00000000000E+00 0. -1.
<scales pt_clust_5="13000.00000" pt_clust_6="13000.00000" pt_clust_7="13000.00000" pt_clust_8="13000.00000" pt_clust_9="52.08019"></scales>
<clustering>
<clus scale="   52.080">  1  9  2 -1</clus>
<clus scale="   90.180">  5  6 -1 -1</clus>
<clus scale="   91.033">  7  8 -1 -1</clus>
<clus scale="  116.343">  2  5  1 -1</clus>
<clus scale="   52.080">  1  5  2 -1</clus>
</clustering>
</event>
<event>
 9    1  0.1895294E-005  0.9263037E+02  0.7546771E-02  0.1302415E+00
          1   -1    0    0  502    0 -0.00000000000E+00  0.00000000000E+00  0.42281831854E+03  0.42281831854E+03  0.00000000000E+00 0. -1.
         21   -1    0    0  501  502  0.00000000000E+00 -0.00000000000E+00 -0.90533098263E+02  0.90533098263E+02  0.00000000000E+00 0.  1.
         23    2    1    2    0    0  0.13728076742E+02 -0.12700787782E+01  0.34142198189E+03  0.35392684871E+03  0.92223485769E+02 0.  0.
         23    2    1    2    0    0  0.17968978427E+02 -0.23955650993E+02  0.39209660525E+02  0.96349872043E+02  0.82759549081E+02 0.  0.
        -11    1    4    4    0    0  0.36700774879E+00  0.26928921186E+02  0.32316686647E+02  0.42067442598E+02  0.00000000000E+00 0. -1.
         11    1    4    4    0    0  0.17601970678E+02 -0.50884572179E+02  0.68929738779E+01  0.54282429445E+02  0.00000000000E+00 0.  1.
        -13    1    3    3    0    0  0.44336580974E+02 -0.26842492174E+02  0.16051336902E+03  0.16867362993E+03  0.00000000000E+00 0. -1.
         13    1    3    3    0    0 -0.30608504232E+02  0.25572413395E+02  0.18090861287E+03  0.18525321878E+03  0.00000000000E+00 0.  1.
          1    1    1    2  501    0 -0.31697055169E+02  0.25225729771E+02 -0.48346422136E+02  0.63074696053E+02  0.00000000000E+00 0. -1.
<scales pt_clust_5="13000.00000" pt_clust_6="13000.00000" pt_clust_7="13000.00000" pt_clust_8="13000.00000" pt_clust_9="40.50976"></scales>
<clustering>
<clus scale="   40.510">  2  9  1 -1</clus>
<clus scale="   82.760">  5  6 -1 -1</clus>
<clus scale="   83.213">  2  5  1 -1</clus>
<clus scale="   92.223">  7  8 -1 -1</clus>
<clus scale="   40.510">  2  5  1 -1</clus>
</clustering>
</event>
<event>
 9    1  0.1671478E-005  0.1529309E+03  0.7546771E-02  0.1216059E+00
          3   -1    0    0  502    0 -0.00000000000E+00  0.00000000000E+00  0.28231095382E+03  0.28231095382E+03  0.00000000000E+00 0. -1.
         21   -1    0    0  501  502  0.00000000000E+00 -0.00000000000E+00 -0.13624379483E+03  0.13624379483E+03  0.00000000000E+00 0. -1.
         23    2    1    2    0    0  0.12982397650E+02  0.44333317192E+02  0.69810737678E+02  0.12308278608E+03  0.90232186450E+02 0.  0.
         23    2    1    2    0    0  0.12404733595E+01  0.10287404738E+03  0.28410080058E+02  0.14003203651E+03  0.90648939333E+02 0.  0.
        -11    1    4    4    0    0 -0.89127007049E+01  0.31048761985E+02 -0.32121070951E+02  0.45554638114E+02  0.00000000000E+00 0.  1.
         11    1    4    4    0    0  0.10153174064E+02  0.71825285391E+02  0.60531151008E+02  0.94477398395E+02  0.00000000000E+00 0. -1.
        -13    1    3    3    0    0  0.43813605202E+02  0.23633112220E+01  0.12452450533E+02  0.45610094990E+02  0.00000000000E+00 0. -1.
         13    1    3    3    0    0 -0.30831207552E+02  0.41970005970E+02  0.57358287145E+02  0.77472691088E+02  0.00000000000E+00 0.  1.
          3    1    1    2  501    0 -0.14222871010E+02 -0.14720736457E+03  0.47846341260E+02  0.15543992606E+03  0.00000000000E+00 0. -1.
<scales pt_clust_5="13000.00000" pt_clust_6="13000.00000" pt_clust_7="13000.00000" pt_clust_8="13000.00000" pt_clust_9="123.16911"></scales>
<clustering>
<clus scale="   90.232">  7  8 -1 -1</clus>
<clus scale="   90.649">  5  6 -1 -1</clus>
<clus scale="  101.370">  1  7  2 -1</clus>
<clus scale="  123.169">  2  9  1 -1</clus>
<clus scale="  123.169">  2  5  1 -1</clus>
</clustering>
</event>
<event>
 9    1  0.1671478E-005  0.1161819E+03  0.7546771E-02  0.1250046E+00
          1   -1    0    0  502    0 -0.00000000000E+00  0.00000000000E+00  0.12787303589E+03  0.12787303589E+03  0.00000000000E+00 0. -1.
         21   -1    0    0  501  502  0.00000000000E+00 -0.00000000000E+00 -0.26424649964E+03  0.26424649964E+03  0.00000000000E+00 0.  1.
         23    2    1    2    0    0  0.64180441467E+02 -0.26905192442E+02  0.43615568932E+02  0.12155503087E+03  0.89611881067E+02 0.  0.
         23    2    1    2    0    0 -0.95380033653E+02 -0.18924205293E+02 -0.16693655008E+03  0.21360736681E+03  0.91130779872E+02 0.  0.
        -11    1    3    3    0    0  0.16692308631E+02  0.28198018978E+02  0.35579233136E+02  0.48369859130E+02  0.00000000000E+00 0.  1.
         11    1    3    3    0    0  0.47488132837E+02 -0.55103211420E+02  0.80363357962E+01  0.73185171736E+02  0.00000000000E+00 0. -1.
        -13    1    4    4    0    0 -0.77735194309E+02 -0.34221694877E+02 -0.17001751102E+03  0.19005220043E+03  0.00000000000E+00 0.  1.
         13    1    4    4    0    0 -0.17644839344E+02  0.15297489584E+02  0.30809609440E+01  0.23555166384E+02  0.00000000000E+00 0. -1.
          1    1    1    2  501    0  0.31199592185E+02  0.45829397735E+02 -0.13052482607E+02  0.56957137845E+02  0.00000000000E+00 0. -1.
<scales pt_clust_5="13000.00000" pt_clust_6="13000.00000" pt_clust_7="13000.00000" pt_clust_8="13000.00000" pt_clust_9="55.44142"></scales>
<clustering>
<clus scale="   55.441">  2  9  1 -1</clus>
<clus scale="   89.612">  5  6 -1 -1</clus>
<clus scale="   91.131">  7  8 -1 -1</clus>
<clus scale="  114.994">  1  5  2 -1</clus>
<clus scale="   55.441">  2  5  1 -1</clus>
</clustering>
</event>
<event>
 9    1  0.1671478E-005  0.1217737E+03  0.7546771E-02  0.1248313E+00
          1   -1    0    0  502    0 -0.00000000000E+00  0.00000000000E+00  0.87244609243E+03  0.87244609243E+03  0.00000000000E+00 0. -1.
         21   -1    0    0  501  502  0.00000000000E+00 -0.00000000000E+00 -0.27971752536E+02  0.27971752536E+02  0.00000000000E+00 0.  1.
         23    2    1    2    0    0  0.22714842707E+02  0.77175781478E+02  0.65880198057E+03  0.67092434063E+03  0.98220954546E+02 0.  0.
         23    2    1    2    0    0 -0.34835499119E+02 -0.45730039107E+02  0.16534302831E+03  0.19013582752E+03  0.74219723929E+02 0.  0.
        -11    1    4    4    0    0  0.84019954874E+01 -0.39566048953E+02  0.37949854199E+02  0.55464017089E+02  0.00000000000E+00 0.  1.
         11    1    4    4    0    0 -0.43237494606E+02 -0.61639901546E+01  0.12739317411E+03  0.13467181043E+03  0.00000000000E+00 0. -1.
        -13    1    3    3    0    0  0.89831767282E+01 -0.23597415617E+02  0.12797910465E+03  0.13044610656E+03  0.00000000000E+00 0.  1.
         13    1    3    3    0    0  0.13731665979E+02  0.10077319709E+03  0.53082287592E+03  0.54047823407E+03  0.00000000000E+00 0. -1.
          1    1    1    2  501    0  0.12120656412E+02 -0.31445742370E+02  0.20329331004E+02  0.39357676813E+02  0.00000000000E+00 0. -1.
<scales pt_clust_5="13000.00000" pt_clust_6="13000.00000" pt_clust_7="13000.00000" pt_clust_8="13000.00000" pt_clust_9="33.70082"></scales>
<clustering>
<clus scale="   33.701">  2  9  1 -1</clus>
<clus scale="   74.220">  5  6 -1 -1</clus>
<clus scale="   98.221">  7  8 -1 -1</clus>
<clus scale="  103.393">  2  5  1 -1</clus>
<clus scale="   33.701">  2  5  1 -1</clus>
</clustering>
</event>
<event>
 9    1  0.1671478E-005  0.1994855E+03  0.7546771E-02  0.1150368E+00
         21   -1    0    0  501  502  0.00000000000E+00  0.00000000000E+00  0.36846471758E+03  0.36846471758E+03  0.00000000000E+00 0. -1.
         -1   -1    0    0    0  501 -0.00000000000E+00 -0.00000000000E+00 -0.20952134637E+03  0.20952134637E+03  0.00000000000E+00 0.  1.
         23    2    1    2    0    0  0.18611540027E+03  0.66960549566E+02 -0.50719634146E+02  0.22292911902E+03  0.89455315113E+02 0.  0.
         23    2    1    2    0    0 -0.15209585777E+03 -0.10708791505E+02  0.53592220874E+02  0.18570618666E+03  0.91470396630E+02 0.  0.
        -11    1    4    4    0    0 -0.32265157048E+02 -0.41881238958E+02  0.66392247519E+01  0.53283748379E+02  0.00000000000E+00 0. -1.
         11    1    4    4    0    0 -0.11983070073E+03  0.31172447453E+02  0.46952996122E+02  0.13242243829E+03  0.00000000000E+00 0.  1.
        -13    1    3    3    0    0  0.96105838012E+02  0.42532814557E+02 -0.71837474363E+02  0.12730276956E+03  0.00000000000E+00 0. -1.
         13    1    3    3    0    0  0.90009562259E+02  0.24427735009E+02  0.21117840217E+02  0.95626349461E+02  0.00000000000E+00 0.  1.
         -1    1    1    2    0  502 -0.34019542496E+02 -0.56251758061E+02  0.15607078448E+03  0.16935075827E+03  0.00000000000E+00 0.  1.
<scales pt_clust_5="13000.00000" pt_clust_6="13000.00000" pt_clust_7="13000.00000" pt_clust_8="13000.00000" pt_clust_9="65.73880"></scales>
<clustering>
<clus scale="   65.739">  1  9  2 -1</clus>
<clus scale="   89.455">  7  8 -1 -1</clus>
<clus scale="   91.470">  5  6 -1 -1</clus>
<clus scale="  198.570">  2  7  1 -1</clus>
<clus scale="   65.739">  1  5  2 -1</clus>
</clustering>
</event>
<event>
 9    1  0.1671478E-005  0.1650976E+03  0.7546771E-02  0.1183475E+00
         21   -1    0    0  501  502  0.00000000000E+00  0.00000000000E+00  0.21986705785E+03  0.21986705785E+03  0.00000000000E+00 0.  1.
         -4   -1    0    0    0  501 -0.00000000000E+00 -0.00000000000E+00 -0.17642373434E+03  0.17642373434E+03  0.00000000000E+00 0.  1.
         23    2    1    2    0    0  0.41537644737E+02 -0.14821731235E+03 -0.27471974852E+02  0.18192549276E+03  0.92996924149E+02 0.  0.
         23    2    1    2    0    0 -0.48862554364E+02  0.10714740095E+03  0.21863785245E+02  0.14997242045E+03  0.90252905997E+02 0.  0.
        -11    1    4    4    0    0 -0.60954001111E+01  0.10493149509E+03  0.10286237000E+02  0.10561050722E+03  0.00000000000E+00 0.  1.
         11    1    4    4    0    0 -0.42767154253E+02  0.22159058599E+01  0.11577548246E+02  0.44361913226E+02  0.00000000000E+00 0. -1.
        -13    1    3    3    0    0  0.59151256997E+02 -0.10444322548E+03  0.11700775143E+02  0.12059919856E+03  0.00000000000E+00 0.  1.
         13    1    3    3    0    0 -0.17613612260E+02 -0.43774086872E+02 -0.39172749995E+02  0.61326294201E+02  0.00000000000E+00 0. -1.
         -4    1    1    2    0  502  0.73249096266E+01  0.41069911403E+02  0.49051513114E+02  0.64392878973E+02  0.00000000000E+00 0.  1.
<scales pt_clust_5="13000.00000" pt_clust_6="13000.00000" pt_clust_7="13000.00000" pt_clust_8="13000.00000" pt_clust_9="41.71800"></scales>
<clustering>
<clus scale="   41.718">  1  9  2 -1</clus>
<clus scale="   90.253">  5  6 -1 -1</clus>
<clus scale="   92.997">  7  8 -1 -1</clus>
<clus scale="  163.568">  1  5  2 -1</clus>
<clus scale="   41.718">  1  5  2 -1</clus>
</clustering>
</event>
<event>
 9    1  0.1671478E-005  0.1156163E+03  0.7546771E-02  0.1262321E+00
          3   -1    0    0  502    0 -0.00000000000E+00  0.00000000000E+00  0.24674597499E+03  0.24674597499E+03  0.00000000000E+00 0. -1.
         21   -1    0    0  501  502  0.00000000000E+00 -0.00000000000E+00 -0.10944112548E+03  0.10944112548E+03  0.00000000000E+00 0.  1.
         23    2    1    2    0    0 -0.62845928996E+00 -0.11611684748E+02  0.15433737844E+03  0.19260565012E+03  0.11463718372E+03 0.  0.
         23    2    1    2    0    0 -0.51961590305E+02  0.67793310330E+01 -0.31088287777E+02  0.10893138799E+03  0.90297283766E+02 0.  0.
        -11    1    3    3    0    0 -0.34812719864E+02 -0.28494649444E+02  0.13901298873E+02  0.47086267867E+02  0.00000000000E+00 0.  1.
         11    1    3    3    0    0  0.34184260574E+02  0.16882964696E+02  0.14043607957E+03  0.14551938226E+03  0.00000000000E+00 0. -1.
        -13    1    4    4    0    0 -0.70853828496E+00  0.41063715225E+02 -0.22034838304E+02  0.46607561979E+02  0.00000000000E+00 0. -1.
         13    1    4    4    0    0 -0.51253052020E+02 -0.34284384192E+02 -0.90534494728E+01  0.62323826007E+02  0.00000000000E+00 0.  1.
          3    1    1    2  501    0  0.52590049595E+02  0.48323537151E+01  0.14055758842E+02  0.54650062355E+02  0.00000000000E+00 0. -1.
<scales pt_clust_5="13000.00000" pt_clust_6="13000.00000" pt_clust_7="13000.00000" pt_clust_8="13000.00000" pt_clust_9="52.81160"></scales>
<clustering>
<clus scale="   52.812">  2  9  1 -1</clus>
<clus scale="   90.297">  7  8 -1 -1</clus>
<clus scale="   91.537">  2  7  1 -1</clus>
<clus scale="  114.637">  5  6 -1 -1</clus>
<clus scale="   52.812">  2  5  1 -1</clus>
</clustering>
</event>
<event>
 9    1  0.1671478E-005  0.1994191E+03  0.7546771E-02  0.1150328E+00
         21   -1    0    0  501  502  0.00000000000E+00  0.00000000000E+00  0.45264284758E+02  0.45264284758E+02  0.00000000000E+00 0. -1.
          2   -1    0    0  502    0 -0.00000000000E+00 -0.00000000000E+00 -0.12973762299E+04  0.12973762299E+04  0.00000000000E+00 0. -1.
         23    2    1    2    0    0 -0.20447974967E+02  0.15612259626E+03 -0.60132743613E+03  0.62830013781E+03  0.91509524026E+02 0.  0.
         23    2    1    2    0    0  0.35141264539E+02 -0.20225660079E+03 -0.61261851435E+03  0.65268908098E+03  0.92514600289E+02 0.  0.
        -11    1    4    4    0    0  0.41247794407E+02 -0.11349426038E+03 -0.46416012700E+03  0.47961125006E+03  0.00000000000E+00 0. -1.
         11    1    4    4    0    0 -0.61065298687E+01 -0.88762340412E+02 -0.14845838735E+03  0.17307783092E+03  0.00000000000E+00 0.  1.
        -11    1    3    3    0    0 -0.46005509534E+02  0.47984067723E+02 -0.29625120945E+03  0.30361778071E+03  0.00000000000E+00 0.  1.
         11    1    3    3    0    0  0.25557534567E+02  0.10813852854E+03 -0.30507622668E+03  0.32468235710E+03  0.00000000000E+00 0. -1.
          2    1    1    2  501    0 -0.14693289571E+02  0.46134004528E+02 -0.38165994624E+02  0.61651295833E+02  0.00000000000E+00 0. -1.
<scales pt_clust_5="13000.00000" pt_clust_6="13000.00000" pt_clust_7="13000.00000" pt_clust_8="13000.00000" pt_clust_9="48.41734"></scales>
<clustering>
<clus scale="   48.417">  1  9  2 -1</clus>
<clus scale="   91.510">  7  8 -1 -1</clus>
<clus scale="   92.515">  5  6 -1 -1</clus>
<clus scale="  198.955">  2  7  1 -1</clus>
<clus scale="   48.417">  1  5  2 -1</clus>
</clustering>
</event>
<event>
 9    1  0.1671478E-005  0.9912517E+02  0.7546771E-02  0.1283600E+00
          2   -1    0    0  502    0 -0.00000000000E+00  0.00000000000E+00  0.66725852863E+02  0.66725852863E+02  0.00000000000E+00 0. -1.
         21   -1    0    0  501  502  0.00000000000E+00 -0.00000000000E+00 -0.36594659276E+03  0.36594659276E+03  0.00000000000E+00 0. -1.
         23    2    1    2    0    0  0.21397793961E+02  0.21788394127E+02 -0.32798224261E+02  0.10315180418E+03  0.92908403737E+02 0.  0.
         23    2    1    2    0    0 -0.44925534703E+02 -0.24183307806E+01 -0.52647155292E+02  0.11358394093E+03  0.90030198742E+02 0.  0.
        -11    1    3    3    0    0 -0.34160696407E+02  0.21853539545E+02 -0.23352500869E+02  0.46796043279E+02  0.00000000000E+00 0.  1.
         11    1    3    3    0    0  0.55558490368E+02 -0.65145417361E-01 -0.94457233912E+01  0.56355760897E+02  0.00000000000E+00 0. -1.
        -11    1    4    4    0    0 -0.63287461951E+02  0.14877674978E+02 -0.58756146423E+02  0.87629520114E+02  0.00000000000E+00 0.  1.
         11    1    4    4    0    0  0.18361927248E+02 -0.17296005758E+02  0.61089911307E+01  0.25954420820E+02  0.00000000000E+00 0. -1.
          2    1    1    2  501    0  0.23527740743E+02 -0.19370063347E+02 -0.21377536034E+03  0.21593670051E+03  0.00000000000E+00 0. -1.
<scales pt_clust_5="13000.00000" pt_clust_6="13000.00000" pt_clust_7="13000.00000" pt_clust_8="13000.00000" pt_clust_9="30.47546"></scales>
<clustering>
<clus scale="   30.475">  2  9  1 -1</clus>
<clus scale="   90.030">  7  8 -1 -1</clus>
<clus scale="   92.908">  5  6 -1 -1</clus>
<clus scale="   96.433">  2  7  1 -1</clus>
<clus scale="   30.475">  2  5  1 -1</clus>
</clustering>
</event>
<event>
 9    1  0.1671478E-005  0.1067868E+03  0.7546771E-02  0.1273094E+00
          2   -1    0    0  502    0 -0.00000000000E+00  0.00000000000E+00  0.24067745127E+03  0.24067745127E+03  0.00000000000E+00 0. -1.
         21   -1    0    0  501  502  0.00000000000E+00 -0.00000000000E+00 -0.51754640619E+03  0.51754640619E+03  0.00000000000E+00 0. -1.
         23    2    1    2    0    0  0.71042977906E+02  0.22010322308E+02  0.18835027215E+03  0.22197319858E+03  0.90910488248E+02 0.  0.
         23    2    1    2    0    0 -0.62714843158E+01 -0.65286868101E+01 -0.10936278738E+02  0.77112308752E+02  0.75794133687E+02 0.  0.
        -11    1    3    3    0    0  0.39891142288E+02 -0.34374935701E+02  0.93657357614E+02  0.10744598677E+03  0.00000000000E+00 0. -1.
         11    1    3    3    0    0  0.31151835618E+02  0.56385258010E+02  0.94692914533E+02  0.11452721181E+03  0.00000000000E+00 0.  1.
        -11    1    4    4    0    0  0.17421496661E+02 -0.34442570395E+02 -0.12191007172E+02  0.40477399338E+02  0.00000000000E+00 0. -1.
         11    1    4    4    0    0 -0.23692980976E+02  0.27913883585E+02  0.12547284338E+01  0.36634909414E+02  0.00000000000E+00 0.  1.
          2    1    1    2  501    0 -0.64771493590E+02 -0.15481635498E+02 -0.45428294832E+03  0.45913835013E+03  0.00000000000E+00 0. -1.
<scales pt_clust_5="13000.00000" pt_clust_6="13000.00000" pt_clust_7="13000.00000" pt_clust_8="13000.00000" pt_clust_9="66.59600"></scales>
<clustering>
<clus scale="   66.596">  2  9  1 -1</clus>
<clus scale="   75.794">  7  8 -1 -1</clus>
<clus scale="   90.910">  5  6 -1 -1</clus>
<clus scale="   94.252">  2  7  1 -1</clus>
<clus scale="   66.596">  2  5  1 -1</clus>
</clustering>
</event>
<event>
 9    1  0.1671478E-005  0.9608669E+02  0.7546771E-02  0.1290129E+00
         21   -1    0    0  501  502  0.00000000000E+00  0.00000000000E+00  0.19693687543E+02  0.19693687543E+02  0.00000000000E+00 0.  1.
          1   -1    0    0  502    0 -0.00000000000E+00 -0.00000000000E+00 -0.81757555573E+03  0.81757555573E+03  0.00000000000E+00 0. -1.
         23    2    1    2    0    0  0.17610364780E+02  0.45626339375E+02 -0.39348698889E+03  0.40729573868E+03  0.93090926116E+02 0.  0.
         23    2    1    2    0    0 -0.85684065460E+01  0.55921115231E+01 -0.29665853016E+03  0.31033986532E+03  0.90553073878E+02 0.  0.
        -13    1    3    3    0    0 -0.19276674090E+02  0.58709607654E+02 -0.18162765477E+03  0.19185153940E+03  0.00000000000E+00 0.  1.
         13    1    3    3    0    0  0.36887038870E+02 -0.13083268279E+02 -0.21185933412E+03  0.21544419928E+03  0.00000000000E+00 0. -1.
        -13    1    4    4    0    0  0.33129983015E+02  0.88628006419E+01 -0.53072505859E+02  0.63188890542E+02  0.00000000000E+00 0. -1.
         13    1    4    4    0    0 -0.41698389561E+02 -0.32706891188E+01 -0.24358602430E+03  0.24715097478E+03  0.00000000000E+00 0.  1.
          1    1    1    2  501    0 -0.90419582338E+01 -0.51218450898E+02 -0.10773634913E+03  0.11963363927E+03  0.00000000000E+00 0. -1.
<scales pt_clust_5="13000.00000" pt_clust_6="13000.00000" pt_clust_7="13000.00000" pt_clust_8="13000.00000" pt_clust_9="52.01045"></scales>
<clustering>
<clus scale="   52.010">  1  9  2 -1</clus>
<clus scale="   90.553">  7  8 -1 -1</clus>
<clus scale="   93.091">  5  6 -1 -1</clus>
<clus scale="   93.630">  1  7  2 -1</clus>
<clus scale="   52.010">  1  5  2 -1</clus>
</clustering>
</event>
<event>
 9    1  0.1671478E-005  0.1405904E+03  0.7546771E-02  0.1212561E+00
          1   -1    0    0  502    0 -0.00000000000E+00  0.00000000000E+00  0.35954619880E+03  0.35954619880E+03  0.00000000000E+00 0. -1.
         21   -1    0    0  501  502  0.00000000000E+00 -0.00000000000E+00 -0.28407176587E+03  0.28407176587E+03  0.00000000000E+00 0. -1.
         23    2    1    2    0    0 -0.99728430464E+02 -0.20739009150E+02  0.25069730858E+03  0.28563023884E+03  0.91430992928E+02 0.  0.
         23    2    1    2    0    0  0.14934262866E+03  0.10026095848E+03 -0.17051348227E+03  0.26413951075E+03  0.91320057893E+02 0.  0.
        -11    1    4    4    0    0  0.35378213484E+02  0.44962509420E+02 -0.10948599802E+03  0.12353310894E+03  0.00000000000E+00 0.  1.
         11    1    4    4    0    0  0.11396441518E+03  0.55298449058E+02 -0.61027484247E+02  0.14060640181E+03  0.00000000000E+00 0. -1.
        -13    1    3    3    0    0 -0.77670585428E+01  0.28623338407E+02  0.82630794677E+02  0.87792203122E+02  0.00000000000E+00 0.  1.
         13    1    3    3    0    0 -0.91961371921E+02 -0.49362347557E+02  0.16806651390E+03  0.19783803572E+03  0.00000000000E+00 0. -1.
          1    1    1    2  501    0 -0.49614198200E+02 -0.79521949327E+02 -0.47093933817E+01  0.93848215081E+02  0.00000000000E+00 0. -1.
<scales pt_clust_5="13000.00000" pt_clust_6="13000.00000" pt_clust_7="13000.00000" pt_clust_8="13000.00000" pt_clust_9="93.72998"></scales>
<clustering>
<clus scale="   91.320">  5  6 -1 -1</clus>
<clus scale="   91.431">  7  8 -1 -1</clus>
<clus scale="   93.730">  2  9  1 -1</clus>
<clus scale="  140.518">  2  5  1 -1</clus>
<clus scale="   93.730">  2  5  1 -1</clus>
</clustering>
</event>
<event>
 9    1  0.1671478E-005  0.1136466E+03  0.7546771E-02  0.1255398E+00
         21   -1    0    0  501  502  0.00000000000E+00  0.00000000000E+00  0.30534670230E+03  0.30534670230E+03  0.00000000000E+00 0.  1.
         -1   -1    0    0    0  501 -0.00000000000E+00 -0.00000000000E+00 -0.90075256231E+02  0.90075256231E+02  0.00000000000E+00 0.  1.
         23    2    1    2    0    0  0.54243473832E+02  0.32942391161E+02 -0.44644518683E+01  0.10843417252E+03  0.87809355144E+02 0.  0.
         23    2    1    2    0    0 -0.78052474594E+02 -0.11501670140E+02  0.83521615858E+02  0.14705600378E+03  0.91788510864E+02 0.  0.
        -11    1    4    4    0    0 -0.45768976242E+02  0.17262906409E+02 -0.43629353988E+01  0.49110511393E+02  0.00000000000E+00 0.  1.
         11    1    4    4    0    0 -0.32283498352E+02 -0.28764576549E+02  0.87884551257E+02  0.97945492390E+02  0.00000000000E+00 0. -1.
        -13    1    3    3    0    0  0.27089996788E+02  0.54933152520E+02 -0.26914397886E+02  0.66902197163E+02  0.00000000000E+00 0.  1.
         13    1    3    3    0    0  0.27153477044E+02 -0.21990761359E+02  0.22449946018E+02  0.41531975356E+02  0.00000000000E+00 0. -1.
         -1    1    1    2    0  502  0.23809000762E+02 -0.21440721021E+02  0.13621428208E+03  0.13993178223E+03  0.00000000000E+00 0.  1.
<scales pt_clust_5="13000.00000" pt_clust_6="13000.00000" pt_clust_7="13000.00000" pt_clust_8="13000.00000" pt_clust_9="32.04018"></scales>
<clustering>
<clus scale="   32.040">  1  9  2 -1</clus>
<clus scale="   87.809">  7  8 -1 -1</clus>
<clus scale="   91.789">  5  6 -1 -1</clus>
<clus scale="  110.458">  2  7  1 -1</clus>
<clus scale="   32.040">  1  5  2 -1</clus>
</clustering>
</event>
<event>
 9    1  0.1671478E-005  0.9799980E+02  0.7546771E-02  0.1286594E+00
          1   -1    0    0  502    0 -0.00000000000E+00  0.00000000000E+00  0.73454845159E+03  0.73454845159E+03  0.00000000000E+00 0. -1.
         21   -1    0    0  501  502  0.00000000000E+00 -0.00000000000E+00 -0.28768374384E+02  0.28768374384E+02  0.00000000000E+00 0.  1.
         23    2    1    2    0    0 -0.13427964292E+02 -0.34451144421E+02  0.33696716734E+03  0.35068116267E+03  0.89795403027E+02 0.  0.
         23    2    1    2    0    0 -0.35287603864E+02  0.19061723064E+02  0.33788919491E+03  0.35291701448E+03  0.93662942526E+02 0.  0.
        -13    1    4    4    0    0 -0.49088162602E+02 -0.22431170505E+02  0.13539718109E+03  0.14575733863E+03  0.00000000000E+00 0.  1.
         13    1    4    4    0    0  0.13800558738E+02  0.41492893569E+02  0.20249201382E+03  0.20715967585E+03  0.00000000000E+00 0. -1.
        -13    1    3    3    0    0 -0.39775796050E+02  0.44739717121E+01  0.80047045466E+02  0.89496703080E+02  0.00000000000E+00 0.  1.
         13    1    3    3    0    0  0.26347831758E+02 -0.38925116133E+02  0.25692012188E+03  0.26118445959E+03  0.00000000000E+00 0. -1.
          1    1    1    2  501    0  0.48715568156E+02  0.15389421358E+02  0.30923714948E+02  0.59718648818E+02  0.00000000000E+00 0. -1.
<scales pt_clust_5="13000.00000" pt_clust_6="13000.00000" pt_clust_7="13000.00000" pt_clust_8="13000.00000" pt_clust_9="51.08856"></scales>
<clustering>
<clus scale="   51.089">  2  9  1 -1</clus>
<clus scale="   89.795">  7  8 -1 -1</clus>
<clus scale="   93.663">  5  6 -1 -1</clus>
<clus scale="   94.310">  1  7  2 -1</clus>
<clus scale="   51.089">  2  5  1 -1</clus>
</clustering>
</event>
<event>
 9    1  0.1671478E-005  0.1563188E+03  0.7546771E-02  0.1193007E+00
         21   -1    0    0  501  502  0.00000000000E+00  0.00000000000E+00  0.45909867692E+02  0.45909867692E+02  0.00000000000E+00 0.  1.
          1   -1    0    0  502    0 -0.00000000000E+00 -0.00000000000E+00 -0.70972375757E+03  0.70972375757E+03  0.00000000000E+00 0. -1.
         23    2    1    2    0    0 -0.14093942921E+03  0.32259145066E+02 -0.39232847154E+03  0.42807709480E+03  0.91781230999E+02 0.  0.
         23    2    1    2    0    0  0.10642836031E+03 -0.11748304787E+02 -0.23150420999E+03  0.27089785534E+03  0.91249275292E+02 0.  0.
        -11    1    4    4    0    0  0.11056553768E+03  0.12896750422E+02 -0.15809932294E+03  0.19335578659E+03  0.00000000000E+00 0. -1.
         11    1    4    4    0    0 -0.41371773751E+01 -0.24645055208E+02 -0.73404887048E+02  0.77542068746E+02  0.00000000000E+00 0.  1.
        -13    1    3    3    0    0 -0.11278649803E+03 -0.75884020245E+01 -0.20080212366E+03  0.23043409220E+03  0.00000000000E+00 0.  1.
         13    1    3    3    0    0 -0.28152931183E+02  0.39847547091E+02 -0.19152634788E+03  0.19764300259E+03  0.00000000000E+00 0. -1.
          1    1    1    2  501    0  0.34511068902E+02 -0.20510840280E+02 -0.39981208345E+02  0.56658675121E+02  0.00000000000E+00 0. -1.
<scales pt_clust_5="13000.00000" pt_clust_6="13000.00000" pt_clust_7="13000.00000" pt_clust_8="13000.00000" pt_clust_9="40.14609"></scales>
<clustering>
<clus scale="   40.146">  1  9  2 -1</clus>
<clus scale="   91.249">  5  6 -1 -1</clus>
<clus scale="   91.781">  7  8 -1 -1</clus>
<clus scale="  156.007">  1  5  2 -1</clus>
<clus scale="   40.146">  1  5  2 -1</clus>
</clustering>
</event>
<event>
 9    1  0.1671478E-005  0.1485294E+03  0.7546771E-02  0.1202600E+00
          1   -1    0    0  502    0 -0.00000000000E+00  0.00000000000E+00  0.49527905336E+02  0.49527905336E+02  0.00000000000E+00 0. -1.
         21   -1    0    0  501  502  0.00000000000E+00 -0.00000000000E+00 -0.85599544567E+03  0.85599544567E+03  0.00000000000E+00 0. -1.
         23    2    1    2    0    0  0.71516181349E+02 -0.10150270503E+03 -0.13559467292E+03  0.20484189837E+03  0.90315694535E+02 0.  0.
         23    2    1    2    0    0 -0.13890881950E+02  0.10623074334E+03 -0.41479466642E+03  0.43815702615E+03  0.91918642522E+02 0.  0.
        -11    1    4    4    0    0  0.38378608498E+02  0.55250809994E+02 -0.22336916456E+03  0.23327956034E+03  0.00000000000E+00 0. -1.
         11    1    4    4    0    0 -0.52269490448E+02  0.50979933350E+02 -0.19142550186E+03  0.20487746581E+03  0.00000000000E+00 0.  1.
        -11    1    3    3    0    0  0.47610348856E+02 -0.62270676152E+02 -0.20656501940E+02  0.81062158243E+02  0.00000000000E+00 0. -1.
         11    1    3    3    0    0  0.23905832492E+02 -0.39232028877E+02 -0.11493817098E+03  0.12377974012E+03  0.00000000000E+00 0.  1.
          1    1    1    2  501    0 -0.57625299399E+02 -0.47280383150E+01 -0.25607820099E+03  0.26252442648E+03  0.00000000000E+00 0. -1.
<scales pt_clust_5="13000.00000" pt_clust_6="13000.00000" pt_clust_7="13000.00000" pt_clust_8="13000.00000" pt_clust_9="57.81894"></scales>
<clustering>
<clus scale="   57.819">  2  9  1 -1</clus>
<clus scale="   90.316">  7  8 -1 -1</clus>
<clus scale="   91.919">  5  6 -1 -1</clus>
<clus scale="  147.543">  1  7  2 -1</clus>
<clus scale="   57.819">  2  5  1 -1</clus>
</clustering>
</event>
<event>
 9    1  0.1671478E-005  0.1395746E+03  0.7546771E-02  0.1214364E+00
         -2   -1    0    0    0  501 -0.00000000000E+00  0.00000000000E+00  0.18906860001E+03  0.18906860001E+03  0.00000000000E+00 0.  1.
         21   -1    0    0  501  502  0.00000000000E+00 -0.00000000000E+00 -0.23112444252E+03  0.23112444252E+03  0.00000000000E+00 0.  1.
         23    2    1    2    0    0  0.43569800667E+02 -0.95201475812E+02  0.11435436847E+03  0.18094444275E+03  0.93286232883E+02 0.  0.
         23    2    1    2    0    0 -0.60071864877E+02  0.82813341768E+02 -0.77054565796E+02  0.15725407307E+03  0.91240116517E+02 0.  0.
        -11    1    4    4    0    0  0.81675132692E+01  0.54274140389E+02 -0.69143718655E+01  0.55319066571E+02  0.00000000000E+00 0. -1.
         11    1    4    4    0    0 -0.68239378146E+02  0.28539201379E+02 -0.70140193931E+02  0.10193500650E+03  0.00000000000E+00 0.  1.
        -13    1    3    3    0    0 -0.34975007428E+00 -0.84635829503E+02  0.10491182481E+03  0.13479553756E+03  0.00000000000E+00 0.  1.
         13    1    3    3    0    0  0.43919550741E+02 -0.10565646309E+02  0.94425436619E+01  0.46148905188E+02  0.00000000000E+00 0. -1.
         -2    1    1    2    0  502  0.16502064210E+02  0.12388134045E+02 -0.79355645187E+02  0.81994526716E+02  0.00000000000E+00 0.  1.
<scales pt_clust_5="13000.00000" pt_clust_6="13000.00000" pt_clust_7="13000.00000" pt_clust_8="13000.00000" pt_clust_9="20.63453"></scales>
<clustering>
<clus scale="   20.635">  2  9  1 -1</clus>
<clus scale="   91.240">  5  6 -1 -1</clus>
<clus scale="   93.286">  7  8 -1 -1</clus>
<clus scale="  138.215">  2  5  1 -1</clus>
<clus scale="   20.635">  2  5  1 -1</clus>
</clustering>
</event>
<event>
 9    1  0.1671478E-005  0.1524245E+03  0.7546771E-02  0.1200358E+00
         21   -1    0    0  501  502  0.00000000000E+00  0.00000000000E+00  0.11054595019E+03  0.11054595019E+03  0.00000000000E+00 0. -1.
          1   -1    0    0  502    0 -0.00000000000E+00 -0.00000000000E+00 -0.38707337720E+03  0.38707337720E+03  0.00000000000E+00 0. -1.
         23    2    1    2    0    0 -0.12372168287E+03  0.75637103248E+02 -0.22098088795E+03  0.27933168722E+03  0.90363778374E+02 0.  0.
         23    2    1    2    0    0  0.62439738886E+02 -0.25664764554E+02 -0.62307781639E+02  0.13892501866E+03  0.10421372282E+03 0.  0.
        -11    1    3    3    0    0 -0.93481812994E+02  0.13722155338E+02 -0.16670036578E+03  0.19161461025E+03  0.00000000000E+00 0.  1.
         11    1    3    3    0    0 -0.30239869875E+02  0.61914947910E+02 -0.54280522169E+02  0.87717076967E+02  0.00000000000E+00 0. -1.
        -13    1    4    4    0    0  0.60118279522E+02 -0.54142380227E+02 -0.72453253677E+02  0.10860515106E+03  0.00000000000E+00 0. -1.
         13    1    4    4    0    0  0.23214593646E+01  0.28477615673E+02  0.10145472038E+02  0.30319867593E+02  0.00000000000E+00 0.  1.
          1    1    1    2  501    0  0.61281943983E+02 -0.49972338693E+02  0.67612425763E+01  0.79362621516E+02  0.00000000000E+00 0. -1.
<scales pt_clust_5="13000.00000" pt_clust_6="13000.00000" pt_clust_7="13000.00000" pt_clust_8="13000.00000" pt_clust_9="79.07409"></scales>
<clustering>
<clus scale="   79.074">  1  9  2 -1</clus>
<clus scale="   90.364">  5  6 -1 -1</clus>
<clus scale="  104.214">  7  8 -1 -1</clus>
<clus scale="  143.312">  2  5  1 -1</clus>
<clus scale="   79.074">  1  5  2 -1</clus>
</clustering>
</event>
<event>
 9    1  0.1671478E-005  0.4704700E+03  0.7546771E-02  0.1021795E+00
         21   -1    0    0  501  502  0.00000000000E+00  0.00000000000E+00  0.94790178529E+03  0.94790178529E+03  0.00000000000E+00 0.  1.
          3   -1    0    0  502    0 -0.00000000000E+00 -0.00000000000E+00 -0.43915406589E+03  0.43915406589E+03  0.00000000000E+00 0. -1.
         23    2    1    2    0    0 -0.41149334021E+03  0.29318113449E+03 -0.34391930865E+02  0.51446759413E+03  0.90620934887E+02 0.  0.
         23    2    1    2    0    0  0.26479518614E+03 -0.32059347647E+03  0.14842622309E+03  0.45060428283E+03  0.90095550645E+02 0.  0.
        -11    1    3    3    0    0 -0.74666287270E+02  0.44990245374E+02 -0.40292762596E+02  0.96034802812E+02  0.00000000000E+00 0. -1.
         11    1    3    3    0    0 -0.33682705294E+03  0.24819088912E+03  0.59008317306E+01  0.41843279132E+03  0.00000000000E+00 0.  1.
        -13    1    4    4    0    0  0.43054492298E+02 -0.23761466768E+02 -0.53153372497E+01  0.49462606280E+02  0.00000000000E+00 0. -1.
         13    1    4    4    0    0  0.22174069384E+03 -0.29683200970E+03  0.15374156034E+03  0.40114167655E+03  0.00000000000E+00 0.  1.
          3    1    1    2  501    0  0.14669815407E+03  0.27412341983E+02  0.39471342718E+03  0.42198397422E+03  0.00000000000E+00 0. -1.
<scales pt_clust_5="13000.00000" pt_clust_6="13000.00000" pt_clust_7="13000.00000" pt_clust_8="13000.00000" pt_clust_9="149.23734"></scales>
<clustering>
<clus scale="   90.096">  7  8 -1 -1</clus>
<clus scale="   90.621">  5  6 -1 -1</clus>
<clus scale="  149.237">  1  9  2 -1</clus>
<clus scale="  470.369">  1  7  2 -1</clus>
<clus scale="  149.237">  1  5  2 -1</clus>
</clustering>
</event>
<event>
 9    1  0.1671478E-005  0.1822724E+03  0.7546771E-02  0.1182428E+00
          1   -1    0    0  502    0 -0.00000000000E+00  0.00000000000E+00  0.54571091558E+02  0.54571091558E+02  0.00000000000E+00 0. -1.
         21   -1    0    0  501  502  0.00000000000E+00 -0.00000000000E+00 -0.12824246884E+04  0.12824246884E+04  0.00000000000E+00 0. -1.
         23    2    1    2    0    0 -0.88070363883E+02 -0.26471825424E+01 -0.11594887520E+03  0.17008044545E+03  0.87862504474E+02 0.  0.
         23    2    1    2    0    0 -0.90449643727E+02  0.59898493707E+02 -0.28606908557E+03  0.32006729410E+03  0.94013740675E+02 0.  0.
        -11    1    3    3    0    0 -0.70487690593E+02  0.32147805346E+02 -0.46273164977E+02  0.90239690329E+02  0.00000000000E+00 0. -1.
         11    1    3    3    0    0 -0.17582673289E+02 -0.34794987888E+02 -0.69675710226E+02  0.79840755117E+02  0.00000000000E+00 0.  1.
        -13    1    4    4    0    0  0.11606798160E+02  0.31644353415E+02 -0.10532080834E+03  0.11058279946E+03  0.00000000000E+00 0. -1.
         13    1    4    4    0    0 -0.10205644189E+03  0.28254140292E+02 -0.18074827723E+03  0.20948449464E+03  0.00000000000E+00 0.  1.
          1    1    1    2  501    0  0.17852000761E+03 -0.57251311164E+02 -0.82583563608E+03  0.84684804042E+03  0.00000000000E+00 0. -1.
<scales pt_clust_5="13000.00000" pt_clust_6="13000.00000" pt_clust_7="13000.00000" pt_clust_8="13000.00000" pt_clust_9="156.15589"></scales>
<clustering>
<clus scale="   87.863">  5  6 -1 -1</clus>
<clus scale="   94.014">  7  8 -1 -1</clus>
<clus scale="  124.432">  1  5  2 -1</clus>
<clus scale="  156.156">  2  9  1 -1</clus>
<clus scale="  156.156">  2  5  1 -1</clus>
</clustering>
</event>
<event>
 9    1  0.1671478E-005  0.1582371E+03  0.7546771E-02  0.1190821E+00
         21   -1    0    0  501  502  0.00000000000E+00  0.00000000000E+00  0.23207916745E+03  0.23207916745E+03  0.00000000000E+00 0. -1.
          2   -1    0    0  502    0 -0.00000000000E+00 -0.00000000000E+00 -0.51975496056E+03  0.51975496056E+03  0.00000000000E+00 0. -1.
         23    2    1    2    0    0  0.77990623845E+02 -0.72557722464E+02 -0.20587658165E+03  0.24920264595E+03  0.91485689466E+02 0.  0.
         23    2    1    2    0    0 -0.16150459041E+03  0.55953826947E+02 -0.24878320811E+03  0.31519101925E+03  0.90761944149E+02 0.  0.
        -13    1    4    4    0    0 -0.69200151670E+02  0.15699099391E+02 -0.35528653096E+02  0.79356208980E+02  0.00000000000E+00 0.  1.
         13    1    4    4    0    0 -0.92304438742E+02  0.40254727557E+02 -0.21325455502E+03  0.23583481027E+03  0.00000000000E+00 0. -1.
        -13    1    3    3    0    0  0.97990365842E+02 -0.60286817281E+02 -0.18466258766E+03  0.21757041025E+03  0.00000000000E+00 0.  1.
         13    1    3    3    0    0 -0.19999741998E+02 -0.12270905182E+02 -0.21213993994E+02  0.31632235696E+02  0.00000000000E+00 0. -1.
          2    1    1    2  501    0  0.83513966568E+02  0.16603895516E+02  0.16698399665E+03  0.18744046280E+03  0.00000000000E+00 0. -1.
<scales pt_clust_5="13000.00000" pt_clust_6="13000.00000" pt_clust_7="13000.00000" pt_clust_8="13000.00000" pt_clust_9="85.14853"></scales>
<clustering>
<clus scale="   85.149">  1  9  2 -1</clus>
<clus scale="   90.762">  5  6 -1 -1</clus>
<clus scale="   91.486">  7  8 -1 -1</clus>
<clus scale="  157.820">  1  5  2 -1</clus>
<clus scale="   85.149">  1  5  2 -1</clus>
</clustering>
</event>
<event>
 9    1  0.1671478E-005  0.9323226E+02  0.7546771E-02  0.1295890E+00
         21   -1    0    0  501  502  0.00000000000E+00  0.00000000000E+00  0.18624510528E+03  0.18624510528E+03  0.00000000000E+00 0. -1.
         -1   -1    0    0    0  501 -0.00000000000E+00 -0.00000000000E+00 -0.87848820727E+02  0.87848820727E+02  0.00000000000E+00 0.  1.
         23    2    1    2    0    0 -0.28148308628E+02 -0.96662380091E+01 -0.21908859373E+02  0.98113219413E+02  0.90886975242E+02 0.  0.
         23    2    1    2    0    0 -0.49495615724E+01  0.11179352340E+02  0.64721137103E+02  0.11127104471E+03  0.89682460515E+02 0.  0.
        -11    1    4    4    0    0 -0.40434053131E+02  0.28065384306E+02  0.47376097758E+02  0.68315979738E+02  0.00000000000E+00 0. -1.
         11    1    4    4    0    0  0.35484491558E+02 -0.16886031966E+02  0.17345039345E+02  0.42955064970E+02  0.00000000000E+00 0.  1.
        -13    1    3    3    0    0 -0.52381011225E+02  0.89633619969E+01  0.98358539707E+01  0.54044946281E+02  0.00000000000E+00 0. -1.
         13    1    3    3    0    0  0.24232702597E+02 -0.18629600006E+02 -0.31744713343E+02  0.44068273131E+02  0.00000000000E+00 0.  1.
         -1    1    1    2    0  502  0.33097870201E+02 -0.15131143308E+01  0.55584006822E+02  0.64709661884E+02  0.00000000000E+00 0.  1.
<scales pt_clust_5="13000.00000" pt_clust_6="13000.00000" pt_clust_7="13000.00000" pt_clust_8="13000.00000" pt_clust_9="33.13244"></scales>
<clustering>
<clus scale="   33.132">  1  9  2 -1</clus>
<clus scale="   89.682">  5  6 -1 -1</clus>
<clus scale="   90.887">  7  8 -1 -1</clus>
<clus scale="   92.058">  1  5  2 -1</clus>
<clus scale="   33.132">  1  5  2 -1</clus>
</clustering>
</event>
<event>
 9    1  0.1671478E-005  0.9069434E+02  0.7546771E-02  0.1305261E+00
         -1   -1    0    0    0  501 -0.00000000000E+00  0.00000000000E+00  0.31759210484E+03  0.31759210484E+03  0.00000000000E+00 0.  1.
         21   -1    0    0  501  502  0.00000000000E+00 -0.00000000000E+00 -0.47598233690E+02  0.47598233690E+02  0.00000000000E+00 0. -1.
         23    2    1    2    0    0 -0.18120290336E+01  0.18446737127E+01  0.74398255585E+02  0.11659260730E+03  0.89733212201E+02 0.  0.
         23    2    1    2    0    0 -0.27076607648E+02  0.15763739035E+02  0.56097404204E+02  0.10505554056E+03  0.83115038920E+02 0.  0.
        -11    1    3    3    0    0  0.32802895586E+02 -0.26485599411E+02  0.50809264246E+02  0.66023467557E+02  0.00000000000E+00 0.  1.
         11    1    3    3    0    0 -0.34614924620E+02  0.28330273124E+02  0.23588991339E+02  0.50569139740E+02  0.00000000000E+00 0. -1.
        -13    1    4    4    0    0 -0.21199207273E+02  0.49879877619E+02  0.33556981841E+02  0.63745428154E+02  0.00000000000E+00 0. -1.
         13    1    4    4    0    0 -0.58774003756E+01 -0.34116138584E+02  0.22540422363E+02  0.41310112410E+02  0.00000000000E+00 0.  1.
         -1    1    1    2    0  502  0.28888636682E+02 -0.17608412748E+02  0.13949821136E+03  0.14354219067E+03  0.00000000000E+00 0.  1.
<scales pt_clust_5="13000.00000" pt_clust_6="13000.00000" pt_clust_7="13000.00000" pt_clust_8="13000.00000" pt_clust_9="33.83210"></scales>
<clustering>
<clus scale="   33.832">  2  9  1 -1</clus>
<clus scale="   83.115">  7  8 -1 -1</clus>
<clus scale="   84.152">  2  7  1 -1</clus>
<clus scale="   89.733">  5  6 -1 -1</clus>
<clus scale="   33.832">  2  5  1 -1</clus>
</clustering>
</event>
<event>
 9    1  0.1671478E-005  0.1245815E+03  0.7546771E-02  0.1236201E+00
         -2   -1    0    0    0  501 -0.00000000000E+00  0.00000000000E+00  0.45980565857E+03  0.45980565857E+03  0.00000000000E+00 0.  1.
         21   -1    0    0  501  502  0.00000000000E+00 -0.00000000000E+00 -0.23066946593E+03  0.23066946593E+03  0.00000000000E+00 0.  1.
         23    2    1    2    0    0  0.50251022242E+02 -0.68219034188E+02  0.38383328419E+03  0.40397165180E+03  0.93199267924E+02 0.  0.
         23    2    1    2    0    0 -0.16888963290E+02  0.74995243160E+02  0.84292643526E+01  0.11986268546E+03  0.91577766356E+02 0.  0.
        -13    1    3    3    0    0  0.43974626310E+02 -0.14614637607E+02  0.60722495030E+02  0.76384401511E+02  0.00000000000E+00 0. -1.
         13    1    3    3    0    0  0.62763959323E+01 -0.53604396581E+02  0.32311078916E+03  0.32758725029E+03  0.00000000000E+00 0.  1.
        -13    1    4    4    0    0  0.12093872581E+02  0.72552634194E+02 -0.22975089058E+02  0.77058427182E+02  0.00000000000E+00 0. -1.
         13    1    4    4    0    0 -0.28982835870E+02  0.24426089659E+01  0.31404353411E+02  0.42804258279E+02  0.00000000000E+00 0.  1.
         -2    1    1    2    0  502 -0.33362058952E+02 -0.67762089719E+01 -0.16312635590E+03  0.16664078725E+03  0.00000000000E+00 0.  1.
<scales pt_clust_5="13000.00000" pt_clust_6="13000.00000" pt_clust_7="13000.00000" pt_clust_8="13000.00000" pt_clust_9="34.04327"></scales>
<clustering>
<clus scale="   34.043">  2  9  1 -1</clus>
<clus scale="   91.578">  7  8 -1 -1</clus>
<clus scale="   93.199">  5  6 -1 -1</clus>
<clus scale="  123.373">  2  7  1 -1</clus>
<clus scale="   34.043">  2  5  1 -1</clus>
</clustering>
</event>
<event>
 9    1  0.1671478E-005  0.1288875E+03  0.7546771E-02  0.1229189E+00
         21   -1    0    0  501  502  0.00000000000E+00  0.00000000000E+00  0.20124537888E+03  0.20124537888E+03  0.00000000000E+00 0. -1.
          2   -1    0    0  502    0 -0.00000000000E+00 -0.00000000000E+00 -0.32792124904E+03  0.32792124904E+03  0.00000000000E+00 0. -1.
         23    2    1    2    0    0  0.25051574799E+02  0.91301979685E+02 -0.17262530876E+03  0.21654910278E+03  0.90168640877E+02 0.  0.
         23    2    1    2    0    0 -0.11079761183E+03 -0.41665114173E+02 -0.66160558868E+02  0.16300184142E+03  0.90444945851E+02 0.  0.
        -11    1    3    3    0    0  0.30709354734E+02  0.31017098620E+02 -0.14227288648E+03  0.14881767066E+03  0.00000000000E+00 0.  1.
         11    1    3    3    0    0 -0.56577799345E+01  0.60284881064E+02 -0.30352422284E+02  0.67731432122E+02  0.00000000000E+00 0. -1.
        -11    1    4    4    0    0 -0.29297443479E+02  0.16139665147E+02 -0.52364059786E+02  0.62135527219E+02  0.00000000000E+00 0. -1.
         11    1    4    4    0    0 -0.81500168348E+02 -0.57804779321E+02 -0.13796499083E+02  0.10086631420E+03  0.00000000000E+00 0.  1.
          2    1    1    2  501    0  0.85746037028E+02 -0.49636865512E+02  0.11210999747E+03  0.14961568372E+03  0.00000000000E+00 0. -1.
<scales pt_clust_5="13000.00000" pt_clust_6="13000.00000" pt_clust_7="13000.00000" pt_clust_8="13000.00000" pt_clust_9="99.07674"></scales>
<clustering>
<clus scale="   90.169">  5  6 -1 -1</clus>
<clus scale="   90.445">  7  8 -1 -1</clus>
<clus scale="   99.077">  1  9  2 -1</clus>
<clus scale="  128.694">  2  5  1 -1</clus>
<clus scale="   99.077">  1  5  2 -1</clus>
</clustering>
</event>
<event>
 9    1  0.1671478E-005  0.9352376E+02  0.7546771E-02  0.1294816E+00
         21   -1    0    0  501  502  0.00000000000E+00  0.00000000000E+00  0.52112673472E+03  0.52112673472E+03  0.00000000000E+00 0. -1.
         -4   -1    0    0    0  501 -0.00000000000E+00 -0.00000000000E+00 -0.94327427657E+02  0.94327427657E+02  0.00000000000E+00 0.  1.
         23    2    1    2    0    0 -0.17148695466E+02 -0.12419928953E+02 -0.61428854578E+02  0.11146630437E+03  0.90569864983E+02 0.  0.
         23    2    1    2    0    0  0.32668361160E+01  0.32822719500E+02  0.33263013628E+03  0.34644508484E+03  0.91068030155E+02 0.  0.
        -11    1    3    3    0    0 -0.52119703390E+02 -0.73363130169E+01 -0.18334667357E+02  0.55735491360E+02  0.00000000000E+00 0. -1.
         11    1    3    3    0    0  0.34971007923E+02 -0.50836159359E+01 -0.43094187221E+02  0.55730813007E+02  0.00000000000E+00 0.  1.
        -13    1    4    4    0    0 -0.28619845271E+02  0.48107268244E+02  0.14337556223E+03  0.15391542043E+03  0.00000000000E+00 0. -1.
         13    1    4    4    0    0  0.31886681387E+02 -0.15284548744E+02  0.18925457404E+03  0.19252966441E+03  0.00000000000E+00 0.  1.
         -4    1    1    2    0  502  0.13881859350E+02 -0.20402790547E+02  0.15559802537E+03  0.15754277317E+03  0.00000000000E+00 0.  1.
<scales pt_clust_5="13000.00000" pt_clust_6="13000.00000" pt_clust_7="13000.00000" pt_clust_8="13000.00000" pt_clust_9="24.67752"></scales>
<clustering>
<clus scale="   24.678">  1  9  2 -1</clus>
<clus scale="   90.570">  5  6 -1 -1</clus>
<clus scale="   91.068">  7  8 -1 -1</clus>
<clus scale="   93.039">  2  5  1 -1</clus>
<clus scale="   24.678">  1  5  2 -1</clus>
</clustering>
</event>
<event>
 9    1  0.1671478E-005  0.1334978E+03  0.7546771E-02  0.1224413E+00
          1   -1    0    0  502    0 -0.00000000000E+00  0.00000000000E+00  0.31948309180E+03  0.31948309180E+03  0.00000000000E+00 0. -1.
         21   -1    0    0  501  502  0.00000000000E+00 -0.00000000000E+00 -0.95224659969E+02  0.95224659969E+02  0.00000000000E+00 0.  1.
         23    2    1    2    0    0 -0.32031983424E+02  0.81390553353E+02  0.18941841003E+03  0.23132844313E+03  0.99915186055E+02 0.  0.
         23    2    1    2    0    0  0.71856383117E+02 -0.66339221580E+02  0.40499103978E+02  0.14043107690E+03  0.92284764840E+02 0.  0.
        -13    1    4    4    0    0 -0.17434496896E+00 -0.56053427755E+02 -0.21436623080E+01  0.56094673966E+02  0.00000000000E+00 0. -1.
         13    1    4    4    0    0  0.72030728086E+02 -0.10285793824E+02  0.42642766286E+02  0.84336402933E+02  0.00000000000E+00 0.  1.
        -13    1    3    3    0    0 -0.37444282884E+01  0.26480383238E+02 -0.51111365624E+01  0.27227837898E+02  0.00000000000E+00 0.  1.
         13    1    3    3    0    0 -0.28287555136E+02  0.54910170114E+02  0.19452954659E+03  0.20410060523E+03  0.00000000000E+00 0. -1.
          1    1    1    2  501    0 -0.39824399693E+02 -0.15051331773E+02 -0.56590821738E+01  0.42948231745E+02  0.00000000000E+00 0. -1.
<scales pt_clust_5="13000.00000" pt_clust_6="13000.00000" pt_clust_7="13000.00000" pt_clust_8="13000.00000" pt_clust_9="42.57376"></scales>
<clustering>
<clus scale="   42.574">  2  9  1 -1</clus>
<clus scale="   92.285">  5  6 -1 -1</clus>
<clus scale="   99.915">  7  8 -1 -1</clus>
<clus scale="  127.887">  2  5  1 -1</clus>
<clus scale="   42.574">  2  5  1 -1</clus>
</clustering>
</event>
<event>
 9    1  0.1671478E-005  0.1112892E+03  0.7546771E-02  0.1262633E+00
         21   -1    0    0  501  502  0.00000000000E+00  0.00000000000E+00  0.15320960772E+03  0.15320960772E+03  0.00000000000E+00 0.  1.
         -1   -1    0    0    0  501 -0.00000000000E+00 -0.00000000000E+00 -0.15869612677E+03  0.15869612677E+03  0.00000000000E+00 0.  1.
         23    2    1    2    0    0 -0.23186521691E+01 -0.60608603822E+02 -0.71606532337E+02  0.13938182511E+03  0.10305832666E+03 0.  0.
         23    2    1    2    0    0  0.20343863512E+02  0.92644838185E+01  0.13024027719E+02  0.96495555542E+02  0.92962699500E+02 0.  0.
        -11    1    4    4    0    0  0.25886264094E+02 -0.38070128200E+02  0.16016180900E+02  0.48743731705E+02  0.00000000000E+00 0.  1.
         11    1    4    4    0    0 -0.55424005826E+01  0.47334612018E+02 -0.29921531813E+01  0.47751823837E+02  0.00000000000E+00 0. -1.
        -11    1    3    3    0    0 -0.46067972127E+02 -0.59644787755E+02 -0.51104209788E+02  0.91057119547E+02  0.00000000000E+00 0.  1.
         11    1    3    3    0    0  0.43749319958E+02 -0.96381606738E+00 -0.20502322550E+02  0.48324705567E+02  0.00000000000E+00 0. -1.
         -1    1    1    2    0  502 -0.18025211342E+02  0.51344120004E+02  0.53095985571E+02  0.76028353834E+02  0.00000000000E+00 0.  1.
<scales pt_clust_5="13000.00000" pt_clust_6="13000.00000" pt_clust_7="13000.00000" pt_clust_8="13000.00000" pt_clust_9="54.41624"></scales>
<clustering>
<clus scale="   54.416">  1  9  2 -1</clus>
<clus scale="   92.963">  5  6 -1 -1</clus>
<clus scale="  102.011">  1  5  2 -1</clus>
<clus scale="  103.058">  7  8 -1 -1</clus>
<clus scale="   54.416">  1  5  2 -1</clus>
</clustering>
</event>
<event>
 9    1  0.1671478E-005  0.1017673E+03  0.7546771E-02  0.1278087E+00
          1   -1    0    0  502    0 -0.00000000000E+00  0.00000000000E+00  0.41077874459E+03  0.41077874459E+03  0.00000000000E+00 0. -1.
         21   -1    0    0  501  502  0.00000000000E+00 -0.00000000000E+00 -0.68549037129E+02  0.68549037129E+02  0.00000000000E+00 0. -1.
         23    2    1    2    0    0 -0.21360070282E+02 -0.49138269751E+02  0.20782419052E+03  0.23227803891E+03  0.88833389210E+02 0.  0.
         23    2    1    2    0    0  0.17401075205E+02  0.28546234333E+02  0.17549106610E+03  0.20092244161E+03  0.91951228101E+02 0.  0.
        -11    1    3    3    0    0  0.23021529154E+02 -0.33588742720E+01  0.12808569416E+03  0.13018148059E+03  0.00000000000E+00 0.  1.
         11    1    3    3    0    0 -0.44381599436E+02 -0.45779395478E+02  0.79738496368E+02  0.10209655833E+03  0.00000000000E+00 0. -1.
        -13    1    4    4    0    0  0.40107938051E+01  0.58678061460E+02  0.75938171946E+02  0.96051066220E+02  0.00000000000E+00 0.  1.
         13    1    4    4    0    0  0.13390281400E+02 -0.30131827126E+02  0.99552894155E+02  0.10487137539E+03  0.00000000000E+00 0. -1.
          1    1    1    2  501    0  0.39589950771E+01  0.20592035417E+02 -0.41085549167E+02  0.46127301189E+02  0.00000000000E+00 0. -1.
<scales pt_clust_5="13000.00000" pt_clust_6="13000.00000" pt_clust_7="13000.00000" pt_clust_8="13000.00000" pt_clust_9="20.96916"></scales>
<clustering>
<clus scale="   20.969">  2  9  1 -1</clus>
<clus scale="   88.833">  5  6 -1 -1</clus>
<clus scale="   91.951">  7  8 -1 -1</clus>
<clus scale="   98.959">  1  5  2 -1</clus>
<clus scale="   20.969">  2  5  1 -1</clus>
</clustering>
</event>
<event>
 9    1  0.1671478E-005  0.9690081E+02  0.7546771E-02  0.1286977E+00
         21   -1    0    0  501  502  0.00000000000E+00  0.00000000000E+00  0.13427092399E+03  0.13427092399E+03  0.00000000000E+00 0. -1.
          3   -1    0    0  502    0 -0.00000000000E+00 -0.00000000000E+00 -0.46257170132E+03  0.46257170132E+03  0.00000000000E+00 0. -1.
         23    2    1    2    0    0  0.30677242374E+02 -0.23479938069E+01 -0.26082895990E+03  0.27858816215E+03  0.92914000500E+02 0.  0.
         23    2    1    2    0    0 -0.19541678820E+02 -0.23291900711E+02 -0.17861960615E+03  0.20364540635E+03  0.92962884935E+02 0.  0.
        -11    1    4    4    0    0  0.37387087620E+02 -0.60561763441E+01 -0.79222155411E+02  0.87810144634E+02  0.00000000000E+00 0. -1.
         11    1    4    4    0    0 -0.56928766441E+02 -0.17235724366E+02 -0.99397450743E+02  0.11583526172E+03  0.00000000000E+00 0.  1.
        -13    1    3    3    0    0 -0.10255086779E+02  0.33974165684E+02 -0.15976657705E+03  0.16366053245E+03  0.00000000000E+00 0.  1.
         13    1    3    3    0    0  0.40932329153E+02 -0.36322159491E+02 -0.10106238285E+03  0.11492762970E+03  0.00000000000E+00 0. -1.
          3    1    1    2  501    0 -0.11135563554E+02  0.25639894517E+02  0.11114778872E+03  0.11460905682E+03  0.00000000000E+00 0. -1.
<scales pt_clust_5="13000.00000" pt_clust_6="13000.00000" pt_clust_7="13000.00000" pt_clust_8="13000.00000" pt_clust_9="27.95362"></scales>
<clustering>
<clus scale="   27.954">  1  9  2 -1</clus>
<clus scale="   92.914">  7  8 -1 -1</clus>
<clus scale="   92.963">  5  6 -1 -1</clus>
<clus scale="   96.854">  2  7  1 -1</clus>
<clus scale="   27.954">  1  5  2 -1</clus>
</clustering>
</event>
<event>
 9    1  0.1671478E-005  0.1430280E+03  0.7546771E-02  0.1210451E+00
         21   -1    0    0  501  502  0.00000000000E+00  0.00000000000E+00  0.60996489520E+03  0.60996489520E+03  0.00000000000E+00 0.  1.
         -1   -1    0    0    0  501 -0.00000000000E+00 -0.00000000000E+00 -0.57135305761E+02  0.57135305761E+02  0.00000000000E+00 0.  1.
         23    2    1    2    0    0 -0.36387467507E+02 -0.87084141719E+02  0.98892521458E+02  0.16742989312E+03  0.96671313124E+02 0.  0.
         23    2    1    2    0    0  0.63942680727E+02  0.12132377292E+03  0.36071820901E+03  0.39661014197E+03  0.91508765190E+02 0.  0.
        -11    1    4    4    0    0 -0.46038201104E+01  0.59386483077E+02  0.22268535083E+03  0.23051402345E+03  0.00000000000E+00 0. -1.
         11    1    4    4    0    0  0.68546500837E+02  0.61937289847E+02  0.13803285818E+03  0.16609611852E+03  0.00000000000E+00 0.  1.
        -13    1    3    3    0    0 -0.23512548385E+02 -0.55902139437E+02 -0.23738950059E+01  0.60692046453E+02  0.00000000000E+00 0.  1.
         13    1    3    3    0    0 -0.12874919122E+02 -0.31182002282E+02  0.10126641646E+03  0.10673784667E+03  0.00000000000E+00 0. -1.
         -1    1    1    2    0  502 -0.27555213220E+02 -0.34239631205E+02  0.93218858972E+02  0.10306016587E+03  0.00000000000E+00 0.  1.
<scales pt_clust_5="13000.00000" pt_clust_6="13000.00000" pt_clust_7="13000.00000" pt_clust_8="13000.00000" pt_clust_9="43.95045"></scales>
<clustering>
<clus scale="   43.950">  1  9  2 -1</clus>
<clus scale="   91.509">  5  6 -1 -1</clus>
<clus scale="   96.671">  7  8 -1 -1</clus>
<clus scale="  139.591">  1  5  2 -1</clus>
<clus scale="   43.950">  1  5  2 -1</clus>
</clustering>
</event>
<event>
 9    1  0.1671478E-005  0.1081767E+03  0.7546771E-02  0.1265431E+00
         21   -1    0    0  501  502  0.00000000000E+00  0.00000000000E+00  0.26514084667E+03  0.26514084667E+03  0.00000000000E+00 0.  1.
          2   -1    0    0  502    0 -0.00000000000E+00 -0.00000000000E+00 -0.14054455514E+03  0.14054455514E+03  0.00000000000E+00 0. -1.
         23    2    1    2    0    0  0.18030460054E+02  0.56777579249E+02 -0.77185553649E+02  0.13127246786E+03  0.87898009830E+02 0.  0.
         23    2    1    2    0    0  0.16867913268E+02 -0.57326682139E+02  0.52723033763E+02  0.12132234888E+03  0.91479610111E+02 0.  0.
        -11    1    3    3    0    0  0.47112205064E+02  0.52535498446E+02 -0.32265915970E+02  0.77592704531E+02  0.00000000000E+00 0. -1.
         11    1    3    3    0    0 -0.29081745010E+02  0.42420808024E+01 -0.44919637679E+02  0.53679763334E+02  0.00000000000E+00 0.  1.
        -13    1    4    4    0    0  0.13259747473E+02 -0.21932900454E+02  0.75059474459E+02  0.79314549305E+02  0.00000000000E+00 0.  1.
         13    1    4    4    0    0  0.36081657958E+01 -0.35393781684E+02 -0.22336440696E+02  0.42007799577E+02  0.00000000000E+00 0. -1.
          2    1    1    2  501    0 -0.34898373323E+02  0.54910289014E+00  0.14905881141E+03  0.15309058506E+03  0.00000000000E+00 0. -1.
<scales pt_clust_5="13000.00000" pt_clust_6="13000.00000" pt_clust_7="13000.00000" pt_clust_8="13000.00000" pt_clust_9="34.90269"></scales>
<clustering>
<clus scale="   34.903">  1  9  2 -1</clus>
<clus scale="   87.898">  5  6 -1 -1</clus>
<clus scale="   91.480">  7  8 -1 -1</clus>
<clus scale="  105.165">  2  5  1 -1</clus>
<clus scale="   34.903">  1  5  2 -1</clus>
</clustering>
</event>
<event>
 9    1  0.1671478E-005  0.1396835E+03  0.7546771E-02  0.1214528E+00
          2   -1    0    0  502    0 -0.00000000000E+00  0.00000000000E+00  0.35945409781E+03  0.35945409781E+03  0.00000000000E+00 0. -1.
         21   -1    0    0  501  502  0.00000000000E+00 -0.00000000000E+00 -0.15627887583E+03  0.15627887583E+03  0.00000000000E+00 0. -1.
         23    2    1    2    0    0 -0.15365276157E+02 -0.14270475066E+03  0.22255815426E+03  0.27898542671E+03  0.87749636540E+02 0.  0.
         23    2    1    2    0    0 -0.74027955987E+01  0.61200609002E+02  0.55878664514E+02  0.12349730123E+03  0.91262491412E+02 0.  0.
        -13    1    3    3    0    0 -0.18296778514E+02 -0.71695706436E+02  0.18357520506E+03  0.19792650742E+03  0.00000000000E+00 0. -1.
         13    1    3    3    0    0  0.29315023570E+01 -0.71009044225E+02  0.38982949203E+02  0.81058919290E+02  0.00000000000E+00 0.  1.
        -13    1    4    4    0    0  0.33859037714E+02  0.59058767875E+02  0.41608784324E+02  0.79785107826E+02  0.00000000000E+00 0. -1.
         13    1    4    4    0    0 -0.41261833313E+02  0.21418411272E+01  0.14269880190E+02  0.43712193406E+02  0.00000000000E+00 0.  1.
          2    1    1    2  501    0  0.22768071756E+02  0.81504141659E+02 -0.75261596799E+02  0.11325024570E+03  0.00000000000E+00 0. -1.
<scales pt_clust_5="13000.00000" pt_clust_6="13000.00000" pt_clust_7="13000.00000" pt_clust_8="13000.00000" pt_clust_9="84.62452"></scales>
<clustering>
<clus scale="   84.625">  2  9  1 -1</clus>
<clus scale="   87.750">  5  6 -1 -1</clus>
<clus scale="   91.262">  7  8 -1 -1</clus>
<clus scale="  137.414">  1  5  2 -1</clus>
<clus scale="   84.625">  2  5  1 -1</clus>
</clustering>
</event>
<event>
 9    1  0.1671478E-005  0.1052970E+03  0.7546771E-02  0.1271747E+00
         -1   -1    0    0    0  501 -0.00000000000E+00  0.00000000000E+00  0.41979925986E+03  0.41979925986E+03  0.00000000000E+00 0.  1.
         21   -1    0    0  501  502  0.00000000000E+00 -0.00000000000E+00 -0.50324567241E+02  0.50324567241E+02  0.00000000000E+00 0.  1.
         23    2    1    2    0    0 -0.49279694460E+02 -0.66661948393E+01  0.20469153206E+03  0.23056187319E+03  0.93740213548E+02 0.  0.
         23    2    1    2    0    0  0.44014956408E+02 -0.29619228737E+02  0.17340305576E+03  0.20189695658E+03  0.88764555032E+02 0.  0.
        -13    1    3    3    0    0  0.26091399477E+02 -0.13747350442E+02  0.71792057087E+02  0.77613466819E+02  0.00000000000E+00 0.  1.
         13    1    3    3    0    0 -0.75371093937E+02  0.70811556024E+01  0.13289947497E+03  0.15294840638E+03  0.00000000000E+00 0. -1.
        -13    1    4    4    0    0 -0.20312237789E+02  0.14294467627E+02  0.52481231949E+02  0.58062023007E+02  0.00000000000E+00 0. -1.
         13    1    4    4    0    0  0.64327194197E+02 -0.43913696364E+02  0.12092182381E+03  0.14383493357E+03  0.00000000000E+00 0.  1.
         -1    1    1    2    0  502  0.52647380519E+01  0.36285423577E+02 -0.86198951922E+01  0.37664997332E+02  0.00000000000E+00 0.  1.
<scales pt_clust_5="13000.00000" pt_clust_6="13000.00000" pt_clust_7="13000.00000" pt_clust_8="13000.00000" pt_clust_9="36.66537"></scales>
<clustering>
<clus scale="   36.665">  2  9  1 -1</clus>
<clus scale="   88.765">  7  8 -1 -1</clus>
<clus scale="   93.740">  5  6 -1 -1</clus>
<clus scale="  100.893">  2  7  1 -1</clus>
<clus scale="   36.665">  2  5  1 -1</clus>
</clustering>
</event>
<event>
 9    1  0.1671478E-005  0.1221750E+03  0.7546771E-02  0.1242633E+00
         21   -1    0    0  501  502  0.00000000000E+00  0.00000000000E+00  0.17893047047E+03  0.17893047047E+03  0.00000000000E+00 0. -1.
          1   -1    0    0  502    0 -0.00000000000E+00 -0.00000000000E+00 -0.37644577124E+03  0.37644577124E+03  0.00000000000E+00 0. -1.
         23    2    1    2    0    0 -0.25407111919E+01  0.77418245456E+02 -0.27796016772E+03  0.30251252495E+03  0.90840150655E+02 0.  0.
         23    2    1    2    0    0 -0.18510172932E+02 -0.47639619800E+02 -0.45914007517E+02  0.12134766669E+03  0.10002499811E+03 0.  0.
        -13    1    4    4    0    0 -0.30743769786E+02  0.17700358965E+02  0.72736150259E+01  0.36213085531E+02  0.00000000000E+00 0. -1.
         13    1    4    4    0    0  0.12233596854E+02 -0.65339978765E+02 -0.53187622543E+02  0.85134581157E+02  0.00000000000E+00 0.  1.
        -13    1    3    3    0    0  0.18208634412E+02  0.86694344283E+02 -0.25605754687E+03  0.27094820724E+03  0.00000000000E+00 0. -1.
         13    1    3    3    0    0 -0.20749345603E+02 -0.92760988275E+01 -0.21902620847E+02  0.31564317709E+02  0.00000000000E+00 0.  1.
          1    1    1    2  501    0  0.21050884124E+02 -0.29778625655E+02  0.12635887447E+03  0.13151605007E+03  0.00000000000E+00 0. -1.
<scales pt_clust_5="13000.00000" pt_clust_6="13000.00000" pt_clust_7="13000.00000" pt_clust_8="13000.00000" pt_clust_9="36.46788"></scales>
<clustering>
<clus scale="   36.468">  1  9  2 -1</clus>
<clus scale="   90.840">  7  8 -1 -1</clus>
<clus scale="  100.025">  5  6 -1 -1</clus>
<clus scale="  114.777">  2  7  1 -1</clus>
<clus scale="   36.468">  1  5  2 -1</clus>
</clustering>
</event>
<event>
 9    1  0.1671478E-005  0.1460222E+03  0.7546771E-02  0.1206022E+00
         -3   -1    0    0    0  501 -0.00000000000E+00  0.00000000000E+00  0.11571511115E+03  0.11571511115E+03  0.00000000000E+00 0.  1.
         21   -1    0    0  501  502  0.00000000000E+00 -0.00000000000E+00 -0.33681359391E+03  0.33681359391E+03  0.00000000000E+00 0. -1.
         23    2    1    2    0    0  0.10303402870E+03  0.10065675648E+03 -0.63850303320E+02  0.18152499511E+03  0.90148038913E+02 0.  0.
         23    2    1    2    0    0 -0.66252922047E+02 -0.29251631550E+02 -0.14940469573E+03  0.19030016660E+03  0.92990766603E+02 0.  0.
        -11    1    3    3    0    0  0.70574495098E+02  0.18947733270E+02 -0.35625689344E+00  0.73074639057E+02  0.00000000000E+00 0.  1.
         11    1    3    3    0    0  0.32459533598E+02  0.81709023212E+02 -0.63494046427E+02  0.10845035605E+03  0.00000000000E+00 0. -1.
        -13    1    4    4    0    0 -0.28322273694E+02 -0.53758951086E+02 -0.42221674133E+02  0.73992200776E+02  0.00000000000E+00 0.  1.
         13    1    4    4    0    0 -0.37930648353E+02  0.24507319536E+02 -0.10718302160E+03  0.11630796582E+03  0.00000000000E+00 0. -1.
         -3    1    1    2    0  502 -0.36781106650E+02 -0.71405124932E+02 -0.78434837047E+01  0.80703543351E+02  0.00000000000E+00 0.  1.
<scales pt_clust_5="13000.00000" pt_clust_6="13000.00000" pt_clust_7="13000.00000" pt_clust_8="13000.00000" pt_clust_9="80.32153"></scales>
<clustering>
<clus scale="   80.322">  2  9  1 -1</clus>
<clus scale="   90.148">  5  6 -1 -1</clus>
<clus scale="   92.991">  7  8 -1 -1</clus>
<clus scale="  144.229">  1  5  2 -1</clus>
<clus scale="   80.322">  2  5  1 -1</clus>
</clustering>
</event>
<event>
 9    1  0.1671478E-005  0.1311134E+03  0.7546771E-02  0.1226358E+00
         21   -1    0    0  501  502  0.00000000000E+00  0.00000000000E+00  0.30719190231E+02  0.30719190231E+02  0.00000000000E+00 0. -1.
          2   -1    0    0  502    0 -0.00000000000E+00 -0.00000000000E+00 -0.10303648929E+04  0.10303648929E+04  0.00000000000E+00 0. -1.
         23    2    1    2    0    0  0.56113548283E+02 -0.37525279991E+02 -0.32133689761E+03  0.34058825460E+03  0.90476960954E+02 0.  0.
         23    2    1    2    0    0 -0.86671774538E+02  0.10620262873E+03 -0.41763677744E+03  0.44920209584E+03  0.92579966419E+02 0.  0.
        -13    1    4    4    0    0 -0.50549167705E+02 -0.41557925969E+00 -0.97063217613E+02  0.10943792430E+03  0.00000000000E+00 0. -1.
         13    1    4    4    0    0 -0.36122606833E+02  0.10661820799E+03 -0.32057355983E+03  0.33976417154E+03  0.00000000000E+00 0.  1.
        -13    1    3    3    0    0  0.38041370815E+02  0.25606755968E+02 -0.10686528111E+03  0.11628860714E+03  0.00000000000E+00 0.  1.
         13    1    3    3    0    0  0.18072177468E+02 -0.63132035959E+02 -0.21447161651E+03  0.22429964746E+03  0.00000000000E+00 0. -1.
          2    1    1    2  501    0  0.30558226254E+02 -0.68677348735E+02 -0.26067202766E+03  0.27129373274E+03  0.00000000000E+00 0. -1.
<scales pt_clust_5="13000.00000" pt_clust_6="13000.00000" pt_clust_7="13000.00000" pt_clust_8="13000.00000" pt_clust_9="75.16907"></scales>
<clustering>
<clus scale="   75.169">  1  9  2 -1</clus>
<clus scale="   90.477">  7  8 -1 -1</clus>
<clus scale="   92.580">  5  6 -1 -1</clus>
<clus scale="  129.637">  2  7  1 -1</clus>
<clus scale="   75.169">  1  5  2 -1</clus>
</clustering>
</event>
<event>
 9    1  0.1671478E-005  0.1916318E+03  0.7546771E-02  0.1157312E+00
          2   -1    0    0  502    0 -0.00000000000E+00  0.00000000000E+00  0.74141574884E+03  0.74141574884E+03  0.00000000000E+00 0. -1.
         21   -1    0    0  501  502  0.00000000000E+00 -0.00000000000E+00 -0.12480552818E+03  0.12480552818E+03  0.00000000000E+00 0. -1.
         23    2    1    2    0    0  0.19447578395E+03  0.13493897150E+02  0.54404119911E+03  0.58523051792E+03  0.92255173109E+02 0.  0.
         23    2    1    2    0    0 -0.12061846599E+03  0.10409416938E+02  0.11786545517E+03  0.19111284893E+03  0.89301092955E+02 0.  0.
        -11    1    4    4    0    0 -0.19261130128E+02  0.10909647086E+02  0.79847076264E+02  0.82858717835E+02  0.00000000000E+00 0.  1.
         11    1    4    4    0    0 -0.10135733586E+03 -0.50023014809E+00  0.38018378906E+02  0.10825413109E+03  0.00000000000E+00 0. -1.
        -13    1    3    3    0    0  0.43576920378E+02  0.43628352737E+02  0.16493176122E+03  0.17608198946E+03  0.00000000000E+00 0.  1.
         13    1    3    3    0    0  0.15089886357E+03 -0.30134455587E+02  0.37910943789E+03  0.40914852845E+03  0.00000000000E+00 0. -1.
          2    1    1    2  501    0 -0.73857317955E+02 -0.23903314088E+02 -0.45296433614E+02  0.89877910179E+02  0.00000000000E+00 0. -1.
<scales pt_clust_5="13000.00000" pt_clust_6="13000.00000" pt_clust_7="13000.00000" pt_clust_8="13000.00000" pt_clust_9="77.62907"></scales>
<clustering>
<clus scale="   77.629">  2  9  1 -1</clus>
<clus scale="   89.301">  5  6 -1 -1</clus>
<clus scale="   92.255">  7  8 -1 -1</clus>
<clus scale="  190.227">  2  5  1 -1</clus>
<clus scale="   77.629">  2  5  1 -1</clus>
</clustering>
</event>
<event>
 9    1  0.1671478E-005  0.1367013E+03  0.7546771E-02  0.1218432E+00
         21   -1    0    0  501  502  0.00000000000E+00  0.00000000000E+00  0.21986780618E+03  0.21986780618E+03  0.00000000000E+00 0.  1.
          2   -1    0    0  502    0 -0.00000000000E+00 -0.00000000000E+00 -0.18643727620E+03  0.18643727620E+03  0.00000000000E+00 0. -1.
         23    2    1    2    0    0 -0.93709079172E+02  0.31752226379E+02 -0.11029234281E+03  0.17414998758E+03  0.91510774728E+02 0.  0.
         23    2    1    2    0    0  0.11652042884E+03 -0.61250350635E+01  0.10500518780E+03  0.18042338558E+03  0.88949323814E+02 0.  0.
        -11    1    4    4    0    0  0.71657053518E+02  0.27065842229E+02  0.97690010514E+02  0.12413956375E+03  0.00000000000E+00 0.  1.
         11    1    4    4    0    0  0.44863375325E+02 -0.33190877293E+02  0.73151772905E+01  0.56283821830E+02  0.00000000000E+00 0. -1.
        -11    1    3    3    0    0 -0.86756095178E+02 -0.14249585021E+02 -0.66243725503E+02  0.11008134216E+03  0.00000000000E+00 0. -1.
         11    1    3    3    0    0 -0.69529839939E+01  0.46001811401E+02 -0.44048617310E+02  0.64068645416E+02  0.00000000000E+00 0.  1.
          2    1    1    2  501    0 -0.22811349671E+02 -0.25627191316E+02  0.38717684981E+02  0.51731709220E+02  0.00000000000E+00 0. -1.
<scales pt_clust_5="13000.00000" pt_clust_6="13000.00000" pt_clust_7="13000.00000" pt_clust_8="13000.00000" pt_clust_9="34.30905"></scales>
<clustering>
<clus scale="   34.309">  1  9  2 -1</clus>
<clus scale="   88.949">  5  6 -1 -1</clus>
<clus scale="   91.511">  7  8 -1 -1</clus>
<clus scale="  135.000">  1  5  2 -1</clus>
<clus scale="   34.309">  1  5  2 -1</clus>
</clustering>
</event>
<event>
 9    1  0.1671478E-005  0.1045202E+03  0.7546771E-02  0.1275531E+00
         21   -1    0    0  501  502  0.00000000000E+00  0.00000000000E+00  0.11032075400E+03  0.11032075400E+03  0.00000000000E+00 0.  1.
         -2   -1    0    0    0  501 -0.00000000000E+00 -0.00000000000E+00 -0.27832578790E+03  0.27832578790E+03  0.00000000000E+00 0.  1.
         23    2    1    2    0    0  0.27171935891E+02  0.18181946993E+02 -0.20842034724E+03  0.23365989672E+03  0.10044405853E+03 0.  0.
         23    2    1    2    0    0  0.14186384180E+02 -0.35701369650E+02  0.78618938491E+01  0.99514436550E+02  0.91462956524E+02 0.  0.
        -11    1    4    4    0    0 -0.14226564426E+02 -0.31859153125E+02 -0.34037798356E+02  0.48743948241E+02  0.00000000000E+00 0. -1.
         11    1    4    4    0    0  0.28412948606E+02 -0.38422165250E+01  0.41899692205E+02  0.50770488309E+02  0.00000000000E+00 0.  1.
        -13    1    3    3    0    0 -0.31466544544E+02  0.31616892973E+02 -0.74225202809E+02  0.86597644765E+02  0.00000000000E+00 0. -1.
         13    1    3    3    0    0  0.58638480434E+02 -0.13434945980E+02 -0.13419514443E+03  0.14706225195E+03  0.00000000000E+00 0.  1.
         -2    1    1    2    0  502 -0.41358320070E+02  0.17519422657E+02  0.32553419490E+02  0.55472208625E+02  0.00000000000E+00 0.  1.
<scales pt_clust_5="13000.00000" pt_clust_6="13000.00000" pt_clust_7="13000.00000" pt_clust_8="13000.00000" pt_clust_9="44.91593"></scales>
<clustering>
<clus scale="   44.916">  1  9  2 -1</clus>
<clus scale="   91.463">  5  6 -1 -1</clus>
<clus scale="   95.922">  1  5  2 -1</clus>
<clus scale="  100.444">  7  8 -1 -1</clus>
<clus scale="   44.916">  1  5  2 -1</clus>
</clustering>
</event>
<event>
 9    1  0.1671478E-005  0.1464504E+03  0.7546771E-02  0.1207063E+00
         21   -1    0    0  501  502  0.00000000000E+00  0.00000000000E+00  0.53333537259E+02  0.53333537259E+02  0.00000000000E+00 0. -1.
          2   -1    0    0  502    0 -0.00000000000E+00 -0.00000000000E+00 -0.76511584213E+03  0.76511584213E+03  0.00000000000E+00 0. -1.
         23    2    1    2    0    0 -0.25093684585E+02  0.10864649991E+03 -0.53913365660E+03  0.55811951203E+03  0.91643521790E+02 0.  0.
         23    2    1    2    0    0  0.34509038971E+02 -0.85687621725E+02 -0.18677855887E+03  0.23177442376E+03  0.10148847801E+03 0.  0.
        -11    1    4    4    0    0  0.20882990797E+02 -0.10836228049E+03 -0.15751145882E+03  0.19232353677E+03  0.00000000000E+00 0.  1.
         11    1    4    4    0    0  0.13626048173E+02  0.22674658763E+02 -0.29267100049E+02  0.39450886988E+02  0.00000000000E+00 0. -1.
        -11    1    3    3    0    0 -0.29432126527E+02  0.12271244186E+02 -0.48177052085E+02  0.57774231742E+02  0.00000000000E+00 0.  1.
         11    1    3    3    0    0  0.43384419416E+01  0.96375255722E+02 -0.49095660451E+03  0.50034528029E+03  0.00000000000E+00 0. -1.
          2    1    1    2  501    0 -0.94153543857E+01 -0.22958878183E+02  0.14129910594E+02  0.28555443598E+02  0.00000000000E+00 0. -1.
<scales pt_clust_5="13000.00000" pt_clust_6="13000.00000" pt_clust_7="13000.00000" pt_clust_8="13000.00000" pt_clust_9="24.81449"></scales>
<clustering>
<clus scale="   24.814">  1  9  2 -1</clus>
<clus scale="   91.644">  7  8 -1 -1</clus>
<clus scale="  101.488">  5  6 -1 -1</clus>
<clus scale="  139.808">  2  7  1 -1</clus>
<clus scale="   24.814">  1  5  2 -1</clus>
</clustering>
</event>
<event>
 9    1  0.1805894E-005  0.9177186E+02  0.7546771E-02  0.1298792E+00
         21   -1    0    0  501  502  0.00000000000E+00  0.00000000000E+00  0.16355772660E+03  0.16355772660E+03  0.00000000000E+00 0. -1.
          1   -1    0    0  502    0 -0.00000000000E+00 -0.00000000000E+00 -0.23772292304E+03  0.23772292304E+03  0.00000000000E+00 0. -1.
         23    2    1    2    0    0  0.12720010360E+02 -0.18782959486E+01 -0.18667769076E+03  0.20783506549E+03  0.90451796883E+02 0.  0.
         23    2    1    2    0    0 -0.23316077062E+02  0.33401111977E+02  0.28284992419E+02  0.10289042618E+03  0.90150570005E+02 0.  0.
        -11    1    4    4    0    0  0.26476707772E+02 -0.13588792767E+01  0.32591217882E+02  0.42012499216E+02  0.00000000000E+00 0.  1.
         11    1    4    4    0    0 -0.49792784834E+02  0.34759991254E+02 -0.43062254628E+01  0.60877926963E+02  0.00000000000E+00 0. -1.
        -11    1    3    3    0    0 -0.31432488729E+02  0.24530873311E+02 -0.78416518156E+02  0.87971105557E+02  0.00000000000E+00 0. -1.
         11    1    3    3    0    0  0.44152499089E+02 -0.26409169260E+02 -0.10826117260E+03  0.11986395993E+03  0.00000000000E+00 0.  1.
          1    1    1    2  501    0  0.10596066702E+02 -0.31522816029E+02  0.84227501901E+02  0.90555157978E+02  0.00000000000E+00 0. -1.
<scales pt_clust_5="13000.00000" pt_clust_6="13000.00000" pt_clust_7="13000.00000" pt_clust_8="13000.00000" pt_clust_9="33.25605"></scales>
<clustering>
<clus scale="   33.256">  1  9  2 -1</clus>
<clus scale="   90.151">  5  6 -1 -1</clus>
<clus scale="   90.452">  7  8 -1 -1</clus>
<clus scale="   91.475">  1  5  2 -1</clus>
<clus scale="   33.256">  1  5  2 -1</clus>
</clustering>
</event>
<event>
 9    1  0.1671478E-005  0.9702315E+02  0.7546771E-02  0.1286837E+00
         21   -1    0    0  501  502  0.00000000000E+00  0.00000000000E+00  0.24968721691E+03  0.24968721691E+03  0.00000000000E+00 0.  1.
         -1   -1    0    0    0  501 -0.00000000000E+00 -0.00000000000E+00 -0.10788469907E+03  0.10788469907E+03  0.00000000000E+00 0.  1.
         23    2    1    2    0    0 -0.17310144715E+02  0.35069888587E+02 -0.47712435333E+02  0.11032864415E+03  0.91468000076E+02 0.  0.
         23    2    1    2    0    0 -0.22791076448E+02 -0.21317675301E+02  0.66379683714E+02  0.11701452733E+03  0.91171600568E+02 0.  0.
        -11    1    3    3    0    0  0.10672270763E+02  0.24881907315E+02 -0.68736034886E+02  0.73875903830E+02  0.00000000000E+00 0. -1.
         11    1    3    3    0    0 -0.27982415478E+02  0.10187981272E+02  0.21023599552E+02  0.36452740315E+02  0.00000000000E+00 0.  1.
        -13    1    4    4    0    0 -0.42361821472E+02  0.20386318819E+01 -0.16806737230E+01  0.42444135078E+02  0.00000000000E+00 0.  1.
         13    1    4    4    0    0  0.19570745024E+02 -0.23356307183E+02  0.68060357437E+02  0.74570392251E+02  0.00000000000E+00 0. -1.
         -1    1    1    2    0  502  0.40101221163E+02 -0.13752213286E+02  0.12313526947E+03  0.13022874450E+03  0.00000000000E+00 0.  1.
<scales pt_clust_5="13000.00000" pt_clust_6="13000.00000" pt_clust_7="13000.00000" pt_clust_8="13000.00000" pt_clust_9="42.39376"></scales>
<clustering>
<clus scale="   42.394">  1  9  2 -1</clus>
<clus scale="   91.172">  7  8 -1 -1</clus>
<clus scale="   91.468">  5  6 -1 -1</clus>
<clus scale="   96.744">  1  7  2 -1</clus>
<clus scale="   42.394">  1  5  2 -1</clus>
</clustering>
</event>
<event>
 9    1  0.1671478E-005  0.9653310E+02  0.7546771E-02  0.1288901E+00
         21   -1    0    0  501  502  0.00000000000E+00  0.00000000000E+00  0.57615866054E+02  0.57615866054E+02  0.00000000000E+00 0. -1.
         -3   -1    0    0    0  501 -0.00000000000E+00 -0.00000000000E+00 -0.43508404234E+03  0.43508404234E+03  0.00000000000E+00 0.  1.
         23    2    1    2    0    0  0.32444680072E+02  0.22683649102E+02 -0.36560623988E+03  0.37839817889E+03  0.89163075035E+02 0.  0.
         23    2    1    2    0    0 -0.13850891680E+02 -0.12532307381E+02  0.20609855554E+01  0.88951651367E+02  0.86943905426E+02 0.  0.
        -11    1    4    4    0    0 -0.28374579521E+02 -0.45081299413E+02  0.21076314702E+01  0.53309309039E+02  0.00000000000E+00 0. -1.
         11    1    4    4    0    0  0.14523687842E+02  0.32548992031E+02 -0.46645914757E-01  0.35642342328E+02  0.00000000000E+00 0.  1.
        -13    1    3    3    0    0  0.43177704154E+02  0.43983202532E+02 -0.32888844534E+03  0.33461387557E+03  0.00000000000E+00 0.  1.
         13    1    3    3    0    0 -0.10733024082E+02 -0.21299553430E+02 -0.36717794534E+02  0.43784303326E+02  0.00000000000E+00 0. -1.
         -3    1    1    2    0  502 -0.18593788392E+02 -0.10151341721E+02 -0.13922921964E+02  0.25350078137E+02  0.00000000000E+00 0.  1.
<scales pt_clust_5="13000.00000" pt_clust_6="13000.00000" pt_clust_7="13000.00000" pt_clust_8="13000.00000" pt_clust_9="21.18440"></scales>
<clustering>
<clus scale="   21.184">  1  9  2 -1</clus>
<clus scale="   86.944">  5  6 -1 -1</clus>
<clus scale="   89.163">  7  8 -1 -1</clus>
<clus scale="   94.487">  1  5  2 -1</clus>
<clus scale="   21.184">  1  5  2 -1</clus>
</clustering>
</event>
<event>
 9    1  0.1671478E-005  0.1099529E+03  0.7546771E-02  0.1266708E+00
         -4   -1    0    0    0  501 -0.00000000000E+00  0.00000000000E+00  0.44526566832E+03  0.44526566832E+03  0.00000000000E+00 0.  1.
         21   -1    0    0  501  502  0.00000000000E+00 -0.00000000000E+00 -0.52276102688E+02  0.52276102688E+02  0.00000000000E+00 0.  1.
         23    2    1    2    0    0 -0.31250864541E+02  0.30288320080E+02  0.26156729443E+03  0.28101073217E+03  0.93035386895E+02 0.  0.
         23    2    1    2    0    0 -0.10757112786E+02 -0.13279518522E+02  0.13343277584E+03  0.17116572589E+03  0.10583637826E+03 0.  0.
        -11    1    3    3    0    0 -0.56281380924E+02  0.39161239341E+02  0.22869123579E+03  0.23874856613E+03  0.00000000000E+00 0.  1.
         11    1    3    3    0    0  0.25030516383E+02 -0.88729192611E+01  0.32876058643E+02  0.42262166041E+02  0.00000000000E+00 0. -1.
        -11    1    4    4    0    0 -0.38227367095E+02  0.32230871828E+02  0.41542648099E+02  0.65007325010E+02  0.00000000000E+00 0.  1.
         11    1    4    4    0    0  0.27470254310E+02 -0.45510390351E+02  0.91890127741E+02  0.10615840088E+03  0.00000000000E+00 0. -1.
         -4    1    1    2    0  502  0.42007977326E+02 -0.17008801558E+02 -0.20105046361E+01  0.45365312943E+02  0.00000000000E+00 0.  1.
<scales pt_clust_5="13000.00000" pt_clust_6="13000.00000" pt_clust_7="13000.00000" pt_clust_8="13000.00000" pt_clust_9="45.32074"></scales>
<clustering>
<clus scale="   45.321">  2  9  1 -1</clus>
<clus scale="   93.035">  5  6 -1 -1</clus>
<clus scale="   97.693">  1  5  2 -1</clus>
<clus scale="  105.836">  7  8 -1 -1</clus>
<clus scale="   45.321">  2  5  1 -1</clus>
</clustering>
</event>
<event>
 9    1  0.1671478E-005  0.9632130E+02  0.7546771E-02  0.1289804E+00
         -2   -1    0    0    0  501 -0.00000000000E+00  0.00000000000E+00  0.17598907212E+03  0.17598907212E+03  0.00000000000E+00 0.  1.
         21   -1    0    0  501  502  0.00000000000E+00 -0.00000000000E+00 -0.67741523108E+02  0.67741523108E+02  0.00000000000E+00 0. -1.
         23    2    1    2    0    0 -0.36607994532E+02  0.15171277067E+02  0.65087718496E+02  0.11900004459E+03  0.91401786650E+02 0.  0.
         23    2    1    2    0    0  0.22416297949E+02  0.25909828740E+01  0.45296187486E+02  0.10189491727E+03  0.88439956797E+02 0.  0.
        -11    1    4    4    0    0  0.16347813883E+02 -0.42571075949E+02  0.25080611686E+02  0.52044064106E+02  0.00000000000E+00 0.  1.
         11    1    4    4    0    0  0.60684840657E+01  0.45162058823E+02  0.20215575800E+02  0.49850853161E+02  0.00000000000E+00 0. -1.
        -13    1    3    3    0    0 -0.53704145240E+02 -0.99259412644E+01  0.91832774570E+01  0.55380430756E+02  0.00000000000E+00 0.  1.
         13    1    3    3    0    0  0.17096150707E+02  0.25097218332E+02  0.55904441038E+02  0.63619613837E+02  0.00000000000E+00 0. -1.
         -2    1    1    2    0  502  0.14191696584E+02 -0.17762259941E+02 -0.21363569696E+01  0.22835633367E+02  0.00000000000E+00 0.  1.
<scales pt_clust_5="13000.00000" pt_clust_6="13000.00000" pt_clust_7="13000.00000" pt_clust_8="13000.00000" pt_clust_9="22.73548"></scales>
<clustering>
<clus scale="   22.735">  2  9  1 -1</clus>
<clus scale="   88.440">  5  6 -1 -1</clus>
<clus scale="   91.402">  7  8 -1 -1</clus>
<clus scale="   93.515">  2  5  1 -1</clus>
<clus scale="   22.735">  2  5  1 -1</clus>
</clustering>
</event>
<event>
 9    1  0.1671478E-005  0.1244831E+03  0.7546771E-02  0.1238231E+00
          2   -1    0    0  502    0 -0.00000000000E+00  0.00000000000E+00  0.71520730878E+02  0.71520730878E+02  0.00000000000E+00 0. -1.
         21   -1    0    0  501  502  0.00000000000E+00 -0.00000000000E+00 -0.31061097487E+03  0.31061097487E+03  0.00000000000E+00 0.  1.
         23    2    1    2    0    0  0.17209413454E+02 -0.83177717055E+02 -0.42751004457E+02  0.13694510886E+03  0.98547541479E+02 0.  0.
         23    2    1    2    0    0  0.15255993939E+01  0.63407031009E+02 -0.11681300753E+03  0.16112529598E+03  0.91067575147E+02 0.  0.
        -11    1    3    3    0    0  0.23537705655E+02  0.15677433999E+02 -0.21771388246E+02  0.35690319002E+02  0.00000000000E+00 0.  1.
         11    1    3    3    0    0 -0.63282922007E+01 -0.98855151054E+02 -0.20979616211E+02  0.10125478985E+03  0.00000000000E+00 0. -1.
        -13    1    4    4    0    0  0.25598425245E+02 -0.94523904200E+01 -0.59149438458E+02  0.65140487637E+02  0.00000000000E+00 0.  1.
         13    1    4    4    0    0 -0.24072825851E+02  0.72859421429E+02 -0.57663569068E+02  0.95984808345E+02  0.00000000000E+00 0. -1.
          2    1    1    2  501    0 -0.18735012848E+02  0.19770686046E+02 -0.79526232011E+02  0.84061300912E+02  0.00000000000E+00 0. -1.
<scales pt_clust_5="13000.00000" pt_clust_6="13000.00000" pt_clust_7="13000.00000" pt_clust_8="13000.00000" pt_clust_9="27.23749"></scales>
<clustering>
<clus scale="   27.237">  2  9  1 -1</clus>
<clus scale="   91.068">  7  8 -1 -1</clus>
<clus scale="   98.548">  5  6 -1 -1</clus>
<clus scale="  118.650">  2  7  1 -1</clus>
<clus scale="   27.237">  2  5  1 -1</clus>
</clustering>
</event>
<event>
 9    1  0.1671478E-005  0.1099454E+03  0.7546771E-02  0.1260835E+00
         21   -1    0    0  501  502  0.00000000000E+00  0.00000000000E+00  0.12057320494E+03  0.12057320494E+03  0.00000000000E+00 0.  1.
          2   -1    0    0  502    0 -0.00000000000E+00 -0.00000000000E+00 -0.23922157273E+03  0.23922157273E+03  0.00000000000E+00 0. -1.
         23    2    1    2    0    0  0.24004820002E+02  0.25526219921E+02 -0.69922599085E+02  0.12164935269E+03  0.93174974428E+02 0.  0.
         23    2    1    2    0    0 -0.10660782215E+03 -0.18031483735E+02 -0.58750150645E+02  0.15459953778E+03  0.93589928591E+02 0.  0.
        -11    1    3    3    0    0  0.43085877535E+02  0.44099847346E+02 -0.19562984252E+02  0.64683071446E+02  0.00000000000E+00 0. -1.
         11    1    3    3    0    0 -0.19081057533E+02 -0.18573627425E+02 -0.50359614833E+02  0.56966281241E+02  0.00000000000E+00 0.  1.
        -11    1    4    4    0    0 -0.62447610591E+02 -0.52501170722E+02 -0.55124169594E+02  0.98461927003E+02  0.00000000000E+00 0. -1.
         11    1    4    4    0    0 -0.44160211555E+02  0.34469686988E+02 -0.36259810514E+01  0.56137610781E+02  0.00000000000E+00 0.  1.
          2    1    1    2  501    0  0.82603002144E+02 -0.74947361862E+01  0.10024381937E+02  0.83545887193E+02  0.00000000000E+00 0. -1.
<scales pt_clust_5="13000.00000" pt_clust_6="13000.00000" pt_clust_7="13000.00000" pt_clust_8="13000.00000" pt_clust_9="82.94231"></scales>
<clustering>
<clus scale="   82.942">  1  9  2 -1</clus>
<clus scale="   93.175">  5  6 -1 -1</clus>
<clus scale="   93.590">  7  8 -1 -1</clus>
<clus scale="  109.592">  2  5  1 -1</clus>
<clus scale="   82.942">  1  5  2 -1</clus>
</clustering>
</event>
<event>
 9    1  0.1671478E-005  0.1439685E+03  0.7546771E-02  0.1208311E+00
          3   -1    0    0  502    0 -0.00000000000E+00  0.00000000000E+00  0.10610994225E+03  0.10610994225E+03  0.00000000000E+00 0. -1.
         21   -1    0    0  501  502  0.00000000000E+00 -0.00000000000E+00 -0.27486313486E+03  0.27486313486E+03  0.00000000000E+00 0. -1.
         23    2    1    2    0    0 -0.85536062828E+02  0.60044593345E+02 -0.25864168797E+02  0.14156881353E+03  0.91929334295E+02 0.  0.
         23    2    1    2    0    0  0.76190447147E+02 -0.96652845574E+02 -0.11679769847E+03  0.19348845016E+03  0.93001726781E+02 0.  0.
        -13    1    4    4    0    0  0.49579244411E+02 -0.96991195006E+02 -0.12484460894E+03  0.16568515252E+03  0.00000000000E+00 0. -1.
         13    1    4    4    0    0  0.26611202736E+02  0.33834943246E+00  0.80469104719E+01  0.27803297638E+02  0.00000000000E+00 0.  1.
        -13    1    3    3    0    0 -0.66352829646E+02  0.12769613917E+02 -0.51035798141E+02  0.84678295528E+02  0.00000000000E+00 0.  1.
         13    1    3    3    0    0 -0.19183233182E+02  0.47274979428E+02  0.25171629344E+02  0.56890518007E+02  0.00000000000E+00 0. -1.
          3    1    1    2  501    0  0.93456156810E+01  0.36608252229E+02 -0.26091325340E+02  0.45915813417E+02  0.00000000000E+00 0. -1.
<scales pt_clust_5="13000.00000" pt_clust_6="13000.00000" pt_clust_7="13000.00000" pt_clust_8="13000.00000" pt_clust_9="37.78233"></scales>
<clustering>
<clus scale="   37.782">  2  9  1 -1</clus>
<clus scale="   91.929">  7  8 -1 -1</clus>
<clus scale="   93.002">  5  6 -1 -1</clus>
<clus scale="  143.278">  1  7  2 -1</clus>
<clus scale="   37.782">  2  5  1 -1</clus>
</clustering>
</event>
<event>
 9    1  0.1671478E-005  0.9560130E+02  0.7546771E-02  0.1290495E+00
         21   -1    0    0  501  502  0.00000000000E+00  0.00000000000E+00  0.83248500398E+02  0.83248500398E+02  0.00000000000E+00 0.  1.
         -1   -1    0    0    0  501 -0.00000000000E+00 -0.00000000000E+00 -0.16802933004E+03  0.16802933004E+03  0.00000000000E+00 0.  1.
         23    2    1    2    0    0  0.15340136729E+00  0.12892202547E+02 -0.79464946351E+02  0.12326826288E+03  0.93349635862E+02 0.  0.
         23    2    1    2    0    0  0.15925422260E+02 -0.35619904867E+02 -0.46044336123E+01  0.10016027344E+03  0.92132962996E+02 0.  0.
        -11    1    3    3    0    0  0.10971981868E+02  0.48020646982E+02 -0.69498250144E+02  0.85184351238E+02  0.00000000000E+00 0.  1.
         11    1    3    3    0    0 -0.10818580500E+02 -0.35128444434E+02 -0.99666962068E+01  0.38083911639E+02  0.00000000000E+00 0. -1.
        -13    1    4    4    0    0  0.24326381739E+02  0.16415577528E+02 -0.29724942636E+02  0.41770997699E+02  0.00000000000E+00 0. -1.
         13    1    4    4    0    0 -0.84009594789E+01 -0.52035482395E+02  0.25120509024E+02  0.58389275744E+02  0.00000000000E+00 0.  1.
         -1    1    1    2    0  502 -0.16078823627E+02  0.22727702320E+02 -0.71144967440E+00  0.27849294113E+02  0.00000000000E+00 0.  1.
<scales pt_clust_5="13000.00000" pt_clust_6="13000.00000" pt_clust_7="13000.00000" pt_clust_8="13000.00000" pt_clust_9="27.84021"></scales>
<clustering>
<clus scale="   27.840">  1  9  2 -1</clus>
<clus scale="   92.133">  7  8 -1 -1</clus>
<clus scale="   93.350">  5  6 -1 -1</clus>
<clus scale="   94.414">  1  7  2 -1</clus>
<clus scale="   27.840">  1  5  2 -1</clus>
</clustering>
</event>
<event>
 9    1  0.1671478E-005  0.2645365E+03  0.7546771E-02  0.1142880E+00
         21   -1    0    0  501  502  0.00000000000E+00  0.00000000000E+00  0.26229914451E+03  0.26229914451E+03  0.00000000000E+00 0.  1.
          1   -1    0    0  502    0 -0.00000000000E+00 -0.00000000000E+00 -0.36331150475E+03  0.36331150475E+03  0.00000000000E+00 0. -1.
         23    2    1    2    0    0 -0.44275581102E+02  0.53905607105E+01 -0.17757062179E+02  0.10332850010E+03  0.91499073489E+02 0.  0.
         23    2    1    2    0    0  0.22502760227E+03  0.14312418214E+03 -0.34687425614E+02  0.28335379121E+03  0.89242367735E+02 0.  0.
        -13    1    4    4    0    0  0.13773996815E+03  0.13357282324E+03 -0.37500494692E+02  0.19550008961E+03  0.00000000000E+00 0.  1.
         13    1    4    4    0    0  0.87287634119E+02  0.95513588993E+01  0.28130690783E+01  0.87853701599E+02  0.00000000000E+00 0. -1.
        -13    1    3    3    0    0 -0.22355485387E+02 -0.42102935835E+02  0.12171630668E+01  0.47685494846E+02  0.00000000000E+00 0. -1.
         13    1    3    3    0    0 -0.21920095715E+02  0.47493496545E+02 -0.18974225245E+02  0.55643005256E+02  0.00000000000E+00 0.  1.
          1    1    1    2  501    0 -0.18075202117E+03 -0.14851474285E+03 -0.48567872442E+02  0.23892835795E+03  0.00000000000E+00 0. -1.
<scales pt_clust_5="13000.00000" pt_clust_6="13000.00000" pt_clust_7="13000.00000" pt_clust_8="13000.00000" pt_clust_9="249.02887"></scales>
<clustering>
<clus scale="   89.242">  5  6 -1 -1</clus>
<clus scale="   91.499">  7  8 -1 -1</clus>
<clus scale="  101.791">  2  7  1 -1</clus>
<clus scale="  249.029">  1  9  2 -1</clus>
<clus scale="  249.029">  1  5  2 -1</clus>
</clustering>
</event>
<event>
 9    1  0.1671478E-005  0.1123093E+03  0.7546771E-02  0.1256905E+00
         21   -1    0    0  501  502  0.00000000000E+00  0.00000000000E+00  0.15358068795E+03  0.15358068795E+03  0.00000000000E+00 0. -1.
          2   -1    0    0  502    0 -0.00000000000E+00 -0.00000000000E+00 -0.58841240348E+03  0.58841240348E+03  0.00000000000E+00 0. -1.
         23    2    1    2    0    0  0.40127941117E+02  0.58531546562E+02 -0.38265591779E+03  0.39987732709E+03  0.91870189384E+02 0.  0.
         23    2    1    2    0    0 -0.11595242722E+02 -0.55638426572E+02 -0.18099923296E+03  0.21013863570E+03  0.90373888474E+02 0.  0.
        -11    1    4    4    0    0 -0.42400608308E+02 -0.61195073879E+02 -0.11355594799E+03  0.13578513165E+03  0.00000000000E+00 0.  1.
         11    1    4    4    0    0  0.30805365586E+02  0.55566473071E+01 -0.67443284969E+02  0.74353504057E+02  0.00000000000E+00 0. -1.
        -13    1    3    3    0    0  0.17930010564E+02  0.81817427726E+02 -0.28556124600E+03  0.29759166987E+03  0.00000000000E+00 0. -1.
         13    1    3    3    0    0  0.22197930553E+02 -0.23285881165E+02 -0.97094671788E+02  0.10228565722E+03  0.00000000000E+00 0.  1.
          2    1    1    2  501    0 -0.28532698395E+02 -0.28931199894E+01  0.12882343522E+03  0.13197712863E+03  0.00000000000E+00 0. -1.
<scales pt_clust_5="13000.00000" pt_clust_6="13000.00000" pt_clust_7="13000.00000" pt_clust_8="13000.00000" pt_clust_9="28.67900"></scales>
<clustering>
<clus scale="   28.679">  1  9  2 -1</clus>
<clus scale="   90.374">  5  6 -1 -1</clus>
<clus scale="   91.870">  7  8 -1 -1</clus>
<clus scale="  111.089">  1  5  2 -1</clus>
<clus scale="   28.679">  1  5  2 -1</clus>
</clustering>
</event>
<event>
 9    1  0.1671478E-005  0.9423433E+02  0.7546771E-02  0.1293338E+00
         21   -1    0    0  501  502  0.00000000000E+00  0.00000000000E+00  0.56128668389E+02  0.56128668389E+02  0.00000000000E+00 0. -1.
          2   -1    0    0  502    0 -0.00000000000E+00 -0.00000000000E+00 -0.46814731282E+03  0.46814731282E+03  0.00000000000E+00 0. -1.
         23    2    1    2    0    0  0.95969664581E+01 -0.22782569567E+01 -0.20900583580E+03  0.22759330335E+03  0.89543174565E+02 0.  0.
         23    2    1    2    0    0 -0.16160672601E+02 -0.78252681045E+02 -0.17215775178E+03  0.21019366846E+03  0.90324068392E+02 0.  0.
        -11    1    4    4    0    0 -0.35874787794E+02 -0.89376308713E+02 -0.12422177672E+03  0.15718197979E+03  0.00000000000E+00 0. -1.
         11    1    4    4    0    0  0.19714115193E+02  0.11123627668E+02 -0.47935975067E+02  0.53011688673E+02  0.00000000000E+00 0.  1.
        -13    1    3    3    0    0 -0.30372384955E+02  0.20952942704E+02 -0.13812538134E+03  0.14296897756E+03  0.00000000000E+00 0.  1.
         13    1    3    3    0    0  0.39969351413E+02 -0.23231199661E+02 -0.70880454467E+02  0.84624325790E+02  0.00000000000E+00 0. -1.
          2    1    1    2  501    0  0.65637061430E+01  0.80530938002E+02 -0.30855056842E+02  0.86489009397E+02  0.00000000000E+00 0. -1.
<scales pt_clust_5="13000.00000" pt_clust_6="13000.00000" pt_clust_7="13000.00000" pt_clust_8="13000.00000" pt_clust_9="80.79798"></scales>
<clustering>
<clus scale="   80.798">  1  9  2 -1</clus>
<clus scale="   89.543">  7  8 -1 -1</clus>
<clus scale="   90.324">  5  6 -1 -1</clus>
<clus scale="   93.486">  2  7  1 -1</clus>
<clus scale="   80.798">  1  5  2 -1</clus>
</clustering>
</event>
<event>
 9    1  0.1671478E-005  0.3243878E+03  0.7546771E-02  0.1117798E+00
         -1   -1    0    0    0  501 -0.00000000000E+00  0.00000000000E+00  0.14768312262E+04  0.14768312262E+04  0.00000000000E+00 0.  1.
         21   -1    0    0  501  502  0.00000000000E+00 -0.00000000000E+00 -0.96022529701E+02  0.96022529701E+02  0.00000000000E+00 0.  1.
         23    2    1    2    0    0 -0.39068609606E+02 -0.19699231286E+02  0.27608929806E+03  0.29439104501E+03  0.92338350141E+02 0.  0.
         23    2    1    2    0    0  0.30730832189E+03 -0.10255980415E+03  0.46722507225E+03  0.57611035566E+03  0.92989008066E+02 0.  0.
        -13    1    4    4    0    0  0.18861438380E+03 -0.82758617937E+02  0.36086375695E+03  0.41550815359E+03  0.00000000000E+00 0.  1.
         13    1    4    4    0    0  0.11869393810E+03 -0.19801186211E+02  0.10636131530E+03  0.16060220207E+03  0.00000000000E+00 0. -1.
        -13    1    3    3    0    0 -0.29563056306E+02  0.27778942337E+02  0.20093549647E+03  0.20498955504E+03  0.00000000000E+00 0.  1.
         13    1    3    3    0    0 -0.95055533001E+01 -0.47478173623E+02  0.75153801594E+02  0.89401489966E+02  0.00000000000E+00 0. -1.
         -1    1    1    2    0  502 -0.26823971229E+03  0.12225903543E+03  0.63749432623E+03  0.70235235528E+03  0.00000000000E+00 0.  1.
<scales pt_clust_5="13000.00000" pt_clust_6="13000.00000" pt_clust_7="13000.00000" pt_clust_8="13000.00000" pt_clust_9="310.77417"></scales>
<clustering>
<clus scale="   92.338">  7  8 -1 -1</clus>
<clus scale="   92.989">  5  6 -1 -1</clus>
<clus scale="  102.180">  1  7  2 -1</clus>
<clus scale="  310.774">  2  9  1 -1</clus>
<clus scale="  310.774">  2  5  1 -1</clus>
</clustering>
</event>
<event>
 9    1  0.1671478E-005  0.2032337E+03  0.7546771E-02  0.1147065E+00
          1   -1    0    0  502    0 -0.00000000000E+00  0.00000000000E+00  0.12373300943E+04  0.12373300943E+04  0.00000000000E+00 0. -1.
         21   -1    0    0  501  502  0.00000000000E+00 -0.00000000000E+00 -0.71843009325E+02  0.71843009325E+02  0.00000000000E+00 0. -1.
         23    2    1    2    0    0  0.17062029944E+03 -0.58155358637E+02  0.55629948227E+03  0.59195928486E+03  0.91942093929E+02 0.  0.
         23    2    1    2    0    0 -0.20011081068E+03 -0.44049082961E+02  0.22210972969E+03  0.31578547160E+03  0.91668281247E+02 0.  0.
        -13    1    4    4    0    0 -0.11123091953E+03 -0.31467007032E+02  0.59419796986E+02  0.12997385224E+03  0.00000000000E+00 0. -1.
         13    1    4    4    0    0 -0.88879891147E+02 -0.12582075930E+02  0.16268993270E+03  0.18581161936E+03  0.00000000000E+00 0.  1.
        -13    1    3    3    0    0  0.38022669465E+02 -0.21137975777E+02  0.45571794901E+02  0.63002586484E+02  0.00000000000E+00 0.  1.
         13    1    3    3    0    0  0.13259762998E+03 -0.37017382859E+02  0.51072768737E+03  0.52895669838E+03  0.00000000000E+00 0. -1.
          1    1    1    2  501    0  0.29490511239E+02  0.10220444160E+03  0.38707787304E+03  0.40142834719E+03  0.00000000000E+00 0. -1.
<scales pt_clust_5="13000.00000" pt_clust_6="13000.00000" pt_clust_7="13000.00000" pt_clust_8="13000.00000" pt_clust_9="106.37410"></scales>
<clustering>
<clus scale="   91.668">  5  6 -1 -1</clus>
<clus scale="   91.942">  7  8 -1 -1</clus>
<clus scale="  106.374">  2  9  1 -1</clus>
<clus scale="  203.110">  2  5  1 -1</clus>
<clus scale="  106.374">  2  5  1 -1</clus>
</clustering>
</event>
<event>
 9    1  0.1671478E-005  0.2246002E+03  0.7546771E-02  0.1130698E+00
         21   -1    0    0  501  502  0.00000000000E+00  0.00000000000E+00  0.72926899206E+03  0.72926899206E+03  0.00000000000E+00 0. -1.
         -4   -1    0    0    0  501 -0.00000000000E+00 -0.00000000000E+00 -0.12776938977E+03  0.12776938977E+03  0.00000000000E+00 0.  1.
         23    2    1    2    0    0 -0.14891240260E+03  0.17183798699E+03  0.13077174666E+03  0.27899546503E+03  0.95047474259E+02 0.  0.
         23    2    1    2    0    0  0.41214966932E+02 -0.16065745212E+03  0.41475729689E+03  0.45615589757E+03  0.92439694650E+02 0.  0.
        -11    1    3    3    0    0 -0.15723149559E+02  0.60138981872E+02  0.72863715415E+02  0.95775965653E+02  0.00000000000E+00 0. -1.
         11    1    3    3    0    0 -0.13318925304E+03  0.11169900512E+03  0.57908031245E+02  0.18321949938E+03  0.00000000000E+00 0.  1.
        -13    1    4    4    0    0  0.34653836117E+02 -0.61845218472E+01  0.72303520987E+02  0.80417260680E+02  0.00000000000E+00 0. -1.
         13    1    4    4    0    0  0.65611308153E+01 -0.15447293028E+03  0.34245377590E+03  0.37573863689E+03  0.00000000000E+00 0.  1.
         -4    1    1    2    0  502  0.10769743567E+03 -0.11180534867E+02  0.55970558745E+02  0.12188701922E+03  0.00000000000E+00 0.  1.
<scales pt_clust_5="13000.00000" pt_clust_6="13000.00000" pt_clust_7="13000.00000" pt_clust_8="13000.00000" pt_clust_9="108.27628"></scales>
<clustering>
<clus scale="   92.440">  7  8 -1 -1</clus>
<clus scale="   95.047">  5  6 -1 -1</clus>
<clus scale="  108.276">  1  9  2 -1</clus>
<clus scale="  223.509">  1  7  2 -1</clus>
<clus scale="  108.276">  1  5  2 -1</clus>
</clustering>
</event>
<event>
 9    1  0.1671478E-005  0.9303381E+02  0.7546771E-02  0.1296441E+00
         21   -1    0    0  501  502  0.00000000000E+00  0.00000000000E+00  0.14514105469E+03  0.14514105469E+03  0.00000000000E+00 0. -1.
         -3   -1    0    0    0  501 -0.00000000000E+00 -0.00000000000E+00 -0.11456479705E+03  0.11456479705E+03  0.00000000000E+00 0.  1.
         23    2    1    2    0    0 -0.31313805704E+01  0.58593928820E+00 -0.12439926664E+02  0.90930283197E+02  0.90018974432E+02 0.  0.
         23    2    1    2    0    0 -0.32242405260E+02 -0.23383152740E+02 -0.11024340925E+02  0.10028180216E+03  0.91370450491E+02 0.  0.
        -11    1    3    3    0    0  0.25628287656E+02 -0.83023317421E+01  0.29083779423E+02  0.39643461833E+02  0.00000000000E+00 0. -1.
         11    1    3    3    0    0 -0.28759668226E+02  0.88882710303E+01 -0.41523706087E+02  0.51286821364E+02  0.00000000000E+00 0.  1.
        -13    1    4    4    0    0 -0.29590041322E+02 -0.53202494959E+02 -0.26715801583E+02  0.66481652127E+02  0.00000000000E+00 0.  1.
         13    1    4    4    0    0 -0.26523639382E+01  0.29819342218E+02  0.15691460659E+02  0.33800150035E+02  0.00000000000E+00 0. -1.
         -3    1    1    2    0  502  0.35373785830E+02  0.22797213452E+02  0.54040525232E+02  0.68493766377E+02  0.00000000000E+00 0.  1.
<scales pt_clust_5="13000.00000" pt_clust_6="13000.00000" pt_clust_7="13000.00000" pt_clust_8="13000.00000" pt_clust_9="42.08346"></scales>
<clustering>
<clus scale="   42.083">  1  9  2 -1</clus>
<clus scale="   90.019">  5  6 -1 -1</clus>
<clus scale="   91.370">  7  8 -1 -1</clus>
<clus scale="   91.707">  2  5  1 -1</clus>
<clus scale="   42.083">  1  5  2 -1</clus>
</clustering>
</event>
<event>
 9    1  0.1671478E-005  0.1563241E+03  0.7546771E-02  0.1216406E+00
          1   -1    0    0  502    0 -0.00000000000E+00  0.00000000000E+00  0.10626923800E+03  0.10626923800E+03  0.00000000000E+00 0. -1.
         21   -1    0    0  501  502  0.00000000000E+00 -0.00000000000E+00 -0.36302398889E+03  0.36302398889E+03  0.00000000000E+00 0. -1.
         23    2    1    2    0    0 -0.21511274755E+02 -0.15630715364E+02 -0.23056704666E+02  0.96997894807E+02  0.90387641647E+02 0.  0.
         23    2    1    2    0    0 -0.72654885405E+02  0.10696696333E+03 -0.10138962823E+03  0.18597546361E+03  0.87099671276E+02 0.  0.
        -11    1    4    4    0    0 -0.45715342596E+02  0.10827884996E+03 -0.49574999115E+02  0.12756128894E+03  0.00000000000E+00 0. -1.
         11    1    4    4    0    0 -0.26939542809E+02 -0.13118866284E+01 -0.51814629112E+02  0.58414174677E+02  0.00000000000E+00 0.  1.
        -11    1    3    3    0    0  0.10135052232E+02  0.33781552152E+02 -0.51120073268E+01  0.35637693085E+02  0.00000000000E+00 0.  1.
         11    1    3    3    0    0 -0.31646326986E+02 -0.49412267515E+02 -0.17944697340E+02  0.61360201722E+02  0.00000000000E+00 0. -1.
          1    1    1    2  501    0  0.94166160160E+02 -0.91336247971E+02 -0.13230841800E+03  0.18631986847E+03  0.00000000000E+00 0. -1.
<scales pt_clust_5="13000.00000" pt_clust_6="13000.00000" pt_clust_7="13000.00000" pt_clust_8="13000.00000" pt_clust_9="129.81096"></scales>
<clustering>
<clus scale="   87.100">  5  6 -1 -1</clus>
<clus scale="   90.388">  7  8 -1 -1</clus>
<clus scale="   94.218">  1  7  2 -1</clus>
<clus scale="  129.811">  2  9  1 -1</clus>
<clus scale="  129.811">  2  5  1 -1</clus>
</clustering>
</event>
<event>
 9    1  0.1671478E-005  0.1151599E+03  0.7546771E-02  0.1256468E+00
         21   -1    0    0  501  502  0.00000000000E+00  0.00000000000E+00  0.80444644852E+03  0.80444644852E+03  0.00000000000E+00 0.  1.
         -3   -1    0    0    0  501 -0.00000000000E+00 -0.00000000000E+00 -0.44112092674E+02  0.44112092674E+02  0.00000000000E+00 0.  1.
         23    2    1    2    0    0 -0.86129141135E+02 -0.12850060573E+02  0.35021981951E+03  0.37099313329E+03  0.86015289132E+02 0.  0.
         23    2    1    2    0    0  0.57004306355E+02 -0.67346625868E+02  0.36295053446E+03  0.38007588236E+03  0.70281768095E+02 0.  0.
        -11    1    4    4    0    0  0.10522159812E+02 -0.51995042763E+02  0.10633634264E+03  0.11883441457E+03  0.00000000000E+00 0.  1.
         11    1    4    4    0    0  0.46482146543E+02 -0.15351583105E+02  0.25661419182E+03  0.26124146779E+03  0.00000000000E+00 0. -1.
        -13    1    3    3    0    0 -0.59165626563E+02  0.31932785045E+02  0.15620552526E+03  0.17006010775E+03  0.00000000000E+00 0.  1.
         13    1    3    3    0    0 -0.26963514572E+02 -0.44782845618E+02  0.19401429425E+03  0.20093302554E+03  0.00000000000E+00 0. -1.
         -3    1    1    2    0  502  0.29124834780E+02  0.80196686441E+02  0.47164001870E+02  0.97489525537E+02  0.00000000000E+00 0.  1.
<scales pt_clust_5="13000.00000" pt_clust_6="13000.00000" pt_clust_7="13000.00000" pt_clust_8="13000.00000" pt_clust_9="85.32158"></scales>
<clustering>
<clus scale="   70.282">  5  6 -1 -1</clus>
<clus scale="   85.322">  1  9  2 -1</clus>
<clus scale="   86.015">  7  8 -1 -1</clus>
<clus scale="  103.936">  1  5  2 -1</clus>
<clus scale="   85.322">  1  5  2 -1</clus>
</clustering>
</event>
<event>
 9    1  0.1671478E-005  0.9354552E+02  0.7546771E-02  0.1296494E+00
         21   -1    0    0  501  502  0.00000000000E+00  0.00000000000E+00  0.20232036637E+03  0.20232036637E+03  0.00000000000E+00 0. -1.
          1   -1    0    0  502    0 -0.00000000000E+00 -0.00000000000E+00 -0.15262493541E+03  0.15262493541E+03  0.00000000000E+00 0. -1.
         23    2    1    2    0    0 -0.23369746617E+02 -0.10626360738E+01 -0.10357572306E+03  0.13728290114E+03  0.87013736185E+02 0.  0.
         23    2    1    2    0    0  0.22754322878E+02 -0.21345943204E+02  0.42743599105E+02  0.10488446146E+03  0.90555654103E+02 0.  0.
        -11    1    3    3    0    0 -0.38905382411E+02  0.29269703965E+02 -0.86273299047E+02  0.99062740116E+02  0.00000000000E+00 0. -1.
         11    1    3    3    0    0  0.15535635793E+02 -0.30332340039E+02 -0.17302424010E+02  0.38220161020E+02  0.00000000000E+00 0.  1.
        -11    1    4    4    0    0  0.76104042320E+01  0.21279481052E+02 -0.18179333203E+02  0.29003839782E+02  0.00000000000E+00 0.  1.
         11    1    4    4    0    0  0.15143918646E+02 -0.42625424256E+02  0.60922932308E+02  0.75880621676E+02  0.00000000000E+00 0. -1.
          1    1    1    2  501    0  0.61542373968E+00  0.22408579278E+02  0.11052755491E+03  0.11277793918E+03  0.00000000000E+00 0. -1.
<scales pt_clust_5="13000.00000" pt_clust_6="13000.00000" pt_clust_7="13000.00000" pt_clust_8="13000.00000" pt_clust_9="22.41703"></scales>
<clustering>
<clus scale="   22.417">  1  9  2 -1</clus>
<clus scale="   87.014">  5  6 -1 -1</clus>
<clus scale="   90.121">  2  5  1 -1</clus>
<clus scale="   90.556">  7  8 -1 -1</clus>
<clus scale="   22.417">  1  5  2 -1</clus>
</clustering>
</event>
<event>
 9    1  0.1671478E-005  0.9516385E+02  0.7546771E-02  0.1291369E+00
          1   -1    0    0  502    0 -0.00000000000E+00  0.00000000000E+00  0.44942511017E+03  0.44942511017E+03  0.00000000000E+00 0. -1.
         21   -1    0    0  501  502  0.00000000000E+00 -0.00000000000E+00 -0.35334348858E+02  0.35334348858E+02  0.00000000000E+00 0.  1.
         23    2    1    2    0    0  0.88739585120E+01 -0.81916516900E+01  0.23468551110E+03  0.25280800696E+03  0.93213459136E+02 0.  0.
         23    2    1    2    0    0  0.14401388097E+02  0.36128908288E+02  0.16472633544E+03  0.19273790078E+03  0.92197802672E+02 0.  0.
        -11    1    4    4    0    0 -0.17139666607E+02 -0.22782732585E+02  0.25266365590E+02  0.38094754305E+02  0.00000000000E+00 0.  1.
         11    1    4    4    0    0  0.31541054704E+02  0.58911640873E+02  0.13945996985E+03  0.15464314648E+03  0.00000000000E+00 0. -1.
        -13    1    3    3    0    0  0.50919477298E+02 -0.98793005028E+01  0.13341222510E+03  0.14314054476E+03  0.00000000000E+00 0.  1.
         13    1    3    3    0    0 -0.42045518786E+02  0.16876488128E+01  0.10127328600E+03  0.10966746220E+03  0.00000000000E+00 0. -1.
          1    1    1    2  501    0 -0.23275346609E+02 -0.27937256598E+02  0.14678914778E+02  0.39213551294E+02  0.00000000000E+00 0. -1.
<scales pt_clust_5="13000.00000" pt_clust_6="13000.00000" pt_clust_7="13000.00000" pt_clust_8="13000.00000" pt_clust_9="36.36251"></scales>
<clustering>
<clus scale="   36.363">  2  9  1 -1</clus>
<clus scale="   92.198">  5  6 -1 -1</clus>
<clus scale="   93.213">  7  8 -1 -1</clus>
<clus scale="   94.169">  2  5  1 -1</clus>
<clus scale="   36.363">  2  5  1 -1</clus>
</clustering>
</event>
<event>
 9    1  0.1671478E-005  0.1011316E+03  0.7546771E-02  0.1277980E+00
         21   -1    0    0  501  502  0.00000000000E+00  0.00000000000E+00  0.74949545589E+02  0.74949545589E+02  0.00000000000E+00 0. -1.
         -1   -1    0    0    0  501 -0.00000000000E+00 -0.00000000000E+00 -0.22016026405E+03  0.22016026405E+03  0.00000000000E+00 0.  1.
         23    2    1    2    0    0  0.18839486502E+02 -0.44620866608E+02 -0.10858735815E+03  0.15007923371E+03  0.91578458451E+02 0.  0.
         23    2    1    2    0    0  0.12064229800E+02  0.38520710051E+02 -0.48591437819E+02  0.11133359579E+03  0.91676883552E+02 0.  0.
        -11    1    4    4    0    0  0.20464789860E+02 -0.10468805857E+02  0.17319812890E+02  0.28781581587E+02  0.00000000000E+00 0.  1.
         11    1    4    4    0    0 -0.84005600602E+01  0.48989515908E+02 -0.65911250709E+02  0.82552014199E+02  0.00000000000E+00 0. -1.
        -13    1    3    3    0    0  0.14775333624E+02 -0.21675428951E+02 -0.12090733353E+03  0.12372032172E+03  0.00000000000E+00 0.  1.
         13    1    3    3    0    0  0.40641528784E+01 -0.22945437657E+02  0.12319975384E+02  0.26358911990E+02  0.00000000000E+00 0. -1.
         -1    1    1    2    0  502 -0.30903716302E+02  0.61001565567E+01  0.11968077512E+02  0.33696980141E+02  0.00000000000E+00 0.  1.
<scales pt_clust_5="13000.00000" pt_clust_6="13000.00000" pt_clust_7="13000.00000" pt_clust_8="13000.00000" pt_clust_9="31.50003"></scales>
<clustering>
<clus scale="   31.500">  1  9  2 -1</clus>
<clus scale="   91.578">  7  8 -1 -1</clus>
<clus scale="   91.677">  5  6 -1 -1</clus>
<clus scale="  101.042">  2  7  1 -1</clus>
<clus scale="   31.500">  1  5  2 -1</clus>
</clustering>
</event>
<event>
 9    1  0.1671478E-005  0.3193220E+03  0.7546771E-02  0.1111098E+00
         21   -1    0    0  501  502  0.00000000000E+00  0.00000000000E+00  0.68924189909E+02  0.68924189909E+02  0.00000000000E+00 0. -1.
          2   -1    0    0  502    0 -0.00000000000E+00 -0.00000000000E+00 -0.25986285201E+04  0.25986285201E+04  0.00000000000E+00 0. -1.
         23    2    1    2    0    0 -0.18927276140E+02 -0.88372087862E+02 -0.33853792054E+03  0.36153316645E+03  0.89053012882E+02 0.  0.
         23    2    1    2    0    0  0.15629934120E+03  0.33747940970E+03 -0.16593617317E+04  0.17029094727E+04  0.89985996920E+02 0.  0.
        -11    1    3    3    0    0  0.24116666311E+02 -0.65587799849E+02 -0.13228751887E+03  0.14961069725E+03  0.00000000000E+00 0.  1.
         11    1    3    3    0    0 -0.43043942452E+02 -0.22784288013E+02 -0.20625040167E+03  0.21192246920E+03  0.00000000000E+00 0. -1.
        -13    1    4    4    0    0  0.24472864492E+02  0.52223091262E+01 -0.96623972367E+02  0.99811751037E+02  0.00000000000E+00 0.  1.
         13    1    4    4    0    0  0.13182647671E+03  0.33225710057E+03 -0.15627377594E+04  0.16030977217E+04  0.00000000000E+00 0. -1.
          2    1    1    2  501    0 -0.13737206506E+03 -0.24910732184E+03 -0.53180467794E+03  0.60311007083E+03  0.00000000000E+00 0. -1.
<scales pt_clust_5="13000.00000" pt_clust_6="13000.00000" pt_clust_7="13000.00000" pt_clust_8="13000.00000" pt_clust_9="306.38058"></scales>
<clustering>
<clus scale="   89.053">  5  6 -1 -1</clus>
<clus scale="   89.986">  7  8 -1 -1</clus>
<clus scale="  126.879">  2  5  1 -1</clus>
<clus scale="  306.381">  1  9  2 -1</clus>
<clus scale="  306.381">  1  5  2 -1</clus>
</clustering>
</event>
<event>
 9    1  0.1671478E-005  0.1121076E+03  0.7546771E-02  0.1258975E+00
          2   -1    0    0  502    0 -0.00000000000E+00  0.00000000000E+00  0.13076106313E+03  0.13076106313E+03  0.00000000000E+00 0. -1.
         21   -1    0    0  501  502  0.00000000000E+00 -0.00000000000E+00 -0.17763296258E+03  0.17763296258E+03  0.00000000000E+00 0. -1.
         23    2    1    2    0    0  0.40098884901E+02 -0.34136342567E+02  0.31610386980E+02  0.11186889064E+03  0.93499848525E+02 0.  0.
         23    2    1    2    0    0 -0.90286687854E+02  0.17757709062E+02 -0.60927211990E+02  0.14089011157E+03  0.87583538081E+02 0.  0.
        -11    1    3    3    0    0  0.39502069593E+02 -0.61182116378E+02  0.35812466572E+01  0.72914266054E+02  0.00000000000E+00 0. -1.
         11    1    3    3    0    0  0.59681530813E+00  0.27045773810E+02  0.28029140323E+02  0.38954624587E+02  0.00000000000E+00 0.  1.
        -13    1    4    4    0    0 -0.48162737858E+02 -0.29719570477E+02 -0.59251178027E+01  0.56903507873E+02  0.00000000000E+00 0. -1.
         13    1    4    4    0    0 -0.42123949996E+02  0.47477279539E+02 -0.55002094187E+02  0.83986603698E+02  0.00000000000E+00 0.  1.
          2    1    1    2  501    0  0.50187802954E+02  0.16378633505E+02 -0.17555074437E+02  0.55635023495E+02  0.00000000000E+00 0. -1.
<scales pt_clust_5="13000.00000" pt_clust_6="13000.00000" pt_clust_7="13000.00000" pt_clust_8="13000.00000" pt_clust_9="52.79276"></scales>
<clustering>
<clus scale="   52.793">  2  9  1 -1</clus>
<clus scale="   87.584">  7  8 -1 -1</clus>
<clus scale="   93.500">  5  6 -1 -1</clus>
<clus scale="  107.223">  2  7  1 -1</clus>
<clus scale="   52.793">  2  5  1 -1</clus>
</clustering>
</event>
<event>
 9    1  0.1671478E-005  0.1295433E+03  0.7546771E-02  0.1228676E+00
          1   -1    0    0  502    0 -0.00000000000E+00  0.00000000000E+00  0.60544375783E+03  0.60544375783E+03  0.00000000000E+00 0. -1.
         21   -1    0    0  501  502  0.00000000000E+00 -0.00000000000E+00 -0.96228825447E+02  0.96228825447E+02  0.00000000000E+00 0. -1.
         23    2    1    2    0    0  0.11292922096E+02  0.10966836998E+03  0.44903405464E+03  0.47126147731E+03  0.91110462139E+02 0.  0.
         23    2    1    2    0    0  0.21506132186E+02 -0.56728941740E+02  0.10749460165E+03  0.15220017645E+03  0.89045593807E+02 0.  0.
        -13    1    3    3    0    0  0.34184527754E+02  0.11440260076E+03  0.38525365839E+03  0.40333226786E+03  0.00000000000E+00 0. -1.
         13    1    3    3    0    0 -0.22891605657E+02 -0.47342307810E+01  0.63780396252E+02  0.67929209452E+02  0.00000000000E+00 0.  1.
        -13    1    4    4    0    0  0.50860686549E+02 -0.90219517293E+01  0.48654930551E+02  0.70961308585E+02  0.00000000000E+00 0.  1.
         13    1    4    4    0    0 -0.29354554363E+02 -0.47706990010E+02  0.58839671097E+02  0.81238867868E+02  0.00000000000E+00 0. -1.
          1    1    1    2  501    0 -0.32799054282E+02 -0.52939428239E+02 -0.47313723909E+02  0.78210929506E+02  0.00000000000E+00 0. -1.
<scales pt_clust_5="13000.00000" pt_clust_6="13000.00000" pt_clust_7="13000.00000" pt_clust_8="13000.00000" pt_clust_9="62.27649"></scales>
<clustering>
<clus scale="   62.276">  2  9  1 -1</clus>
<clus scale="   89.046">  7  8 -1 -1</clus>
<clus scale="   91.110">  5  6 -1 -1</clus>
<clus scale="  128.099">  2  7  1 -1</clus>
<clus scale="   62.276">  2  5  1 -1</clus>
</clustering>
</event>
<event>
 9    1  0.1671478E-005  0.1028242E+03  0.7546771E-02  0.1276088E+00
         21   -1    0    0  501  502  0.00000000000E+00  0.00000000000E+00  0.43734842791E+02  0.43734842791E+02  0.00000000000E+00 0. -1.
          2   -1    0    0  502    0 -0.00000000000E+00 -0.00000000000E+00 -0.59598646698E+03  0.59598646698E+03  0.00000000000E+00 0. -1.
         23    2    1    2    0    0  0.39881651867E+02  0.24478440131E+02 -0.48234881901E+03  0.49290045896E+03  0.90004105766E+02 0.  0.
         23    2    1    2    0    0 -0.21000367287E+02 -0.89887584715E+00 -0.38528013746E+02  0.10326770745E+03  0.93477206607E+02 0.  0.
        -11    1    4    4    0    0  0.22268480488E+02 -0.33779762433E+02 -0.91128430478E+01  0.41472900569E+02  0.00000000000E+00 0.  1.
         11    1    4    4    0    0 -0.43268847774E+02  0.32880886585E+02 -0.29415170698E+02  0.61794806882E+02  0.00000000000E+00 0. -1.
        -13    1    3    3    0    0 -0.26606490848E+02 -0.60145668349E+01 -0.16426469200E+03  0.16651417179E+03  0.00000000000E+00 0.  1.
         13    1    3    3    0    0  0.66488142715E+02  0.30493006966E+02 -0.31808412701E+03  0.32638628717E+03  0.00000000000E+00 0. -1.
          2    1    1    2  501    0 -0.18881284580E+02 -0.23579564284E+02 -0.31374791439E+02  0.43553143366E+02  0.00000000000E+00 0. -1.
<scales pt_clust_5="13000.00000" pt_clust_6="13000.00000" pt_clust_7="13000.00000" pt_clust_8="13000.00000" pt_clust_9="30.20759"></scales>
<clustering>
<clus scale="   30.208">  1  9  2 -1</clus>
<clus scale="   90.004">  7  8 -1 -1</clus>
<clus scale="   93.477">  5  6 -1 -1</clus>
<clus scale="   99.677">  2  7  1 -1</clus>
<clus scale="   30.208">  1  5  2 -1</clus>
</clustering>
</event>
<event>
 9    1  0.1671478E-005  0.2557814E+03  0.7546771E-02  0.1109796E+00
         21   -1    0    0  501  502  0.00000000000E+00  0.00000000000E+00  0.20723246883E+03  0.20723246883E+03  0.00000000000E+00 0.  1.
          1   -1    0    0  502    0 -0.00000000000E+00 -0.00000000000E+00 -0.76297617698E+03  0.76297617698E+03  0.00000000000E+00 0. -1.
         23    2    1    2    0    0  0.12925082041E+03  0.19648325782E+03 -0.59506271285E+03  0.64608313750E+03  0.89511692865E+02 0.  0.
         23    2    1    2    0    0 -0.15121694664E+03 -0.21074125016E+03 -0.22955948483E+01  0.27495665696E+03  0.91200076655E+02 0.  0.
        -11    1    4    4    0    0 -0.33056946370E+02 -0.51184197189E+02 -0.39966658820E+02  0.72869181156E+02  0.00000000000E+00 0. -1.
         11    1    4    4    0    0 -0.11816000027E+03 -0.15955705297E+03  0.37671063972E+02  0.20208747581E+03  0.00000000000E+00 0.  1.
        -13    1    3    3    0    0  0.12463620406E+03  0.12621609584E+03 -0.37117873649E+03  0.41138587802E+03  0.00000000000E+00 0. -1.
         13    1    3    3    0    0  0.46146163430E+01  0.70267161977E+02 -0.22388397637E+03  0.23469725949E+03  0.00000000000E+00 0.  1.
          1    1    1    2  501    0  0.21966126233E+02  0.14257992341E+02  0.41614599544E+02  0.49168851343E+02  0.00000000000E+00 0. -1.
<scales pt_clust_5="13000.00000" pt_clust_6="13000.00000" pt_clust_7="13000.00000" pt_clust_8="13000.00000" pt_clust_9="26.18780"></scales>
<clustering>
<clus scale="   26.188">  1  9  2 -1</clus>
<clus scale="   89.512">  7  8 -1 -1</clus>
<clus scale="   91.200">  5  6 -1 -1</clus>
<clus scale="  255.184">  2  7  1 -1</clus>
<clus scale="   26.188">  1  5  2 -1</clus>
</clustering>
</event>
<event>
 9    1  0.1671478E-005  0.2529356E+03  0.7546771E-02  0.1142985E+00
         21   -1    0    0  501  502  0.00000000000E+00  0.00000000000E+00  0.39677315183E+03  0.39677315183E+03  0.00000000000E+00 0. -1.
          3   -1    0    0  502    0 -0.00000000000E+00 -0.00000000000E+00 -0.44918938975E+03  0.44918938975E+03  0.00000000000E+00 0. -1.
         23    2    1    2    0    0  0.68325393613E+01  0.73695388506E+02  0.10234671714E+03  0.15481249613E+03  0.89522983450E+02 0.  0.
         23    2    1    2    0    0  0.21296681177E+03  0.24707345467E+02 -0.32223133076E+03  0.39782341919E+03  0.92006122080E+02 0.  0.
        -11    1    3    3    0    0 -0.38020727881E+02  0.54814108959E+02  0.67918569363E+02  0.95200285472E+02  0.00000000000E+00 0.  1.
         11    1    3    3    0    0  0.44853267242E+02  0.18881279547E+02  0.34428147780E+02  0.59612210655E+02  0.00000000000E+00 0. -1.
        -11    1    4    4    0    0  0.19178590176E+03  0.44972908711E+02 -0.23980675336E+03  0.31034122122E+03  0.00000000000E+00 0. -1.
         11    1    4    4    0    0  0.21180910011E+02 -0.20265563245E+02 -0.82424577404E+02  0.87482197976E+02  0.00000000000E+00 0.  1.
          3    1    1    2  501    0 -0.21979935113E+03 -0.98402733973E+02  0.16746837570E+03  0.29332662626E+03  0.00000000000E+00 0. -1.
<scales pt_clust_5="13000.00000" pt_clust_6="13000.00000" pt_clust_7="13000.00000" pt_clust_8="13000.00000" pt_clust_9="235.60840"></scales>
<clustering>
<clus scale="   89.523">  5  6 -1 -1</clus>
<clus scale="   92.006">  7  8 -1 -1</clus>
<clus scale="  116.155">  2  5  1 -1</clus>
<clus scale="  235.608">  1  9  2 -1</clus>
<clus scale="  235.608">  1  5  2 -1</clus>
</clustering>
</event>
<event>
 9    1  0.1671478E-005  0.1116160E+03  0.7546771E-02  0.1259104E+00
         21   -1    0    0  501  502  0.00000000000E+00  0.00000000000E+00  0.11649147495E+03  0.11649147495E+03  0.00000000000E+00 0.  1.
         -1   -1    0    0    0  501 -0.00000000000E+00 -0.00000000000E+00 -0.14202171735E+03  0.14202171735E+03  0.00000000000E+00 0.  1.
         23    2    1    2    0    0  0.14824105999E+02  0.72085791811E+02 -0.32304644177E+02  0.12084209026E+03  0.90239155823E+02 0.  0.
         23    2    1    2    0    0 -0.10767334728E+02 -0.44121030656E+02 -0.97255186369E+01  0.10494905087E+03  0.94112255958E+02 0.  0.
        -11    1    3    3    0    0 -0.19216259494E+02  0.73968835491E+02 -0.39455094319E+02  0.86007893362E+02  0.00000000000E+00 0.  1.
         11    1    3    3    0    0  0.34040365493E+02 -0.18830436809E+01  0.71504501414E+01  0.34834196899E+02  0.00000000000E+00 0. -1.
        -13    1    4    4    0    0 -0.46839330368E+02 -0.39103185217E+01  0.88440349553E+01  0.47827088711E+02  0.00000000000E+00 0.  1.
         13    1    4    4    0    0  0.36071995639E+02 -0.40210712135E+02 -0.18569553592E+02  0.57121962155E+02  0.00000000000E+00 0. -1.
         -1    1    1    2    0  502 -0.40567712711E+01 -0.27964761154E+02  0.16499920416E+02  0.32722051178E+02  0.00000000000E+00 0.  1.
<scales pt_clust_5="13000.00000" pt_clust_6="13000.00000" pt_clust_7="13000.00000" pt_clust_8="13000.00000" pt_clust_9="28.25748"></scales>
<clustering>
<clus scale="   28.257">  1  9  2 -1</clus>
<clus scale="   90.239">  5  6 -1 -1</clus>
<clus scale="   94.112">  7  8 -1 -1</clus>
<clus scale="  108.370">  2  5  1 -1</clus>
<clus scale="   28.257">  1  5  2 -1</clus>
</clustering>
</event>
<event>
 9    1  0.1671478E-005  0.1257882E+03  0.7546771E-02  0.1234496E+00
         21   -1    0    0  501  502  0.00000000000E+00  0.00000000000E+00  0.11419804269E+03  0.11419804269E+03  0.00000000000E+00 0. -1.
          2   -1    0    0  502    0 -0.00000000000E+00 -0.00000000000E+00 -0.84999842523E+03  0.84999842523E+03  0.00000000000E+00 0. -1.
         23    2    1    2    0    0 -0.37418907862E+02 -0.46855735387E+02 -0.38633764152E+03  0.40108427366E+03  0.89533159903E+02 0.  0.
         23    2    1    2    0    0  0.61137848111E+02  0.14542549540E+03 -0.40734072985E+03  0.44637125326E+03  0.91839067730E+02 0.  0.
        -11    1    3    3    0    0 -0.50477934632E+01  0.26675788910E+02 -0.85773525943E+02  0.89967636879E+02  0.00000000000E+00 0. -1.
         11    1    3    3    0    0 -0.32371114399E+02 -0.73531524298E+02 -0.30056411557E+03  0.31111663678E+03  0.00000000000E+00 0.  1.
        -11    1    4    4    0    0  0.19813187900E+02  0.81124993554E+02 -0.10311002029E+03  0.13268573125E+03  0.00000000000E+00 0. -1.
         11    1    4    4    0    0  0.41324660211E+02  0.64300501843E+02 -0.30423070956E+03  0.31368552201E+03  0.00000000000E+00 0.  1.
          2    1    1    2  501    0 -0.23718940249E+02 -0.98569760010E+02  0.57877988821E+02  0.11674094100E+03  0.00000000000E+00 0. -1.
<scales pt_clust_5="13000.00000" pt_clust_6="13000.00000" pt_clust_7="13000.00000" pt_clust_8="13000.00000" pt_clust_9="101.38336"></scales>
<clustering>
<clus scale="   89.533">  5  6 -1 -1</clus>
<clus scale="   91.839">  7  8 -1 -1</clus>
<clus scale="  101.383">  1  9  2 -1</clus>
<clus scale="  124.115">  2  5  1 -1</clus>
<clus scale="  101.383">  1  5  2 -1</clus>
</clustering>
</event>
<event>
 9    1  0.1671478E-005  0.9122946E+02  0.7546771E-02  0.1300916E+00
         21   -1    0    0  501  502  0.00000000000E+00  0.00000000000E+00  0.41276790043E+03  0.41276790043E+03  0.00000000000E+00 0.  1.
         -3   -1    0    0    0  501 -0.00000000000E+00 -0.00000000000E+00 -0.53473706634E+02  0.53473706634E+02  0.00000000000E+00 0.  1.
         23    2    1    2    0    0  0.26012490441E+01  0.31289208680E+01  0.15492719153E+02  0.91929718302E+02  0.90523434082E+02 0.  0.
         23    2    1    2    0    0 -0.23829606387E+02 -0.22304283966E+02  0.14294566723E+03  0.17142918108E+03  0.88820994827E+02 0.  0.
        -11    1    3    3    0    0  0.12333991824E+02  0.41290290372E+02  0.27058053853E+02  0.50883727375E+02  0.00000000000E+00 0.  1.
         11    1    3    3    0    0 -0.97327427798E+01 -0.38161369504E+02 -0.11565334699E+02  0.41045990927E+02  0.00000000000E+00 0. -1.
        -13    1    4    4    0    0 -0.54656905971E+02 -0.29843057705E+02  0.85122601150E+02  0.10546962923E+03  0.00000000000E+00 0.  1.
         13    1    4    4    0    0  0.30827299585E+02  0.75387737390E+01  0.57823066085E+02  0.65959551853E+02  0.00000000000E+00 0. -1.
         -3    1    1    2    0  502  0.21228357343E+02  0.19175363098E+02  0.20085580741E+03  0.20288270768E+03  0.00000000000E+00 0.  1.
<scales pt_clust_5="13000.00000" pt_clust_6="13000.00000" pt_clust_7="13000.00000" pt_clust_8="13000.00000" pt_clust_9="28.60660"></scales>
<clustering>
<clus scale="   28.607">  1  9  2 -1</clus>
<clus scale="   88.821">  7  8 -1 -1</clus>
<clus scale="   89.540">  1  7  2 -1</clus>
<clus scale="   90.523">  5  6 -1 -1</clus>
<clus scale="   28.607">  1  5  2 -1</clus>
</clustering>
</event>
<event>
 9    1  0.1671478E-005  0.1057293E+03  0.7546771E-02  0.1268884E+00
          4   -1    0    0  502    0 -0.00000000000E+00  0.00000000000E+00  0.26654708539E+03  0.26654708539E+03  0.00000000000E+00 0. -1.
         21   -1    0    0  501  502  0.00000000000E+00 -0.00000000000E+00 -0.23166106420E+03  0.23166106420E+03  0.00000000000E+00 0. -1.
         23    2    1    2    0    0  0.48975565295E+02  0.35394916656E+02  0.18503200309E+03  0.21485264543E+03  0.90958292425E+02 0.  0.
         23    2    1    2    0    0 -0.50162403310E+02  0.31618981751E+02  0.10322362233E+02  0.10945219586E+03  0.91417751584E+02 0.  0.
        -11    1    3    3    0    0  0.36568697532E+02 -0.14872289198E+02  0.14244001006E+03  0.14780937416E+03  0.00000000000E+00 0. -1.
         11    1    3    3    0    0  0.12406867763E+02  0.50267205853E+02  0.42591993030E+02  0.67043271268E+02  0.00000000000E+00 0.  1.
        -13    1    4    4    0    0 -0.47263042270E+02 -0.23640101477E+02  0.11594363078E+02  0.54102484395E+02  0.00000000000E+00 0.  1.
         13    1    4    4    0    0 -0.28993610396E+01  0.55259083228E+02 -0.12720008450E+01  0.55349711470E+02  0.00000000000E+00 0. -1.
          4    1    1    2  501    0  0.11868380150E+01 -0.67013898406E+02 -0.16046834414E+03  0.17390330829E+03  0.00000000000E+00 0. -1.
<scales pt_clust_5="13000.00000" pt_clust_6="13000.00000" pt_clust_7="13000.00000" pt_clust_8="13000.00000" pt_clust_9="67.02441"></scales>
<clustering>
<clus scale="   67.024">  2  9  1 -1</clus>
<clus scale="   90.958">  5  6 -1 -1</clus>
<clus scale="   91.418">  7  8 -1 -1</clus>
<clus scale="  105.332">  1  5  2 -1</clus>
<clus scale="   67.024">  2  5  1 -1</clus>
</clustering>
</event>
<event>
 9    1  0.1671478E-005  0.9510085E+02  0.7546771E-02  0.1293303E+00
         21   -1    0    0  501  502  0.00000000000E+00  0.00000000000E+00  0.37835093354E+02  0.37835093354E+02  0.00000000000E+00 0. -1.
          2   -1    0    0  502    0 -0.00000000000E+00 -0.00000000000E+00 -0.67018168548E+03  0.67018168548E+03  0.00000000000E+00 0. -1.
         23    2    1    2    0    0  0.32323021689E+02 -0.28244476005E+02 -0.36407146843E+03  0.37777658616E+03  0.91239173427E+02 0.  0.
         23    2    1    2    0    0 -0.19820593075E+02 -0.26592412343E+02 -0.25637776810E+03  0.27275156671E+03  0.86970367720E+02 0.  0.
        -13    1    4    4    0    0  0.16175335589E+02 -0.48104450539E+02 -0.12779362175E+03  0.13750232508E+03  0.00000000000E+00 0. -1.
         13    1    4    4    0    0 -0.35995928663E+02  0.21512038196E+02 -0.12858414635E+03  0.13524924163E+03  0.00000000000E+00 0.  1.
        -13    1    3    3    0    0 -0.13674651649E+02  0.17172023173E+02 -0.28175992056E+02  0.35717796768E+02  0.00000000000E+00 0.  1.
         13    1    3    3    0    0  0.45997673339E+02 -0.45416499178E+02 -0.33589547638E+03  0.34205878939E+03  0.00000000000E+00 0. -1.
          2    1    1    2  501    0 -0.12502428615E+02  0.54836888348E+02 -0.11897355589E+02  0.57488625962E+02  0.00000000000E+00 0. -1.
<scales pt_clust_5="13000.00000" pt_clust_6="13000.00000" pt_clust_7="13000.00000" pt_clust_8="13000.00000" pt_clust_9="56.24407"></scales>
<clustering>
<clus scale="   56.244">  1  9  2 -1</clus>
<clus scale="   86.970">  5  6 -1 -1</clus>
<clus scale="   91.013">  1  5  2 -1</clus>
<clus scale="   91.239">  7  8 -1 -1</clus>
<clus scale="   56.244">  1  5  2 -1</clus>
</clustering>
</event>
<event>
 9    1  0.1671478E-005  0.9241316E+02  0.7546771E-02  0.1300789E+00
         -1   -1    0    0    0  501 -0.00000000000E+00  0.00000000000E+00  0.83485701470E+03  0.83485701470E+03  0.00000000000E+00 0.  1.
         21   -1    0    0  501  502  0.00000000000E+00 -0.00000000000E+00 -0.14447840365E+02  0.14447840365E+02  0.00000000000E+00 0.  1.
         23    2    1    2    0    0 -0.51186838269E+01 -0.40394240464E+01  0.45069239775E+03  0.45873669522E+03  0.85283059732E+02 0.  0.
         23    2    1    2    0    0  0.30090888382E+02  0.56410269162E+01  0.24345054954E+03  0.26184622612E+03  0.91422061400E+02 0.  0.
        -11    1    4    4    0    0  0.52041774612E+02 -0.25593863809E+02  0.13763871745E+03  0.14935798844E+03  0.00000000000E+00 0.  1.
         11    1    4    4    0    0 -0.21950886230E+02  0.31234890725E+02  0.10581183210E+03  0.11248823768E+03  0.00000000000E+00 0. -1.
        -11    1    3    3    0    0  0.36314092730E+02 -0.19015900641E+02  0.24166440372E+03  0.24511630267E+03  0.00000000000E+00 0. -1.
         11    1    3    3    0    0 -0.41432776557E+02  0.14976476595E+02  0.20902799403E+03  0.21362039255E+03  0.00000000000E+00 0.  1.
         -1    1    1    2    0  502 -0.24972204555E+02 -0.16016028698E+01  0.12626622704E+03  0.12872193373E+03  0.00000000000E+00 0.  1.
<scales pt_clust_5="13000.00000" pt_clust_6="13000.00000" pt_clust_7="13000.00000" pt_clust_8="13000.00000" pt_clust_9="25.02352"></scales>
<clustering>
<clus scale="   25.024">  2  9  1 -1</clus>
<clus scale="   85.283">  7  8 -1 -1</clus>
<clus scale="   86.345">  1  7  2 -1</clus>
<clus scale="   91.422">  5  6 -1 -1</clus>
<clus scale="   25.024">  2  5  1 -1</clus>
</clustering>
</event>
<event>
 9    1  0.1671478E-005  0.1289806E+03  0.7546771E-02  0.1244911E+00
         21   -1    0    0  501  502  0.00000000000E+00  0.00000000000E+00  0.19488289721E+03  0.19488289721E+03  0.00000000000E+00 0.  1.
         -3   -1    0    0    0  501 -0.00000000000E+00 -0.00000000000E+00 -0.20639600165E+03  0.20639600165E+03  0.00000000000E+00 0.  1.
         23    2    1    2    0    0 -0.82546760062E+01  0.23089687844E+02 -0.12149428255E+03  0.15310349051E+03  0.89880725150E+02 0.  0.
         23    2    1    2    0    0  0.12122521076E+02  0.75379425528E+02  0.35381299130E+02  0.12457820589E+03  0.91863375420E+02 0.  0.
        -11    1    4    4    0    0  0.26420998033E+02  0.13052494694E+02 -0.23469531939E+02  0.37673010024E+02  0.00000000000E+00 0. -1.
         11    1    4    4    0    0 -0.14298476957E+02  0.62326930833E+02  0.58850831069E+02  0.86905195862E+02  0.00000000000E+00 0.  1.
        -11    1    3    3    0    0 -0.45736583643E+02  0.26234981799E+02 -0.88763582048E+02  0.10324283438E+03  0.00000000000E+00 0. -1.
         11    1    3    3    0    0  0.37481907637E+02 -0.31452939554E+01 -0.32730700502E+02  0.49860656128E+02  0.00000000000E+00 0.  1.
         -3    1    1    2    0  502 -0.38678450699E+01 -0.98469113371E+02  0.74599878981E+02  0.12359720247E+03  0.00000000000E+00 0.  1.
<scales pt_clust_5="13000.00000" pt_clust_6="13000.00000" pt_clust_7="13000.00000" pt_clust_8="13000.00000" pt_clust_9="90.53789"></scales>
<clustering>
<clus scale="   89.881">  7  8 -1 -1</clus>
<clus scale="   91.863">  5  6 -1 -1</clus>
<clus scale="   93.166">  2  7  1 -1</clus>
<clus scale="   90.538">  1  9  2 -1</clus>
<clus scale="   90.538">  1  5  2 -1</clus>
</clustering>
</event>
<event>
 9    1  0.1671478E-005  0.1195904E+03  0.7546771E-02  0.1244128E+00
         -3   -1    0    0    0  501 -0.00000000000E+00  0.00000000000E+00  0.29239504840E+03  0.29239504840E+03  0.00000000000E+00 0.  1.
         21   -1    0    0  501  502  0.00000000000E+00 -0.00000000000E+00 -0.94098847797E+02  0.94098847797E+02  0.00000000000E+00 0.  1.
         23    2    1    2    0    0  0.44296456660E+02 -0.56751887125E+02  0.18071690164E+03  0.21501696408E+03  0.91601001848E+02 0.  0.
         23    2    1    2    0    0 -0.43016815961E+02  0.79882316619E+02  0.44789339170E+02  0.13574122817E+03  0.90487375679E+02 0.  0.
        -11    1    4    4    0    0 -0.20008543073E+02  0.67809759904E+02  0.70033094165E+02  0.99514519607E+02  0.00000000000E+00 0.  1.
         11    1    4    4    0    0 -0.23008272887E+02  0.12072556715E+02 -0.25243754995E+02  0.36226708561E+02  0.00000000000E+00 0. -1.
        -13    1    3    3    0    0 -0.10493985139E+02 -0.59724478305E+02  0.80785110602E+02  0.10101173757E+03  0.00000000000E+00 0.  1.
         13    1    3    3    0    0  0.54790441799E+02  0.29725911796E+01  0.99931791035E+02  0.11400522650E+03  0.00000000000E+00 0. -1.
         -3    1    1    2    0  502 -0.12796406996E+01 -0.23130429494E+02 -0.27210040204E+02  0.35735703950E+02  0.00000000000E+00 0.  1.
<scales pt_clust_5="13000.00000" pt_clust_6="13000.00000" pt_clust_7="13000.00000" pt_clust_8="13000.00000" pt_clust_9="23.16580"></scales>
<clustering>
<clus scale="   23.166">  2  9  1 -1</clus>
<clus scale="   90.487">  5  6 -1 -1</clus>
<clus scale="   91.601">  7  8 -1 -1</clus>
<clus scale="  118.740">  2  5  1 -1</clus>
<clus scale="   23.166">  2  5  1 -1</clus>
</clustering>
</event>
<event>
 9    1  0.1671478E-005  0.9714965E+02  0.7546771E-02  0.1288398E+00
         21   -1    0    0  501  502  0.00000000000E+00  0.00000000000E+00  0.84292298929E+02  0.84292298929E+02  0.00000000000E+00 0.  1.
         -1   -1    0    0    0  501 -0.00000000000E+00 -0.00000000000E+00 -0.46746853558E+03  0.46746853558E+03  0.00000000000E+00 0.  1.
         23    2    1    2    0    0  0.11870382124E+02 -0.24353840188E+02 -0.21786037814E+03  0.23778736454E+03  0.91354643391E+02 0.  0.
         23    2    1    2    0    0 -0.29908630304E+02 -0.25132236521E+02 -0.21705754673E+03  0.24013951785E+03  0.95009757192E+02 0.  0.
        -11    1    3    3    0    0 -0.39261692795E+02 -0.94399561604E+01 -0.11624663155E+03  0.12306044304E+03  0.00000000000E+00 0. -1.
         11    1    3    3    0    0  0.51132074919E+02 -0.14913884028E+02 -0.10161374658E+03  0.11472692150E+03  0.00000000000E+00 0.  1.
        -13    1    4    4    0    0 -0.14713847650E+02  0.21742880468E+02 -0.11332017479E+02  0.28594838412E+02  0.00000000000E+00 0. -1.
         13    1    4    4    0    0 -0.15194782654E+02 -0.46875116989E+02 -0.20572552925E+03  0.21154467944E+03  0.00000000000E+00 0.  1.
         -1    1    1    2    0  502  0.18038248180E+02  0.49486076709E+02  0.51741688218E+02  0.73833952117E+02  0.00000000000E+00 0.  1.
<scales pt_clust_5="13000.00000" pt_clust_6="13000.00000" pt_clust_7="13000.00000" pt_clust_8="13000.00000" pt_clust_9="52.67115"></scales>
<clustering>
<clus scale="   52.671">  1  9  2 -1</clus>
<clus scale="   91.355">  5  6 -1 -1</clus>
<clus scale="   93.578">  2  5  1 -1</clus>
<clus scale="   95.010">  7  8 -1 -1</clus>
<clus scale="   52.671">  1  5  2 -1</clus>
</clustering>
</event>
<event>
 9    1  0.1671478E-005  0.1296111E+03  0.7546771E-02  0.1228575E+00
         21   -1    0    0  501  502  0.00000000000E+00  0.00000000000E+00  0.54953170807E+02  0.54953170807E+02  0.00000000000E+00 0.  1.
         -1   -1    0    0    0  501 -0.00000000000E+00 -0.00000000000E+00 -0.70131103964E+03  0.70131103964E+03  0.00000000000E+00 0.  1.
         23    2    1    2    0    0  0.80078023553E+02  0.64489082356E+02 -0.53216862826E+03  0.54974932929E+03  0.91921404206E+02 0.  0.
         23    2    1    2    0    0 -0.43960742178E+02 -0.46951909024E+02 -0.12305316634E+03  0.16539822222E+03  0.89874699172E+02 0.  0.
        -13    1    4    4    0    0 -0.27163649616E+02 -0.73470174426E+02 -0.78490079631E+02  0.11088923749E+03  0.00000000000E+00 0.  1.
         13    1    4    4    0    0 -0.16797092562E+02  0.26518265402E+02 -0.44563086713E+02  0.54508984726E+02  0.00000000000E+00 0. -1.
        -13    1    3    3    0    0  0.99215969971E+02  0.42998829985E+02 -0.44518472753E+03  0.45812896623E+03  0.00000000000E+00 0.  1.
         13    1    3    3    0    0 -0.19137946419E+02  0.21490252372E+02 -0.86983900732E+02  0.91620363057E+02  0.00000000000E+00 0. -1.
         -1    1    1    2    0  502 -0.36117281375E+02 -0.17537173333E+02  0.88639257709E+01  0.41116658941E+02  0.00000000000E+00 0.  1.
<scales pt_clust_5="13000.00000" pt_clust_6="13000.00000" pt_clust_7="13000.00000" pt_clust_8="13000.00000" pt_clust_9="40.14985"></scales>
<clustering>
<clus scale="   40.150">  1  9  2 -1</clus>
<clus scale="   89.875">  5  6 -1 -1</clus>
<clus scale="   91.921">  7  8 -1 -1</clus>
<clus scale="  128.168">  1  5  2 -1</clus>
<clus scale="   40.150">  1  5  2 -1</clus>
</clustering>
</event>
<event>
 9    1  0.1671478E-005  0.1652024E+03  0.7546771E-02  0.1194095E+00
         21   -1    0    0  501  502  0.00000000000E+00  0.00000000000E+00  0.15351291525E+03  0.15351291525E+03  0.00000000000E+00 0.  1.
         -3   -1    0    0    0  501 -0.00000000000E+00 -0.00000000000E+00 -0.33448238304E+03  0.33448238304E+03  0.00000000000E+00 0.  1.
         23    2    1    2    0    0  0.72805353267E+02  0.55697171706E+02 -0.74453196392E+02  0.14898578037E+03  0.90833308318E+02 0.  0.
         23    2    1    2    0    0  0.63715224779E+02 -0.20790162948E+02 -0.14222908838E+03  0.19364180215E+03  0.11303173544E+03 0.  0.
        -11    1    4    4    0    0  0.33145925366E+01 -0.35026236408E+02 -0.12410206968E+03  0.12899281941E+03  0.00000000000E+00 0. -1.
         11    1    4    4    0    0  0.60400632242E+02  0.14236073460E+02 -0.18127018697E+02  0.64648982742E+02  0.00000000000E+00 0.  1.
        -11    1    3    3    0    0  0.16410989577E+02  0.68994750754E+02 -0.36967934638E+02  0.79976399030E+02  0.00000000000E+00 0.  1.
         11    1    3    3    0    0  0.56394363690E+02 -0.13297579047E+02 -0.37485261755E+02  0.69009381343E+02  0.00000000000E+00 0. -1.
         -3    1    1    2    0  502 -0.13652057805E+03 -0.34907008759E+02  0.35712816975E+02  0.14536771577E+03  0.00000000000E+00 0.  1.
<scales pt_clust_5="13000.00000" pt_clust_6="13000.00000" pt_clust_7="13000.00000" pt_clust_8="13000.00000" pt_clust_9="120.48098"></scales>
<clustering>
<clus scale="   90.833">  7  8 -1 -1</clus>
<clus scale="  113.032">  5  6 -1 -1</clus>
<clus scale="  129.048">  2  7  1 -1</clus>
<clus scale="  120.481">  1  9  2 -1</clus>
<clus scale="  120.481">  1  5  2 -1</clus>
</clustering>
</event>
<event>
 9    1  0.1671478E-005  0.2723896E+03  0.7546771E-02  0.1100149E+00
         21   -1    0    0  501  502  0.00000000000E+00  0.00000000000E+00  0.72327216060E+02  0.72327216060E+02  0.00000000000E+00 0. -1.
         -3   -1    0    0    0  501 -0.00000000000E+00 -0.00000000000E+00 -0.16252178543E+04  0.16252178543E+04  0.00000000000E+00 0.  1.
         23    2    1    2    0    0 -0.50116339757E+01  0.23325941183E+03 -0.65399759937E+03  0.70073107746E+03  0.94213126756E+02 0.  0.
         23    2    1    2    0    0  0.73744191302E+02 -0.27353983355E+03 -0.85651934451E+03  0.90657981542E+03  0.89438961877E+02 0.  0.
        -11    1    3    3    0    0 -0.24766615008E+02  0.22184090117E+03 -0.53728927321E+03  0.58181314333E+03  0.00000000000E+00 0. -1.
         11    1    3    3    0    0  0.19754981032E+02  0.11418510660E+02 -0.11670832617E+03  0.11891793413E+03  0.00000000000E+00 0.  1.
        -13    1    4    4    0    0  0.25083770913E+01 -0.49585497414E+02 -0.70845915966E+02  0.86511024260E+02  0.00000000000E+00 0. -1.
         13    1    4    4    0    0  0.71235814210E+02 -0.22395433614E+03 -0.78567342855E+03  0.82006879116E+03  0.00000000000E+00 0.  1.
         -3    1    1    2    0  502 -0.68732557326E+02  0.40280421725E+02 -0.42373694333E+02  0.90234177463E+02  0.00000000000E+00 0.  1.
<scales pt_clust_5="13000.00000" pt_clust_6="13000.00000" pt_clust_7="13000.00000" pt_clust_8="13000.00000" pt_clust_9="79.66603"></scales>
<clustering>
<clus scale="   79.666">  1  9  2 -1</clus>
<clus scale="   89.439">  7  8 -1 -1</clus>
<clus scale="   94.213">  5  6 -1 -1</clus>
<clus scale="  270.775">  1  7  2 -1</clus>
<clus scale="   79.666">  1  5  2 -1</clus>
</clustering>
</event>
<event>
 9    1  0.1671478E-005  0.1135660E+03  0.7546771E-02  0.1263490E+00
         21   -1    0    0  501  502  0.00000000000E+00  0.00000000000E+00  0.31314734338E+03  0.31314734338E+03  0.00000000000E+00 0.  1.
         -1   -1    0    0    0  501 -0.00000000000E+00 -0.00000000000E+00 -0.70974198351E+02  0.70974198351E+02  0.00000000000E+00 0.  1.
         23    2    1    2    0    0  0.27786083056E+01  0.16318527004E+02  0.45852071999E+02  0.10591155601E+03  0.94025689052E+02 0.  0.
         23    2    1    2    0    0  0.16517906086E+02  0.38205724285E+02  0.70536373036E+02  0.13976490564E+03  0.11325338997E+03 0.  0.
        -11    1    4    4    0    0 -0.35077895330E+02  0.34953067979E+02 -0.32994616138E+01  0.49629246910E+02  0.00000000000E+00 0.  1.
         11    1    4    4    0    0  0.51595801415E+02  0.32526563057E+01  0.73835834650E+02  0.90135658733E+02  0.00000000000E+00 0. -1.
        -13    1    3    3    0    0  0.36863351882E+02 -0.22937371258E+02  0.22835202797E+02  0.49055847755E+02  0.00000000000E+00 0.  1.
         13    1    3    3    0    0 -0.34084743577E+02  0.39255898262E+02  0.23016869202E+02  0.56855708252E+02  0.00000000000E+00 0. -1.
         -1    1    1    2    0  502 -0.19296514391E+02 -0.54524251289E+02  0.12578470000E+03  0.13844508008E+03  0.00000000000E+00 0.  1.
<scales pt_clust_5="13000.00000" pt_clust_6="13000.00000" pt_clust_7="13000.00000" pt_clust_8="13000.00000" pt_clust_9="57.83813"></scales>
<clustering>
<clus scale="   57.838">  1  9  2 -1</clus>
<clus scale="   94.026">  7  8 -1 -1</clus>
<clus scale="   94.402">  2  7  1 -1</clus>
<clus scale="  113.253">  5  6 -1 -1</clus>
<clus scale="   57.838">  1  5  2 -1</clus>
</clustering>
</event>
<event>
 9    1  0.1671478E-005  0.9806557E+02  0.7546771E-02  0.1286366E+00
         21   -1    0    0  501  502  0.00000000000E+00  0.00000000000E+00  0.58341177179E+02  0.58341177179E+02  0.00000000000E+00 0.  1.
          1   -1    0    0  502    0 -0.00000000000E+00 -0.00000000000E+00 -0.40533364933E+03  0.40533364933E+03  0.00000000000E+00 0. -1.
         23    2    1    2    0    0 -0.24256156776E+02 -0.11675546013E+02 -0.31151436536E+03  0.32622608629E+03  0.93046117777E+02 0.  0.
         23    2    1    2    0    0  0.42859956466E+02  0.23510993720E+02 -0.47486860584E+02  0.11234118452E+03  0.89307318384E+02 0.  0.
        -11    1    3    3    0    0  0.31943335045E+02 -0.18676694686E+02 -0.84364310077E+02  0.92122377265E+02  0.00000000000E+00 0.  1.
         11    1    3    3    0    0 -0.56199491821E+02  0.70011486732E+01 -0.22715005528E+03  0.23410370902E+03  0.00000000000E+00 0. -1.
        -13    1    4    4    0    0 -0.40178182898E+00  0.37676893198E+02 -0.54526023482E+02  0.66278178509E+02  0.00000000000E+00 0. -1.
         13    1    4    4    0    0  0.43261738295E+02 -0.14165899478E+02  0.70391628979E+01  0.46063006010E+02  0.00000000000E+00 0.  1.
          1    1    1    2  501    0 -0.18603799690E+02 -0.11835447708E+02  0.12008753797E+02  0.25107555698E+02  0.00000000000E+00 0. -1.
<scales pt_clust_5="13000.00000" pt_clust_6="13000.00000" pt_clust_7="13000.00000" pt_clust_8="13000.00000" pt_clust_9="22.04947"></scales>
<clustering>
<clus scale="   22.049">  1  9  2 -1</clus>
<clus scale="   89.307">  7  8 -1 -1</clus>
<clus scale="   93.046">  5  6 -1 -1</clus>
<clus scale="   94.526">  1  7  2 -1</clus>
<clus scale="   22.049">  1  5  2 -1</clus>
</clustering>
</event>
<event>
 9    1  0.1671478E-005  0.9180937E+02  0.7546771E-02  0.1298690E+00
         -2   -1    0    0    0  501 -0.00000000000E+00  0.00000000000E+00  0.38327273603E+03  0.38327273603E+03  0.00000000000E+00 0.  1.
         21   -1    0    0  501  502  0.00000000000E+00 -0.00000000000E+00 -0.16644518831E+03  0.16644518831E+03  0.00000000000E+00 0.  1.
         23    2    1    2    0    0  0.12645545770E+02 -0.47640414600E+02  0.24905297162E+03  0.26706757663E+03  0.82874537012E+02 0.  0.
         23    2    1    2    0    0 -0.21256636074E+02  0.16753814344E+02  0.10810774714E+03  0.13870059312E+03  0.82571391349E+02 0.  0.
        -11    1    4    4    0    0 -0.38959492181E+02 -0.28528195378E+01  0.10508653838E+03  0.11211227033E+03  0.00000000000E+00 0.  1.
         11    1    4    4    0    0  0.17702856107E+02  0.19606633882E+02  0.30212087583E+01  0.26588322792E+02  0.00000000000E+00 0. -1.
        -11    1    3    3    0    0  0.36950562201E+02  0.54562092085E+01  0.82110831068E+02  0.90206999976E+02  0.00000000000E+00 0. -1.
         11    1    3    3    0    0 -0.24305016431E+02 -0.53096623808E+02  0.16694214055E+03  0.17686057666E+03  0.00000000000E+00 0.  1.
         -2    1    1    2    0  502  0.86110903041E+01  0.30886600256E+02 -0.14033317103E+03  0.14394975458E+03  0.00000000000E+00 0.  1.
<scales pt_clust_5="13000.00000" pt_clust_6="13000.00000" pt_clust_7="13000.00000" pt_clust_8="13000.00000" pt_clust_9="32.06451"></scales>
<clustering>
<clus scale="   32.065">  2  9  1 -1</clus>
<clus scale="   82.571">  5  6 -1 -1</clus>
<clus scale="   82.875">  7  8 -1 -1</clus>
<clus scale="   91.536">  2  5  1 -1</clus>
<clus scale="   32.065">  2  5  1 -1</clus>
</clustering>
</event>
<event>
 9    1  0.1671478E-005  0.2426836E+03  0.7546771E-02  0.1118080E+00
         21   -1    0    0  501  502  0.00000000000E+00  0.00000000000E+00  0.25613069161E+03  0.25613069161E+03  0.00000000000E+00 0.  1.
          2   -1    0    0  502    0 -0.00000000000E+00 -0.00000000000E+00 -0.47983048947E+03  0.47983048947E+03  0.00000000000E+00 0. -1.
         23    2    1    2    0    0  0.19783462790E+03 -0.11280339587E+03 -0.27664290557E+03  0.36984094038E+03  0.91585358337E+02 0.  0.
         23    2    1    2    0    0 -0.20158926856E+03  0.87491138105E+02 -0.64204448400E+02  0.24621045120E+03  0.90578378437E+02 0.  0.
        -11    1    4    4    0    0 -0.15958452112E+03  0.10208547939E+03 -0.34040027534E+02  0.19247698033E+03  0.00000000000E+00 0.  1.
         11    1    4    4    0    0 -0.42004747435E+02 -0.14594341288E+02 -0.30164420866E+02  0.53733470862E+02  0.00000000000E+00 0. -1.
        -11    1    3    3    0    0  0.30716862979E+02 -0.62932782081E+02 -0.95082675881E+02  0.11808800102E+03  0.00000000000E+00 0.  1.
         11    1    3    3    0    0  0.16711776492E+03 -0.49870613785E+02 -0.18156022969E+03  0.25175293936E+03  0.00000000000E+00 0. -1.
          2    1    1    2  501    0  0.37546406579E+01  0.25312257761E+02  0.11714755611E+03  0.11990978952E+03  0.00000000000E+00 0. -1.
<scales pt_clust_5="13000.00000" pt_clust_6="13000.00000" pt_clust_7="13000.00000" pt_clust_8="13000.00000" pt_clust_9="25.58921"></scales>
<clustering>
<clus scale="   25.589">  1  9  2 -1</clus>
<clus scale="   90.578">  5  6 -1 -1</clus>
<clus scale="   91.585">  7  8 -1 -1</clus>
<clus scale="  242.305">  1  5  2 -1</clus>
<clus scale="   25.589">  1  5  2 -1</clus>
</clustering>
</event>
<event>
 9    1  0.1671478E-005  0.1133638E+03  0.7546771E-02  0.1255133E+00
         21   -1    0    0  501  502  0.00000000000E+00  0.00000000000E+00  0.15756035921E+03  0.15756035921E+03  0.00000000000E+00 0. -1.
         -4   -1    0    0    0  501 -0.00000000000E+00 -0.00000000000E+00 -0.15924438908E+03  0.15924438908E+03  0.00000000000E+00 0.  1.
         23    2    1    2    0    0 -0.76676814480E+02  0.99628282217E+01 -0.82548680526E+02  0.14555542635E+03  0.91616077507E+02 0.  0.
         23    2    1    2    0    0  0.28758460451E+02 -0.22460954423E+02  0.44099800147E+02  0.10957253502E+03  0.93433423015E+02 0.  0.
        -13    1    3    3    0    0 -0.24820084519E+02 -0.29485109234E+02 -0.68957810725E+02  0.78997391869E+02  0.00000000000E+00 0.  1.
         13    1    3    3    0    0 -0.51856729961E+02  0.39447937456E+02 -0.13590869801E+02  0.66558034479E+02  0.00000000000E+00 0. -1.
        -13    1    4    4    0    0 -0.14002560189E+02  0.22527823888E+02  0.39173385811E+02  0.47308864887E+02  0.00000000000E+00 0. -1.
         13    1    4    4    0    0  0.42761020640E+02 -0.44988778310E+02  0.49264143354E+01  0.62263670132E+02  0.00000000000E+00 0.  1.
         -4    1    1    2    0  502  0.47918354029E+02  0.12498126201E+02  0.36764850510E+02  0.61676786917E+02  0.00000000000E+00 0.  1.
<scales pt_clust_5="13000.00000" pt_clust_6="13000.00000" pt_clust_7="13000.00000" pt_clust_8="13000.00000" pt_clust_9="49.52143"></scales>
<clustering>
<clus scale="   49.521">  1  9  2 -1</clus>
<clus scale="   91.616">  5  6 -1 -1</clus>
<clus scale="   93.433">  7  8 -1 -1</clus>
<clus scale="  111.871">  2  5  1 -1</clus>
<clus scale="   49.521">  1  5  2 -1</clus>
</clustering>
</event>
<event>
 9    1  0.1671478E-005  0.1085530E+03  0.7546771E-02  0.1264197E+00
         21   -1    0    0  501  502  0.00000000000E+00  0.00000000000E+00  0.31567253580E+02  0.31567253580E+02  0.00000000000E+00 0. -1.
          1   -1    0    0  502    0 -0.00000000000E+00 -0.00000000000E+00 -0.50781460221E+03  0.50781460221E+03  0.00000000000E+00 0. -1.
         23    2    1    2    0    0 -0.19669623528E+02  0.55998702957E+02 -0.24157988465E+03  0.26462751966E+03  0.90244859540E+02 0.  0.
         23    2    1    2    0    0  0.36739673793E+02 -0.42405851809E+02 -0.22726408935E+03  0.25171171965E+03  0.92529798451E+02 0.  0.
        -13    1    3    3    0    0 -0.26149308532E+02  0.78735246512E+02 -0.16847253283E+03  0.18779249106E+03  0.00000000000E+00 0. -1.
         13    1    3    3    0    0  0.64796850040E+01 -0.22736543555E+02 -0.73107351820E+02  0.76835028604E+02  0.00000000000E+00 0.  1.
        -13    1    4    4    0    0  0.74939423977E+01 -0.64565952010E+02 -0.10003903546E+03  0.11930100564E+03  0.00000000000E+00 0.  1.
         13    1    4    4    0    0  0.29245731395E+02  0.22160100201E+02 -0.12722505389E+03  0.13241071400E+03  0.00000000000E+00 0. -1.
          1    1    1    2  501    0 -0.17070050264E+02 -0.13592851148E+02 -0.74033746321E+01  0.23042616481E+02  0.00000000000E+00 0. -1.
<scales pt_clust_5="13000.00000" pt_clust_6="13000.00000" pt_clust_7="13000.00000" pt_clust_8="13000.00000" pt_clust_9="21.82091"></scales>
<clustering>
<clus scale="   21.821">  1  9  2 -1</clus>
<clus scale="   90.245">  5  6 -1 -1</clus>
<clus scale="   92.530">  7  8 -1 -1</clus>
<clus scale="  106.612">  2  5  1 -1</clus>
<clus scale="   21.821">  1  5  2 -1</clus>
</clustering>
</event>
<event>
 9    1  0.1671478E-005  0.1979854E+03  0.7546771E-02  0.1151554E+00
         21   -1    0    0  501  502  0.00000000000E+00  0.00000000000E+00  0.60659488776E+03  0.60659488776E+03  0.00000000000E+00 0.  1.
         -1   -1    0    0    0  501 -0.00000000000E+00 -0.00000000000E+00 -0.14638694861E+03  0.14638694861E+03  0.00000000000E+00 0.  1.
         23    2    1    2    0    0  0.97054633242E+02 -0.15592168042E+03 -0.38199133259E+02  0.20846286026E+03  0.90919844187E+02 0.  0.
         23    2    1    2    0    0 -0.90993976899E+02  0.10693729655E+03  0.35103794920E+03  0.38910385493E+03  0.91971076538E+02 0.  0.
        -11    1    3    3    0    0  0.88769604573E+02 -0.83818578770E+02 -0.55095604298E+02  0.13394447527E+03  0.00000000000E+00 0.  1.
         11    1    3    3    0    0  0.82850286699E+01 -0.72103101647E+02  0.16896471039E+02  0.74518384985E+02  0.00000000000E+00 0. -1.
        -13    1    4    4    0    0 -0.52193359394E+02 -0.12347163176E+01  0.12696070732E+03  0.13727597201E+03  0.00000000000E+00 0.  1.
         13    1    4    4    0    0 -0.38800617506E+02  0.10817201287E+03  0.22407724188E+03  0.25182788292E+03  0.00000000000E+00 0. -1.
         -1    1    1    2    0  502 -0.60606563432E+01  0.48984383865E+02  0.14736912320E+03  0.15541512118E+03  0.00000000000E+00 0.  1.
<scales pt_clust_5="13000.00000" pt_clust_6="13000.00000" pt_clust_7="13000.00000" pt_clust_8="13000.00000" pt_clust_9="49.35789"></scales>
<clustering>
<clus scale="   49.358">  1  9  2 -1</clus>
<clus scale="   90.920">  5  6 -1 -1</clus>
<clus scale="   91.971">  7  8 -1 -1</clus>
<clus scale="  197.499">  2  5  1 -1</clus>
<clus scale="   49.358">  1  5  2 -1</clus>
</clustering>
</event>
<event>
 9    1  0.1671478E-005  0.1197487E+03  0.7546771E-02  0.1243536E+00
          1   -1    0    0  502    0 -0.00000000000E+00  0.00000000000E+00  0.28263797782E+03  0.28263797782E+03  0.00000000000E+00 0. -1.
         21   -1    0    0  501  502  0.00000000000E+00 -0.00000000000E+00 -0.80625184713E+02  0.80625184713E+02  0.00000000000E+00 0. -1.
         23    2    1    2    0    0  0.64518049548E+02 -0.53647087242E+02  0.14711106898E+03  0.19223361162E+03  0.90947820925E+02 0.  0.
         23    2    1    2    0    0 -0.40194307473E+02  0.58631709001E+02  0.76160366891E+02  0.13834284453E+03  0.91022423022E+02 0.  0.
        -11    1    3    3    0    0  0.28740223188E+02  0.22902723613E+02  0.63459052857E+02  0.73332029614E+02  0.00000000000E+00 0.  1.
         11    1    3    3    0    0  0.35777826361E+02 -0.76549810855E+02  0.83652016128E+02  0.11890158200E+03  0.00000000000E+00 0. -1.
        -13    1    4    4    0    0  0.96435091071E+01  0.39618058563E+02 -0.51484170113E+01  0.41098589147E+02  0.00000000000E+00 0. -1.
         13    1    4    4    0    0 -0.49837816580E+02  0.19013650439E+02  0.81308783903E+02  0.97244255379E+02  0.00000000000E+00 0.  1.
          1    1    1    2  501    0 -0.24323742076E+02 -0.49846217595E+01 -0.21258642765E+02  0.32686706393E+02  0.00000000000E+00 0. -1.
<scales pt_clust_5="13000.00000" pt_clust_6="13000.00000" pt_clust_7="13000.00000" pt_clust_8="13000.00000" pt_clust_9="24.82923"></scales>
<clustering>
<clus scale="   24.829">  2  9  1 -1</clus>
<clus scale="   90.948">  5  6 -1 -1</clus>
<clus scale="   91.022">  7  8 -1 -1</clus>
<clus scale="  119.692">  1  5  2 -1</clus>
<clus scale="   24.829">  2  5  1 -1</clus>
</clustering>
</event>
<event>
 9    1  0.1671478E-005  0.9981311E+02  0.7546771E-02  0.1282630E+00
          1   -1    0    0  502    0 -0.00000000000E+00  0.00000000000E+00  0.98257649670E+02  0.98257649670E+02  0.00000000000E+00 0. -1.
         21   -1    0    0  501  502  0.00000000000E+00 -0.00000000000E+00 -0.39046429130E+03  0.39046429130E+03  0.00000000000E+00 0. -1.
         23    2    1    2    0    0 -0.16134116579E+02 -0.37721794284E+02  0.38694482191E+02  0.10645803178E+03  0.90292890619E+02 0.  0.
         23    2    1    2    0    0 -0.54500604280E+02 -0.23512135473E+01 -0.21183681207E+03  0.23814097528E+03  0.94129937243E+02 0.  0.
        -13    1    4    4    0    0 -0.68259937791E+02 -0.24348096637E+02 -0.19276926676E+03  0.20594231989E+03  0.00000000000E+00 0. -1.
         13    1    4    4    0    0  0.13759333511E+02  0.21996883089E+02 -0.19067545319E+02  0.32198655388E+02  0.00000000000E+00 0.  1.
        -13    1    3    3    0    0  0.24352430348E+02 -0.37173067328E+01 -0.16793042064E+02  0.29813847369E+02  0.00000000000E+00 0.  1.
         13    1    3    3    0    0 -0.40486546927E+02 -0.34004487551E+02  0.55487524256E+02  0.76644184409E+02  0.00000000000E+00 0. -1.
          1    1    1    2  501    0  0.70634720859E+02  0.40073007831E+02 -0.11906431175E+03  0.14412293391E+03  0.00000000000E+00 0. -1.
<scales pt_clust_5="13000.00000" pt_clust_6="13000.00000" pt_clust_7="13000.00000" pt_clust_8="13000.00000" pt_clust_9="81.21028"></scales>
<clustering>
<clus scale="   81.210">  2  9  1 -1</clus>
<clus scale="   90.293">  7  8 -1 -1</clus>
<clus scale="   94.130">  5  6 -1 -1</clus>
<clus scale="   96.203">  1  7  2 -1</clus>
<clus scale="   81.210">  2  5  1 -1</clus>
</clustering>
</event>
<event>
 9    1  0.1671478E-005  0.1255895E+03  0.7546771E-02  0.1244596E+00
         21   -1    0    0  501  502  0.00000000000E+00  0.00000000000E+00  0.33843148534E+02  0.33843148534E+02  0.00000000000E+00 0.  1.
          1   -1    0    0  502    0 -0.00000000000E+00 -0.00000000000E+00 -0.72209438103E+03  0.72209438103E+03  0.00000000000E+00 0. -1.
         23    2    1    2    0    0 -0.55127170085E+01 -0.49320753999E+02 -0.49593536892E+03  0.50675729642E+03  0.91586792236E+02 0.  0.
         23    2    1    2    0    0 -0.60136408034E+01  0.25662528781E+02 -0.18672302179E+03  0.22227580183E+03  0.11767036991E+03 0.  0.
        -11    1    3    3    0    0  0.32837052709E+02  0.64151656359E+01 -0.11140736535E+03  0.11632294457E+03  0.00000000000E+00 0.  1.
         11    1    3    3    0    0 -0.38349769718E+02 -0.55735919635E+02 -0.38452800357E+03  0.39043435185E+03  0.00000000000E+00 0. -1.
        -11    1    4    4    0    0 -0.62989403523E+01 -0.46487775024E+02 -0.91284696612E+02  0.10263374548E+03  0.00000000000E+00 0. -1.
         11    1    4    4    0    0  0.28529954898E+00  0.72150303805E+02 -0.95438325175E+02  0.11964205635E+03  0.00000000000E+00 0.  1.
          1    1    1    2  501    0  0.11526357812E+02  0.23658225219E+02 -0.55928417946E+01  0.26904431312E+02  0.00000000000E+00 0. -1.
<scales pt_clust_5="13000.00000" pt_clust_6="13000.00000" pt_clust_7="13000.00000" pt_clust_8="13000.00000" pt_clust_9="26.31670"></scales>
<clustering>
<clus scale="   26.317">  1  9  2 -1</clus>
<clus scale="   91.587">  5  6 -1 -1</clus>
<clus scale="  101.561">  2  5  1 -1</clus>
<clus scale="  117.670">  7  8 -1 -1</clus>
<clus scale="   26.317">  1  5  2 -1</clus>
</clustering>
</event>
<event>
 9    1  0.1671478E-005  0.1293679E+03  0.7546771E-02  0.1229087E+00
         21   -1    0    0  501  502  0.00000000000E+00  0.00000000000E+00  0.59772317908E+03  0.59772317908E+03  0.00000000000E+00 0. -1.
          1   -1    0    0  502    0 -0.00000000000E+00 -0.00000000000E+00 -0.11326893746E+03  0.11326893746E+03  0.00000000000E+00 0. -1.
         23    2    1    2    0    0 -0.56117076483E+02  0.67845560055E+02 -0.49371643658E+02  0.13626129930E+03  0.91528335487E+02 0.  0.
         23    2    1    2    0    0  0.84405593407E+02 -0.99153423365E+02  0.48606869234E+03  0.51100349209E+03  0.88916194740E+02 0.  0.
        -11    1    4    4    0    0 -0.50917487591E+01 -0.31085436453E+02  0.39636116710E+02  0.50628569136E+02  0.00000000000E+00 0.  1.
         11    1    4    4    0    0  0.89497342166E+02 -0.68067986912E+02  0.44643257563E+03  0.46037492295E+03  0.00000000000E+00 0. -1.
        -11    1    3    3    0    0  0.11895659291E+02  0.49428327251E+02 -0.11026546408E+01  0.50851569219E+02  0.00000000000E+00 0.  1.
         11    1    3    3    0    0 -0.68012735774E+02  0.18417232804E+02 -0.48268989017E+02  0.85409730081E+02  0.00000000000E+00 0. -1.
          1    1    1    2  501    0 -0.28288516923E+02  0.31307863311E+02  0.47757192930E+02  0.63727325155E+02  0.00000000000E+00 0. -1.
<scales pt_clust_5="13000.00000" pt_clust_6="13000.00000" pt_clust_7="13000.00000" pt_clust_8="13000.00000" pt_clust_9="42.19505"></scales>
<clustering>
<clus scale="   42.195">  1  9  2 -1</clus>
<clus scale="   88.916">  5  6 -1 -1</clus>
<clus scale="   91.528">  7  8 -1 -1</clus>
<clus scale="  127.533">  1  5  2 -1</clus>
<clus scale="   42.195">  1  5  2 -1</clus>
</clustering>
</event>
<event>
 9    1  0.1671478E-005  0.1067683E+03  0.7546771E-02  0.1271406E+00
          2   -1    0    0  502    0 -0.00000000000E+00  0.00000000000E+00  0.39059950555E+03  0.39059950555E+03  0.00000000000E+00 0. -1.
         21   -1    0    0  501  502  0.00000000000E+00 -0.00000000000E+00 -0.34193910727E+02  0.34193910727E+02  0.00000000000E+00 0.  1.
         23    2    1    2    0    0 -0.53570816594E+02 -0.24016329711E+02  0.23102673433E+03  0.25628014594E+03  0.94125154670E+02 0.  0.
         23    2    1    2    0    0  0.37396306691E+02  0.11459500660E+02  0.10399854742E+03  0.13890910656E+03  0.83368088074E+02 0.  0.
        -13    1    3    3    0    0 -0.19170538898E+02  0.33193852085E+02  0.12715022358E+03  0.13280256298E+03  0.00000000000E+00 0. -1.
         13    1    3    3    0    0 -0.34400277696E+02 -0.57210181795E+02  0.10387651076E+03  0.12347758296E+03  0.00000000000E+00 0.  1.
        -13    1    4    4    0    0 -0.19155220962E+01  0.26958412568E+02  0.40595063004E+00  0.27029428943E+02  0.00000000000E+00 0.  1.
         13    1    4    4    0    0  0.39311828787E+02 -0.15498911908E+02  0.10359259679E+03  0.11187967761E+03  0.00000000000E+00 0. -1.
          2    1    1    2  501    0  0.16174509903E+02  0.12556829051E+02  0.21380313070E+02  0.29604163784E+02  0.00000000000E+00 0. -1.
<scales pt_clust_5="13000.00000" pt_clust_6="13000.00000" pt_clust_7="13000.00000" pt_clust_8="13000.00000" pt_clust_9="20.47654"></scales>
<clustering>
<clus scale="   20.477">  2  9  1 -1</clus>
<clus scale="   83.368">  7  8 -1 -1</clus>
<clus scale="   94.125">  5  6 -1 -1</clus>
<clus scale="   97.417">  2  7  1 -1</clus>
<clus scale="   20.477">  2  5  1 -1</clus>
</clustering>
</event>
<event>
 9    1  0.1671478E-005  0.1083976E+03  0.7546771E-02  0.1263615E+00
         21   -1    0    0  501  502  0.00000000000E+00  0.00000000000E+00  0.49107962027E+02  0.49107962027E+02  0.00000000000E+00 0.  1.
         -3   -1    0    0    0  501 -0.00000000000E+00 -0.00000000000E+00 -0.55980442738E+03  0.55980442738E+03  0.00000000000E+00 0.  1.
         23    2    1    2    0    0 -0.35535001802E+02  0.33363048656E+02 -0.29367876279E+03  0.31144431870E+03  0.91512395699E+02 0.  0.
         23    2    1    2    0    0  0.95108833114E+01 -0.94933675961E+02 -0.17197114820E+03  0.21686168789E+03  0.91389584374E+02 0.  0.
        -11    1    3    3    0    0 -0.56170089190E+02  0.46493831046E+02 -0.16399959676E+03  0.17947875357E+03  0.00000000000E+00 0. -1.
         11    1    3    3    0    0  0.20635087389E+02 -0.13130782390E+02 -0.12967916602E+03  0.13196556512E+03  0.00000000000E+00 0.  1.
        -13    1    4    4    0    0  0.29360570788E+02 -0.98809611161E+02 -0.10598284561E+03  0.14784365370E+03  0.00000000000E+00 0.  1.
         13    1    4    4    0    0 -0.19849687477E+02  0.38759351996E+01 -0.65988302582E+02  0.69018034196E+02  0.00000000000E+00 0. -1.
         -3    1    1    2    0  502  0.26024118490E+02  0.61570627305E+02 -0.45046554365E+02  0.80606382813E+02  0.00000000000E+00 0.  1.
<scales pt_clust_5="13000.00000" pt_clust_6="13000.00000" pt_clust_7="13000.00000" pt_clust_8="13000.00000" pt_clust_9="66.84457"></scales>
<clustering>
<clus scale="   66.845">  1  9  2 -1</clus>
<clus scale="   91.390">  7  8 -1 -1</clus>
<clus scale="   91.512">  5  6 -1 -1</clus>
<clus scale="  108.294">  1  7  2 -1</clus>
<clus scale="   66.845">  1  5  2 -1</clus>
</clustering>
</event>
<event>
 9    1  0.1671478E-005  0.2280427E+03  0.7546771E-02  0.1159102E+00
         21   -1    0    0  501  502  0.00000000000E+00  0.00000000000E+00  0.52630605394E+03  0.52630605394E+03  0.00000000000E+00 0.  1.
         -3   -1    0    0    0  501 -0.00000000000E+00 -0.00000000000E+00 -0.19130551750E+03  0.19130551750E+03  0.00000000000E+00 0.  1.
         23    2    1    2    0    0 -0.42105510577E+02  0.43662698714E+02 -0.62567716699E+02  0.12504022292E+03  0.89671806582E+02 0.  0.
         23    2    1    2    0    0 -0.16929546079E+03  0.58641228283E+02  0.16750462874E+03  0.26380739756E+03  0.97143170938E+02 0.  0.
        -11    1    4    4    0    0 -0.14843209383E+03  0.63589091671E+02  0.17766115386E+03  0.24008153750E+03  0.00000000000E+00 0.  1.
         11    1    4    4    0    0 -0.20863366959E+02 -0.49478633885E+01 -0.10156525120E+02  0.23725860058E+02  0.00000000000E+00 0. -1.
        -11    1    3    3    0    0 -0.37317156859E+02  0.69273046710E+02 -0.59819018590E+02  0.98841490183E+02  0.00000000000E+00 0.  1.
         11    1    3    3    0    0 -0.47883537173E+01 -0.25610347997E+02 -0.27486981084E+01  0.26198732739E+02  0.00000000000E+00 0. -1.
         -3    1    1    2    0  502  0.21140097137E+03 -0.10230392700E+03  0.23006362440E+03  0.32876395095E+03  0.00000000000E+00 0.  1.
<scales pt_clust_5="13000.00000" pt_clust_6="13000.00000" pt_clust_7="13000.00000" pt_clust_8="13000.00000" pt_clust_9="206.31704"></scales>
<clustering>
<clus scale="   89.672">  7  8 -1 -1</clus>
<clus scale="   97.143">  5  6 -1 -1</clus>
<clus scale="  108.261">  2  7  1 -1</clus>
<clus scale="  206.317">  1  9  2 -1</clus>
<clus scale="  206.317">  1  5  2 -1</clus>
</clustering>
</event>
<event>
 9    1  0.1671478E-005  0.1053028E+03  0.7546771E-02  0.1272686E+00
         21   -1    0    0  501  502  0.00000000000E+00  0.00000000000E+00  0.86418904618E+02  0.86418904618E+02  0.00000000000E+00 0. -1.
          2   -1    0    0  502    0 -0.00000000000E+00 -0.00000000000E+00 -0.69158261829E+03  0.69158261829E+03  0.00000000000E+00 0. -1.
         23    2    1    2    0    0  0.33948871127E+02 -0.51493331630E+02 -0.53498494018E+03  0.54492768958E+03  0.83265908966E+02 0.  0.
         23    2    1    2    0    0 -0.22109618571E+02  0.19816157766E+02 -0.13186907187E+03  0.16272254224E+03  0.90596127388E+02 0.  0.
        -11    1    3    3    0    0  0.57552100862E+02 -0.51441387782E+02 -0.45614976473E+03  0.46263491930E+03  0.00000000000E+00 0. -1.
         11    1    3    3    0    0 -0.23603229735E+02 -0.51943848077E-01 -0.78835175453E+02  0.82292770283E+02  0.00000000000E+00 0.  1.
        -11    1    4    4    0    0 -0.28652794497E+02  0.52783438191E+02 -0.98463745494E+02  0.11533509074E+03  0.00000000000E+00 0.  1.
         11    1    4    4    0    0  0.65431759267E+01 -0.32967280425E+02 -0.33405326371E+02  0.47387451501E+02  0.00000000000E+00 0. -1.
          2    1    1    2  501    0 -0.11839252557E+02  0.31677173864E+02  0.61690298370E+02  0.70351291090E+02  0.00000000000E+00 0. -1.
<scales pt_clust_5="13000.00000" pt_clust_6="13000.00000" pt_clust_7="13000.00000" pt_clust_8="13000.00000" pt_clust_9="33.81732"></scales>
<clustering>
<clus scale="   33.817">  1  9  2 -1</clus>
<clus scale="   83.266">  5  6 -1 -1</clus>
<clus scale="   90.596">  7  8 -1 -1</clus>
<clus scale="   99.067">  2  5  1 -1</clus>
<clus scale="   33.817">  1  5  2 -1</clus>
</clustering>
</event>
<event>
 9    1  0.1671478E-005  0.9360284E+02  0.7546771E-02  0.1295424E+00
         21   -1    0    0  501  502  0.00000000000E+00  0.00000000000E+00  0.31339669956E+03  0.31339669956E+03  0.00000000000E+00 0.  1.
         -1   -1    0    0    0  501 -0.00000000000E+00 -0.00000000000E+00 -0.76808390930E+02  0.76808390930E+02  0.00000000000E+00 0.  1.
         23    2    1    2    0    0 -0.48729318495E+02 -0.22629980469E+01  0.30754142193E+02  0.10754934059E+03  0.90782023316E+02 0.  0.
         23    2    1    2    0    0 -0.39180384180E+02 -0.45406412158E+01  0.78025750311E+02  0.12738374159E+03  0.92643834031E+02 0.  0.
        -13    1    3    3    0    0  0.23085257975E+02  0.13389145878E+02 -0.26420496157E+01  0.26817509006E+02  0.00000000000E+00 0. -1.
         13    1    3    3    0    0 -0.71814576470E+02 -0.15652143925E+02  0.33396191808E+02  0.80731831580E+02  0.00000000000E+00 0.  1.
        -13    1    4    4    0    0 -0.63500219038E+02 -0.55253873906E+01  0.80768389149E+02  0.10288994319E+03  0.00000000000E+00 0.  1.
         13    1    4    4    0    0  0.24319834858E+02  0.98474617486E+00 -0.27426388389E+01  0.24493798406E+02  0.00000000000E+00 0. -1.
         -1    1    1    2    0  502  0.87909702675E+02  0.68036392627E+01  0.12780841612E+03  0.15527200831E+03  0.00000000000E+00 0.  1.
<scales pt_clust_5="13000.00000" pt_clust_6="13000.00000" pt_clust_7="13000.00000" pt_clust_8="13000.00000" pt_clust_9="88.17259"></scales>
<clustering>
<clus scale="   88.173">  1  9  2 -1</clus>
<clus scale="   90.782">  5  6 -1 -1</clus>
<clus scale="   91.760">  2  5  1 -1</clus>
<clus scale="   92.644">  7  8 -1 -1</clus>
<clus scale="   88.173">  1  5  2 -1</clus>
</clustering>
</event>
<event>
 9    1  0.1671478E-005  0.1214993E+03  0.7546771E-02  0.1243480E+00
         21   -1    0    0  501  502  0.00000000000E+00  0.00000000000E+00  0.28727854638E+03  0.28727854638E+03  0.00000000000E+00 0. -1.
         -1   -1    0    0    0  501 -0.00000000000E+00 -0.00000000000E+00 -0.11692350753E+03  0.11692350753E+03  0.00000000000E+00 0.  1.
         23    2    1    2    0    0  0.77211637705E+02 -0.43023526848E+01 -0.59076257787E+02  0.12929827141E+03  0.85134549512E+02 0.  0.
         23    2    1    2    0    0 -0.74623135893E+02 -0.16380244449E+02  0.22172329603E+03  0.25268029404E+03  0.94070113088E+02 0.  0.
        -11    1    3    3    0    0  0.41501685093E+02  0.15722327250E+02  0.13139659465E+02  0.46284253160E+02  0.00000000000E+00 0. -1.
         11    1    3    3    0    0  0.35709952612E+02 -0.20024679935E+02 -0.72215917251E+02  0.83014018253E+02  0.00000000000E+00 0.  1.
        -13    1    4    4    0    0 -0.54864158965E+02  0.35511372356E+02  0.12877489186E+03  0.14440950896E+03  0.00000000000E+00 0.  1.
         13    1    4    4    0    0 -0.19758976927E+02 -0.51891616805E+02  0.92948404170E+02  0.10827078508E+03  0.00000000000E+00 0. -1.
         -1    1    1    2    0  502 -0.25885018124E+01  0.20682597134E+02  0.77080005995E+01  0.22223488455E+02  0.00000000000E+00 0.  1.
<scales pt_clust_5="13000.00000" pt_clust_6="13000.00000" pt_clust_7="13000.00000" pt_clust_8="13000.00000" pt_clust_9="20.84396"></scales>
<clustering>
<clus scale="   20.844">  1  9  2 -1</clus>
<clus scale="   85.135">  5  6 -1 -1</clus>
<clus scale="   94.070">  7  8 -1 -1</clus>
<clus scale="  114.720">  2  5  1 -1</clus>
<clus scale="   20.844">  1  5  2 -1</clus>
</clustering>
</event>
<event>
 9    1  0.1671478E-005  0.1313891E+03  0.7546771E-02  0.1226283E+00
          3   -1    0    0  502    0 -0.00000000000E+00  0.00000000000E+00  0.15791141187E+03  0.15791141187E+03  0.00000000000E+00 0. -1.
         21   -1    0    0  501  502  0.00000000000E+00 -0.00000000000E+00 -0.17067891038E+03  0.17067891038E+03  0.00000000000E+00 0.  1.
         23    2    1    2    0    0  0.62560017141E+02  0.67283537719E+02  0.40725379788E+02  0.13537060548E+03  0.90696273767E+02 0.  0.
         23    2    1    2    0    0 -0.37180719414E+02 -0.87341824776E+02 -0.34856351812E+01  0.13366161072E+03  0.94033378518E+02 0.  0.
        -13    1    3    3    0    0  0.23962900768E+02 -0.66954910053E+01 -0.20203861534E+02  0.32050682269E+02  0.00000000000E+00 0.  1.
         13    1    3    3    0    0  0.38597116373E+02  0.73979028725E+02  0.60929241322E+02  0.10331992321E+03  0.00000000000E+00 0. -1.
        -13    1    4    4    0    0  0.28134899505E+02 -0.51944457870E+01 -0.23440712518E+01  0.28706262508E+02  0.00000000000E+00 0.  1.
         13    1    4    4    0    0 -0.65315618918E+02 -0.82147378989E+02 -0.11415639295E+01  0.10495534821E+03  0.00000000000E+00 0. -1.
          3    1    1    2  501    0 -0.25379297728E+02  0.20058287057E+02 -0.50007243120E+02  0.59558106058E+02  0.00000000000E+00 0. -1.
<scales pt_clust_5="13000.00000" pt_clust_6="13000.00000" pt_clust_7="13000.00000" pt_clust_8="13000.00000" pt_clust_9="32.34878"></scales>
<clustering>
<clus scale="   32.349">  2  9  1 -1</clus>
<clus scale="   90.696">  5  6 -1 -1</clus>
<clus scale="   94.033">  7  8 -1 -1</clus>
<clus scale="  129.022">  1  5  2 -1</clus>
<clus scale="   32.349">  2  5  1 -1</clus>
</clustering>
</event>
<event>
 9    1  0.1671478E-005  0.2058320E+03  0.7546771E-02  0.1174330E+00
         -2   -1    0    0    0  501 -0.00000000000E+00  0.00000000000E+00  0.64471489956E+03  0.64471489956E+03  0.00000000000E+00 0.  1.
         21   -1    0    0  501  502  0.00000000000E+00 -0.00000000000E+00 -0.13510013145E+03  0.13510013145E+03  0.00000000000E+00 0.  1.
         23    2    1    2    0    0 -0.35818516745E+02 -0.35760577055E+02  0.22824391673E+03  0.25070241772E+03  0.90524205112E+02 0.  0.
         23    2    1    2    0    0  0.19038339108E+03  0.26211963829E+02  0.89557001469E+01  0.21575739791E+03  0.97663440141E+02 0.  0.
        -11    1    4    4    0    0  0.60222916607E+02 -0.33661426727E+02 -0.14716163584E+02  0.70544006156E+02  0.00000000000E+00 0. -1.
         11    1    4    4    0    0  0.13016047447E+03  0.59873390556E+02  0.23671863731E+02  0.14521339175E+03  0.00000000000E+00 0.  1.
        -13    1    3    3    0    0 -0.31361682534E+02  0.20648532087E+02  0.14683349369E+03  0.15155854274E+03  0.00000000000E+00 0.  1.
         13    1    3    3    0    0 -0.44568342106E+01 -0.56409109142E+02  0.81410423041E+02  0.99143874975E+02  0.00000000000E+00 0. -1.
         -2    1    1    2    0  502 -0.15456487433E+03  0.95486132261E+01  0.27241515124E+03  0.31335521540E+03  0.00000000000E+00 0.  1.
<scales pt_clust_5="13000.00000" pt_clust_6="13000.00000" pt_clust_7="13000.00000" pt_clust_8="13000.00000" pt_clust_9="181.18693"></scales>
<clustering>
<clus scale="   90.524">  7  8 -1 -1</clus>
<clus scale="   97.663">  5  6 -1 -1</clus>
<clus scale="  103.713">  1  7  2 -1</clus>
<clus scale="  181.187">  2  9  1 -1</clus>
<clus scale="  181.187">  2  5  1 -1</clus>
</clustering>
</event>
<event>
 9    1  0.1671478E-005  0.9584758E+02  0.7546771E-02  0.1290664E+00
         -1   -1    0    0    0  501 -0.00000000000E+00  0.00000000000E+00  0.39064196254E+03  0.39064196254E+03  0.00000000000E+00 0.  1.
         21   -1    0    0  501  502  0.00000000000E+00 -0.00000000000E+00 -0.77109016169E+02  0.77109016169E+02  0.00000000000E+00 0.  1.
         23    2    1    2    0    0  0.30476129126E+02 -0.21445970005E+01  0.33780008652E+03  0.35129594281E+03  0.91468832099E+02 0.  0.
         23    2    1    2    0    0 -0.11850876138E+02 -0.92944771067E+01 -0.27724226757E+02  0.94325781207E+02  0.88892573824E+02 0.  0.
        -11    1    4    4    0    0  0.30395837185E+02 -0.64519406526E+01  0.14710610218E+02  0.34379303502E+02  0.00000000000E+00 0. -1.
         11    1    4    4    0    0 -0.42246713323E+02 -0.28425364541E+01 -0.42434836975E+02  0.59946477704E+02  0.00000000000E+00 0.  1.
        -11    1    3    3    0    0  0.58622431499E+02  0.48841586434E+00  0.28911344915E+03  0.29499731271E+03  0.00000000000E+00 0.  1.
         11    1    3    3    0    0 -0.28146302374E+02 -0.26330128648E+01  0.48686637365E+02  0.56298630107E+02  0.00000000000E+00 0. -1.
         -1    1    1    2    0  502 -0.18625252988E+02  0.11439074107E+02  0.34570866152E+01  0.22129254690E+02  0.00000000000E+00 0.  1.
<scales pt_clust_5="13000.00000" pt_clust_6="13000.00000" pt_clust_7="13000.00000" pt_clust_8="13000.00000" pt_clust_9="21.85755"></scales>
<clustering>
<clus scale="   21.858">  2  9  1 -1</clus>
<clus scale="   88.893">  5  6 -1 -1</clus>
<clus scale="   91.469">  7  8 -1 -1</clus>
<clus scale="   93.392">  2  5  1 -1</clus>
<clus scale="   21.858">  2  5  1 -1</clus>
</clustering>
</event>
<event>
 9    1  0.1671478E-005  0.1276833E+03  0.7546771E-02  0.1241729E+00
          2   -1    0    0  502    0 -0.00000000000E+00  0.00000000000E+00  0.16605428999E+03  0.16605428999E+03  0.00000000000E+00 0. -1.
         21   -1    0    0  501  502  0.00000000000E+00 -0.00000000000E+00 -0.13343363394E+03  0.13343363394E+03  0.00000000000E+00 0. -1.
         23    2    1    2    0    0 -0.54641394847E+02 -0.24528941303E+02  0.83296194742E+02  0.15482544209E+03  0.11595391527E+03 0.  0.
         23    2    1    2    0    0  0.44636274739E+02  0.56078385389E+01 -0.10079500631E+02  0.98769684321E+02  0.87349924626E+02 0.  0.
        -11    1    4    4    0    0 -0.34142265865E+01 -0.23069403741E+02  0.23827678755E+02  0.33340854923E+02  0.00000000000E+00 0. -1.
         11    1    4    4    0    0  0.48050501326E+02  0.28677242280E+02 -0.33907179386E+02  0.65428829398E+02  0.00000000000E+00 0.  1.
        -11    1    3    3    0    0 -0.81437248330E+02 -0.40091496358E+02  0.84220690357E+02  0.12382438443E+03  0.00000000000E+00 0. -1.
         11    1    3    3    0    0  0.26795853483E+02  0.15562555055E+02 -0.92449561438E+00  0.31001057657E+02  0.00000000000E+00 0.  1.
          2    1    1    2  501    0  0.10005120107E+02  0.18921102764E+02 -0.40596038063E+02  0.45892797524E+02  0.00000000000E+00 0. -1.
<scales pt_clust_5="13000.00000" pt_clust_6="13000.00000" pt_clust_7="13000.00000" pt_clust_8="13000.00000" pt_clust_9="21.40352"></scales>
<clustering>
<clus scale="   21.404">  2  9  1 -1</clus>
<clus scale="   87.350">  5  6 -1 -1</clus>
<clus scale="  102.410">  2  5  1 -1</clus>
<clus scale="  115.954">  7  8 -1 -1</clus>
<clus scale="   21.404">  2  5  1 -1</clus>
</clustering>
</event>
<event>
 9    1  0.1671478E-005  0.1676677E+03  0.7546771E-02  0.1180327E+00
          3   -1    0    0  502    0 -0.00000000000E+00  0.00000000000E+00  0.81665308205E+02  0.81665308205E+02  0.00000000000E+00 0. -1.
         21   -1    0    0  501  502  0.00000000000E+00 -0.00000000000E+00 -0.60216441621E+03  0.60216441621E+03  0.00000000000E+00 0. -1.
         23    2    1    2    0    0  0.37144918799E+02  0.12326984151E+03 -0.82111662677E+02  0.17798906203E+03  0.91447155432E+02 0.  0.
         23    2    1    2    0    0 -0.81858770259E+02 -0.15366333160E+03 -0.31777315488E+03  0.37366313096E+03  0.91274748598E+02 0.  0.
        -13    1    3    3    0    0 -0.15104160404E+02  0.98983321389E+02 -0.48117879421E+02  0.11109079122E+03  0.00000000000E+00 0.  1.
         13    1    3    3    0    0  0.52249079203E+02  0.24286520126E+02 -0.33993783256E+02  0.66898270811E+02  0.00000000000E+00 0. -1.
        -13    1    4    4    0    0 -0.73564358930E+02 -0.42245686880E+02 -0.14004710798E+03  0.16373639003E+03  0.00000000000E+00 0. -1.
         13    1    4    4    0    0 -0.82944113291E+01 -0.11141764472E+03 -0.17772604690E+03  0.20992674094E+03  0.00000000000E+00 0.  1.
          3    1    1    2  501    0  0.44713851459E+02  0.30393490084E+02 -0.12061429045E+03  0.13217753142E+03  0.00000000000E+00 0. -1.
<scales pt_clust_5="13000.00000" pt_clust_6="13000.00000" pt_clust_7="13000.00000" pt_clust_8="13000.00000" pt_clust_9="54.06563"></scales>
<clustering>
<clus scale="   54.066">  2  9  1 -1</clus>
<clus scale="   91.275">  7  8 -1 -1</clus>
<clus scale="   91.447">  5  6 -1 -1</clus>
<clus scale="  167.574">  2  7  1 -1</clus>
<clus scale="   54.066">  2  5  1 -1</clus>
</clustering>
</event>
<event>
 9    1  0.1671478E-005  0.1530506E+03  0.7546771E-02  0.1199940E+00
         21   -1    0    0  501  502  0.00000000000E+00  0.00000000000E+00  0.17898068174E+03  0.17898068174E+03  0.00000000000E+00 0.  1.
         -1   -1    0    0    0  501 -0.00000000000E+00 -0.00000000000E+00 -0.18789086565E+03  0.18789086565E+03  0.00000000000E+00 0.  1.
         23    2    1    2    0    0 -0.11394273019E+03 -0.68892681765E+02 -0.69286467321E+02  0.17140424046E+03  0.82762622789E+02 0.  0.
         23    2    1    2    0    0  0.85062863023E+02  0.24666524508E+02  0.43633043939E+02  0.14005669620E+03  0.99337342069E+02 0.  0.
        -13    1    4    4    0    0  0.31569898914E+02  0.48056058670E+02  0.56127955155E+02  0.80351668571E+02  0.00000000000E+00 0. -1.
         13    1    4    4    0    0  0.53492964109E+02 -0.23389534162E+02 -0.12494911216E+02  0.59705027626E+02  0.00000000000E+00 0.  1.
        -13    1    3    3    0    0 -0.11621978654E+03 -0.33159976860E+02 -0.56159627552E+02  0.13326862577E+03  0.00000000000E+00 0.  1.
         13    1    3    3    0    0  0.22770563496E+01 -0.35732704905E+02 -0.13126839769E+02  0.38135614690E+02  0.00000000000E+00 0. -1.
         -1    1    1    2    0  502  0.28879867167E+02  0.44226157257E+02  0.16743239468E+02  0.55410610727E+02  0.00000000000E+00 0.  1.
<scales pt_clust_5="13000.00000" pt_clust_6="13000.00000" pt_clust_7="13000.00000" pt_clust_8="13000.00000" pt_clust_9="52.82045"></scales>
<clustering>
<clus scale="   52.820">  1  9  2 -1</clus>
<clus scale="   82.763">  7  8 -1 -1</clus>
<clus scale="   99.337">  5  6 -1 -1</clus>
<clus scale="  142.850">  2  7  1 -1</clus>
<clus scale="   52.820">  1  5  2 -1</clus>
</clustering>
</event>
<event>
 9    1  0.1671478E-005  0.1113968E+03  0.7546771E-02  0.1258215E+00
          1   -1    0    0  502    0 -0.00000000000E+00  0.00000000000E+00  0.67360538487E+03  0.67360538487E+03  0.00000000000E+00 0. -1.
         21   -1    0    0  501  502  0.00000000000E+00 -0.00000000000E+00 -0.68991532858E+02  0.68991532858E+02  0.00000000000E+00 0. -1.
         23    2    1    2    0    0  0.67980590646E+02 -0.75603535985E+01  0.48076073129E+03  0.49413670534E+03  0.91442239525E+02 0.  0.
         23    2    1    2    0    0 -0.49262053285E+02 -0.49192145143E+02  0.14528854813E+03  0.18497236077E+03  0.90881213656E+02 0.  0.
        -11    1    4    4    0    0 -0.21149685125E+02 -0.43810524118E+02  0.14032708386E+02  0.50631888262E+02  0.00000000000E+00 0. -1.
         11    1    4    4    0    0 -0.28112368160E+02 -0.53816210249E+01  0.13125583974E+03  0.13434047251E+03  0.00000000000E+00 0.  1.
        -13    1    3    3    0    0  0.29750284057E+02 -0.44973834187E+02  0.32509449701E+03  0.32953627592E+03  0.00000000000E+00 0. -1.
         13    1    3    3    0    0  0.38230306589E+02  0.37413480588E+02  0.15566623427E+03  0.16460042942E+03  0.00000000000E+00 0.  1.
          1    1    1    2  501    0 -0.18718537361E+02  0.56752498741E+02 -0.21435427401E+02  0.63487851611E+02  0.00000000000E+00 0. -1.
<scales pt_clust_5="13000.00000" pt_clust_6="13000.00000" pt_clust_7="13000.00000" pt_clust_8="13000.00000" pt_clust_9="59.75977"></scales>
<clustering>
<clus scale="   59.760">  2  9  1 -1</clus>
<clus scale="   90.881">  5  6 -1 -1</clus>
<clus scale="   91.442">  7  8 -1 -1</clus>
<clus scale="  110.937">  2  5  1 -1</clus>
<clus scale="   59.760">  2  5  1 -1</clus>
</clustering>
</event>
<event>
 9    1  0.1671478E-005  0.9890243E+02  0.7546771E-02  0.1282716E+00
         -1   -1    0    0    0  501 -0.00000000000E+00  0.00000000000E+00  0.14040091721E+03  0.14040091721E+03  0.00000000000E+00 0.  1.
         21   -1    0    0  501  502  0.00000000000E+00 -0.00000000000E+00 -0.17542614585E+03  0.17542614585E+03  0.00000000000E+00 0.  1.
         23    2    1    2    0    0  0.40011894456E+02 -0.75192979130E+01  0.50367093323E+02  0.11312001610E+03  0.92745902403E+02 0.  0.
         23    2    1    2    0    0 -0.17700424829E+02  0.26860684111E+02  0.14035853862E+02  0.98986976374E+02  0.92556009573E+02 0.  0.
        -13    1    3    3    0    0  0.50422817509E+02 -0.25340055798E+02  0.66286765139E+02  0.87054662058E+02  0.00000000000E+00 0.  1.
         13    1    3    3    0    0 -0.10410923054E+02  0.17820757885E+02 -0.15919671815E+02  0.26065354038E+02  0.00000000000E+00 0. -1.
        -13    1    4    4    0    0  0.24434290798E+02 -0.22375619046E+02  0.62660666099E+01  0.33718933632E+02  0.00000000000E+00 0.  1.
         13    1    4    4    0    0 -0.42134715627E+02  0.49236303157E+02  0.77697872518E+01  0.65268042743E+02  0.00000000000E+00 0. -1.
         -1    1    1    2    0  502 -0.22311469627E+02 -0.19341386198E+02 -0.99428175825E+02  0.10372007060E+03  0.00000000000E+00 0.  1.
<scales pt_clust_5="13000.00000" pt_clust_6="13000.00000" pt_clust_7="13000.00000" pt_clust_8="13000.00000" pt_clust_9="29.52780"></scales>
<clustering>
<clus scale="   29.528">  2  9  1 -1</clus>
<clus scale="   92.556">  7  8 -1 -1</clus>
<clus scale="   92.746">  5  6 -1 -1</clus>
<clus scale="   98.724">  2  7  1 -1</clus>
<clus scale="   29.528">  2  5  1 -1</clus>
</clustering>
</event>
<event>
 9    1  0.1671478E-005  0.1098343E+03  0.7546771E-02  0.1260955E+00
          2   -1    0    0  502    0 -0.00000000000E+00  0.00000000000E+00  0.44958834170E+02  0.44958834170E+02  0.00000000000E+00 0. -1.
         21   -1    0    0  501  502  0.00000000000E+00 -0.00000000000E+00 -0.64257640984E+03  0.64257640984E+03  0.00000000000E+00 0. -1.
         23    2    1    2    0    0 -0.91352439368E+02 -0.34699171441E+01 -0.12185172801E+03  0.17754565072E+03  0.91199265158E+02 0.  0.
         23    2    1    2    0    0  0.12883972736E+02 -0.29150710223E+02 -0.21655612635E+03  0.23720563994E+03  0.91401307984E+02 0.  0.
        -11    1    3    3    0    0 -0.62015640376E+02  0.12956760634E+02 -0.12850255629E+03  0.14327150544E+03  0.00000000000E+00 0.  1.
         11    1    3    3    0    0 -0.29336798992E+02 -0.16426677778E+02  0.66508282762E+01  0.34274145280E+02  0.00000000000E+00 0. -1.
        -13    1    4    4    0    0 -0.30059060457E+02 -0.28390341684E+02 -0.16500864596E+03  0.17010999929E+03  0.00000000000E+00 0.  1.
         13    1    4    4    0    0  0.42943033193E+02 -0.76036853882E+00 -0.51547480386E+02  0.67095640650E+02  0.00000000000E+00 0. -1.
          2    1    1    2  501    0  0.78468466632E+02  0.32620627367E+02 -0.25920972130E+03  0.27278395335E+03  0.00000000000E+00 0. -1.
<scales pt_clust_5="13000.00000" pt_clust_6="13000.00000" pt_clust_7="13000.00000" pt_clust_8="13000.00000" pt_clust_9="84.97885"></scales>
<clustering>
<clus scale="   84.979">  2  9  1 -1</clus>
<clus scale="   91.199">  5  6 -1 -1</clus>
<clus scale="   91.401">  7  8 -1 -1</clus>
<clus scale="  109.666">  1  5  2 -1</clus>
<clus scale="   84.979">  2  5  1 -1</clus>
</clustering>
</event>
<event>
 9    1  0.1671478E-005  0.3109675E+03  0.7546771E-02  0.1079981E+00
         21   -1    0    0  501  502  0.00000000000E+00  0.00000000000E+00  0.24507550049E+03  0.24507550049E+03  0.00000000000E+00 0. -1.
          2   -1    0    0  502    0 -0.00000000000E+00 -0.00000000000E+00 -0.87252701296E+03  0.87252701296E+03  0.00000000000E+00 0. -1.
         23    2    1    2    0    0 -0.23881646933E+03 -0.20672454718E+03 -0.63672126907E+03  0.71626867790E+03  0.88648181210E+02 0.  0.
         23    2    1    2    0    0  0.17541684040E+03  0.18141733148E+03 -0.88017396897E+02  0.28248620895E+03  0.91477210444E+02 0.  0.
        -11    1    4    4    0    0 -0.48266119594E+01  0.32424630604E+02 -0.22052511229E+02  0.39509063572E+02  0.00000000000E+00 0.  1.
         11    1    4    4    0    0  0.18024345236E+03  0.14899270088E+03 -0.65964885668E+02  0.24297714537E+03  0.00000000000E+00 0. -1.
        -13    1    3    3    0    0 -0.26247266649E+02  0.26132439951E+01 -0.85666325144E+02  0.89635190157E+02  0.00000000000E+00 0.  1.
         13    1    3    3    0    0 -0.21256920268E+03 -0.20933779118E+03 -0.55105494392E+03  0.62663348775E+03  0.00000000000E+00 0. -1.
          2    1    1    2  501    0  0.63399628930E+02  0.25307215703E+02  0.97287153494E+02  0.11884762661E+03  0.00000000000E+00 0. -1.
<scales pt_clust_5="13000.00000" pt_clust_6="13000.00000" pt_clust_7="13000.00000" pt_clust_8="13000.00000" pt_clust_9="68.26396"></scales>
<clustering>
<clus scale="   68.264">  1  9  2 -1</clus>
<clus scale="   88.648">  7  8 -1 -1</clus>
<clus scale="   91.477">  5  6 -1 -1</clus>
<clus scale="  310.147">  2  7  1 -1</clus>
<clus scale="   68.264">  1  5  2 -1</clus>
</clustering>
</event>
<event>
 9    1  0.1671478E-005  0.1116528E+03  0.7546771E-02  0.1259034E+00
         21   -1    0    0  501  502  0.00000000000E+00  0.00000000000E+00  0.21316642709E+03  0.21316642709E+03  0.00000000000E+00 0. -1.
         -1   -1    0    0    0  501 -0.00000000000E+00 -0.00000000000E+00 -0.16041674028E+03  0.16041674028E+03  0.00000000000E+00 0.  1.
         23    2    1    2    0    0 -0.36245977563E+02 -0.50392441295E+02 -0.84649857158E+02  0.13723548181E+03  0.88401414709E+02 0.  0.
         23    2    1    2    0    0  0.82075980035E+02  0.14132280530E+02  0.56601105446E+02  0.13663020437E+03  0.92346844872E+02 0.  0.
        -11    1    4    4    0    0  0.98741046601E+02 -0.46301037741E+01  0.40564991238E+02  0.10684919587E+03  0.00000000000E+00 0. -1.
         11    1    4    4    0    0 -0.16665066565E+02  0.18762384304E+02  0.16036114209E+02  0.29781008501E+02  0.00000000000E+00 0.  1.
        -11    1    3    3    0    0 -0.80883599954E+01 -0.35850650638E+02 -0.96608801268E+02  0.10336320042E+03  0.00000000000E+00 0.  1.
         11    1    3    3    0    0 -0.28157617568E+02 -0.14541790657E+02  0.11958944110E+02  0.33872281394E+02  0.00000000000E+00 0. -1.
         -1    1    1    2    0  502 -0.45830002472E+02  0.36260160765E+02  0.80798438519E+02  0.99717481178E+02  0.00000000000E+00 0.  1.
<scales pt_clust_5="13000.00000" pt_clust_6="13000.00000" pt_clust_7="13000.00000" pt_clust_8="13000.00000" pt_clust_9="58.43961"></scales>
<clustering>
<clus scale="   58.440">  1  9  2 -1</clus>
<clus scale="   88.401">  7  8 -1 -1</clus>
<clus scale="   92.347">  5  6 -1 -1</clus>
<clus scale="  108.412">  2  7  1 -1</clus>
<clus scale="   58.440">  1  5  2 -1</clus>
</clustering>
</event>
<event>
 9    1  0.1671478E-005  0.9184593E+02  0.7546771E-02  0.1301834E+00
         21   -1    0    0  501  502  0.00000000000E+00  0.00000000000E+00  0.13361598701E+03  0.13361598701E+03  0.00000000000E+00 0. -1.
         -4   -1    0    0    0  501 -0.00000000000E+00 -0.00000000000E+00 -0.90997594776E+02  0.90997594776E+02  0.00000000000E+00 0.  1.
         23    2    1    2    0    0  0.67705682841E+01  0.50976466940E+01 -0.40298056931E+01  0.86594329026E+02  0.86084330100E+02 0.  0.
         23    2    1    2    0    0  0.54137613529E+01  0.19678677844E+02  0.13489544451E+02  0.94870435319E+02  0.91661728734E+02 0.  0.
        -13    1    4    4    0    0  0.31417998237E+02  0.10429241479E+01 -0.28261324337E+02  0.42271512361E+02  0.00000000000E+00 0.  1.
         13    1    4    4    0    0 -0.26004236884E+02  0.18635753696E+02  0.41750868789E+02  0.52598922958E+02  0.00000000000E+00 0. -1.
        -13    1    3    3    0    0  0.12146294607E+02 -0.20026351082E+02 -0.37613493884E+02  0.44309842388E+02  0.00000000000E+00 0.  1.
         13    1    3    3    0    0 -0.53757263231E+01  0.25123997776E+02  0.33583688191E+02  0.42284486638E+02  0.00000000000E+00 0. -1.
         -4    1    1    2    0  502 -0.12184329637E+02 -0.24776324538E+02  0.33158653477E+02  0.43148817443E+02  0.00000000000E+00 0.  1.
<scales pt_clust_5="13000.00000" pt_clust_6="13000.00000" pt_clust_7="13000.00000" pt_clust_8="13000.00000" pt_clust_9="27.61022"></scales>
<clustering>
<clus scale="   27.610">  1  9  2 -1</clus>
<clus scale="   86.084">  7  8 -1 -1</clus>
<clus scale="   86.280">  2  7  1 -1</clus>
<clus scale="   91.662">  5  6 -1 -1</clus>
<clus scale="   27.610">  1  5  2 -1</clus>
</clustering>
</event>
<event>
 9    1  0.1671478E-005  0.1007451E+03  0.7546771E-02  0.1279776E+00
         21   -1    0    0  501  502  0.00000000000E+00  0.00000000000E+00  0.17112037735E+03  0.17112037735E+03  0.00000000000E+00 0. -1.
         -1   -1    0    0    0  501 -0.00000000000E+00 -0.00000000000E+00 -0.83420300647E+02  0.83420300647E+02  0.00000000000E+00 0.  1.
         23    2    1    2    0    0 -0.24403646541E+02 -0.37012873044E+02 -0.86917199025E+00  0.10412442236E+03  0.94210663604E+02 0.  0.
         23    2    1    2    0    0  0.62171026093E+01  0.21689753357E+02  0.56108451826E+02  0.11017632882E+03  0.92095424965E+02 0.  0.
        -11    1    4    4    0    0 -0.39642888090E+02 -0.72283557389E+01  0.28326394146E+02  0.49256393576E+02  0.00000000000E+00 0.  1.
         11    1    4    4    0    0  0.45859990700E+02  0.28918109095E+02  0.27782057680E+02  0.60919935239E+02  0.00000000000E+00 0. -1.
        -13    1    3    3    0    0 -0.42600925852E+02 -0.36851186845E+01 -0.33292980407E+02  0.54192633517E+02  0.00000000000E+00 0.  1.
         13    1    3    3    0    0  0.18197279311E+02 -0.33327754359E+02  0.32423808417E+02  0.49931788844E+02  0.00000000000E+00 0. -1.
         -1    1    1    2    0  502  0.18186543932E+02  0.15323119687E+02  0.32460796866E+02  0.40239926818E+02  0.00000000000E+00 0.  1.
<scales pt_clust_5="13000.00000" pt_clust_6="13000.00000" pt_clust_7="13000.00000" pt_clust_8="13000.00000" pt_clust_9="23.78126"></scales>
<clustering>
<clus scale="   23.781">  1  9  2 -1</clus>
<clus scale="   92.095">  5  6 -1 -1</clus>
<clus scale="   94.211">  7  8 -1 -1</clus>
<clus scale="   98.770">  1  5  2 -1</clus>
<clus scale="   23.781">  1  5  2 -1</clus>
</clustering>
</event>
<event>
 9    1  0.1671478E-005  0.1006261E+03  0.7546771E-02  0.1279539E+00
         21   -1    0    0  501  502  0.00000000000E+00  0.00000000000E+00  0.18462993519E+03  0.18462993519E+03  0.00000000000E+00 0. -1.
         -2   -1    0    0    0  501 -0.00000000000E+00 -0.00000000000E+00 -0.15702557941E+03  0.15702557941E+03  0.00000000000E+00 0.  1.
         23    2    1    2    0    0  0.39442711163E+02  0.33577656534E+01 -0.89664290305E+02  0.13476808393E+03  0.92497294214E+02 0.  0.
         23    2    1    2    0    0 -0.39634367159E+02  0.20326244443E+02  0.15992473240E+02  0.10287862213E+03  0.91346660681E+02 0.  0.
        -11    1    4    4    0    0 -0.16723739323E+02  0.55849638990E+02  0.19353972624E+01  0.58331907177E+02  0.00000000000E+00 0. -1.
         11    1    4    4    0    0 -0.22910627836E+02 -0.35523394548E+02  0.14057075977E+02  0.44546714952E+02  0.00000000000E+00 0.  1.
        -13    1    3    3    0    0  0.15321975532E+02 -0.15823480446E+02  0.14347514785E+02  0.26286815101E+02  0.00000000000E+00 0. -1.
         13    1    3    3    0    0  0.24120735631E+02  0.19181246100E+02 -0.10401180509E+03  0.10848126883E+03  0.00000000000E+00 0.  1.
         -2    1    1    2    0  502  0.19165599620E+00 -0.23684010096E+02  0.10127617285E+03  0.10400880853E+03  0.00000000000E+00 0.  1.
<scales pt_clust_5="13000.00000" pt_clust_6="13000.00000" pt_clust_7="13000.00000" pt_clust_8="13000.00000" pt_clust_9="23.68479"></scales>
<clustering>
<clus scale="   23.685">  1  9  2 -1</clus>
<clus scale="   91.347">  5  6 -1 -1</clus>
<clus scale="   92.497">  7  8 -1 -1</clus>
<clus scale="   99.569">  1  5  2 -1</clus>
<clus scale="   23.685">  1  5  2 -1</clus>
</clustering>
</event>
<event>
 9    1  0.1671478E-005  0.1147977E+03  0.7546771E-02  0.1254485E+00
         21   -1    0    0  501  502  0.00000000000E+00  0.00000000000E+00  0.56990496600E+02  0.56990496600E+02  0.00000000000E+00 0. -1.
          2   -1    0    0  502    0 -0.00000000000E+00 -0.00000000000E+00 -0.63342053174E+03  0.63342053174E+03  0.00000000000E+00 0. -1.
         23    2    1    2    0    0 -0.21837099110E+01  0.73259549741E+02 -0.45069672839E+03  0.46461661592E+03  0.85844793605E+02 0.  0.
         23    2    1    2    0    0  0.61865526629E+01 -0.53008256393E+02 -0.15593133470E+03  0.18921493013E+03  0.92949233260E+02 0.  0.
        -11    1    3    3    0    0 -0.23001814438E+02 -0.10761944098E+02 -0.12909372658E+03  0.13156782719E+03  0.00000000000E+00 0.  1.
         11    1    3    3    0    0  0.20818104527E+02  0.84021493839E+02 -0.32160300181E+03  0.33304878873E+03  0.00000000000E+00 0. -1.
        -13    1    4    4    0    0 -0.42383385632E+02 -0.14565976957E+02 -0.57278388190E+02  0.72727799471E+02  0.00000000000E+00 0. -1.
         13    1    4    4    0    0  0.48569938295E+02 -0.38442279436E+02 -0.98652946508E+02  0.11648713066E+03  0.00000000000E+00 0.  1.
          2    1    1    2  501    0 -0.40028427519E+01 -0.20251293348E+02  0.30198027951E+02  0.36579482289E+02  0.00000000000E+00 0. -1.
<scales pt_clust_5="13000.00000" pt_clust_6="13000.00000" pt_clust_7="13000.00000" pt_clust_8="13000.00000" pt_clust_9="20.64310"></scales>
<clustering>
<clus scale="   20.643">  1  9  2 -1</clus>
<clus scale="   85.845">  5  6 -1 -1</clus>
<clus scale="   92.949">  7  8 -1 -1</clus>
<clus scale="  109.125">  2  5  1 -1</clus>
<clus scale="   20.643">  1  5  2 -1</clus>
</clustering>
</event>
<event>
 9    1  0.1671478E-005  0.9812650E+02  0.7546771E-02  0.1285249E+00
          1   -1    0    0  502    0 -0.00000000000E+00  0.00000000000E+00  0.25898463185E+03  0.25898463185E+03  0.00000000000E+00 0. -1.
         21   -1    0    0  501  502  0.00000000000E+00 -0.00000000000E+00 -0.15583430978E+03  0.15583430978E+03  0.00000000000E+00 0.  1.
         23    2    1    2    0    0  0.27792058859E+02  0.21450551269E+02  0.21838719600E+03  0.23865521962E+03  0.89614852512E+02 0.  0.
         23    2    1    2    0    0 -0.47440633170E+02  0.22084237783E-01 -0.80132156308E+02  0.13056238707E+03  0.91513716351E+02 0.  0.
        -11    1    3    3    0    0  0.44859635163E+02  0.47200652142E+02  0.15573094029E+03  0.16879696145E+03  0.00000000000E+00 0. -1.
         11    1    3    3    0    0 -0.17067576304E+02 -0.25750100873E+02  0.62656255707E+02  0.69858258174E+02  0.00000000000E+00 0.  1.
        -13    1    4    4    0    0 -0.54164261112E+02  0.34879824545E+02 -0.35578352024E+02  0.73594758474E+02  0.00000000000E+00 0.  1.
         13    1    4    4    0    0  0.67236279421E+01 -0.34857740307E+02 -0.44553804284E+02  0.56967628599E+02  0.00000000000E+00 0. -1.
          1    1    1    2  501    0  0.19648574311E+02 -0.21472635507E+02 -0.35104717629E+02  0.45601334935E+02  0.00000000000E+00 0. -1.
<scales pt_clust_5="13000.00000" pt_clust_6="13000.00000" pt_clust_7="13000.00000" pt_clust_8="13000.00000" pt_clust_9="29.10568"></scales>
<clustering>
<clus scale="   29.106">  2  9  1 -1</clus>
<clus scale="   89.615">  5  6 -1 -1</clus>
<clus scale="   91.514">  7  8 -1 -1</clus>
<clus scale="   96.358">  1  5  2 -1</clus>
<clus scale="   29.106">  2  5  1 -1</clus>
</clustering>
</event>
<event>
 9    1  0.1671478E-005  0.1346975E+03  0.7546771E-02  0.1221192E+00
          1   -1    0    0  502    0 -0.00000000000E+00  0.00000000000E+00  0.12521126501E+03  0.12521126501E+03  0.00000000000E+00 0. -1.
         21   -1    0    0  501  502  0.00000000000E+00 -0.00000000000E+00 -0.33303263416E+03  0.33303263416E+03  0.00000000000E+00 0. -1.
         23    2    1    2    0    0  0.21365441307E+02  0.10149837659E+03  0.19053062618E+02  0.13908281158E+03  0.90678590363E+02 0.  0.
         23    2    1    2    0    0 -0.45977616895E+02 -0.78287417819E+02 -0.50184313800E+02  0.13926137780E+03  0.92910736474E+02 0.  0.
        -11    1    3    3    0    0 -0.68322378970E+01  0.10720300269E+03  0.62745983056E+01  0.10760359588E+03  0.00000000000E+00 0.  1.
         11    1    3    3    0    0  0.28197679204E+02 -0.57046261040E+01  0.12778464312E+02  0.31479215709E+02  0.00000000000E+00 0. -1.
        -11    1    4    4    0    0 -0.61973766596E+01 -0.73038401084E+02  0.21291014266E+01  0.73331770626E+02  0.00000000000E+00 0.  1.
         11    1    4    4    0    0 -0.39780240235E+02 -0.52490167352E+01 -0.52313415226E+02  0.65929607177E+02  0.00000000000E+00 0. -1.
          1    1    1    2  501    0  0.24612175588E+02 -0.23210958771E+02 -0.17669011796E+03  0.17989970978E+03  0.00000000000E+00 0. -1.
<scales pt_clust_5="13000.00000" pt_clust_6="13000.00000" pt_clust_7="13000.00000" pt_clust_8="13000.00000" pt_clust_9="33.83057"></scales>
<clustering>
<clus scale="   33.831">  2  9  1 -1</clus>
<clus scale="   90.679">  5  6 -1 -1</clus>
<clus scale="   92.911">  7  8 -1 -1</clus>
<clus scale="  133.168">  1  5  2 -1</clus>
<clus scale="   33.831">  2  5  1 -1</clus>
</clustering>
</event>
<event>
 9    1  0.1671478E-005  0.1039781E+03  0.7546771E-02  0.1275687E+00
         21   -1    0    0  501  502  0.00000000000E+00  0.00000000000E+00  0.35519368607E+03  0.35519368607E+03  0.00000000000E+00 0. -1.
          1   -1    0    0  502    0 -0.00000000000E+00 -0.00000000000E+00 -0.68626533909E+02  0.68626533909E+02  0.00000000000E+00 0. -1.
         23    2    1    2    0    0 -0.12581042228E+02 -0.19009269865E+02  0.91085799958E+02  0.13278862669E+03  0.93896546586E+02 0.  0.
         23    2    1    2    0    0 -0.31837875677E+02  0.85711870335E+02  0.15978011824E+03  0.20329986993E+03  0.86261091367E+02 0.  0.
        -13    1    3    3    0    0  0.23145784769E+02 -0.45759570493E+02  0.40626936718E+02  0.65423341640E+02  0.00000000000E+00 0.  1.
         13    1    3    3    0    0 -0.35726826996E+02  0.26750300628E+02  0.50458863240E+02  0.67365285054E+02  0.00000000000E+00 0. -1.
        -13    1    4    4    0    0 -0.50951853078E+01  0.52132101784E+02  0.18355151682E+02  0.55503410192E+02  0.00000000000E+00 0.  1.
         13    1    4    4    0    0 -0.26742690369E+02  0.33579768551E+02  0.14142496656E+03  0.14779645974E+03  0.00000000000E+00 0. -1.
          1    1    1    2  501    0  0.44418917905E+02 -0.66702600470E+02  0.35701233964E+02  0.87731723361E+02  0.00000000000E+00 0. -1.
<scales pt_clust_5="13000.00000" pt_clust_6="13000.00000" pt_clust_7="13000.00000" pt_clust_8="13000.00000" pt_clust_9="80.13915"></scales>
<clustering>
<clus scale="   80.139">  1  9  2 -1</clus>
<clus scale="   86.261">  7  8 -1 -1</clus>
<clus scale="   93.897">  5  6 -1 -1</clus>
<clus scale="   97.138">  1  7  2 -1</clus>
<clus scale="   80.139">  1  5  2 -1</clus>
</clustering>
</event>
<event>
 9    1  0.1671478E-005  0.1063165E+03  0.7546771E-02  0.1268007E+00
          2   -1    0    0  502    0 -0.00000000000E+00  0.00000000000E+00  0.46397104143E+03  0.46397104143E+03  0.00000000000E+00 0. -1.
         21   -1    0    0  501  502  0.00000000000E+00 -0.00000000000E+00 -0.42504092996E+02  0.42504092996E+02  0.00000000000E+00 0. -1.
         23    2    1    2    0    0 -0.25019108370E+02  0.53880366556E+02  0.25251928990E+03  0.27535758460E+03  0.92340445869E+02 0.  0.
         23    2    1    2    0    0  0.53610807138E+02 -0.11953295891E+02  0.10607212474E+03  0.15031719560E+03  0.91252198445E+02 0.  0.
        -11    1    3    3    0    0 -0.30669489989E+02  0.73182954684E+02  0.13886157173E+03  0.15993404446E+03  0.00000000000E+00 0. -1.
         11    1    3    3    0    0  0.56503816180E+01 -0.19302588128E+02  0.11365771817E+03  0.11542354015E+03  0.00000000000E+00 0.  1.
        -13    1    4    4    0    0  0.50735316859E+02  0.16444497242E+02  0.15777415934E+02  0.55618528567E+02  0.00000000000E+00 0. -1.
         13    1    4    4    0    0  0.28754902785E+01 -0.28397793133E+02  0.90294708808E+02  0.94698667033E+02  0.00000000000E+00 0.  1.
          2    1    1    2  501    0 -0.28591698767E+02 -0.41927070665E+02  0.62875533790E+02  0.80800354222E+02  0.00000000000E+00 0. -1.
<scales pt_clust_5="13000.00000" pt_clust_6="13000.00000" pt_clust_7="13000.00000" pt_clust_8="13000.00000" pt_clust_9="50.74805"></scales>
<clustering>
<clus scale="   50.748">  2  9  1 -1</clus>
<clus scale="   91.252">  7  8 -1 -1</clus>
<clus scale="   92.340">  5  6 -1 -1</clus>
<clus scale="  105.373">  2  7  1 -1</clus>
<clus scale="   50.748">  2  5  1 -1</clus>
</clustering>
</event>
<event>
 9    1  0.1671478E-005  0.2674585E+03  0.7546771E-02  0.1102876E+00
          2   -1    0    0  502    0 -0.00000000000E+00  0.00000000000E+00  0.24182069230E+03  0.24182069230E+03  0.00000000000E+00 0. -1.
         21   -1    0    0  501  502  0.00000000000E+00 -0.00000000000E+00 -0.52791373449E+03  0.52791373449E+03  0.00000000000E+00 0.  1.
         23    2    1    2    0    0 -0.53012025360E+02 -0.30064774900E+03 -0.15867300852E+02  0.31893110120E+03  0.90917172573E+02 0.  0.
         23    2    1    2    0    0 -0.30969141600E+02  0.19442509708E+03 -0.12104147360E+03  0.24932867724E+03  0.93560380799E+02 0.  0.
        -13    1    3    3    0    0 -0.97851860567E+01 -0.17377422431E+03 -0.49089923445E+02  0.18083985038E+03  0.00000000000E+00 0. -1.
         13    1    3    3    0    0 -0.43226839303E+02 -0.12687352469E+03  0.33222622593E+02  0.13809125083E+03  0.00000000000E+00 0.  1.
        -13    1    4    4    0    0  0.28893160956E+02  0.25908455686E+02 -0.16406725527E+02  0.42133638208E+02  0.00000000000E+00 0.  1.
         13    1    4    4    0    0 -0.59862302556E+02  0.16851664139E+03 -0.10463474807E+03  0.20719503903E+03  0.00000000000E+00 0. -1.
          2    1    1    2  501    0  0.83981166959E+02  0.10622265192E+03 -0.14918426774E+03  0.20147464834E+03  0.00000000000E+00 0. -1.
<scales pt_clust_5="13000.00000" pt_clust_6="13000.00000" pt_clust_7="13000.00000" pt_clust_8="13000.00000" pt_clust_9="135.41081"></scales>
<clustering>
<clus scale="   90.917">  5  6 -1 -1</clus>
<clus scale="   93.560">  7  8 -1 -1</clus>
<clus scale="  135.411">  2  9  1 -1</clus>
<clus scale="  266.545">  1  5  2 -1</clus>
<clus scale="  135.411">  2  5  1 -1</clus>
</clustering>
</event>
<event>
 9    1  0.1671478E-005  0.1052725E+03  0.7546771E-02  0.1273656E+00
          1   -1    0    0  502    0 -0.00000000000E+00  0.00000000000E+00  0.68100477169E+03  0.68100477169E+03  0.00000000000E+00 0. -1.
         21   -1    0    0  501  502  0.00000000000E+00 -0.00000000000E+00 -0.30085049076E+02  0.30085049076E+02  0.00000000000E+00 0.  1.
         23    2    1    2    0    0 -0.12362756329E+02  0.35379780485E+02  0.36634317429E+03  0.37936213444E+03  0.91124865372E+02 0.  0.
         23    2    1    2    0    0  0.37507436314E+02 -0.11342701258E+02  0.27583005764E+03  0.29585935477E+03  0.99574456852E+02 0.  0.
        -11    1    3    3    0    0  0.29677213999E+02  0.37490878552E+02  0.11541099479E+03  0.12492397978E+03  0.00000000000E+00 0.  1.
         11    1    3    3    0    0 -0.42039970328E+02 -0.21110980674E+01  0.25093217950E+03  0.25443815467E+03  0.00000000000E+00 0. -1.
        -13    1    4    4    0    0  0.87881483715E+01  0.37597927707E+02  0.18324335032E+03  0.18726708508E+03  0.00000000000E+00 0.  1.
         13    1    4    4    0    0  0.28719287942E+02 -0.48940628964E+02  0.92586707322E+02  0.10859226969E+03  0.00000000000E+00 0. -1.
          1    1    1    2  501    0 -0.25144679985E+02 -0.24037079227E+02  0.87464906888E+01  0.35868331557E+02  0.00000000000E+00 0. -1.
<scales pt_clust_5="13000.00000" pt_clust_6="13000.00000" pt_clust_7="13000.00000" pt_clust_8="13000.00000" pt_clust_9="34.78557"></scales>
<clustering>
<clus scale="   34.786">  2  9  1 -1</clus>
<clus scale="   91.125">  5  6 -1 -1</clus>
<clus scale="   97.319">  1  5  2 -1</clus>
<clus scale="   99.574">  7  8 -1 -1</clus>
<clus scale="   34.786">  2  5  1 -1</clus>
</clustering>
</event>
<event>
 9    1  0.1671478E-005  0.1029682E+03  0.7546771E-02  0.1275519E+00
         21   -1    0    0  501  502  0.00000000000E+00  0.00000000000E+00  0.12342867535E+03  0.12342867535E+03  0.00000000000E+00 0.  1.
         -3   -1    0    0    0  501 -0.00000000000E+00 -0.00000000000E+00 -0.18488305949E+03  0.18488305949E+03  0.00000000000E+00 0.  1.
         23    2    1    2    0    0 -0.31086004190E+02  0.26098635486E+02 -0.88489525708E+02  0.13212007152E+03  0.89318747794E+02 0.  0.
         23    2    1    2    0    0  0.29530493233E+02 -0.48821136254E+02 -0.31852454599E+02  0.11305308052E+03  0.92254359116E+02 0.  0.
        -11    1    4    4    0    0  0.92754695831E+01 -0.34375995958E+02  0.29889141747E+02  0.46487678243E+02  0.00000000000E+00 0. -1.
         11    1    4    4    0    0  0.20255023650E+02 -0.14445140296E+02 -0.61741596346E+02  0.66565402279E+02  0.00000000000E+00 0.  1.
        -13    1    3    3    0    0 -0.10858717229E+02 -0.30990037358E+02 -0.12951216612E+02  0.35299124168E+02  0.00000000000E+00 0.  1.
         13    1    3    3    0    0 -0.20227286961E+02  0.57088672844E+02 -0.75538309096E+02  0.96820947351E+02  0.00000000000E+00 0. -1.
         -3    1    1    2    0  502  0.15555109572E+01  0.22722500768E+02  0.58887596166E+02  0.63138582797E+02  0.00000000000E+00 0.  1.
<scales pt_clust_5="13000.00000" pt_clust_6="13000.00000" pt_clust_7="13000.00000" pt_clust_8="13000.00000" pt_clust_9="22.77568"></scales>
<clustering>
<clus scale="   22.776">  1  9  2 -1</clus>
<clus scale="   89.319">  7  8 -1 -1</clus>
<clus scale="   92.254">  5  6 -1 -1</clus>
<clus scale="  100.347">  2  7  1 -1</clus>
<clus scale="   22.776">  1  5  2 -1</clus>
</clustering>
</event>
<event>
 9    1  0.1671478E-005  0.1375169E+03  0.7546771E-02  0.1216942E+00
          3   -1    0    0  502    0 -0.00000000000E+00  0.00000000000E+00  0.34031048768E+03  0.34031048768E+03  0.00000000000E+00 0. -1.
         21   -1    0    0  501  502  0.00000000000E+00 -0.00000000000E+00 -0.98831694490E+02  0.98831694490E+02  0.00000000000E+00 0. -1.
         23    2    1    2    0    0  0.20225739542E+02  0.10836558897E+03  0.23550032669E+03  0.27531812452E+03  0.90484719170E+02 0.  0.
         23    2    1    2    0    0 -0.26958423627E+02 -0.79869683228E+02  0.27587869628E+02  0.12743296008E+03  0.91499430935E+02 0.  0.
        -11    1    3    3    0    0 -0.28949595607E+01  0.86162029230E+02  0.22599915996E+03  0.24188405564E+03  0.00000000000E+00 0. -1.
         11    1    3    3    0    0  0.23120699103E+02  0.22203559742E+02  0.95011667300E+01  0.33434068874E+02  0.00000000000E+00 0.  1.
        -13    1    4    4    0    0 -0.41339726773E+02 -0.40465833100E+02  0.52943653579E+02  0.78418665587E+02  0.00000000000E+00 0.  1.
         13    1    4    4    0    0  0.14381303147E+02 -0.39403850128E+02 -0.25355783951E+02  0.49014294495E+02  0.00000000000E+00 0. -1.
          3    1    1    2  501    0  0.67326840846E+01 -0.28495905743E+02 -0.21609403126E+02  0.36391097573E+02  0.00000000000E+00 0. -1.
<scales pt_clust_5="13000.00000" pt_clust_6="13000.00000" pt_clust_7="13000.00000" pt_clust_8="13000.00000" pt_clust_9="29.28047"></scales>
<clustering>
<clus scale="   29.280">  2  9  1 -1</clus>
<clus scale="   90.485">  5  6 -1 -1</clus>
<clus scale="   91.499">  7  8 -1 -1</clus>
<clus scale="  136.844">  1  5  2 -1</clus>
<clus scale="   29.280">  2  5  1 -1</clus>
</clustering>
</event>
<event>
 9    1  0.1671478E-005  0.1003496E+03  0.7546771E-02  0.1280209E+00
          2   -1    0    0  502    0 -0.00000000000E+00  0.00000000000E+00  0.91404556732E+02  0.91404556732E+02  0.00000000000E+00 0. -1.
         21   -1    0    0  501  502  0.00000000000E+00 -0.00000000000E+00 -0.23625562652E+03  0.23625562652E+03  0.00000000000E+00 0.  1.
         23    2    1    2    0    0 -0.49723938188E+02  0.98417035583E+01  0.17067531169E+02  0.10449614081E+03  0.89770895433E+02 0.  0.
         23    2    1    2    0    0  0.27044902186E+02 -0.81447429527E+00 -0.47675185152E+02  0.10634200857E+03  0.91124142822E+02 0.  0.
        -11    1    3    3    0    0  0.14238221611E+02  0.26165404120E+02 -0.12322886600E+02  0.32236762579E+02  0.00000000000E+00 0.  1.
         11    1    3    3    0    0 -0.63962159799E+02 -0.16323700562E+02  0.29390417769E+02  0.72259378234E+02  0.00000000000E+00 0. -1.
        -13    1    4    4    0    0 -0.12293724217E+02  0.33226573413E+02  0.51150585987E+00  0.35431659207E+02  0.00000000000E+00 0. -1.
         13    1    4    4    0    0  0.39338626402E+02 -0.34041047708E+02 -0.48186691011E+02  0.70910349364E+02  0.00000000000E+00 0.  1.
          2    1    1    2  501    0  0.22679036002E+02 -0.90272292631E+01 -0.11424341581E+03  0.11682203387E+03  0.00000000000E+00 0. -1.
<scales pt_clust_5="13000.00000" pt_clust_6="13000.00000" pt_clust_7="13000.00000" pt_clust_8="13000.00000" pt_clust_9="24.40962"></scales>
<clustering>
<clus scale="   24.410">  2  9  1 -1</clus>
<clus scale="   89.771">  5  6 -1 -1</clus>
<clus scale="   91.124">  7  8 -1 -1</clus>
<clus scale="   99.122">  1  5  2 -1</clus>
<clus scale="   24.410">  2  5  1 -1</clus>
</clustering>
</event>
<event>
 9    1  0.1671478E-005  0.1363973E+03  0.7546771E-02  0.1221860E+00
          1   -1    0    0  502    0 -0.00000000000E+00  0.00000000000E+00  0.10175662525E+04  0.10175662525E+04  0.00000000000E+00 0. -1.
         21   -1    0    0  501  502  0.00000000000E+00 -0.00000000000E+00 -0.27494300884E+02  0.27494300884E+02  0.00000000000E+00 0. -1.
         23    2    1    2    0    0  0.93119838975E+02  0.40692562218E+02  0.60369578329E+03  0.62107867878E+03  0.10470404689E+03 0.  0.
         23    2    1    2    0    0 -0.73992669596E+02 -0.59867710518E+01  0.35317019765E+03  0.37228103286E+03  0.91395964560E+02 0.  0.
        -11    1    3    3    0    0  0.35259718827E+02 -0.32697969248E+02  0.13912614905E+03  0.14720220893E+03  0.00000000000E+00 0.  1.
         11    1    3    3    0    0  0.57860120148E+02  0.73390531467E+02  0.46456963424E+03  0.47387646985E+03  0.00000000000E+00 0. -1.
        -11    1    4    4    0    0 -0.31902580350E+02  0.42748929859E+02  0.16234162530E+03  0.17088021811E+03  0.00000000000E+00 0.  1.
         11    1    4    4    0    0 -0.42090089246E+02 -0.48735700911E+02  0.19082857235E+03  0.20140081475E+03  0.00000000000E+00 0. -1.
          1    1    1    2  501    0 -0.19127169380E+02 -0.34705791166E+02  0.33205970670E+02  0.51700841745E+02  0.00000000000E+00 0. -1.
<scales pt_clust_5="13000.00000" pt_clust_6="13000.00000" pt_clust_7="13000.00000" pt_clust_8="13000.00000" pt_clust_9="39.62752"></scales>
<clustering>
<clus scale="   39.628">  2  9  1 -1</clus>
<clus scale="   91.396">  7  8 -1 -1</clus>
<clus scale="  104.704">  5  6 -1 -1</clus>
<clus scale="  126.469">  2  7  1 -1</clus>
<clus scale="   39.628">  2  5  1 -1</clus>
</clustering>
</event>
<event>
 9    1  0.1671478E-005  0.2173916E+03  0.7546771E-02  0.1135849E+00
         21   -1    0    0  501  502  0.00000000000E+00  0.00000000000E+00  0.30324871308E+03  0.30324871308E+03  0.00000000000E+00 0.  1.
          1   -1    0    0  502    0 -0.00000000000E+00 -0.00000000000E+00 -0.23618052685E+03  0.23618052685E+03  0.00000000000E+00 0. -1.
         23    2    1    2    0    0  0.14246080637E+03  0.12771296277E+03 -0.82457892412E+02  0.22785578424E+03  0.92267395003E+02 0.  0.
         23    2    1    2    0    0 -0.13281746387E+03 -0.16708793299E+03  0.12254016458E+03  0.26287415495E+03  0.92346485278E+02 0.  0.
        -11    1    3    3    0    0 -0.11988681941E+02  0.18046404221E+02 -0.10834392681E+01  0.21692741658E+02  0.00000000000E+00 0.  1.
         11    1    3    3    0    0  0.15444948831E+03  0.10966655855E+03 -0.81374453144E+02  0.20616304259E+03  0.00000000000E+00 0. -1.
        -13    1    4    4    0    0 -0.76309261661E+02 -0.26087506804E+02  0.44055058135E+02  0.91894012720E+02  0.00000000000E+00 0. -1.
         13    1    4    4    0    0 -0.56508202210E+02 -0.14100042619E+03  0.78485106442E+02  0.17098014223E+03  0.00000000000E+00 0.  1.
          1    1    1    2  501    0 -0.96433424997E+01  0.39374970221E+02  0.26985914072E+02  0.48699300742E+02  0.00000000000E+00 0. -1.
<scales pt_clust_5="13000.00000" pt_clust_6="13000.00000" pt_clust_7="13000.00000" pt_clust_8="13000.00000" pt_clust_9="40.53865"></scales>
<clustering>
<clus scale="   40.539">  1  9  2 -1</clus>
<clus scale="   92.267">  5  6 -1 -1</clus>
<clus scale="   92.346">  7  8 -1 -1</clus>
<clus scale="  217.358">  2  5  1 -1</clus>
<clus scale="   40.539">  1  5  2 -1</clus>
</clustering>
</event>
<event>
 9    1  0.1671478E-005  0.1032180E+03  0.7546771E-02  0.1273873E+00
         21   -1    0    0  501  502  0.00000000000E+00  0.00000000000E+00  0.49257026855E+02  0.49257026855E+02  0.00000000000E+00 0.  1.
          2   -1    0    0  502    0 -0.00000000000E+00 -0.00000000000E+00 -0.33255017681E+03  0.33255017681E+03  0.00000000000E+00 0. -1.
         23    2    1    2    0    0 -0.10022038786E+02 -0.45994760436E+02 -0.17706850159E+03  0.20491055856E+03  0.91755781848E+02 0.  0.
         23    2    1    2    0    0 -0.21836682083E+02  0.49329510798E+02 -0.96593307284E+02  0.14344725967E+03  0.91305027106E+02 0.  0.
        -11    1    4    4    0    0 -0.41948642760E+02  0.48880782067E+02 -0.25021583687E+02  0.69102092118E+02  0.00000000000E+00 0.  1.
         11    1    4    4    0    0  0.20111960677E+02  0.44872873119E+00 -0.71571723596E+02  0.74345167551E+02  0.00000000000E+00 0. -1.
        -11    1    3    3    0    0  0.12571896642E+02  0.25278973788E+02 -0.53126918807E+02  0.60162684473E+02  0.00000000000E+00 0.  1.
         11    1    3    3    0    0 -0.22593935429E+02 -0.71273734224E+02 -0.12394158278E+03  0.14474787408E+03  0.00000000000E+00 0. -1.
          2    1    1    2  501    0  0.31858720870E+02 -0.33347503623E+01 -0.96313410815E+01  0.33449385442E+02  0.00000000000E+00 0. -1.
<scales pt_clust_5="13000.00000" pt_clust_6="13000.00000" pt_clust_7="13000.00000" pt_clust_8="13000.00000" pt_clust_9="32.03277"></scales>
<clustering>
<clus scale="   32.033">  1  9  2 -1</clus>
<clus scale="   91.305">  5  6 -1 -1</clus>
<clus scale="   91.756">  7  8 -1 -1</clus>
<clus scale="  102.818">  1  5  2 -1</clus>
<clus scale="   32.033">  1  5  2 -1</clus>
</clustering>
</event>
<event>
 9    1  0.1671478E-005  0.9353116E+02  0.7546771E-02  0.1296448E+00
         21   -1    0    0  501  502  0.00000000000E+00  0.00000000000E+00  0.14616132017E+03  0.14616132017E+03  0.00000000000E+00 0.  1.
          1   -1    0    0  502    0 -0.00000000000E+00 -0.00000000000E+00 -0.75491418023E+02  0.75491418023E+02  0.00000000000E+00 0. -1.
         23    2    1    2    0    0 -0.39773892744E+01 -0.59003376545E+01  0.11998200174E+02  0.91284027238E+02  0.90211879547E+02 0.  0.
         23    2    1    2    0    0 -0.38940464900E+01 -0.13317094337E+02  0.40748699142E+02  0.10293691875E+03  0.93504246746E+02 0.  0.
        -11    1    3    3    0    0 -0.24212096434E+02  0.30309092164E+01  0.45213827312E+02  0.51378032316E+02  0.00000000000E+00 0.  1.
         11    1    3    3    0    0  0.20234707159E+02 -0.89312468709E+01 -0.33215627138E+02  0.39905994922E+02  0.00000000000E+00 0. -1.
        -11    1    4    4    0    0  0.42353662983E+02 -0.21435630794E+02  0.18071117789E+02  0.50792561796E+02  0.00000000000E+00 0.  1.
         11    1    4    4    0    0 -0.46247709473E+02  0.81185364569E+01  0.22677581354E+02  0.52144356950E+02  0.00000000000E+00 0. -1.
          1    1    1    2  501    0  0.78714357644E+01  0.19217431992E+02  0.17923002831E+02  0.27431792209E+02  0.00000000000E+00 0. -1.
<scales pt_clust_5="13000.00000" pt_clust_6="13000.00000" pt_clust_7="13000.00000" pt_clust_8="13000.00000" pt_clust_9="20.76702"></scales>
<clustering>
<clus scale="   20.767">  1  9  2 -1</clus>
<clus scale="   90.212">  5  6 -1 -1</clus>
<clus scale="   90.240">  2  5  1 -1</clus>
<clus scale="   93.504">  7  8 -1 -1</clus>
<clus scale="   20.767">  1  5  2 -1</clus>
</clustering>
</event>
<event>
 9    1  0.1671478E-005  0.2049755E+03  0.7546771E-02  0.1145867E+00
         21   -1    0    0  501  502  0.00000000000E+00  0.00000000000E+00  0.32892476524E+03  0.32892476524E+03  0.00000000000E+00 0. -1.
          2   -1    0    0  502    0 -0.00000000000E+00 -0.00000000000E+00 -0.53163728119E+03  0.53163728119E+03  0.00000000000E+00 0. -1.
         23    2    1    2    0    0 -0.10364338728E+01  0.19731294056E+03 -0.26569971376E+03  0.34321329079E+03  0.90915094320E+02 0.  0.
         23    2    1    2    0    0  0.31844004075E+02 -0.16788582576E+03 -0.18437055755E+03  0.26634891380E+03  0.88031530179E+02 0.  0.
        -13    1    4    4    0    0  0.21397589518E+02 -0.41034193046E+02 -0.10902114303E+03  0.11843678256E+03  0.00000000000E+00 0. -1.
         13    1    4    4    0    0  0.10446414556E+02 -0.12685163271E+03 -0.75349414517E+02  0.14791213124E+03  0.00000000000E+00 0.  1.
        -13    1    3    3    0    0  0.18051321389E+02  0.18795885648E+03 -0.25976819317E+03  0.32114466540E+03  0.00000000000E+00 0. -1.
         13    1    3    3    0    0 -0.19087755262E+02  0.93540840823E+01 -0.59315205842E+01  0.22068625385E+02  0.00000000000E+00 0.  1.
          2    1    1    2  501    0 -0.30807570202E+02 -0.29427114805E+02  0.24735775536E+03  0.25099984184E+03  0.00000000000E+00 0. -1.
<scales pt_clust_5="13000.00000" pt_clust_6="13000.00000" pt_clust_7="13000.00000" pt_clust_8="13000.00000" pt_clust_9="42.60354"></scales>
<clustering>
<clus scale="   42.604">  1  9  2 -1</clus>
<clus scale="   88.032">  5  6 -1 -1</clus>
<clus scale="   90.915">  7  8 -1 -1</clus>
<clus scale="  203.713">  1  5  2 -1</clus>
<clus scale="   42.604">  1  5  2 -1</clus>
</clustering>
</event>
<event>
 9    1  0.1671478E-005  0.1732040E+03  0.7546771E-02  0.1193273E+00
         21   -1    0    0  501  502  0.00000000000E+00  0.00000000000E+00  0.10401340300E+03  0.10401340300E+03  0.00000000000E+00 0.  1.
         -1   -1    0    0    0  501 -0.00000000000E+00 -0.00000000000E+00 -0.65369144932E+03  0.65369144932E+03  0.00000000000E+00 0.  1.
         23    2    1    2    0    0  0.67230340236E+02 -0.13245343933E+02 -0.54318077223E+02  0.12629390686E+03  0.91128149400E+02 0.  0.
         23    2    1    2    0    0 -0.16027185735E+03 -0.91573551951E+02 -0.43011623450E+03  0.47681317786E+03  0.90983777302E+02 0.  0.
        -11    1    4    4    0    0 -0.93753580601E+02 -0.96502259697E+02 -0.33144473678E+03  0.35771222168E+03  0.00000000000E+00 0.  1.
         11    1    4    4    0    0 -0.66518276750E+02  0.49287077455E+01 -0.98671497717E+02  0.11910095618E+03  0.00000000000E+00 0. -1.
        -13    1    3    3    0    0  0.53685112217E+02  0.24041677679E+02 -0.62457469114E+02  0.85796439247E+02  0.00000000000E+00 0. -1.
         13    1    3    3    0    0  0.13545228019E+02 -0.37287021612E+02  0.81393918918E+01  0.40497467614E+02  0.00000000000E+00 0.  1.
         -1    1    1    2    0  502  0.93041517114E+02  0.10481889588E+03 -0.65243734594E+02  0.15459776759E+03  0.00000000000E+00 0.  1.
<scales pt_clust_5="13000.00000" pt_clust_6="13000.00000" pt_clust_7="13000.00000" pt_clust_8="13000.00000" pt_clust_9="147.38243"></scales>
<clustering>
<clus scale="   90.984">  5  6 -1 -1</clus>
<clus scale="   91.128">  7  8 -1 -1</clus>
<clus scale="  114.016">  2  7  1 -1</clus>
<clus scale="  147.382">  1  9  2 -1</clus>
<clus scale="  147.382">  1  5  2 -1</clus>
</clustering>
</event>
<event>
 9    1  0.1671478E-005  0.9217643E+02  0.7546771E-02  0.1297900E+00
         21   -1    0    0  501  502  0.00000000000E+00  0.00000000000E+00  0.14766414117E+03  0.14766414117E+03  0.00000000000E+00 0. -1.
          1   -1    0    0  502    0 -0.00000000000E+00 -0.00000000000E+00 -0.31886590309E+03  0.31886590309E+03  0.00000000000E+00 0. -1.
         23    2    1    2    0    0  0.61049315378E+01 -0.19899914253E+01 -0.21189360744E+03  0.23114708610E+03  0.92134924336E+02 0.  0.
         23    2    1    2    0    0  0.14876127512E+02  0.45541173505E+01 -0.73922938392E+02  0.11883542163E+03  0.91734494377E+02 0.  0.
        -11    1    3    3    0    0 -0.27158144339E+02  0.28020348056E+02 -0.51497404547E+02  0.64611820778E+02  0.00000000000E+00 0.  1.
         11    1    3    3    0    0  0.33263075876E+02 -0.30010339482E+02 -0.16039620289E+03  0.16653526532E+03  0.00000000000E+00 0. -1.
        -13    1    4    4    0    0  0.17679666337E+02 -0.39107665221E+02 -0.58266278256E+02  0.72366699957E+02  0.00000000000E+00 0. -1.
         13    1    4    4    0    0 -0.28035388250E+01  0.43661782571E+02 -0.15656660136E+02  0.46468721672E+02  0.00000000000E+00 0.  1.
          1    1    1    2  501    0 -0.20981059049E+02 -0.25641259252E+01  0.11461478391E+03  0.11654753653E+03  0.00000000000E+00 0. -1.
<scales pt_clust_5="13000.00000" pt_clust_6="13000.00000" pt_clust_7="13000.00000" pt_clust_8="13000.00000" pt_clust_9="21.13716"></scales>
<clustering>
<clus scale="   21.137">  1  9  2 -1</clus>
<clus scale="   91.734">  7  8 -1 -1</clus>
<clus scale="   91.776">  1  7  2 -1</clus>
<clus scale="   92.135">  5  6 -1 -1</clus>
<clus scale="   21.137">  1  5  2 -1</clus>
</clustering>
</event>
<event>
 9    1  0.1671478E-005  0.9222161E+02  0.7546771E-02  0.1299730E+00
         21   -1    0    0  501  502  0.00000000000E+00  0.00000000000E+00  0.13463369856E+03  0.13463369856E+03  0.00000000000E+00 0. -1.
          2   -1    0    0  502    0 -0.00000000000E+00 -0.00000000000E+00 -0.35525441770E+03  0.35525441770E+03  0.00000000000E+00 0. -1.
         23    2    1    2    0    0 -0.28589370663E+02  0.14258066789E+02 -0.16326774737E+03  0.19005490250E+03  0.91890500332E+02 0.  0.
         23    2    1    2    0    0 -0.48435845784E+02  0.29517859035E+02 -0.14319717813E+03  0.17647015845E+03  0.86133325966E+02 0.  0.
        -13    1    4    4    0    0 -0.14641915531E+02  0.55214749326E+02 -0.58697839951E+02  0.81905376188E+02  0.00000000000E+00 0. -1.
         13    1    4    4    0    0 -0.33793930253E+02 -0.25696890292E+02 -0.84499338177E+02  0.94564782266E+02  0.00000000000E+00 0.  1.
        -13    1    3    3    0    0 -0.55247128053E+02  0.18618976729E+02 -0.14790318056E+03  0.15897881076E+03  0.00000000000E+00 0. -1.
         13    1    3    3    0    0  0.26657757390E+02 -0.43609099398E+01 -0.15364566810E+02  0.31076091740E+02  0.00000000000E+00 0.  1.
          2    1    1    2  501    0  0.77025216447E+02 -0.43775925824E+02  0.85844206357E+02  0.12336305531E+03  0.00000000000E+00 0. -1.
<scales pt_clust_5="13000.00000" pt_clust_6="13000.00000" pt_clust_7="13000.00000" pt_clust_8="13000.00000" pt_clust_9="88.59580"></scales>
<clustering>
<clus scale="   86.133">  5  6 -1 -1</clus>
<clus scale="   88.596">  1  9  2 -1</clus>
<clus scale="   88.596">  1  5  2 -1</clus>
<clus scale="   91.891">  7  8 -1 -1</clus>
<clus scale="   88.596">  1  5  2 -1</clus>
</clustering>
</event>
<event>
 9    1  0.1671478E-005  0.9681101E+02  0.7546771E-02  0.1291925E+00
         21   -1    0    0  501  502  0.00000000000E+00  0.00000000000E+00  0.17685425684E+03  0.17685425684E+03  0.00000000000E+00 0.  1.
          2   -1    0    0  502    0 -0.00000000000E+00 -0.00000000000E+00 -0.74431158372E+02  0.74431158372E+02  0.00000000000E+00 0. -1.
         23    2    1    2    0    0  0.11675239579E+02 -0.18511353074E+02  0.39789640415E+02  0.94116251055E+02  0.82435864868E+02 0.  0.
         23    2    1    2    0    0  0.14993138146E+02  0.47906058407E+02  0.40860736665E+02  0.11189994206E+03  0.91280954255E+02 0.  0.
        -13    1    3    3    0    0 -0.24904874337E+02  0.14099332085E+02 -0.33672277596E+01  0.28816352194E+02  0.00000000000E+00 0. -1.
         13    1    3    3    0    0  0.36580113916E+02 -0.32610685159E+02  0.43156868175E+02  0.65299898861E+02  0.00000000000E+00 0.  1.
        -13    1    4    4    0    0  0.33058377598E+02  0.58083780397E+02  0.85266228049E+00  0.66837930156E+02  0.00000000000E+00 0.  1.
         13    1    4    4    0    0 -0.18065239452E+02 -0.10177721989E+02  0.40008074384E+02  0.45062011909E+02  0.00000000000E+00 0. -1.
          2    1    1    2  501    0 -0.26668377725E+02 -0.29394705333E+02  0.21772721388E+02  0.45269222092E+02  0.00000000000E+00 0. -1.
<scales pt_clust_5="13000.00000" pt_clust_6="13000.00000" pt_clust_7="13000.00000" pt_clust_8="13000.00000" pt_clust_9="39.68943"></scales>
<clustering>
<clus scale="   39.689">  1  9  2 -1</clus>
<clus scale="   82.436">  5  6 -1 -1</clus>
<clus scale="   88.520">  2  5  1 -1</clus>
<clus scale="   91.281">  7  8 -1 -1</clus>
<clus scale="   39.689">  1  5  2 -1</clus>
</clustering>
</event>
<event>
 9    1  0.1671478E-005  0.1061307E+03  0.7546771E-02  0.1267968E+00
         21   -1    0    0  501  502  0.00000000000E+00  0.00000000000E+00  0.80325949008E+02  0.80325949008E+02  0.00000000000E+00 0. -1.
          1   -1    0    0  502    0 -0.00000000000E+00 -0.00000000000E+00 -0.46247038823E+03  0.46247038823E+03  0.00000000000E+00 0. -1.
         23    2    1    2    0    0  0.14375510994E+02  0.28902595270E+02 -0.19830082372E+03  0.22043871051E+03  0.90708285601E+02 0.  0.
         23    2    1    2    0    0 -0.82915708563E+02 -0.58888580281E+02 -0.20353466862E+03  0.24499707119E+03  0.90853310055E+02 0.  0.
        -11    1    4    4    0    0 -0.36063645182E+02 -0.25404323704E+02 -0.17547946387E+03  0.18093923954E+03  0.00000000000E+00 0. -1.
         11    1    4    4    0    0 -0.46852063380E+02 -0.33484256577E+02 -0.28055204746E+02  0.64057831644E+02  0.00000000000E+00 0.  1.
        -13    1    3    3    0    0 -0.37710184822E+02  0.50467650469E+01 -0.64430642423E+02  0.74825367087E+02  0.00000000000E+00 0.  1.
         13    1    3    3    0    0  0.52085695816E+02  0.23855830223E+02 -0.13387018129E+03  0.14561334343E+03  0.00000000000E+00 0. -1.
          1    1    1    2  501    0  0.68540197569E+02  0.29985985011E+02  0.19691053113E+02  0.77360555534E+02  0.00000000000E+00 0. -1.
<scales pt_clust_5="13000.00000" pt_clust_6="13000.00000" pt_clust_7="13000.00000" pt_clust_8="13000.00000" pt_clust_9="74.81255"></scales>
<clustering>
<clus scale="   74.813">  1  9  2 -1</clus>
<clus scale="   90.708">  7  8 -1 -1</clus>
<clus scale="   90.853">  5  6 -1 -1</clus>
<clus scale="  106.007">  2  7  1 -1</clus>
<clus scale="   74.813">  1  5  2 -1</clus>
</clustering>
</event>
<event>
 9    1  0.1671478E-005  0.1167593E+03  0.7546771E-02  0.1248858E+00
          1   -1    0    0  502    0 -0.00000000000E+00  0.00000000000E+00  0.35658185560E+03  0.35658185560E+03  0.00000000000E+00 0. -1.
         21   -1    0    0  501  502  0.00000000000E+00 -0.00000000000E+00 -0.47276453591E+02  0.47276453591E+02  0.00000000000E+00 0.  1.
         23    2    1    2    0    0 -0.52746408667E+02  0.47330162791E+02  0.16077966879E+03  0.19788935179E+03  0.91037166675E+02 0.  0.
         23    2    1    2    0    0  0.37451263201E+02 -0.65372004583E+02  0.12733732166E+03  0.17421366943E+03  0.91975611062E+02 0.  0.
        -11    1    3    3    0    0 -0.37410686052E+02 -0.13692488212E+02  0.21991463763E+02  0.45504594743E+02  0.00000000000E+00 0.  1.
         11    1    3    3    0    0 -0.15335722615E+02  0.61022651004E+02  0.13878820503E+03  0.15238475704E+03  0.00000000000E+00 0. -1.
        -13    1    4    4    0    0  0.42118312802E+02 -0.15740671879E+02  0.11409399013E+03  0.12263425136E+03  0.00000000000E+00 0. -1.
         13    1    4    4    0    0 -0.46670496010E+01 -0.49631332704E+02  0.13243331532E+02  0.51579418066E+02  0.00000000000E+00 0.  1.
          1    1    1    2  501    0  0.15295145466E+02  0.18041841792E+02  0.21188411556E+02  0.31755287974E+02  0.00000000000E+00 0. -1.
<scales pt_clust_5="13000.00000" pt_clust_6="13000.00000" pt_clust_7="13000.00000" pt_clust_8="13000.00000" pt_clust_9="23.65269"></scales>
<clustering>
<clus scale="   23.653">  2  9  1 -1</clus>
<clus scale="   91.037">  5  6 -1 -1</clus>
<clus scale="   91.976">  7  8 -1 -1</clus>
<clus scale="  116.022">  1  5  2 -1</clus>
<clus scale="   23.653">  2  5  1 -1</clus>
</clustering>
</event>
<event>
 9    1  0.1671478E-005  0.1215048E+03  0.7546771E-02  0.1243425E+00
         21   -1    0    0  501  502  0.00000000000E+00  0.00000000000E+00  0.12691579892E+03  0.12691579892E+03  0.00000000000E+00 0.  1.
         -1   -1    0    0    0  501 -0.00000000000E+00 -0.00000000000E+00 -0.18614627402E+03  0.18614627402E+03  0.00000000000E+00 0.  1.
         23    2    1    2    0    0 -0.49952990603E+02  0.60311944510E+02 -0.98915925141E+02  0.15717915358E+03  0.93744835332E+02 0.  0.
         23    2    1    2    0    0  0.21723517925E+02 -0.34163241247E+02  0.16067824583E+02  0.11073372178E+03  0.10180738612E+03 0.  0.
        -11    1    4    4    0    0  0.37894575327E+02 -0.50251452691E+02 -0.21731990641E+02  0.66584433271E+02  0.00000000000E+00 0. -1.
         11    1    4    4    0    0 -0.16171057402E+02  0.16088211444E+02  0.37799815223E+02  0.44149288509E+02  0.00000000000E+00 0.  1.
        -13    1    3    3    0    0  0.21311306269E+02  0.38988395736E+02 -0.55336041088E+02  0.70967205245E+02  0.00000000000E+00 0. -1.
         13    1    3    3    0    0 -0.71264296872E+02  0.21323548775E+02 -0.43579884053E+02  0.86211948331E+02  0.00000000000E+00 0.  1.
         -1    1    1    2    0  502  0.28229472677E+02 -0.26148703263E+02  0.23617625465E+02  0.45149197585E+02  0.00000000000E+00 0.  1.
<scales pt_clust_5="13000.00000" pt_clust_6="13000.00000" pt_clust_7="13000.00000" pt_clust_8="13000.00000" pt_clust_9="38.47932"></scales>
<clustering>
<clus scale="   38.479">  1  9  2 -1</clus>
<clus scale="   93.745">  7  8 -1 -1</clus>
<clus scale="  101.807">  5  6 -1 -1</clus>
<clus scale="  114.834">  2  7  1 -1</clus>
<clus scale="   38.479">  1  5  2 -1</clus>
</clustering>
</event>
<event>
 9    1  0.1671478E-005  0.1020153E+03  0.7546771E-02  0.1276151E+00
         -3   -1    0    0    0  501 -0.00000000000E+00  0.00000000000E+00  0.15453973333E+03  0.15453973333E+03  0.00000000000E+00 0.  1.
         21   -1    0    0  501  502  0.00000000000E+00 -0.00000000000E+00 -0.28926428725E+03  0.28926428725E+03  0.00000000000E+00 0. -1.
         23    2    1    2    0    0 -0.44737941806E+02  0.10702578773E+01  0.11784065375E+03  0.15525231418E+03  0.90632403101E+02 0.  0.
         23    2    1    2    0    0  0.66341499748E+02  0.26796901739E+00 -0.17463439975E+03  0.20767083480E+03  0.90712378729E+02 0.  0.
        -11    1    3    3    0    0 -0.41564300366E+02  0.42299178618E+02  0.62343680679E+02  0.86043861473E+02  0.00000000000E+00 0.  1.
         11    1    3    3    0    0 -0.31736414397E+01 -0.41228920741E+02  0.55496973075E+02  0.69208452706E+02  0.00000000000E+00 0. -1.
        -13    1    4    4    0    0  0.20746123531E+01 -0.36175193406E+02 -0.78214727622E+02  0.86200303082E+02  0.00000000000E+00 0.  1.
         13    1    4    4    0    0  0.64266887395E+02  0.36443162424E+02 -0.96419672128E+02  0.12147053172E+03  0.00000000000E+00 0. -1.
         -3    1    1    2    0  502 -0.21603557942E+02 -0.13382268947E+01 -0.77930807922E+02  0.80880871598E+02  0.00000000000E+00 0.  1.
<scales pt_clust_5="13000.00000" pt_clust_6="13000.00000" pt_clust_7="13000.00000" pt_clust_8="13000.00000" pt_clust_9="21.64497"></scales>
<clustering>
<clus scale="   21.645">  2  9  1 -1</clus>
<clus scale="   90.632">  5  6 -1 -1</clus>
<clus scale="   90.712">  7  8 -1 -1</clus>
<clus scale="  101.944">  1  5  2 -1</clus>
<clus scale="   21.645">  2  5  1 -1</clus>
</clustering>
</event>
<event>
 9    1  0.1671478E-005  0.1491437E+03  0.7546771E-02  0.1221507E+00
         21   -1    0    0  501  502  0.00000000000E+00  0.00000000000E+00  0.25623275339E+03  0.25623275339E+03  0.00000000000E+00 0. -1.
          2   -1    0    0  502    0 -0.00000000000E+00 -0.00000000000E+00 -0.16280603857E+03  0.16280603857E+03  0.00000000000E+00 0. -1.
         23    2    1    2    0    0  0.26330836022E+02 -0.25102611423E+02 -0.52470377969E+02  0.11068056358E+03  0.90407923133E+02 0.  0.
         23    2    1    2    0    0 -0.22172729758E+02  0.13404292779E+03  0.90429642925E+02  0.18603929946E+03  0.89297055885E+02 0.  0.
        -11    1    3    3    0    0  0.49110661076E+02 -0.86264268464E+01  0.14363221653E+01  0.49883216544E+02  0.00000000000E+00 0. -1.
         11    1    3    3    0    0 -0.22779825054E+02 -0.16476184576E+02 -0.53906700135E+02  0.60797347040E+02  0.00000000000E+00 0.  1.
        -13    1    4    4    0    0 -0.34214236415E+02  0.11581831073E+03  0.10479522099E+03  0.15989538272E+03  0.00000000000E+00 0. -1.
         13    1    4    4    0    0  0.12041506657E+02  0.18224617058E+02 -0.14365578062E+02  0.26143916741E+02  0.00000000000E+00 0.  1.
          2    1    1    2  501    0 -0.41581062637E+01 -0.10894031636E+03  0.55467449863E+02  0.12231892892E+03  0.00000000000E+00 0. -1.
<scales pt_clust_5="13000.00000" pt_clust_6="13000.00000" pt_clust_7="13000.00000" pt_clust_8="13000.00000" pt_clust_9="119.45658"></scales>
<clustering>
<clus scale="   89.297">  7  8 -1 -1</clus>
<clus scale="   90.408">  5  6 -1 -1</clus>
<clus scale="   97.453">  2  5  1 -1</clus>
<clus scale="  119.457">  1  9  2 -1</clus>
<clus scale="  119.457">  1  5  2 -1</clus>
</clustering>
</event>
<event>
 9    1  0.1671478E-005  0.1825968E+03  0.7546771E-02  0.1165794E+00
         21   -1    0    0  501  502  0.00000000000E+00  0.00000000000E+00  0.14052534835E+03  0.14052534835E+03  0.00000000000E+00 0.  1.
          2   -1    0    0  502    0 -0.00000000000E+00 -0.00000000000E+00 -0.48826499781E+03  0.48826499781E+03  0.00000000000E+00 0. -1.
         23    2    1    2    0    0 -0.16024903818E+03 -0.79577665074E+02 -0.28585891711E+03  0.34825414780E+03  0.86909561909E+02 0.  0.
         23    2    1    2    0    0  0.10948297101E+03  0.74947882615E+02 -0.12184988976E+03  0.20182833153E+03  0.91014140253E+02 0.  0.
        -11    1    4    4    0    0  0.73430271787E+02  0.15946101697E+02 -0.18338862537E+02  0.77347248517E+02  0.00000000000E+00 0.  1.
         11    1    4    4    0    0  0.36052699223E+02  0.59001780918E+02 -0.10351102722E+03  0.12448108301E+03  0.00000000000E+00 0. -1.
        -13    1    3    3    0    0 -0.38986900828E+02  0.11325296413E+02 -0.10327273127E+03  0.11096620116E+03  0.00000000000E+00 0. -1.
         13    1    3    3    0    0 -0.12126213735E+03 -0.90902961487E+02 -0.18258618584E+03  0.23728794664E+03  0.00000000000E+00 0.  1.
          2    1    1    2  501    0  0.50766067168E+02  0.46297824594E+01  0.59969157401E+02  0.78707866829E+02  0.00000000000E+00 0. -1.
<scales pt_clust_5="13000.00000" pt_clust_6="13000.00000" pt_clust_7="13000.00000" pt_clust_8="13000.00000" pt_clust_9="50.97674"></scales>
<clustering>
<clus scale="   50.977">  1  9  2 -1</clus>
<clus scale="   86.910">  7  8 -1 -1</clus>
<clus scale="   91.014">  5  6 -1 -1</clus>
<clus scale="  180.586">  2  7  1 -1</clus>
<clus scale="   50.977">  1  5  2 -1</clus>
</clustering>
</event>
<event>
 9    1  0.1671478E-005  0.9639021E+02  0.7546771E-02  0.1288625E+00
          2   -1    0    0  502    0 -0.00000000000E+00  0.00000000000E+00  0.13303013395E+03  0.13303013395E+03  0.00000000000E+00 0. -1.
         21   -1    0    0  501  502  0.00000000000E+00 -0.00000000000E+00 -0.20260409667E+03  0.20260409667E+03  0.00000000000E+00 0.  1.
         23    2    1    2    0    0  0.21340784458E+02  0.64168752504E+00  0.68500442985E+02  0.11623280868E+03  0.91443503213E+02 0.  0.
         23    2    1    2    0    0 -0.51113309001E+02  0.45945131049E+02 -0.93057294181E+02  0.14810433076E+03  0.92475441952E+02 0.  0.
        -11    1    3    3    0    0 -0.62545605959E+01  0.19390680352E+02  0.78741128985E+02  0.81334392520E+02  0.00000000000E+00 0. -1.
         11    1    3    3    0    0  0.27595345053E+02 -0.18748992827E+02 -0.10240685999E+02  0.34898416159E+02  0.00000000000E+00 0.  1.
        -11    1    4    4    0    0 -0.34389407471E+02 -0.24511310393E+02 -0.27279497794E+02  0.50275308883E+02  0.00000000000E+00 0. -1.
         11    1    4    4    0    0 -0.16723901530E+02  0.70456441442E+02 -0.65777796387E+02  0.97829021873E+02  0.00000000000E+00 0.  1.
          2    1    1    2  501    0  0.29772524544E+02 -0.46586818574E+02 -0.45017111516E+02  0.71297091188E+02  0.00000000000E+00 0. -1.
<scales pt_clust_5="13000.00000" pt_clust_6="13000.00000" pt_clust_7="13000.00000" pt_clust_8="13000.00000" pt_clust_9="55.28775"></scales>
<clustering>
<clus scale="   55.288">  2  9  1 -1</clus>
<clus scale="   91.444">  5  6 -1 -1</clus>
<clus scale="   92.475">  7  8 -1 -1</clus>
<clus scale="   95.401">  1  5  2 -1</clus>
<clus scale="   55.288">  2  5  1 -1</clus>
</clustering>
</event>
<event>
 9    1  0.1671478E-005  0.9167717E+02  0.7546771E-02  0.1299407E+00
         -1   -1    0    0    0  501 -0.00000000000E+00  0.00000000000E+00  0.80680122042E+02  0.80680122042E+02  0.00000000000E+00 0.  1.
         21   -1    0    0  501  502  0.00000000000E+00 -0.00000000000E+00 -0.32504134993E+03  0.32504134993E+03  0.00000000000E+00 0.  1.
         23    2    1    2    0    0 -0.14626860913E+01  0.21215237007E+02  0.15600739366E+02  0.94975344212E+02  0.91239833448E+02 0.  0.
         23    2    1    2    0    0 -0.12972389563E+02  0.22841367231E+02 -0.75613077934E+02  0.12065702029E+03  0.90281604120E+02 0.  0.
        -13    1    3    3    0    0 -0.21409647953E+02 -0.16336876444E+02  0.38264503355E+02  0.46791439115E+02  0.00000000000E+00 0.  1.
         13    1    3    3    0    0  0.19946961862E+02  0.37552113451E+02 -0.22663763989E+02  0.48183905097E+02  0.00000000000E+00 0. -1.
        -13    1    4    4    0    0 -0.43232003741E+01 -0.19563938891E+02  0.11703334598E+02  0.23203573154E+02  0.00000000000E+00 0. -1.
         13    1    4    4    0    0 -0.86491891890E+01  0.42405306122E+02 -0.87316412532E+02  0.97453447134E+02  0.00000000000E+00 0.  1.
         -1    1    1    2    0  502  0.14435075654E+02 -0.44056604237E+02 -0.18434888932E+03  0.19008910748E+03  0.00000000000E+00 0.  1.
<scales pt_clust_5="13000.00000" pt_clust_6="13000.00000" pt_clust_7="13000.00000" pt_clust_8="13000.00000" pt_clust_9="46.36115"></scales>
<clustering>
<clus scale="   46.361">  2  9  1 -1</clus>
<clus scale="   90.282">  7  8 -1 -1</clus>
<clus scale="   90.724">  2  7  1 -1</clus>
<clus scale="   91.240">  5  6 -1 -1</clus>
<clus scale="   46.361">  2  5  1 -1</clus>
</clustering>
</event>
<event>
 9    1  0.1671478E-005  0.1000023E+03  0.7546771E-02  0.1281813E+00
         21   -1    0    0  501  502  0.00000000000E+00  0.00000000000E+00  0.23384082700E+03  0.23384082700E+03  0.00000000000E+00 0.  1.
          1   -1    0    0  502    0 -0.00000000000E+00 -0.00000000000E+00 -0.19142912570E+03  0.19142912570E+03  0.00000000000E+00 0. -1.
         23    2    1    2    0    0 -0.22208474793E+01  0.35953199419E+02 -0.15750038939E+03  0.18643094520E+03  0.93019137591E+02 0.  0.
         23    2    1    2    0    0 -0.20483005441E+02 -0.44707636010E+02  0.13496202485E+03  0.16948040206E+03  0.89947386290E+02 0.  0.
        -11    1    4    4    0    0 -0.40658814152E+02 -0.63180416561E+02  0.10057772386E+03  0.12554195610E+03  0.00000000000E+00 0.  1.
         11    1    4    4    0    0  0.20175808711E+02  0.18472780550E+02  0.34384300987E+02  0.43938445953E+02  0.00000000000E+00 0. -1.
        -11    1    3    3    0    0 -0.45361197890E+02  0.17526930919E+02 -0.10684112442E+03  0.11738763755E+03  0.00000000000E+00 0.  1.
         11    1    3    3    0    0  0.43140350411E+02  0.18426268500E+02 -0.50659264968E+02  0.69043307651E+02  0.00000000000E+00 0. -1.
          1    1    1    2  501    0  0.22703852920E+02  0.87544365910E+01  0.64950065835E+02  0.69358605446E+02  0.00000000000E+00 0. -1.
<scales pt_clust_5="13000.00000" pt_clust_6="13000.00000" pt_clust_7="13000.00000" pt_clust_8="13000.00000" pt_clust_9="24.33321"></scales>
<clustering>
<clus scale="   24.333">  1  9  2 -1</clus>
<clus scale="   89.947">  5  6 -1 -1</clus>
<clus scale="   93.019">  7  8 -1 -1</clus>
<clus scale="   97.152">  1  5  2 -1</clus>
<clus scale="   24.333">  1  5  2 -1</clus>
</clustering>
</event>
<event>
 9    1  0.1671478E-005  0.1318003E+03  0.7546771E-02  0.1224910E+00
         21   -1    0    0  501  502  0.00000000000E+00  0.00000000000E+00  0.12988651239E+03  0.12988651239E+03  0.00000000000E+00 0. -1.
          2   -1    0    0  502    0 -0.00000000000E+00 -0.00000000000E+00 -0.23210671174E+03  0.23210671174E+03  0.00000000000E+00 0. -1.
         23    2    1    2    0    0  0.18725967211E+02 -0.84096328688E+02 -0.10119552664E+03  0.16117315876E+03  0.91177838017E+02 0.  0.
         23    2    1    2    0    0 -0.30648945665E+02  0.10688153568E+03 -0.44527090534E+02  0.15028509303E+03  0.90774042850E+02 0.  0.
        -13    1    3    3    0    0 -0.24500372393E+02 -0.75253073819E+02 -0.50108152408E+02  0.93670274390E+02  0.00000000000E+00 0. -1.
         13    1    3    3    0    0  0.43226339604E+02 -0.88432548696E+01 -0.51087374228E+02  0.67502884366E+02  0.00000000000E+00 0.  1.
        -13    1    4    4    0    0  0.10571168186E+02  0.24271023856E+02  0.23664570030E+02  0.35508366205E+02  0.00000000000E+00 0.  1.
         13    1    4    4    0    0 -0.41220113851E+02  0.82610511826E+02 -0.68191660564E+02  0.11477672682E+03  0.00000000000E+00 0. -1.
          2    1    1    2  501    0  0.11922978455E+02 -0.22785206994E+02  0.43502417819E+02  0.50534972337E+02  0.00000000000E+00 0. -1.
<scales pt_clust_5="13000.00000" pt_clust_6="13000.00000" pt_clust_7="13000.00000" pt_clust_8="13000.00000" pt_clust_9="25.71620"></scales>
<clustering>
<clus scale="   25.716">  1  9  2 -1</clus>
<clus scale="   90.774">  7  8 -1 -1</clus>
<clus scale="   91.178">  5  6 -1 -1</clus>
<clus scale="  131.521">  1  7  2 -1</clus>
<clus scale="   25.716">  1  5  2 -1</clus>
</clustering>
</event>
<event>
 9    1  0.1671478E-005  0.1103419E+03  0.7546771E-02  0.1266278E+00
         -1   -1    0    0    0  501 -0.00000000000E+00  0.00000000000E+00  0.58267159840E+03  0.58267159840E+03  0.00000000000E+00 0.  1.
         21   -1    0    0  501  502  0.00000000000E+00 -0.00000000000E+00 -0.58127628107E+02  0.58127628107E+02  0.00000000000E+00 0.  1.
         23    2    1    2    0    0 -0.36759215562E+02 -0.50801191112E+02  0.26890015603E+03  0.29077322648E+03  0.91157963885E+02 0.  0.
         23    2    1    2    0    0  0.29624877036E+02 -0.59309843602E+02  0.18806179986E+03  0.22063254029E+03  0.94425559986E+02 0.  0.
        -11    1    4    4    0    0  0.17077158650E+02  0.19336831295E+02  0.14317581338E+02  0.29504839051E+02  0.00000000000E+00 0.  1.
         11    1    4    4    0    0  0.12547718386E+02 -0.78646674897E+02  0.17374421852E+03  0.19112770124E+03  0.00000000000E+00 0. -1.
        -13    1    3    3    0    0  0.39833933347E+01 -0.53458694946E+02  0.22295020500E+03  0.22930436847E+03  0.00000000000E+00 0.  1.
         13    1    3    3    0    0 -0.40742608897E+02  0.26575038332E+01  0.45949951027E+02  0.61468858016E+02  0.00000000000E+00 0. -1.
         -1    1    1    2    0  502  0.71343385262E+01  0.11011103471E+03  0.67582014400E+02  0.12939345974E+03  0.00000000000E+00 0.  1.
<scales pt_clust_5="13000.00000" pt_clust_6="13000.00000" pt_clust_7="13000.00000" pt_clust_8="13000.00000" pt_clust_9="110.34192"></scales>
<clustering>
<clus scale="   91.158">  7  8 -1 -1</clus>
<clus scale="   94.426">  5  6 -1 -1</clus>
<clus scale="  110.342">  2  9  1 -1</clus>
<clus scale="   97.476">  1  7  2 -1</clus>
<clus scale="  110.342">  2  5  1 -1</clus>
</clustering>
</event>
<event>
 9    1  0.1671478E-005  0.1241045E+03  0.7546771E-02  0.1236745E+00
          1   -1    0    0  502    0 -0.00000000000E+00  0.00000000000E+00  0.28515407080E+03  0.28515407080E+03  0.00000000000E+00 0. -1.
         21   -1    0    0  501  502  0.00000000000E+00 -0.00000000000E+00 -0.10459627529E+03  0.10459627529E+03  0.00000000000E+00 0.  1.
         23    2    1    2    0    0 -0.38759043914E+02  0.76558553855E+02  0.18687140597E+03  0.22653578462E+03  0.95047691653E+02 0.  0.
         23    2    1    2    0    0  0.50121516085E+02 -0.38082608495E+02 -0.29285627423E+02  0.11698450946E+03  0.94155594816E+02 0.  0.
        -11    1    3    3    0    0 -0.57426845184E+02  0.26568232209E+02  0.14663332514E+03  0.15970299168E+03  0.00000000000E+00 0. -1.
         11    1    3    3    0    0  0.18667801270E+02  0.49990321646E+02  0.40238080833E+02  0.66832792936E+02  0.00000000000E+00 0.  1.
        -13    1    4    4    0    0  0.26432519156E+02  0.20635158543E+02 -0.40607887849E+02  0.52663919267E+02  0.00000000000E+00 0.  1.
         13    1    4    4    0    0  0.23688996929E+02 -0.58717767038E+02  0.11322260425E+02  0.64320590191E+02  0.00000000000E+00 0. -1.
          1    1    1    2  501    0 -0.11362472171E+02 -0.38475945360E+02  0.22972016961E+02  0.46230052006E+02  0.00000000000E+00 0. -1.
<scales pt_clust_5="13000.00000" pt_clust_6="13000.00000" pt_clust_7="13000.00000" pt_clust_8="13000.00000" pt_clust_9="40.11865"></scales>
<clustering>
<clus scale="   40.119">  2  9  1 -1</clus>
<clus scale="   94.156">  7  8 -1 -1</clus>
<clus scale="   95.048">  5  6 -1 -1</clus>
<clus scale="  123.423">  2  7  1 -1</clus>
<clus scale="   40.119">  2  5  1 -1</clus>
</clustering>
</event>
<event>
 9    1  0.1671478E-005  0.9705393E+02  0.7546771E-02  0.1289258E+00
          1   -1    0    0  502    0 -0.00000000000E+00  0.00000000000E+00  0.72311928684E+03  0.72311928684E+03  0.00000000000E+00 0. -1.
         21   -1    0    0  501  502  0.00000000000E+00 -0.00000000000E+00 -0.26927253123E+02  0.26927253123E+02  0.00000000000E+00 0. -1.
         23    2    1    2    0    0 -0.58889152529E+02  0.11016972322E+02  0.35634916827E+03  0.37283356027E+03  0.91819540242E+02 0.  0.
         23    2    1    2    0    0  0.32784167640E+01  0.24832884607E+02  0.24850201834E+03  0.26442593911E+03  0.86835499536E+02 0.  0.
        -11    1    4    4    0    0 -0.31120613346E+02  0.18123476758E+02  0.20698173553E+03  0.21009138922E+03  0.00000000000E+00 0. -1.
         11    1    4    4    0    0  0.34399030110E+02  0.67094078488E+01  0.41520282819E+02  0.54334549888E+02  0.00000000000E+00 0.  1.
        -13    1    3    3    0    0 -0.25459374330E+02 -0.39781427037E+02  0.18785586878E+03  0.19370226925E+03  0.00000000000E+00 0.  1.
         13    1    3    3    0    0 -0.33429778198E+02  0.50798399358E+02  0.16849329949E+03  0.17913129101E+03  0.00000000000E+00 0. -1.
          1    1    1    2  501    0  0.55610735765E+02 -0.35849856929E+02  0.91340847105E+02  0.11278704059E+03  0.00000000000E+00 0. -1.
<scales pt_clust_5="13000.00000" pt_clust_6="13000.00000" pt_clust_7="13000.00000" pt_clust_8="13000.00000" pt_clust_9="66.16469"></scales>
<clustering>
<clus scale="   66.165">  2  9  1 -1</clus>
<clus scale="   86.835">  5  6 -1 -1</clus>
<clus scale="   91.820">  7  8 -1 -1</clus>
<clus scale="   92.353">  2  5  1 -1</clus>
<clus scale="   66.165">  2  5  1 -1</clus>
</clustering>
</event>
<event>
 9    1  0.1671478E-005  0.1056836E+03  0.7546771E-02  0.1269209E+00
         21   -1    0    0  501  502  0.00000000000E+00  0.00000000000E+00  0.11071805755E+03  0.11071805755E+03  0.00000000000E+00 0. -1.
          1   -1    0    0  502    0 -0.00000000000E+00 -0.00000000000E+00 -0.47375023654E+03  0.47375023654E+03  0.00000000000E+00 0. -1.
         23    2    1    2    0    0 -0.98805168788E+01 -0.12878275986E+02 -0.15562008527E+03  0.18129044317E+03  0.91570405917E+02 0.  0.
         23    2    1    2    0    0  0.32935093351E+02  0.85233224478E+02 -0.27327704401E+03  0.30265450168E+03  0.92574195529E+02 0.  0.
        -11    1    3    3    0    0 -0.21246225192E+02 -0.31008808899E+02 -0.15540963985E+03  0.15989091429E+03  0.00000000000E+00 0.  1.
         11    1    3    3    0    0  0.11365708313E+02  0.18130532913E+02 -0.21044542137E+00  0.21399528883E+02  0.00000000000E+00 0. -1.
        -13    1    4    4    0    0 -0.25871821812E+02  0.19961685756E+02 -0.13444430248E+03  0.13835855786E+03  0.00000000000E+00 0.  1.
         13    1    4    4    0    0  0.58806915163E+02  0.65271538722E+02 -0.13883274152E+03  0.16429594382E+03  0.00000000000E+00 0. -1.
          1    1    1    2  501    0 -0.23054576472E+02 -0.72354948492E+02  0.65864950283E+02  0.10052334924E+03  0.00000000000E+00 0. -1.
<scales pt_clust_5="13000.00000" pt_clust_6="13000.00000" pt_clust_7="13000.00000" pt_clust_8="13000.00000" pt_clust_9="75.93913"></scales>
<clustering>
<clus scale="   75.939">  1  9  2 -1</clus>
<clus scale="   91.570">  5  6 -1 -1</clus>
<clus scale="   92.574">  7  8 -1 -1</clus>
<clus scale="  104.805">  2  5  1 -1</clus>
<clus scale="   75.939">  1  5  2 -1</clus>
</clustering>
</event>
<event>
 9    1  0.1671478E-005  0.1750149E+03  0.7546771E-02  0.1187094E+00
         21   -1    0    0  501  502  0.00000000000E+00  0.00000000000E+00  0.87854295683E+03  0.87854295683E+03  0.00000000000E+00 0.  1.
         -1   -1    0    0    0  501 -0.00000000000E+00 -0.00000000000E+00 -0.20064264535E+03  0.20064264535E+03  0.00000000000E+00 0.  1.
         23    2    1    2    0    0  0.65187638636E+02  0.12302603518E+02 -0.84600972195E+02  0.15232875996E+03  0.10791637657E+03 0.  0.
         23    2    1    2    0    0  0.65783189488E+02  0.72405450053E+02 -0.15194688590E+02  0.13367348546E+03  0.89820626458E+02 0.  0.
        -13    1    3    3    0    0  0.57170233519E+02 -0.40960954481E+02 -0.32813418772E+02  0.77607704799E+02  0.00000000000E+00 0. -1.
         13    1    3    3    0    0  0.80174051162E+01  0.53263557999E+02 -0.51787553423E+02  0.74721055166E+02  0.00000000000E+00 0.  1.
        -13    1    4    4    0    0  0.26471887617E+02  0.80780853767E+02 -0.31000333613E+02  0.90483854104E+02  0.00000000000E+00 0.  1.
         13    1    4    4    0    0  0.39311301871E+02 -0.83754037144E+01  0.15805645023E+02  0.43189631357E+02  0.00000000000E+00 0. -1.
         -1    1    1    2    0  502 -0.13097082812E+03 -0.84708053571E+02  0.77769597226E+03  0.79318335675E+03  0.00000000000E+00 0.  1.
<scales pt_clust_5="13000.00000" pt_clust_6="13000.00000" pt_clust_7="13000.00000" pt_clust_8="13000.00000" pt_clust_9="150.20805"></scales>
<clustering>
<clus scale="   89.821">  7  8 -1 -1</clus>
<clus scale="  107.916">  5  6 -1 -1</clus>
<clus scale="  126.676">  2  5  1 -1</clus>
<clus scale="  150.208">  1  9  2 -1</clus>
<clus scale="  150.208">  1  5  2 -1</clus>
</clustering>
</event>
<event>
 9    1  0.2136942E-005  0.9369362E+02  0.7546771E-02  0.1294767E+00
         21   -1    0    0  501  502  0.00000000000E+00  0.00000000000E+00  0.74905089063E+03  0.74905089063E+03  0.00000000000E+00 0. -1.
          1   -1    0    0  502    0 -0.00000000000E+00 -0.00000000000E+00 -0.99947045635E+02  0.99947045635E+02  0.00000000000E+00 0. -1.
         23    2    1    2    0    0 -0.12034240884E+02  0.56368900681E+01 -0.63937541733E+02  0.11370254080E+03  0.93078789519E+02 0.  0.
         23    2    1    2    0    0 -0.39155849955E+02 -0.25554239127E+02  0.27325388070E+03  0.29209095432E+03  0.91995883358E+02 0.  0.
        -11    1    3    3    0    0 -0.20362722594E+02  0.39506795067E+02 -0.43507612025E+01  0.44658218179E+02  0.00000000000E+00 0.  1.
         11    1    3    3    0    0  0.83284817094E+01 -0.33869904999E+02 -0.59586780530E+02  0.69044322621E+02  0.00000000000E+00 0. -1.
        -11    1    4    4    0    0 -0.19317147510E+02  0.33278063938E+02  0.13806336854E+03  0.14332506919E+03  0.00000000000E+00 0. -1.
         11    1    4    4    0    0 -0.19838702445E+02 -0.58832303065E+02  0.13519051216E+03  0.14876588512E+03  0.00000000000E+00 0.  1.
          1    1    1    2  501    0  0.51190090839E+02  0.19917349059E+02  0.43978750603E+03  0.44320444115E+03  0.00000000000E+00 0. -1.
<scales pt_clust_5="13000.00000" pt_clust_6="13000.00000" pt_clust_7="13000.00000" pt_clust_8="13000.00000" pt_clust_9="54.92837"></scales>
<clustering>
<clus scale="   54.928">  1  9  2 -1</clus>
<clus scale="   91.996">  7  8 -1 -1</clus>
<clus scale="   92.618">  1  7  2 -1</clus>
<clus scale="   93.079">  5  6 -1 -1</clus>
<clus scale="   54.928">  1  5  2 -1</clus>
</clustering>
</event>
<event>
 9    1  0.1671478E-005  0.1392764E+03  0.7546771E-02  0.1214457E+00
         21   -1    0    0  501  502  0.00000000000E+00  0.00000000000E+00  0.84463180030E+02  0.84463180030E+02  0.00000000000E+00 0.  1.
          2   -1    0    0  502    0 -0.00000000000E+00 -0.00000000000E+00 -0.54159479457E+03  0.54159479457E+03  0.00000000000E+00 0. -1.
         23    2    1    2    0    0  0.10428057738E+03  0.27812605212E+02 -0.44107671134E+03  0.46316705691E+03  0.91252821823E+02 0.  0.
         23    2    1    2    0    0 -0.81702793892E+02 -0.47280325178E+02 -0.21529964479E+02  0.13258044550E+03  0.90571847064E+02 0.  0.
        -13    1    4    4    0    0 -0.34098586377E+02 -0.34240431919E+02  0.33392479829E+02  0.58738219926E+02  0.00000000000E+00 0.  1.
         13    1    4    4    0    0 -0.47604207515E+02 -0.13039893258E+02 -0.54922444309E+02  0.73842225577E+02  0.00000000000E+00 0. -1.
        -13    1    3    3    0    0  0.69031232268E+02 -0.25880503895E+02 -0.18476650786E+03  0.19893158104E+03  0.00000000000E+00 0.  1.
         13    1    3    3    0    0  0.35249345113E+02  0.53693109107E+02 -0.25631020348E+03  0.26423547587E+03  0.00000000000E+00 0. -1.
          2    1    1    2  501    0 -0.22577783489E+02  0.19467719966E+02  0.54750612847E+01  0.30310472184E+02  0.00000000000E+00 0. -1.
<scales pt_clust_5="13000.00000" pt_clust_6="13000.00000" pt_clust_7="13000.00000" pt_clust_8="13000.00000" pt_clust_9="29.81188"></scales>
<clustering>
<clus scale="   29.812">  1  9  2 -1</clus>
<clus scale="   90.572">  5  6 -1 -1</clus>
<clus scale="   91.253">  7  8 -1 -1</clus>
<clus scale="  138.831">  1  5  2 -1</clus>
<clus scale="   29.812">  1  5  2 -1</clus>
</clustering>
</event>
<event>
 9    1  0.1671478E-005  0.1244300E+03  0.7546771E-02  0.1236096E+00
         21   -1    0    0  501  502  0.00000000000E+00  0.00000000000E+00  0.62859158571E+02  0.62859158571E+02  0.00000000000E+00 0. -1.
          2   -1    0    0  502    0 -0.00000000000E+00 -0.00000000000E+00 -0.47237114296E+03  0.47237114296E+03  0.00000000000E+00 0. -1.
         23    2    1    2    0    0 -0.65141644575E+02  0.27546402798E+02 -0.19202286048E+03  0.22425849140E+03  0.91743413142E+02 0.  0.
         23    2    1    2    0    0  0.73844053740E+02 -0.72339144379E+02 -0.22580697823E+03  0.26458961178E+03  0.91285131115E+02 0.  0.
        -11    1    4    4    0    0  0.21772737283E+02 -0.64614832162E+01  0.10037536314E+01  0.22733463781E+02  0.00000000000E+00 0.  1.
         11    1    4    4    0    0  0.52071316457E+02 -0.65877661163E+02 -0.22681073186E+03  0.24185614800E+03  0.00000000000E+00 0. -1.
        -13    1    3    3    0    0 -0.67532793446E+02  0.54185870222E+02 -0.12465202453E+03  0.15177257309E+03  0.00000000000E+00 0.  1.
         13    1    3    3    0    0  0.23911488713E+01 -0.26639467424E+02 -0.67370835948E+02  0.72485918315E+02  0.00000000000E+00 0. -1.
          2    1    1    2  501    0 -0.87024091650E+01  0.44792741581E+02  0.83178543123E+01  0.46382198352E+02  0.00000000000E+00 0. -1.
<scales pt_clust_5="13000.00000" pt_clust_6="13000.00000" pt_clust_7="13000.00000" pt_clust_8="13000.00000" pt_clust_9="45.63027"></scales>
<clustering>
<clus scale="   45.630">  1  9  2 -1</clus>
<clus scale="   91.285">  5  6 -1 -1</clus>
<clus scale="   91.743">  7  8 -1 -1</clus>
<clus scale="  124.093">  1  5  2 -1</clus>
<clus scale="   45.630">  1  5  2 -1</clus>
</clustering>
</event>
<event>
 9    1  0.1671478E-005  0.9567727E+02  0.7546771E-02  0.1290341E+00
         21   -1    0    0  501  502  0.00000000000E+00  0.00000000000E+00  0.39906093803E+02  0.39906093803E+02  0.00000000000E+00 0. -1.
         -1   -1    0    0    0  501 -0.00000000000E+00 -0.00000000000E+00 -0.39904993993E+03  0.39904993993E+03  0.00000000000E+00 0.  1.
         23    2    1    2    0    0  0.11553214914E+02 -0.32176923242E+02 -0.25427555764E+03  0.27253557904E+03  0.91927968888E+02 0.  0.
         23    2    1    2    0    0  0.92199368534E+01  0.14596389027E+02 -0.10420452912E+03  0.13919841226E+03  0.90661746503E+02 0.  0.
        -13    1    4    4    0    0  0.38685669681E+02 -0.14934482626E+02 -0.82120342920E+02  0.91996578911E+02  0.00000000000E+00 0.  1.
         13    1    4    4    0    0 -0.29465732828E+02  0.29530871653E+02 -0.22084186202E+02  0.47201833353E+02  0.00000000000E+00 0. -1.
        -13    1    3    3    0    0 -0.33402163878E+02  0.10906496925E+02 -0.76877153784E+02  0.84526640775E+02  0.00000000000E+00 0. -1.
         13    1    3    3    0    0  0.44955378791E+02 -0.43083420167E+02 -0.17739840386E+03  0.18800893827E+03  0.00000000000E+00 0.  1.
         -1    1    1    2    0  502 -0.20773151767E+02  0.17580534215E+02 -0.66375936428E+00  0.27222042431E+02  0.00000000000E+00 0.  1.
<scales pt_clust_5="13000.00000" pt_clust_6="13000.00000" pt_clust_7="13000.00000" pt_clust_8="13000.00000" pt_clust_9="27.21395"></scales>
<clustering>
<clus scale="   27.214">  1  9  2 -1</clus>
<clus scale="   90.662">  5  6 -1 -1</clus>
<clus scale="   91.928">  7  8 -1 -1</clus>
<clus scale="   94.461">  1  5  2 -1</clus>
<clus scale="   27.214">  1  5  2 -1</clus>
</clustering>
</event>
<event>
 9    1  0.1671478E-005  0.1281759E+03  0.7546771E-02  0.1233722E+00
         21   -1    0    0  501  502  0.00000000000E+00  0.00000000000E+00  0.11318144830E+03  0.11318144830E+03  0.00000000000E+00 0. -1.
          3   -1    0    0  502    0 -0.00000000000E+00 -0.00000000000E+00 -0.26274980728E+03  0.26274980728E+03  0.00000000000E+00 0. -1.
         23    2    1    2    0    0  0.73933174179E+02 -0.37365292205E+02 -0.11591074743E+03  0.16194415456E+03  0.76995639617E+02 0.  0.
         23    2    1    2    0    0 -0.92577894800E+02  0.49411984519E+02 -0.81923281846E+02  0.16086155791E+03  0.90292889449E+02 0.  0.
        -11    1    3    3    0    0  0.21099726312E+02 -0.53583731970E+02 -0.64419476671E+02  0.86407660290E+02  0.00000000000E+00 0.  1.
         11    1    3    3    0    0  0.52833447867E+02  0.16218439765E+02 -0.51491270757E+02  0.75536494267E+02  0.00000000000E+00 0. -1.
        -11    1    4    4    0    0 -0.90968776702E+02  0.71856538033E+02 -0.69325715187E+02  0.13507307348E+03  0.00000000000E+00 0. -1.
         11    1    4    4    0    0 -0.16091180971E+01 -0.22444553514E+02 -0.12597566660E+02  0.25788484431E+02  0.00000000000E+00 0.  1.
          3    1    1    2  501    0  0.18644720620E+02 -0.12046692314E+02  0.48265670288E+02  0.53125543113E+02  0.00000000000E+00 0. -1.
<scales pt_clust_5="13000.00000" pt_clust_6="13000.00000" pt_clust_7="13000.00000" pt_clust_8="13000.00000" pt_clust_9="22.19794"></scales>
<clustering>
<clus scale="   22.198">  1  9  2 -1</clus>
<clus scale="   76.996">  5  6 -1 -1</clus>
<clus scale="   90.293">  7  8 -1 -1</clus>
<clus scale="  119.183">  2  5  1 -1</clus>
<clus scale="   22.198">  1  5  2 -1</clus>
</clustering>
</event>
<event>
 9    1  0.1671478E-005  0.1494714E+03  0.7546771E-02  0.1201642E+00
         21   -1    0    0  501  502  0.00000000000E+00  0.00000000000E+00  0.20781114206E+03  0.20781114206E+03  0.00000000000E+00 0.  1.
          3   -1    0    0  502    0 -0.00000000000E+00 -0.00000000000E+00 -0.22143829915E+03  0.22143829915E+03  0.00000000000E+00 0. -1.
         23    2    1    2    0    0 -0.10565413393E+03 -0.79153860858E+02 -0.11499839442E+03  0.19727819567E+03  0.90917138431E+02 0.  0.
         23    2    1    2    0    0  0.69884376687E+02  0.57312831729E+02  0.88719081746E+01  0.13042011565E+03  0.93606137760E+02 0.  0.
        -11    1    4    4    0    0  0.80911761494E+02  0.15602227965E+02 -0.10608433821E+02  0.83082377997E+02  0.00000000000E+00 0.  1.
         11    1    4    4    0    0 -0.11027384807E+02  0.41710603764E+02  0.19480341996E+02  0.47337737655E+02  0.00000000000E+00 0. -1.
        -13    1    3    3    0    0 -0.10618064426E+03 -0.46063365822E+02 -0.11640552078E+03  0.16415361145E+03  0.00000000000E+00 0. -1.
         13    1    3    3    0    0  0.52651032390E+00 -0.33090495036E+02  0.14071263540E+01  0.33124584216E+02  0.00000000000E+00 0.  1.
          3    1    1    2  501    0  0.35769757247E+02  0.21841029129E+02  0.92499329154E+02  0.10155112988E+03  0.00000000000E+00 0. -1.
<scales pt_clust_5="13000.00000" pt_clust_6="13000.00000" pt_clust_7="13000.00000" pt_clust_8="13000.00000" pt_clust_9="41.91069"></scales>
<clustering>
<clus scale="   41.911">  1  9  2 -1</clus>
<clus scale="   90.917">  7  8 -1 -1</clus>
<clus scale="   93.606">  5  6 -1 -1</clus>
<clus scale="  147.802">  2  7  1 -1</clus>
<clus scale="   41.911">  1  5  2 -1</clus>
</clustering>
</event>
<event>
 9    1  0.1671478E-005  0.1129448E+03  0.7546771E-02  0.1257418E+00
         -2   -1    0    0    0  501 -0.00000000000E+00  0.00000000000E+00  0.21920247449E+03  0.21920247449E+03  0.00000000000E+00 0.  1.
         21   -1    0    0  501  502  0.00000000000E+00 -0.00000000000E+00 -0.32961731198E+03  0.32961731198E+03  0.00000000000E+00 0. -1.
         23    2    1    2    0    0  0.50323323204E+02  0.42271563148E+02  0.17649510356E+03  0.21090357937E+03  0.94923528693E+02 0.  0.
         23    2    1    2    0    0 -0.71639107591E+01 -0.42310295004E+02 -0.81947486307E+02  0.12845894599E+03  0.89133762465E+02 0.  0.
        -11    1    3    3    0    0  0.55970287590E+02 -0.14589840526E+02  0.98315586081E+02  0.11406792277E+03  0.00000000000E+00 0. -1.
         11    1    3    3    0    0 -0.56469643855E+01  0.56861403673E+02  0.78179517479E+02  0.96835656592E+02  0.00000000000E+00 0.  1.
        -13    1    4    4    0    0 -0.25225636327E+02 -0.22600632065E+02 -0.93418008424E+02  0.99368232326E+02  0.00000000000E+00 0. -1.
         13    1    4    4    0    0  0.18061725568E+02 -0.19709662938E+02  0.11470522116E+02  0.29090713660E+02  0.00000000000E+00 0.  1.
         -2    1    1    2    0  502 -0.43159412445E+02  0.38731855990E-01 -0.20496245474E+03  0.20945726112E+03  0.00000000000E+00 0.  1.
<scales pt_clust_5="13000.00000" pt_clust_6="13000.00000" pt_clust_7="13000.00000" pt_clust_8="13000.00000" pt_clust_9="43.15943"></scales>
<clustering>
<clus scale="   43.159">  2  9  1 -1</clus>
<clus scale="   89.134">  7  8 -1 -1</clus>
<clus scale="   94.924">  5  6 -1 -1</clus>
<clus scale="  108.124">  2  7  1 -1</clus>
<clus scale="   43.159">  2  5  1 -1</clus>
</clustering>
</event>
<event>
 9    1  0.1671478E-005  0.9654737E+02  0.7546771E-02  0.1288857E+00
         -1   -1    0    0    0  501 -0.00000000000E+00  0.00000000000E+00  0.41651618830E+03  0.41651618830E+03  0.00000000000E+00 0.  1.
         21   -1    0    0  501  502  0.00000000000E+00 -0.00000000000E+00 -0.12215898951E+03  0.12215898951E+03  0.00000000000E+00 0.  1.
         23    2    1    2    0    0 -0.16108147357E+02 -0.39595503873E+02  0.31218237221E+03  0.32812039509E+03  0.91530780712E+02 0.  0.
         23    2    1    2    0    0  0.26838889446E+02 -0.31858591156E+02  0.50770972466E+02  0.11092412601E+03  0.89393368151E+02 0.  0.
        -13    1    3    3    0    0  0.16709990592E+02 -0.46193760745E+02  0.26917591533E+03  0.27362156478E+03  0.00000000000E+00 0.  1.
         13    1    3    3    0    0 -0.32818137949E+02  0.65982568720E+01  0.43006456879E+02  0.54498830313E+02  0.00000000000E+00 0. -1.
        -13    1    4    4    0    0 -0.76769724712E+01 -0.55007952013E+02  0.19321324334E+02  0.58805818292E+02  0.00000000000E+00 0.  1.
         13    1    4    4    0    0  0.34515861917E+02  0.23149360857E+02  0.31449648133E+02  0.52118307721E+02  0.00000000000E+00 0. -1.
         -1    1    1    2    0  502 -0.10730742089E+02  0.71454095029E+02 -0.68596145891E+02  0.99630656694E+02  0.00000000000E+00 0.  1.
<scales pt_clust_5="13000.00000" pt_clust_6="13000.00000" pt_clust_7="13000.00000" pt_clust_8="13000.00000" pt_clust_9="72.25536"></scales>
<clustering>
<clus scale="   72.255">  2  9  1 -1</clus>
<clus scale="   89.393">  7  8 -1 -1</clus>
<clus scale="   91.531">  5  6 -1 -1</clus>
<clus scale="   94.523">  2  7  1 -1</clus>
<clus scale="   72.255">  2  5  1 -1</clus>
</clustering>
</event>
<event>
 9    1  0.1671478E-005  0.1522427E+03  0.7546771E-02  0.1198102E+00
          1   -1    0    0  502    0 -0.00000000000E+00  0.00000000000E+00  0.12804316234E+03  0.12804316234E+03  0.00000000000E+00 0. -1.
         21   -1    0    0  501  502  0.00000000000E+00 -0.00000000000E+00 -0.30310233244E+03  0.30310233244E+03  0.00000000000E+00 0. -1.
         23    2    1    2    0    0  0.21067358930E+02  0.13064425761E+03  0.13659748963E+02  0.16070037166E+03  0.90145798852E+02 0.  0.
         23    2    1    2    0    0 -0.52623425535E+02 -0.89726487279E+02 -0.11468549143E+03  0.18016224726E+03  0.92117348835E+02 0.  0.
        -13    1    4    4    0    0  0.23205417131E+02 -0.17822885996E+02 -0.69542014713E+01  0.30075032296E+02  0.00000000000E+00 0.  1.
         13    1    4    4    0    0 -0.75828842667E+02 -0.71903601283E+02 -0.10773128996E+03  0.15008721496E+03  0.00000000000E+00 0. -1.
        -13    1    3    3    0    0 -0.28406159720E+02  0.77475640257E+02  0.27072083939E+02  0.86846315247E+02  0.00000000000E+00 0.  1.
         13    1    3    3    0    0  0.49473518650E+02  0.53168617350E+02 -0.13412334975E+02  0.73854056408E+02  0.00000000000E+00 0. -1.
          1    1    1    2  501    0  0.31556066605E+02 -0.40917770327E+02 -0.74033427635E+02  0.90282875871E+02  0.00000000000E+00 0. -1.
<scales pt_clust_5="13000.00000" pt_clust_6="13000.00000" pt_clust_7="13000.00000" pt_clust_8="13000.00000" pt_clust_9="51.67252"></scales>
<clustering>
<clus scale="   51.673">  2  9  1 -1</clus>
<clus scale="   90.146">  7  8 -1 -1</clus>
<clus scale="   92.117">  5  6 -1 -1</clus>
<clus scale="  151.058">  1  7  2 -1</clus>
<clus scale="   51.673">  2  5  1 -1</clus>
</clustering>
</event>
<event>
 9    1  0.1671478E-005  0.1310172E+03  0.7546771E-02  0.1227469E+00
         21   -1    0    0  501  502  0.00000000000E+00  0.00000000000E+00  0.17526752673E+03  0.17526752673E+03  0.00000000000E+00 0. -1.
         -1   -1    0    0    0  501 -0.00000000000E+00 -0.00000000000E+00 -0.17765332209E+03  0.17765332209E+03  0.00000000000E+00 0.  1.
         23    2    1    2    0    0  0.78502949283E+02 -0.22668132499E+02 -0.97915508955E+02  0.16105890623E+03  0.98366493816E+02 0.  0.
         23    2    1    2    0    0 -0.98931149180E+02  0.37637095133E+02  0.84517663841E+02  0.16424588869E+03  0.92895388695E+02 0.  0.
        -11    1    3    3    0    0 -0.15210251173E+02 -0.25535152943E+02 -0.71614456217E+01  0.30572570712E+02  0.00000000000E+00 0. -1.
         11    1    3    3    0    0  0.93713200456E+02  0.28670204442E+01 -0.90754063334E+02  0.13048633552E+03  0.00000000000E+00 0.  1.
        -13    1    4    4    0    0 -0.60413199045E+02 -0.24610909905E+02  0.24848359403E+02  0.69806106253E+02  0.00000000000E+00 0.  1.
         13    1    4    4    0    0 -0.38517950135E+02  0.62248005038E+02  0.59669304438E+02  0.94439782432E+02  0.00000000000E+00 0. -1.
         -1    1    1    2    0  502  0.20428199897E+02 -0.14968962634E+02  0.11012049752E+02  0.27616053902E+02  0.00000000000E+00 0.  1.
<scales pt_clust_5="13000.00000" pt_clust_6="13000.00000" pt_clust_7="13000.00000" pt_clust_8="13000.00000" pt_clust_9="25.32550"></scales>
<clustering>
<clus scale="   25.326">  1  9  2 -1</clus>
<clus scale="   92.895">  7  8 -1 -1</clus>
<clus scale="   98.366">  5  6 -1 -1</clus>
<clus scale="  126.961">  1  7  2 -1</clus>
<clus scale="   25.326">  1  5  2 -1</clus>
</clustering>
</event>
<event>
 9    1  0.1671478E-005  0.9907525E+02  0.7546771E-02  0.1283916E+00
         21   -1    0    0  501  502  0.00000000000E+00  0.00000000000E+00  0.31505020949E+03  0.31505020949E+03  0.00000000000E+00 0.  1.
         -2   -1    0    0    0  501 -0.00000000000E+00 -0.00000000000E+00 -0.87357661315E+02  0.87357661315E+02  0.00000000000E+00 0.  1.
         23    2    1    2    0    0 -0.33344944759E+02 -0.17781674832E+02 -0.30213278401E+02  0.10332232379E+03  0.91293959821E+02 0.  0.
         23    2    1    2    0    0  0.18490685750E+02  0.46515699723E+02  0.11782394954E+03  0.15531758998E+03  0.87951434850E+02 0.  0.
        -11    1    4    4    0    0 -0.30477238948E+02 -0.12008290561E+01  0.52721466651E+02  0.60908596521E+02  0.00000000000E+00 0. -1.
         11    1    4    4    0    0  0.48967924697E+02  0.47716528779E+02  0.65102482890E+02  0.94408993462E+02  0.00000000000E+00 0.  1.
        -11    1    3    3    0    0 -0.56719961896E+02  0.11723462449E+02 -0.30956502644E+02  0.65672663303E+02  0.00000000000E+00 0.  1.
         11    1    3    3    0    0  0.23375017138E+02 -0.29505137282E+02  0.74322424343E+00  0.37649660483E+02  0.00000000000E+00 0. -1.
         -2    1    1    2    0  502  0.14854259009E+02 -0.28734024891E+02  0.14008187703E+03  0.14376795703E+03  0.00000000000E+00 0.  1.
<scales pt_clust_5="13000.00000" pt_clust_6="13000.00000" pt_clust_7="13000.00000" pt_clust_8="13000.00000" pt_clust_9="32.34646"></scales>
<clustering>
<clus scale="   32.346">  1  9  2 -1</clus>
<clus scale="   87.951">  5  6 -1 -1</clus>
<clus scale="   91.294">  7  8 -1 -1</clus>
<clus scale="   96.004">  1  5  2 -1</clus>
<clus scale="   32.346">  1  5  2 -1</clus>
</clustering>
</event>
<event>
 9    1  0.1671478E-005  0.1035783E+03  0.7546771E-02  0.1275825E+00
          2   -1    0    0  502    0 -0.00000000000E+00  0.00000000000E+00  0.17088988557E+03  0.17088988557E+03  0.00000000000E+00 0. -1.
         21   -1    0    0  501  502  0.00000000000E+00 -0.00000000000E+00 -0.78266002558E+02  0.78266002558E+02  0.00000000000E+00 0.  1.
         23    2    1    2    0    0  0.17711683010E+02  0.31729092305E+02  0.54657191490E+02  0.11913926406E+03  0.99429958490E+02 0.  0.
         23    2    1    2    0    0  0.79728665545E+01 -0.24530878722E+02  0.24542416306E+02  0.10015491732E+03  0.93612748346E+02 0.  0.
        -11    1    4    4    0    0 -0.58976334078E+01  0.24656417177E+02  0.39472901231E+02  0.46913014392E+02  0.00000000000E+00 0. -1.
         11    1    4    4    0    0  0.13870499962E+02 -0.49187295898E+02 -0.14930484925E+02  0.53241902925E+02  0.00000000000E+00 0.  1.
        -13    1    3    3    0    0 -0.30000789004E+02 -0.19558153808E+02  0.18502010038E+02  0.40309962747E+02  0.00000000000E+00 0. -1.
         13    1    3    3    0    0  0.47712472013E+02  0.51287246112E+02  0.36155181452E+02  0.78829301311E+02  0.00000000000E+00 0.  1.
          2    1    1    2  501    0 -0.25684549564E+02 -0.71982135830E+01  0.13424275218E+02  0.29861706753E+02  0.00000000000E+00 0. -1.
<scales pt_clust_5="13000.00000" pt_clust_6="13000.00000" pt_clust_7="13000.00000" pt_clust_8="13000.00000" pt_clust_9="26.67416"></scales>
<clustering>
<clus scale="   26.674">  2  9  1 -1</clus>
<clus scale="   93.613">  5  6 -1 -1</clus>
<clus scale="   98.008">  2  5  1 -1</clus>
<clus scale="   99.430">  7  8 -1 -1</clus>
<clus scale="   26.674">  2  5  1 -1</clus>
</clustering>
</event>
<event>
 9    1  0.1671478E-005  0.9473006E+02  0.7546771E-02  0.1295352E+00
          1   -1    0    0  502    0 -0.00000000000E+00  0.00000000000E+00  0.59760451768E+03  0.59760451768E+03  0.00000000000E+00 0. -1.
         21   -1    0    0  501  502  0.00000000000E+00 -0.00000000000E+00 -0.35455848282E+02  0.35455848282E+02  0.00000000000E+00 0.  1.
         23    2    1    2    0    0 -0.28897173648E+02  0.10392740451E+02  0.35369346722E+03  0.36724162832E+03  0.93937687384E+02 0.  0.
         23    2    1    2    0    0 -0.11505133096E+02  0.13507589346E+02  0.19858511558E+03  0.21785009410E+03  0.87794033448E+02 0.  0.
        -13    1    3    3    0    0 -0.44836289210E+01 -0.40839278448E+02  0.12345007679E+03  0.13010715219E+03  0.00000000000E+00 0.  1.
         13    1    3    3    0    0 -0.24413544727E+02  0.51232018899E+02  0.23024339043E+03  0.23713447612E+03  0.00000000000E+00 0. -1.
        -13    1    4    4    0    0  0.92427627828E+01 -0.35191683806E+02  0.73020195968E+02  0.81583284392E+02  0.00000000000E+00 0.  1.
         13    1    4    4    0    0 -0.20747895879E+02  0.48699273152E+02  0.12556491962E+03  0.13626680971E+03  0.00000000000E+00 0. -1.
          1    1    1    2  501    0  0.40402306744E+02 -0.23900329797E+02  0.98700865890E+01  0.47968643549E+02  0.00000000000E+00 0. -1.
<scales pt_clust_5="13000.00000" pt_clust_6="13000.00000" pt_clust_7="13000.00000" pt_clust_8="13000.00000" pt_clust_9="46.94222"></scales>
<clustering>
<clus scale="   46.942">  2  9  1 -1</clus>
<clus scale="   87.794">  7  8 -1 -1</clus>
<clus scale="   88.641">  2  7  1 -1</clus>
<clus scale="   93.938">  5  6 -1 -1</clus>
<clus scale="   46.942">  2  5  1 -1</clus>
</clustering>
</event>
<event>
 9    1  0.1671478E-005  0.8910963E+02  0.7546771E-02  0.1308718E+00
         -2   -1    0    0    0  501 -0.00000000000E+00  0.00000000000E+00  0.18746876884E+03  0.18746876884E+03  0.00000000000E+00 0.  1.
         21   -1    0    0  501  502  0.00000000000E+00 -0.00000000000E+00 -0.33929688037E+03  0.33929688037E+03  0.00000000000E+00 0.  1.
         23    2    1    2    0    0  0.10716550333E+02  0.28686820080E+01  0.15648717301E+03  0.17714073462E+03  0.82265003234E+02 0.  0.
         23    2    1    2    0    0 -0.30074557430E+02 -0.49706125713E+02 -0.15020601275E+03  0.18359172394E+03  0.88141346105E+02 0.  0.
        -11    1    4    4    0    0 -0.29755445710E+02  0.81558850785E+01 -0.10858161697E+02  0.32707868874E+02  0.00000000000E+00 0.  1.
         11    1    4    4    0    0 -0.31911172048E+00 -0.57862010792E+02 -0.13934785106E+03  0.15088385506E+03  0.00000000000E+00 0. -1.
        -13    1    3    3    0    0 -0.16654180343E+02 -0.25551517201E+02  0.11852672623E+03  0.12238801651E+03  0.00000000000E+00 0. -1.
         13    1    3    3    0    0  0.27370730676E+02  0.28420199209E+02  0.37960446786E+02  0.54752718115E+02  0.00000000000E+00 0.  1.
         -2    1    1    2    0  502  0.19358007097E+02  0.46837443705E+02 -0.15810927178E+03  0.16603319065E+03  0.00000000000E+00 0.  1.
<scales pt_clust_5="13000.00000" pt_clust_6="13000.00000" pt_clust_7="13000.00000" pt_clust_8="13000.00000" pt_clust_9="50.68016"></scales>
<clustering>
<clus scale="   50.680">  2  9  1 -1</clus>
<clus scale="   82.265">  7  8 -1 -1</clus>
<clus scale="   83.302">  1  7  2 -1</clus>
<clus scale="   88.141">  5  6 -1 -1</clus>
<clus scale="   50.680">  2  5  1 -1</clus>
</clustering>
</event>
<event>
 9    1  0.1671478E-005  0.1234371E+03  0.7546771E-02  0.1243842E+00
         21   -1    0    0  501  502  0.00000000000E+00  0.00000000000E+00  0.53545056517E+02  0.53545056517E+02  0.00000000000E+00 0. -1.
         -3   -1    0    0    0  501 -0.00000000000E+00 -0.00000000000E+00 -0.57670196559E+03  0.57670196559E+03  0.00000000000E+00 0.  1.
         23    2    1    2    0    0 -0.48053963013E+02  0.19142685851E+02 -0.38739789931E+03  0.40149917515E+03  0.91917514513E+02 0.  0.
         23    2    1    2    0    0  0.79791540144E+02 -0.20355563635E+02 -0.14123816671E+03  0.19651795344E+03  0.10904149412E+03 0.  0.
        -11    1    3    3    0    0 -0.63747361987E+02 -0.13795464631E+02 -0.19345183988E+03  0.20415106014E+03  0.00000000000E+00 0. -1.
         11    1    3    3    0    0  0.15693398974E+02  0.32938150482E+02 -0.19394605943E+03  0.19734811501E+03  0.00000000000E+00 0.  1.
        -13    1    4    4    0    0  0.46493902301E+02  0.42707536611E+02 -0.83973797524E+02  0.10505815202E+03  0.00000000000E+00 0.  1.
         13    1    4    4    0    0  0.33297637843E+02 -0.63063100246E+02 -0.57264369184E+02  0.91459801425E+02  0.00000000000E+00 0. -1.
         -3    1    1    2    0  502 -0.31737577132E+02  0.12128777840E+01  0.54791569516E+01  0.32229893509E+02  0.00000000000E+00 0.  1.
<scales pt_clust_5="13000.00000" pt_clust_6="13000.00000" pt_clust_7="13000.00000" pt_clust_8="13000.00000" pt_clust_9="31.76074"></scales>
<clustering>
<clus scale="   31.761">  1  9  2 -1</clus>
<clus scale="   91.918">  5  6 -1 -1</clus>
<clus scale="  108.607">  2  5  1 -1</clus>
<clus scale="  109.041">  7  8 -1 -1</clus>
<clus scale="   31.761">  1  5  2 -1</clus>
</clustering>
</event>
<event>
 9    1  0.1671478E-005  0.7803419E+02  0.7546771E-02  0.1337511E+00
         -2   -1    0    0    0  501 -0.00000000000E+00  0.00000000000E+00  0.48797614331E+03  0.48797614331E+03  0.00000000000E+00 0.  1.
         21   -1    0    0  501  502  0.00000000000E+00 -0.00000000000E+00 -0.35213358229E+02  0.35213358229E+02  0.00000000000E+00 0.  1.
         23    2    1    2    0    0  0.15752141894E+02  0.97587716322E+01  0.18277985269E+03  0.19753837653E+03  0.72591818098E+02 0.  0.
         23    2    1    2    0    0  0.48076149235E+02 -0.34328804388E+02  0.85762361681E+02  0.12914423981E+03  0.76375840807E+02 0.  0.
        -13    1    4    4    0    0 -0.19000853659E+02 -0.20100182828E+02  0.19965333557E+02  0.34112524584E+02  0.00000000000E+00 0. -1.
         13    1    4    4    0    0  0.67077002894E+02 -0.14228621560E+02  0.65797028124E+02  0.95031715225E+02  0.00000000000E+00 0.  1.
        -13    1    3    3    0    0 -0.31207994026E+01  0.39228732340E+02  0.84507738733E+02  0.93221192525E+02  0.00000000000E+00 0.  1.
         13    1    3    3    0    0  0.18872941297E+02 -0.29469960708E+02  0.98272113956E+02  0.10431718400E+03  0.00000000000E+00 0. -1.
         -2    1    1    2    0  502 -0.63828291129E+02  0.24570032756E+02  0.18422057071E+03  0.19650688520E+03  0.00000000000E+00 0.  1.
<scales pt_clust_5="13000.00000" pt_clust_6="13000.00000" pt_clust_7="13000.00000" pt_clust_8="13000.00000" pt_clust_9="68.39402"></scales>
<clustering>
<clus scale="   68.394">  2  9  1 -1</clus>
<clus scale="   72.592">  7  8 -1 -1</clus>
<clus scale="   74.335">  1  7  2 -1</clus>
<clus scale="   76.376">  5  6 -1 -1</clus>
<clus scale="   68.394">  2  5  1 -1</clus>
</clustering>
</event>
<event>
 9    1  0.1671478E-005  0.2454929E+03  0.7546771E-02  0.1154957E+00
          1   -1    0    0  502    0 -0.00000000000E+00  0.00000000000E+00  0.12388507955E+04  0.12388507955E+04  0.00000000000E+00 0. -1.
         21   -1    0    0  501  502  0.00000000000E+00 -0.00000000000E+00 -0.15315399626E+03  0.15315399626E+03  0.00000000000E+00 0. -1.
         23    2    1    2    0    0 -0.20501725505E+02  0.10014529073E+02  0.21692770033E+03  0.23706551856E+03  0.92853763402E+02 0.  0.
         23    2    1    2    0    0 -0.51693313376E+02  0.20704264855E+03  0.89490906144E+03  0.92470191818E+03  0.93126539046E+02 0.  0.
        -11    1    4    4    0    0 -0.40474499858E+02  0.13272563732E+03  0.73534983638E+03  0.74832724246E+03  0.00000000000E+00 0.  1.
         11    1    4    4    0    0 -0.11218813518E+02  0.74317011229E+02  0.15955922506E+03  0.17637467573E+03  0.00000000000E+00 0. -1.
        -11    1    3    3    0    0  0.19232813585E+02  0.40808949093E+02  0.11086020484E+03  0.11968816342E+03  0.00000000000E+00 0.  1.
         11    1    3    3    0    0 -0.39734539090E+02 -0.30794420020E+02  0.10606749549E+03  0.11737735514E+03  0.00000000000E+00 0. -1.
          1    1    1    2  501    0  0.72195038881E+02 -0.21705717762E+03 -0.26139962547E+02  0.23023735500E+03  0.00000000000E+00 0. -1.
<scales pt_clust_5="13000.00000" pt_clust_6="13000.00000" pt_clust_7="13000.00000" pt_clust_8="13000.00000" pt_clust_9="227.14364"></scales>
<clustering>
<clus scale="   92.854">  7  8 -1 -1</clus>
<clus scale="   93.127">  5  6 -1 -1</clus>
<clus scale="   95.616">  1  7  2 -1</clus>
<clus scale="  227.144">  2  9  1 -1</clus>
<clus scale="  227.144">  2  5  1 -1</clus>
</clustering>
</event>
<event>
 9    1  0.1671478E-005  0.1150014E+03  0.7546771E-02  0.1253128E+00
          1   -1    0    0  502    0 -0.00000000000E+00  0.00000000000E+00  0.15342494472E+03  0.15342494472E+03  0.00000000000E+00 0. -1.
         21   -1    0    0  501  502  0.00000000000E+00 -0.00000000000E+00 -0.13540235394E+03  0.13540235394E+03  0.00000000000E+00 0. -1.
         23    2    1    2    0    0 -0.50966153335E+02 -0.15706514728E+02  0.29686118033E+02  0.11346193527E+03  0.95645709583E+02 0.  0.
         23    2    1    2    0    0  0.64852654386E+02  0.40478398967E+02  0.31896901684E+02  0.12336543906E+03  0.91418005081E+02 0.  0.
        -11    1    4    4    0    0  0.44543253459E+02  0.69933989199E+02  0.17166495418E+02  0.84673212051E+02  0.00000000000E+00 0. -1.
         11    1    4    4    0    0  0.20309400926E+02 -0.29455590232E+02  0.14730406266E+02  0.38692227006E+02  0.00000000000E+00 0.  1.
        -13    1    3    3    0    0 -0.33439572400E+02 -0.38480418289E+02 -0.21048209314E+02  0.55154099660E+02  0.00000000000E+00 0.  1.
         13    1    3    3    0    0 -0.17526580936E+02  0.22773903561E+02  0.50734327347E+02  0.58307835614E+02  0.00000000000E+00 0. -1.
          1    1    1    2  501    0 -0.13886501050E+02 -0.24771884239E+02 -0.43560428945E+02  0.51999924327E+02  0.00000000000E+00 0. -1.
<scales pt_clust_5="13000.00000" pt_clust_6="13000.00000" pt_clust_7="13000.00000" pt_clust_8="13000.00000" pt_clust_9="28.39861"></scales>
<clustering>
<clus scale="   28.399">  2  9  1 -1</clus>
<clus scale="   91.418">  5  6 -1 -1</clus>
<clus scale="   95.646">  7  8 -1 -1</clus>
<clus scale="  111.510">  2  5  1 -1</clus>
<clus scale="   28.399">  2  5  1 -1</clus>
</clustering>
</event>
<event>
 9    1  0.1671478E-005  0.1157715E+03  0.7546771E-02  0.1250977E+00
          1   -1    0    0  502    0 -0.00000000000E+00  0.00000000000E+00  0.14672560588E+03  0.14672560588E+03  0.00000000000E+00 0. -1.
         21   -1    0    0  501  502  0.00000000000E+00 -0.00000000000E+00 -0.21148489142E+03  0.21148489142E+03  0.00000000000E+00 0. -1.
         23    2    1    2    0    0  0.32341163048E+02  0.54276680663E+02  0.44955390247E+02  0.12054619266E+03  0.92295658408E+02 0.  0.
         23    2    1    2    0    0  0.84943424501E+01 -0.10674394234E+03 -0.96100963238E+02  0.16979910571E+03  0.90166058383E+02 0.  0.
        -11    1    4    4    0    0 -0.34421838641E+02 -0.39675759838E+02 -0.11791944475E+02  0.53833807674E+02  0.00000000000E+00 0.  1.
         11    1    4    4    0    0  0.42916181091E+02 -0.67068182502E+02 -0.84309018762E+02  0.11596529803E+03  0.00000000000E+00 0. -1.
        -13    1    3    3    0    0  0.23749908593E+02 -0.23050114971E+02  0.20759034936E+02  0.39067934292E+02  0.00000000000E+00 0.  1.
         13    1    3    3    0    0  0.85912544548E+01  0.77326795634E+02  0.24196355311E+02  0.81478258366E+02  0.00000000000E+00 0. -1.
          1    1    1    2  501    0 -0.40835505498E+02  0.52467261677E+02 -0.13613712541E+02  0.67865198934E+02  0.00000000000E+00 0. -1.
<scales pt_clust_5="13000.00000" pt_clust_6="13000.00000" pt_clust_7="13000.00000" pt_clust_8="13000.00000" pt_clust_9="66.48573"></scales>
<clustering>
<clus scale="   66.486">  2  9  1 -1</clus>
<clus scale="   90.166">  5  6 -1 -1</clus>
<clus scale="   92.296">  7  8 -1 -1</clus>
<clus scale="  114.081">  2  5  1 -1</clus>
<clus scale="   66.486">  2  5  1 -1</clus>
</clustering>
</event>
<event>
 9    1  0.1671478E-005  0.1030364E+03  0.7546771E-02  0.1275822E+00
         21   -1    0    0  501  502  0.00000000000E+00  0.00000000000E+00  0.77775052148E+02  0.77775052148E+02  0.00000000000E+00 0. -1.
         -2   -1    0    0    0  501 -0.00000000000E+00 -0.00000000000E+00 -0.25040792969E+03  0.25040792969E+03  0.00000000000E+00 0.  1.
         23    2    1    2    0    0  0.23718193431E-01 -0.34746702395E+02 -0.16202248849E+03  0.19097775742E+03  0.94941472300E+02 0.  0.
         23    2    1    2    0    0 -0.73309316480E+01  0.59748742998E+02 -0.45352273045E+00  0.10924705323E+03  0.91165004843E+02 0.  0.
        -11    1    3    3    0    0 -0.17342435472E+02  0.29475523250E+02 -0.62958550907E+02  0.71647370302E+02  0.00000000000E+00 0. -1.
         11    1    3    3    0    0  0.17366153665E+02 -0.64222225645E+02 -0.99063937583E+02  0.11933038712E+03  0.00000000000E+00 0.  1.
        -13    1    4    4    0    0 -0.48237614016E+02  0.34875482923E+02 -0.10193778494E+02  0.60391057575E+02  0.00000000000E+00 0.  1.
         13    1    4    4    0    0  0.40906682368E+02  0.24873260074E+02  0.97402557638E+01  0.48855995655E+02  0.00000000000E+00 0. -1.
         -2    1    1    2    0  502  0.73072134546E+01 -0.25002040603E+02 -0.10156866321E+02  0.27958171189E+02  0.00000000000E+00 0.  1.
<scales pt_clust_5="13000.00000" pt_clust_6="13000.00000" pt_clust_7="13000.00000" pt_clust_8="13000.00000" pt_clust_9="26.04798"></scales>
<clustering>
<clus scale="   26.048">  1  9  2 -1</clus>
<clus scale="   91.165">  7  8 -1 -1</clus>
<clus scale="   94.941">  5  6 -1 -1</clus>
<clus scale="   99.567">  1  7  2 -1</clus>
<clus scale="   26.048">  1  5  2 -1</clus>
</clustering>
</event>
<event>
 9    1  0.1671478E-005  0.9881779E+02  0.7546771E-02  0.1283547E+00
         21   -1    0    0  501  502  0.00000000000E+00  0.00000000000E+00  0.70782118590E+02  0.70782118590E+02  0.00000000000E+00 0. -1.
         -2   -1    0    0    0  501 -0.00000000000E+00 -0.00000000000E+00 -0.31325579891E+03  0.31325579891E+03  0.00000000000E+00 0.  1.
         23    2    1    2    0    0 -0.15535804921E+02  0.28449853080E+02 -0.22471413905E+03  0.24478513207E+03  0.91501700641E+02 0.  0.
         23    2    1    2    0    0  0.23084360835E+02 -0.51975316808E+02 -0.31438874637E+02  0.11101181694E+03  0.90004996468E+02 0.  0.
        -11    1    4    4    0    0  0.29037452127E+02 -0.55020621825E+01 -0.52026763405E+02  0.59835026738E+02  0.00000000000E+00 0.  1.
         11    1    4    4    0    0 -0.59530912925E+01 -0.46473254625E+02  0.20587888768E+02  0.51176790201E+02  0.00000000000E+00 0. -1.
        -11    1    3    3    0    0 -0.42057754167E+02  0.13831468679E+02 -0.20235434562E+03  0.20714112436E+03  0.00000000000E+00 0.  1.
         11    1    3    3    0    0  0.26521949246E+02  0.14618384401E+02 -0.22359793433E+02  0.37644007713E+02  0.00000000000E+00 0. -1.
         -2    1    1    2    0  502 -0.75485559141E+01  0.23525463727E+02  0.13679333364E+02  0.28240968490E+02  0.00000000000E+00 0.  1.
<scales pt_clust_5="13000.00000" pt_clust_6="13000.00000" pt_clust_7="13000.00000" pt_clust_8="13000.00000" pt_clust_9="24.70684"></scales>
<clustering>
<clus scale="   24.707">  1  9  2 -1</clus>
<clus scale="   90.005">  5  6 -1 -1</clus>
<clus scale="   91.502">  7  8 -1 -1</clus>
<clus scale="   97.434">  1  5  2 -1</clus>
<clus scale="   24.707">  1  5  2 -1</clus>
</clustering>
</event>
<event>
 9    1  0.1671478E-005  0.9938404E+02  0.7546771E-02  0.1281652E+00
         21   -1    0    0  501  502  0.00000000000E+00  0.00000000000E+00  0.17900263323E+03  0.17900263323E+03  0.00000000000E+00 0.  1.
          1   -1    0    0  502    0 -0.00000000000E+00 -0.00000000000E+00 -0.11001263682E+03  0.11001263682E+03  0.00000000000E+00 0. -1.
         23    2    1    2    0    0  0.26883317702E+02 -0.18370456305E+02 -0.20191992095E+02  0.99364886372E+02  0.91681392132E+02 0.  0.
         23    2    1    2    0    0 -0.11916263020E+01  0.64334612705E+02  0.44573191460E+02  0.12063798294E+03  0.91795376605E+02 0.  0.
        -11    1    4    4    0    0 -0.22761569373E+02  0.58415017044E+02 -0.82888565147E+01  0.63238504085E+02  0.00000000000E+00 0. -1.
         11    1    4    4    0    0  0.21569943071E+02  0.59195956603E+01  0.52862047975E+02  0.57399478856E+02  0.00000000000E+00 0.  1.
        -13    1    3    3    0    0  0.60908092782E+02 -0.11477667320E+02 -0.18177009279E+02  0.64590527787E+02  0.00000000000E+00 0.  1.
         13    1    3    3    0    0 -0.34024775080E+02 -0.68927889845E+01 -0.20149828164E+01  0.34774358585E+02  0.00000000000E+00 0. -1.
          1    1    1    2  501    0 -0.25691691400E+02 -0.45964156400E+02  0.44608797046E+02  0.69012400729E+02  0.00000000000E+00 0. -1.
<scales pt_clust_5="13000.00000" pt_clust_6="13000.00000" pt_clust_7="13000.00000" pt_clust_8="13000.00000" pt_clust_9="52.65707"></scales>
<clustering>
<clus scale="   52.657">  1  9  2 -1</clus>
<clus scale="   91.681">  7  8 -1 -1</clus>
<clus scale="   91.795">  5  6 -1 -1</clus>
<clus scale="   99.279">  2  7  1 -1</clus>
<clus scale="   52.657">  1  5  2 -1</clus>
</clustering>
</event>
<event>
 9    1  0.1671478E-005  0.1160958E+03  0.7546771E-02  0.1250788E+00
         21   -1    0    0  501  502  0.00000000000E+00  0.00000000000E+00  0.31394393255E+03  0.31394393255E+03  0.00000000000E+00 0. -1.
         -1   -1    0    0    0  501 -0.00000000000E+00 -0.00000000000E+00 -0.58095167429E+02  0.58095167429E+02  0.00000000000E+00 0.  1.
         23    2    1    2    0    0  0.63463439767E+02 -0.40142422565E+02  0.77067949213E+02  0.14029253401E+03  0.90019464711E+02 0.  0.
         23    2    1    2    0    0 -0.60296499151E+02  0.19886845652E+02  0.10127203438E+03  0.15157219897E+03  0.93203820277E+02 0.  0.
        -13    1    3    3    0    0  0.40348876868E+01 -0.43981815862E+02  0.16504895245E+01  0.44197336581E+02  0.00000000000E+00 0. -1.
         13    1    3    3    0    0  0.59428552080E+02  0.38393932975E+01  0.75417459689E+02  0.96095197430E+02  0.00000000000E+00 0.  1.
        -13    1    4    4    0    0 -0.37243303709E+02 -0.13049086141E+02  0.10404178496E+03  0.11127459431E+03  0.00000000000E+00 0. -1.
         13    1    4    4    0    0 -0.23053195442E+02  0.32935931793E+02 -0.27697505864E+01  0.40297604662E+02  0.00000000000E+00 0.  1.
         -1    1    1    2    0  502 -0.31669406154E+01  0.20255576912E+02  0.77508781533E+02  0.80174366998E+02  0.00000000000E+00 0.  1.
<scales pt_clust_5="13000.00000" pt_clust_6="13000.00000" pt_clust_7="13000.00000" pt_clust_8="13000.00000" pt_clust_9="20.50166"></scales>
<clustering>
<clus scale="   20.502">  1  9  2 -1</clus>
<clus scale="   90.019">  5  6 -1 -1</clus>
<clus scale="   93.204">  7  8 -1 -1</clus>
<clus scale="  113.555">  2  5  1 -1</clus>
<clus scale="   20.502">  1  5  2 -1</clus>
</clustering>
</event>
<event>
 9    1  0.1671478E-005  0.1027817E+03  0.7546771E-02  0.1276481E+00
         -2   -1    0    0    0  501 -0.00000000000E+00  0.00000000000E+00  0.44575873179E+02  0.44575873179E+02  0.00000000000E+00 0.  1.
         21   -1    0    0  501  502  0.00000000000E+00 -0.00000000000E+00 -0.41266809290E+03  0.41266809290E+03  0.00000000000E+00 0.  1.
         23    2    1    2    0    0  0.48823138801E+02 -0.40378504861E+02 -0.12149795785E+03  0.16527903337E+03  0.92419059589E+02 0.  0.
         23    2    1    2    0    0 -0.33254855480E+01  0.15076471344E+01 -0.15207396209E+03  0.18009417199E+03  0.96405855548E+02 0.  0.
        -11    1    4    4    0    0 -0.42649158607E+01 -0.45651206873E+02 -0.98921416896E+02  0.10903058707E+03  0.00000000000E+00 0.  1.
         11    1    4    4    0    0  0.93943031266E+00  0.47158854007E+02 -0.53152545193E+02  0.71063584916E+02  0.00000000000E+00 0. -1.
        -11    1    3    3    0    0  0.75840580844E+02 -0.24628881095E+02 -0.76660600399E+02  0.11061294291E+03  0.00000000000E+00 0.  1.
         11    1    3    3    0    0 -0.27017442043E+02 -0.15749623766E+02 -0.44837357447E+02  0.54666090460E+02  0.00000000000E+00 0. -1.
         -2    1    1    2    0  502 -0.45497653253E+02  0.38870857726E+02 -0.94520299785E+02  0.11187076072E+03  0.00000000000E+00 0.  1.
<scales pt_clust_5="13000.00000" pt_clust_6="13000.00000" pt_clust_7="13000.00000" pt_clust_8="13000.00000" pt_clust_9="59.84129"></scales>
<clustering>
<clus scale="   59.841">  2  9  1 -1</clus>
<clus scale="   92.419">  7  8 -1 -1</clus>
<clus scale="   96.406">  5  6 -1 -1</clus>
<clus scale="   99.052">  1  7  2 -1</clus>
<clus scale="   59.841">  2  5  1 -1</clus>
</clustering>
</event>
<event>
 9    1  0.1671478E-005  0.1934403E+03  0.7546771E-02  0.1155560E+00
          1   -1    0    0  502    0 -0.00000000000E+00  0.00000000000E+00  0.92236357214E+03  0.92236357214E+03  0.00000000000E+00 0. -1.
         21   -1    0    0  501  502  0.00000000000E+00 -0.00000000000E+00 -0.94029146421E+02  0.94029146421E+02  0.00000000000E+00 0. -1.
         23    2    1    2    0    0 -0.18393690680E+03 -0.89160628190E+02  0.71509015658E+03  0.74931131682E+03  0.91274937275E+02 0.  0.
         23    2    1    2    0    0  0.77994457519E+02  0.44700346663E+02  0.57797474979E+02  0.13950841802E+03  0.89670475563E+02 0.  0.
        -11    1    3    3    0    0  0.12664746058E+01 -0.28809290661E+02  0.81254654786E+02  0.86220056314E+02  0.00000000000E+00 0.  1.
         11    1    3    3    0    0 -0.18520338140E+03 -0.60351337529E+02  0.63383550180E+03  0.66309126051E+03  0.00000000000E+00 0. -1.
        -11    1    4    4    0    0  0.91298793490E+01  0.52176979864E+02  0.44039909046E+02  0.68886177957E+02  0.00000000000E+00 0.  1.
         11    1    4    4    0    0  0.68864578170E+02 -0.74766332005E+01  0.13757565932E+02  0.70622240059E+02  0.00000000000E+00 0. -1.
          1    1    1    2  501    0  0.10594244928E+03  0.44460281526E+02  0.55446794151E+02  0.12757298372E+03  0.00000000000E+00 0. -1.
<scales pt_clust_5="13000.00000" pt_clust_6="13000.00000" pt_clust_7="13000.00000" pt_clust_8="13000.00000" pt_clust_9="114.89351"></scales>
<clustering>
<clus scale="   89.670">  7  8 -1 -1</clus>
<clus scale="   91.275">  5  6 -1 -1</clus>
<clus scale="  114.894">  2  9  1 -1</clus>
<clus scale="  192.688">  2  7  1 -1</clus>
<clus scale="  114.894">  2  5  1 -1</clus>
</clustering>
</event>
<event>
 9    1  0.1671478E-005  0.1107868E+03  0.7546771E-02  0.1271971E+00
         21   -1    0    0  501  502  0.00000000000E+00  0.00000000000E+00  0.29712601150E+02  0.29712601150E+02  0.00000000000E+00 0.  1.
         -1   -1    0    0    0  501 -0.00000000000E+00 -0.00000000000E+00 -0.62661434375E+03  0.62661434375E+03  0.00000000000E+00 0.  1.
         23    2    1    2    0    0  0.58802510344E+01  0.44067948801E+01 -0.34295584024E+03  0.36028169052E+03  0.11013714619E+03 0.  0.
         23    2    1    2    0    0  0.19151554591E+02  0.40820440838E+02 -0.13171435574E+03  0.16333261319E+03  0.85415341656E+02 0.  0.
        -11    1    3    3    0    0  0.14381874073E+02 -0.51607992001E+02 -0.17612084567E+03  0.18408904210E+03  0.00000000000E+00 0.  1.
         11    1    3    3    0    0 -0.85016230381E+01  0.56014786881E+02 -0.16683499457E+03  0.17619264842E+03  0.00000000000E+00 0. -1.
        -13    1    4    4    0    0  0.45810079638E+02  0.41978992373E+02 -0.58239380978E+02  0.85162343167E+02  0.00000000000E+00 0.  1.
         13    1    4    4    0    0 -0.26658525047E+02 -0.11585515345E+01 -0.73474974759E+02  0.78170270021E+02  0.00000000000E+00 0. -1.
         -1    1    1    2    0  502 -0.25031805625E+02 -0.45227235718E+02 -0.12223154662E+03  0.13271264119E+03  0.00000000000E+00 0.  1.
<scales pt_clust_5="13000.00000" pt_clust_6="13000.00000" pt_clust_7="13000.00000" pt_clust_8="13000.00000" pt_clust_9="51.69233"></scales>
<clustering>
<clus scale="   51.692">  1  9  2 -1</clus>
<clus scale="   85.415">  7  8 -1 -1</clus>
<clus scale="   86.251">  1  7  2 -1</clus>
<clus scale="  110.137">  5  6 -1 -1</clus>
<clus scale="   51.692">  1  5  2 -1</clus>
</clustering>
</event>
<event>
 9    1  0.1671478E-005  0.1463291E+03  0.7546771E-02  0.1205575E+00
         -1   -1    0    0    0  501 -0.00000000000E+00  0.00000000000E+00  0.19142520073E+03  0.19142520073E+03  0.00000000000E+00 0.  1.
         21   -1    0    0  501  502  0.00000000000E+00 -0.00000000000E+00 -0.22252011753E+03  0.22252011753E+03  0.00000000000E+00 0.  1.
         23    2    1    2    0    0 -0.26894790876E+02  0.10699174499E+03  0.71057466540E+02  0.16028342518E+03  0.92038304876E+02 0.  0.
         23    2    1    2    0    0 -0.46946864729E+01 -0.11688045450E+03 -0.44290616476E+01  0.15048471896E+03  0.94567189488E+02 0.  0.
        -11    1    4    4    0    0  0.20743814085E+02  0.84961376596E+01  0.99685736415E+00  0.22438446972E+02  0.00000000000E+00 0. -1.
         11    1    4    4    0    0 -0.25438500558E+02 -0.12537659216E+03 -0.54259190118E+01  0.12804627199E+03  0.00000000000E+00 0.  1.
        -13    1    3    3    0    0 -0.46774282004E+02  0.96948009670E+02  0.27092870536E+02  0.11099898049E+03  0.00000000000E+00 0.  1.
         13    1    3    3    0    0  0.19879491128E+02  0.10043735319E+02  0.43964596004E+02  0.49284444690E+02  0.00000000000E+00 0. -1.
         -1    1    1    2    0  502  0.31589477349E+02  0.98887095144E+01 -0.97723321701E+02  0.10317717412E+03  0.00000000000E+00 0.  1.
<scales pt_clust_5="13000.00000" pt_clust_6="13000.00000" pt_clust_7="13000.00000" pt_clust_8="13000.00000" pt_clust_9="33.10108"></scales>
<clustering>
<clus scale="   33.101">  2  9  1 -1</clus>
<clus scale="   92.038">  7  8 -1 -1</clus>
<clus scale="   94.567">  5  6 -1 -1</clus>
<clus scale="  144.708">  1  7  2 -1</clus>
<clus scale="   33.101">  2  5  1 -1</clus>
</clustering>
</event>
<event>
 9    1  0.2112711E-005  0.1164289E+03  0.7546771E-02  0.1249199E+00
         21   -1    0    0  501  502  0.00000000000E+00  0.00000000000E+00  0.27113401912E+03  0.27113401912E+03  0.00000000000E+00 0. -1.
          2   -1    0    0  502    0 -0.00000000000E+00 -0.00000000000E+00 -0.56687732647E+03  0.56687732647E+03  0.00000000000E+00 0. -1.
         23    2    1    2    0    0 -0.66506852470E+02  0.23366248625E+02 -0.36564365715E+03  0.38326324216E+03  0.90698874179E+02 0.  0.
         23    2    1    2    0    0  0.39527048727E+02 -0.96882129744E+02 -0.16023070307E+03  0.21165800474E+03  0.90425096729E+02 0.  0.
        -11    1    4    4    0    0  0.33825646605E+02  0.55004446736E+01 -0.27547642949E+02  0.43969328991E+02  0.00000000000E+00 0. -1.
         11    1    4    4    0    0  0.57014021219E+01 -0.10238257442E+03 -0.13268306012E+03  0.16768867575E+03  0.00000000000E+00 0.  1.
        -13    1    3    3    0    0 -0.50841453567E+02 -0.29644059849E+02 -0.21021522860E+03  0.21829811273E+03  0.00000000000E+00 0. -1.
         13    1    3    3    0    0 -0.15665398903E+02  0.53010308474E+02 -0.15542842855E+03  0.16496512943E+03  0.00000000000E+00 0.  1.
          2    1    1    2  501    0  0.26979803742E+02  0.73515881119E+02  0.23013105287E+03  0.24309009869E+03  0.00000000000E+00 0. -1.
<scales pt_clust_5="13000.00000" pt_clust_6="13000.00000" pt_clust_7="13000.00000" pt_clust_8="13000.00000" pt_clust_9="78.31025"></scales>
<clustering>
<clus scale="   78.310">  1  9  2 -1</clus>
<clus scale="   90.425">  5  6 -1 -1</clus>
<clus scale="   90.699">  7  8 -1 -1</clus>
<clus scale="  116.216">  1  5  2 -1</clus>
<clus scale="   78.310">  1  5  2 -1</clus>
</clustering>
</event>
<event>
 9    1  0.1671478E-005  0.1429516E+03  0.7546771E-02  0.1213038E+00
         21   -1    0    0  501  502  0.00000000000E+00  0.00000000000E+00  0.46246261160E+03  0.46246261160E+03  0.00000000000E+00 0. -1.
         -2   -1    0    0    0  501 -0.00000000000E+00 -0.00000000000E+00 -0.22875573315E+03  0.22875573315E+03  0.00000000000E+00 0.  1.
         23    2    1    2    0    0 -0.12270780279E+03  0.16161608892E+02 -0.17877552549E+03  0.23565278384E+03  0.90846813626E+02 0.  0.
         23    2    1    2    0    0  0.55025939315E+02 -0.33866780565E+01  0.99741469850E+02  0.13532982688E+03  0.72982721575E+02 0.  0.
        -11    1    3    3    0    0 -0.12482781082E+03  0.38857115159E+02 -0.15234535570E+03  0.20075100288E+03  0.00000000000E+00 0.  1.
         11    1    3    3    0    0  0.21200080290E+01 -0.22695506267E+02 -0.26430169795E+02  0.34901780959E+02  0.00000000000E+00 0. -1.
        -13    1    4    4    0    0  0.30961649455E+02 -0.90345479661E+01  0.10518548591E+03  0.11001924032E+03  0.00000000000E+00 0. -1.
         13    1    4    4    0    0  0.24064289860E+02  0.56478699096E+01 -0.54440160607E+01  0.25310586557E+02  0.00000000000E+00 0.  1.
         -2    1    1    2    0  502  0.67681863479E+02 -0.12774930836E+02  0.31274093409E+03  0.32023573404E+03  0.00000000000E+00 0.  1.
<scales pt_clust_5="13000.00000" pt_clust_6="13000.00000" pt_clust_7="13000.00000" pt_clust_8="13000.00000" pt_clust_9="68.87694"></scales>
<clustering>
<clus scale="   68.877">  1  9  2 -1</clus>
<clus scale="   72.983">  7  8 -1 -1</clus>
<clus scale="   90.847">  5  6 -1 -1</clus>
<clus scale="  132.320">  1  7  2 -1</clus>
<clus scale="   68.877">  1  5  2 -1</clus>
</clustering>
</event>
<event>
 9    1  0.1671478E-005  0.1031021E+03  0.7546771E-02  0.1274384E+00
         21   -1    0    0  501  502  0.00000000000E+00  0.00000000000E+00  0.10695078205E+03  0.10695078205E+03  0.00000000000E+00 0. -1.
          1   -1    0    0  502    0 -0.00000000000E+00 -0.00000000000E+00 -0.44590557043E+03  0.44590557043E+03  0.00000000000E+00 0. -1.
         23    2    1    2    0    0 -0.29506190036E+02 -0.46593777643E+02 -0.26664535915E+03  0.28737154013E+03  0.91875236903E+02 0.  0.
         23    2    1    2    0    0 -0.45942750190E+02  0.46532366957E+02 -0.12924764853E+03  0.17096229033E+03  0.90813834812E+02 0.  0.
        -11    1    4    4    0    0 -0.30168182242E+02  0.67257490954E+02 -0.12420685650E+03  0.14443348819E+03  0.00000000000E+00 0. -1.
         11    1    4    4    0    0 -0.15774567948E+02 -0.20725123997E+02 -0.50407920356E+01  0.26528802140E+02  0.00000000000E+00 0.  1.
        -11    1    3    3    0    0 -0.56406771847E+02 -0.37608139468E+01 -0.13654670991E+03  0.14778657456E+03  0.00000000000E+00 0. -1.
         11    1    3    3    0    0  0.26900581811E+02 -0.42832963697E+02 -0.13009864924E+03  0.13958496558E+03  0.00000000000E+00 0.  1.
          1    1    1    2  501    0  0.75448940225E+02  0.61410686646E-01  0.56938219305E+02  0.94522522025E+02  0.00000000000E+00 0. -1.
<scales pt_clust_5="13000.00000" pt_clust_6="13000.00000" pt_clust_7="13000.00000" pt_clust_8="13000.00000" pt_clust_9="75.44897"></scales>
<clustering>
<clus scale="   75.449">  1  9  2 -1</clus>
<clus scale="   90.814">  5  6 -1 -1</clus>
<clus scale="   91.875">  7  8 -1 -1</clus>
<clus scale="  102.157">  1  5  2 -1</clus>
<clus scale="   75.449">  1  5  2 -1</clus>
</clustering>
</event>
<event>
 9    1  0.1671478E-005  0.1443686E+03  0.7546771E-02  0.1208273E+00
          2   -1    0    0  502    0 -0.00000000000E+00  0.00000000000E+00  0.36155281534E+03  0.36155281534E+03  0.00000000000E+00 0. -1.
         21   -1    0    0  501  502  0.00000000000E+00 -0.00000000000E+00 -0.22344185336E+03  0.22344185336E+03  0.00000000000E+00 0. -1.
         23    2    1    2    0    0  0.59534546734E+02 -0.95995996161E+02  0.30153632517E+03  0.33495682923E+03  0.92262281096E+02 0.  0.
         23    2    1    2    0    0 -0.70241596766E+02  0.72120674474E+02 -0.66867522585E+02  0.14999740521E+03  0.88840769860E+02 0.  0.
        -11    1    4    4    0    0 -0.45685994363E+02  0.77789090744E+02 -0.80881422922E+02  0.12116169896E+03  0.00000000000E+00 0.  1.
         11    1    4    4    0    0 -0.24555602403E+02 -0.56684162704E+01  0.14013900337E+02  0.28835706251E+02  0.00000000000E+00 0. -1.
        -11    1    3    3    0    0  0.45326899354E+02 -0.20490116512E+01  0.14406052931E+03  0.15103695693E+03  0.00000000000E+00 0.  1.
         11    1    3    3    0    0  0.14207647380E+02 -0.93946984510E+02  0.15747579586E+03  0.18391987229E+03  0.00000000000E+00 0. -1.
          2    1    1    2  501    0  0.10707050032E+02  0.23875321687E+02 -0.96557840607E+02  0.10004043427E+03  0.00000000000E+00 0. -1.
<scales pt_clust_5="13000.00000" pt_clust_6="13000.00000" pt_clust_7="13000.00000" pt_clust_8="13000.00000" pt_clust_9="26.16624"></scales>
<clustering>
<clus scale="   26.166">  2  9  1 -1</clus>
<clus scale="   88.841">  5  6 -1 -1</clus>
<clus scale="   92.262">  7  8 -1 -1</clus>
<clus scale="  142.206">  2  5  1 -1</clus>
<clus scale="   26.166">  2  5  1 -1</clus>
</clustering>
</event>
<event>
 9    1  0.1671478E-005  0.1015126E+03  0.7546771E-02  0.1277284E+00
          2   -1    0    0  502    0 -0.00000000000E+00  0.00000000000E+00  0.50011107386E+03  0.50011107386E+03  0.00000000000E+00 0. -1.
         21   -1    0    0  501  502  0.00000000000E+00 -0.00000000000E+00 -0.10519929408E+03  0.10519929408E+03  0.00000000000E+00 0. -1.
         23    2    1    2    0    0 -0.21928187672E+02 -0.33585438087E+02  0.37720346670E+03  0.39013934798E+03  0.91199936867E+02 0.  0.
         23    2    1    2    0    0  0.97745248355E+02  0.37084430668E+02  0.12144652370E+02  0.13906961419E+03  0.90903665689E+02 0.  0.
        -13    1    4    4    0    0  0.58695181279E+02 -0.15555200454E+02 -0.22717764434E+02  0.64831978123E+02  0.00000000000E+00 0.  1.
         13    1    4    4    0    0  0.39050067077E+02  0.52639631122E+02  0.34862416804E+02  0.74237636067E+02  0.00000000000E+00 0. -1.
        -13    1    3    3    0    0 -0.55199533667E+02 -0.24489977715E+02  0.29275494967E+03  0.29891839703E+03  0.00000000000E+00 0.  1.
         13    1    3    3    0    0  0.33271345995E+02 -0.90954603723E+01  0.84448517026E+02  0.91220950946E+02  0.00000000000E+00 0. -1.
          2    1    1    2  501    0 -0.75817060683E+02 -0.34989925815E+01  0.55636607119E+01  0.76101405770E+02  0.00000000000E+00 0. -1.
<scales pt_clust_5="13000.00000" pt_clust_6="13000.00000" pt_clust_7="13000.00000" pt_clust_8="13000.00000" pt_clust_9="75.89776"></scales>
<clustering>
<clus scale="   75.898">  2  9  1 -1</clus>
<clus scale="   90.904">  5  6 -1 -1</clus>
<clus scale="   91.200">  7  8 -1 -1</clus>
<clus scale="  101.247">  2  5  1 -1</clus>
<clus scale="   75.898">  2  5  1 -1</clus>
</clustering>
</event>
<event>
 9    1  0.1671478E-005  0.9098747E+02  0.7546771E-02  0.1322796E+00
          4   -1    0    0  502    0 -0.00000000000E+00  0.00000000000E+00  0.84068816161E+02  0.84068816161E+02  0.00000000000E+00 0. -1.
         21   -1    0    0  501  502  0.00000000000E+00 -0.00000000000E+00 -0.19153572529E+03  0.19153572529E+03  0.00000000000E+00 0.  1.
         23    2    1    2    0    0  0.17163643264E+02  0.12039169121E+02  0.32833570505E+02  0.71030195670E+02  0.59394554477E+02 0.  0.
         23    2    1    2    0    0  0.14178061148E+02  0.19114842524E+02 -0.54208040066E+02  0.10780253673E+03  0.90091512888E+02 0.  0.
        -11    1    3    3    0    0 -0.14615316852E+02  0.22548258867E+02  0.46428585085E+01  0.27268802682E+02  0.00000000000E+00 0.  1.
         11    1    3    3    0    0  0.31778960116E+02 -0.10509089746E+02  0.28190711996E+02  0.43761392987E+02  0.00000000000E+00 0. -1.
        -11    1    4    4    0    0 -0.60360392373E+01  0.50562063061E+02 -0.47862786204E+02  0.69884206326E+02  0.00000000000E+00 0.  1.
         11    1    4    4    0    0  0.20214100385E+02 -0.31447220537E+02 -0.63452538624E+01  0.37918330402E+02  0.00000000000E+00 0. -1.
          4    1    1    2  501    0 -0.31341704412E+02 -0.31154011645E+02 -0.86092439571E+02  0.96771809058E+02  0.00000000000E+00 0. -1.
<scales pt_clust_5="13000.00000" pt_clust_6="13000.00000" pt_clust_7="13000.00000" pt_clust_8="13000.00000" pt_clust_9="44.19134"></scales>
<clustering>
<clus scale="   44.191">  2  9  1 -1</clus>
<clus scale="   59.395">  5  6 -1 -1</clus>
<clus scale="   60.745">  1  5  2 -1</clus>
<clus scale="   90.092">  7  8 -1 -1</clus>
<clus scale="   44.191">  2  5  1 -1</clus>
</clustering>
</event>
<event>
 9    1  0.1671478E-005  0.2296799E+03  0.7546771E-02  0.1126967E+00
         21   -1    0    0  501  502  0.00000000000E+00  0.00000000000E+00  0.43598237495E+03  0.43598237495E+03  0.00000000000E+00 0. -1.
         -3   -1    0    0    0  501 -0.00000000000E+00 -0.00000000000E+00 -0.14951592243E+03  0.14951592243E+03  0.00000000000E+00 0.  1.
         23    2    1    2    0    0  0.15592745509E+03  0.13224489562E+03  0.57318590506E+02  0.23192377007E+03  0.93279851182E+02 0.  0.
         23    2    1    2    0    0 -0.18208531780E+03 -0.12496029553E+03  0.21986289152E+03  0.32487766586E+03  0.91845894227E+02 0.  0.
        -11    1    3    3    0    0  0.12522770130E+03  0.13693574216E+03  0.70070879800E+02  0.19835146293E+03  0.00000000000E+00 0. -1.
         11    1    3    3    0    0  0.30699753793E+02 -0.46908465347E+01 -0.12752289293E+02  0.33572307136E+02  0.00000000000E+00 0.  1.
        -11    1    4    4    0    0 -0.15978786466E+02 -0.18272147223E+02 -0.58931800972E+01  0.24978441759E+02  0.00000000000E+00 0.  1.
         11    1    4    4    0    0 -0.16610653134E+03 -0.10668814831E+03  0.22575607162E+03  0.29989922410E+03  0.00000000000E+00 0. -1.
         -3    1    1    2    0  502  0.26157862711E+02 -0.72846000907E+01  0.92849704911E+01  0.28696861450E+02  0.00000000000E+00 0.  1.
<scales pt_clust_5="13000.00000" pt_clust_6="13000.00000" pt_clust_7="13000.00000" pt_clust_8="13000.00000" pt_clust_9="27.15327"></scales>
<clustering>
<clus scale="   27.153">  1  9  2 -1</clus>
<clus scale="   91.846">  7  8 -1 -1</clus>
<clus scale="   93.280">  5  6 -1 -1</clus>
<clus scale="  229.101">  1  7  2 -1</clus>
<clus scale="   27.153">  1  5  2 -1</clus>
</clustering>
</event>
<event>
 9    1  0.1671478E-005  0.1373879E+03  0.7546771E-02  0.1217063E+00
          2   -1    0    0  502    0 -0.00000000000E+00  0.00000000000E+00  0.71707320917E+03  0.71707320917E+03  0.00000000000E+00 0. -1.
         21   -1    0    0  501  502  0.00000000000E+00 -0.00000000000E+00 -0.43214017343E+02  0.43214017343E+02  0.00000000000E+00 0.  1.
         23    2    1    2    0    0  0.94535104130E+02  0.52914688545E+02  0.39756806318E+03  0.42206547497E+03  0.91334824240E+02 0.  0.
         23    2    1    2    0    0 -0.74095790889E+02 -0.62270057149E+02  0.28483997197E+03  0.31417240292E+03  0.90568995145E+02 0.  0.
        -11    1    3    3    0    0  0.78732424490E+02  0.18608906735E+01  0.30666561404E+03  0.31661657634E+03  0.00000000000E+00 0. -1.
         11    1    3    3    0    0  0.15802679640E+02  0.51053797872E+02  0.90902449145E+02  0.10544889863E+03  0.00000000000E+00 0.  1.
        -11    1    4    4    0    0 -0.25617061665E+02 -0.40419304916E+02  0.23967285557E+03  0.24440342010E+03  0.00000000000E+00 0. -1.
         11    1    4    4    0    0 -0.48478729225E+02 -0.21850752233E+02  0.45167116395E+02  0.69768982820E+02  0.00000000000E+00 0.  1.
          2    1    1    2  501    0 -0.20439313241E+02  0.93553686037E+01 -0.85488433187E+01  0.24049348631E+02  0.00000000000E+00 0. -1.
<scales pt_clust_5="13000.00000" pt_clust_6="13000.00000" pt_clust_7="13000.00000" pt_clust_8="13000.00000" pt_clust_9="22.47862"></scales>
<clustering>
<clus scale="   22.479">  2  9  1 -1</clus>
<clus scale="   90.569">  7  8 -1 -1</clus>
<clus scale="   91.335">  5  6 -1 -1</clus>
<clus scale="  136.880">  2  7  1 -1</clus>
<clus scale="   22.479">  2  5  1 -1</clus>
</clustering>
</event>
<event>
 9    1  0.1671478E-005  0.1132576E+03  0.7546771E-02  0.1254736E+00
         21   -1    0    0  501  502  0.00000000000E+00  0.00000000000E+00  0.98263977216E+02  0.98263977216E+02  0.00000000000E+00 0.  1.
          1   -1    0    0  502    0 -0.00000000000E+00 -0.00000000000E+00 -0.36010864257E+03  0.36010864257E+03  0.00000000000E+00 0. -1.
         23    2    1    2    0    0 -0.12481678346E+02 -0.73098607455E+02 -0.24376414365E+03  0.27083812715E+03  0.91832100505E+02 0.  0.
         23    2    1    2    0    0  0.12099020884E+02  0.48071035165E+02 -0.72770630612E+02  0.12738855499E+03  0.92060135432E+02 0.  0.
        -11    1    4    4    0    0  0.48525254971E+02  0.47676019350E+02 -0.50051229952E+02  0.84456076222E+02  0.00000000000E+00 0.  1.
         11    1    4    4    0    0 -0.36426234087E+02  0.39501581563E+00 -0.22719400660E+02  0.42932478773E+02  0.00000000000E+00 0. -1.
        -13    1    3    3    0    0  0.38075415500E+02 -0.47388204083E+02 -0.11329580546E+03  0.12857417581E+03  0.00000000000E+00 0.  1.
         13    1    3    3    0    0 -0.50557093846E+02 -0.25710403372E+02 -0.13046833820E+03  0.14226395134E+03  0.00000000000E+00 0. -1.
          1    1    1    2  501    0  0.38265746176E+00  0.25027572290E+02  0.54690108912E+02  0.60145937637E+02  0.00000000000E+00 0. -1.
<scales pt_clust_5="13000.00000" pt_clust_6="13000.00000" pt_clust_7="13000.00000" pt_clust_8="13000.00000" pt_clust_9="25.03050"></scales>
<clustering>
<clus scale="   25.030">  1  9  2 -1</clus>
<clus scale="   91.832">  7  8 -1 -1</clus>
<clus scale="   92.060">  5  6 -1 -1</clus>
<clus scale="  113.072">  2  7  1 -1</clus>
<clus scale="   25.030">  1  5  2 -1</clus>
</clustering>
</event>
<event>
 9    1  0.1671478E-005  0.1893856E+03  0.7546771E-02  0.1182477E+00
         -2   -1    0    0    0  501 -0.00000000000E+00  0.00000000000E+00  0.77075684977E+03  0.77075684977E+03  0.00000000000E+00 0.  1.
         21   -1    0    0  501  502  0.00000000000E+00 -0.00000000000E+00 -0.17318671916E+03  0.17318671916E+03  0.00000000000E+00 0.  1.
         23    2    1    2    0    0 -0.49707478475E+02 -0.36699997561E+02  0.30978976625E+03  0.32901095855E+03  0.91982543644E+02 0.  0.
         23    2    1    2    0    0  0.16812870533E+03 -0.81616909135E+02  0.37379462868E+03  0.42672811774E+03  0.86289516335E+02 0.  0.
        -13    1    3    3    0    0  0.21246491183E+01 -0.55531545211E+02  0.14888842028E+03  0.15892145337E+03  0.00000000000E+00 0.  1.
         13    1    3    3    0    0 -0.51832127593E+02  0.18831547650E+02  0.16090134598E+03  0.17008950519E+03  0.00000000000E+00 0. -1.
        -13    1    4    4    0    0  0.11106684802E+03 -0.70668877447E+02  0.17117095902E+03  0.21593849166E+03  0.00000000000E+00 0. -1.
         13    1    4    4    0    0  0.57061857308E+02 -0.10948031688E+02  0.20262366966E+03  0.21078962608E+03  0.00000000000E+00 0.  1.
         -2    1    1    2    0  502 -0.11842122685E+03  0.11831690670E+03 -0.86014264327E+02  0.18820449263E+03  0.00000000000E+00 0.  1.
<scales pt_clust_5="13000.00000" pt_clust_6="13000.00000" pt_clust_7="13000.00000" pt_clust_8="13000.00000" pt_clust_9="168.58534"></scales>
<clustering>
<clus scale="   86.290">  7  8 -1 -1</clus>
<clus scale="   91.983">  5  6 -1 -1</clus>
<clus scale="  110.808">  1  5  2 -1</clus>
<clus scale="  168.585">  2  9  1 -1</clus>
<clus scale="  168.585">  2  5  1 -1</clus>
</clustering>
</event>
<event>
 9    1  0.1671478E-005  0.1263946E+03  0.7546771E-02  0.1234816E+00
         21   -1    0    0  501  502  0.00000000000E+00  0.00000000000E+00  0.57296874169E+03  0.57296874169E+03  0.00000000000E+00 0. -1.
         -1   -1    0    0    0  501 -0.00000000000E+00 -0.00000000000E+00 -0.33878903375E+02  0.33878903375E+02  0.00000000000E+00 0.  1.
         23    2    1    2    0    0 -0.25588115193E+02 -0.82910454806E+02  0.18348943253E+03  0.22315720880E+03  0.92746282035E+02 0.  0.
         23    2    1    2    0    0  0.74008019492E+01  0.66343978288E+02  0.29955433183E+03  0.32248268420E+03  0.99025191589E+02 0.  0.
        -11    1    3    3    0    0  0.11140144228E+02 -0.39439522594E+02  0.12349036396E+02  0.42802773926E+02  0.00000000000E+00 0. -1.
         11    1    3    3    0    0 -0.36728259421E+02 -0.43470932212E+02  0.17114039614E+03  0.18035443487E+03  0.00000000000E+00 0.  1.
        -13    1    4    4    0    0 -0.25538192923E+02 -0.12034100998E+02  0.37219033699E+02  0.46714830130E+02  0.00000000000E+00 0.  1.
         13    1    4    4    0    0  0.32938994872E+02  0.78378079285E+02  0.26233529813E+03  0.27576785407E+03  0.00000000000E+00 0. -1.
         -1    1    1    2    0  502  0.18187313243E+02  0.16566476518E+02  0.56046073957E+02  0.61207752068E+02  0.00000000000E+00 0.  1.
<scales pt_clust_5="13000.00000" pt_clust_6="13000.00000" pt_clust_7="13000.00000" pt_clust_8="13000.00000" pt_clust_9="24.60135"></scales>
<clustering>
<clus scale="   24.601">  1  9  2 -1</clus>
<clus scale="   92.746">  5  6 -1 -1</clus>
<clus scale="   99.025">  7  8 -1 -1</clus>
<clus scale="  121.538">  2  5  1 -1</clus>
<clus scale="   24.601">  1  5  2 -1</clus>
</clustering>
</event>
<event>
 9    1  0.1671478E-005  0.9498091E+02  0.7546771E-02  0.1295201E+00
         21   -1    0    0  501  502  0.00000000000E+00  0.00000000000E+00  0.15567480129E+03  0.15567480129E+03  0.00000000000E+00 0. -1.
          4   -1    0    0  502    0 -0.00000000000E+00 -0.00000000000E+00 -0.11929279368E+03  0.11929279368E+03  0.00000000000E+00 0. -1.
         23    2    1    2    0    0  0.34785473269E+02 -0.13581185367E+02 -0.65348030963E+02  0.11700433490E+03  0.89583321489E+02 0.  0.
         23    2    1    2    0    0 -0.16292481298E+02 -0.16465701377E+02  0.73309732378E+02  0.11265851463E+03  0.82347190537E+02 0.  0.
        -11    1    3    3    0    0 -0.16989685575E+02 -0.35754439609E+02 -0.18277143276E+02  0.43601414358E+02  0.00000000000E+00 0.  1.
         11    1    3    3    0    0  0.51775158843E+02  0.22173254242E+02 -0.47070887687E+02  0.73402920546E+02  0.00000000000E+00 0. -1.
        -13    1    4    4    0    0 -0.27335026018E+02  0.22234185418E+02  0.83000694079E+01  0.36200190618E+02  0.00000000000E+00 0.  1.
         13    1    4    4    0    0  0.11042544720E+02 -0.38699886794E+02  0.65009662970E+02  0.76458324016E+02  0.00000000000E+00 0. -1.
          4    1    1    2  501    0 -0.18492991971E+02  0.30046886744E+02  0.28420306193E+02  0.45304745437E+02  0.00000000000E+00 0. -1.
<scales pt_clust_5="13000.00000" pt_clust_6="13000.00000" pt_clust_7="13000.00000" pt_clust_8="13000.00000" pt_clust_9="35.28181"></scales>
<clustering>
<clus scale="   35.282">  1  9  2 -1</clus>
<clus scale="   82.347">  7  8 -1 -1</clus>
<clus scale="   88.189">  1  7  2 -1</clus>
<clus scale="   89.583">  5  6 -1 -1</clus>
<clus scale="   35.282">  1  5  2 -1</clus>
</clustering>
</event>
<event>
 9    1  0.1671478E-005  0.1387965E+03  0.7546771E-02  0.1216788E+00
         21   -1    0    0  501  502  0.00000000000E+00  0.00000000000E+00  0.37778152606E+03  0.37778152606E+03  0.00000000000E+00 0.  1.
         -1   -1    0    0    0  501 -0.00000000000E+00 -0.00000000000E+00 -0.81723135629E+02  0.81723135629E+02  0.00000000000E+00 0.  1.
         23    2    1    2    0    0  0.79492508727E+02  0.22519990450E+02  0.62782183113E+02  0.13774457092E+03  0.90585624626E+02 0.  0.
         23    2    1    2    0    0 -0.13290423628E+03 -0.14101099672E+02  0.19218369444E+03  0.25384628527E+03  0.98188528369E+02 0.  0.
        -11    1    3    3    0    0  0.46209088988E+02 -0.20703180109E+02 -0.48343124934E+01  0.50865235171E+02  0.00000000000E+00 0. -1.
         11    1    3    3    0    0  0.33283419740E+02  0.43223170559E+02  0.67616495606E+02  0.86879335752E+02  0.00000000000E+00 0.  1.
        -11    1    4    4    0    0  0.56573009711E+01 -0.20060167406E+02  0.60090287835E+01  0.21691560514E+02  0.00000000000E+00 0. -1.
         11    1    4    4    0    0 -0.13856153725E+03  0.59590677333E+01  0.18617466566E+03  0.23215472476E+03  0.00000000000E+00 0.  1.
         -1    1    1    2    0  502  0.53411727553E+02 -0.84188907773E+01  0.41092512872E+02  0.67913805491E+02  0.00000000000E+00 0.  1.
<scales pt_clust_5="13000.00000" pt_clust_6="13000.00000" pt_clust_7="13000.00000" pt_clust_8="13000.00000" pt_clust_9="54.07119"></scales>
<clustering>
<clus scale="   54.071">  1  9  2 -1</clus>
<clus scale="   90.586">  5  6 -1 -1</clus>
<clus scale="   98.189">  7  8 -1 -1</clus>
<clus scale="  133.526">  2  5  1 -1</clus>
<clus scale="   54.071">  1  5  2 -1</clus>
</clustering>
</event>
<event>
 9    1  0.1671478E-005  0.9467624E+02  0.7546771E-02  0.1299744E+00
         21   -1    0    0  501  502  0.00000000000E+00  0.00000000000E+00  0.47311272671E+02  0.47311272671E+02  0.00000000000E+00 0. -1.
          2   -1    0    0  502    0 -0.00000000000E+00 -0.00000000000E+00 -0.52850230136E+03  0.52850230136E+03  0.00000000000E+00 0. -1.
         23    2    1    2    0    0  0.66692876608E+01  0.13514254698E+02 -0.38613070489E+03  0.39728155042E+03  0.92242043380E+02 0.  0.
         23    2    1    2    0    0 -0.17387375480E+02 -0.33350304900E+02 -0.11763609966E+03  0.14662572409E+03  0.79033457213E+02 0.  0.
        -11    1    3    3    0    0 -0.18649071224E+02 -0.33860589411E+02 -0.13243308808E+03  0.13795959622E+03  0.00000000000E+00 0.  1.
         11    1    3    3    0    0  0.25318358885E+02  0.47374844109E+02 -0.25369761681E+03  0.25932195419E+03  0.00000000000E+00 0. -1.
        -13    1    4    4    0    0 -0.48360358537E+02 -0.13972614098E+02 -0.59200273036E+02  0.77708625969E+02  0.00000000000E+00 0.  1.
         13    1    4    4    0    0  0.30972983057E+02 -0.19377690802E+02 -0.58435826620E+02  0.68917098118E+02  0.00000000000E+00 0. -1.
          2    1    1    2  501    0  0.10718087819E+02  0.19836050202E+02  0.22575775853E+02  0.31906299527E+02  0.00000000000E+00 0. -1.
<scales pt_clust_5="13000.00000" pt_clust_6="13000.00000" pt_clust_7="13000.00000" pt_clust_8="13000.00000" pt_clust_9="22.54654"></scales>
<clustering>
<clus scale="   22.547">  1  9  2 -1</clus>
<clus scale="   79.033">  7  8 -1 -1</clus>
<clus scale="   81.861">  1  7  2 -1</clus>
<clus scale="   92.242">  5  6 -1 -1</clus>
<clus scale="   22.547">  1  5  2 -1</clus>
</clustering>
</event>
<event>
 9    1  0.1671478E-005  0.1102477E+03  0.7546771E-02  0.1260631E+00
         21   -1    0    0  501  502  0.00000000000E+00  0.00000000000E+00  0.66416252135E+02  0.66416252135E+02  0.00000000000E+00 0. -1.
          3   -1    0    0  502    0 -0.00000000000E+00 -0.00000000000E+00 -0.39149222002E+03  0.39149222002E+03  0.00000000000E+00 0. -1.
         23    2    1    2    0    0  0.17089733853E+02  0.28176123748E+02 -0.11629503495E+03  0.15170862485E+03  0.91678889326E+02 0.  0.
         23    2    1    2    0    0 -0.87156520143E+02 -0.48700659118E+02 -0.18619730988E+03  0.22977582540E+03  0.90329831885E+02 0.  0.
        -13    1    3    3    0    0  0.54301659704E+02  0.75084364177E+01 -0.67534687465E+02  0.86982646977E+02  0.00000000000E+00 0.  1.
         13    1    3    3    0    0 -0.37211925851E+02  0.20667687330E+02 -0.48760347485E+02  0.64725977876E+02  0.00000000000E+00 0. -1.
        -13    1    4    4    0    0 -0.50573507538E+02 -0.13316337919E+02 -0.20051840878E+02  0.56009649551E+02  0.00000000000E+00 0.  1.
         13    1    4    4    0    0 -0.36583012605E+02 -0.35384321198E+02 -0.16614546901E+03  0.17376617585E+03  0.00000000000E+00 0. -1.
          3    1    1    2  501    0  0.70066786290E+02  0.20524535370E+02 -0.22583623048E+02  0.76424021898E+02  0.00000000000E+00 0. -1.
<scales pt_clust_5="13000.00000" pt_clust_6="13000.00000" pt_clust_7="13000.00000" pt_clust_8="13000.00000" pt_clust_9="73.01103"></scales>
<clustering>
<clus scale="   73.011">  1  9  2 -1</clus>
<clus scale="   90.330">  7  8 -1 -1</clus>
<clus scale="   91.679">  5  6 -1 -1</clus>
<clus scale="  109.128">  1  7  2 -1</clus>
<clus scale="   73.011">  1  5  2 -1</clus>
</clustering>
</event>
<event>
 9    1  0.1671478E-005  0.1106533E+03  0.7546771E-02  0.1260345E+00
         21   -1    0    0  501  502  0.00000000000E+00  0.00000000000E+00  0.11455610597E+03  0.11455610597E+03  0.00000000000E+00 0.  1.
          1   -1    0    0  502    0 -0.00000000000E+00 -0.00000000000E+00 -0.13559058458E+03  0.13559058458E+03  0.00000000000E+00 0. -1.
         23    2    1    2    0    0  0.56069349450E+02 -0.36441533745E+02 -0.48490607407E+02  0.12454576820E+03  0.93212402820E+02 0.  0.
         23    2    1    2    0    0 -0.37229389247E+02  0.29317603727E+02  0.24727488837E+02  0.10527507783E+03  0.90696438722E+02 0.  0.
        -11    1    4    4    0    0  0.20381244400E+02  0.33035976696E+02 -0.69351797593E+01  0.39431809467E+02  0.00000000000E+00 0.  1.
         11    1    4    4    0    0 -0.57610633646E+02 -0.37183729694E+01  0.31662668596E+02  0.65843268367E+02  0.00000000000E+00 0. -1.
        -11    1    3    3    0    0  0.11771317184E+02  0.31227522719E+02 -0.19354545261E+02  0.38578757182E+02  0.00000000000E+00 0. -1.
         11    1    3    3    0    0  0.44298032267E+02 -0.67669056464E+02 -0.29136062146E+02  0.85967011014E+02  0.00000000000E+00 0.  1.
          1    1    1    2  501    0 -0.18839960204E+02  0.71239300175E+01  0.27286399684E+01  0.20325844520E+02  0.00000000000E+00 0. -1.
<scales pt_clust_5="13000.00000" pt_clust_6="13000.00000" pt_clust_7="13000.00000" pt_clust_8="13000.00000" pt_clust_9="20.14186"></scales>
<clustering>
<clus scale="   20.142">  1  9  2 -1</clus>
<clus scale="   90.696">  5  6 -1 -1</clus>
<clus scale="   93.212">  7  8 -1 -1</clus>
<clus scale="  108.542">  1  5  2 -1</clus>
<clus scale="   20.142">  1  5  2 -1</clus>
</clustering>
</event>
<event>
 9    1  0.1671478E-005  0.1133679E+03  0.7546771E-02  0.1264475E+00
         -1   -1    0    0    0  501 -0.00000000000E+00  0.00000000000E+00  0.20781194582E+03  0.20781194582E+03  0.00000000000E+00 0.  1.
         21   -1    0    0  501  502  0.00000000000E+00 -0.00000000000E+00 -0.93173306946E+02  0.93173306946E+02  0.00000000000E+00 0. -1.
         23    2    1    2    0    0 -0.42947942104E+02  0.28821815671E+02  0.13549123920E+03  0.17667838499E+03  0.10090665505E+03 0.  0.
         23    2    1    2    0    0  0.28441908578E+02 -0.47316728164E+02 -0.36277429339E+01  0.95166131539E+02  0.77431370552E+02 0.  0.
        -11    1    4    4    0    0  0.41623836513E+02 -0.32171255474E+02 -0.31119783350E+02  0.61122617423E+02  0.00000000000E+00 0. -1.
         11    1    4    4    0    0 -0.13181927935E+02 -0.15145472691E+02  0.27492040416E+02  0.34043514116E+02  0.00000000000E+00 0.  1.
        -13    1    3    3    0    0 -0.28086426008E+02  0.64568541764E+02  0.10901513142E+03  0.12977766677E+03  0.00000000000E+00 0.  1.
         13    1    3    3    0    0 -0.14861516096E+02 -0.35746726093E+02  0.26476107773E+02  0.46900718223E+02  0.00000000000E+00 0. -1.
         -1    1    1    2    0  502  0.14506033526E+02  0.18494912494E+02 -0.17224857386E+02  0.29140736243E+02  0.00000000000E+00 0.  1.
<scales pt_clust_5="13000.00000" pt_clust_6="13000.00000" pt_clust_7="13000.00000" pt_clust_8="13000.00000" pt_clust_9="23.50504"></scales>
<clustering>
<clus scale="   23.505">  2  9  1 -1</clus>
<clus scale="   77.431">  5  6 -1 -1</clus>
<clus scale="   93.090">  2  5  1 -1</clus>
<clus scale="  100.907">  7  8 -1 -1</clus>
<clus scale="   23.505">  2  5  1 -1</clus>
</clustering>
</event>
<event>
 9    1  0.1671478E-005  0.9523785E+02  0.7546771E-02  0.1293810E+00
          1   -1    0    0  502    0 -0.00000000000E+00  0.00000000000E+00  0.76964135605E+03  0.76964135605E+03  0.00000000000E+00 0. -1.
         21   -1    0    0  501  502  0.00000000000E+00 -0.00000000000E+00 -0.15550322503E+02  0.15550322503E+02  0.00000000000E+00 0.  1.
         23    2    1    2    0    0 -0.15402012211E+02  0.16941841499E+02  0.34896194027E+03  0.36082769797E+03  0.88870376921E+02 0.  0.
         23    2    1    2    0    0  0.44293417300E+02 -0.20198994021E+02  0.33226604274E+03  0.34591433772E+03  0.82982526534E+02 0.  0.
        -11    1    3    3    0    0 -0.50160527867E+02  0.46300221887E+01  0.25421937921E+03  0.25916212769E+03  0.00000000000E+00 0. -1.
         11    1    3    3    0    0  0.34758515656E+02  0.12311819310E+02  0.94742561056E+02  0.10166557028E+03  0.00000000000E+00 0.  1.
        -11    1    4    4    0    0  0.27052164789E+02 -0.52027229701E+02  0.23261685406E+03  0.23989425388E+03  0.00000000000E+00 0. -1.
         11    1    4    4    0    0  0.17241252512E+02  0.31828235680E+02  0.99649188678E+02  0.10602008385E+03  0.00000000000E+00 0.  1.
          1    1    1    2  501    0 -0.28891405089E+02  0.32571525222E+01  0.72863050534E+02  0.78449642853E+02  0.00000000000E+00 0. -1.
<scales pt_clust_5="13000.00000" pt_clust_6="13000.00000" pt_clust_7="13000.00000" pt_clust_8="13000.00000" pt_clust_9="29.07443"></scales>
<clustering>
<clus scale="   29.074">  2  9  1 -1</clus>
<clus scale="   82.983">  7  8 -1 -1</clus>
<clus scale="   88.870">  5  6 -1 -1</clus>
<clus scale="   89.769">  2  7  1 -1</clus>
<clus scale="   29.074">  2  5  1 -1</clus>
</clustering>
</event>
<event>
 9    1  0.1671478E-005  0.1092966E+03  0.7546771E-02  0.1263941E+00
         21   -1    0    0  501  502  0.00000000000E+00  0.00000000000E+00  0.45709498610E+02  0.45709498610E+02  0.00000000000E+00 0. -1.
          1   -1    0    0  502    0 -0.00000000000E+00 -0.00000000000E+00 -0.53013892516E+03  0.53013892516E+03  0.00000000000E+00 0. -1.
         23    2    1    2    0    0 -0.57400129519E+02 -0.22427076711E+02 -0.30472743300E+03  0.32561734442E+03  0.96799266131E+02 0.  0.
         23    2    1    2    0    0  0.40604940649E+02 -0.43178865982E+01 -0.19168006769E+03  0.21645467203E+03  0.91891084134E+02 0.  0.
        -11    1    4    4    0    0  0.66944587805E+01  0.29004590139E+02 -0.15093111146E+03  0.15383849464E+03  0.00000000000E+00 0. -1.
         11    1    4    4    0    0  0.33910481868E+02 -0.33322476737E+02 -0.40748956230E+02  0.62616177384E+02  0.00000000000E+00 0.  1.
        -13    1    3    3    0    0  0.10623539924E+02 -0.41923399734E+02 -0.98142116848E+02  0.10724880487E+03  0.00000000000E+00 0.  1.
         13    1    3    3    0    0 -0.68023669443E+02  0.19496323023E+02 -0.20658531615E+03  0.21836853955E+03  0.00000000000E+00 0. -1.
          1    1    1    2  501    0  0.16795188870E+02  0.26744963309E+02  0.11978074141E+02  0.33776407324E+02  0.00000000000E+00 0. -1.
<scales pt_clust_5="13000.00000" pt_clust_6="13000.00000" pt_clust_7="13000.00000" pt_clust_8="13000.00000" pt_clust_9="31.58119"></scales>
<clustering>
<clus scale="   31.581">  1  9  2 -1</clus>
<clus scale="   91.891">  5  6 -1 -1</clus>
<clus scale="   96.799">  7  8 -1 -1</clus>
<clus scale="  104.974">  1  5  2 -1</clus>
<clus scale="   31.581">  1  5  2 -1</clus>
</clustering>
</event>
<event>
 9    1  0.1671478E-005  0.9451474E+02  0.7546771E-02  0.1293141E+00
         21   -1    0    0  501  502  0.00000000000E+00  0.00000000000E+00  0.47408854495E+03  0.47408854495E+03  0.00000000000E+00 0.  1.
          1   -1    0    0  502    0 -0.00000000000E+00 -0.00000000000E+00 -0.79763516100E+02  0.79763516100E+02  0.00000000000E+00 0. -1.
         23    2    1    2    0    0  0.21899389442E+02 -0.77576311286E+01 -0.37814645263E+02  0.10013086405E+03  0.89757887901E+02 0.  0.
         23    2    1    2    0    0 -0.21504680784E+02  0.34589202123E+02  0.24429866006E+03  0.26397311253E+03  0.91329648175E+02 0.  0.
        -11    1    4    4    0    0  0.27536584719E+02 -0.14051510509E+02  0.77523762888E+02  0.83460423303E+02  0.00000000000E+00 0.  1.
         11    1    4    4    0    0 -0.49041265503E+02  0.48640712632E+02  0.16677489717E+03  0.18051268923E+03  0.00000000000E+00 0. -1.
        -11    1    3    3    0    0  0.95551174966E+01  0.29255491765E+02 -0.50469102966E+02  0.59112726404E+02  0.00000000000E+00 0. -1.
         11    1    3    3    0    0  0.12344271945E+02 -0.37013122893E+02  0.12654457703E+02  0.41018137646E+02  0.00000000000E+00 0.  1.
          1    1    1    2  501    0 -0.39470865717E+00 -0.26831570994E+02  0.18784101406E+03  0.18974808447E+03  0.00000000000E+00 0. -1.
<scales pt_clust_5="13000.00000" pt_clust_6="13000.00000" pt_clust_7="13000.00000" pt_clust_8="13000.00000" pt_clust_9="26.83447"></scales>
<clustering>
<clus scale="   26.834">  1  9  2 -1</clus>
<clus scale="   89.758">  7  8 -1 -1</clus>
<clus scale="   91.330">  5  6 -1 -1</clus>
<clus scale="   92.997">  2  7  1 -1</clus>
<clus scale="   26.834">  1  5  2 -1</clus>
</clustering>
</event>
<event>
 9    1  0.1671478E-005  0.1510792E+03  0.7546771E-02  0.1199268E+00
          1   -1    0    0  502    0 -0.00000000000E+00  0.00000000000E+00  0.49143090572E+02  0.49143090572E+02  0.00000000000E+00 0. -1.
         21   -1    0    0  501  502  0.00000000000E+00 -0.00000000000E+00 -0.69169668273E+03  0.69169668273E+03  0.00000000000E+00 0. -1.
         23    2    1    2    0    0 -0.87865183566E+02  0.59386598547E+02 -0.18499578053E+03  0.23183553998E+03  0.90979229581E+02 0.  0.
         23    2    1    2    0    0  0.12161641201E+03 -0.69259616955E+02 -0.26581476598E+03  0.31406317179E+03  0.91600981722E+02 0.  0.
        -11    1    3    3    0    0 -0.22755939598E+02  0.61462420694E+02 -0.13377669363E+03  0.14896867356E+03  0.00000000000E+00 0. -1.
         11    1    3    3    0    0 -0.65109243968E+02 -0.20758221472E+01 -0.51219086907E+02  0.82866866426E+02  0.00000000000E+00 0.  1.
        -11    1    4    4    0    0  0.10911807060E+03 -0.30014537957E+02 -0.13108666427E+03  0.17318007787E+03  0.00000000000E+00 0. -1.
         11    1    4    4    0    0  0.12498341411E+02 -0.39245078997E+02 -0.13472810171E+03  0.14088309393E+03  0.00000000000E+00 0.  1.
          1    1    1    2  501    0 -0.33751228448E+02  0.98730184081E+01 -0.19174304565E+03  0.19494106153E+03  0.00000000000E+00 0. -1.
<scales pt_clust_5="13000.00000" pt_clust_6="13000.00000" pt_clust_7="13000.00000" pt_clust_8="13000.00000" pt_clust_9="35.16564"></scales>
<clustering>
<clus scale="   35.166">  2  9  1 -1</clus>
<clus scale="   90.979">  5  6 -1 -1</clus>
<clus scale="   91.601">  7  8 -1 -1</clus>
<clus scale="  150.703">  1  5  2 -1</clus>
<clus scale="   35.166">  2  5  1 -1</clus>
</clustering>
</event>
<event>
 9    1  0.1671478E-005  0.1448350E+03  0.7546771E-02  0.1209113E+00
         21   -1    0    0  501  502  0.00000000000E+00  0.00000000000E+00  0.35403587020E+03  0.35403587020E+03  0.00000000000E+00 0. -1.
          1   -1    0    0  502    0 -0.00000000000E+00 -0.00000000000E+00 -0.78527232159E+03  0.78527232159E+03  0.00000000000E+00 0. -1.
         23    2    1    2    0    0 -0.59329075845E+02  0.91152934951E+02 -0.42166722144E+03  0.44339528730E+03  0.83470583892E+02 0.  0.
         23    2    1    2    0    0  0.10158244906E+03 -0.62637103873E+02 -0.33432198425E+03  0.36718375823E+03  0.93863317724E+02 0.  0.
        -11    1    3    3    0    0 -0.20539738709E+02 -0.13317020495E+02 -0.55806929642E+02  0.60939620094E+02  0.00000000000E+00 0.  1.
         11    1    3    3    0    0 -0.38789337136E+02  0.10446995545E+03 -0.36586029179E+03  0.38245566721E+03  0.00000000000E+00 0. -1.
        -13    1    4    4    0    0  0.33861167836E+02 -0.89331397554E+01 -0.18214915185E+02  0.39473571010E+02  0.00000000000E+00 0.  1.
         13    1    4    4    0    0  0.67721281227E+02 -0.53703964118E+02 -0.31610706907E+03  0.32771018722E+03  0.00000000000E+00 0. -1.
          1    1    1    2  501    0 -0.42253373218E+02 -0.28515831078E+02  0.32475275430E+03  0.32872914626E+03  0.00000000000E+00 0. -1.
<scales pt_clust_5="13000.00000" pt_clust_6="13000.00000" pt_clust_7="13000.00000" pt_clust_8="13000.00000" pt_clust_9="50.97549"></scales>
<clustering>
<clus scale="   50.975">  1  9  2 -1</clus>
<clus scale="   83.471">  5  6 -1 -1</clus>
<clus scale="   93.863">  7  8 -1 -1</clus>
<clus scale="  138.326">  2  5  1 -1</clus>
<clus scale="   50.975">  1  5  2 -1</clus>
</clustering>
</event>
<event>
 9    1  0.1671478E-005  0.1665100E+03  0.7546771E-02  0.1208952E+00
         21   -1    0    0  501  502  0.00000000000E+00  0.00000000000E+00  0.27213298720E+03  0.27213298720E+03  0.00000000000E+00 0. -1.
          2   -1    0    0  502    0 -0.00000000000E+00 -0.00000000000E+00 -0.29441583508E+03  0.29441583508E+03  0.00000000000E+00 0. -1.
         23    2    1    2    0    0  0.47536313740E+01 -0.88978824351E+01 -0.13697003532E+03  0.16463765616E+03  0.90790957307E+02 0.  0.
         23    2    1    2    0    0 -0.12920479665E+03  0.66342926996E+02 -0.57731907886E+02  0.18164684737E+03  0.92559929399E+02 0.  0.
        -11    1    4    4    0    0 -0.27574964936E+02 -0.96666130803E+01  0.17552969851E+02  0.34087077467E+02  0.00000000000E+00 0.  1.
         11    1    4    4    0    0 -0.10162983172E+03  0.76009540077E+02 -0.75284877737E+02  0.14755976990E+03  0.00000000000E+00 0. -1.
        -13    1    3    3    0    0  0.89966453985E+01  0.33308631028E+02 -0.19252096092E+02  0.39510096600E+02  0.00000000000E+00 0.  1.
         13    1    3    3    0    0 -0.42430140246E+01 -0.42206513463E+02 -0.11771793923E+03  0.12512755956E+03  0.00000000000E+00 0. -1.
          2    1    1    2  501    0  0.12445116528E+03 -0.57445044561E+02  0.17241909532E+03  0.22026431875E+03  0.00000000000E+00 0. -1.
<scales pt_clust_5="13000.00000" pt_clust_6="13000.00000" pt_clust_7="13000.00000" pt_clust_8="13000.00000" pt_clust_9="138.41327"></scales>
<clustering>
<clus scale="   90.791">  7  8 -1 -1</clus>
<clus scale="   91.350">  2  7  1 -1</clus>
<clus scale="   92.560">  5  6 -1 -1</clus>
<clus scale="  138.413">  1  9  2 -1</clus>
<clus scale="  138.413">  1  5  2 -1</clus>
</clustering>
</event>
<event>
 9    1  0.1671478E-005  0.9319249E+02  0.7546771E-02  0.1295698E+00
          1   -1    0    0  502    0 -0.00000000000E+00  0.00000000000E+00  0.19480160754E+03  0.19480160754E+03  0.00000000000E+00 0. -1.
         21   -1    0    0  501  502  0.00000000000E+00 -0.00000000000E+00 -0.64219434600E+02  0.64219434600E+02  0.00000000000E+00 0.  1.
         23    2    1    2    0    0  0.19264681318E+02  0.32586576178E+02  0.77361363801E+02  0.12474001400E+03  0.90234569812E+02 0.  0.
         23    2    1    2    0    0 -0.16675111653E+01 -0.74000828377E+01  0.51383830689E+02  0.10350125664E+03  0.89524690729E+02 0.  0.
        -11    1    3    3    0    0  0.21021283787E+02  0.11253166897E+02 -0.16157496377E+02  0.28802653115E+02  0.00000000000E+00 0.  1.
         11    1    3    3    0    0 -0.17566024691E+01  0.21333409281E+02  0.93518860178E+02  0.95937360881E+02  0.00000000000E+00 0. -1.
        -13    1    4    4    0    0  0.22969085207E+02  0.32860854692E+02  0.11508263843E+02  0.41711566537E+02  0.00000000000E+00 0.  1.
         13    1    4    4    0    0 -0.24636596372E+02 -0.40260937529E+02  0.39875566846E+02  0.61789690102E+02  0.00000000000E+00 0. -1.
          1    1    1    2  501    0 -0.17597170153E+02 -0.25186493340E+02  0.18369784514E+01  0.30779771506E+02  0.00000000000E+00 0. -1.
<scales pt_clust_5="13000.00000" pt_clust_6="13000.00000" pt_clust_7="13000.00000" pt_clust_8="13000.00000" pt_clust_9="30.72491"></scales>
<clustering>
<clus scale="   30.725">  2  9  1 -1</clus>
<clus scale="   89.525">  7  8 -1 -1</clus>
<clus scale="   90.235">  5  6 -1 -1</clus>
<clus scale="   92.505">  2  7  1 -1</clus>
<clus scale="   30.725">  2  5  1 -1</clus>
</clustering>
</event>
<event>
 9    1  0.1671478E-005  0.1056725E+03  0.7546771E-02  0.1269883E+00
          2   -1    0    0  502    0 -0.00000000000E+00  0.00000000000E+00  0.24297964057E+03  0.24297964057E+03  0.00000000000E+00 0. -1.
         21   -1    0    0  501  502  0.00000000000E+00 -0.00000000000E+00 -0.95081017997E+02  0.95081017997E+02  0.00000000000E+00 0.  1.
         23    2    1    2    0    0 -0.10893890594E+02  0.42743926554E+02  0.10994739870E+03  0.15048341015E+03  0.92796045937E+02 0.  0.
         23    2    1    2    0    0 -0.23998086393E+00 -0.59935741968E+02  0.84040942039E+02  0.13714131151E+03  0.90291243366E+02 0.  0.
        -11    1    3    3    0    0  0.26052551074E+02  0.16896977804E+02 -0.63799087783E+00  0.31058820144E+02  0.00000000000E+00 0.  1.
         11    1    3    3    0    0 -0.36946441668E+02  0.25846948750E+02  0.11058538957E+03  0.11942459001E+03  0.00000000000E+00 0. -1.
        -13    1    4    4    0    0 -0.29227584201E+02 -0.71434364236E+02  0.60528915936E+02  0.98086032321E+02  0.00000000000E+00 0. -1.
         13    1    4    4    0    0  0.28987603337E+02  0.11498622268E+02  0.23512026103E+02  0.39055279192E+02  0.00000000000E+00 0.  1.
          2    1    1    2  501    0  0.11133871458E+02  0.17191815415E+02 -0.46089718162E+02  0.50435936902E+02  0.00000000000E+00 0. -1.
<scales pt_clust_5="13000.00000" pt_clust_6="13000.00000" pt_clust_7="13000.00000" pt_clust_8="13000.00000" pt_clust_9="20.48223"></scales>
<clustering>
<clus scale="   20.482">  2  9  1 -1</clus>
<clus scale="   90.291">  7  8 -1 -1</clus>
<clus scale="   92.796">  5  6 -1 -1</clus>
<clus scale="  103.480">  2  7  1 -1</clus>
<clus scale="   20.482">  2  5  1 -1</clus>
</clustering>
</event>
<event>
 9    1  0.1671478E-005  0.1088682E+03  0.7546771E-02  0.1264053E+00
         21   -1    0    0  501  502  0.00000000000E+00  0.00000000000E+00  0.37269612094E+03  0.37269612094E+03  0.00000000000E+00 0. -1.
         -3   -1    0    0    0  501 -0.00000000000E+00 -0.00000000000E+00 -0.91891510479E+02  0.91891510479E+02  0.00000000000E+00 0.  1.
         23    2    1    2    0    0 -0.92290499681E+01  0.57983885161E+02 -0.37832836011E+02  0.11546789279E+03  0.91946748081E+02 0.  0.
         23    2    1    2    0    0  0.41433570299E+02 -0.48370406372E+02  0.24143273265E+03  0.26491690055E+03  0.88514195712E+02 0.  0.
        -11    1    4    4    0    0  0.66570252690E+02 -0.46400569908E+02  0.15601947332E+03  0.17585985183E+03  0.00000000000E+00 0.  1.
         11    1    4    4    0    0 -0.25136682391E+02 -0.19698364636E+01  0.85413259330E+02  0.89057048720E+02  0.00000000000E+00 0. -1.
        -13    1    3    3    0    0 -0.41686709203E+02  0.50304373875E+00 -0.57890634302E+01  0.42089761612E+02  0.00000000000E+00 0.  1.
         13    1    3    3    0    0  0.32457659235E+02  0.57480841422E+02 -0.32043772581E+02  0.73378131176E+02  0.00000000000E+00 0. -1.
         -3    1    1    2    0  502 -0.32204520331E+02 -0.96134787894E+01  0.77204713822E+02  0.84202838078E+02  0.00000000000E+00 0.  1.
<scales pt_clust_5="13000.00000" pt_clust_6="13000.00000" pt_clust_7="13000.00000" pt_clust_8="13000.00000" pt_clust_9="33.60878"></scales>
<clustering>
<clus scale="   33.609">  1  9  2 -1</clus>
<clus scale="   88.514">  5  6 -1 -1</clus>
<clus scale="   91.947">  7  8 -1 -1</clus>
<clus scale="  105.985">  1  5  2 -1</clus>
<clus scale="   33.609">  1  5  2 -1</clus>
</clustering>
</event>
<event>
 9    1  0.1671478E-005  0.1137094E+03  0.7546771E-02  0.1257808E+00
         -1   -1    0    0    0  501 -0.00000000000E+00  0.00000000000E+00  0.14497825687E+03  0.14497825687E+03  0.00000000000E+00 0.  1.
         21   -1    0    0  501  502  0.00000000000E+00 -0.00000000000E+00 -0.16499672009E+03  0.16499672009E+03  0.00000000000E+00 0. -1.
         23    2    1    2    0    0 -0.39657972532E+02  0.31552665253E+02  0.76378319215E+02  0.13167470828E+03  0.94531770774E+02 0.  0.
         23    2    1    2    0    0  0.33064039287E+02 -0.10930347600E+02 -0.38048204483E+02  0.11606429443E+03  0.10397380143E+03 0.  0.
        -11    1    3    3    0    0 -0.43931402096E+02  0.54790420752E+01 -0.64456313226E+01  0.44738508640E+02  0.00000000000E+00 0.  1.
         11    1    3    3    0    0  0.42734295647E+01  0.26073623178E+02  0.82823950537E+02  0.86936199644E+02  0.00000000000E+00 0. -1.
        -11    1    4    4    0    0 -0.18100619996E+02 -0.30978931550E+02 -0.48295482092E+02  0.60164609487E+02  0.00000000000E+00 0. -1.
         11    1    4    4    0    0  0.51164659283E+02  0.20048583951E+02  0.10247277609E+02  0.55899684940E+02  0.00000000000E+00 0.  1.
         -1    1    1    2    0  502  0.65939332445E+01 -0.20622317654E+02 -0.58348577952E+02  0.62235974244E+02  0.00000000000E+00 0.  1.
<scales pt_clust_5="13000.00000" pt_clust_6="13000.00000" pt_clust_7="13000.00000" pt_clust_8="13000.00000" pt_clust_9="21.65086"></scales>
<clustering>
<clus scale="   21.651">  2  9  1 -1</clus>
<clus scale="   94.532">  5  6 -1 -1</clus>
<clus scale="  103.974">  7  8 -1 -1</clus>
<clus scale="  105.145">  1  5  2 -1</clus>
<clus scale="   21.651">  2  5  1 -1</clus>
</clustering>
</event>
<event>
 9    1  0.1671478E-005  0.9219463E+02  0.7546771E-02  0.1299249E+00
         21   -1    0    0  501  502  0.00000000000E+00  0.00000000000E+00  0.69126127895E+02  0.69126127895E+02  0.00000000000E+00 0.  1.
          1   -1    0    0  502    0 -0.00000000000E+00 -0.00000000000E+00 -0.24003858651E+03  0.24003858651E+03  0.00000000000E+00 0. -1.
         23    2    1    2    0    0  0.10138651965E+02  0.22388015333E+02 -0.93685192491E+02  0.13260526380E+03  0.90571657832E+02 0.  0.
         23    2    1    2    0    0 -0.29201189226E+02  0.33759012355E+02 -0.38533910883E+02  0.10575659201E+03  0.87790740386E+02 0.  0.
        -13    1    4    4    0    0 -0.14372000609E+02  0.54128770765E+02  0.41854666962E+01  0.56160451899E+02  0.00000000000E+00 0.  1.
         13    1    4    4    0    0 -0.14829188617E+02 -0.20369758411E+02 -0.42719377579E+02  0.49596140107E+02  0.00000000000E+00 0. -1.
        -13    1    3    3    0    0  0.41332126199E+02  0.36914906763E+02 -0.75588367488E+02  0.93726497304E+02  0.00000000000E+00 0.  1.
         13    1    3    3    0    0 -0.31193474234E+02 -0.14526891430E+02 -0.18096825003E+02  0.38878766501E+02  0.00000000000E+00 0. -1.
          1    1    1    2  501    0  0.19062537262E+02 -0.56147027688E+02 -0.38693355238E+02  0.70802858590E+02  0.00000000000E+00 0. -1.
<scales pt_clust_5="13000.00000" pt_clust_6="13000.00000" pt_clust_7="13000.00000" pt_clust_8="13000.00000" pt_clust_9="59.29476"></scales>
<clustering>
<clus scale="   59.295">  1  9  2 -1</clus>
<clus scale="   87.791">  5  6 -1 -1</clus>
<clus scale="   89.464">  1  5  2 -1</clus>
<clus scale="   90.572">  7  8 -1 -1</clus>
<clus scale="   59.295">  1  5  2 -1</clus>
</clustering>
</event>
<event>
 9    1  0.1671478E-005  0.9670760E+02  0.7546771E-02  0.1288211E+00
          2   -1    0    0  502    0 -0.00000000000E+00  0.00000000000E+00  0.77527114971E+03  0.77527114971E+03  0.00000000000E+00 0. -1.
         21   -1    0    0  501  502  0.00000000000E+00 -0.00000000000E+00 -0.24144147746E+02  0.24144147746E+02  0.00000000000E+00 0.  1.
         23    2    1    2    0    0 -0.21129439711E+02  0.28662540553E+02  0.35296762656E+03  0.36596839820E+03  0.89881748050E+02 0.  0.
         23    2    1    2    0    0 -0.36252256745E+02 -0.36758635340E+02  0.18701130817E+03  0.21449093990E+03  0.91475190754E+02 0.  0.
        -11    1    3    3    0    0  0.34711962018E+02  0.15362822224E+02  0.17094078792E+03  0.17510479602E+03  0.00000000000E+00 0. -1.
         11    1    3    3    0    0 -0.55841401730E+02  0.13299718328E+02  0.18202683863E+03  0.19086360218E+03  0.00000000000E+00 0.  1.
        -11    1    4    4    0    0 -0.50638649330E+02 -0.59496255257E+02  0.13986468537E+03  0.16020676455E+03  0.00000000000E+00 0.  1.
         11    1    4    4    0    0  0.14386392586E+02  0.22737619917E+02  0.47146622800E+02  0.54284175342E+02  0.00000000000E+00 0. -1.
          2    1    1    2  501    0  0.57381696456E+02  0.80960947873E+01  0.21114806724E+03  0.21895595936E+03  0.00000000000E+00 0. -1.
<scales pt_clust_5="13000.00000" pt_clust_6="13000.00000" pt_clust_7="13000.00000" pt_clust_8="13000.00000" pt_clust_9="57.95006"></scales>
<clustering>
<clus scale="   57.950">  2  9  1 -1</clus>
<clus scale="   89.882">  5  6 -1 -1</clus>
<clus scale="   91.475">  7  8 -1 -1</clus>
<clus scale="   95.202">  1  5  2 -1</clus>
<clus scale="   57.950">  2  5  1 -1</clus>
</clustering>
</event>
<event>
 9    1  0.1671478E-005  0.9429868E+02  0.7546771E-02  0.1294695E+00
         21   -1    0    0  501  502  0.00000000000E+00  0.00000000000E+00  0.62253540153E+02  0.62253540153E+02  0.00000000000E+00 0. -1.
          2   -1    0    0  502    0 -0.00000000000E+00 -0.00000000000E+00 -0.21102810963E+03  0.21102810963E+03  0.00000000000E+00 0.  1.
         23    2    1    2    0    0  0.22120978673E+02 -0.13129058068E+01 -0.10516403460E+03  0.14034828695E+03  0.90261320927E+02 0.  0.
         23    2    1    2    0    0  0.75086422793E+01  0.20381975701E+01 -0.42937246038E+02  0.10328721969E+03  0.93616818441E+02 0.  0.
        -11    1    4    4    0    0 -0.27963274563E+02  0.25780179580E+01 -0.58235954934E+02  0.64653053663E+02  0.00000000000E+00 0.  1.
         11    1    4    4    0    0  0.35471916842E+02 -0.53982038789E+00  0.15298708896E+02  0.38634166024E+02  0.00000000000E+00 0. -1.
        -13    1    3    3    0    0  0.14209979744E+02  0.21647418486E+02 -0.11213226570E+03  0.11508335789E+03  0.00000000000E+00 0.  1.
         13    1    3    3    0    0  0.79109989290E+01 -0.22960324293E+02  0.69682310981E+01  0.25264929058E+02  0.00000000000E+00 0. -1.
          2    1    1    2  501    0 -0.29629620952E+02 -0.72529176339E+00 -0.67328883810E+00  0.29646143151E+02  0.00000000000E+00 0.  1.
<scales pt_clust_5="13000.00000" pt_clust_6="13000.00000" pt_clust_7="13000.00000" pt_clust_8="13000.00000" pt_clust_9="29.63850"></scales>
<clustering>
<clus scale="   29.638">  1  9  2 -1</clus>
<clus scale="   90.261">  7  8 -1 -1</clus>
<clus scale="   90.968">  2  7  1 -1</clus>
<clus scale="   93.617">  5  6 -1 -1</clus>
<clus scale="   29.638">  1  5  2 -1</clus>
</clustering>
</event>
<event>
 9    1  0.1671478E-005  0.2042663E+03  0.7546771E-02  0.1146205E+00
         21   -1    0    0  501  502  0.00000000000E+00  0.00000000000E+00  0.49120034282E+02  0.49120034282E+02  0.00000000000E+00 0.  1.
          1   -1    0    0  502    0 -0.00000000000E+00 -0.00000000000E+00 -0.12643840354E+04  0.12643840354E+04  0.00000000000E+00 0. -1.
         23    2    1    2    0    0 -0.18531518057E+03 -0.40577459626E+02 -0.91557759791E+03  0.93943611124E+03  0.90937467091E+02 0.  0.
         23    2    1    2    0    0  0.16440519767E+03  0.27486189166E+02 -0.29176405183E+03  0.34815710363E+03  0.91118314586E+02 0.  0.
        -13    1    3    3    0    0 -0.17417635419E+03 -0.70713072861E+01 -0.78888601611E+03  0.80791617892E+03  0.00000000000E+00 0. -1.
         13    1    3    3    0    0 -0.11138826382E+02 -0.33506152340E+02 -0.12669158180E+03  0.13151993232E+03  0.00000000000E+00 0.  1.
        -13    1    4    4    0    0  0.11195099395E+03  0.58724787948E+02 -0.22182915616E+03  0.25532293334E+03  0.00000000000E+00 0.  1.
         13    1    4    4    0    0  0.52454203715E+02 -0.31238598782E+02 -0.69934895672E+02  0.92834170292E+02  0.00000000000E+00 0. -1.
          1    1    1    2  501    0  0.20909982907E+02  0.13091270460E+02 -0.79223514213E+01  0.25910854858E+02  0.00000000000E+00 0. -1.
<scales pt_clust_5="13000.00000" pt_clust_6="13000.00000" pt_clust_7="13000.00000" pt_clust_8="13000.00000" pt_clust_9="24.67000"></scales>
<clustering>
<clus scale="   24.670">  1  9  2 -1</clus>
<clus scale="   90.937">  5  6 -1 -1</clus>
<clus scale="   91.118">  7  8 -1 -1</clus>
<clus scale="  204.186">  2  5  1 -1</clus>
<clus scale="   24.670">  1  5  2 -1</clus>
</clustering>
</event>
<event>
 9    1  0.1671478E-005  0.9650115E+02  0.7546771E-02  0.1289170E+00
          2   -1    0    0  502    0 -0.00000000000E+00  0.00000000000E+00  0.64303417165E+03  0.64303417165E+03  0.00000000000E+00 0. -1.
         21   -1    0    0  501  502  0.00000000000E+00 -0.00000000000E+00 -0.58751118557E+02  0.58751118557E+02  0.00000000000E+00 0. -1.
         23    2    1    2    0    0 -0.13706467120E+02  0.12726922266E+01  0.36694841813E+03  0.37862066406E+03  0.92265804605E+02 0.  0.
         23    2    1    2    0    0 -0.37633877009E+02 -0.70636165092E+02  0.19972977174E+03  0.23509048969E+03  0.94708923056E+02 0.  0.
        -13    1    4    4    0    0  0.12626567719E+02  0.16510259006E+02  0.55303137923E+02  0.59080080645E+02  0.00000000000E+00 0.  1.
         13    1    4    4    0    0 -0.50260444728E+02 -0.87146424098E+02  0.14442663382E+03  0.17601040905E+03  0.00000000000E+00 0. -1.
        -13    1    3    3    0    0  0.28538784671E+02 -0.27246347323E+02  0.11536369024E+03  0.12192459431E+03  0.00000000000E+00 0. -1.
         13    1    3    3    0    0 -0.42245251792E+02  0.28519039550E+02  0.25158472789E+03  0.25669606975E+03  0.00000000000E+00 0.  1.
          2    1    1    2  501    0  0.51340344129E+02  0.69363472866E+02  0.17604863224E+02  0.88074136456E+02  0.00000000000E+00 0. -1.
<scales pt_clust_5="13000.00000" pt_clust_6="13000.00000" pt_clust_7="13000.00000" pt_clust_8="13000.00000" pt_clust_9="86.29671"></scales>
<clustering>
<clus scale="   86.297">  2  9  1 -1</clus>
<clus scale="   92.266">  7  8 -1 -1</clus>
<clus scale="   94.105">  1  7  2 -1</clus>
<clus scale="   94.709">  5  6 -1 -1</clus>
<clus scale="   86.297">  2  5  1 -1</clus>
</clustering>
</event>
<event>
 9    1  0.1671478E-005  0.1910691E+03  0.7546771E-02  0.1157823E+00
         21   -1    0    0  501  502  0.00000000000E+00  0.00000000000E+00  0.11071174151E+03  0.11071174151E+03  0.00000000000E+00 0. -1.
          2   -1    0    0  502    0 -0.00000000000E+00 -0.00000000000E+00 -0.57969584449E+03  0.57969584449E+03  0.00000000000E+00 0. -1.
         23    2    1    2    0    0 -0.16215016534E+03  0.11587939418E+02 -0.38635975744E+03  0.42899583172E+03  0.91305010862E+02 0.  0.
         23    2    1    2    0    0  0.18143501169E+03  0.18041936807E+02 -0.45663007096E+02  0.21026514732E+03  0.94245143170E+02 0.  0.
        -13    1    3    3    0    0 -0.10749313971E+03 -0.36369801209E+02 -0.22438126623E+03  0.25144480539E+03  0.00000000000E+00 0.  1.
         13    1    3    3    0    0 -0.54657025638E+02  0.47957740627E+02 -0.16197849121E+03  0.17755102633E+03  0.00000000000E+00 0. -1.
        -13    1    4    4    0    0  0.70748356308E+02  0.12950714700E+02 -0.65992681663E+02  0.97611909952E+02  0.00000000000E+00 0. -1.
         13    1    4    4    0    0  0.11068665538E+03  0.50912221072E+01  0.20329674567E+02  0.11265323737E+03  0.00000000000E+00 0.  1.
          2    1    1    2  501    0 -0.19284846343E+02 -0.29629876225E+02 -0.36961338449E+02  0.51146606960E+02  0.00000000000E+00 0. -1.
<scales pt_clust_5="13000.00000" pt_clust_6="13000.00000" pt_clust_7="13000.00000" pt_clust_8="13000.00000" pt_clust_9="35.35302"></scales>
<clustering>
<clus scale="   35.353">  1  9  2 -1</clus>
<clus scale="   91.305">  5  6 -1 -1</clus>
<clus scale="   94.245">  7  8 -1 -1</clus>
<clus scale="  189.636">  2  5  1 -1</clus>
<clus scale="   35.353">  1  5  2 -1</clus>
</clustering>
</event>
<event>
 9    1  0.1671478E-005  0.1713795E+03  0.7546771E-02  0.1176571E+00
         -1   -1    0    0    0  501 -0.00000000000E+00  0.00000000000E+00  0.39028897617E+03  0.39028897617E+03  0.00000000000E+00 0.  1.
         21   -1    0    0  501  502  0.00000000000E+00 -0.00000000000E+00 -0.10158352314E+03  0.10158352314E+03  0.00000000000E+00 0.  1.
         23    2    1    2    0    0  0.91737547533E+02 -0.10547267983E+03  0.12565272739E+03  0.20945185055E+03  0.92418645198E+02 0.  0.
         23    2    1    2    0    0 -0.57148343078E+02  0.14295648888E+03  0.11820501793E+03  0.21450330273E+03  0.91305803687E+02 0.  0.
        -13    1    4    4    0    0 -0.80245839764E+02  0.12909485442E+03  0.10227877215E+03  0.18320977995E+03  0.00000000000E+00 0. -1.
         13    1    4    4    0    0  0.23097496687E+02  0.13861634467E+02  0.15926245777E+02  0.31293522778E+02  0.00000000000E+00 0.  1.
        -13    1    3    3    0    0  0.18001219260E+02  0.14055981102E+02  0.36644684347E+02  0.43179247220E+02  0.00000000000E+00 0. -1.
         13    1    3    3    0    0  0.73736328273E+02 -0.11952866094E+03  0.89008043045E+02  0.16627260333E+03  0.00000000000E+00 0.  1.
         -1    1    1    2    0  502 -0.34589204455E+02 -0.37483809051E+02  0.44847707706E+02  0.67917346034E+02  0.00000000000E+00 0.  1.
<scales pt_clust_5="13000.00000" pt_clust_6="13000.00000" pt_clust_7="13000.00000" pt_clust_8="13000.00000" pt_clust_9="51.00443"></scales>
<clustering>
<clus scale="   51.004">  2  9  1 -1</clus>
<clus scale="   91.306">  5  6 -1 -1</clus>
<clus scale="   92.419">  7  8 -1 -1</clus>
<clus scale="  170.782">  2  5  1 -1</clus>
<clus scale="   51.004">  2  5  1 -1</clus>
</clustering>
</event>
<event>
 9    1  0.1671478E-005  0.1525084E+03  0.7546771E-02  0.1198301E+00
         21   -1    0    0  501  502  0.00000000000E+00  0.00000000000E+00  0.74433386921E+02  0.74433386921E+02  0.00000000000E+00 0.  1.
          1   -1    0    0  502    0 -0.00000000000E+00 -0.00000000000E+00 -0.78967615056E+03  0.78967615056E+03  0.00000000000E+00 0. -1.
         23    2    1    2    0    0 -0.38131958382E+01  0.11746140503E+03 -0.60292923401E+03  0.62023779102E+03  0.85787726698E+02 0.  0.
         23    2    1    2    0    0 -0.37244993975E+01 -0.15416913104E+03 -0.95221462142E+02  0.20268421474E+03  0.90729108834E+02 0.  0.
        -11    1    4    4    0    0 -0.30454815990E+02 -0.13494542841E+03 -0.98162646663E+02  0.16962803325E+03  0.00000000000E+00 0.  1.
         11    1    4    4    0    0  0.26730316593E+02 -0.19223702636E+02  0.29411845209E+01  0.33056181488E+02  0.00000000000E+00 0. -1.
        -13    1    3    3    0    0  0.20943368122E+02 -0.39446856119E+01 -0.75511526492E+02  0.78461301582E+02  0.00000000000E+00 0.  1.
         13    1    3    3    0    0 -0.24756563960E+02  0.12140609065E+03 -0.52741770752E+03  0.54177648944E+03  0.00000000000E+00 0. -1.
          1    1    1    2  501    0  0.75376952357E+01  0.36707726009E+02 -0.17092067486E+02  0.41187531720E+02  0.00000000000E+00 0. -1.
<scales pt_clust_5="13000.00000" pt_clust_6="13000.00000" pt_clust_7="13000.00000" pt_clust_8="13000.00000" pt_clust_9="37.47364"></scales>
<clustering>
<clus scale="   37.474">  1  9  2 -1</clus>
<clus scale="   85.788">  7  8 -1 -1</clus>
<clus scale="   90.729">  5  6 -1 -1</clus>
<clus scale="  149.621">  2  7  1 -1</clus>
<clus scale="   37.474">  1  5  2 -1</clus>
</clustering>
</event>
<event>
 9    1  0.1671478E-005  0.1558068E+03  0.7546771E-02  0.1212467E+00
         21   -1    0    0  501  502  0.00000000000E+00  0.00000000000E+00  0.51750463061E+02  0.51750463061E+02  0.00000000000E+00 0. -1.
          1   -1    0    0  502    0 -0.00000000000E+00 -0.00000000000E+00 -0.77826592765E+03  0.77826592765E+03  0.00000000000E+00 0. -1.
         23    2    1    2    0    0  0.36060405327E+02 -0.25574117371E+02 -0.19535300824E+03  0.22105157104E+03  0.93523317518E+02 0.  0.
         23    2    1    2    0    0 -0.25725654602E+02  0.14474199648E+03 -0.37097831781E+03  0.40904796515E+03  0.89907011148E+02 0.  0.
        -13    1    3    3    0    0  0.37799645044E+02 -0.58015423657E+02 -0.15053930554E+03  0.16570058859E+03  0.00000000000E+00 0.  1.
         13    1    3    3    0    0 -0.17392397170E+01  0.32441306285E+02 -0.44813702699E+02  0.55350982447E+02  0.00000000000E+00 0. -1.
        -13    1    4    4    0    0  0.16456228194E+02  0.12028187641E+03 -0.29197480797E+03  0.31620851622E+03  0.00000000000E+00 0. -1.
         13    1    4    4    0    0 -0.42181882796E+02  0.24460120071E+02 -0.79003509841E+02  0.92839448928E+02  0.00000000000E+00 0.  1.
          1    1    1    2  501    0 -0.10334750725E+02 -0.11916787911E+03 -0.16018413854E+03  0.19991685453E+03  0.00000000000E+00 0. -1.
<scales pt_clust_5="13000.00000" pt_clust_6="13000.00000" pt_clust_7="13000.00000" pt_clust_8="13000.00000" pt_clust_9="127.24965"></scales>
<clustering>
<clus scale="   89.907">  7  8 -1 -1</clus>
<clus scale="   93.523">  5  6 -1 -1</clus>
<clus scale="  103.446">  2  5  1 -1</clus>
<clus scale="  127.250">  1  9  2 -1</clus>
<clus scale="  127.250">  1  5  2 -1</clus>
</clustering>
</event>
<event>
 9    1  0.1671478E-005  0.9324661E+02  0.7546771E-02  0.1296879E+00
         21   -1    0    0  501  502  0.00000000000E+00  0.00000000000E+00  0.14965858223E+03  0.14965858223E+03  0.00000000000E+00 0. -1.
         -3   -1    0    0    0  501 -0.00000000000E+00 -0.00000000000E+00 -0.15340175215E+03  0.15340175215E+03  0.00000000000E+00 0.  1.
         23    2    1    2    0    0  0.13894423443E+02 -0.11293918673E+02 -0.98528191383E+02  0.13377993848E+03  0.88705466809E+02 0.  0.
         23    2    1    2    0    0  0.10285066605E+02  0.26909662375E+02  0.10145882083E+03  0.13973316611E+03  0.91659985065E+02 0.  0.
        -13    1    4    4    0    0  0.18171621039E+02 -0.30864897335E+02  0.52721217824E+02  0.63736775158E+02  0.00000000000E+00 0.  1.
         13    1    4    4    0    0 -0.78865544339E+01  0.57774559711E+02  0.48737603008E+02  0.75996390951E+02  0.00000000000E+00 0. -1.
        -13    1    3    3    0    0 -0.34344287272E+02 -0.94607165677E+01 -0.67705633633E+02  0.76505477267E+02  0.00000000000E+00 0.  1.
         13    1    3    3    0    0  0.48238710715E+02 -0.18332021052E+01 -0.30822557749E+02  0.57274461217E+02  0.00000000000E+00 0. -1.
         -3    1    1    2    0  502 -0.24179490048E+02 -0.15615743702E+02 -0.66737993661E+01  0.29547229792E+02  0.00000000000E+00 0.  1.
<scales pt_clust_5="13000.00000" pt_clust_6="13000.00000" pt_clust_7="13000.00000" pt_clust_8="13000.00000" pt_clust_9="28.78368"></scales>
<clustering>
<clus scale="   28.784">  1  9  2 -1</clus>
<clus scale="   88.705">  7  8 -1 -1</clus>
<clus scale="   90.344">  2  7  1 -1</clus>
<clus scale="   91.660">  5  6 -1 -1</clus>
<clus scale="   28.784">  1  5  2 -1</clus>
</clustering>
</event>
<event>
 9    1  0.1671478E-005  0.1080709E+03  0.7546771E-02  0.1264841E+00
         -3   -1    0    0    0  501 -0.00000000000E+00  0.00000000000E+00  0.64651304466E+02  0.64651304466E+02  0.00000000000E+00 0.  1.
         21   -1    0    0  501  502  0.00000000000E+00 -0.00000000000E+00 -0.25639261779E+03  0.25639261779E+03  0.00000000000E+00 0. -1.
         23    2    1    2    0    0  0.41350598472E+00 -0.68591598732E+02 -0.87872436788E+02  0.14321799222E+03  0.89915792517E+02 0.  0.
         23    2    1    2    0    0 -0.22933090819E+02  0.43367828879E+02 -0.99323180390E+02  0.14370799311E+03  0.91543420765E+02 0.  0.
        -11    1    3    3    0    0 -0.28496121166E+02 -0.44216669638E+02 -0.91173206557E+02  0.10526013675E+03  0.00000000000E+00 0. -1.
         11    1    3    3    0    0  0.28909627151E+02 -0.24374929095E+02  0.33007697692E+01  0.37957855464E+02  0.00000000000E+00 0.  1.
        -13    1    4    4    0    0  0.12895076487E+02 -0.22649563863E+02 -0.12508570460E+02  0.28909342361E+02  0.00000000000E+00 0.  1.
         13    1    4    4    0    0 -0.35828167306E+02  0.66017392742E+02 -0.86814609930E+02  0.11479865075E+03  0.00000000000E+00 0. -1.
         -3    1    1    2    0  502  0.22519584834E+02  0.25223769854E+02 -0.45456961477E+01  0.34117936928E+02  0.00000000000E+00 0.  1.
<scales pt_clust_5="13000.00000" pt_clust_6="13000.00000" pt_clust_7="13000.00000" pt_clust_8="13000.00000" pt_clust_9="33.81378"></scales>
<clustering>
<clus scale="   33.814">  2  9  1 -1</clus>
<clus scale="   89.916">  5  6 -1 -1</clus>
<clus scale="   91.543">  7  8 -1 -1</clus>
<clus scale="  106.696">  1  5  2 -1</clus>
<clus scale="   33.814">  2  5  1 -1</clus>
</clustering>
</event>
<event>
 9    1  0.1671478E-005  0.1775374E+03  0.7546771E-02  0.1170245E+00
          3   -1    0    0  502    0 -0.00000000000E+00  0.00000000000E+00  0.43006356290E+03  0.43006356290E+03  0.00000000000E+00 0. -1.
         21   -1    0    0  501  502  0.00000000000E+00 -0.00000000000E+00 -0.10700853922E+03  0.10700853922E+03  0.00000000000E+00 0. -1.
         23    2    1    2    0    0  0.13416075111E+03 -0.18442249460E+02  0.13098199544E+03  0.20893107259E+03  0.90314374611E+02 0.  0.
         23    2    1    2    0    0 -0.17352957571E+03  0.50596400776E+02  0.10629654517E+03  0.22843446582E+03  0.90613686840E+02 0.  0.
        -11    1    4    4    0    0 -0.31522644911E+02 -0.19893897080E+01  0.63741579526E+02  0.71138061360E+02  0.00000000000E+00 0.  1.
         11    1    4    4    0    0 -0.14200693080E+03  0.52585790484E+02  0.42554965647E+02  0.15729640446E+03  0.00000000000E+00 0. -1.
        -13    1    3    3    0    0  0.52278723808E+02  0.28352725989E+02  0.18799604539E+02  0.62372807896E+02  0.00000000000E+00 0.  1.
         13    1    3    3    0    0  0.81882027298E+02 -0.46794975449E+02  0.11218239090E+03  0.14655826469E+03  0.00000000000E+00 0. -1.
          3    1    1    2  501    0  0.39368824606E+02 -0.32154151316E+02  0.85776483065E+02  0.99706563699E+02  0.00000000000E+00 0. -1.
<scales pt_clust_5="13000.00000" pt_clust_6="13000.00000" pt_clust_7="13000.00000" pt_clust_8="13000.00000" pt_clust_9="50.83106"></scales>
<clustering>
<clus scale="   50.831">  2  9  1 -1</clus>
<clus scale="   90.314">  7  8 -1 -1</clus>
<clus scale="   90.614">  5  6 -1 -1</clus>
<clus scale="  177.385">  1  7  2 -1</clus>
<clus scale="   50.831">  2  5  1 -1</clus>
</clustering>
</event>
<event>
 9    1  0.1671478E-005  0.1343661E+03  0.7546771E-02  0.1221707E+00
         21   -1    0    0  501  502  0.00000000000E+00  0.00000000000E+00  0.15543268231E+03  0.15543268231E+03  0.00000000000E+00 0.  1.
         -4   -1    0    0    0  501 -0.00000000000E+00 -0.00000000000E+00 -0.18940406542E+03  0.18940406542E+03  0.00000000000E+00 0.  1.
         23    2    1    2    0    0 -0.75596471242E+02  0.55548508534E+02 -0.80805541714E+02  0.15517171446E+03  0.93532144915E+02 0.  0.
         23    2    1    2    0    0  0.56502697657E+02 -0.91793510045E+02  0.25388112385E+02  0.14342430206E+03  0.91144779565E+02 0.  0.
        -13    1    3    3    0    0  0.36645252382E+01 -0.21295596786E+02 -0.18248283103E+02  0.28283051884E+02  0.00000000000E+00 0. -1.
         13    1    3    3    0    0 -0.79260996480E+02  0.76844105320E+02 -0.62557258611E+02  0.12688866258E+03  0.00000000000E+00 0.  1.
        -13    1    4    4    0    0 -0.18761707764E+02 -0.48572898612E+02 -0.28673835762E+01  0.52149305330E+02  0.00000000000E+00 0.  1.
         13    1    4    4    0    0  0.75264405421E+02 -0.43220611433E+02  0.28255495961E+02  0.91274996730E+02  0.00000000000E+00 0. -1.
         -4    1    1    2    0  502  0.19093773585E+02  0.36245001510E+02  0.21446046225E+02  0.46240731211E+02  0.00000000000E+00 0.  1.
<scales pt_clust_5="13000.00000" pt_clust_6="13000.00000" pt_clust_7="13000.00000" pt_clust_8="13000.00000" pt_clust_9="40.96672"></scales>
<clustering>
<clus scale="   40.967">  1  9  2 -1</clus>
<clus scale="   91.145">  7  8 -1 -1</clus>
<clus scale="   93.532">  5  6 -1 -1</clus>
<clus scale="  132.715">  1  7  2 -1</clus>
<clus scale="   40.967">  1  5  2 -1</clus>
</clustering>
</event>
<event>
 9    1  0.1671478E-005  0.9450018E+02  0.7546771E-02  0.1293821E+00
         21   -1    0    0  501  502  0.00000000000E+00  0.00000000000E+00  0.18801675686E+03  0.18801675686E+03  0.00000000000E+00 0.  1.
          2   -1    0    0  502    0 -0.00000000000E+00 -0.00000000000E+00 -0.72585326204E+02  0.72585326204E+02  0.00000000000E+00 0. -1.
         23    2    1    2    0    0  0.10006155953E+02  0.11662071036E+02  0.42148459496E+01  0.93098322477E+02  0.91724618635E+02 0.  0.
         23    2    1    2    0    0 -0.36577996957E+02 -0.16313790274E+02  0.79652179670E+02  0.12598252636E+03  0.89011446501E+02 0.  0.
        -11    1    3    3    0    0  0.11067412721E+01  0.38034110608E+02  0.34927425416E+02  0.51650203215E+02  0.00000000000E+00 0.  1.
         11    1    3    3    0    0  0.88994146808E+01 -0.26372039572E+02 -0.30712579466E+02  0.41448119261E+02  0.00000000000E+00 0. -1.
        -13    1    4    4    0    0 -0.63368544424E+02 -0.25828507999E+02  0.48927672058E+02  0.84122537651E+02  0.00000000000E+00 0.  1.
         13    1    4    4    0    0  0.26790547467E+02  0.95147177256E+01  0.30724507612E+02  0.41859988712E+02  0.00000000000E+00 0. -1.
          2    1    1    2  501    0  0.26571841004E+02  0.46517192375E+01  0.31564405039E+02  0.41521234227E+02  0.00000000000E+00 0. -1.
<scales pt_clust_5="13000.00000" pt_clust_6="13000.00000" pt_clust_7="13000.00000" pt_clust_8="13000.00000" pt_clust_9="26.97594"></scales>
<clustering>
<clus scale="   26.976">  1  9  2 -1</clus>
<clus scale="   89.011">  7  8 -1 -1</clus>
<clus scale="   91.725">  5  6 -1 -1</clus>
<clus scale="   91.869">  1  7  2 -1</clus>
<clus scale="   26.976">  1  5  2 -1</clus>
</clustering>
</event>
<event>
 9    1  0.1671478E-005  0.9410466E+02  0.7546771E-02  0.1293342E+00
         21   -1    0    0  501  502  0.00000000000E+00  0.00000000000E+00  0.10434376749E+03  0.10434376749E+03  0.00000000000E+00 0.  1.
         -3   -1    0    0    0  501 -0.00000000000E+00 -0.00000000000E+00 -0.22345190846E+03  0.22345190846E+03  0.00000000000E+00 0.  1.
         23    2    1    2    0    0 -0.27379319133E+01  0.99709259366E+01 -0.12748260176E+03  0.15769016456E+03  0.92235885704E+02 0.  0.
         23    2    1    2    0    0  0.20691049272E+02 -0.30443775464E+02 -0.46040922615E+02  0.10925745520E+03  0.91991749511E+02 0.  0.
        -11    1    4    4    0    0 -0.12852438533E+02  0.28174800185E+02 -0.90989392064E+01  0.32276852951E+02  0.00000000000E+00 0. -1.
         11    1    4    4    0    0  0.33543487804E+02 -0.58618575649E+02 -0.36941983409E+02  0.76980602254E+02  0.00000000000E+00 0.  1.
        -11    1    3    3    0    0  0.33508460849E+02 -0.24889028771E+02 -0.68100769511E+02  0.79874874083E+02  0.00000000000E+00 0.  1.
         11    1    3    3    0    0 -0.36246392763E+02  0.34859954708E+02 -0.59381832251E+02  0.77815290477E+02  0.00000000000E+00 0. -1.
         -3    1    1    2    0  502 -0.17953117358E+02  0.20472849527E+02  0.54415383403E+02  0.60848056185E+02  0.00000000000E+00 0.  1.
<scales pt_clust_5="13000.00000" pt_clust_6="13000.00000" pt_clust_7="13000.00000" pt_clust_8="13000.00000" pt_clust_9="27.22962"></scales>
<clustering>
<clus scale="   27.230">  1  9  2 -1</clus>
<clus scale="   91.992">  5  6 -1 -1</clus>
<clus scale="   92.236">  7  8 -1 -1</clus>
<clus scale="   93.865">  1  5  2 -1</clus>
<clus scale="   27.230">  1  5  2 -1</clus>
</clustering>
</event>
<event>
 9    1  0.1671478E-005  0.1045924E+03  0.7546771E-02  0.1271885E+00
         21   -1    0    0  501  502  0.00000000000E+00  0.00000000000E+00  0.20564903428E+02  0.20564903428E+02  0.00000000000E+00 0. -1.
         -1   -1    0    0    0  501 -0.00000000000E+00 -0.00000000000E+00 -0.75691651658E+03  0.75691651658E+03  0.00000000000E+00 0.  1.
         23    2    1    2    0    0 -0.33996308450E+02  0.18875977853E+02 -0.32358157177E+03  0.33809881392E+03  0.89965120248E+02 0.  0.
         23    2    1    2    0    0  0.47992229314E+02 -0.47480323107E+02 -0.27123048010E+03  0.29430489664E+03  0.92150766113E+02 0.  0.
        -11    1    4    4    0    0 -0.26237685026E+02 -0.18031621709E+02 -0.10786958000E+03  0.11246955938E+03  0.00000000000E+00 0. -1.
         11    1    4    4    0    0  0.74229914339E+02 -0.29448701398E+02 -0.16336090010E+03  0.18183533726E+03  0.00000000000E+00 0.  1.
        -13    1    3    3    0    0 -0.14964428309E+02 -0.36103486252E+02 -0.11007428239E+03  0.11680643595E+03  0.00000000000E+00 0.  1.
         13    1    3    3    0    0 -0.19031880140E+02  0.54979464105E+02 -0.21350728937E+03  0.22129237798E+03  0.00000000000E+00 0. -1.
         -1    1    1    2    0  502 -0.13995920864E+02  0.28604345254E+02 -0.14153956128E+03  0.14507770944E+03  0.00000000000E+00 0.  1.
<scales pt_clust_5="13000.00000" pt_clust_6="13000.00000" pt_clust_7="13000.00000" pt_clust_8="13000.00000" pt_clust_9="31.84486"></scales>
<clustering>
<clus scale="   31.845">  1  9  2 -1</clus>
<clus scale="   89.965">  7  8 -1 -1</clus>
<clus scale="   92.151">  5  6 -1 -1</clus>
<clus scale="  102.672">  2  7  1 -1</clus>
<clus scale="   31.845">  1  5  2 -1</clus>
</clustering>
</event>
<event>
 9    1  0.1671478E-005  0.1261661E+03  0.7546771E-02  0.1233531E+00
         21   -1    0    0  501  502  0.00000000000E+00  0.00000000000E+00  0.44837810469E+03  0.44837810469E+03  0.00000000000E+00 0.  1.
          3   -1    0    0  502    0 -0.00000000000E+00 -0.00000000000E+00 -0.59052500181E+02  0.59052500181E+02  0.00000000000E+00 0. -1.
         23    2    1    2    0    0  0.88176295102E+02  0.28530442755E+02  0.50520755748E+02  0.13941699590E+03  0.91080770755E+02 0.  0.
         23    2    1    2    0    0 -0.61244405960E+02 -0.32302604209E+02  0.25263626756E+03  0.27765554215E+03  0.92049882665E+02 0.  0.
        -11    1    3    3    0    0  0.52054679980E+02 -0.15911581021E+02  0.60392126644E+02  0.81302380525E+02  0.00000000000E+00 0.  1.
         11    1    3    3    0    0  0.36121615122E+02  0.44442023776E+02 -0.98713708955E+01  0.58114615371E+02  0.00000000000E+00 0. -1.
        -13    1    4    4    0    0 -0.66854337521E+02  0.13747114624E+02  0.16338201902E+03  0.17706543916E+03  0.00000000000E+00 0.  1.
         13    1    4    4    0    0  0.56099315612E+01 -0.46049718832E+02  0.89254248544E+02  0.10059010299E+03  0.00000000000E+00 0. -1.
          3    1    1    2  501    0 -0.26931889143E+02  0.37721614538E+01  0.86168581195E+02  0.90358066823E+02  0.00000000000E+00 0. -1.
<scales pt_clust_5="13000.00000" pt_clust_6="13000.00000" pt_clust_7="13000.00000" pt_clust_8="13000.00000" pt_clust_9="27.19478"></scales>
<clustering>
<clus scale="   27.195">  1  9  2 -1</clus>
<clus scale="   91.081">  5  6 -1 -1</clus>
<clus scale="   92.050">  7  8 -1 -1</clus>
<clus scale="  125.461">  2  5  1 -1</clus>
<clus scale="   27.195">  1  5  2 -1</clus>
</clustering>
</event>
<event>
 9    1  0.1671478E-005  0.1244691E+03  0.7546771E-02  0.1238458E+00
          2   -1    0    0  502    0 -0.00000000000E+00  0.00000000000E+00  0.87902824044E+03  0.87902824044E+03  0.00000000000E+00 0. -1.
         21   -1    0    0  501  502  0.00000000000E+00 -0.00000000000E+00 -0.33764502021E+02  0.33764502021E+02  0.00000000000E+00 0.  1.
         23    2    1    2    0    0 -0.80133748936E+02 -0.24678034458E+02  0.60507260765E+03  0.61593067375E+03  0.78913314662E+02 0.  0.
         23    2    1    2    0    0  0.90053739856E+02  0.58374199021E+02  0.20015061211E+03  0.24359781371E+03  0.88104506944E+02 0.  0.
        -11    1    3    3    0    0 -0.88103826199E+02 -0.81719878505E+00  0.51162352863E+03  0.51915468509E+03  0.00000000000E+00 0. -1.
         11    1    3    3    0    0  0.79700772629E+01 -0.23860835673E+02  0.93449079027E+02  0.96775988662E+02  0.00000000000E+00 0.  1.
        -13    1    4    4    0    0  0.56974240441E+02  0.49078106042E+02  0.51781803888E+02  0.91302134588E+02  0.00000000000E+00 0.  1.
         13    1    4    4    0    0  0.33079499415E+02  0.92960929784E+01  0.14836880823E+03  0.15229567913E+03  0.00000000000E+00 0. -1.
          2    1    1    2  501    0 -0.99199909202E+01 -0.33696164563E+02  0.40040518647E+02  0.53264254990E+02  0.00000000000E+00 0. -1.
<scales pt_clust_5="13000.00000" pt_clust_6="13000.00000" pt_clust_7="13000.00000" pt_clust_8="13000.00000" pt_clust_9="35.12603"></scales>
<clustering>
<clus scale="   35.126">  2  9  1 -1</clus>
<clus scale="   78.913">  5  6 -1 -1</clus>
<clus scale="   88.105">  7  8 -1 -1</clus>
<clus scale="  118.142">  1  5  2 -1</clus>
<clus scale="   35.126">  2  5  1 -1</clus>
</clustering>
</event>
<event>
 9    1  0.1671478E-005  0.1137187E+03  0.7546771E-02  0.1254564E+00
         -2   -1    0    0    0  501 -0.00000000000E+00  0.00000000000E+00  0.14812873181E+03  0.14812873181E+03  0.00000000000E+00 0. -1.
         21   -1    0    0  501  502  0.00000000000E+00 -0.00000000000E+00 -0.15538993808E+03  0.15538993808E+03  0.00000000000E+00 0. -1.
         23    2    1    2    0    0 -0.34586698209E+02  0.58706884890E+02  0.76504878453E+02  0.13558706248E+03  0.88815072253E+02 0.  0.
         23    2    1    2    0    0  0.12763292560E+02 -0.71735853366E+02 -0.82021563728E+02  0.14245498268E+03  0.90867765901E+02 0.  0.
        -11    1    3    3    0    0 -0.37670844472E+02 -0.72278008789E+01  0.56863647236E+01  0.38777163028E+02  0.00000000000E+00 0.  1.
         11    1    3    3    0    0  0.30841462625E+01  0.65934685769E+02  0.70818513729E+02  0.96809899455E+02  0.00000000000E+00 0. -1.
        -11    1    4    4    0    0  0.18641415488E+02  0.12817034126E+02  0.24958654535E+01  0.22759790851E+02  0.00000000000E+00 0.  1.
         11    1    4    4    0    0 -0.58781229279E+01 -0.84552887492E+02 -0.84517429182E+02  0.11969519183E+03  0.00000000000E+00 0. -1.
         -2    1    1    2    0  502  0.21823405649E+02  0.13028968476E+02 -0.17445209972E+01  0.25476624721E+02  0.00000000000E+00 0. -1.
<scales pt_clust_5="13000.00000" pt_clust_6="13000.00000" pt_clust_7="13000.00000" pt_clust_8="13000.00000" pt_clust_9="25.41683"></scales>
<clustering>
<clus scale="   25.417">  2  9  1 -1</clus>
<clus scale="   88.815">  5  6 -1 -1</clus>
<clus scale="   90.868">  7  8 -1 -1</clus>
<clus scale="  112.085">  1  5  2 -1</clus>
<clus scale="   25.417">  2  5  1 -1</clus>
</clustering>
</event>
<event>
 9    1  0.1671478E-005  0.8794036E+02  0.7546771E-02  0.1308094E+00
         21   -1    0    0  501  502  0.00000000000E+00  0.00000000000E+00  0.23969868682E+03  0.23969868682E+03  0.00000000000E+00 0. -1.
          4   -1    0    0  502    0 -0.00000000000E+00 -0.00000000000E+00 -0.54165104931E+02  0.54165104931E+02  0.00000000000E+00 0. -1.
         23    2    1    2    0    0  0.19950005070E+02 -0.26898875843E+01  0.56769417749E+02  0.10573098509E+03  0.86896698549E+02 0.  0.
         23    2    1    2    0    0  0.92197094642E+01 -0.23842750704E+02  0.11457801522E+03  0.14622696027E+03  0.87182122801E+02 0.  0.
        -11    1    3    3    0    0  0.49378377762E+02  0.26970880451E+01  0.57454483740E+02  0.75805779306E+02  0.00000000000E+00 0. -1.
         11    1    3    3    0    0 -0.29428372692E+02 -0.53869756294E+01 -0.68506599057E+00  0.29925205783E+02  0.00000000000E+00 0.  1.
        -11    1    4    4    0    0 -0.18441164172E+02 -0.23442603450E+02  0.15545067236E+01  0.29867184061E+02  0.00000000000E+00 0.  1.
         11    1    4    4    0    0  0.27660873636E+02 -0.40014725367E+00  0.11302350849E+03  0.11635977621E+03  0.00000000000E+00 0. -1.
          4    1    1    2  501    0 -0.29169714534E+02  0.26532638288E+02  0.14186148927E+02  0.41905846393E+02  0.00000000000E+00 0. -1.
<scales pt_clust_5="13000.00000" pt_clust_6="13000.00000" pt_clust_7="13000.00000" pt_clust_8="13000.00000" pt_clust_9="39.43165"></scales>
<clustering>
<clus scale="   39.432">  1  9  2 -1</clus>
<clus scale="   86.897">  5  6 -1 -1</clus>
<clus scale="   87.182">  7  8 -1 -1</clus>
<clus scale="   87.657">  2  5  1 -1</clus>
<clus scale="   39.432">  1  5  2 -1</clus>
</clustering>
</event>
<event>
 9    1  0.1671478E-005  0.1899155E+03  0.7546771E-02  0.1158588E+00
         21   -1    0    0  501  502  0.00000000000E+00  0.00000000000E+00  0.17369096797E+03  0.17369096797E+03  0.00000000000E+00 0.  1.
         -4   -1    0    0    0  501 -0.00000000000E+00 -0.00000000000E+00 -0.29493391143E+03  0.29493391143E+03  0.00000000000E+00 0.  1.
         23    2    1    2    0    0 -0.11744189632E+03  0.11482738099E+03 -0.27536769845E+02  0.18962442809E+03  0.90670963377E+02 0.  0.
         23    2    1    2    0    0  0.80816972728E+02 -0.15312833779E+03 -0.33023464645E+02  0.19843532556E+03  0.91139224803E+02 0.  0.
        -13    1    3    3    0    0 -0.46114714888E+02  0.75264280744E+02  0.26049646025E+02  0.92031858305E+02  0.00000000000E+00 0.  1.
         13    1    3    3    0    0 -0.71327181430E+02  0.39563100247E+02 -0.53586415869E+02  0.97592569787E+02  0.00000000000E+00 0. -1.
        -13    1    4    4    0    0  0.31918709863E+02 -0.13006494321E+03 -0.48113318669E+02  0.14230454990E+03  0.00000000000E+00 0.  1.
         13    1    4    4    0    0  0.48898262866E+02 -0.23063394581E+02  0.15089854024E+02  0.56130775652E+02  0.00000000000E+00 0. -1.
         -4    1    1    2    0  502  0.36624923590E+02  0.38300956795E+02 -0.60682708967E+02  0.80565125749E+02  0.00000000000E+00 0.  1.
<scales pt_clust_5="13000.00000" pt_clust_6="13000.00000" pt_clust_7="13000.00000" pt_clust_8="13000.00000" pt_clust_9="52.99388"></scales>
<clustering>
<clus scale="   52.994">  1  9  2 -1</clus>
<clus scale="   90.671">  5  6 -1 -1</clus>
<clus scale="   91.139">  7  8 -1 -1</clus>
<clus scale="  189.691">  2  5  1 -1</clus>
<clus scale="   52.994">  1  5  2 -1</clus>
</clustering>
</event>
<event>
 9    1  0.1671478E-005  0.2748332E+03  0.7546771E-02  0.1098613E+00
          1   -1    0    0  502    0 -0.00000000000E+00  0.00000000000E+00  0.98138870730E+03  0.98138870730E+03  0.00000000000E+00 0. -1.
         21   -1    0    0  501  502  0.00000000000E+00 -0.00000000000E+00 -0.75238285750E+03  0.75238285750E+03  0.00000000000E+00 0. -1.
         23    2    1    2    0    0 -0.27391954550E+03  0.16428882644E+03  0.69278357722E+03  0.76835008200E+03  0.91597094597E+02 0.  0.
         23    2    1    2    0    0  0.99729284231E+02 -0.16857555355E+03  0.19031837553E+03  0.28851503798E+03  0.93038678438E+02 0.  0.
        -11    1    3    3    0    0 -0.16418877598E+03  0.45744549287E+02  0.37217126485E+03  0.40934333796E+03  0.00000000000E+00 0.  1.
         11    1    3    3    0    0 -0.10973076952E+03  0.11854427715E+03  0.32061231237E+03  0.35900674404E+03  0.00000000000E+00 0. -1.
        -13    1    4    4    0    0  0.90335449522E+02 -0.71839267582E+02  0.13125959729E+03  0.17478688649E+03  0.00000000000E+00 0. -1.
         13    1    4    4    0    0  0.93938347097E+01 -0.96736285971E+02  0.59058778237E+02  0.11372815149E+03  0.00000000000E+00 0.  1.
          1    1    1    2  501    0  0.17419026127E+03  0.42867271155E+01 -0.65409610295E+03  0.67690644482E+03  0.00000000000E+00 0. -1.
<scales pt_clust_5="13000.00000" pt_clust_6="13000.00000" pt_clust_7="13000.00000" pt_clust_8="13000.00000" pt_clust_9="174.24300"></scales>
<clustering>
<clus scale="   91.597">  5  6 -1 -1</clus>
<clus scale="   93.039">  7  8 -1 -1</clus>
<clus scale="  174.243">  2  9  1 -1</clus>
<clus scale="  274.349">  1  5  2 -1</clus>
<clus scale="  174.243">  2  5  1 -1</clus>
</clustering>
</event>
<event>
 9    1  0.1671478E-005  0.1148019E+03  0.7546771E-02  0.1253165E+00
         -1   -1    0    0    0  501 -0.00000000000E+00  0.00000000000E+00  0.10375294823E+03  0.10375294823E+03  0.00000000000E+00 0.  1.
         21   -1    0    0  501  502  0.00000000000E+00 -0.00000000000E+00 -0.21038882757E+03  0.21038882757E+03  0.00000000000E+00 0.  1.
         23    2    1    2    0    0 -0.52366094076E+02 -0.25113109854E+02  0.23301821349E+02  0.11412252170E+03  0.95436360923E+02 0.  0.
         23    2    1    2    0    0  0.73895997911E+02  0.25366065767E+02 -0.77868200044E+02  0.14367359195E+03  0.92057529003E+02 0.  0.
        -13    1    4    4    0    0  0.29669248700E+02  0.24256121005E+02 -0.89983378843E+02  0.97804049981E+02  0.00000000000E+00 0.  1.
         13    1    4    4    0    0  0.44226749211E+02  0.11099447620E+01  0.12115178800E+02  0.45869541969E+02  0.00000000000E+00 0. -1.
        -13    1    3    3    0    0 -0.72952527332E+02 -0.24222964032E+02  0.40857238378E+02  0.87052496566E+02  0.00000000000E+00 0.  1.
         13    1    3    3    0    0  0.20586433256E+02 -0.89014582197E+00 -0.17555417029E+02  0.27070025136E+02  0.00000000000E+00 0. -1.
         -1    1    1    2    0  502 -0.21529903835E+02 -0.25295591338E+00 -0.52069500639E+02  0.56345662146E+02  0.00000000000E+00 0.  1.
<scales pt_clust_5="13000.00000" pt_clust_6="13000.00000" pt_clust_7="13000.00000" pt_clust_8="13000.00000" pt_clust_9="21.53139"></scales>
<clustering>
<clus scale="   21.531">  2  9  1 -1</clus>
<clus scale="   92.058">  5  6 -1 -1</clus>
<clus scale="   95.436">  7  8 -1 -1</clus>
<clus scale="  112.009">  2  5  1 -1</clus>
<clus scale="   21.531">  2  5  1 -1</clus>
</clustering>
</event>
<event>
 9    1  0.1671478E-005  0.9523628E+02  0.7546771E-02  0.1291950E+00
          2   -1    0    0  502    0 -0.00000000000E+00  0.00000000000E+00  0.10595710302E+03  0.10595710302E+03  0.00000000000E+00 0. -1.
         21   -1    0    0  501  502  0.00000000000E+00 -0.00000000000E+00 -0.11677008381E+03  0.11677008381E+03  0.00000000000E+00 0.  1.
         23    2    1    2    0    0  0.41709899117E+01 -0.34583635265E+02  0.28933307748E+02  0.10205590359E+03  0.91459532991E+02 0.  0.
         23    2    1    2    0    0 -0.17802180242E+01  0.13538412440E+02 -0.21316563622E+02  0.92595101985E+02  0.89067385947E+02 0.  0.
        -13    1    3    3    0    0 -0.93413169301E+01 -0.63144053441E+02  0.29808072500E+02  0.70448228318E+02  0.00000000000E+00 0. -1.
         13    1    3    3    0    0  0.13512306842E+02  0.28560418176E+02 -0.87476475202E+00  0.31607675270E+02  0.00000000000E+00 0.  1.
        -13    1    4    4    0    0 -0.31822251012E+02  0.15261616646E+02  0.20699384482E+02  0.40914998717E+02  0.00000000000E+00 0. -1.
         13    1    4    4    0    0  0.30042032987E+02 -0.17232042051E+01 -0.42015948104E+02  0.51680103268E+02  0.00000000000E+00 0.  1.
          2    1    1    2  501    0 -0.23907718875E+01  0.21045222825E+02 -0.18429724916E+02  0.28076181265E+02  0.00000000000E+00 0. -1.
<scales pt_clust_5="13000.00000" pt_clust_6="13000.00000" pt_clust_7="13000.00000" pt_clust_8="13000.00000" pt_clust_9="21.18059"></scales>
<clustering>
<clus scale="   21.181">  2  9  1 -1</clus>
<clus scale="   89.067">  7  8 -1 -1</clus>
<clus scale="   91.460">  5  6 -1 -1</clus>
<clus scale="   92.941">  2  7  1 -1</clus>
<clus scale="   21.181">  2  5  1 -1</clus>
</clustering>
</event>
<event>
 9    1  0.1671478E-005  0.1236649E+03  0.7546771E-02  0.1237570E+00
         21   -1    0    0  501  502  0.00000000000E+00  0.00000000000E+00  0.43192200364E+02  0.43192200364E+02  0.00000000000E+00 0.  1.
          2   -1    0    0  502    0 -0.00000000000E+00 -0.00000000000E+00 -0.52275089124E+03  0.52275089124E+03  0.00000000000E+00 0. -1.
         23    2    1    2    0    0 -0.37703169702E+02  0.56640018248E+02 -0.18409166716E+03  0.21689873755E+03  0.92334715899E+02 0.  0.
         23    2    1    2    0    0  0.18134545845E+02 -0.99364957697E+02 -0.20305617760E+03  0.24537123329E+03  0.93664156915E+02 0.  0.
        -11    1    4    4    0    0 -0.37788260627E+02 -0.38784871741E+02 -0.96362760848E+02  0.11053506500E+03  0.00000000000E+00 0. -1.
         11    1    4    4    0    0  0.55922806472E+02 -0.60580085956E+02 -0.10669341675E+03  0.13483616828E+03  0.00000000000E+00 0.  1.
        -13    1    3    3    0    0 -0.24541327246E+02  0.41287952105E+02 -0.18988338311E+03  0.19586390916E+03  0.00000000000E+00 0. -1.
         13    1    3    3    0    0 -0.13161842456E+02  0.15352066143E+02  0.57917159467E+01  0.21034828388E+02  0.00000000000E+00 0.  1.
          2    1    1    2  501    0  0.19568623856E+02  0.42724939448E+02 -0.92410846107E+02  0.10367312076E+03  0.00000000000E+00 0. -1.
<scales pt_clust_5="13000.00000" pt_clust_6="13000.00000" pt_clust_7="13000.00000" pt_clust_8="13000.00000" pt_clust_9="46.99312"></scales>
<clustering>
<clus scale="   46.993">  1  9  2 -1</clus>
<clus scale="   92.335">  7  8 -1 -1</clus>
<clus scale="   93.664">  5  6 -1 -1</clus>
<clus scale="  122.661">  2  7  1 -1</clus>
<clus scale="   46.993">  1  5  2 -1</clus>
</clustering>
</event>
<event>
 9    1  0.1671478E-005  0.1079089E+03  0.7546771E-02  0.1274677E+00
         -1   -1    0    0    0  501 -0.00000000000E+00  0.00000000000E+00  0.53007103440E+02  0.53007103440E+02  0.00000000000E+00 0.  1.
         21   -1    0    0  501  502  0.00000000000E+00 -0.00000000000E+00 -0.25365788445E+03  0.25365788445E+03  0.00000000000E+00 0. -1.
         23    2    1    2    0    0 -0.39941970320E+02 -0.36930007222E+01 -0.59866985671E+02  0.10362213860E+03  0.74461348280E+02 0.  0.
         23    2    1    2    0    0  0.55590223535E+02  0.29609654206E+02 -0.10313496940E+03  0.15473162025E+03  0.96633575001E+02 0.  0.
        -11    1    3    3    0    0 -0.19772864057E+02 -0.52032207493E+01 -0.75398244488E+02  0.78121283470E+02  0.00000000000E+00 0. -1.
         11    1    3    3    0    0 -0.20169106263E+02  0.15102200272E+01  0.15531258817E+02  0.25500855131E+02  0.00000000000E+00 0.  1.
        -11    1    4    4    0    0  0.54944514684E+02 -0.10227753285E+02 -0.10026060435E+03  0.11478543207E+03  0.00000000000E+00 0.  1.
         11    1    4    4    0    0  0.64570885079E+00  0.39837407491E+02 -0.28743650484E+01  0.39946188178E+02  0.00000000000E+00 0. -1.
         -1    1    1    2    0  502 -0.15648253215E+02 -0.25916653484E+02 -0.37648825937E+02  0.48311229036E+02  0.00000000000E+00 0.  1.
<scales pt_clust_5="13000.00000" pt_clust_6="13000.00000" pt_clust_7="13000.00000" pt_clust_8="13000.00000" pt_clust_9="30.27442"></scales>
<clustering>
<clus scale="   30.274">  2  9  1 -1</clus>
<clus scale="   74.461">  5  6 -1 -1</clus>
<clus scale="   88.605">  1  5  2 -1</clus>
<clus scale="   96.634">  7  8 -1 -1</clus>
<clus scale="   30.274">  2  5  1 -1</clus>
</clustering>
</event>
<event>
 9    1  0.1671478E-005  0.2495024E+03  0.7546771E-02  0.1114197E+00
         21   -1    0    0  501  502  0.00000000000E+00  0.00000000000E+00  0.31296448189E+03  0.31296448189E+03  0.00000000000E+00 0.  1.
          2   -1    0    0  502    0 -0.00000000000E+00 -0.00000000000E+00 -0.30785286890E+03  0.30785286890E+03  0.00000000000E+00 0. -1.
         23    2    1    2    0    0 -0.23057296496E+03  0.63326554414E+02 -0.16513586657E+03  0.30494612912E+03  0.92456165684E+02 0.  0.
         23    2    1    2    0    0  0.19905541199E+03 -0.73249390859E+02  0.12413203458E+03  0.25913980978E+03  0.82195794921E+02 0.  0.
        -11    1    3    3    0    0 -0.82653464698E+02 -0.21519325125E+02 -0.46882579495E+02  0.97430246025E+02  0.00000000000E+00 0.  1.
         11    1    3    3    0    0 -0.14791950026E+03  0.84845879539E+02 -0.11825328708E+03  0.20751588309E+03  0.00000000000E+00 0. -1.
        -11    1    4    4    0    0  0.18377771091E+03 -0.90087976068E+02  0.11358535348E+03  0.23407631872E+03  0.00000000000E+00 0.  1.
         11    1    4    4    0    0  0.15277701073E+02  0.16838585209E+02  0.10546681092E+02  0.25063491057E+02  0.00000000000E+00 0. -1.
          2    1    1    2  501    0  0.31517552969E+02  0.99228364440E+01  0.46115444989E+02  0.56731411888E+02  0.00000000000E+00 0. -1.
<scales pt_clust_5="13000.00000" pt_clust_6="13000.00000" pt_clust_7="13000.00000" pt_clust_8="13000.00000" pt_clust_9="33.04268"></scales>
<clustering>
<clus scale="   33.043">  1  9  2 -1</clus>
<clus scale="   82.196">  7  8 -1 -1</clus>
<clus scale="   92.456">  5  6 -1 -1</clus>
<clus scale="  245.885">  1  7  2 -1</clus>
<clus scale="   33.043">  1  5  2 -1</clus>
</clustering>
</event>
<event>
 9    1  0.1671478E-005  0.9958928E+02  0.7546771E-02  0.1281526E+00
         21   -1    0    0  501  502  0.00000000000E+00  0.00000000000E+00  0.57372966531E+02  0.57372966531E+02  0.00000000000E+00 0. -1.
          2   -1    0    0  502    0 -0.00000000000E+00 -0.00000000000E+00 -0.24954475654E+03  0.24954475654E+03  0.00000000000E+00 0. -1.
         23    2    1    2    0    0 -0.43680220546E+02  0.70500202405E+00 -0.11817019396E+03  0.15505949275E+03  0.90392438062E+02 0.  0.
         23    2    1    2    0    0  0.30738152639E+02  0.28785682170E+02 -0.55944875216E+02  0.11493611305E+03  0.91142917962E+02 0.  0.
        -11    1    3    3    0    0 -0.19168232763E+02  0.45477403641E+02 -0.57885473153E+02  0.76068018189E+02  0.00000000000E+00 0. -1.
         11    1    3    3    0    0 -0.24511987783E+02 -0.44772401617E+02 -0.60284720803E+02  0.78991474565E+02  0.00000000000E+00 0.  1.
        -11    1    4    4    0    0 -0.29693724573E+02  0.21883479226E+01 -0.22974581688E+01  0.29862760417E+02  0.00000000000E+00 0.  1.
         11    1    4    4    0    0  0.60431877213E+02  0.26597334248E+02 -0.53647417047E+02  0.85073352634E+02  0.00000000000E+00 0. -1.
          2    1    1    2  501    0  0.12942067906E+02 -0.29490684194E+02 -0.18056720834E+02  0.36922117263E+02  0.00000000000E+00 0. -1.
<scales pt_clust_5="13000.00000" pt_clust_6="13000.00000" pt_clust_7="13000.00000" pt_clust_8="13000.00000" pt_clust_9="32.20555"></scales>
<clustering>
<clus scale="   32.206">  1  9  2 -1</clus>
<clus scale="   90.392">  5  6 -1 -1</clus>
<clus scale="   91.143">  7  8 -1 -1</clus>
<clus scale="   98.903">  2  5  1 -1</clus>
<clus scale="   32.206">  1  5  2 -1</clus>
</clustering>
</event>
<event>
 9    1  0.1671478E-005  0.9758087E+02  0.7546771E-02  0.1286157E+00
         -4   -1    0    0    0  501 -0.00000000000E+00  0.00000000000E+00  0.49392212763E+03  0.49392212763E+03  0.00000000000E+00 0.  1.
         21   -1    0    0  501  502  0.00000000000E+00 -0.00000000000E+00 -0.31523842865E+02  0.31523842865E+02  0.00000000000E+00 0. -1.
         23    2    1    2    0    0  0.64626923319E+01  0.19382072488E+02  0.24696712088E+03  0.26400051478E+03  0.91027918141E+02 0.  0.
         23    2    1    2    0    0 -0.40747976399E+02 -0.34237957022E+02  0.18386199681E+03  0.21252929971E+03  0.92362514478E+02 0.  0.
        -11    1    4    4    0    0  0.19469622988E+02  0.17970892219E+02  0.38204006921E+02  0.46492637388E+02  0.00000000000E+00 0.  1.
         11    1    4    4    0    0 -0.60217599387E+02 -0.52208849241E+02  0.14565798989E+03  0.16603666232E+03  0.00000000000E+00 0. -1.
        -13    1    3    3    0    0  0.99557223672E-01 -0.32955239022E+02  0.15050119309E+03  0.15406708542E+03  0.00000000000E+00 0.  1.
         13    1    3    3    0    0  0.63631351083E+01  0.52337311510E+02  0.96465927797E+02  0.10993342936E+03  0.00000000000E+00 0. -1.
         -4    1    1    2    0  502  0.34285284067E+02  0.14855884534E+02  0.31569167063E+02  0.48916156001E+02  0.00000000000E+00 0.  1.
<scales pt_clust_5="13000.00000" pt_clust_6="13000.00000" pt_clust_7="13000.00000" pt_clust_8="13000.00000" pt_clust_9="37.36547"></scales>
<clustering>
<clus scale="   37.365">  2  9  1 -1</clus>
<clus scale="   91.028">  7  8 -1 -1</clus>
<clus scale="   92.363">  5  6 -1 -1</clus>
<clus scale="   96.319">  1  7  2 -1</clus>
<clus scale="   37.365">  2  5  1 -1</clus>
</clustering>
</event>
<event>
 9    1  0.1671478E-005  0.1092892E+03  0.7546771E-02  0.1262602E+00
          3   -1    0    0  502    0 -0.00000000000E+00  0.00000000000E+00  0.24583095817E+03  0.24583095817E+03  0.00000000000E+00 0. -1.
         21   -1    0    0  501  502  0.00000000000E+00 -0.00000000000E+00 -0.14388671915E+03  0.14388671915E+03  0.00000000000E+00 0. -1.
         23    2    1    2    0    0  0.49190402019E+01  0.60183554886E+02  0.13518206506E+03  0.17409040396E+03  0.91580679187E+02 0.  0.
         23    2    1    2    0    0 -0.41157306072E+02 -0.42701025596E+02  0.51365660865E+02  0.12194375965E+03  0.93351743265E+02 0.  0.
        -13    1    3    3    0    0  0.37816273430E+02  0.23119154797E+02  0.10980403749E+03  0.11841238324E+03  0.00000000000E+00 0.  1.
         13    1    3    3    0    0 -0.32897233228E+02  0.37064400089E+02  0.25378027574E+02  0.55678020722E+02  0.00000000000E+00 0. -1.
        -13    1    4    4    0    0 -0.40489727956E+02  0.16965005639E+02  0.10842175723E+01  0.43913608529E+02  0.00000000000E+00 0. -1.
         13    1    4    4    0    0 -0.66757811598E+00 -0.59666031235E+02  0.50281443292E+02  0.78030151118E+02  0.00000000000E+00 0.  1.
          3    1    1    2  501    0  0.36238265870E+02 -0.17482529290E+02 -0.84603486914E+02  0.93683513713E+02  0.00000000000E+00 0. -1.
<scales pt_clust_5="13000.00000" pt_clust_6="13000.00000" pt_clust_7="13000.00000" pt_clust_8="13000.00000" pt_clust_9="40.23494"></scales>
<clustering>
<clus scale="   40.235">  2  9  1 -1</clus>
<clus scale="   91.581">  5  6 -1 -1</clus>
<clus scale="   93.352">  7  8 -1 -1</clus>
<clus scale="  107.780">  1  5  2 -1</clus>
<clus scale="   40.235">  2  5  1 -1</clus>
</clustering>
</event>
<event>
 9    1  0.1671478E-005  0.1009191E+03  0.7546771E-02  0.1279528E+00
         21   -1    0    0  501  502  0.00000000000E+00  0.00000000000E+00  0.19235858492E+03  0.19235858492E+03  0.00000000000E+00 0. -1.
          2   -1    0    0  502    0 -0.00000000000E+00 -0.00000000000E+00 -0.26486414560E+03  0.26486414560E+03  0.00000000000E+00 0. -1.
         23    2    1    2    0    0  0.31319370955E+02 -0.60524596156E+02 -0.13722634129E+03  0.17767848080E+03  0.89969128374E+02 0.  0.
         23    2    1    2    0    0  0.13178470874E+00  0.12946728702E+02 -0.80699790452E+02  0.12333934854E+03  0.92371551720E+02 0.  0.
        -11    1    3    3    0    0  0.28478072708E+02 -0.83530475898E+02 -0.96138419761E+02  0.13050263133E+03  0.00000000000E+00 0. -1.
         11    1    3    3    0    0  0.28412982476E+01  0.23005879742E+02 -0.41087921527E+02  0.47175849477E+02  0.00000000000E+00 0.  1.
        -11    1    4    4    0    0 -0.29051477290E+02  0.28720318288E+02 -0.55928394132E+01  0.41232570475E+02  0.00000000000E+00 0.  1.
         11    1    4    4    0    0  0.29183261999E+02 -0.15773589585E+02 -0.75106951039E+02  0.82106778061E+02  0.00000000000E+00 0. -1.
          2    1    1    2  501    0 -0.31451155664E+02  0.47577867453E+02  0.14542057106E+03  0.15620490117E+03  0.00000000000E+00 0. -1.
<scales pt_clust_5="13000.00000" pt_clust_6="13000.00000" pt_clust_7="13000.00000" pt_clust_8="13000.00000" pt_clust_9="57.03357"></scales>
<clustering>
<clus scale="   57.034">  1  9  2 -1</clus>
<clus scale="   89.969">  5  6 -1 -1</clus>
<clus scale="   92.372">  7  8 -1 -1</clus>
<clus scale="   98.725">  2  5  1 -1</clus>
<clus scale="   57.034">  1  5  2 -1</clus>
</clustering>
</event>
<event>
 9    1  0.1671478E-005  0.9583504E+02  0.7546771E-02  0.1290231E+00
          2   -1    0    0  502    0 -0.00000000000E+00  0.00000000000E+00  0.21274793159E+03  0.21274793159E+03  0.00000000000E+00 0. -1.
         21   -1    0    0  501  502  0.00000000000E+00 -0.00000000000E+00 -0.60928156730E+02  0.60928156730E+02  0.00000000000E+00 0.  1.
         23    2    1    2    0    0  0.23578672087E+02 -0.28480161204E+02  0.10225432445E+03  0.13957570707E+03  0.87512043604E+02 0.  0.
         23    2    1    2    0    0 -0.38886927902E+01  0.35067665019E+02  0.57466472489E+02  0.11188514681E+03  0.89280611303E+02 0.  0.
        -11    1    4    4    0    0 -0.76600010874E+01 -0.27938343804E+02  0.33700329422E+02  0.44440284364E+02  0.00000000000E+00 0. -1.
         11    1    4    4    0    0  0.37713082972E+01  0.63006008823E+02  0.23766143067E+02  0.67444862445E+02  0.00000000000E+00 0.  1.
        -11    1    3    3    0    0  0.11797328098E+02 -0.59226790717E+02  0.53116558062E+02  0.80426105396E+02  0.00000000000E+00 0. -1.
         11    1    3    3    0    0  0.11781343989E+02  0.30746629513E+02  0.49137766389E+02  0.59149601675E+02  0.00000000000E+00 0.  1.
          2    1    1    2  501    0 -0.19689979297E+02 -0.65875038145E+01 -0.79010220821E+01  0.22215234439E+02  0.00000000000E+00 0. -1.
<scales pt_clust_5="13000.00000" pt_clust_6="13000.00000" pt_clust_7="13000.00000" pt_clust_8="13000.00000" pt_clust_9="20.76272"></scales>
<clustering>
<clus scale="   20.763">  2  9  1 -1</clus>
<clus scale="   87.512">  7  8 -1 -1</clus>
<clus scale="   89.281">  5  6 -1 -1</clus>
<clus scale="   94.190">  1  7  2 -1</clus>
<clus scale="   20.763">  2  5  1 -1</clus>
</clustering>
</event>
<event>
 9    1  0.1671478E-005  0.1823628E+03  0.7546771E-02  0.1165583E+00
         21   -1    0    0  501  502  0.00000000000E+00  0.00000000000E+00  0.23139485533E+03  0.23139485533E+03  0.00000000000E+00 0.  1.
          2   -1    0    0  502    0 -0.00000000000E+00 -0.00000000000E+00 -0.21467905502E+03  0.21467905502E+03  0.00000000000E+00 0. -1.
         23    2    1    2    0    0  0.11276727249E+03 -0.10188605242E+03 -0.33907559924E+02  0.18062988390E+03  0.91543470088E+02 0.  0.
         23    2    1    2    0    0 -0.13746313544E+03  0.90957584700E+02 -0.20037628744E+02  0.18979819102E+03  0.91937211879E+02 0.  0.
        -13    1    4    4    0    0 -0.74133955188E+02 -0.37018631860E+01 -0.15439830547E+02  0.75815140112E+02  0.00000000000E+00 0. -1.
         13    1    4    4    0    0 -0.63329180255E+02  0.94659447886E+02 -0.45977981964E+01  0.11398305091E+03  0.00000000000E+00 0.  1.
        -13    1    3    3    0    0  0.29337009454E+02 -0.11315932032E+02 -0.47263302162E+02  0.56767333677E+02  0.00000000000E+00 0. -1.
         13    1    3    3    0    0  0.83430263034E+02 -0.90570120393E+02  0.13355742238E+02  0.12386255023E+03  0.00000000000E+00 0.  1.
          2    1    1    2  501    0  0.24695862955E+02  0.10928467725E+02  0.70660988979E+02  0.75645835427E+02  0.00000000000E+00 0. -1.
<scales pt_clust_5="13000.00000" pt_clust_6="13000.00000" pt_clust_7="13000.00000" pt_clust_8="13000.00000" pt_clust_9="27.00587"></scales>
<clustering>
<clus scale="   27.006">  1  9  2 -1</clus>
<clus scale="   91.543">  7  8 -1 -1</clus>
<clus scale="   91.937">  5  6 -1 -1</clus>
<clus scale="  182.165">  2  7  1 -1</clus>
<clus scale="   27.006">  1  5  2 -1</clus>
</clustering>
</event>
<event>
 9    1  0.1671478E-005  0.9052037E+02  0.7546771E-02  0.1304625E+00
         -2   -1    0    0    0  501 -0.00000000000E+00  0.00000000000E+00  0.24103273516E+03  0.24103273516E+03  0.00000000000E+00 0.  1.
         21   -1    0    0  501  502  0.00000000000E+00 -0.00000000000E+00 -0.25026128754E+03  0.25026128754E+03  0.00000000000E+00 0.  1.
         23    2    1    2    0    0 -0.79752566513E+01  0.20194143434E+02  0.14969636839E+03  0.17367577112E+03  0.85339689582E+02 0.  0.
         23    2    1    2    0    0 -0.32006240679E+02  0.32486647805E+02  0.39427508855E+02  0.10853101563E+03  0.90247831952E+02 0.  0.
        -11    1    3    3    0    0  0.27510614358E-01  0.46835422793E+02  0.43582880717E+02  0.63976754189E+02  0.00000000000E+00 0.  1.
         11    1    3    3    0    0 -0.80027672657E+01 -0.26641279359E+02  0.10611348767E+03  0.10969901693E+03  0.00000000000E+00 0. -1.
        -13    1    4    4    0    0  0.92194514795E+01  0.20803562171E+02 -0.23298218417E+02  0.32566753999E+02  0.00000000000E+00 0. -1.
         13    1    4    4    0    0 -0.41225692159E+02  0.11683085634E+02  0.62725727273E+02  0.75964261635E+02  0.00000000000E+00 0.  1.
         -2    1    1    2    0  502  0.39981497330E+02 -0.52680791239E+02 -0.19835242963E+03  0.20908723595E+03  0.00000000000E+00 0.  1.
<scales pt_clust_5="13000.00000" pt_clust_6="13000.00000" pt_clust_7="13000.00000" pt_clust_8="13000.00000" pt_clust_9="66.13460"></scales>
<clustering>
<clus scale="   66.135">  2  9  1 -1</clus>
<clus scale="   85.340">  5  6 -1 -1</clus>
<clus scale="   85.628">  1  5  2 -1</clus>
<clus scale="   90.248">  7  8 -1 -1</clus>
<clus scale="   66.135">  2  5  1 -1</clus>
</clustering>
</event>
<event>
 9    1  0.1671478E-005  0.1034379E+03  0.7546771E-02  0.1273587E+00
         -2   -1    0    0    0  501 -0.00000000000E+00  0.00000000000E+00  0.10453684490E+03  0.10453684490E+03  0.00000000000E+00 0.  1.
         21   -1    0    0  501  502  0.00000000000E+00 -0.00000000000E+00 -0.17483725416E+03  0.17483725416E+03  0.00000000000E+00 0. -1.
         23    2    1    2    0    0 -0.31672286608E+02  0.30785466810E+02  0.16493181713E+02  0.10374370159E+03  0.92411318960E+02 0.  0.
         23    2    1    2    0    0  0.10444563519E+02 -0.55218886029E+02 -0.32258193484E+02  0.11221338254E+03  0.91613524612E+02 0.  0.
        -11    1    3    3    0    0 -0.30058593237E+02  0.59501031685E+02 -0.64206365836E+01  0.66971011438E+02  0.00000000000E+00 0. -1.
         11    1    3    3    0    0 -0.16136933709E+01 -0.28715564875E+02  0.22913818297E+02  0.36772690156E+02  0.00000000000E+00 0.  1.
        -13    1    4    4    0    0 -0.35298032049E+02 -0.29889316924E+02  0.70652820745E+01  0.46789320827E+02  0.00000000000E+00 0.  1.
         13    1    4    4    0    0  0.45742595568E+02 -0.25329569106E+02 -0.39323475559E+02  0.65424061708E+02  0.00000000000E+00 0. -1.
         -2    1    1    2    0  502  0.21227723089E+02  0.24433419219E+02 -0.54535397496E+02  0.63417014928E+02  0.00000000000E+00 0.  1.
<scales pt_clust_5="13000.00000" pt_clust_6="13000.00000" pt_clust_7="13000.00000" pt_clust_8="13000.00000" pt_clust_9="32.36678"></scales>
<clustering>
<clus scale="   32.367">  2  9  1 -1</clus>
<clus scale="   91.614">  7  8 -1 -1</clus>
<clus scale="   92.411">  5  6 -1 -1</clus>
<clus scale="  102.726">  2  7  1 -1</clus>
<clus scale="   32.367">  2  5  1 -1</clus>
</clustering>
</event>
<event>
 9    1  0.1671478E-005  0.9492247E+02  0.7546771E-02  0.1291687E+00
         21   -1    0    0  501  502  0.00000000000E+00  0.00000000000E+00  0.42619276829E+02  0.42619276829E+02  0.00000000000E+00 0. -1.
          2   -1    0    0  502    0 -0.00000000000E+00 -0.00000000000E+00 -0.37455411182E+03  0.37455411182E+03  0.00000000000E+00 0. -1.
         23    2    1    2    0    0 -0.23009235556E+02  0.12696967121E+02 -0.19167977896E+03  0.21344390744E+03  0.90147246584E+02 0.  0.
         23    2    1    2    0    0  0.34648827693E+02  0.17839238680E+02 -0.13963703861E+03  0.17104428708E+03  0.90768198689E+02 0.  0.
        -11    1    3    3    0    0 -0.57986914622E+02  0.71404825771E+01 -0.12296354223E+03  0.13613780326E+03  0.00000000000E+00 0.  1.
         11    1    3    3    0    0  0.34977679066E+02  0.55564845443E+01 -0.68716236729E+02  0.77306104180E+02  0.00000000000E+00 0. -1.
        -13    1    4    4    0    0 -0.18679342756E+02  0.24475645149E+02 -0.98979130859E+02  0.10365733644E+03  0.00000000000E+00 0.  1.
         13    1    4    4    0    0  0.53328170449E+02 -0.66364064688E+01 -0.40657907750E+02  0.67386950642E+02  0.00000000000E+00 0. -1.
          2    1    1    2  501    0 -0.11639592137E+02 -0.30536205801E+02 -0.61801742444E+00  0.32685194132E+02  0.00000000000E+00 0. -1.
<scales pt_clust_5="13000.00000" pt_clust_6="13000.00000" pt_clust_7="13000.00000" pt_clust_8="13000.00000" pt_clust_9="32.67935"></scales>
<clustering>
<clus scale="   32.679">  1  9  2 -1</clus>
<clus scale="   90.147">  5  6 -1 -1</clus>
<clus scale="   90.768">  7  8 -1 -1</clus>
<clus scale="   94.329">  2  5  1 -1</clus>
<clus scale="   32.679">  1  5  2 -1</clus>
</clustering>
</event>
<event>
 9    1  0.1671478E-005  0.1919106E+03  0.7546771E-02  0.1157380E+00
          2   -1    0    0  502    0 -0.00000000000E+00  0.00000000000E+00  0.51341556103E+03  0.51341556103E+03  0.00000000000E+00 0. -1.
         21   -1    0    0  501  502  0.00000000000E+00 -0.00000000000E+00 -0.10006183199E+03  0.10006183199E+03  0.00000000000E+00 0. -1.
         23    2    1    2    0    0  0.16566079000E+03 -0.63476886950E+02  0.26742236482E+03  0.33423176188E+03  0.93398805802E+02 0.  0.
         23    2    1    2    0    0 -0.14894913447E+03  0.20124577441E+02  0.14761238481E+03  0.23275339523E+03  0.98964051872E+02 0.  0.
        -11    1    3    3    0    0  0.22770092813E+02 -0.46117346093E+02  0.10686907915E+03  0.11860137780E+03  0.00000000000E+00 0. -1.
         11    1    3    3    0    0  0.14289069718E+03 -0.17359540857E+02  0.16055328567E+03  0.21563038408E+03  0.00000000000E+00 0.  1.
        -13    1    4    4    0    0 -0.80043663972E+02  0.31291516789E+02  0.21468483982E+02  0.88583536673E+02  0.00000000000E+00 0. -1.
         13    1    4    4    0    0 -0.68905470501E+02 -0.11166939348E+02  0.12614390083E+03  0.14416985855E+03  0.00000000000E+00 0.  1.
          2    1    1    2  501    0 -0.16711655524E+02  0.43352309509E+02 -0.16810205861E+01  0.46492235915E+02  0.00000000000E+00 0. -1.
<scales pt_clust_5="13000.00000" pt_clust_6="13000.00000" pt_clust_7="13000.00000" pt_clust_8="13000.00000" pt_clust_9="46.46184"></scales>
<clustering>
<clus scale="   46.462">  2  9  1 -1</clus>
<clus scale="   93.399">  5  6 -1 -1</clus>
<clus scale="   98.964">  7  8 -1 -1</clus>
<clus scale="  189.101">  1  5  2 -1</clus>
<clus scale="   46.462">  2  5  1 -1</clus>
</clustering>
</event>
<event>
 9    1  0.1671478E-005  0.9963375E+02  0.7546771E-02  0.1282795E+00
         21   -1    0    0  501  502  0.00000000000E+00  0.00000000000E+00  0.27886338344E+02  0.27886338344E+02  0.00000000000E+00 0.  1.
          1   -1    0    0  502    0 -0.00000000000E+00 -0.00000000000E+00 -0.71330172700E+03  0.71330172700E+03  0.00000000000E+00 0. -1.
         23    2    1    2    0    0  0.22916420858E+02  0.16898080163E+02 -0.34495409989E+03  0.35867910116E+03  0.94056680372E+02 0.  0.
         23    2    1    2    0    0  0.23220510117E+02 -0.26293682517E+02 -0.30904221865E+03  0.32590462062E+03  0.97345667603E+02 0.  0.
        -11    1    3    3    0    0 -0.23785200008E+02  0.29434742802E+02 -0.70665452647E+02  0.80160751126E+02  0.00000000000E+00 0.  1.
         11    1    3    3    0    0  0.46701620866E+02 -0.12536662638E+02 -0.27428864724E+03  0.27851835003E+03  0.00000000000E+00 0. -1.
        -11    1    4    4    0    0 -0.23982684284E+02 -0.37052760684E+02 -0.22161603735E+03  0.22596845849E+03  0.00000000000E+00 0.  1.
         11    1    4    4    0    0  0.47203194401E+02  0.10759078167E+02 -0.87426181294E+02  0.99936162125E+02  0.00000000000E+00 0. -1.
          1    1    1    2  501    0 -0.46136930975E+02  0.93956023537E+01 -0.31419070121E+02  0.56604343567E+02  0.00000000000E+00 0. -1.
<scales pt_clust_5="13000.00000" pt_clust_6="13000.00000" pt_clust_7="13000.00000" pt_clust_8="13000.00000" pt_clust_9="47.08390"></scales>
<clustering>
<clus scale="   47.084">  1  9  2 -1</clus>
<clus scale="   94.057">  5  6 -1 -1</clus>
<clus scale="   96.423">  2  5  1 -1</clus>
<clus scale="   97.346">  7  8 -1 -1</clus>
<clus scale="   47.084">  1  5  2 -1</clus>
</clustering>
</event>
<event>
 9    1  0.1671478E-005  0.1059368E+03  0.7546771E-02  0.1269288E+00
         -1   -1    0    0    0  501 -0.00000000000E+00  0.00000000000E+00  0.27641858436E+03  0.27641858436E+03  0.00000000000E+00 0.  1.
         21   -1    0    0  501  502  0.00000000000E+00 -0.00000000000E+00 -0.67964224612E+02  0.67964224612E+02  0.00000000000E+00 0. -1.
         23    2    1    2    0    0 -0.40612654063E+02  0.35506470734E+02  0.13958962709E+03  0.17686213387E+03  0.94259499640E+02 0.  0.
         23    2    1    2    0    0  0.13088243102E+02 -0.43525557090E+02  0.86224617912E+02  0.13400553581E+03  0.91962071891E+02 0.  0.
        -13    1    4    4    0    0 -0.32513726010E+01  0.21793934331E+02 -0.29867564561E+01  0.22236629950E+02  0.00000000000E+00 0.  1.
         13    1    4    4    0    0  0.16339615703E+02 -0.65319491421E+02  0.89211374368E+02  0.11176890586E+03  0.00000000000E+00 0. -1.
        -13    1    3    3    0    0  0.28701425058E+02 -0.33523261809E+01  0.32122393471E+02  0.43207152805E+02  0.00000000000E+00 0.  1.
         13    1    3    3    0    0 -0.69314079121E+02  0.38858796915E+02  0.10746723362E+03  0.13365498107E+03  0.00000000000E+00 0. -1.
         -1    1    1    2    0  502  0.27524410961E+02  0.80190863559E+01 -0.17359885262E+02  0.33515139282E+02  0.00000000000E+00 0.  1.
<scales pt_clust_5="13000.00000" pt_clust_6="13000.00000" pt_clust_7="13000.00000" pt_clust_8="13000.00000" pt_clust_9="28.66878"></scales>
<clustering>
<clus scale="   28.669">  2  9  1 -1</clus>
<clus scale="   91.962">  5  6 -1 -1</clus>
<clus scale="   94.259">  7  8 -1 -1</clus>
<clus scale="  103.898">  2  5  1 -1</clus>
<clus scale="   28.669">  2  5  1 -1</clus>
</clustering>
</event>
<event>
 9    1  0.1671478E-005  0.9674115E+02  0.7546771E-02  0.1287730E+00
         21   -1    0    0  501  502  0.00000000000E+00  0.00000000000E+00  0.70011363775E+02  0.70011363775E+02  0.00000000000E+00 0. -1.
          4   -1    0    0  502    0 -0.00000000000E+00 -0.00000000000E+00 -0.45356940802E+03  0.45356940802E+03  0.00000000000E+00 0. -1.
         23    2    1    2    0    0 -0.51227185835E+01 -0.33763802036E+02 -0.36068599952E+03  0.37355752583E+03  0.91019768592E+02 0.  0.
         23    2    1    2    0    0  0.23276854292E+02  0.90854952344E+01 -0.51393375868E+02  0.10816565644E+03  0.91837748128E+02 0.  0.
        -13    1    3    3    0    0  0.27088453462E+02 -0.46372005610E+02 -0.28917785569E+03  0.29412238854E+03  0.00000000000E+00 0. -1.
         13    1    3    3    0    0 -0.32211172045E+02  0.12608203575E+02 -0.71508143830E+02  0.79435137288E+02  0.00000000000E+00 0.  1.
        -13    1    4    4    0    0  0.56313417760E+02  0.70395817758E+01 -0.14448666312E+02  0.58562109675E+02  0.00000000000E+00 0. -1.
         13    1    4    4    0    0 -0.33036563469E+02  0.20459134586E+01 -0.36944709557E+02  0.49603546768E+02  0.00000000000E+00 0.  1.
          4    1    1    2  501    0 -0.18154135708E+02  0.24678306801E+02  0.28521331152E+02  0.41857589522E+02  0.00000000000E+00 0. -1.
<scales pt_clust_5="13000.00000" pt_clust_6="13000.00000" pt_clust_7="13000.00000" pt_clust_8="13000.00000" pt_clust_9="30.63644"></scales>
<clustering>
<clus scale="   30.636">  1  9  2 -1</clus>
<clus scale="   91.020">  5  6 -1 -1</clus>
<clus scale="   91.838">  7  8 -1 -1</clus>
<clus scale="   95.965">  2  5  1 -1</clus>
<clus scale="   30.636">  1  5  2 -1</clus>
</clustering>
</event>
<event>
 9    1  0.1671478E-005  0.9899815E+02  0.7546771E-02  0.1283080E+00
         21   -1    0    0  501  502  0.00000000000E+00  0.00000000000E+00  0.86518563211E+02  0.86518563211E+02  0.00000000000E+00 0. -1.
          3   -1    0    0  502    0 -0.00000000000E+00 -0.00000000000E+00 -0.16246227183E+03  0.16246227183E+03  0.00000000000E+00 0. -1.
         23    2    1    2    0    0  0.23382092299E+02 -0.15671958784E+02 -0.39528542756E+02  0.10325355500E+03  0.91139773944E+02 0.  0.
         23    2    1    2    0    0 -0.21063151001E+02  0.50255466907E+02 -0.36094467741E+02  0.11106462911E+03  0.89795729035E+02 0.  0.
        -11    1    3    3    0    0 -0.25444738584E+02  0.10720404024E+02  0.94971712134E+01  0.29198596628E+02  0.00000000000E+00 0.  1.
         11    1    3    3    0    0  0.48826830883E+02 -0.26392362808E+02 -0.49025713970E+02  0.74054958368E+02  0.00000000000E+00 0. -1.
        -11    1    4    4    0    0 -0.79266478748E+01  0.75771358968E+02 -0.28859419402E+02  0.81467764635E+02  0.00000000000E+00 0. -1.
         11    1    4    4    0    0 -0.13136503126E+02 -0.25515892061E+02 -0.72350483383E+01  0.29596864471E+02  0.00000000000E+00 0.  1.
          3    1    1    2  501    0 -0.23189412978E+01 -0.34583508123E+02 -0.32069812217E+00  0.34662650939E+02  0.00000000000E+00 0. -1.
<scales pt_clust_5="13000.00000" pt_clust_6="13000.00000" pt_clust_7="13000.00000" pt_clust_8="13000.00000" pt_clust_9="34.66117"></scales>
<clustering>
<clus scale="   34.661">  1  9  2 -1</clus>
<clus scale="   89.796">  7  8 -1 -1</clus>
<clus scale="   91.140">  5  6 -1 -1</clus>
<clus scale="   97.762">  1  7  2 -1</clus>
<clus scale="   34.661">  1  5  2 -1</clus>
</clustering>
</event>
<event>
 9    1  0.1671478E-005  0.1053210E+03  0.7546771E-02  0.1271583E+00
         -2   -1    0    0    0  501 -0.00000000000E+00  0.00000000000E+00  0.90166228442E+02  0.90166228442E+02  0.00000000000E+00 0.  1.
         21   -1    0    0  501  502  0.00000000000E+00 -0.00000000000E+00 -0.23994326116E+03  0.23994326116E+03  0.00000000000E+00 0.  1.
         23    2    1    2    0    0 -0.52122413429E+02 -0.53483917105E+01  0.61131547934E+01  0.10762855298E+03  0.93814622953E+02 0.  0.
         23    2    1    2    0    0  0.36731352532E+02  0.24969152117E+02 -0.45770276340E+02  0.10957277115E+03  0.89098951533E+02 0.  0.
        -11    1    3    3    0    0 -0.37260039309E+02  0.10111444760E+02  0.47382441087E+02  0.61119944108E+02  0.00000000000E+00 0.  1.
         11    1    3    3    0    0 -0.14862374120E+02 -0.15459836470E+02 -0.41269286293E+02  0.46508608873E+02  0.00000000000E+00 0. -1.
        -13    1    4    4    0    0  0.54351994649E+02  0.46095376697E+02 -0.26721783302E+02  0.76111607380E+02  0.00000000000E+00 0.  1.
         13    1    4    4    0    0 -0.17620642117E+02 -0.21126224580E+02 -0.19048493038E+02  0.33461163767E+02  0.00000000000E+00 0. -1.
         -2    1    1    2    0  502  0.15391060897E+02 -0.19620760407E+02 -0.11011991117E+03  0.11290816548E+03  0.00000000000E+00 0.  1.
<scales pt_clust_5="13000.00000" pt_clust_6="13000.00000" pt_clust_7="13000.00000" pt_clust_8="13000.00000" pt_clust_9="24.93710"></scales>
<clustering>
<clus scale="   24.937">  2  9  1 -1</clus>
<clus scale="   89.099">  7  8 -1 -1</clus>
<clus scale="   93.815">  5  6 -1 -1</clus>
<clus scale="  101.143">  2  7  1 -1</clus>
<clus scale="   24.937">  2  5  1 -1</clus>
</clustering>
</event>
<event>
 9    1  0.1671478E-005  0.1081099E+03  0.7546771E-02  0.1266797E+00
         21   -1    0    0  501  502  0.00000000000E+00  0.00000000000E+00  0.56172296924E+02  0.56172296924E+02  0.00000000000E+00 0.  1.
         -3   -1    0    0    0  501 -0.00000000000E+00 -0.00000000000E+00 -0.58703427119E+03  0.58703427119E+03  0.00000000000E+00 0.  1.
         23    2    1    2    0    0  0.67078502593E+02  0.12049551872E+02 -0.46075568398E+03  0.47331391842E+03  0.84175696245E+02 0.  0.
         23    2    1    2    0    0 -0.24921794577E+02 -0.92419822462E+01 -0.82843625294E+02  0.12576431207E+03  0.90813467387E+02 0.  0.
        -13    1    4    4    0    0 -0.35740395255E+02  0.77806851255E+01 -0.95286210440E+02  0.10206555155E+03  0.00000000000E+00 0. -1.
         13    1    4    4    0    0  0.10818600678E+02 -0.17022667372E+02  0.12442585146E+02  0.23698760520E+02  0.00000000000E+00 0.  1.
        -13    1    3    3    0    0  0.45042853111E+02 -0.33578640655E+02 -0.28054281217E+03  0.28611300771E+03  0.00000000000E+00 0. -1.
         13    1    3    3    0    0  0.22035649482E+02  0.45628192528E+02 -0.18021287181E+03  0.18720091071E+03  0.00000000000E+00 0.  1.
         -3    1    1    2    0  502 -0.42156708016E+02 -0.28075696263E+01  0.12737335010E+02  0.44128337620E+02  0.00000000000E+00 0.  1.
<scales pt_clust_5="13000.00000" pt_clust_6="13000.00000" pt_clust_7="13000.00000" pt_clust_8="13000.00000" pt_clust_9="42.25009"></scales>
<clustering>
<clus scale="   42.250">  1  9  2 -1</clus>
<clus scale="   84.176">  7  8 -1 -1</clus>
<clus scale="   90.813">  5  6 -1 -1</clus>
<clus scale="  102.597">  2  7  1 -1</clus>
<clus scale="   42.250">  1  5  2 -1</clus>
</clustering>
</event>
<event>
 9    1  0.1671478E-005  0.1032021E+03  0.7546771E-02  0.1277693E+00
         21   -1    0    0  501  502  0.00000000000E+00  0.00000000000E+00  0.33890977492E+02  0.33890977492E+02  0.00000000000E+00 0. -1.
         -2   -1    0    0    0  501 -0.00000000000E+00 -0.00000000000E+00 -0.46906045539E+03  0.46906045539E+03  0.00000000000E+00 0.  1.
         23    2    1    2    0    0  0.47539246159E+01 -0.52262912010E+02 -0.26129885729E+03  0.27909068545E+03  0.82828172235E+02 0.  0.
         23    2    1    2    0    0  0.19564907388E+02  0.39939465733E+02 -0.16732582977E+03  0.19582314402E+03  0.91492206766E+02 0.  0.
        -11    1    4    4    0    0  0.33535246107E+02  0.64643210820E+02 -0.11109453423E+03  0.13283581208E+03  0.00000000000E+00 0.  1.
         11    1    4    4    0    0 -0.13970338720E+02 -0.24703745087E+02 -0.56231295545E+02  0.62987331932E+02  0.00000000000E+00 0. -1.
        -13    1    3    3    0    0 -0.99850418271E+01  0.19151200466E+02 -0.96379822572E+02  0.98770135864E+02  0.00000000000E+00 0.  1.
         13    1    3    3    0    0  0.14738966443E+02 -0.71414112476E+02 -0.16491903472E+03  0.18032054959E+03  0.00000000000E+00 0. -1.
         -2    1    1    2    0  502 -0.24318832003E+02  0.12323446278E+02 -0.65447908403E+01  0.28037603416E+02  0.00000000000E+00 0.  1.
<scales pt_clust_5="13000.00000" pt_clust_6="13000.00000" pt_clust_7="13000.00000" pt_clust_8="13000.00000" pt_clust_9="27.26303"></scales>
<clustering>
<clus scale="   27.263">  1  9  2 -1</clus>
<clus scale="   82.828">  7  8 -1 -1</clus>
<clus scale="   91.492">  5  6 -1 -1</clus>
<clus scale="   95.605">  2  7  1 -1</clus>
<clus scale="   27.263">  1  5  2 -1</clus>
</clustering>
</event>
<event>
 9    1  0.1671478E-005  0.1128892E+03  0.7546771E-02  0.1255964E+00
          2   -1    0    0  502    0 -0.00000000000E+00  0.00000000000E+00  0.28827590920E+03  0.28827590920E+03  0.00000000000E+00 0. -1.
         21   -1    0    0  501  502  0.00000000000E+00 -0.00000000000E+00 -0.73838543201E+02  0.73838543201E+02  0.00000000000E+00 0. -1.
         23    2    1    2    0    0  0.71369962038E+02 -0.31041099068E+02  0.17238844876E+03  0.20951536235E+03  0.90120411022E+02 0.  0.
         23    2    1    2    0    0 -0.34700691271E+02  0.30372206760E+02  0.51099631714E+02  0.11482345944E+03  0.91905633985E+02 0.  0.
        -11    1    4    4    0    0 -0.32534311530E+02  0.55009266620E+02  0.70396514209E+01  0.64296637026E+02  0.00000000000E+00 0.  1.
         11    1    4    4    0    0 -0.21663797413E+01 -0.24637059860E+02  0.44059980293E+02  0.50526822413E+02  0.00000000000E+00 0. -1.
        -13    1    3    3    0    0  0.73790027456E+02 -0.51719681098E+02  0.10195279804E+03  0.13606714002E+03  0.00000000000E+00 0. -1.
         13    1    3    3    0    0 -0.24200654185E+01  0.20678582029E+02  0.70435650720E+02  0.73448222332E+02  0.00000000000E+00 0.  1.
          2    1    1    2  501    0 -0.36669270767E+02  0.66889230816E+00 -0.90507144744E+01  0.37775630610E+02  0.00000000000E+00 0. -1.
<scales pt_clust_5="13000.00000" pt_clust_6="13000.00000" pt_clust_7="13000.00000" pt_clust_8="13000.00000" pt_clust_9="36.67537"></scales>
<clustering>
<clus scale="   36.675">  2  9  1 -1</clus>
<clus scale="   90.120">  7  8 -1 -1</clus>
<clus scale="   91.906">  5  6 -1 -1</clus>
<clus scale="  111.441">  1  7  2 -1</clus>
<clus scale="   36.675">  2  5  1 -1</clus>
</clustering>
</event>
<event>
 9    1  0.1671478E-005  0.1275734E+03  0.7546771E-02  0.1232054E+00
          2   -1    0    0  502    0 -0.00000000000E+00  0.00000000000E+00  0.28385168660E+03  0.28385168660E+03  0.00000000000E+00 0. -1.
         21   -1    0    0  501  502  0.00000000000E+00 -0.00000000000E+00 -0.14013948518E+03  0.14013948518E+03  0.00000000000E+00 0.  1.
         23    2    1    2    0    0  0.37061736493E+02 -0.91617949985E+02  0.18014769806E+03  0.22340064498E+03  0.87676872614E+02 0.  0.
         23    2    1    2    0    0 -0.27184622091E+02  0.65208838942E+02  0.37638696519E+02  0.12133155490E+03  0.91178278030E+02 0.  0.
        -13    1    4    4    0    0  0.27465882501E+02  0.47743713083E+01 -0.65550177387E+01  0.28638044285E+02  0.00000000000E+00 0.  1.
         13    1    4    4    0    0 -0.54650504592E+02  0.60434467634E+02  0.44193714258E+02  0.92693510616E+02  0.00000000000E+00 0. -1.
        -13    1    3    3    0    0  0.13034673909E+02 -0.97300876129E+02  0.17079574453E+03  0.19699885677E+03  0.00000000000E+00 0. -1.
         13    1    3    3    0    0  0.24027062584E+02  0.56829261445E+01  0.93519535290E+01  0.26401788212E+02  0.00000000000E+00 0.  1.
          2    1    1    2  501    0 -0.98771144017E+01  0.26409111042E+02 -0.74074193157E+02  0.79258971901E+02  0.00000000000E+00 0. -1.
<scales pt_clust_5="13000.00000" pt_clust_6="13000.00000" pt_clust_7="13000.00000" pt_clust_8="13000.00000" pt_clust_9="28.19572"></scales>
<clustering>
<clus scale="   28.196">  2  9  1 -1</clus>
<clus scale="   87.677">  7  8 -1 -1</clus>
<clus scale="   91.178">  5  6 -1 -1</clus>
<clus scale="  125.095">  1  7  2 -1</clus>
<clus scale="   28.196">  2  5  1 -1</clus>
</clustering>
</event>
<event>
 9    1  0.1671478E-005  0.1023396E+03  0.7546771E-02  0.1277196E+00
          2   -1    0    0  502    0 -0.00000000000E+00  0.00000000000E+00  0.28816503907E+03  0.28816503907E+03  0.00000000000E+00 0. -1.
         21   -1    0    0  501  502  0.00000000000E+00 -0.00000000000E+00 -0.77785257299E+02  0.77785257299E+02  0.00000000000E+00 0.  1.
         23    2    1    2    0    0  0.50264240382E+01 -0.67201344902E+02  0.14765626225E+03  0.18487799181E+03  0.88522394801E+02 0.  0.
         23    2    1    2    0    0  0.18154023881E+02  0.15539180210E+02  0.77169744621E+02  0.12263425320E+03  0.92265680884E+02 0.  0.
        -11    1    4    4    0    0  0.12621679622E+02  0.37271748905E+02  0.88976926277E+02  0.97290202347E+02  0.00000000000E+00 0. -1.
         11    1    4    4    0    0  0.55323442587E+01 -0.21732568695E+02 -0.11807181657E+02  0.25344050855E+02  0.00000000000E+00 0.  1.
        -11    1    3    3    0    0  0.33872419144E+02 -0.45005271435E+02  0.13510604834E+03  0.14637779727E+03  0.00000000000E+00 0.  1.
         11    1    3    3    0    0 -0.28845995106E+02 -0.22196073467E+02  0.12550213911E+02  0.38500194548E+02  0.00000000000E+00 0. -1.
          2    1    1    2  501    0 -0.23180447919E+02  0.51662164692E+02 -0.14446225096E+02  0.58438051353E+02  0.00000000000E+00 0. -1.
<scales pt_clust_5="13000.00000" pt_clust_6="13000.00000" pt_clust_7="13000.00000" pt_clust_8="13000.00000" pt_clust_9="56.62431"></scales>
<clustering>
<clus scale="   56.624">  2  9  1 -1</clus>
<clus scale="   88.522">  7  8 -1 -1</clus>
<clus scale="   92.266">  5  6 -1 -1</clus>
<clus scale="   98.978">  1  7  2 -1</clus>
<clus scale="   56.624">  2  5  1 -1</clus>
</clustering>
</event>
<event>
 9    1  0.1671478E-005  0.1187665E+03  0.7546771E-02  0.1246384E+00
         21   -1    0    0  501  502  0.00000000000E+00  0.00000000000E+00  0.59526101648E+02  0.59526101648E+02  0.00000000000E+00 0.  1.
          1   -1    0    0  502    0 -0.00000000000E+00 -0.00000000000E+00 -0.68121861870E+03  0.68121861870E+03  0.00000000000E+00 0. -1.
         23    2    1    2    0    0  0.47275987800E+02 -0.21370675054E+02 -0.21414545313E+03  0.23753643763E+03  0.88733079118E+02 0.  0.
         23    2    1    2    0    0 -0.10260904301E+03 -0.34294777834E+02 -0.39974357094E+03  0.42433316530E+03  0.92514675447E+02 0.  0.
        -13    1    4    4    0    0 -0.22332386112E+02 -0.17585978553E+02 -0.17470747679E+02  0.33365088575E+02  0.00000000000E+00 0.  1.
         13    1    4    4    0    0 -0.80276656903E+02 -0.16708799281E+02 -0.38227282326E+03  0.39096807673E+03  0.00000000000E+00 0. -1.
        -13    1    3    3    0    0 -0.10732451582E+02 -0.40319495733E+02 -0.83752071998E+02  0.93569529319E+02  0.00000000000E+00 0.  1.
         13    1    3    3    0    0  0.58008439382E+02  0.18948820680E+02 -0.13039338113E+03  0.14396690831E+03  0.00000000000E+00 0. -1.
          1    1    1    2  501    0  0.55333055215E+02  0.55665452887E+02 -0.78034929788E+01  0.78875117415E+02  0.00000000000E+00 0. -1.
<scales pt_clust_5="13000.00000" pt_clust_6="13000.00000" pt_clust_7="13000.00000" pt_clust_8="13000.00000" pt_clust_9="78.48815"></scales>
<clustering>
<clus scale="   78.488">  1  9  2 -1</clus>
<clus scale="   88.733">  7  8 -1 -1</clus>
<clus scale="   92.515">  5  6 -1 -1</clus>
<clus scale="  115.845">  2  7  1 -1</clus>
<clus scale="   78.488">  1  5  2 -1</clus>
</clustering>
</event>
<event>
 9    1  0.1671478E-005  0.1586357E+03  0.7546771E-02  0.1190273E+00
          1   -1    0    0  502    0 -0.00000000000E+00  0.00000000000E+00  0.51503345855E+03  0.51503345855E+03  0.00000000000E+00 0. -1.
         21   -1    0    0  501  502  0.00000000000E+00 -0.00000000000E+00 -0.62251344351E+02  0.62251344351E+02  0.00000000000E+00 0.  1.
         23    2    1    2    0    0 -0.29973501861E+02  0.12477703726E+03  0.22680459935E+03  0.27667668640E+03  0.92962049638E+02 0.  0.
         23    2    1    2    0    0  0.51214392147E+02 -0.11915747789E+03  0.22833131132E+03  0.27851071336E+03  0.92798767380E+02 0.  0.
        -11    1    4    4    0    0  0.57333721772E+02 -0.31682106768E+02  0.60583465033E+02  0.89225936683E+02  0.00000000000E+00 0. -1.
         11    1    4    4    0    0 -0.61193296250E+01 -0.87475371124E+02  0.16774784628E+03  0.18928477667E+03  0.00000000000E+00 0.  1.
        -13    1    3    3    0    0 -0.57594291290E+02  0.11590117841E+03  0.18718456681E+03  0.22757031353E+03  0.00000000000E+00 0. -1.
         13    1    3    3    0    0  0.27620789428E+02  0.88758588493E+01  0.39620032535E+02  0.49106372876E+02  0.00000000000E+00 0.  1.
          1    1    1    2  501    0 -0.21240890286E+02 -0.56195593719E+01 -0.23537964644E+01  0.22097403139E+02  0.00000000000E+00 0. -1.
<scales pt_clust_5="13000.00000" pt_clust_6="13000.00000" pt_clust_7="13000.00000" pt_clust_8="13000.00000" pt_clust_9="21.97168"></scales>
<clustering>
<clus scale="   21.972">  2  9  1 -1</clus>
<clus scale="   92.799">  5  6 -1 -1</clus>
<clus scale="   92.962">  7  8 -1 -1</clus>
<clus scale="  158.540">  2  5  1 -1</clus>
<clus scale="   21.972">  2  5  1 -1</clus>
</clustering>
</event>
<event>
 9    1  0.1671478E-005  0.1475901E+03  0.7546771E-02  0.1203466E+00
          1   -1    0    0  502    0 -0.00000000000E+00  0.00000000000E+00  0.69204107950E+03  0.69204107950E+03  0.00000000000E+00 0. -1.
         21   -1    0    0  501  502  0.00000000000E+00 -0.00000000000E+00 -0.49287478834E+02  0.49287478834E+02  0.00000000000E+00 0.  1.
         23    2    1    2    0    0 -0.10758031642E+03 -0.90155078902E+01  0.38563446353E+03  0.41079140184E+03  0.91546886903E+02 0.  0.
         23    2    1    2    0    0  0.13276316922E+03 -0.23470077904E+02  0.22762041301E+03  0.27994403360E+03  0.91546195262E+02 0.  0.
        -11    1    3    3    0    0 -0.42034158560E+02  0.26757005164E+02  0.66844130943E+02  0.83372331458E+02  0.00000000000E+00 0.  1.
         11    1    3    3    0    0 -0.65546157862E+02 -0.35772513054E+02  0.31879033258E+03  0.32741907038E+03  0.00000000000E+00 0. -1.
        -11    1    4    4    0    0  0.11565085472E+03 -0.43574346443E+02  0.22021476379E+03  0.25252403065E+03  0.00000000000E+00 0.  1.
         11    1    4    4    0    0  0.17112314499E+02  0.20104268539E+02  0.74056492238E+01  0.27420002944E+02  0.00000000000E+00 0. -1.
          1    1    1    2  501    0 -0.25182852802E+02  0.32485585794E+02  0.29498724130E+02  0.50593122902E+02  0.00000000000E+00 0. -1.
<scales pt_clust_5="13000.00000" pt_clust_6="13000.00000" pt_clust_7="13000.00000" pt_clust_8="13000.00000" pt_clust_9="41.10340"></scales>
<clustering>
<clus scale="   41.103">  2  9  1 -1</clus>
<clus scale="   91.546">  7  8 -1 -1</clus>
<clus scale="   91.547">  5  6 -1 -1</clus>
<clus scale="  147.590">  2  7  1 -1</clus>
<clus scale="   41.103">  2  5  1 -1</clus>
</clustering>
</event>
<event>
 9    1  0.1671478E-005  0.9237107E+02  0.7546771E-02  0.1297738E+00
         21   -1    0    0  501  502  0.00000000000E+00  0.00000000000E+00  0.87593848973E+02  0.87593848973E+02  0.00000000000E+00 0.  1.
          1   -1    0    0  502    0 -0.00000000000E+00 -0.00000000000E+00 -0.27870183539E+03  0.27870183539E+03  0.00000000000E+00 0. -1.
         23    2    1    2    0    0  0.10623432390E+00 -0.12870576857E+02 -0.19800078500E+03  0.21793230347E+03  0.90136091574E+02 0.  0.
         23    2    1    2    0    0  0.25150766880E+02  0.20584719951E+02 -0.31576684307E+02  0.10170156324E+03  0.91048499184E+02 0.  0.
        -11    1    4    4    0    0  0.52325444066E+02  0.27578028604E+02  0.41243812944E+00  0.59149555058E+02  0.00000000000E+00 0.  1.
         11    1    4    4    0    0 -0.27174677186E+02 -0.69933086538E+01 -0.31989122436E+02  0.42552008182E+02  0.00000000000E+00 0. -1.
        -13    1    3    3    0    0  0.35580289660E+02  0.50791327549E+01 -0.35051731512E+02  0.50203371240E+02  0.00000000000E+00 0.  1.
         13    1    3    3    0    0 -0.35474055337E+02 -0.17949709612E+02 -0.16294905348E+03  0.16772893223E+03  0.00000000000E+00 0. -1.
          1    1    1    2  501    0 -0.25257001203E+02 -0.77141430938E+01  0.38469482882E+02  0.46661817653E+02  0.00000000000E+00 0. -1.
<scales pt_clust_5="13000.00000" pt_clust_6="13000.00000" pt_clust_7="13000.00000" pt_clust_8="13000.00000" pt_clust_9="26.40879"></scales>
<clustering>
<clus scale="   26.409">  1  9  2 -1</clus>
<clus scale="   90.136">  7  8 -1 -1</clus>
<clus scale="   91.048">  5  6 -1 -1</clus>
<clus scale="   91.472">  2  7  1 -1</clus>
<clus scale="   26.409">  1  5  2 -1</clus>
</clustering>
</event>
<event>
 9    1  0.1671478E-005  0.1346816E+03  0.7546771E-02  0.1220968E+00
          1   -1    0    0  502    0 -0.00000000000E+00  0.00000000000E+00  0.92672334430E+03  0.92672334430E+03  0.00000000000E+00 0. -1.
         21   -1    0    0  501  502  0.00000000000E+00 -0.00000000000E+00 -0.58350209943E+02  0.58350209943E+02  0.00000000000E+00 0. -1.
         23    2    1    2    0    0  0.17325772293E+02 -0.99115837915E+02  0.47972745101E+03  0.49849107859E+03  0.90723737102E+02 0.  0.
         23    2    1    2    0    0  0.94091523491E+02  0.94912852246E+02  0.14077979020E+03  0.21479399195E+03  0.91955670481E+02 0.  0.
        -13    1    4    4    0    0  0.93649392647E+02  0.46645746728E+02  0.59766476077E+02  0.12049093781E+03  0.00000000000E+00 0. -1.
         13    1    4    4    0    0  0.44213084365E+00  0.48267105518E+02  0.81013314127E+02  0.94303054143E+02  0.00000000000E+00 0.  1.
        -13    1    3    3    0    0  0.37866879194E+02 -0.17422349029E+02  0.82521529053E+02  0.92451292813E+02  0.00000000000E+00 0.  1.
         13    1    3    3    0    0 -0.20541106901E+02 -0.81693488886E+02  0.39720592196E+03  0.40603978578E+03  0.00000000000E+00 0. -1.
          1    1    1    2  501    0 -0.11141729578E+03  0.42029856688E+01  0.24786589315E+03  0.27178848370E+03  0.00000000000E+00 0. -1.
<scales pt_clust_5="13000.00000" pt_clust_6="13000.00000" pt_clust_7="13000.00000" pt_clust_8="13000.00000" pt_clust_9="111.49660"></scales>
<clustering>
<clus scale="   90.724">  7  8 -1 -1</clus>
<clus scale="   91.956">  5  6 -1 -1</clus>
<clus scale="  111.497">  2  9  1 -1</clus>
<clus scale="  133.844">  1  7  2 -1</clus>
<clus scale="  111.497">  2  5  1 -1</clus>
</clustering>
</event>
<event>
 9    1  0.1671478E-005  0.9250603E+02  0.7546771E-02  0.1297703E+00
         21   -1    0    0  501  502  0.00000000000E+00  0.00000000000E+00  0.49165678611E+02  0.49165678611E+02  0.00000000000E+00 0.  1.
          1   -1    0    0  502    0 -0.00000000000E+00 -0.00000000000E+00 -0.39585575101E+03  0.39585575101E+03  0.00000000000E+00 0. -1.
         23    2    1    2    0    0 -0.14601495333E+02  0.24338932033E+01 -0.27996400715E+03  0.29501686037E+03  0.91847564491E+02 0.  0.
         23    2    1    2    0    0 -0.10402098343E+02 -0.74725615571E+01 -0.15348491607E+02  0.92644104215E+02  0.90461654998E+02 0.  0.
        -13    1    4    4    0    0  0.28773975956E+02 -0.16151029173E+02  0.20492150309E+02  0.38842317901E+02  0.00000000000E+00 0.  1.
         13    1    4    4    0    0 -0.39176074298E+02  0.86784676163E+01 -0.35840641916E+02  0.53801786314E+02  0.00000000000E+00 0. -1.
        -13    1    3    3    0    0  0.14863727824E+02 -0.38895630371E+02 -0.10921541567E+03  0.11688373491E+03  0.00000000000E+00 0.  1.
         13    1    3    3    0    0 -0.29465223157E+02  0.41329523574E+02 -0.17074859147E+03  0.17813312546E+03  0.00000000000E+00 0. -1.
          1    1    1    2  501    0  0.25003593676E+02  0.50386683538E+01 -0.51377573645E+02  0.57360465036E+02  0.00000000000E+00 0. -1.
<scales pt_clust_5="13000.00000" pt_clust_6="13000.00000" pt_clust_7="13000.00000" pt_clust_8="13000.00000" pt_clust_9="25.50624"></scales>
<clustering>
<clus scale="   25.506">  1  9  2 -1</clus>
<clus scale="   90.462">  5  6 -1 -1</clus>
<clus scale="   91.130">  1  5  2 -1</clus>
<clus scale="   91.848">  7  8 -1 -1</clus>
<clus scale="   25.506">  1  5  2 -1</clus>
</clustering>
</event>
<event>
 9    1  0.1671478E-005  0.1681458E+03  0.7546771E-02  0.1196790E+00
          1   -1    0    0  502    0 -0.00000000000E+00  0.00000000000E+00  0.17967322746E+03  0.17967322746E+03  0.00000000000E+00 0. -1.
         21   -1    0    0  501  502  0.00000000000E+00 -0.00000000000E+00 -0.49321051808E+03  0.49321051808E+03  0.00000000000E+00 0. -1.
         23    2    1    2    0    0 -0.92341086903E+01  0.73400867329E+02  0.36332529193E+01  0.11543770654E+03  0.88542122617E+02 0.  0.
         23    2    1    2    0    0  0.70434120563E+02 -0.18798611331E+03 -0.90390068127E+01  0.22305066825E+03  0.96799549721E+02 0.  0.
        -11    1    4    4    0    0  0.88525665916E+02 -0.10422962323E+03 -0.12286724167E+02  0.13730102503E+03  0.00000000000E+00 0.  1.
         11    1    4    4    0    0 -0.18091545353E+02 -0.83756490083E+02  0.32477173538E+01  0.85749643220E+02  0.00000000000E+00 0. -1.
        -13    1    3    3    0    0  0.36393891279E+02  0.18651717028E+02  0.14406249850E+02  0.43358296845E+02  0.00000000000E+00 0. -1.
         13    1    3    3    0    0 -0.45627999969E+02  0.54749150300E+02 -0.10772996930E+02  0.72079409700E+02  0.00000000000E+00 0.  1.
          1    1    1    2  501    0 -0.61200011873E+02  0.11458524598E+03 -0.30813153672E+03  0.33439537074E+03  0.00000000000E+00 0. -1.
<scales pt_clust_5="13000.00000" pt_clust_6="13000.00000" pt_clust_7="13000.00000" pt_clust_8="13000.00000" pt_clust_9="137.48762"></scales>
<clustering>
<clus scale="   88.542">  7  8 -1 -1</clus>
<clus scale="   96.800">  5  6 -1 -1</clus>
<clus scale="  115.381">  1  7  2 -1</clus>
<clus scale="  137.488">  2  9  1 -1</clus>
<clus scale="  137.488">  2  5  1 -1</clus>
</clustering>
</event>
<event>
 9    1  0.1671478E-005  0.1977557E+03  0.7546771E-02  0.1154488E+00
         -3   -1    0    0    0  501 -0.00000000000E+00  0.00000000000E+00  0.57176958970E+03  0.57176958970E+03  0.00000000000E+00 0.  1.
         21   -1    0    0  501  502  0.00000000000E+00 -0.00000000000E+00 -0.41321398366E+03  0.41321398366E+03  0.00000000000E+00 0.  1.
         23    2    1    2    0    0 -0.12208622515E+03 -0.77679865630E+02  0.35909022199E+03  0.39761650708E+03  0.90630520649E+02 0.  0.
         23    2    1    2    0    0  0.27619205421E+03  0.95846752415E+02  0.23479496910E+02  0.31485841489E+03  0.11452459952E+03 0.  0.
        -13    1    3    3    0    0 -0.12778650503E+03 -0.42103777316E+02  0.27581695223E+03  0.30688289309E+03  0.00000000000E+00 0.  1.
         13    1    3    3    0    0  0.57002798805E+01 -0.35576088314E+02  0.83273269761E+02  0.90733613987E+02  0.00000000000E+00 0. -1.
        -13    1    4    4    0    0  0.21190389292E+03  0.10300446106E+03  0.56413064764E+02  0.24227177448E+03  0.00000000000E+00 0.  1.
         13    1    4    4    0    0  0.64288161287E+02 -0.71577086424E+01 -0.32933567855E+02  0.72586640412E+02  0.00000000000E+00 0. -1.
         -3    1    1    2    0  502 -0.15410582905E+03 -0.18166886786E+02 -0.22401411286E+03  0.27250865139E+03  0.00000000000E+00 0.  1.
<scales pt_clust_5="13000.00000" pt_clust_6="13000.00000" pt_clust_7="13000.00000" pt_clust_8="13000.00000" pt_clust_9="155.17294"></scales>
<clustering>
<clus scale="   90.631">  5  6 -1 -1</clus>
<clus scale="  114.525">  7  8 -1 -1</clus>
<clus scale="  155.173">  2  9  1 -1</clus>
<clus scale="  184.947">  1  5  2 -1</clus>
<clus scale="  155.173">  2  5  1 -1</clus>
</clustering>
</event>
<event>
 9    1  0.1671478E-005  0.1326642E+03  0.7546771E-02  0.1223706E+00
          1   -1    0    0  502    0 -0.00000000000E+00  0.00000000000E+00  0.45869371372E+03  0.45869371372E+03  0.00000000000E+00 0. -1.
         21   -1    0    0  501  502  0.00000000000E+00 -0.00000000000E+00 -0.14846333592E+03  0.14846333592E+03  0.00000000000E+00 0. -1.
         23    2    1    2    0    0 -0.57050886749E+02 -0.67574455967E+02  0.17380598182E+03  0.21520240825E+03  0.91007947036E+02 0.  0.
         23    2    1    2    0    0  0.12435100071E+03  0.42124393444E+01  0.21899218834E+03  0.26801315994E+03  0.91610912696E+02 0.  0.
        -13    1    4    4    0    0  0.11952698183E+02 -0.33804839029E+02  0.51234347531E+02  0.62534730371E+02  0.00000000000E+00 0. -1.
         13    1    4    4    0    0  0.11239830253E+03  0.38017278374E+02  0.16775784081E+03  0.20547842957E+03  0.00000000000E+00 0.  1.
        -13    1    3    3    0    0 -0.22409861540E+01 -0.68152377690E+02  0.12209764112E+03  0.13984849863E+03  0.00000000000E+00 0. -1.
         13    1    3    3    0    0 -0.54809900595E+02  0.57792172267E+00  0.51708340702E+02  0.75353909619E+02  0.00000000000E+00 0.  1.
          1    1    1    2  501    0 -0.67300113961E+02  0.63362016623E+02 -0.82567792352E+02  0.12394148145E+03  0.00000000000E+00 0. -1.
<scales pt_clust_5="13000.00000" pt_clust_6="13000.00000" pt_clust_7="13000.00000" pt_clust_8="13000.00000" pt_clust_9="92.43403"></scales>
<clustering>
<clus scale="   91.008">  7  8 -1 -1</clus>
<clus scale="   91.611">  5  6 -1 -1</clus>
<clus scale="   92.434">  2  9  1 -1</clus>
<clus scale="  132.249">  1  7  2 -1</clus>
<clus scale="   92.434">  2  5  1 -1</clus>
</clustering>
</event>
<event>
 9    1  0.1671478E-005  0.1142082E+03  0.7546771E-02  0.1254633E+00
         21   -1    0    0  501  502  0.00000000000E+00  0.00000000000E+00  0.14974096918E+03  0.14974096918E+03  0.00000000000E+00 0. -1.
          1   -1    0    0  502    0 -0.00000000000E+00 -0.00000000000E+00 -0.33860399150E+03  0.33860399150E+03  0.00000000000E+00 0. -1.
         23    2    1    2    0    0 -0.27783144025E+02  0.53305440708E+02 -0.12713681209E+03  0.17278579293E+03  0.10038818730E+03 0.  0.
         23    2    1    2    0    0  0.84561699274E+02  0.41489471585E+02 -0.13020473191E+03  0.18556229215E+03  0.92779495682E+02 0.  0.
        -11    1    4    4    0    0  0.35199476703E+02  0.58282961561E+02 -0.11055966064E+03  0.12984354173E+03  0.00000000000E+00 0. -1.
         11    1    4    4    0    0  0.49362222572E+02 -0.16793489976E+02 -0.19645071270E+02  0.55718750417E+02  0.00000000000E+00 0.  1.
        -13    1    3    3    0    0  0.25244567856E+02  0.27543878998E+02 -0.10212556382E+03  0.10874550227E+03  0.00000000000E+00 0.  1.
         13    1    3    3    0    0 -0.53027711881E+02  0.25761561709E+02 -0.25011248269E+02  0.64040290669E+02  0.00000000000E+00 0. -1.
          1    1    1    2  501    0 -0.56778555249E+02 -0.94794912293E+02  0.68478521684E+02  0.12999687560E+03  0.00000000000E+00 0. -1.
<scales pt_clust_5="13000.00000" pt_clust_6="13000.00000" pt_clust_7="13000.00000" pt_clust_8="13000.00000" pt_clust_9="110.49832"></scales>
<clustering>
<clus scale="   92.779">  5  6 -1 -1</clus>
<clus scale="  100.388">  7  8 -1 -1</clus>
<clus scale="  110.498">  1  9  2 -1</clus>
<clus scale="  110.498">  1  5  2 -1</clus>
<clus scale="  110.498">  1  5  2 -1</clus>
</clustering>
</event>
<event>
 9    1  0.1671478E-005  0.1011186E+03  0.7546771E-02  0.1279742E+00
         21   -1    0    0  501  502  0.00000000000E+00  0.00000000000E+00  0.74230370352E+02  0.74230370352E+02  0.00000000000E+00 0. -1.
          3   -1    0    0  502    0 -0.00000000000E+00 -0.00000000000E+00 -0.27436936661E+03  0.27436936661E+03  0.00000000000E+00 0. -1.
         23    2    1    2    0    0 -0.30803917800E+02  0.29372156352E+02 -0.13497310363E+03  0.16955748341E+03  0.93383063543E+02 0.  0.
         23    2    1    2    0    0 -0.20861282750E+02 -0.49916066452E+02 -0.65284102138E+02  0.12344226107E+03  0.89717172365E+02 0.  0.
        -11    1    4    4    0    0 -0.13468415171E+02  0.25574881397E+02 -0.18765907547E+02  0.34462037835E+02  0.00000000000E+00 0. -1.
         11    1    4    4    0    0 -0.73928675791E+01 -0.75490947849E+02 -0.46518194591E+02  0.88980223231E+02  0.00000000000E+00 0.  1.
        -13    1    3    3    0    0  0.20356191053E+02 -0.77202594646E+01 -0.14299485192E+01  0.21817920917E+02  0.00000000000E+00 0.  1.
         13    1    3    3    0    0 -0.51160108852E+02  0.37092415817E+02 -0.13354315511E+03  0.14773956250E+03  0.00000000000E+00 0. -1.
          3    1    1    2  501    0  0.51665200550E+02  0.20543910100E+02  0.11820951739E+00  0.55599992478E+02  0.00000000000E+00 0. -1.
<scales pt_clust_5="13000.00000" pt_clust_6="13000.00000" pt_clust_7="13000.00000" pt_clust_8="13000.00000" pt_clust_9="55.59987"></scales>
<clustering>
<clus scale="   55.600">  1  9  2 -1</clus>
<clus scale="   89.717">  5  6 -1 -1</clus>
<clus scale="   93.383">  7  8 -1 -1</clus>
<clus scale="   97.743">  1  5  2 -1</clus>
<clus scale="   55.600">  1  5  2 -1</clus>
</clustering>
</event>
<event>
 9    1  0.1671478E-005  0.1173854E+03  0.7546771E-02  0.1247945E+00
          1   -1    0    0  502    0 -0.00000000000E+00  0.00000000000E+00  0.10214792089E+03  0.10214792089E+03  0.00000000000E+00 0. -1.
         21   -1    0    0  501  502  0.00000000000E+00 -0.00000000000E+00 -0.28798096218E+03  0.28798096218E+03  0.00000000000E+00 0.  1.
         23    2    1    2    0    0  0.40338256331E+02  0.71677289125E+02  0.32608072643E+02  0.12650395086E+03  0.90416560876E+02 0.  0.
         23    2    1    2    0    0 -0.26928047989E+02 -0.38316921552E+02 -0.11665517064E+03  0.15567528626E+03  0.91831692069E+02 0.  0.
        -13    1    4    4    0    0 -0.43968581888E+02 -0.10189778420E+02 -0.11408517467E+03  0.12268860932E+03  0.00000000000E+00 0.  1.
         13    1    4    4    0    0  0.17040533899E+02 -0.28127143132E+02 -0.25699959765E+01  0.32986676942E+02  0.00000000000E+00 0. -1.
        -13    1    3    3    0    0 -0.54903526221E+01  0.44755962671E+02 -0.22110497351E+02  0.50220655707E+02  0.00000000000E+00 0.  1.
         13    1    3    3    0    0  0.45828608953E+02  0.26921326454E+02  0.54718569994E+02  0.76283295149E+02  0.00000000000E+00 0. -1.
          1    1    1    2  501    0 -0.13410208342E+02 -0.33360367573E+02 -0.10178594328E+03  0.10794964596E+03  0.00000000000E+00 0. -1.
<scales pt_clust_5="13000.00000" pt_clust_6="13000.00000" pt_clust_7="13000.00000" pt_clust_8="13000.00000" pt_clust_9="35.95480"></scales>
<clustering>
<clus scale="   35.955">  2  9  1 -1</clus>
<clus scale="   90.417">  7  8 -1 -1</clus>
<clus scale="   91.832">  5  6 -1 -1</clus>
<clus scale="  116.282">  1  7  2 -1</clus>
<clus scale="   35.955">  2  5  1 -1</clus>
</clustering>
</event>
<event>
 9    1  0.1671478E-005  0.2082902E+03  0.7546771E-02  0.1171266E+00
          1   -1    0    0  502    0 -0.00000000000E+00  0.00000000000E+00  0.20749707315E+03  0.20749707315E+03  0.00000000000E+00 0. -1.
         21   -1    0    0  501  502  0.00000000000E+00 -0.00000000000E+00 -0.66762371693E+03  0.66762371693E+03  0.00000000000E+00 0. -1.
         23    2    1    2    0    0 -0.22033052935E+02 -0.56359752210E+02 -0.26407731122E+02  0.11051487595E+03  0.88624446137E+02 0.  0.
         23    2    1    2    0    0  0.97292578960E+02  0.22106859321E+03  0.36462849538E+02  0.26075684142E+03  0.91254710160E+02 0.  0.
        -13    1    4    4    0    0  0.99070887848E+02  0.17219168425E+03  0.58528490305E+02  0.20710046142E+03  0.00000000000E+00 0. -1.
         13    1    4    4    0    0 -0.17783088880E+01  0.48876908961E+02 -0.22065640767E+02  0.53656379998E+02  0.00000000000E+00 0.  1.
        -13    1    3    3    0    0 -0.55358031979E+02 -0.30543966254E+02 -0.55109804590E+01  0.63465080830E+02  0.00000000000E+00 0. -1.
         13    1    3    3    0    0  0.33324979044E+02 -0.25815785956E+02 -0.20896750663E+02  0.47049795123E+02  0.00000000000E+00 0.  1.
          1    1    1    2  501    0 -0.75259526025E+02 -0.16470884100E+03 -0.47018176219E+03  0.50384907270E+03  0.00000000000E+00 0. -1.
<scales pt_clust_5="13000.00000" pt_clust_6="13000.00000" pt_clust_7="13000.00000" pt_clust_8="13000.00000" pt_clust_9="187.23622"></scales>
<clustering>
<clus scale="   88.624">  7  8 -1 -1</clus>
<clus scale="   91.255">  5  6 -1 -1</clus>
<clus scale="  107.313">  1  7  2 -1</clus>
<clus scale="  187.236">  2  9  1 -1</clus>
<clus scale="  187.236">  2  5  1 -1</clus>
</clustering>
</event>
<event>
 9    1  0.1671478E-005  0.1245938E+03  0.7546771E-02  0.1237175E+00
         21   -1    0    0  501  502  0.00000000000E+00  0.00000000000E+00  0.30464652079E+02  0.30464652079E+02  0.00000000000E+00 0. -1.
          1   -1    0    0  502    0 -0.00000000000E+00 -0.00000000000E+00 -0.11027074216E+04  0.11027074216E+04  0.00000000000E+00 0. -1.
         23    2    1    2    0    0 -0.57972378279E+02  0.79309290797E+01 -0.40061358921E+03  0.41492127832E+03  0.90800457402E+02 0.  0.
         23    2    1    2    0    0  0.88124972393E+02 -0.71287418679E+02 -0.59969529034E+03  0.61776344177E+03  0.95652087870E+02 0.  0.
        -11    1    4    4    0    0  0.84191652535E+02 -0.26712684120E+02 -0.50925680488E+03  0.51686003440E+03  0.00000000000E+00 0.  1.
         11    1    4    4    0    0  0.39333198587E+01 -0.44574734558E+02 -0.90438485463E+02  0.10090340737E+03  0.00000000000E+00 0. -1.
        -11    1    3    3    0    0  0.18213574211E+02  0.22575486196E+02 -0.14151306553E+03  0.14445530304E+03  0.00000000000E+00 0.  1.
         11    1    3    3    0    0 -0.76185952490E+02 -0.14644557116E+02 -0.25910052368E+03  0.27046597528E+03  0.00000000000E+00 0. -1.
          1    1    1    2  501    0 -0.30152594114E+02  0.63356489599E+02 -0.71933890007E+02  0.10048735362E+03  0.00000000000E+00 0. -1.
<scales pt_clust_5="13000.00000" pt_clust_6="13000.00000" pt_clust_7="13000.00000" pt_clust_8="13000.00000" pt_clust_9="70.16569"></scales>
<clustering>
<clus scale="   70.166">  1  9  2 -1</clus>
<clus scale="   90.800">  7  8 -1 -1</clus>
<clus scale="   95.652">  5  6 -1 -1</clus>
<clus scale="  120.909">  2  7  1 -1</clus>
<clus scale="   70.166">  1  5  2 -1</clus>
</clustering>
</event>
<event>
 9    1  0.1671478E-005  0.1539423E+03  0.7546771E-02  0.1196261E+00
         21   -1    0    0  501  502  0.00000000000E+00  0.00000000000E+00  0.20073818169E+03  0.20073818169E+03  0.00000000000E+00 0.  1.
         -3   -1    0    0    0  501 -0.00000000000E+00 -0.00000000000E+00 -0.43380634585E+03  0.43380634585E+03  0.00000000000E+00 0.  1.
         23    2    1    2    0    0 -0.11747707756E+03  0.40805794023E+02 -0.33667541593E+03  0.37051512206E+03  0.92006213935E+02 0.  0.
         23    2    1    2    0    0  0.10572354448E+03 -0.58715267897E+02 -0.80795153497E+01  0.15030680991E+03  0.88892676837E+02 0.  0.
        -11    1    4    4    0    0  0.18234885104E+02  0.23460765486E+02  0.24571597658E+01  0.29815368286E+02  0.00000000000E+00 0.  1.
         11    1    4    4    0    0  0.87488659380E+02 -0.82176033383E+02 -0.10536675115E+02  0.12049144163E+03  0.00000000000E+00 0. -1.
        -11    1    3    3    0    0 -0.10555289556E+03  0.63794419024E+02 -0.23270645739E+03  0.26336939262E+03  0.00000000000E+00 0.  1.
         11    1    3    3    0    0 -0.11924182001E+02 -0.22988625002E+02 -0.10396895854E+03  0.10714572944E+03  0.00000000000E+00 0. -1.
         -3    1    1    2    0  502  0.11753533072E+02  0.17909473874E+02  0.11168676712E+03  0.11372259557E+03  0.00000000000E+00 0.  1.
<scales pt_clust_5="13000.00000" pt_clust_6="13000.00000" pt_clust_7="13000.00000" pt_clust_8="13000.00000" pt_clust_9="21.42183"></scales>
<clustering>
<clus scale="   21.422">  1  9  2 -1</clus>
<clus scale="   88.893">  5  6 -1 -1</clus>
<clus scale="   92.006">  7  8 -1 -1</clus>
<clus scale="  152.102">  1  5  2 -1</clus>
<clus scale="   21.422">  1  5  2 -1</clus>
</clustering>
</event>
<event>
 9    1  0.1671478E-005  0.2162736E+03  0.7546771E-02  0.1136849E+00
          1   -1    0    0  502    0 -0.00000000000E+00  0.00000000000E+00  0.91150864751E+03  0.91150864751E+03  0.00000000000E+00 0. -1.
         21   -1    0    0  501  502  0.00000000000E+00 -0.00000000000E+00 -0.18356122014E+03  0.18356122014E+03  0.00000000000E+00 0. -1.
         23    2    1    2    0    0  0.17532103345E+03  0.87969579253E+02  0.63673667571E+03  0.67258640041E+03  0.91993261541E+02 0.  0.
         23    2    1    2    0    0 -0.18285204157E+03 -0.68991873274E+02  0.21076117042E+03  0.30120209179E+03  0.90042664658E+02 0.  0.
        -13    1    4    4    0    0 -0.15502665895E+03 -0.25378091965E+02  0.18713252765E+03  0.24432743490E+03  0.00000000000E+00 0.  1.
         13    1    4    4    0    0 -0.27825382620E+02 -0.43613781308E+02  0.23628642766E+02  0.56874656895E+02  0.00000000000E+00 0. -1.
        -13    1    3    3    0    0  0.17811512800E+03  0.67232233399E+02  0.51496860806E+03  0.54903355027E+03  0.00000000000E+00 0. -1.
         13    1    3    3    0    0 -0.27940945556E+01  0.20737345853E+02  0.12176806765E+03  0.12355285014E+03  0.00000000000E+00 0.  1.
          1    1    1    2  501    0  0.75310081294E+01 -0.18977705979E+02 -0.11955041876E+03  0.12128137546E+03  0.00000000000E+00 0. -1.
<scales pt_clust_5="13000.00000" pt_clust_6="13000.00000" pt_clust_7="13000.00000" pt_clust_8="13000.00000" pt_clust_9="20.41738"></scales>
<clustering>
<clus scale="   20.417">  2  9  1 -1</clus>
<clus scale="   90.043">  5  6 -1 -1</clus>
<clus scale="   91.993">  7  8 -1 -1</clus>
<clus scale="  215.451">  2  5  1 -1</clus>
<clus scale="   20.417">  2  5  1 -1</clus>
</clustering>
</event>
<event>
 9    1  0.1671478E-005  0.1231951E+03  0.7546771E-02  0.1239562E+00
         21   -1    0    0  501  502  0.00000000000E+00  0.00000000000E+00  0.20985829203E+03  0.20985829203E+03  0.00000000000E+00 0. -1.
          3   -1    0    0  502    0 -0.00000000000E+00 -0.00000000000E+00 -0.29301362603E+03  0.29301362603E+03  0.00000000000E+00 0. -1.
         23    2    1    2    0    0  0.73582127847E+02  0.21632692476E+02 -0.20965824434E+03  0.24102549849E+03  0.90853775842E+02 0.  0.
         23    2    1    2    0    0 -0.12500642513E+03 -0.68225819781E+01  0.34410512050E+02  0.15533441297E+03  0.85273340302E+02 0.  0.
        -11    1    4    4    0    0 -0.80625833036E+02  0.34668338871E+02  0.51866405340E+01  0.87916550847E+02  0.00000000000E+00 0.  1.
         11    1    4    4    0    0 -0.44380592094E+02 -0.41490920849E+02  0.29223871516E+02  0.67417862128E+02  0.00000000000E+00 0. -1.
        -11    1    3    3    0    0  0.11046981479E+02 -0.33328748523E+02 -0.52169524836E+02  0.62884820104E+02  0.00000000000E+00 0.  1.
         11    1    3    3    0    0  0.62535146368E+02  0.54961440999E+02 -0.15748871950E+03  0.17814067839E+03  0.00000000000E+00 0. -1.
          3    1    1    2  501    0  0.51424297282E+02 -0.14810110498E+02  0.92092398290E+02  0.10651200659E+03  0.00000000000E+00 0. -1.
<scales pt_clust_5="13000.00000" pt_clust_6="13000.00000" pt_clust_7="13000.00000" pt_clust_8="13000.00000" pt_clust_9="53.51446"></scales>
<clustering>
<clus scale="   53.514">  1  9  2 -1</clus>
<clus scale="   85.273">  5  6 -1 -1</clus>
<clus scale="   90.854">  7  8 -1 -1</clus>
<clus scale="  119.139">  1  5  2 -1</clus>
<clus scale="   53.514">  1  5  2 -1</clus>
</clustering>
</event>
<event>
 9    1  0.1671478E-005  0.1116912E+03  0.7546771E-02  0.1258399E+00
          4   -1    0    0  502    0 -0.00000000000E+00  0.00000000000E+00  0.63861399340E+02  0.63861399340E+02  0.00000000000E+00 0. -1.
         21   -1    0    0  501  502  0.00000000000E+00 -0.00000000000E+00 -0.54869995106E+03  0.54869995106E+03  0.00000000000E+00 0. -1.
         23    2    1    2    0    0  0.44721727554E+02 -0.93893611901E+01 -0.56863268788E+02  0.11795882755E+03  0.92696605336E+02 0.  0.
         23    2    1    2    0    0 -0.66834840653E+02  0.83218389163E+02 -0.14531576842E+03  0.20162450954E+03  0.90241753496E+02 0.  0.
        -13    1    4    4    0    0 -0.13451639959E+02  0.46191760701E+02 -0.67462824952E+01  0.48581248458E+02  0.00000000000E+00 0.  1.
         13    1    4    4    0    0 -0.53383200694E+02  0.37026628462E+02 -0.13856948593E+03  0.15304326108E+03  0.00000000000E+00 0. -1.
        -13    1    3    3    0    0 -0.22283797517E+02 -0.18571538174E+02 -0.37884129858E+02  0.47714536119E+02  0.00000000000E+00 0. -1.
         13    1    3    3    0    0  0.67005525071E+02  0.91821769836E+01 -0.18979138930E+02  0.70244291432E+02  0.00000000000E+00 0.  1.
          4    1    1    2  501    0  0.22113113099E+02 -0.73829027973E+02 -0.28265951451E+03  0.29297801331E+03  0.00000000000E+00 0. -1.
<scales pt_clust_5="13000.00000" pt_clust_6="13000.00000" pt_clust_7="13000.00000" pt_clust_8="13000.00000" pt_clust_9="77.06955"></scales>
<clustering>
<clus scale="   77.070">  2  9  1 -1</clus>
<clus scale="   90.242">  5  6 -1 -1</clus>
<clus scale="   92.697">  7  8 -1 -1</clus>
<clus scale="  109.662">  2  5  1 -1</clus>
<clus scale="   77.070">  2  5  1 -1</clus>
</clustering>
</event>
<event>
 9    1  0.1671478E-005  0.9987598E+02  0.7546771E-02  0.1281707E+00
          2   -1    0    0  502    0 -0.00000000000E+00  0.00000000000E+00  0.58409815600E+03  0.58409815600E+03  0.00000000000E+00 0. -1.
         21   -1    0    0  501  502  0.00000000000E+00 -0.00000000000E+00 -0.75166153923E+02  0.75166153923E+02  0.00000000000E+00 0. -1.
         23    2    1    2    0    0 -0.30092599159E+02  0.19960640218E+02  0.33407050513E+03  0.34739720755E+03  0.88191415318E+02 0.  0.
         23    2    1    2    0    0  0.38485678389E+01 -0.70842003405E+02  0.21368714320E+03  0.24269273497E+03  0.90576859710E+02 0.  0.
        -11    1    3    3    0    0 -0.50742608331E+02 -0.40867309076E+01  0.28105993534E+03  0.28563298291E+03  0.00000000000E+00 0.  1.
         11    1    3    3    0    0  0.20650009172E+02  0.24047371126E+02  0.53010569784E+02  0.61764224643E+02  0.00000000000E+00 0. -1.
        -13    1    4    4    0    0 -0.37559261855E+02 -0.53273207570E+02  0.90343277371E+02  0.11140305455E+03  0.00000000000E+00 0.  1.
         13    1    4    4    0    0  0.41407829694E+02 -0.17568795835E+02  0.12334386583E+03  0.13128968042E+03  0.00000000000E+00 0. -1.
          2    1    1    2  501    0  0.26244031320E+02  0.50881363187E+02 -0.38825646249E+02  0.69174367408E+02  0.00000000000E+00 0. -1.
<scales pt_clust_5="13000.00000" pt_clust_6="13000.00000" pt_clust_7="13000.00000" pt_clust_8="13000.00000" pt_clust_9="57.25087"></scales>
<clustering>
<clus scale="   57.251">  2  9  1 -1</clus>
<clus scale="   88.191">  5  6 -1 -1</clus>
<clus scale="   90.577">  7  8 -1 -1</clus>
<clus scale="   97.718">  1  5  2 -1</clus>
<clus scale="   57.251">  2  5  1 -1</clus>
</clustering>
</event>
<event>
 9    1  0.1671478E-005  0.1599563E+03  0.7546771E-02  0.1204533E+00
          1   -1    0    0  502    0 -0.00000000000E+00  0.00000000000E+00  0.74395116106E+02  0.74395116106E+02  0.00000000000E+00 0. -1.
         21   -1    0    0  501  502  0.00000000000E+00 -0.00000000000E+00 -0.11830900300E+04  0.11830900300E+04  0.00000000000E+00 0. -1.
         23    2    1    2    0    0  0.64411497215E+02  0.17032754137E+02 -0.18113394817E+03  0.21365006590E+03  0.91639990135E+02 0.  0.
         23    2    1    2    0    0 -0.61343463351E+02  0.11714786656E+03 -0.67349183074E+02  0.17321566691E+03  0.89337067704E+02 0.  0.
        -11    1    4    4    0    0 -0.51885330948E+01  0.50697117927E+02 -0.69507762965E+02  0.86188443275E+02  0.00000000000E+00 0.  1.
         11    1    4    4    0    0 -0.56154930256E+02  0.66450748636E+02  0.21585798908E+01  0.87027223634E+02  0.00000000000E+00 0. -1.
        -13    1    3    3    0    0  0.38019421588E+02  0.54260569627E+02 -0.90317962502E+02  0.11201348216E+03  0.00000000000E+00 0. -1.
         13    1    3    3    0    0  0.26392075627E+02 -0.37227815491E+02 -0.90815985666E+02  0.10163658374E+03  0.00000000000E+00 0.  1.
          1    1    1    2  501    0 -0.30680338641E+01 -0.13418062070E+03 -0.86021178270E+03  0.87061941335E+03  0.00000000000E+00 0. -1.
<scales pt_clust_5="13000.00000" pt_clust_6="13000.00000" pt_clust_7="13000.00000" pt_clust_8="13000.00000" pt_clust_9="132.68345"></scales>
<clustering>
<clus scale="   89.337">  5  6 -1 -1</clus>
<clus scale="   91.640">  7  8 -1 -1</clus>
<clus scale="  113.300">  1  7  2 -1</clus>
<clus scale="  132.683">  2  9  1 -1</clus>
<clus scale="  132.683">  2  5  1 -1</clus>
</clustering>
</event>
<event>
 9    1  0.1671478E-005  0.1229907E+03  0.7546771E-02  0.1238438E+00
          2   -1    0    0  502    0 -0.00000000000E+00  0.00000000000E+00  0.43835628283E+03  0.43835628283E+03  0.00000000000E+00 0. -1.
         21   -1    0    0  501  502  0.00000000000E+00 -0.00000000000E+00 -0.14165209263E+03  0.14165209263E+03  0.00000000000E+00 0.  1.
         23    2    1    2    0    0 -0.17436572290E+02  0.79784345246E+02  0.38105192783E+03  0.40034095097E+03  0.91666403431E+02 0.  0.
         23    2    1    2    0    0  0.39074368185E+02 -0.78239332547E+02 -0.43660144049E+02  0.13355818956E+03  0.91013089240E+02 0.  0.
        -11    1    4    4    0    0  0.38114522371E+02 -0.28261427118E+02 -0.63932683883E+02  0.79616663750E+02  0.00000000000E+00 0.  1.
         11    1    4    4    0    0  0.95984581424E+00 -0.49977905429E+02  0.20272539834E+02  0.53941525807E+02  0.00000000000E+00 0. -1.
        -13    1    3    3    0    0  0.13374183097E+02  0.86206044694E+02  0.31968250111E+03  0.33137177374E+03  0.00000000000E+00 0. -1.
         13    1    3    3    0    0 -0.30810755387E+02 -0.64216994482E+01  0.61369426715E+02  0.68969177222E+02  0.00000000000E+00 0.  1.
          2    1    1    2  501    0 -0.21637795894E+02 -0.15450126995E+01 -0.40687593580E+02  0.46109234940E+02  0.00000000000E+00 0. -1.
<scales pt_clust_5="13000.00000" pt_clust_6="13000.00000" pt_clust_7="13000.00000" pt_clust_8="13000.00000" pt_clust_9="21.69289"></scales>
<clustering>
<clus scale="   21.693">  2  9  1 -1</clus>
<clus scale="   91.013">  5  6 -1 -1</clus>
<clus scale="   91.666">  7  8 -1 -1</clus>
<clus scale="  122.505">  2  5  1 -1</clus>
<clus scale="   21.693">  2  5  1 -1</clus>
</clustering>
</event>
<event>
 9    1  0.1671478E-005  0.1819720E+03  0.7546771E-02  0.1167217E+00
         21   -1    0    0  501  502  0.00000000000E+00  0.00000000000E+00  0.87029110222E+02  0.87029110222E+02  0.00000000000E+00 0. -1.
          2   -1    0    0  502    0 -0.00000000000E+00 -0.00000000000E+00 -0.68014210045E+03  0.68014210045E+03  0.00000000000E+00 0. -1.
         23    2    1    2    0    0 -0.14404537464E+03  0.25178672043E+02 -0.27184450068E+03  0.31842383868E+03  0.78174631487E+02 0.  0.
         23    2    1    2    0    0  0.16545763977E+03 -0.45070439879E+02 -0.35487087777E+03  0.40421325003E+03  0.89707505272E+02 0.  0.
        -11    1    3    3    0    0 -0.13331488102E+03 -0.49903196990E+01 -0.22742320639E+03  0.26366470298E+03  0.00000000000E+00 0. -1.
         11    1    3    3    0    0 -0.10730493614E+02  0.30168991742E+02 -0.44421294285E+02  0.54759135694E+02  0.00000000000E+00 0.  1.
        -11    1    4    4    0    0  0.48947945471E+02 -0.28383763814E+02 -0.21035767933E+03  0.21783455343E+03  0.00000000000E+00 0. -1.
         11    1    4    4    0    0  0.11650969430E+03 -0.16686676066E+02 -0.14451319844E+03  0.18637869660E+03  0.00000000000E+00 0.  1.
          2    1    1    2  501    0 -0.21412265131E+02  0.19891767837E+02  0.33602388215E+02  0.44534121968E+02  0.00000000000E+00 0. -1.
<scales pt_clust_5="13000.00000" pt_clust_6="13000.00000" pt_clust_7="13000.00000" pt_clust_8="13000.00000" pt_clust_9="29.22614"></scales>
<clustering>
<clus scale="   29.226">  1  9  2 -1</clus>
<clus scale="   78.175">  5  6 -1 -1</clus>
<clus scale="   89.708">  7  8 -1 -1</clus>
<clus scale="  176.572">  2  5  1 -1</clus>
<clus scale="   29.226">  1  5  2 -1</clus>
</clustering>
</event>
<event>
 9    1  0.1671478E-005  0.2197216E+03  0.7546771E-02  0.1134166E+00
          1   -1    0    0  502    0 -0.00000000000E+00  0.00000000000E+00  0.15516006139E+04  0.15516006139E+04  0.00000000000E+00 0. -1.
         21   -1    0    0  501  502  0.00000000000E+00 -0.00000000000E+00 -0.43282665642E+02  0.43282665642E+02  0.00000000000E+00 0.  1.
         23    2    1    2    0    0  0.17286784337E+03 -0.51031204399E+02  0.71016443958E+03  0.73828092727E+03  0.90761893087E+02 0.  0.
         23    2    1    2    0    0 -0.21167941375E+03  0.97355787169E+02  0.65355069443E+03  0.69987877761E+03  0.91735869019E+02 0.  0.
        -11    1    3    3    0    0  0.59238085067E+02  0.80282168235E+00  0.10685172641E+03  0.12217645715E+03  0.00000000000E+00 0.  1.
         11    1    3    3    0    0  0.11362975830E+03 -0.51834026081E+02  0.60331271317E+03  0.61610447012E+03  0.00000000000E+00 0. -1.
        -11    1    4    4    0    0 -0.78289970002E+02  0.55271113530E+02  0.15639493189E+03  0.18342189105E+03  0.00000000000E+00 0.  1.
         11    1    4    4    0    0 -0.13338944375E+03  0.42084673639E+02  0.49715576253E+03  0.51645688656E+03  0.00000000000E+00 0. -1.
          1    1    1    2  501    0  0.38811570379E+02 -0.46324582770E+02  0.14460281423E+03  0.15672357464E+03  0.00000000000E+00 0. -1.
<scales pt_clust_5="13000.00000" pt_clust_6="13000.00000" pt_clust_7="13000.00000" pt_clust_8="13000.00000" pt_clust_9="60.43430"></scales>
<clustering>
<clus scale="   60.434">  2  9  1 -1</clus>
<clus scale="   90.762">  5  6 -1 -1</clus>
<clus scale="   91.736">  7  8 -1 -1</clus>
<clus scale="  219.317">  1  5  2 -1</clus>
<clus scale="   60.434">  2  5  1 -1</clus>
</clustering>
</event>
<event>
 9    1  0.1671478E-005  0.9793358E+02  0.7546771E-02  0.1285520E+00
         21   -1    0    0  501  502  0.00000000000E+00  0.00000000000E+00  0.39114640518E+02  0.39114640518E+02  0.00000000000E+00 0.  1.
          2   -1    0    0  502    0 -0.00000000000E+00 -0.00000000000E+00 -0.41623680056E+03  0.41623680056E+03  0.00000000000E+00 0. -1.
         23    2    1    2    0    0  0.29740269572E+02  0.17093984327E+02 -0.24937776441E+03  0.26816367340E+03  0.92443487666E+02 0.  0.
         23    2    1    2    0    0 -0.50253657445E+01 -0.37649024903E+02 -0.69058807780E+02  0.12027488114E+03  0.90852763986E+02 0.  0.
        -11    1    3    3    0    0  0.15944003962E+02  0.52015021551E+02 -0.96868275361E+02  0.11110011927E+03  0.00000000000E+00 0.  1.
         11    1    3    3    0    0  0.13796265610E+02 -0.34921037224E+02 -0.15250948905E+03  0.15706355413E+03  0.00000000000E+00 0. -1.
        -11    1    4    4    0    0 -0.36729816162E+02  0.11212815635E+02 -0.16417633532E+02  0.41765360295E+02  0.00000000000E+00 0.  1.
         11    1    4    4    0    0  0.31704450417E+02 -0.48861840538E+02 -0.52641174248E+02  0.78509520844E+02  0.00000000000E+00 0. -1.
          2    1    1    2  501    0 -0.24714903827E+02  0.20555040576E+02 -0.58685587849E+02  0.66912886542E+02  0.00000000000E+00 0. -1.
<scales pt_clust_5="13000.00000" pt_clust_6="13000.00000" pt_clust_7="13000.00000" pt_clust_8="13000.00000" pt_clust_9="32.14556"></scales>
<clustering>
<clus scale="   32.146">  1  9  2 -1</clus>
<clus scale="   90.853">  7  8 -1 -1</clus>
<clus scale="   92.443">  5  6 -1 -1</clus>
<clus scale="   96.433">  1  7  2 -1</clus>
<clus scale="   32.146">  1  5  2 -1</clus>
</clustering>
</event>
<event>
 9    1  0.1671478E-005  0.1017115E+03  0.7546771E-02  0.1278882E+00
         21   -1    0    0  501  502  0.00000000000E+00  0.00000000000E+00  0.15185506994E+03  0.15185506994E+03  0.00000000000E+00 0.  1.
          2   -1    0    0  502    0 -0.00000000000E+00 -0.00000000000E+00 -0.13560036748E+03  0.13560036748E+03  0.00000000000E+00 0. -1.
         23    2    1    2    0    0 -0.32149221869E+02 -0.34325161754E+02 -0.60251175799E+02  0.11827322877E+03  0.90258314088E+02 0.  0.
         23    2    1    2    0    0  0.52458096498E+02  0.11605978736E+02  0.90469952651E+02  0.13566196045E+03  0.85631796373E+02 0.  0.
        -11    1    4    4    0    0  0.53324923895E+02 -0.20237169307E+02  0.86428309554E+02  0.10355164519E+03  0.00000000000E+00 0. -1.
         11    1    4    4    0    0 -0.86682739608E+00  0.31843148043E+02  0.40416430968E+01  0.32110315257E+02  0.00000000000E+00 0.  1.
        -11    1    3    3    0    0  0.31246409805E+02 -0.13763427930E+02 -0.28378908207E+02  0.44397438047E+02  0.00000000000E+00 0. -1.
         11    1    3    3    0    0 -0.63395631675E+02 -0.20561733824E+02 -0.31872267592E+02  0.73875790722E+02  0.00000000000E+00 0.  1.
          2    1    1    2  501    0 -0.20308874629E+02  0.22719183018E+02 -0.13964074388E+02  0.33520248198E+02  0.00000000000E+00 0. -1.
<scales pt_clust_5="13000.00000" pt_clust_6="13000.00000" pt_clust_7="13000.00000" pt_clust_8="13000.00000" pt_clust_9="30.47315"></scales>
<clustering>
<clus scale="   30.473">  1  9  2 -1</clus>
<clus scale="   85.632">  5  6 -1 -1</clus>
<clus scale="   90.258">  7  8 -1 -1</clus>
<clus scale="   97.629">  1  5  2 -1</clus>
<clus scale="   30.473">  1  5  2 -1</clus>
</clustering>
</event>
<event>
 9    1  0.1671478E-005  0.9810042E+02  0.7546771E-02  0.1287872E+00
         21   -1    0    0  501  502  0.00000000000E+00  0.00000000000E+00  0.90469650058E+02  0.90469650058E+02  0.00000000000E+00 0.  1.
          2   -1    0    0  502    0 -0.00000000000E+00 -0.00000000000E+00 -0.20430436961E+03  0.20430436961E+03  0.00000000000E+00 0. -1.
         23    2    1    2    0    0 -0.33656273054E+02  0.18481914396E+02 -0.14627669943E+03  0.17316703799E+03  0.84354160396E+02 0.  0.
         23    2    1    2    0    0  0.30093726801E+02  0.22843302695E+01  0.24862177610E+02  0.99215419524E+02  0.91185092193E+02 0.  0.
        -13    1    4    4    0    0 -0.31752472568E+02 -0.26549990033E+01 -0.12815061257E+01  0.31889038741E+02  0.00000000000E+00 0. -1.
         13    1    4    4    0    0  0.61846199369E+02  0.49393292728E+01  0.26143683736E+02  0.67326380783E+02  0.00000000000E+00 0.  1.
        -13    1    3    3    0    0 -0.45829284993E+02  0.11308519225E+01 -0.14484146709E+03  0.15192318051E+03  0.00000000000E+00 0. -1.
         13    1    3    3    0    0  0.12173011940E+02  0.17351062473E+02 -0.14352323367E+01  0.21243857477E+02  0.00000000000E+00 0.  1.
          2    1    1    2  501    0  0.35625462523E+01 -0.20766244665E+02  0.75798022640E+01  0.22391562153E+02  0.00000000000E+00 0. -1.
<scales pt_clust_5="13000.00000" pt_clust_6="13000.00000" pt_clust_7="13000.00000" pt_clust_8="13000.00000" pt_clust_9="21.06961"></scales>
<clustering>
<clus scale="   21.070">  1  9  2 -1</clus>
<clus scale="   84.354">  7  8 -1 -1</clus>
<clus scale="   91.185">  5  6 -1 -1</clus>
<clus scale="   91.786">  2  7  1 -1</clus>
<clus scale="   21.070">  1  5  2 -1</clus>
</clustering>
</event>
<event>
 9    1  0.1671478E-005  0.1324295E+03  0.7546771E-02  0.1224979E+00
         21   -1    0    0  501  502  0.00000000000E+00  0.00000000000E+00  0.25219484478E+03  0.25219484478E+03  0.00000000000E+00 0.  1.
         -1   -1    0    0    0  501 -0.00000000000E+00 -0.00000000000E+00 -0.12581767238E+03  0.12581767238E+03  0.00000000000E+00 0.  1.
         23    2    1    2    0    0  0.85322592427E+02  0.14391396929E+02 -0.29305878244E+02  0.13305624632E+03  0.96737134035E+02 0.  0.
         23    2    1    2    0    0 -0.10359430645E+03  0.26336382754E+02  0.98294177190E+02  0.17225076646E+03  0.92645538965E+02 0.  0.
        -13    1    3    3    0    0  0.90702770385E+01  0.43231483317E+02 -0.26441581297E+02  0.51481922039E+02  0.00000000000E+00 0. -1.
         13    1    3    3    0    0  0.76252315389E+02 -0.28840086388E+02 -0.28642969467E+01  0.81574324282E+02  0.00000000000E+00 0.  1.
        -13    1    4    4    0    0 -0.11434874263E+03  0.44705335297E+01  0.92645249175E+02  0.14723709724E+03  0.00000000000E+00 0.  1.
         13    1    4    4    0    0  0.10754436176E+02  0.21865849225E+02  0.56489280147E+01  0.25013669213E+02  0.00000000000E+00 0. -1.
         -1    1    1    2    0  502  0.18271714023E+02 -0.40727779683E+02  0.57388873449E+02  0.72705504379E+02  0.00000000000E+00 0.  1.
<scales pt_clust_5="13000.00000" pt_clust_6="13000.00000" pt_clust_7="13000.00000" pt_clust_8="13000.00000" pt_clust_9="44.63863"></scales>
<clustering>
<clus scale="   44.639">  1  9  2 -1</clus>
<clus scale="   92.646">  7  8 -1 -1</clus>
<clus scale="   96.737">  5  6 -1 -1</clus>
<clus scale="  129.471">  1  7  2 -1</clus>
<clus scale="   44.639">  1  5  2 -1</clus>
</clustering>
</event>
<event>
 9    1  0.1671478E-005  0.1707058E+03  0.7546771E-02  0.1197359E+00
         -1   -1    0    0    0  501 -0.00000000000E+00  0.00000000000E+00  0.11300673789E+04  0.11300673789E+04  0.00000000000E+00 0.  1.
         21   -1    0    0  501  502  0.00000000000E+00 -0.00000000000E+00 -0.53353042285E+02  0.53353042285E+02  0.00000000000E+00 0.  1.
         23    2    1    2    0    0 -0.38995513547E+02 -0.50322789984E+02  0.17300724971E+03  0.20443021939E+03  0.88358207777E+02 0.  0.
         23    2    1    2    0    0 -0.36481171581E+02  0.16670406450E+03  0.73697850179E+03  0.76210370579E+03  0.92431733049E+02 0.  0.
        -11    1    4    4    0    0  0.17473821082E+02  0.11747977316E+03  0.51074581729E+03  0.52437402815E+03  0.00000000000E+00 0.  1.
         11    1    4    4    0    0 -0.53954992663E+02  0.49224291341E+02  0.22623268451E+03  0.23772967764E+03  0.00000000000E+00 0. -1.
        -13    1    3    3    0    0 -0.40730604400E+02 -0.36404247863E+01  0.22151797098E+02  0.46507385888E+02  0.00000000000E+00 0.  1.
         13    1    3    3    0    0  0.17350908530E+01 -0.46682365197E+02  0.15085545261E+03  0.15792283350E+03  0.00000000000E+00 0. -1.
         -1    1    1    2    0  502  0.75476685128E+02 -0.11638127451E+03  0.16672858514E+03  0.21688649602E+03  0.00000000000E+00 0.  1.
<scales pt_clust_5="13000.00000" pt_clust_6="13000.00000" pt_clust_7="13000.00000" pt_clust_8="13000.00000" pt_clust_9="143.51603"></scales>
<clustering>
<clus scale="   88.358">  7  8 -1 -1</clus>
<clus scale="   92.432">  5  6 -1 -1</clus>
<clus scale="  108.905">  1  7  2 -1</clus>
<clus scale="  143.516">  2  9  1 -1</clus>
<clus scale="  143.516">  2  5  1 -1</clus>
</clustering>
</event>
<event>
 9    1  0.1671478E-005  0.2070029E+03  0.7546771E-02  0.1144406E+00
         21   -1    0    0  501  502  0.00000000000E+00  0.00000000000E+00  0.33639875047E+03  0.33639875047E+03  0.00000000000E+00 0. -1.
         -4   -1    0    0    0  501 -0.00000000000E+00 -0.00000000000E+00 -0.18845745905E+03  0.18845745905E+03  0.00000000000E+00 0.  1.
         23    2    1    2    0    0 -0.66890789130E+02 -0.19973442854E+03  0.10666323886E+02  0.23167810032E+03  0.95878840689E+02 0.  0.
         23    2    1    2    0    0  0.24810199460E+02  0.15544297232E+03  0.53619351078E+02  0.18958867302E+03  0.91053646206E+02 0.  0.
        -11    1    3    3    0    0  0.24843836871E+02 -0.46131195775E+02 -0.77662122806E+00  0.52401398785E+02  0.00000000000E+00 0.  1.
         11    1    3    3    0    0 -0.91734626000E+02 -0.15360323276E+03  0.11442945114E+02  0.17927670154E+03  0.00000000000E+00 0. -1.
        -11    1    4    4    0    0  0.41366681429E+02  0.25812663768E+02  0.28611153234E+02  0.56534007753E+02  0.00000000000E+00 0. -1.
         11    1    4    4    0    0 -0.16556481970E+02  0.12963030855E+03  0.25008197844E+02  0.13305466527E+03  0.00000000000E+00 0.  1.
         -4    1    1    2    0  502  0.42080589670E+02  0.44291456215E+02  0.83655616457E+02  0.10358943617E+03  0.00000000000E+00 0.  1.
<scales pt_clust_5="13000.00000" pt_clust_6="13000.00000" pt_clust_7="13000.00000" pt_clust_8="13000.00000" pt_clust_9="61.09426"></scales>
<clustering>
<clus scale="   61.094">  1  9  2 -1</clus>
<clus scale="   91.054">  7  8 -1 -1</clus>
<clus scale="   95.879">  5  6 -1 -1</clus>
<clus scale="  204.813">  1  7  2 -1</clus>
<clus scale="   61.094">  1  5  2 -1</clus>
</clustering>
</event>
<event>
 9    1  0.1671478E-005  0.1217195E+03  0.7546771E-02  0.1240508E+00
         21   -1    0    0  501  502  0.00000000000E+00  0.00000000000E+00  0.11483141761E+03  0.11483141761E+03  0.00000000000E+00 0. -1.
         -3   -1    0    0    0  501 -0.00000000000E+00 -0.00000000000E+00 -0.25790398279E+03  0.25790398279E+03  0.00000000000E+00 0.  1.
         23    2    1    2    0    0  0.49798617434E+01  0.86100117114E+02 -0.17477770304E+03  0.21552794779E+03  0.92016420339E+02 0.  0.
         23    2    1    2    0    0 -0.29991712170E+02 -0.50286843723E+02  0.28999312526E+02  0.11344097338E+03  0.92734162332E+02 0.  0.
        -13    1    3    3    0    0 -0.90737693452E+01  0.41380714908E+02 -0.16127497730E+03  0.16674625981E+03  0.00000000000E+00 0.  1.
         13    1    3    3    0    0  0.14053631089E+02  0.44719402207E+02 -0.13502725734E+02  0.48781687986E+02  0.00000000000E+00 0. -1.
        -13    1    4    4    0    0  0.14012311795E+02  0.17958302879E+02  0.22439307503E+02  0.31974490541E+02  0.00000000000E+00 0.  1.
         13    1    4    4    0    0 -0.44004023965E+02 -0.68245146602E+02  0.65600050225E+01  0.81466482837E+02  0.00000000000E+00 0. -1.
         -3    1    1    2    0  502  0.25011850427E+02 -0.35813273391E+02  0.27058253297E+01  0.43766479222E+02  0.00000000000E+00 0.  1.
<scales pt_clust_5="13000.00000" pt_clust_6="13000.00000" pt_clust_7="13000.00000" pt_clust_8="13000.00000" pt_clust_9="43.68276"></scales>
<clustering>
<clus scale="   43.683">  1  9  2 -1</clus>
<clus scale="   92.016">  5  6 -1 -1</clus>
<clus scale="   92.734">  7  8 -1 -1</clus>
<clus scale="  121.174">  2  5  1 -1</clus>
<clus scale="   43.683">  1  5  2 -1</clus>
</clustering>
</event>
<event>
 9    1  0.1671478E-005  0.1249896E+03  0.7546771E-02  0.1235110E+00
          2   -1    0    0  502    0 -0.00000000000E+00  0.00000000000E+00  0.33376515544E+03  0.33376515544E+03  0.00000000000E+00 0. -1.
         21   -1    0    0  501  502  0.00000000000E+00 -0.00000000000E+00 -0.10320886052E+03  0.10320886052E+03  0.00000000000E+00 0. -1.
         23    2    1    2    0    0 -0.59252572839E+02  0.11168701850E+03  0.11449387687E+03  0.19295471050E+03  0.90209838549E+02 0.  0.
         23    2    1    2    0    0  0.48685899998E+02 -0.16553394165E+02  0.15028004851E+02  0.10484310884E+03  0.90121611308E+02 0.  0.
        -11    1    3    3    0    0 -0.78451028295E+02  0.58128846750E+02  0.62871901604E+02  0.11613097208E+03  0.00000000000E+00 0. -1.
         11    1    3    3    0    0  0.19198455457E+02  0.53558171754E+02  0.51621975267E+02  0.76823738415E+02  0.00000000000E+00 0.  1.
        -11    1    4    4    0    0  0.14532097002E+02 -0.42055459231E+02  0.36096833737E+02  0.57295941394E+02  0.00000000000E+00 0.  1.
         11    1    4    4    0    0  0.34153802996E+02  0.25502065065E+02 -0.21068828885E+02  0.47547167448E+02  0.00000000000E+00 0. -1.
          2    1    1    2  501    0  0.10566672841E+02 -0.95133624339E+02  0.10103441321E+03  0.13917619662E+03  0.00000000000E+00 0. -1.
<scales pt_clust_5="13000.00000" pt_clust_6="13000.00000" pt_clust_7="13000.00000" pt_clust_8="13000.00000" pt_clust_9="95.71870"></scales>
<clustering>
<clus scale="   90.122">  7  8 -1 -1</clus>
<clus scale="   90.210">  5  6 -1 -1</clus>
<clus scale="   95.719">  2  9  1 -1</clus>
<clus scale="  124.926">  2  7  1 -1</clus>
<clus scale="   95.719">  2  5  1 -1</clus>
</clustering>
</event>
<event>
 9    1  0.1671478E-005  0.1511459E+03  0.7546771E-02  0.1202021E+00
         21   -1    0    0  501  502  0.00000000000E+00  0.00000000000E+00  0.90451726243E+02  0.90451726243E+02  0.00000000000E+00 0.  1.
          1   -1    0    0  502    0 -0.00000000000E+00 -0.00000000000E+00 -0.96012463368E+03  0.96012463368E+03  0.00000000000E+00 0. -1.
         23    2    1    2    0    0  0.75749207588E+02  0.83387714393E+02 -0.87348945548E+03  0.88684541424E+03  0.10401685710E+03 0.  0.
         23    2    1    2    0    0 -0.60446827687E+02 -0.61603376732E+02 -0.22142525301E+02  0.12654770097E+03  0.89862306851E+02 0.  0.
        -13    1    4    4    0    0 -0.47945000563E+02 -0.81538360828E+02 -0.52036865709E+00  0.94591216025E+02  0.00000000000E+00 0.  1.
         13    1    4    4    0    0 -0.12501827124E+02  0.19934984095E+02 -0.21622156644E+02  0.31956484949E+02  0.00000000000E+00 0. -1.
        -13    1    3    3    0    0  0.10029533606E+03  0.80495170867E+02 -0.72817172662E+03  0.73944079574E+03  0.00000000000E+00 0. -1.
         13    1    3    3    0    0 -0.24546128476E+02  0.28925435259E+01 -0.14531772886E+03  0.14740461849E+03  0.00000000000E+00 0.  1.
          1    1    1    2  501    0 -0.15302379901E+02 -0.21784337661E+02  0.25959073348E+02  0.37183244708E+02  0.00000000000E+00 0. -1.
<scales pt_clust_5="13000.00000" pt_clust_6="13000.00000" pt_clust_7="13000.00000" pt_clust_8="13000.00000" pt_clust_9="26.62180"></scales>
<clustering>
<clus scale="   26.622">  1  9  2 -1</clus>
<clus scale="   89.862">  5  6 -1 -1</clus>
<clus scale="  104.017">  7  8 -1 -1</clus>
<clus scale="  141.777">  1  5  2 -1</clus>
<clus scale="   26.622">  1  5  2 -1</clus>
</clustering>
</event>
<event>
 9    1  0.1671478E-005  0.1238949E+03  0.7546771E-02  0.1236923E+00
         21   -1    0    0  501  502  0.00000000000E+00  0.00000000000E+00  0.16397394689E+03  0.16397394689E+03  0.00000000000E+00 0.  1.
          1   -1    0    0  502    0 -0.00000000000E+00 -0.00000000000E+00 -0.14404027199E+03  0.14404027199E+03  0.00000000000E+00 0. -1.
         23    2    1    2    0    0  0.72935912505E+02  0.24611630335E+02  0.10936311270E+01  0.11849151425E+03  0.90075874908E+02 0.  0.
         23    2    1    2    0    0 -0.97211157495E+02  0.19368509017E+02 -0.41608160344E+01  0.13427254871E+03  0.90480145133E+02 0.  0.
        -11    1    4    4    0    0 -0.84165740200E+02  0.38994428136E+02  0.25679307602E+02  0.96248969283E+02  0.00000000000E+00 0.  1.
         11    1    4    4    0    0 -0.13045417295E+02 -0.19625919118E+02 -0.29840123636E+02  0.38023579425E+02  0.00000000000E+00 0. -1.
        -13    1    3    3    0    0  0.66064924415E+02  0.50108048275E+02  0.20866195393E+02  0.85503151112E+02  0.00000000000E+00 0.  1.
         13    1    3    3    0    0  0.68709880900E+01 -0.25496417941E+02 -0.19772564266E+02  0.32988363142E+02  0.00000000000E+00 0. -1.
          1    1    1    2  501    0  0.24275244990E+02 -0.43980139352E+02  0.23000859807E+02  0.55250155915E+02  0.00000000000E+00 0. -1.
<scales pt_clust_5="13000.00000" pt_clust_6="13000.00000" pt_clust_7="13000.00000" pt_clust_8="13000.00000" pt_clust_9="50.23485"></scales>
<clustering>
<clus scale="   50.235">  1  9  2 -1</clus>
<clus scale="   90.076">  7  8 -1 -1</clus>
<clus scale="   90.480">  5  6 -1 -1</clus>
<clus scale="  123.600">  2  7  1 -1</clus>
<clus scale="   50.235">  1  5  2 -1</clus>
</clustering>
</event>
<event>
 9    1  0.1671478E-005  0.1129449E+03  0.7546771E-02  0.1259431E+00
          1   -1    0    0  502    0 -0.00000000000E+00  0.00000000000E+00  0.19845184891E+02  0.19845184891E+02  0.00000000000E+00 0. -1.
         21   -1    0    0  501  502  0.00000000000E+00 -0.00000000000E+00 -0.74214369645E+03  0.74214369645E+03  0.00000000000E+00 0.  1.
         23    2    1    2    0    0  0.41890202647E+02 -0.50096904048E+02 -0.29637353065E+03  0.31600850423E+03  0.88088683739E+02 0.  0.
         23    2    1    2    0    0 -0.33318631840E+02  0.27633120650E+02 -0.36255351272E+03  0.37820105600E+03  0.98576206992E+02 0.  0.
        -11    1    3    3    0    0  0.64541571029E+02 -0.32746421330E+02 -0.25939110191E+03  0.26929850770E+03  0.00000000000E+00 0.  1.
         11    1    3    3    0    0 -0.22651368383E+02 -0.17350482718E+02 -0.36982428745E+02  0.46709996532E+02  0.00000000000E+00 0. -1.
        -11    1    4    4    0    0 -0.58291689649E+02  0.33697582510E+02 -0.32962410369E+03  0.33643052460E+03  0.00000000000E+00 0. -1.
         11    1    4    4    0    0  0.24973057808E+02 -0.60644618598E+01 -0.32929409033E+02  0.41770531397E+02  0.00000000000E+00 0.  1.
          1    1    1    2  501    0 -0.85715708065E+01  0.22463783398E+02 -0.63371468182E+02  0.67779321111E+02  0.00000000000E+00 0. -1.
<scales pt_clust_5="13000.00000" pt_clust_6="13000.00000" pt_clust_7="13000.00000" pt_clust_8="13000.00000" pt_clust_9="24.04358"></scales>
<clustering>
<clus scale="   24.044">  2  9  1 -1</clus>
<clus scale="   88.089">  5  6 -1 -1</clus>
<clus scale="   98.576">  7  8 -1 -1</clus>
<clus scale="  103.918">  1  5  2 -1</clus>
<clus scale="   24.044">  2  5  1 -1</clus>
</clustering>
</event>
<event>
 9    1  0.1671478E-005  0.1032339E+03  0.7546771E-02  0.1275345E+00
         -1   -1    0    0    0  501 -0.00000000000E+00  0.00000000000E+00  0.74200316839E+02  0.74200316839E+02  0.00000000000E+00 0.  1.
         21   -1    0    0  501  502  0.00000000000E+00 -0.00000000000E+00 -0.24674359621E+03  0.24674359621E+03  0.00000000000E+00 0. -1.
         23    2    1    2    0    0 -0.20424316987E+02  0.40356868267E+02 -0.19484741952E+01  0.10364858353E+03  0.93238418985E+02 0.  0.
         23    2    1    2    0    0 -0.81458877293E+00 -0.45985006947E+02 -0.94419127799E+02  0.13801417863E+03  0.89541372502E+02 0.  0.
        -11    1    3    3    0    0  0.14649477737E+02  0.61123272091E+02 -0.20583106103E+01  0.62887981616E+02  0.00000000000E+00 0.  1.
         11    1    3    3    0    0 -0.35073794724E+02 -0.20766403825E+02  0.10983641510E+00  0.40760601912E+02  0.00000000000E+00 0. -1.
        -11    1    4    4    0    0  0.40350495188E+01 -0.26146677935E+02 -0.10948483698E+03  0.11263596193E+03  0.00000000000E+00 0. -1.
         11    1    4    4    0    0 -0.48496382918E+01 -0.19838329013E+02  0.15065709182E+02  0.25378216697E+02  0.00000000000E+00 0.  1.
         -1    1    1    2    0  502  0.21238905760E+02  0.56281386805E+01 -0.76175677373E+02  0.79281150888E+02  0.00000000000E+00 0.  1.
<scales pt_clust_5="13000.00000" pt_clust_6="13000.00000" pt_clust_7="13000.00000" pt_clust_8="13000.00000" pt_clust_9="21.97196"></scales>
<clustering>
<clus scale="   21.972">  2  9  1 -1</clus>
<clus scale="   89.541">  7  8 -1 -1</clus>
<clus scale="   93.238">  5  6 -1 -1</clus>
<clus scale="   99.907">  2  7  1 -1</clus>
<clus scale="   21.972">  2  5  1 -1</clus>
</clustering>
</event>
<event>
 9    1  0.1671478E-005  0.9869813E+02  0.7546771E-02  0.1293052E+00
         21   -1    0    0  501  502  0.00000000000E+00  0.00000000000E+00  0.35004917122E+02  0.35004917122E+02  0.00000000000E+00 0.  1.
          2   -1    0    0  502    0 -0.00000000000E+00 -0.00000000000E+00 -0.35602486956E+03  0.35602486956E+03  0.00000000000E+00 0. -1.
         23    2    1    2    0    0  0.31751487323E+02  0.18380859372E+02 -0.17015339235E+03  0.19669320503E+03  0.91597090775E+02 0.  0.
         23    2    1    2    0    0 -0.40789250494E+02  0.90076735901E+01 -0.14031486968E+03  0.16362581690E+03  0.73076974237E+02 0.  0.
        -11    1    3    3    0    0  0.41100203529E+02 -0.17097624285E+02 -0.14632169501E+03  0.15294310680E+03  0.00000000000E+00 0. -1.
         11    1    3    3    0    0 -0.93487162051E+01  0.35478483657E+02 -0.23831697340E+02  0.43750098232E+02  0.00000000000E+00 0.  1.
        -11    1    4    4    0    0 -0.13143132697E+02  0.30116235946E+02 -0.11754736606E+03  0.12205372945E+03  0.00000000000E+00 0.  1.
         11    1    4    4    0    0 -0.27646117796E+02 -0.21108562356E+02 -0.22767503617E+02  0.41572087449E+02  0.00000000000E+00 0. -1.
          2    1    1    2  501    0  0.90377631703E+01 -0.27388532962E+02 -0.10551690404E+02  0.30710764747E+02  0.00000000000E+00 0. -1.
<scales pt_clust_5="13000.00000" pt_clust_6="13000.00000" pt_clust_7="13000.00000" pt_clust_8="13000.00000" pt_clust_9="28.84117"></scales>
<clustering>
<clus scale="   28.841">  1  9  2 -1</clus>
<clus scale="   73.077">  7  8 -1 -1</clus>
<clus scale="   81.802">  1  7  2 -1</clus>
<clus scale="   91.597">  5  6 -1 -1</clus>
<clus scale="   28.841">  1  5  2 -1</clus>
</clustering>
</event>
<event>
 9    1  0.1671478E-005  0.9132194E+02  0.7546771E-02  0.1300016E+00
         21   -1    0    0  501  502  0.00000000000E+00  0.00000000000E+00  0.62990999041E+02  0.62990999041E+02  0.00000000000E+00 0.  1.
          1   -1    0    0  502    0 -0.00000000000E+00 -0.00000000000E+00 -0.29375491793E+03  0.29375491793E+03  0.00000000000E+00 0. -1.
         23    2    1    2    0    0 -0.12820288525E+02  0.12732983779E+02 -0.22184723638E+03  0.23996030853E+03  0.89656370139E+02 0.  0.
         23    2    1    2    0    0 -0.53666878769E+01 -0.22694239138E+02 -0.18525878576E+02  0.93931082249E+02  0.89084287092E+02 0.  0.
        -11    1    4    4    0    0  0.19099935914E+02 -0.42338708977E+02  0.14223395602E+02  0.48576525321E+02  0.00000000000E+00 0. -1.
         11    1    4    4    0    0 -0.24466623791E+02  0.19644469840E+02 -0.32749274178E+02  0.45354556928E+02  0.00000000000E+00 0.  1.
        -13    1    3    3    0    0  0.21787546201E+02  0.34221811020E+02 -0.55798866407E+02  0.68987991791E+02  0.00000000000E+00 0.  1.
         13    1    3    3    0    0 -0.34607834727E+02 -0.21488827241E+02 -0.16604836997E+03  0.17097231674E+03  0.00000000000E+00 0. -1.
          1    1    1    2  501    0  0.18186976402E+02  0.99612553585E+01  0.96091960572E+01  0.22854526200E+02  0.00000000000E+00 0. -1.
<scales pt_clust_5="13000.00000" pt_clust_6="13000.00000" pt_clust_7="13000.00000" pt_clust_8="13000.00000" pt_clust_9="20.73627"></scales>
<clustering>
<clus scale="   20.736">  1  9  2 -1</clus>
<clus scale="   89.084">  5  6 -1 -1</clus>
<clus scale="   89.656">  7  8 -1 -1</clus>
<clus scale="   90.760">  1  5  2 -1</clus>
<clus scale="   20.736">  1  5  2 -1</clus>
</clustering>
</event>
<event>
 9    1  0.1671478E-005  0.1032501E+03  0.7546771E-02  0.1273625E+00
         21   -1    0    0  501  502  0.00000000000E+00  0.00000000000E+00  0.11731528045E+03  0.11731528045E+03  0.00000000000E+00 0.  1.
         -2   -1    0    0    0  501 -0.00000000000E+00 -0.00000000000E+00 -0.27038529120E+03  0.27038529120E+03  0.00000000000E+00 0.  1.
         23    2    1    2    0    0  0.35887009174E+02 -0.23952955644E+02 -0.15937983548E+03  0.18863976716E+03  0.91221753353E+02 0.  0.
         23    2    1    2    0    0 -0.72043236203E+02 -0.74677446525E+01 -0.48558133987E+02  0.12622519469E+03  0.91262874737E+02 0.  0.
        -11    1    4    4    0    0 -0.36174941298E+02  0.38836882095E+01 -0.72858795049E+02  0.81437788698E+02  0.00000000000E+00 0. -1.
         11    1    4    4    0    0 -0.35868294905E+02 -0.11351432862E+02  0.24300661062E+02  0.44787405992E+02  0.00000000000E+00 0.  1.
        -13    1    3    3    0    0  0.49162075228E+02  0.73436972577E+01 -0.14202099623E+03  0.15046861101E+03  0.00000000000E+00 0.  1.
         13    1    3    3    0    0 -0.13275066054E+02 -0.31296652902E+02 -0.17358839255E+02  0.38171156151E+02  0.00000000000E+00 0. -1.
         -2    1    1    2    0  502  0.36156227029E+02  0.31420700297E+02  0.54867958726E+02  0.72835609800E+02  0.00000000000E+00 0.  1.
<scales pt_clust_5="13000.00000" pt_clust_6="13000.00000" pt_clust_7="13000.00000" pt_clust_8="13000.00000" pt_clust_9="47.90129"></scales>
<clustering>
<clus scale="   47.901">  1  9  2 -1</clus>
<clus scale="   91.222">  7  8 -1 -1</clus>
<clus scale="   91.263">  5  6 -1 -1</clus>
<clus scale="  103.214">  2  7  1 -1</clus>
<clus scale="   47.901">  1  5  2 -1</clus>
</clustering>
</event>
<event>
 9    1  0.2432107E-005  0.1066543E+03  0.7546771E-02  0.1267462E+00
         21   -1    0    0  501  502  0.00000000000E+00  0.00000000000E+00  0.23740545797E+03  0.23740545797E+03  0.00000000000E+00 0.  1.
          1   -1    0    0  502    0 -0.00000000000E+00 -0.00000000000E+00 -0.41790894871E+03  0.41790894871E+03  0.00000000000E+00 0. -1.
         23    2    1    2    0    0  0.98363609654E+01  0.52102194220E+02 -0.39025988454E+03  0.40472621387E+03  0.93215546321E+02 0.  0.
         23    2    1    2    0    0  0.20803823130E+02 -0.28485094123E+02  0.15128677072E+03  0.18047909838E+03  0.91873926188E+02 0.  0.
        -13    1    4    4    0    0  0.20835821333E+02  0.25042656768E+02  0.18858413622E+02  0.37641810171E+02  0.00000000000E+00 0. -1.
         13    1    4    4    0    0 -0.31998203180E-01 -0.53527750891E+02  0.13242835710E+03  0.14283728821E+03  0.00000000000E+00 0.  1.
        -13    1    3    3    0    0 -0.11597863497E+02  0.74375468538E+02 -0.30083139335E+03  0.31010602700E+03  0.00000000000E+00 0. -1.
         13    1    3    3    0    0  0.21434224463E+02 -0.22273274319E+02 -0.89428491193E+02  0.94620186874E+02  0.00000000000E+00 0.  1.
          1    1    1    2  501    0 -0.30640184095E+02 -0.23617100096E+02  0.58469623078E+02  0.70109094426E+02  0.00000000000E+00 0. -1.
<scales pt_clust_5="13000.00000" pt_clust_6="13000.00000" pt_clust_7="13000.00000" pt_clust_8="13000.00000" pt_clust_9="38.68576"></scales>
<clustering>
<clus scale="   38.686">  1  9  2 -1</clus>
<clus scale="   91.874">  5  6 -1 -1</clus>
<clus scale="   93.216">  7  8 -1 -1</clus>
<clus scale="  105.484">  1  5  2 -1</clus>
<clus scale="   38.686">  1  5  2 -1</clus>
</clustering>
</event>
<event>
 9    1  0.1671478E-005  0.1039976E+03  0.7546771E-02  0.1275351E+00
          1   -1    0    0  502    0 -0.00000000000E+00  0.00000000000E+00  0.45453687789E+03  0.45453687789E+03  0.00000000000E+00 0. -1.
         21   -1    0    0  501  502  0.00000000000E+00 -0.00000000000E+00 -0.30856911334E+02  0.30856911334E+02  0.00000000000E+00 0. -1.
         23    2    1    2    0    0  0.45179688788E+02 -0.22923370544E+02  0.21240653470E+03  0.23631593238E+03  0.90343780746E+02 0.  0.
         23    2    1    2    0    0 -0.56855374500E+02 -0.55701571071E+01  0.16916502331E+03  0.19691157630E+03  0.83028931767E+02 0.  0.
        -11    1    3    3    0    0 -0.13116051538E+01 -0.29468789869E+02  0.14410894301E+02  0.32829921702E+02  0.00000000000E+00 0.  1.
         11    1    3    3    0    0  0.46491293942E+02  0.65454193244E+01  0.19799564040E+03  0.20348601068E+03  0.00000000000E+00 0. -1.
        -13    1    4    4    0    0 -0.38474308664E+02  0.16037420532E+02  0.22185309563E+02  0.47219267729E+02  0.00000000000E+00 0. -1.
         13    1    4    4    0    0 -0.18381065836E+02 -0.21607577639E+02  0.14697971374E+03  0.14969230857E+03  0.00000000000E+00 0.  1.
          1    1    1    2  501    0  0.11675685712E+02  0.28493527651E+02  0.42108408550E+02  0.52166280541E+02  0.00000000000E+00 0. -1.
<scales pt_clust_5="13000.00000" pt_clust_6="13000.00000" pt_clust_7="13000.00000" pt_clust_8="13000.00000" pt_clust_9="30.79290"></scales>
<clustering>
<clus scale="   30.793">  2  9  1 -1</clus>
<clus scale="   83.029">  7  8 -1 -1</clus>
<clus scale="   90.344">  5  6 -1 -1</clus>
<clus scale="   97.710">  2  7  1 -1</clus>
<clus scale="   30.793">  2  5  1 -1</clus>
</clustering>
</event>
<event>
 9    1  0.1671478E-005  0.1341605E+03  0.7546771E-02  0.1222939E+00
         21   -1    0    0  501  502  0.00000000000E+00  0.00000000000E+00  0.25123651409E+03  0.25123651409E+03  0.00000000000E+00 0. -1.
         -4   -1    0    0    0  501 -0.00000000000E+00 -0.00000000000E+00 -0.97046922480E+02  0.97046922480E+02  0.00000000000E+00 0.  1.
         23    2    1    2    0    0 -0.12074073771E+02  0.84481668482E+02  0.50208897529E+02  0.13848140118E+03  0.96815440482E+02 0.  0.
         23    2    1    2    0    0 -0.76097402581E+01 -0.10100510496E+03  0.41538627086E+02  0.14227805284E+03  0.90871598458E+02 0.  0.
        -11    1    4    4    0    0 -0.40958349063E+02 -0.87993010984E+02  0.16153498089E+02  0.98393555889E+02  0.00000000000E+00 0.  1.
         11    1    4    4    0    0  0.33348608805E+02 -0.13012093975E+02  0.25385128997E+02  0.43884496955E+02  0.00000000000E+00 0. -1.
        -13    1    3    3    0    0  0.76296011263E+00 -0.21115906027E+02  0.16765691059E+02  0.26973171711E+02  0.00000000000E+00 0. -1.
         13    1    3    3    0    0 -0.12837033883E+02  0.10559757451E+03  0.33443206470E+02  0.11150822947E+03  0.00000000000E+00 0.  1.
         -4    1    1    2    0  502  0.19683814029E+02  0.16523436477E+02  0.62442066990E+02  0.67523982538E+02  0.00000000000E+00 0.  1.
<scales pt_clust_5="13000.00000" pt_clust_6="13000.00000" pt_clust_7="13000.00000" pt_clust_8="13000.00000" pt_clust_9="25.69974"></scales>
<clustering>
<clus scale="   25.700">  1  9  2 -1</clus>
<clus scale="   90.872">  5  6 -1 -1</clus>
<clus scale="   96.815">  7  8 -1 -1</clus>
<clus scale="  129.936">  1  5  2 -1</clus>
<clus scale="   25.700">  1  5  2 -1</clus>
</clustering>
</event>
<event>
 9    1  0.1671478E-005  0.1028722E+03  0.7546771E-02  0.1274462E+00
         21   -1    0    0  501  502  0.00000000000E+00  0.00000000000E+00  0.36308701993E+03  0.36308701993E+03  0.00000000000E+00 0. -1.
         -2   -1    0    0    0  501 -0.00000000000E+00 -0.00000000000E+00 -0.50639011541E+02  0.50639011541E+02  0.00000000000E+00 0.  1.
         23    2    1    2    0    0 -0.33949626223E+02  0.21768680466E+02  0.52436076166E+02  0.11523046879E+03  0.94350761963E+02 0.  0.
         23    2    1    2    0    0  0.50100478566E+02  0.83254215696E+01  0.15710030644E+03  0.19006444293E+03  0.94152087539E+02 0.  0.
        -11    1    3    3    0    0 -0.60302515270E+02  0.86173300999E+00  0.10086014150E+02  0.61146247743E+02  0.00000000000E+00 0.  1.
         11    1    3    3    0    0  0.26352889046E+02  0.20906947456E+02  0.42350062016E+02  0.54084221043E+02  0.00000000000E+00 0. -1.
        -13    1    4    4    0    0  0.37644054811E+02  0.33010992968E+02  0.26655632497E+02  0.56721453288E+02  0.00000000000E+00 0.  1.
         13    1    4    4    0    0  0.12456423755E+02 -0.24685571398E+02  0.13044467394E+03  0.13334298964E+03  0.00000000000E+00 0. -1.
         -2    1    1    2    0  502 -0.16150852342E+02 -0.30094102036E+02  0.10291162579E+03  0.10843111975E+03  0.00000000000E+00 0.  1.
<scales pt_clust_5="13000.00000" pt_clust_6="13000.00000" pt_clust_7="13000.00000" pt_clust_8="13000.00000" pt_clust_9="34.15414"></scales>
<clustering>
<clus scale="   34.154">  1  9  2 -1</clus>
<clus scale="   94.152">  7  8 -1 -1</clus>
<clus scale="   94.351">  5  6 -1 -1</clus>
<clus scale="  102.690">  1  7  2 -1</clus>
<clus scale="   34.154">  1  5  2 -1</clus>
</clustering>
</event>
<event>
 9    1  0.1671478E-005  0.9674120E+02  0.7546771E-02  0.1287920E+00
         21   -1    0    0  501  502  0.00000000000E+00  0.00000000000E+00  0.12635515160E+03  0.12635515160E+03  0.00000000000E+00 0. -1.
         -1   -1    0    0    0  501 -0.00000000000E+00 -0.00000000000E+00 -0.16236382092E+03  0.16236382092E+03  0.00000000000E+00 0.  1.
         23    2    1    2    0    0 -0.23876941549E+02 -0.34186682122E+02 -0.94588120017E+02  0.13716068339E+03  0.90151555989E+02 0.  0.
         23    2    1    2    0    0  0.84427842372E+01  0.40873431736E+01  0.99961670568E+01  0.92359312235E+02  0.91336368555E+02 0.  0.
        -11    1    4    4    0    0 -0.41049435835E+02 -0.45547217771E+01  0.80631773206E+01  0.42081070583E+02  0.00000000000E+00 0.  1.
         11    1    4    4    0    0  0.49492220073E+02  0.86420649507E+01  0.19329897362E+01  0.50278241652E+02  0.00000000000E+00 0. -1.
        -13    1    3    3    0    0  0.21829281419E+02 -0.34937555995E+02 -0.12241347800E+02  0.42976748855E+02  0.00000000000E+00 0. -1.
         13    1    3    3    0    0 -0.45706222969E+02  0.75087387347E+00 -0.82346772217E+02  0.94183934534E+02  0.00000000000E+00 0.  1.
         -1    1    1    2    0  502  0.15434157312E+02  0.30099338948E+02  0.48583283636E+02  0.59198976899E+02  0.00000000000E+00 0.  1.
<scales pt_clust_5="13000.00000" pt_clust_6="13000.00000" pt_clust_7="13000.00000" pt_clust_8="13000.00000" pt_clust_9="33.82578"></scales>
<clustering>
<clus scale="   33.826">  1  9  2 -1</clus>
<clus scale="   90.152">  7  8 -1 -1</clus>
<clus scale="   91.336">  5  6 -1 -1</clus>
<clus scale="   95.623">  2  7  1 -1</clus>
<clus scale="   33.826">  1  5  2 -1</clus>
</clustering>
</event>
<event>
 9    1  0.1671478E-005  0.1033622E+03  0.7546771E-02  0.1273629E+00
          2   -1    0    0  502    0 -0.00000000000E+00  0.00000000000E+00  0.46118788381E+03  0.46118788381E+03  0.00000000000E+00 0. -1.
         21   -1    0    0  501  502  0.00000000000E+00 -0.00000000000E+00 -0.33554260465E+02  0.33554260465E+02  0.00000000000E+00 0.  1.
         23    2    1    2    0    0 -0.28140903509E+02 -0.38904722498E+02  0.20150477873E+03  0.22596065796E+03  0.90269348132E+02 0.  0.
         23    2    1    2    0    0  0.54607533361E+02  0.15901058502E+02  0.19179474501E+03  0.21970520438E+03  0.90831306593E+02 0.  0.
        -13    1    4    4    0    0  0.51094904890E+02 -0.31245044686E+02  0.10672743472E+03  0.12238336262E+03  0.00000000000E+00 0.  1.
         13    1    4    4    0    0  0.35126284715E+01  0.47146103189E+02  0.85067310285E+02  0.97321841761E+02  0.00000000000E+00 0. -1.
        -13    1    3    3    0    0  0.16537214700E+02 -0.52482582685E+02  0.97545609985E+02  0.11199574538E+03  0.00000000000E+00 0.  1.
         13    1    3    3    0    0 -0.44678118210E+02  0.13577860187E+02  0.10395916874E+03  0.11396491258E+03  0.00000000000E+00 0. -1.
          2    1    1    2  501    0 -0.26466629852E+02  0.23003663996E+02  0.34334099612E+02  0.49076281940E+02  0.00000000000E+00 0. -1.
<scales pt_clust_5="13000.00000" pt_clust_6="13000.00000" pt_clust_7="13000.00000" pt_clust_8="13000.00000" pt_clust_9="35.06638"></scales>
<clustering>
<clus scale="   35.066">  2  9  1 -1</clus>
<clus scale="   90.269">  7  8 -1 -1</clus>
<clus scale="   90.831">  5  6 -1 -1</clus>
<clus scale="  102.869">  1  7  2 -1</clus>
<clus scale="   35.066">  2  5  1 -1</clus>
</clustering>
</event>
<event>
 9    1  0.1671478E-005  0.1509375E+03  0.7546771E-02  0.1200448E+00
         21   -1    0    0  501  502  0.00000000000E+00  0.00000000000E+00  0.12488244852E+03  0.12488244852E+03  0.00000000000E+00 0. -1.
          1   -1    0    0  502    0 -0.00000000000E+00 -0.00000000000E+00 -0.24494900169E+03  0.24494900169E+03  0.00000000000E+00 0. -1.
         23    2    1    2    0    0  0.90990948650E+02  0.43101217285E+02 -0.57188484950E+02  0.14606497741E+03  0.89035875624E+02 0.  0.
         23    2    1    2    0    0 -0.12331620798E+03 -0.60336323315E+02 -0.77873889587E+02  0.18418306809E+03  0.94929978565E+02 0.  0.
        -11    1    4    4    0    0 -0.55355011230E+02  0.22151366084E+02 -0.34123475936E+02  0.68696956975E+02  0.00000000000E+00 0. -1.
         11    1    4    4    0    0 -0.67961196746E+02 -0.82487689399E+02 -0.43750413651E+02  0.11548611111E+03  0.00000000000E+00 0.  1.
        -13    1    3    3    0    0  0.22603297475E+02  0.58844097130E+02 -0.17398071119E+02  0.65392887247E+02  0.00000000000E+00 0. -1.
         13    1    3    3    0    0  0.68387651175E+02 -0.15742879845E+02 -0.39790413831E+02  0.80672090167E+02  0.00000000000E+00 0.  1.
          1    1    1    2  501    0  0.32325259326E+02  0.17235106029E+02  0.14995821365E+02  0.39583404714E+02  0.00000000000E+00 0. -1.
<scales pt_clust_5="13000.00000" pt_clust_6="13000.00000" pt_clust_7="13000.00000" pt_clust_8="13000.00000" pt_clust_9="36.63293"></scales>
<clustering>
<clus scale="   36.633">  1  9  2 -1</clus>
<clus scale="   89.036">  7  8 -1 -1</clus>
<clus scale="   94.930">  5  6 -1 -1</clus>
<clus scale="  147.302">  2  7  1 -1</clus>
<clus scale="   36.633">  1  5  2 -1</clus>
</clustering>
</event>
<event>
 9    1  0.1671478E-005  0.4502062E+03  0.7546771E-02  0.1027681E+00
         21   -1    0    0  501  502  0.00000000000E+00  0.00000000000E+00  0.12405821311E+04  0.12405821311E+04  0.00000000000E+00 0.  1.
          1   -1    0    0  502    0 -0.00000000000E+00 -0.00000000000E+00 -0.21094615141E+03  0.21094615141E+03  0.00000000000E+00 0. -1.
         23    2    1    2    0    0 -0.16023645358E+03  0.39321455934E+03  0.26548384539E+03  0.50907836438E+03  0.91573457850E+02 0.  0.
         23    2    1    2    0    0  0.19067197975E+03 -0.42789901201E+03  0.57200576205E+03  0.74484030075E+03  0.90239201379E+02 0.  0.
        -11    1    4    4    0    0  0.15326818024E+03 -0.36400454564E+03  0.52562809265E+03  0.65747649091E+03  0.00000000000E+00 0.  1.
         11    1    4    4    0    0  0.37403799512E+02 -0.63894466370E+02  0.46377669399E+02  0.87363809839E+02  0.00000000000E+00 0. -1.
        -13    1    3    3    0    0 -0.98966957914E+01  0.12176405167E+03  0.96960065573E+02  0.15596692978E+03  0.00000000000E+00 0.  1.
         13    1    3    3    0    0 -0.15033975779E+03  0.27145050766E+03  0.16852377982E+03  0.35311143460E+03  0.00000000000E+00 0. -1.
          1    1    1    2  501    0 -0.30435526173E+02  0.34684452669E+02  0.19214637224E+03  0.19760961737E+03  0.00000000000E+00 0. -1.
<scales pt_clust_5="13000.00000" pt_clust_6="13000.00000" pt_clust_7="13000.00000" pt_clust_8="13000.00000" pt_clust_9="46.14469"></scales>
<clustering>
<clus scale="   46.145">  1  9  2 -1</clus>
<clus scale="   90.239">  5  6 -1 -1</clus>
<clus scale="   91.573">  7  8 -1 -1</clus>
<clus scale="  449.937">  1  5  2 -1</clus>
<clus scale="   46.145">  1  5  2 -1</clus>
</clustering>
</event>
<event>
 9    1  0.1671478E-005  0.1133019E+03  0.7546771E-02  0.1254674E+00
         -1   -1    0    0    0  501 -0.00000000000E+00  0.00000000000E+00  0.28815495338E+03  0.28815495338E+03  0.00000000000E+00 0.  1.
         21   -1    0    0  501  502  0.00000000000E+00 -0.00000000000E+00 -0.86998334127E+02  0.86998334127E+02  0.00000000000E+00 0.  1.
         23    2    1    2    0    0 -0.53469087005E+01 -0.63422330668E+02  0.20284165233E+03  0.23152980798E+03  0.91707876460E+02 0.  0.
         23    2    1    2    0    0  0.22776828330E+02  0.76395296360E+02  0.32264005037E+01  0.12134743596E+03  0.91431752358E+02 0.  0.
        -11    1    4    4    0    0  0.31103987270E+02  0.18545635236E+02  0.38682175098E+02  0.52987822004E+02  0.00000000000E+00 0.  1.
         11    1    4    4    0    0 -0.83271589398E+01  0.57849661124E+02 -0.35455774595E+02  0.68359613956E+02  0.00000000000E+00 0. -1.
        -11    1    3    3    0    0 -0.32086074651E+02 -0.48829238024E+02  0.18944792741E+03  0.19825319133E+03  0.00000000000E+00 0.  1.
         11    1    3    3    0    0  0.26739165951E+02 -0.14593092644E+02  0.13393724919E+02  0.33276616653E+02  0.00000000000E+00 0. -1.
         -1    1    1    2    0  502 -0.17429919629E+02 -0.12972965692E+02 -0.49114335777E+01  0.22276043565E+02  0.00000000000E+00 0.  1.
<scales pt_clust_5="13000.00000" pt_clust_6="13000.00000" pt_clust_7="13000.00000" pt_clust_8="13000.00000" pt_clust_9="21.72786"></scales>
<clustering>
<clus scale="   21.728">  2  9  1 -1</clus>
<clus scale="   91.432">  5  6 -1 -1</clus>
<clus scale="   91.708">  7  8 -1 -1</clus>
<clus scale="  113.079">  2  5  1 -1</clus>
<clus scale="   21.728">  2  5  1 -1</clus>
</clustering>
</event>
<event>
 9    1  0.1671478E-005  0.1578020E+03  0.7546771E-02  0.1215292E+00
         -1   -1    0    0    0  501 -0.00000000000E+00  0.00000000000E+00  0.56495643529E+03  0.56495643529E+03  0.00000000000E+00 0.  1.
         21   -1    0    0  501  502  0.00000000000E+00 -0.00000000000E+00 -0.10025305219E+03  0.10025305219E+03  0.00000000000E+00 0.  1.
         23    2    1    2    0    0 -0.19351830787E+02 -0.33826285882E+01  0.27958402444E+03  0.29489242970E+03  0.91697234626E+02 0.  0.
         23    2    1    2    0    0  0.49850885113E+02  0.12365929781E+03  0.17000508004E+02  0.16136582562E+03  0.89292663330E+02 0.  0.
        -11    1    3    3    0    0 -0.52755631248E+02 -0.19101743058E+02  0.14991308247E+03  0.16006862751E+03  0.00000000000E+00 0.  1.
         11    1    3    3    0    0  0.33403800461E+02  0.15719114470E+02  0.12967094197E+03  0.13482380219E+03  0.00000000000E+00 0. -1.
        -11    1    4    4    0    0  0.20755974546E+02  0.17821057569E+02  0.40730996124E+02  0.49065411620E+02  0.00000000000E+00 0. -1.
         11    1    4    4    0    0  0.29094910567E+02  0.10583824024E+03 -0.23730488120E+02  0.11230041400E+03  0.00000000000E+00 0.  1.
         -1    1    1    2    0  502 -0.30499054325E+02 -0.12027666923E+03  0.16811885066E+03  0.20895123216E+03  0.00000000000E+00 0.  1.
<scales pt_clust_5="13000.00000" pt_clust_6="13000.00000" pt_clust_7="13000.00000" pt_clust_8="13000.00000" pt_clust_9="130.10883"></scales>
<clustering>
<clus scale="   89.293">  7  8 -1 -1</clus>
<clus scale="   91.697">  5  6 -1 -1</clus>
<clus scale="   93.778">  1  5  2 -1</clus>
<clus scale="  130.109">  2  9  1 -1</clus>
<clus scale="  130.109">  2  5  1 -1</clus>
</clustering>
</event>
<event>
 9    1  0.1671478E-005  0.1421509E+03  0.7546771E-02  0.1210491E+00
         21   -1    0    0  501  502  0.00000000000E+00  0.00000000000E+00  0.13522710481E+03  0.13522710481E+03  0.00000000000E+00 0.  1.
          1   -1    0    0  502    0 -0.00000000000E+00 -0.00000000000E+00 -0.30342353996E+03  0.30342353996E+03  0.00000000000E+00 0. -1.
         23    2    1    2    0    0  0.67326659531E+02 -0.78375907133E+02 -0.15334821212E+03  0.20663699893E+03  0.92236181971E+02 0.  0.
         23    2    1    2    0    0 -0.12135495152E+03  0.55421549113E+02  0.20398978003E+02  0.16354230827E+03  0.92365555952E+02 0.  0.
        -11    1    4    4    0    0 -0.10564441215E+03  0.15194024517E+01  0.74129997469E+01  0.10591507432E+03  0.00000000000E+00 0.  1.
         11    1    4    4    0    0 -0.15710539372E+02  0.53902146661E+02  0.12985978256E+02  0.57627233955E+02  0.00000000000E+00 0. -1.
        -13    1    3    3    0    0  0.25527411793E+02 -0.12731169056E+02  0.61357817787E+01  0.29178403596E+02  0.00000000000E+00 0.  1.
         13    1    3    3    0    0  0.41799247738E+02 -0.65644738077E+02 -0.15948399390E+03  0.17745859533E+03  0.00000000000E+00 0. -1.
          1    1    1    2  501    0  0.54028291990E+02  0.22954358020E+02 -0.35247201039E+02  0.68471337569E+02  0.00000000000E+00 0. -1.
<scales pt_clust_5="13000.00000" pt_clust_6="13000.00000" pt_clust_7="13000.00000" pt_clust_8="13000.00000" pt_clust_9="58.70232"></scales>
<clustering>
<clus scale="   58.702">  1  9  2 -1</clus>
<clus scale="   92.236">  7  8 -1 -1</clus>
<clus scale="   92.366">  5  6 -1 -1</clus>
<clus scale="  142.067">  2  7  1 -1</clus>
<clus scale="   58.702">  1  5  2 -1</clus>
</clustering>
</event>
<event>
 9    1  0.1671478E-005  0.1164448E+03  0.7546771E-02  0.1249953E+00
          2   -1    0    0  502    0 -0.00000000000E+00  0.00000000000E+00  0.42466755926E+03  0.42466755926E+03  0.00000000000E+00 0. -1.
         21   -1    0    0  501  502  0.00000000000E+00 -0.00000000000E+00 -0.68307824113E+02  0.68307824113E+02  0.00000000000E+00 0. -1.
         23    2    1    2    0    0 -0.76129351363E+02 -0.11514681048E+02  0.27816814761E+03  0.30189598952E+03  0.88517818091E+02 0.  0.
         23    2    1    2    0    0  0.56777217562E+02  0.35509662057E+02  0.10188216874E+03  0.15220127874E+03  0.91107982139E+02 0.  0.
        -11    1    3    3    0    0 -0.21455453398E+02 -0.24220639761E+02  0.20772009038E+02  0.38450646684E+02  0.00000000000E+00 0.  1.
         11    1    3    3    0    0 -0.54673897965E+02  0.12705958713E+02  0.25739613858E+03  0.26344534283E+03  0.00000000000E+00 0. -1.
        -13    1    4    4    0    0  0.29012466020E+02 -0.72982302994E+01 -0.80712200724E+01  0.30985995926E+02  0.00000000000E+00 0.  1.
         13    1    4    4    0    0  0.27764751541E+02  0.42807892357E+02  0.10995338881E+03  0.12121528282E+03  0.00000000000E+00 0. -1.
          2    1    1    2  501    0  0.19352133801E+02 -0.23994981010E+02 -0.23690581214E+02  0.38878115111E+02  0.00000000000E+00 0. -1.
<scales pt_clust_5="13000.00000" pt_clust_6="13000.00000" pt_clust_7="13000.00000" pt_clust_8="13000.00000" pt_clust_9="30.82636"></scales>
<clustering>
<clus scale="   30.826">  2  9  1 -1</clus>
<clus scale="   88.518">  5  6 -1 -1</clus>
<clus scale="   91.108">  7  8 -1 -1</clus>
<clus scale="  114.430">  1  5  2 -1</clus>
<clus scale="   30.826">  2  5  1 -1</clus>
</clustering>
</event>
<event>
 9    1  0.1671478E-005  0.2483313E+03  0.7546771E-02  0.1114661E+00
         21   -1    0    0  501  502  0.00000000000E+00  0.00000000000E+00  0.58543077629E+03  0.58543077629E+03  0.00000000000E+00 0. -1.
          2   -1    0    0  502    0 -0.00000000000E+00 -0.00000000000E+00 -0.17772500949E+03  0.17772500949E+03  0.00000000000E+00 0. -1.
         23    2    1    2    0    0 -0.18230456767E+02 -0.20483937713E+03  0.11492223331E+03  0.25268257377E+03  0.91377477536E+02 0.  0.
         23    2    1    2    0    0 -0.73020691701E+02  0.27027518337E+03  0.25860612042E+03  0.39309897122E+03  0.96275539436E+02 0.  0.
        -11    1    4    4    0    0 -0.83697372210E-01  0.17717806163E+03  0.14259421302E+03  0.22743170868E+03  0.00000000000E+00 0.  1.
         11    1    4    4    0    0 -0.72936994329E+02  0.93097121745E+02  0.11601190740E+03  0.16566726254E+03  0.00000000000E+00 0. -1.
        -11    1    3    3    0    0  0.30309843859E+02 -0.13772469629E+03  0.59720367105E+02  0.15314470559E+03  0.00000000000E+00 0.  1.
         11    1    3    3    0    0 -0.48540300626E+02 -0.67114680833E+02  0.55201866202E+02  0.99537868173E+02  0.00000000000E+00 0. -1.
          2    1    1    2  501    0  0.91251148468E+02 -0.65435806247E+02  0.34177413077E+02  0.11737424079E+03  0.00000000000E+00 0. -1.
<scales pt_clust_5="13000.00000" pt_clust_6="13000.00000" pt_clust_7="13000.00000" pt_clust_8="13000.00000" pt_clust_9="112.28815"></scales>
<clustering>
<clus scale="   91.377">  7  8 -1 -1</clus>
<clus scale="   96.276">  5  6 -1 -1</clus>
<clus scale="  112.288">  1  9  2 -1</clus>
<clus scale="  246.474">  2  7  1 -1</clus>
<clus scale="  112.288">  1  5  2 -1</clus>
</clustering>
</event>
<event>
 9    1  0.1671478E-005  0.1112408E+03  0.7546771E-02  0.1258867E+00
          1   -1    0    0  502    0 -0.00000000000E+00  0.00000000000E+00  0.47421008705E+03  0.47421008705E+03  0.00000000000E+00 0. -1.
         21   -1    0    0  501  502  0.00000000000E+00 -0.00000000000E+00 -0.41311505738E+02  0.41311505738E+02  0.00000000000E+00 0.  1.
         23    2    1    2    0    0  0.79999161386E+01 -0.66229641316E+02  0.33474241004E+03  0.35374949609E+03  0.92929332613E+02 0.  0.
         23    2    1    2    0    0 -0.17988824500E+02  0.45086576999E+02  0.89504238276E+02  0.13683891792E+03  0.91419273444E+02 0.  0.
        -11    1    4    4    0    0  0.29426155357E+02  0.47329301963E+02  0.53577740174E+02  0.77308057054E+02  0.00000000000E+00 0. -1.
         11    1    4    4    0    0 -0.47414979857E+02 -0.22427249634E+01  0.35926498102E+02  0.59530860871E+02  0.00000000000E+00 0.  1.
        -13    1    3    3    0    0 -0.31810387569E+02 -0.67101233929E+02  0.23014257570E+03  0.24182655252E+03  0.00000000000E+00 0.  1.
         13    1    3    3    0    0  0.39810303708E+02  0.87159261326E+00  0.10459983433E+03  0.11192294357E+03  0.00000000000E+00 0. -1.
          1    1    1    2  501    0  0.99889083616E+01  0.21143064317E+02  0.86519329946E+01  0.24933178768E+02  0.00000000000E+00 0. -1.
<scales pt_clust_5="13000.00000" pt_clust_6="13000.00000" pt_clust_7="13000.00000" pt_clust_8="13000.00000" pt_clust_9="23.38391"></scales>
<clustering>
<clus scale="   23.384">  2  9  1 -1</clus>
<clus scale="   91.419">  5  6 -1 -1</clus>
<clus scale="   92.929">  7  8 -1 -1</clus>
<clus scale="  109.982">  2  5  1 -1</clus>
<clus scale="   23.384">  2  5  1 -1</clus>
</clustering>
</event>
<event>
 9    1  0.1671478E-005  0.9972596E+02  0.7546771E-02  0.1281971E+00
          1   -1    0    0  502    0 -0.00000000000E+00  0.00000000000E+00  0.37819242608E+03  0.37819242608E+03  0.00000000000E+00 0. -1.
         21   -1    0    0  501  502  0.00000000000E+00 -0.00000000000E+00 -0.76525920520E+02  0.76525920520E+02  0.00000000000E+00 0. -1.
         23    2    1    2    0    0  0.12745995453E+02 -0.46872109765E+02  0.20483008126E+03  0.22934114968E+03  0.91008492331E+02 0.  0.
         23    2    1    2    0    0 -0.27158151653E+02  0.82586259865E+01  0.13680924088E+03  0.16796171607E+03  0.93212657777E+02 0.  0.
        -11    1    3    3    0    0 -0.27283647846E+02  0.96197177621E+01  0.31892864325E+02  0.43059159356E+02  0.00000000000E+00 0.  1.
         11    1    3    3    0    0  0.40029643299E+02 -0.56491827527E+02  0.17293721693E+03  0.18628199033E+03  0.00000000000E+00 0. -1.
        -11    1    4    4    0    0  0.89118443659E+01  0.30218675358E+02  0.11727560214E+03  0.12143375218E+03  0.00000000000E+00 0.  1.
         11    1    4    4    0    0 -0.36069996019E+02 -0.21960049372E+02  0.19533638736E+02  0.46527963887E+02  0.00000000000E+00 0. -1.
          1    1    1    2  501    0  0.14412156200E+02  0.38613483778E+02 -0.39972816579E+02  0.57415480849E+02  0.00000000000E+00 0. -1.
<scales pt_clust_5="13000.00000" pt_clust_6="13000.00000" pt_clust_7="13000.00000" pt_clust_8="13000.00000" pt_clust_9="41.21543"></scales>
<clustering>
<clus scale="   41.215">  2  9  1 -1</clus>
<clus scale="   91.008">  5  6 -1 -1</clus>
<clus scale="   93.213">  7  8 -1 -1</clus>
<clus scale="   97.669">  1  5  2 -1</clus>
<clus scale="   41.215">  2  5  1 -1</clus>
</clustering>
</event>
<event>
 9    1  0.1671478E-005  0.1021157E+03  0.7546771E-02  0.1276157E+00
         21   -1    0    0  501  502  0.00000000000E+00  0.00000000000E+00  0.74453853442E+02  0.74453853442E+02  0.00000000000E+00 0.  1.
         -1   -1    0    0    0  501 -0.00000000000E+00 -0.00000000000E+00 -0.33282865479E+03  0.33282865479E+03  0.00000000000E+00 0.  1.
         23    2    1    2    0    0 -0.57363375723E+02  0.35085926933E+02 -0.21961070758E+03  0.24654882530E+03  0.89643076858E+02 0.  0.
         23    2    1    2    0    0  0.58993734943E+01  0.78008029573E+00 -0.37862785157E+02  0.97998315258E+02  0.90192395249E+02 0.  0.
        -13    1    3    3    0    0 -0.66959368623E+02  0.43112512531E+01 -0.19431279934E+03  0.20557141806E+03  0.00000000000E+00 0.  1.
         13    1    3    3    0    0  0.95959929004E+01  0.30774675679E+02 -0.25297908238E+02  0.40977407240E+02  0.00000000000E+00 0. -1.
        -13    1    4    4    0    0  0.41980431344E+02  0.13072884760E+02 -0.40514356475E+02  0.59788544157E+02  0.00000000000E+00 0. -1.
         13    1    4    4    0    0 -0.36081057850E+02 -0.12292804464E+02  0.26515713183E+01  0.38209771102E+02  0.00000000000E+00 0.  1.
         -1    1    1    2    0  502  0.51464002229E+02 -0.35866007228E+02 -0.90130860784E+00  0.62735367673E+02  0.00000000000E+00 0.  1.
<scales pt_clust_5="13000.00000" pt_clust_6="13000.00000" pt_clust_7="13000.00000" pt_clust_8="13000.00000" pt_clust_9="62.72889"></scales>
<clustering>
<clus scale="   62.729">  1  9  2 -1</clus>
<clus scale="   89.643">  5  6 -1 -1</clus>
<clus scale="   90.192">  7  8 -1 -1</clus>
<clus scale="  101.631">  2  5  1 -1</clus>
<clus scale="   62.729">  1  5  2 -1</clus>
</clustering>
</event>
<event>
 9    1  0.1671478E-005  0.1662151E+03  0.7546771E-02  0.1181893E+00
          2   -1    0    0  502    0 -0.00000000000E+00  0.00000000000E+00  0.39971679480E+03  0.39971679480E+03  0.00000000000E+00 0. -1.
         21   -1    0    0  501  502  0.00000000000E+00 -0.00000000000E+00 -0.12472657508E+03  0.12472657508E+03  0.00000000000E+00 0.  1.
         23    2    1    2    0    0 -0.13808941071E+03  0.20093802477E+02  0.29078836273E+03  0.33514435447E+03  0.91057235766E+02 0.  0.
         23    2    1    2    0    0  0.13752172617E+03  0.18667209269E+00 -0.26158662602E+01  0.16510413301E+03  0.91325089454E+02 0.  0.
        -11    1    4    4    0    0  0.74767585949E+02  0.67770787217E+01  0.43667499013E+02  0.86850280222E+02  0.00000000000E+00 0. -1.
         11    1    4    4    0    0  0.62754140221E+02 -0.65904066290E+01 -0.46283365273E+02  0.78253852783E+02  0.00000000000E+00 0.  1.
        -13    1    3    3    0    0 -0.11037944928E+02  0.36747229365E+02  0.61818026387E+02  0.72757566484E+02  0.00000000000E+00 0.  1.
         13    1    3    3    0    0 -0.12705146578E+03 -0.16653426889E+02  0.22897033635E+03  0.26238678799E+03  0.00000000000E+00 0. -1.
          2    1    1    2  501    0  0.56768453648E+00 -0.20280474570E+02 -0.13182276754E+02  0.24194882412E+02  0.00000000000E+00 0. -1.
<scales pt_clust_5="13000.00000" pt_clust_6="13000.00000" pt_clust_7="13000.00000" pt_clust_8="13000.00000" pt_clust_9="20.28842"></scales>
<clustering>
<clus scale="   20.288">  2  9  1 -1</clus>
<clus scale="   91.057">  7  8 -1 -1</clus>
<clus scale="   91.325">  5  6 -1 -1</clus>
<clus scale="  166.068">  1  7  2 -1</clus>
<clus scale="   20.288">  2  5  1 -1</clus>
</clustering>
</event>
<event>
 9    1  0.1671478E-005  0.9926691E+02  0.7546771E-02  0.1286906E+00
         21   -1    0    0  501  502  0.00000000000E+00  0.00000000000E+00  0.30407824090E+03  0.30407824090E+03  0.00000000000E+00 0. -1.
         -2   -1    0    0    0  501 -0.00000000000E+00 -0.00000000000E+00 -0.13026482463E+03  0.13026482463E+03  0.00000000000E+00 0.  1.
         23    2    1    2    0    0  0.17588695251E+02  0.29326104627E+02 -0.82358593374E+02  0.12146123281E+03  0.82465208184E+02 0.  0.
         23    2    1    2    0    0 -0.47503111044E+02 -0.51208232048E+02  0.24975372690E+03  0.27526675428E+03  0.92282356497E+02 0.  0.
        -11    1    4    4    0    0 -0.27350946334E+02  0.22863999561E+02  0.11239431247E+03  0.11791233276E+03  0.00000000000E+00 0.  1.
         11    1    4    4    0    0 -0.20152164710E+02 -0.74072231609E+02  0.13735941443E+03  0.15735442152E+03  0.00000000000E+00 0. -1.
        -11    1    3    3    0    0  0.42877433462E+02  0.41023135081E+02 -0.67530102183E+02  0.89898201389E+02  0.00000000000E+00 0.  1.
         11    1    3    3    0    0 -0.25288738211E+02 -0.11697030454E+02 -0.14828491191E+02  0.31563031425E+02  0.00000000000E+00 0. -1.
         -2    1    1    2    0  502  0.29914415793E+02  0.21882127421E+02  0.64182827421E+01  0.37615078440E+02  0.00000000000E+00 0.  1.
<scales pt_clust_5="13000.00000" pt_clust_6="13000.00000" pt_clust_7="13000.00000" pt_clust_8="13000.00000" pt_clust_9="37.06347"></scales>
<clustering>
<clus scale="   37.063">  1  9  2 -1</clus>
<clus scale="   82.465">  7  8 -1 -1</clus>
<clus scale="   90.213">  2  7  1 -1</clus>
<clus scale="   92.282">  5  6 -1 -1</clus>
<clus scale="   37.063">  1  5  2 -1</clus>
</clustering>
</event>
<event>
 9    1  0.1671478E-005  0.1566155E+03  0.7546771E-02  0.1192647E+00
         -2   -1    0    0    0  501 -0.00000000000E+00  0.00000000000E+00  0.52629655071E+03  0.52629655071E+03  0.00000000000E+00 0.  1.
         21   -1    0    0  501  502  0.00000000000E+00 -0.00000000000E+00 -0.97768592412E+02  0.97768592412E+02  0.00000000000E+00 0.  1.
         23    2    1    2    0    0  0.10233549056E+03 -0.19284816382E+02  0.20972416808E+03  0.25136985467E+03  0.91422756410E+02 0.  0.
         23    2    1    2    0    0 -0.15238184452E+03  0.66335137946E+02  0.23525410783E+03  0.30206255346E+03  0.90976446881E+02 0.  0.
        -11    1    4    4    0    0 -0.11641256657E+03  0.50151048669E+01  0.16601853145E+03  0.20282798060E+03  0.00000000000E+00 0.  1.
         11    1    4    4    0    0 -0.35969277953E+02  0.61320033079E+02  0.69235576382E+02  0.99234572857E+02  0.00000000000E+00 0. -1.
        -13    1    3    3    0    0  0.11735103842E+03 -0.46433915352E+01  0.17347070076E+03  0.20948725815E+03  0.00000000000E+00 0. -1.
         13    1    3    3    0    0 -0.15015547859E+02 -0.14641424847E+02  0.36253467313E+02  0.41882596520E+02  0.00000000000E+00 0.  1.
         -2    1    1    2    0  502  0.50046353956E+02 -0.47050321564E+02 -0.16450317604E+02  0.70632734995E+02  0.00000000000E+00 0.  1.
<scales pt_clust_5="13000.00000" pt_clust_6="13000.00000" pt_clust_7="13000.00000" pt_clust_8="13000.00000" pt_clust_9="68.69039"></scales>
<clustering>
<clus scale="   68.690">  2  9  1 -1</clus>
<clus scale="   90.976">  5  6 -1 -1</clus>
<clus scale="   91.423">  7  8 -1 -1</clus>
<clus scale="  156.355">  2  5  1 -1</clus>
<clus scale="   68.690">  2  5  1 -1</clus>
</clustering>
</event>
<event>
 9    1  0.1671478E-005  0.2670178E+03  0.7546771E-02  0.1103193E+00
          2   -1    0    0  502    0 -0.00000000000E+00  0.00000000000E+00  0.15111429933E+04  0.15111429933E+04  0.00000000000E+00 0. -1.
         21   -1    0    0  501  502  0.00000000000E+00 -0.00000000000E+00 -0.19762690737E+03  0.19762690737E+03  0.00000000000E+00 0. -1.
         23    2    1    2    0    0 -0.20380009826E+03 -0.17750898751E+03  0.10496931424E+04  0.10873343777E+04  0.86002529657E+02 0.  0.
         23    2    1    2    0    0  0.15396527243E+03  0.15648525475E+03  0.40547926479E+03  0.46980432383E+03  0.90054030662E+02 0.  0.
        -13    1    4    4    0    0  0.68889155952E+02  0.13176395996E+03  0.25473845650E+03  0.29495616314E+03  0.00000000000E+00 0.  1.
         13    1    4    4    0    0  0.85076116481E+02  0.24721294791E+02  0.15074080829E+03  0.17484816069E+03  0.00000000000E+00 0. -1.
        -13    1    3    3    0    0 -0.17812343886E+03 -0.14479883845E+03  0.97683064123E+03  0.10034404640E+04  0.00000000000E+00 0. -1.
         13    1    3    3    0    0 -0.25676659404E+02 -0.32710149055E+02  0.72862501123E+02  0.83893913720E+02  0.00000000000E+00 0.  1.
          2    1    1    2  501    0  0.49834825830E+02  0.21023732754E+02 -0.14165632123E+03  0.15163119913E+03  0.00000000000E+00 0. -1.
<scales pt_clust_5="13000.00000" pt_clust_6="13000.00000" pt_clust_7="13000.00000" pt_clust_8="13000.00000" pt_clust_9="54.08796"></scales>
<clustering>
<clus scale="   54.088">  2  9  1 -1</clus>
<clus scale="   86.003">  7  8 -1 -1</clus>
<clus scale="   90.054">  5  6 -1 -1</clus>
<clus scale="  265.679">  1  7  2 -1</clus>
<clus scale="   54.088">  2  5  1 -1</clus>
</clustering>
</event>
<event>
 9    1  0.1671478E-005  0.1282500E+03  0.7546771E-02  0.1230444E+00
         21   -1    0    0  501  502  0.00000000000E+00  0.00000000000E+00  0.22885718083E+03  0.22885718083E+03  0.00000000000E+00 0.  1.
          2   -1    0    0  502    0 -0.00000000000E+00 -0.00000000000E+00 -0.11634269301E+03  0.11634269301E+03  0.00000000000E+00 0.  1.
         23    2    1    2    0    0 -0.75809757600E+02  0.85122591178E+02 -0.73658384378E+00  0.14480334453E+03  0.89300006461E+02 0.  0.
         23    2    1    2    0    0  0.31858613599E+02 -0.47247340118E+02  0.78215082138E+02  0.13261925979E+03  0.90680684743E+02 0.  0.
        -11    1    4    4    0    0 -0.23616741200E+02 -0.35753451260E+02  0.58747961421E+02  0.72714391375E+02  0.00000000000E+00 0.  1.
         11    1    4    4    0    0  0.55475354799E+02 -0.11493888858E+02  0.19467120717E+02  0.59904868418E+02  0.00000000000E+00 0. -1.
        -11    1    3    3    0    0 -0.51249234165E+02  0.60546279382E+02 -0.42889373271E+02  0.90176683733E+02  0.00000000000E+00 0.  1.
         11    1    3    3    0    0 -0.24560523435E+02  0.24576311797E+02  0.42152789427E+02  0.54626660793E+02  0.00000000000E+00 0. -1.
          2    1    1    2  501    0  0.43951144001E+02 -0.37875251060E+02  0.35035989529E+02  0.67777269525E+02  0.00000000000E+00 0.  1.
<scales pt_clust_5="13000.00000" pt_clust_6="13000.00000" pt_clust_7="13000.00000" pt_clust_8="13000.00000" pt_clust_9="58.01929"></scales>
<clustering>
<clus scale="   58.019">  1  9  2 -1</clus>
<clus scale="   89.300">  7  8 -1 -1</clus>
<clus scale="   90.681">  5  6 -1 -1</clus>
<clus scale="  127.278">  2  7  1 -1</clus>
<clus scale="   58.019">  1  5  2 -1</clus>
</clustering>
</event>
<event>
 9    1  0.1671478E-005  0.1055045E+03  0.7546771E-02  0.1276374E+00
         21   -1    0    0  501  502  0.00000000000E+00  0.00000000000E+00  0.42612781147E+02  0.42612781147E+02  0.00000000000E+00 0.  1.
         -2   -1    0    0    0  501 -0.00000000000E+00 -0.00000000000E+00 -0.51763270293E+03  0.51763270293E+03  0.00000000000E+00 0.  1.
         23    2    1    2    0    0  0.43517473834E+02  0.29001165493E+02 -0.27369707229E+03  0.28902282193E+03  0.76741553837E+02 0.  0.
         23    2    1    2    0    0 -0.61500789759E+01 -0.60711618818E+02 -0.19133544140E+03  0.22120643110E+03  0.92732464065E+02 0.  0.
        -13    1    3    3    0    0 -0.29790295134E+01  0.39064343358E+02 -0.73929554860E+02  0.83668850958E+02  0.00000000000E+00 0. -1.
         13    1    3    3    0    0  0.46496503347E+02 -0.10063177865E+02 -0.19976751743E+03  0.20535397097E+03  0.00000000000E+00 0.  1.
        -13    1    4    4    0    0  0.17618688657E+02 -0.47634358751E+02 -0.18694942183E+03  0.19372541559E+03  0.00000000000E+00 0.  1.
         13    1    4    4    0    0 -0.23768767633E+02 -0.13077260066E+02 -0.43860195737E+01  0.27481015507E+02  0.00000000000E+00 0. -1.
         -2    1    1    2    0  502 -0.37367394858E+02  0.31710453325E+02 -0.99874080931E+01  0.50016231055E+02  0.00000000000E+00 0.  1.
<scales pt_clust_5="13000.00000" pt_clust_6="13000.00000" pt_clust_7="13000.00000" pt_clust_8="13000.00000" pt_clust_9="49.00893"></scales>
<clustering>
<clus scale="   49.009">  1  9  2 -1</clus>
<clus scale="   76.742">  5  6 -1 -1</clus>
<clus scale="   91.767">  2  5  1 -1</clus>
<clus scale="   92.732">  7  8 -1 -1</clus>
<clus scale="   49.009">  1  5  2 -1</clus>
</clustering>
</event>
<event>
 9    1  0.1671478E-005  0.1015014E+03  0.7546771E-02  0.1277661E+00
          1   -1    0    0  502    0 -0.00000000000E+00  0.00000000000E+00  0.55343168659E+03  0.55343168659E+03  0.00000000000E+00 0. -1.
         21   -1    0    0  501  502  0.00000000000E+00 -0.00000000000E+00 -0.74119446449E+02  0.74119446449E+02  0.00000000000E+00 0.  1.
         23    2    1    2    0    0  0.27745603629E+02 -0.41014266705E+02  0.39020217599E+03  0.40358048425E+03  0.90374114226E+02 0.  0.
         23    2    1    2    0    0 -0.52990583531E+01  0.33620226382E+02  0.13838856910E+03  0.16931819891E+03  0.91426783723E+02 0.  0.
        -11    1    4    4    0    0 -0.11664251490E+02 -0.20962912435E+02  0.42546475553E+01  0.24363917715E+02  0.00000000000E+00 0.  1.
         11    1    4    4    0    0  0.63651931369E+01  0.54583138817E+02  0.13413392155E+03  0.14495428119E+03  0.00000000000E+00 0. -1.
        -11    1    3    3    0    0 -0.25547554521E+02 -0.42660341870E+02  0.18591960969E+03  0.19245436752E+03  0.00000000000E+00 0.  1.
         11    1    3    3    0    0  0.53293158150E+02  0.16460751645E+01  0.20428256630E+03  0.21112611673E+03  0.00000000000E+00 0. -1.
          1    1    1    2  501    0 -0.22446545276E+02  0.73940403229E+01 -0.49278504957E+02  0.54652449880E+02  0.00000000000E+00 0. -1.
<scales pt_clust_5="13000.00000" pt_clust_6="13000.00000" pt_clust_7="13000.00000" pt_clust_8="13000.00000" pt_clust_9="23.63301"></scales>
<clustering>
<clus scale="   23.633">  2  9  1 -1</clus>
<clus scale="   90.374">  7  8 -1 -1</clus>
<clus scale="   91.427">  5  6 -1 -1</clus>
<clus scale="  100.554">  1  7  2 -1</clus>
<clus scale="   23.633">  2  5  1 -1</clus>
</clustering>
</event>
<event>
 9    1  0.1671478E-005  0.1011133E+03  0.7546771E-02  0.1279315E+00
         21   -1    0    0  501  502  0.00000000000E+00  0.00000000000E+00  0.14781906849E+03  0.14781906849E+03  0.00000000000E+00 0.  1.
          3   -1    0    0  502    0 -0.00000000000E+00 -0.00000000000E+00 -0.10576674089E+03  0.10576674089E+03  0.00000000000E+00 0. -1.
         23    2    1    2    0    0  0.23815974985E+02 -0.12402233829E+02 -0.80709863183E+01  0.94518035911E+02  0.90263515464E+02 0.  0.
         23    2    1    2    0    0 -0.42748021734E+02  0.42503573865E+02  0.20419407746E+02  0.11273382147E+03  0.93048455860E+02 0.  0.
        -11    1    3    3    0    0 -0.30045716624E+02 -0.18814978683E+02  0.10844746676E+02  0.37072321761E+02  0.00000000000E+00 0.  1.
         11    1    3    3    0    0  0.53861691609E+02  0.64127448536E+01 -0.18915732994E+02  0.57445714150E+02  0.00000000000E+00 0. -1.
        -11    1    4    4    0    0 -0.46487609041E+02  0.14371722332E+02  0.51359806264E+02  0.70749373825E+02  0.00000000000E+00 0.  1.
         11    1    4    4    0    0  0.37395873069E+01  0.28131851533E+02 -0.30940398518E+02  0.41984447649E+02  0.00000000000E+00 0. -1.
          3    1    1    2  501    0  0.18932046749E+02 -0.30101340036E+02  0.29703906174E+02  0.46333952001E+02  0.00000000000E+00 0. -1.
<scales pt_clust_5="13000.00000" pt_clust_6="13000.00000" pt_clust_7="13000.00000" pt_clust_8="13000.00000" pt_clust_9="35.55999"></scales>
<clustering>
<clus scale="   35.560">  1  9  2 -1</clus>
<clus scale="   90.264">  5  6 -1 -1</clus>
<clus scale="   93.048">  7  8 -1 -1</clus>
<clus scale="   98.557">  2  5  1 -1</clus>
<clus scale="   35.560">  1  5  2 -1</clus>
</clustering>
</event>
<event>
 9    1  0.1671478E-005  0.1431698E+03  0.7546771E-02  0.1209694E+00
         21   -1    0    0  501  502  0.00000000000E+00  0.00000000000E+00  0.61348082685E+02  0.61348082685E+02  0.00000000000E+00 0.  1.
          3   -1    0    0  502    0 -0.00000000000E+00 -0.00000000000E+00 -0.39786792945E+03  0.39786792945E+03  0.00000000000E+00 0. -1.
         23    2    1    2    0    0  0.47894204135E+02 -0.86983190543E+02 -0.18688350336E+03  0.23339428300E+03  0.98425186218E+02 0.  0.
         23    2    1    2    0    0 -0.36361827607E+02  0.10517609161E+03 -0.13687350068E+03  0.20078440676E+03  0.95894890662E+02 0.  0.
        -11    1    3    3    0    0  0.47857701882E+02 -0.11813397781E+02 -0.13028674715E+03  0.13930022426E+03  0.00000000000E+00 0. -1.
         11    1    3    3    0    0  0.36502253055E-01 -0.75169792762E+02 -0.56596756212E+02  0.94094058739E+02  0.00000000000E+00 0.  1.
        -11    1    4    4    0    0 -0.68545919116E+02  0.58013604316E+02 -0.82993467262E+02  0.12227852191E+03  0.00000000000E+00 0.  1.
         11    1    4    4    0    0  0.32184091509E+02  0.47162487291E+02 -0.53880033417E+02  0.78505884842E+02  0.00000000000E+00 0. -1.
          3    1    1    2  501    0 -0.11532376528E+02 -0.18192901063E+02 -0.12762842721E+02  0.25037322377E+02  0.00000000000E+00 0. -1.
<scales pt_clust_5="13000.00000" pt_clust_6="13000.00000" pt_clust_7="13000.00000" pt_clust_8="13000.00000" pt_clust_9="21.54013"></scales>
<clustering>
<clus scale="   21.540">  1  9  2 -1</clus>
<clus scale="   95.895">  7  8 -1 -1</clus>
<clus scale="   98.425">  5  6 -1 -1</clus>
<clus scale="  141.442">  1  7  2 -1</clus>
<clus scale="   21.540">  1  5  2 -1</clus>
</clustering>
</event>
<event>
 9    1  0.1671478E-005  0.1728971E+03  0.7546771E-02  0.1175575E+00
         -4   -1    0    0    0  501 -0.00000000000E+00  0.00000000000E+00  0.93922605414E+03  0.93922605414E+03  0.00000000000E+00 0.  1.
         21   -1    0    0  501  502  0.00000000000E+00 -0.00000000000E+00 -0.55612073751E+02  0.55612073751E+02  0.00000000000E+00 0.  1.
         23    2    1    2    0    0  0.10013493798E+03 -0.69350627506E+02  0.38867139977E+03  0.41667823665E+03  0.87856590889E+02 0.  0.
         23    2    1    2    0    0 -0.13507174819E+03  0.12606524691E+03  0.45662485895E+03  0.50131344334E+03  0.93124019584E+02 0.  0.
        -11    1    4    4    0    0 -0.12558991686E+03  0.81858726916E+02  0.40917416398E+03  0.43577192987E+03  0.00000000000E+00 0.  1.
         11    1    4    4    0    0 -0.94818313268E+01  0.44206519993E+02  0.47450694970E+02  0.65541513473E+02  0.00000000000E+00 0. -1.
        -13    1    3    3    0    0  0.11179025480E+03 -0.50696697897E+02  0.36119143605E+03  0.38147931756E+03  0.00000000000E+00 0.  1.
         13    1    3    3    0    0 -0.11655316813E+02 -0.18653929608E+02  0.27479963714E+02  0.35198919096E+02  0.00000000000E+00 0. -1.
         -4    1    1    2    0  502  0.34936810202E+02 -0.56714619403E+02  0.38317721674E+02  0.76846447904E+02  0.00000000000E+00 0.  1.
<scales pt_clust_5="13000.00000" pt_clust_6="13000.00000" pt_clust_7="13000.00000" pt_clust_8="13000.00000" pt_clust_9="66.61178"></scales>
<clustering>
<clus scale="   66.612">  2  9  1 -1</clus>
<clus scale="   87.857">  7  8 -1 -1</clus>
<clus scale="   93.124">  5  6 -1 -1</clus>
<clus scale="  170.118">  1  7  2 -1</clus>
<clus scale="   66.612">  2  5  1 -1</clus>
</clustering>
</event>
<event>
 9    1  0.1671478E-005  0.1528689E+03  0.7546771E-02  0.1197520E+00
         21   -1    0    0  501  502  0.00000000000E+00  0.00000000000E+00  0.97154665462E+02  0.97154665462E+02  0.00000000000E+00 0.  1.
         -3   -1    0    0    0  501 -0.00000000000E+00 -0.00000000000E+00 -0.64508603274E+03  0.64508603274E+03  0.00000000000E+00 0.  1.
         23    2    1    2    0    0 -0.13568883594E+03  0.31994602290E+01 -0.53176227429E+03  0.55594560447E+03  0.88784582109E+02 0.  0.
         23    2    1    2    0    0  0.72581457462E+02 -0.55961710796E+00 -0.31805816691E+02  0.12122576825E+03  0.91737101402E+02 0.  0.
        -13    1    3    3    0    0 -0.85326756616E+02 -0.38293721741E+02 -0.36706481376E+03  0.37879234683E+03  0.00000000000E+00 0. -1.
         13    1    3    3    0    0 -0.50362079328E+02  0.41493181970E+02 -0.16469746053E+03  0.17715325764E+03  0.00000000000E+00 0.  1.
        -13    1    4    4    0    0 -0.35679524396E+01  0.31020648279E+02  0.37446998460E+01  0.31448905883E+02  0.00000000000E+00 0.  1.
         13    1    4    4    0    0  0.76149409901E+02 -0.31580265387E+02 -0.35550516537E+02  0.89776862366E+02  0.00000000000E+00 0. -1.
         -3    1    1    2    0  502  0.63107378482E+02 -0.26398431210E+01  0.15636723707E+02  0.65069325484E+02  0.00000000000E+00 0.  1.
<scales pt_clust_5="13000.00000" pt_clust_6="13000.00000" pt_clust_7="13000.00000" pt_clust_8="13000.00000" pt_clust_9="63.16257"></scales>
<clustering>
<clus scale="   63.163">  1  9  2 -1</clus>
<clus scale="   88.785">  5  6 -1 -1</clus>
<clus scale="   91.737">  7  8 -1 -1</clus>
<clus scale="  151.116">  2  5  1 -1</clus>
<clus scale="   63.163">  1  5  2 -1</clus>
</clustering>
</event>
<event>
 9    1  0.1671478E-005  0.1186775E+03  0.7546771E-02  0.1250595E+00
         -1   -1    0    0    0  501 -0.00000000000E+00  0.00000000000E+00  0.43613392026E+02  0.43613392026E+02  0.00000000000E+00 0.  1.
         21   -1    0    0  501  502  0.00000000000E+00 -0.00000000000E+00 -0.79341912105E+03  0.79341912105E+03  0.00000000000E+00 0.  1.
         23    2    1    2    0    0 -0.24458620392E+02  0.46942625523E+02 -0.81124454287E+02  0.13314053772E+03  0.91342167150E+02 0.  0.
         23    2    1    2    0    0  0.93616862123E+02 -0.10337222637E+02 -0.40732817210E+03  0.43107653925E+03  0.10507029959E+03 0.  0.
        -11    1    3    3    0    0 -0.10175693019E+02 -0.20480307019E+02 -0.54772837598E+02  0.59355298353E+02  0.00000000000E+00 0. -1.
         11    1    3    3    0    0 -0.14282927374E+02  0.67422932542E+02 -0.26351616689E+02  0.73785239371E+02  0.00000000000E+00 0.  1.
        -11    1    4    4    0    0  0.89338847103E+02  0.33599004242E+02 -0.30624784127E+03  0.32077727939E+03  0.00000000000E+00 0.  1.
         11    1    4    4    0    0  0.42780150201E+01 -0.43936226879E+02 -0.10108033083E+03  0.11029925986E+03  0.00000000000E+00 0. -1.
         -1    1    1    2    0  502 -0.69158241731E+02 -0.36605402886E+02 -0.26135310264E+03  0.27281543610E+03  0.00000000000E+00 0.  1.
<scales pt_clust_5="13000.00000" pt_clust_6="13000.00000" pt_clust_7="13000.00000" pt_clust_8="13000.00000" pt_clust_9="78.24844"></scales>
<clustering>
<clus scale="   78.248">  2  9  1 -1</clus>
<clus scale="   91.342">  5  6 -1 -1</clus>
<clus scale="  105.070">  7  8 -1 -1</clus>
<clus scale="  106.714">  1  5  2 -1</clus>
<clus scale="   78.248">  2  5  1 -1</clus>
</clustering>
</event>
<event>
 9    1  0.1671478E-005  0.9233857E+02  0.7546771E-02  0.1299050E+00
          1   -1    0    0  502    0 -0.00000000000E+00  0.00000000000E+00  0.38082709129E+03  0.38082709129E+03  0.00000000000E+00 0. -1.
         21   -1    0    0  501  502  0.00000000000E+00 -0.00000000000E+00 -0.62073397727E+02  0.62073397727E+02  0.00000000000E+00 0.  1.
         23    2    1    2    0    0  0.10976177528E+02 -0.14362512060E+02  0.30535751909E+03  0.31837239341E+03  0.88266687914E+02 0.  0.
         23    2    1    2    0    0  0.14454248455E+02 -0.19551686853E+01  0.17402155531E+02  0.94048247264E+02  0.91266038664E+02 0.  0.
        -13    1    4    4    0    0  0.28258987368E+02 -0.25872030669E+02 -0.23314960053E+02  0.44849968788E+02  0.00000000000E+00 0.  1.
         13    1    4    4    0    0 -0.13804738914E+02  0.23916861984E+02  0.40717115583E+02  0.49198278476E+02  0.00000000000E+00 0. -1.
        -13    1    3    3    0    0 -0.27429280707E+02 -0.35960422628E+02  0.17592345756E+03  0.18164410355E+03  0.00000000000E+00 0. -1.
         13    1    3    3    0    0  0.38405458235E+02  0.21597910569E+02  0.12943406153E+03  0.13672828986E+03  0.00000000000E+00 0.  1.
          1    1    1    2  501    0 -0.25430425982E+02  0.16317680745E+02 -0.40059810604E+01  0.30479848340E+02  0.00000000000E+00 0. -1.
<scales pt_clust_5="13000.00000" pt_clust_6="13000.00000" pt_clust_7="13000.00000" pt_clust_8="13000.00000" pt_clust_9="30.21545"></scales>
<clustering>
<clus scale="   30.215">  2  9  1 -1</clus>
<clus scale="   88.267">  7  8 -1 -1</clus>
<clus scale="   89.375">  1  7  2 -1</clus>
<clus scale="   91.266">  5  6 -1 -1</clus>
<clus scale="   30.215">  2  5  1 -1</clus>
</clustering>
</event>
<event>
 9    1  0.1671478E-005  0.1358332E+03  0.7546771E-02  0.1229476E+00
         21   -1    0    0  501  502  0.00000000000E+00  0.00000000000E+00  0.97492134939E+02  0.97492134939E+02  0.00000000000E+00 0. -1.
          2   -1    0    0  502    0 -0.00000000000E+00 -0.00000000000E+00 -0.33935770523E+03  0.33935770523E+03  0.00000000000E+00 0. -1.
         23    2    1    2    0    0 -0.36264078482E+02  0.50979501581E+02 -0.11566709333E+03  0.15913444763E+03  0.89615305475E+02 0.  0.
         23    2    1    2    0    0 -0.81637320316E+02 -0.97548037249E+01 -0.64189060979E+02  0.13826868865E+03  0.90764455867E+02 0.  0.
        -11    1    3    3    0    0 -0.63003302447E+02  0.47005169728E+02 -0.66224429574E+02  0.10278412899E+03  0.00000000000E+00 0. -1.
         11    1    3    3    0    0  0.26739223965E+02  0.39743318531E+01 -0.49442663755E+02  0.56350318642E+02  0.00000000000E+00 0.  1.
        -13    1    4    4    0    0 -0.46825670553E+02 -0.31462577881E+02  0.62441261277E+01  0.56758491354E+02  0.00000000000E+00 0.  1.
         13    1    4    4    0    0 -0.34811649762E+02  0.21707774156E+02 -0.70433187107E+02  0.81510197301E+02  0.00000000000E+00 0. -1.
          2    1    1    2  501    0  0.11790139880E+03 -0.41224697856E+02 -0.62009415979E+02  0.13944670388E+03  0.00000000000E+00 0. -1.
<scales pt_clust_5="13000.00000" pt_clust_6="13000.00000" pt_clust_7="13000.00000" pt_clust_8="13000.00000" pt_clust_9="101.05687"></scales>
<clustering>
<clus scale="   89.615">  5  6 -1 -1</clus>
<clus scale="   90.764">  7  8 -1 -1</clus>
<clus scale="  109.293">  2  5  1 -1</clus>
<clus scale="  101.057">  1  9  2 -1</clus>
<clus scale="  101.057">  1  5  2 -1</clus>
</clustering>
</event>
<event>
 9    1  0.1671478E-005  0.1122686E+03  0.7546771E-02  0.1256882E+00
         21   -1    0    0  501  502  0.00000000000E+00  0.00000000000E+00  0.24365075786E+02  0.24365075786E+02  0.00000000000E+00 0.  1.
         -1   -1    0    0    0  501 -0.00000000000E+00 -0.00000000000E+00 -0.83806945921E+03  0.83806945921E+03  0.00000000000E+00 0.  1.
         23    2    1    2    0    0  0.38844426103E+02 -0.61006830664E+02 -0.56474946023E+03  0.57668675119E+03  0.91623868787E+02 0.  0.
         23    2    1    2    0    0 -0.44483004546E+02  0.25786391287E+02 -0.17325331626E+03  0.20206381755E+03  0.90384728246E+02 0.  0.
        -11    1    4    4    0    0  0.25418779462E+02 -0.58133777739E+01 -0.58287069347E+02  0.63853677761E+02  0.00000000000E+00 0. -1.
         11    1    4    4    0    0 -0.69901784008E+02  0.31599769061E+02 -0.11496624691E+03  0.13821013979E+03  0.00000000000E+00 0.  1.
        -11    1    3    3    0    0  0.14270567989E+02  0.20441936392E+02 -0.62602304169E+02  0.67383754432E+02  0.00000000000E+00 0. -1.
         11    1    3    3    0    0  0.24573858114E+02 -0.81448767056E+02 -0.50214715606E+03  0.50930299675E+03  0.00000000000E+00 0.  1.
         -1    1    1    2    0  502  0.56385784431E+01  0.35220439377E+02 -0.75701606932E+02  0.83683966259E+02  0.00000000000E+00 0.  1.
<scales pt_clust_5="13000.00000" pt_clust_6="13000.00000" pt_clust_7="13000.00000" pt_clust_8="13000.00000" pt_clust_9="35.66893"></scales>
<clustering>
<clus scale="   35.669">  1  9  2 -1</clus>
<clus scale="   90.385">  5  6 -1 -1</clus>
<clus scale="   91.624">  7  8 -1 -1</clus>
<clus scale="  111.260">  1  5  2 -1</clus>
<clus scale="   35.669">  1  5  2 -1</clus>
</clustering>
</event>
<event>
 9    1  0.1671478E-005  0.1547277E+03  0.7546771E-02  0.1197834E+00
          2   -1    0    0  502    0 -0.00000000000E+00  0.00000000000E+00  0.10859493243E+04  0.10859493243E+04  0.00000000000E+00 0. -1.
         21   -1    0    0  501  502  0.00000000000E+00 -0.00000000000E+00 -0.64174759982E+02  0.64174759982E+02  0.00000000000E+00 0. -1.
         23    2    1    2    0    0  0.81498253325E+02  0.12185080571E+03  0.68715269436E+03  0.70874677806E+03  0.93024652131E+02 0.  0.
         23    2    1    2    0    0 -0.10895230228E+03 -0.27950855191E+02  0.31325898341E+03  0.34124090712E+03  0.75248332365E+02 0.  0.
        -11    1    4    4    0    0 -0.62361678957E+02 -0.51024564030E+02  0.22256358005E+03  0.23670030060E+03  0.00000000000E+00 0. -1.
         11    1    4    4    0    0 -0.46590623321E+02  0.23073708839E+02  0.90695403360E+02  0.10454060652E+03  0.00000000000E+00 0.  1.
        -13    1    3    3    0    0  0.68617730565E+02  0.34739746432E+02  0.21238775242E+03  0.22588448443E+03  0.00000000000E+00 0.  1.
         13    1    3    3    0    0  0.12880522760E+02  0.87111059275E+02  0.47476494194E+03  0.48286229363E+03  0.00000000000E+00 0. -1.
          2    1    1    2  501    0  0.27454048953E+02 -0.93899950516E+02  0.21362886595E+02  0.10013639915E+03  0.00000000000E+00 0. -1.
<scales pt_clust_5="13000.00000" pt_clust_6="13000.00000" pt_clust_7="13000.00000" pt_clust_8="13000.00000" pt_clust_9="97.83111"></scales>
<clustering>
<clus scale="   75.248">  5  6 -1 -1</clus>
<clus scale="   93.025">  7  8 -1 -1</clus>
<clus scale="   97.831">  2  9  1 -1</clus>
<clus scale="  144.739">  2  5  1 -1</clus>
<clus scale="   97.831">  2  5  1 -1</clus>
</clustering>
</event>
<event>
 9    1  0.1671478E-005  0.1741356E+03  0.7546771E-02  0.1174042E+00
         -1   -1    0    0    0  501 -0.00000000000E+00  0.00000000000E+00  0.74311619930E+03  0.74311619930E+03  0.00000000000E+00 0.  1.
         21   -1    0    0  501  502  0.00000000000E+00 -0.00000000000E+00 -0.82278625091E+02  0.82278625091E+02  0.00000000000E+00 0.  1.
         23    2    1    2    0    0  0.70377900765E+02  0.13524599779E+03  0.36446137797E+03  0.40471330052E+03  0.87842078511E+02 0.  0.
         23    2    1    2    0    0 -0.43713198151E+02 -0.13851401487E+03  0.33340787452E+03  0.37493186269E+03  0.91192734691E+02 0.  0.
        -11    1    4    4    0    0 -0.65963600818E+02 -0.11204158165E+03  0.21198717939E+03  0.24868268310E+03  0.00000000000E+00 0.  1.
         11    1    4    4    0    0  0.22250402667E+02 -0.26472433219E+02  0.12142069514E+03  0.12624917959E+03  0.00000000000E+00 0. -1.
        -13    1    3    3    0    0 -0.19792390368E+02  0.24259877253E+02  0.46288098015E+02  0.55882630384E+02  0.00000000000E+00 0. -1.
         13    1    3    3    0    0  0.90170291133E+02  0.11098612054E+03  0.31817327995E+03  0.34883067014E+03  0.00000000000E+00 0.  1.
         -1    1    1    2    0  502 -0.26664702614E+02  0.32680170815E+01 -0.37031678282E+02  0.45749661174E+02  0.00000000000E+00 0.  1.
<scales pt_clust_5="13000.00000" pt_clust_6="13000.00000" pt_clust_7="13000.00000" pt_clust_8="13000.00000" pt_clust_9="26.86422"></scales>
<clustering>
<clus scale="   26.864">  2  9  1 -1</clus>
<clus scale="   87.842">  7  8 -1 -1</clus>
<clus scale="   91.193">  5  6 -1 -1</clus>
<clus scale="  172.404">  1  7  2 -1</clus>
<clus scale="   26.864">  2  5  1 -1</clus>
</clustering>
</event>
<event>
 9    1  0.1671478E-005  0.1683292E+03  0.7546771E-02  0.1204086E+00
         21   -1    0    0  501  502  0.00000000000E+00  0.00000000000E+00  0.58475495946E+03  0.58475495946E+03  0.00000000000E+00 0. -1.
          1   -1    0    0  502    0 -0.00000000000E+00 -0.00000000000E+00 -0.86615881387E+02  0.86615881387E+02  0.00000000000E+00 0. -1.
         23    2    1    2    0    0 -0.44599263485E+01  0.37435996471E+02  0.20805525254E+02  0.10034233299E+03  0.90633156922E+02 0.  0.
         23    2    1    2    0    0  0.12459580472E+02 -0.16006942768E+03  0.33933044792E+03  0.38623724757E+03  0.90865811540E+02 0.  0.
        -11    1    4    4    0    0 -0.11081173924E+02 -0.21880290885E+02  0.69287189393E+01  0.25486205894E+02  0.00000000000E+00 0.  1.
         11    1    4    4    0    0  0.23540754396E+02 -0.13818913679E+03  0.33240172898E+03  0.36075104168E+03  0.00000000000E+00 0. -1.
        -13    1    3    3    0    0 -0.27902368496E+02  0.55300756028E+01  0.45514826248E+02  0.53672370101E+02  0.00000000000E+00 0.  1.
         13    1    3    3    0    0  0.23442442148E+02  0.31905920869E+02 -0.24709300994E+02  0.46669962888E+02  0.00000000000E+00 0. -1.
          1    1    1    2  501    0 -0.79996541234E+01  0.12263343120E+03  0.13800310490E+03  0.18479126028E+03  0.00000000000E+00 0. -1.
<scales pt_clust_5="13000.00000" pt_clust_6="13000.00000" pt_clust_7="13000.00000" pt_clust_8="13000.00000" pt_clust_9="141.69733"></scales>
<clustering>
<clus scale="   90.633">  7  8 -1 -1</clus>
<clus scale="   90.866">  5  6 -1 -1</clus>
<clus scale="   98.162">  2  7  1 -1</clus>
<clus scale="  141.697">  1  9  2 -1</clus>
<clus scale="  141.697">  1  5  2 -1</clus>
</clustering>
</event>
<event>
 9    1  0.1671478E-005  0.1093063E+03  0.7546771E-02  0.1268376E+00
          1   -1    0    0  502    0 -0.00000000000E+00  0.00000000000E+00  0.40699305704E+03  0.40699305704E+03  0.00000000000E+00 0. -1.
         21   -1    0    0  501  502  0.00000000000E+00 -0.00000000000E+00 -0.80708219237E+02  0.80708219237E+02  0.00000000000E+00 0. -1.
         23    2    1    2    0    0  0.49437100158E+02  0.78089963606E+01  0.28456014948E+03  0.30682259771E+03  0.10325028086E+03 0.  0.
         23    2    1    2    0    0 -0.10115252538E+02  0.18405459919E+02  0.78685223458E+02  0.12088295725E+03  0.89332220808E+02 0.  0.
        -11    1    3    3    0    0 -0.56785186271E+01  0.20850268555E+02  0.58105384454E+01  0.22377256973E+02  0.00000000000E+00 0.  1.
         11    1    3    3    0    0  0.55115618785E+02 -0.13041272194E+02  0.27874961103E+03  0.28444534073E+03  0.00000000000E+00 0. -1.
        -13    1    4    4    0    0 -0.28320715758E+02 -0.28509905300E+02  0.25141684404E+02  0.47402341038E+02  0.00000000000E+00 0.  1.
         13    1    4    4    0    0  0.18205463220E+02  0.46915365219E+02  0.53543539054E+02  0.73480616213E+02  0.00000000000E+00 0. -1.
          1    1    1    2  501    0 -0.39321847621E+02 -0.26214456280E+02 -0.36960535137E+02  0.59995721314E+02  0.00000000000E+00 0. -1.
<scales pt_clust_5="13000.00000" pt_clust_6="13000.00000" pt_clust_7="13000.00000" pt_clust_8="13000.00000" pt_clust_9="47.25892"></scales>
<clustering>
<clus scale="   47.259">  2  9  1 -1</clus>
<clus scale="   89.332">  7  8 -1 -1</clus>
<clus scale="   96.268">  2  7  1 -1</clus>
<clus scale="  103.250">  5  6 -1 -1</clus>
<clus scale="   47.259">  2  5  1 -1</clus>
</clustering>
</event>
<event>
 9    1  0.1671478E-005  0.1407169E+03  0.7546771E-02  0.1229634E+00
          1   -1    0    0  502    0 -0.00000000000E+00  0.00000000000E+00  0.57364166259E+03  0.57364166259E+03  0.00000000000E+00 0. -1.
         21   -1    0    0  501  502  0.00000000000E+00 -0.00000000000E+00 -0.98055033556E+02  0.98055033556E+02  0.00000000000E+00 0. -1.
         23    2    1    2    0    0 -0.53784527183E+01 -0.36738022851E+02  0.19036423226E+03  0.21410116899E+03  0.90676124544E+02 0.  0.
         23    2    1    2    0    0 -0.48354978520E+02 -0.60110312004E+02  0.31989974688E+03  0.34153778202E+03  0.91437163851E+02 0.  0.
        -11    1    4    4    0    0 -0.21750509816E+02  0.19469975925E+02  0.41293130076E+02  0.50569627557E+02  0.00000000000E+00 0.  1.
         11    1    4    4    0    0 -0.26604468704E+02 -0.79580287929E+02  0.27860661680E+03  0.29096815446E+03  0.00000000000E+00 0. -1.
        -11    1    3    3    0    0 -0.43352021763E+02 -0.41124997395E+02  0.11681894534E+03  0.13121482078E+03  0.00000000000E+00 0.  1.
         11    1    3    3    0    0  0.37973569045E+02  0.43869745435E+01  0.73545286921E+02  0.82886348212E+02  0.00000000000E+00 0. -1.
          1    1    1    2  501    0  0.53733431238E+02  0.96848334855E+02 -0.34677350106E+02  0.11605774514E+03  0.00000000000E+00 0. -1.
<scales pt_clust_5="13000.00000" pt_clust_6="13000.00000" pt_clust_7="13000.00000" pt_clust_8="13000.00000" pt_clust_9="106.96026"></scales>
<clustering>
<clus scale="   90.676">  7  8 -1 -1</clus>
<clus scale="   91.437">  5  6 -1 -1</clus>
<clus scale="   97.984">  1  7  2 -1</clus>
<clus scale="  106.960">  2  9  1 -1</clus>
<clus scale="  106.960">  2  5  1 -1</clus>
</clustering>
</event>
<event>
 9    1  0.1671478E-005  0.9139405E+02  0.7546771E-02  0.1299513E+00
         -3   -1    0    0    0  501 -0.00000000000E+00  0.00000000000E+00  0.11189977164E+03  0.11189977164E+03  0.00000000000E+00 0.  1.
         21   -1    0    0  501  502  0.00000000000E+00 -0.00000000000E+00 -0.10797471474E+03  0.10797471474E+03  0.00000000000E+00 0. -1.
         23    2    1    2    0    0 -0.87237090045E+01 -0.90357127864E+01  0.36299595708E+02  0.99001434744E+02  0.91246239530E+02 0.  0.
         23    2    1    2    0    0 -0.23674648570E+01 -0.88846267306E+01 -0.13714662804E+02  0.92724451695E+02  0.91242481797E+02 0.  0.
        -13    1    3    3    0    0 -0.39801241987E+02 -0.32782894847E+02  0.29176089081E+02  0.59246107318E+02  0.00000000000E+00 0.  1.
         13    1    3    3    0    0  0.31077532983E+02  0.23747182060E+02  0.71235066267E+01  0.39755327426E+02  0.00000000000E+00 0. -1.
        -13    1    4    4    0    0  0.19019600605E+02 -0.44969720677E+02 -0.79462101659E+00  0.48832902919E+02  0.00000000000E+00 0.  1.
         13    1    4    4    0    0 -0.21387065461E+02  0.36085093947E+02 -0.12920041787E+02  0.43891548776E+02  0.00000000000E+00 0. -1.
         -3    1    1    2    0  502  0.11091173862E+02  0.17920339517E+02 -0.18659876002E+02  0.28148599938E+02  0.00000000000E+00 0.  1.
<scales pt_clust_5="13000.00000" pt_clust_6="13000.00000" pt_clust_7="13000.00000" pt_clust_8="13000.00000" pt_clust_9="21.07493"></scales>
<clustering>
<clus scale="   21.075">  2  9  1 -1</clus>
<clus scale="   91.242">  7  8 -1 -1</clus>
<clus scale="   91.246">  5  6 -1 -1</clus>
<clus scale="   91.390">  2  7  1 -1</clus>
<clus scale="   21.075">  2  5  1 -1</clus>
</clustering>
</event>
<event>
 9    1  0.1671478E-005  0.9699762E+02  0.7546771E-02  0.1288032E+00
          1   -1    0    0  502    0 -0.00000000000E+00  0.00000000000E+00  0.60822421073E+03  0.60822421073E+03  0.00000000000E+00 0. -1.
         21   -1    0    0  501  502  0.00000000000E+00 -0.00000000000E+00 -0.23718412077E+02  0.23718412077E+02  0.00000000000E+00 0.  1.
         23    2    1    2    0    0  0.98758404429E+01 -0.21438511735E+02  0.28460882326E+03  0.29926279907E+03  0.89436561997E+02 0.  0.
         23    2    1    2    0    0  0.42914698835E+01  0.41934673647E+02  0.28768070983E+03  0.30493018447E+03  0.91898275407E+02 0.  0.
        -11    1    3    3    0    0 -0.37221370816E+02 -0.20195188911E+02  0.97228150531E+02  0.10604993803E+03  0.00000000000E+00 0.  1.
         11    1    3    3    0    0  0.47097211259E+02 -0.12433228238E+01  0.18738067273E+03  0.19321286104E+03  0.00000000000E+00 0. -1.
        -11    1    4    4    0    0 -0.31525329646E+02  0.33628135717E+02  0.67726962740E+02  0.81924595837E+02  0.00000000000E+00 0.  1.
         11    1    4    4    0    0  0.35816799529E+02  0.83065379293E+01  0.21995374709E+03  0.22300558863E+03  0.00000000000E+00 0. -1.
          1    1    1    2  501    0 -0.14167310326E+02 -0.20496161912E+02  0.12216265557E+02  0.27749639262E+02  0.00000000000E+00 0. -1.
<scales pt_clust_5="13000.00000" pt_clust_6="13000.00000" pt_clust_7="13000.00000" pt_clust_8="13000.00000" pt_clust_9="24.91597"></scales>
<clustering>
<clus scale="   24.916">  2  9  1 -1</clus>
<clus scale="   89.437">  5  6 -1 -1</clus>
<clus scale="   91.898">  7  8 -1 -1</clus>
<clus scale="   94.669">  1  5  2 -1</clus>
<clus scale="   24.916">  2  5  1 -1</clus>
</clustering>
</event>
<event>
 9    1  0.1671478E-005  0.1903393E+03  0.7546771E-02  0.1158510E+00
         21   -1    0    0  501  502  0.00000000000E+00  0.00000000000E+00  0.41728896438E+02  0.41728896438E+02  0.00000000000E+00 0. -1.
          1   -1    0    0  502    0 -0.00000000000E+00 -0.00000000000E+00 -0.12009728809E+04  0.12009728809E+04  0.00000000000E+00 0. -1.
         23    2    1    2    0    0 -0.17010181208E+03  0.49110382369E+02 -0.66392351832E+03  0.69435859132E+03  0.99964788996E+02 0.  0.
         23    2    1    2    0    0  0.14742929768E+03 -0.68291481589E+01 -0.44530408046E+03  0.47903673240E+03  0.96945509659E+02 0.  0.
        -11    1    3    3    0    0 -0.78222956645E+02  0.35926534702E+02 -0.48716307700E+03  0.49470942020E+03  0.00000000000E+00 0. -1.
         11    1    3    3    0    0 -0.91878855437E+02  0.13183847667E+02 -0.17676044132E+03  0.19964917113E+03  0.00000000000E+00 0.  1.
        -13    1    4    4    0    0 -0.49804184004E+01 -0.22710947700E+02 -0.53542261154E+02  0.58372642928E+02  0.00000000000E+00 0.  1.
         13    1    4    4    0    0  0.15240971608E+03  0.15881799541E+02 -0.39176181930E+03  0.42066408948E+03  0.00000000000E+00 0. -1.
          1    1    1    2  501    0  0.22672514399E+02 -0.42281234210E+02 -0.50016385710E+02  0.69306453631E+02  0.00000000000E+00 0. -1.
<scales pt_clust_5="13000.00000" pt_clust_6="13000.00000" pt_clust_7="13000.00000" pt_clust_8="13000.00000" pt_clust_9="47.97651"></scales>
<clustering>
<clus scale="   47.977">  1  9  2 -1</clus>
<clus scale="   96.946">  7  8 -1 -1</clus>
<clus scale="   99.965">  5  6 -1 -1</clus>
<clus scale="  188.771">  1  7  2 -1</clus>
<clus scale="   47.977">  1  5  2 -1</clus>
</clustering>
</event>
<event>
 9    1  0.1671478E-005  0.1033446E+03  0.7546771E-02  0.1277055E+00
         21   -1    0    0  501  502  0.00000000000E+00  0.00000000000E+00  0.87320574225E+02  0.87320574225E+02  0.00000000000E+00 0. -1.
          1   -1    0    0  502    0 -0.00000000000E+00 -0.00000000000E+00 -0.69821571115E+03  0.69821571115E+03  0.00000000000E+00 0. -1.
         23    2    1    2    0    0  0.17407952590E+02 -0.37081786312E+02 -0.38272959871E+03  0.39706605521E+03  0.97475180361E+02 0.  0.
         23    2    1    2    0    0  0.77123029005E+01  0.30704689168E+02 -0.29856383140E+03  0.31345280361E+03  0.90055766696E+02 0.  0.
        -11    1    4    4    0    0  0.40790151765E+01 -0.32028776683E+02 -0.89292531536E+02  0.94950708732E+02  0.00000000000E+00 0.  1.
         11    1    4    4    0    0  0.36332877240E+01  0.62733465851E+02 -0.20927129987E+03  0.21850209488E+03  0.00000000000E+00 0. -1.
        -13    1    3    3    0    0  0.46074855477E+02  0.87976621077E+01 -0.23749145893E+03  0.24207949981E+03  0.00000000000E+00 0. -1.
         13    1    3    3    0    0 -0.28666902887E+02 -0.45879448419E+02 -0.14523813978E+03  0.15498655540E+03  0.00000000000E+00 0.  1.
          1    1    1    2  501    0 -0.25120255491E+02  0.63770971434E+01  0.70398293183E+02  0.75017426555E+02  0.00000000000E+00 0. -1.
<scales pt_clust_5="13000.00000" pt_clust_6="13000.00000" pt_clust_7="13000.00000" pt_clust_8="13000.00000" pt_clust_9="25.91707"></scales>
<clustering>
<clus scale="   25.917">  1  9  2 -1</clus>
<clus scale="   90.056">  5  6 -1 -1</clus>
<clus scale="   96.378">  1  5  2 -1</clus>
<clus scale="   97.475">  7  8 -1 -1</clus>
<clus scale="   25.917">  1  5  2 -1</clus>
</clustering>
</event>
<event>
 9    1  0.1671478E-005  0.1363321E+03  0.7546771E-02  0.1236925E+00
          2   -1    0    0  502    0 -0.00000000000E+00  0.00000000000E+00  0.10094529703E+04  0.10094529703E+04  0.00000000000E+00 0. -1.
         21   -1    0    0  501  502  0.00000000000E+00 -0.00000000000E+00 -0.30419616002E+02  0.30419616002E+02  0.00000000000E+00 0. -1.
         23    2    1    2    0    0 -0.98790299407E+01 -0.20454226780E+02  0.27076419073E+03  0.28621345045E+03  0.89938432331E+02 0.  0.
         23    2    1    2    0    0  0.48700177177E+02 -0.82363877930E+02  0.25753327520E+03  0.28971788398E+03  0.91964932542E+02 0.  0.
        -11    1    4    4    0    0  0.76043600914E+02 -0.66885334099E+02  0.19869265679E+03  0.22301356241E+03  0.00000000000E+00 0. -1.
         11    1    4    4    0    0 -0.27343423738E+02 -0.15478543832E+02  0.58840618412E+02  0.66704321569E+02  0.00000000000E+00 0.  1.
        -13    1    3    3    0    0 -0.41878037307E+02 -0.17161577627E+02  0.22935552123E+03  0.23377819589E+03  0.00000000000E+00 0.  1.
         13    1    3    3    0    0  0.31999007366E+02 -0.32926491528E+01  0.41408669507E+02  0.52435254564E+02  0.00000000000E+00 0. -1.
          2    1    1    2  501    0 -0.38821147236E+02  0.10281810471E+03  0.45073588839E+03  0.46394125190E+03  0.00000000000E+00 0. -1.
<scales pt_clust_5="13000.00000" pt_clust_6="13000.00000" pt_clust_7="13000.00000" pt_clust_8="13000.00000" pt_clust_9="100.64249"></scales>
<clustering>
<clus scale="   89.938">  7  8 -1 -1</clus>
<clus scale="   91.965">  5  6 -1 -1</clus>
<clus scale="   92.763">  1  7  2 -1</clus>
<clus scale="  100.642">  2  9  1 -1</clus>
<clus scale="  100.642">  2  5  1 -1</clus>
</clustering>
</event>
<event>
 9    1  0.1671478E-005  0.1827576E+03  0.7546771E-02  0.1165541E+00
         21   -1    0    0  501  502  0.00000000000E+00  0.00000000000E+00  0.10768073619E+03  0.10768073619E+03  0.00000000000E+00 0. -1.
          2   -1    0    0  502    0 -0.00000000000E+00 -0.00000000000E+00 -0.65556922440E+03  0.65556922440E+03  0.00000000000E+00 0. -1.
         23    2    1    2    0    0  0.13582527375E+03 -0.41718060660E+02 -0.33004123900E+03  0.37061728139E+03  0.90780219488E+02 0.  0.
         23    2    1    2    0    0 -0.18271491200E+03  0.11105823953E+03 -0.11588010543E+03  0.26070846993E+03  0.93925693104E+02 0.  0.
        -11    1    4    4    0    0 -0.58316145145E+02  0.48653514042E+02  0.53543674491E+01  0.76135448143E+02  0.00000000000E+00 0.  1.
         11    1    4    4    0    0 -0.12439876685E+03  0.62404725492E+02 -0.12123447288E+03  0.18457302179E+03  0.00000000000E+00 0. -1.
        -13    1    3    3    0    0  0.35057191251E+02  0.28176599723E+02 -0.10734823744E+03  0.11638973972E+03  0.00000000000E+00 0.  1.
         13    1    3    3    0    0  0.10076808250E+03 -0.69894660384E+02 -0.22269300156E+03  0.25422754167E+03  0.00000000000E+00 0. -1.
          2    1    1    2  501    0  0.46889638244E+02 -0.69340178874E+02 -0.10196714378E+03  0.13192420927E+03  0.00000000000E+00 0. -1.
<scales pt_clust_5="13000.00000" pt_clust_6="13000.00000" pt_clust_7="13000.00000" pt_clust_8="13000.00000" pt_clust_9="83.70607"></scales>
<clustering>
<clus scale="   83.706">  1  9  2 -1</clus>
<clus scale="   90.780">  7  8 -1 -1</clus>
<clus scale="   93.926">  5  6 -1 -1</clus>
<clus scale="  181.161">  2  7  1 -1</clus>
<clus scale="   83.706">  1  5  2 -1</clus>
</clustering>
</event>
<event>
 9    1  0.1671478E-005  0.9401224E+02  0.7546771E-02  0.1297298E+00
         21   -1    0    0  501  502  0.00000000000E+00  0.00000000000E+00  0.31754574295E+02  0.31754574295E+02  0.00000000000E+00 0.  1.
          2   -1    0    0  502    0 -0.00000000000E+00 -0.00000000000E+00 -0.43805245025E+03  0.43805245025E+03  0.00000000000E+00 0. -1.
         23    2    1    2    0    0 -0.24629334473E+02 -0.15434321650E+01 -0.20852821451E+03  0.22979051287E+03  0.93331009104E+02 0.  0.
         23    2    1    2    0    0 -0.69225201205E+01  0.13254082091E+02 -0.18338805413E+03  0.20341747509E+03  0.86740410400E+02 0.  0.
        -11    1    3    3    0    0  0.15394734702E+02  0.31718906562E+02 -0.13617544519E+03  0.14066569860E+03  0.00000000000E+00 0.  1.
         11    1    3    3    0    0 -0.40024069174E+02 -0.33262338727E+02 -0.72352769316E+02  0.89124814269E+02  0.00000000000E+00 0. -1.
        -13    1    4    4    0    0  0.19630324470E+02 -0.22868249337E+02 -0.13120104256E+03  0.13461805241E+03  0.00000000000E+00 0. -1.
         13    1    4    4    0    0 -0.26552844591E+02  0.36122331429E+02 -0.52187011569E+02  0.68799422674E+02  0.00000000000E+00 0.  1.
          2    1    1    2  501    0  0.31551854593E+02 -0.11710649926E+02 -0.14381607316E+02  0.36599036585E+02  0.00000000000E+00 0. -1.
<scales pt_clust_5="13000.00000" pt_clust_6="13000.00000" pt_clust_7="13000.00000" pt_clust_8="13000.00000" pt_clust_9="33.65500"></scales>
<clustering>
<clus scale="   33.655">  1  9  2 -1</clus>
<clus scale="   86.740">  7  8 -1 -1</clus>
<clus scale="   87.473">  1  7  2 -1</clus>
<clus scale="   93.331">  5  6 -1 -1</clus>
<clus scale="   33.655">  1  5  2 -1</clus>
</clustering>
</event>
<event>
 9    1  0.1671478E-005  0.1608372E+03  0.7546771E-02  0.1207270E+00
         21   -1    0    0  501  502  0.00000000000E+00  0.00000000000E+00  0.97219786995E+02  0.97219786995E+02  0.00000000000E+00 0.  1.
         -3   -1    0    0    0  501 -0.00000000000E+00 -0.00000000000E+00 -0.59313667182E+03  0.59313667182E+03  0.00000000000E+00 0.  1.
         23    2    1    2    0    0  0.10960018184E+02  0.52446965454E+02 -0.10679806071E+03  0.14982399161E+03  0.90391351948E+02 0.  0.
         23    2    1    2    0    0  0.67224972833E+02 -0.15183773244E+03 -0.36569344966E+03  0.41192389225E+03  0.91518850083E+02 0.  0.
        -13    1    3    3    0    0 -0.28562291184E+02  0.48362911415E+02 -0.91263201275E+02  0.10716224888E+03  0.00000000000E+00 0. -1.
         13    1    3    3    0    0  0.39522309368E+02  0.40840540392E+01 -0.15534859437E+02  0.42661742732E+02  0.00000000000E+00 0.  1.
        -13    1    4    4    0    0  0.78543550207E+01 -0.68888454024E+02 -0.67499794185E+02  0.96765346098E+02  0.00000000000E+00 0.  1.
         13    1    4    4    0    0  0.59370617813E+02 -0.82949278415E+02 -0.29819365547E+03  0.31515854615E+03  0.00000000000E+00 0. -1.
         -3    1    1    2    0  502 -0.78184991018E+02  0.99390766984E+02 -0.23425374452E+02  0.12860857495E+03  0.00000000000E+00 0.  1.
<scales pt_clust_5="13000.00000" pt_clust_6="13000.00000" pt_clust_7="13000.00000" pt_clust_8="13000.00000" pt_clust_9="132.26070"></scales>
<clustering>
<clus scale="   90.391">  5  6 -1 -1</clus>
<clus scale="   91.519">  7  8 -1 -1</clus>
<clus scale="  105.078">  2  5  1 -1</clus>
<clus scale="  132.261">  1  9  2 -1</clus>
<clus scale="  132.261">  1  5  2 -1</clus>
</clustering>
</event>
<event>
 9    1  0.1671478E-005  0.1227789E+03  0.7546771E-02  0.1238695E+00
         21   -1    0    0  501  502  0.00000000000E+00  0.00000000000E+00  0.13660313355E+03  0.13660313355E+03  0.00000000000E+00 0. -1.
          3   -1    0    0  502    0 -0.00000000000E+00 -0.00000000000E+00 -0.71428169800E+03  0.71428169800E+03  0.00000000000E+00 0. -1.
         23    2    1    2    0    0 -0.45368261433E+02  0.56708667198E+02 -0.35693591480E+03  0.37539549264E+03  0.90798549210E+02 0.  0.
         23    2    1    2    0    0  0.56251489969E+02 -0.76939903557E+02 -0.33443148174E+03  0.35950270982E+03  0.91180060894E+02 0.  0.
        -11    1    4    4    0    0 -0.57284618254E+00 -0.38229397877E+02 -0.33554962504E+02  0.50869937325E+02  0.00000000000E+00 0.  1.
         11    1    4    4    0    0  0.56824336152E+02 -0.38710505680E+02 -0.30087651924E+03  0.30863277250E+03  0.00000000000E+00 0. -1.
        -13    1    3    3    0    0  0.25042439354E+02  0.16994008532E+01 -0.53833474202E+02  0.59397429883E+02  0.00000000000E+00 0. -1.
         13    1    3    3    0    0 -0.70410700787E+02  0.55009266345E+02 -0.30310244060E+03  0.31599806275E+03  0.00000000000E+00 0.  1.
          3    1    1    2  501    0 -0.10883228537E+02  0.20231236359E+02  0.11368883209E+03  0.11598662910E+03  0.00000000000E+00 0. -1.
<scales pt_clust_5="13000.00000" pt_clust_6="13000.00000" pt_clust_7="13000.00000" pt_clust_8="13000.00000" pt_clust_9="22.97276"></scales>
<clustering>
<clus scale="   22.973">  1  9  2 -1</clus>
<clus scale="   90.799">  7  8 -1 -1</clus>
<clus scale="   91.180">  5  6 -1 -1</clus>
<clus scale="  122.496">  2  7  1 -1</clus>
<clus scale="   22.973">  1  5  2 -1</clus>
</clustering>
</event>
<event>
 9    1  0.1671478E-005  0.1052244E+03  0.7546771E-02  0.1271157E+00
         21   -1    0    0  501  502  0.00000000000E+00  0.00000000000E+00  0.14491659506E+03  0.14491659506E+03  0.00000000000E+00 0. -1.
          3   -1    0    0  502    0 -0.00000000000E+00 -0.00000000000E+00 -0.19812348321E+03  0.19812348321E+03  0.00000000000E+00 0. -1.
         23    2    1    2    0    0  0.31228526112E+02 -0.25835266834E+02 -0.75167869213E+02  0.12332652954E+03  0.88974954177E+02 0.  0.
         23    2    1    2    0    0 -0.42618424145E+02  0.47854762058E+02 -0.64609757399E+02  0.12966311450E+03  0.92367170475E+02 0.  0.
        -11    1    3    3    0    0  0.52217284203E+02 -0.27774781459E+02 -0.82057484352E+02  0.10115094657E+03  0.00000000000E+00 0. -1.
         11    1    3    3    0    0 -0.20988758091E+02  0.19395146242E+01  0.68896151385E+01  0.22175582967E+02  0.00000000000E+00 0.  1.
        -13    1    4    4    0    0 -0.12346588896E+02  0.62273109735E+02 -0.71304638889E+02  0.95471095000E+02  0.00000000000E+00 0. -1.
         13    1    4    4    0    0 -0.30271835250E+02 -0.14418347677E+02  0.66948814896E+01  0.34192019497E+02  0.00000000000E+00 0.  1.
          3    1    1    2  501    0  0.11389898033E+02 -0.22019495224E+02  0.86570738464E+02  0.90050434231E+02  0.00000000000E+00 0. -1.
<scales pt_clust_5="13000.00000" pt_clust_6="13000.00000" pt_clust_7="13000.00000" pt_clust_8="13000.00000" pt_clust_9="24.79088"></scales>
<clustering>
<clus scale="   24.791">  1  9  2 -1</clus>
<clus scale="   88.975">  5  6 -1 -1</clus>
<clus scale="   92.367">  7  8 -1 -1</clus>
<clus scale="  102.260">  2  5  1 -1</clus>
<clus scale="   24.791">  1  5  2 -1</clus>
</clustering>
</event>
<event>
 9    1  0.1671478E-005  0.1253031E+03  0.7546771E-02  0.1235501E+00
          1   -1    0    0  502    0 -0.00000000000E+00  0.00000000000E+00  0.22414329126E+03  0.22414329126E+03  0.00000000000E+00 0. -1.
         21   -1    0    0  501  502  0.00000000000E+00 -0.00000000000E+00 -0.24923655803E+03  0.24923655803E+03  0.00000000000E+00 0. -1.
         23    2    1    2    0    0  0.65010803787E+02  0.35589090645E+02  0.11562179171E+03  0.16630407939E+03  0.93785180707E+02 0.  0.
         23    2    1    2    0    0 -0.12869164305E+03  0.12796068578E+02 -0.15789381452E+02  0.15874236940E+03  0.90689342899E+02 0.  0.
        -13    1    3    3    0    0  0.41813563829E+01  0.55360689468E+02  0.51218847707E+02  0.75535819583E+02  0.00000000000E+00 0. -1.
         13    1    3    3    0    0  0.60829447404E+02 -0.19771598824E+02  0.64402944003E+02  0.90768259803E+02  0.00000000000E+00 0.  1.
        -13    1    4    4    0    0 -0.79698862531E+01  0.26381259071E+02 -0.24597807013E+02  0.36939707997E+02  0.00000000000E+00 0.  1.
         13    1    4    4    0    0 -0.12072175680E+03 -0.13585190494E+02  0.88084255615E+01  0.12180266141E+03  0.00000000000E+00 0. -1.
          1    1    1    2  501    0  0.63680839262E+02 -0.48385159222E+02 -0.12492567703E+03  0.14833340050E+03  0.00000000000E+00 0. -1.
<scales pt_clust_5="13000.00000" pt_clust_6="13000.00000" pt_clust_7="13000.00000" pt_clust_8="13000.00000" pt_clust_9="79.97733"></scales>
<clustering>
<clus scale="   79.977">  2  9  1 -1</clus>
<clus scale="   90.689">  7  8 -1 -1</clus>
<clus scale="   93.785">  5  6 -1 -1</clus>
<clus scale="  123.003">  2  7  1 -1</clus>
<clus scale="   79.977">  2  5  1 -1</clus>
</clustering>
</event>
<event>
 9    1  0.1671478E-005  0.2331136E+03  0.7546771E-02  0.1124477E+00
          1   -1    0    0  502    0 -0.00000000000E+00  0.00000000000E+00  0.14117729972E+04  0.14117729972E+04  0.00000000000E+00 0. -1.
         21   -1    0    0  501  502  0.00000000000E+00 -0.00000000000E+00 -0.17812023710E+03  0.17812023710E+03  0.00000000000E+00 0. -1.
         23    2    1    2    0    0  0.83622144507E+02 -0.21247102298E+03  0.11535229541E+04  0.11794596996E+04  0.91506167574E+02 0.  0.
         23    2    1    2    0    0 -0.47579584081E+02  0.16524518296E+03  0.19839571168E+03  0.27808486420E+03  0.91654492392E+02 0.  0.
        -11    1    3    3    0    0  0.46604821731E+02 -0.22331590154E+02  0.21096053788E+03  0.21719819951E+03  0.00000000000E+00 0.  1.
         11    1    3    3    0    0  0.37017322776E+02 -0.19013943283E+03  0.94256241619E+03  0.96226150007E+03  0.00000000000E+00 0. -1.
        -13    1    4    4    0    0 -0.74754477515E+02  0.11033472730E+03  0.12840742766E+03  0.18506877488E+03  0.00000000000E+00 0. -1.
         13    1    4    4    0    0  0.27174893435E+02  0.54910455659E+02  0.69988284016E+02  0.93016089325E+02  0.00000000000E+00 0.  1.
          1    1    1    2  501    0 -0.36042560426E+02  0.47225840023E+02 -0.11826590569E+03  0.13234867047E+03  0.00000000000E+00 0. -1.
<scales pt_clust_5="13000.00000" pt_clust_6="13000.00000" pt_clust_7="13000.00000" pt_clust_8="13000.00000" pt_clust_9="59.40830"></scales>
<clustering>
<clus scale="   59.408">  2  9  1 -1</clus>
<clus scale="   91.506">  5  6 -1 -1</clus>
<clus scale="   91.654">  7  8 -1 -1</clus>
<clus scale="  233.055">  1  5  2 -1</clus>
<clus scale="   59.408">  2  5  1 -1</clus>
</clustering>
</event>
<event>
 9    1  0.1671478E-005  0.1029831E+03  0.7546771E-02  0.1274586E+00
          1   -1    0    0  502    0 -0.00000000000E+00  0.00000000000E+00  0.13458390737E+03  0.13458390737E+03  0.00000000000E+00 0. -1.
         21   -1    0    0  501  502  0.00000000000E+00 -0.00000000000E+00 -0.14961191508E+03  0.14961191508E+03  0.00000000000E+00 0.  1.
         23    2    1    2    0    0  0.45610492372E+02  0.30927517974E+02  0.63801210993E+02  0.12270697996E+03  0.89160417357E+02 0.  0.
         23    2    1    2    0    0 -0.49051174934E+02  0.58457827769E+01 -0.71615622375E+02  0.12385707511E+03  0.88156603537E+02 0.  0.
        -11    1    4    4    0    0 -0.23109443961E+02  0.46990992494E+02 -0.35244301041E+02  0.63121791258E+02  0.00000000000E+00 0.  1.
         11    1    4    4    0    0 -0.25941730972E+02 -0.41145209717E+02 -0.36371321335E+02  0.60735283848E+02  0.00000000000E+00 0. -1.
        -11    1    3    3    0    0 -0.68015467897E+01 -0.23175118644E+02  0.25127143740E+00  0.24153887891E+02  0.00000000000E+00 0.  1.
         11    1    3    3    0    0  0.52412039162E+02  0.54102636618E+02  0.63549939555E+02  0.98553092065E+02  0.00000000000E+00 0. -1.
          1    1    1    2  501    0  0.34406825618E+01 -0.36773300751E+02 -0.72135963367E+01  0.37631767388E+02  0.00000000000E+00 0. -1.
<scales pt_clust_5="13000.00000" pt_clust_6="13000.00000" pt_clust_7="13000.00000" pt_clust_8="13000.00000" pt_clust_9="36.93391"></scales>
<clustering>
<clus scale="   36.934">  2  9  1 -1</clus>
<clus scale="   88.157">  5  6 -1 -1</clus>
<clus scale="   89.160">  7  8 -1 -1</clus>
<clus scale="  102.115">  2  5  1 -1</clus>
<clus scale="   36.934">  2  5  1 -1</clus>
</clustering>
</event>
<event>
 9    1  0.1671478E-005  0.1723326E+03  0.7546771E-02  0.1180150E+00
          1   -1    0    0  502    0 -0.00000000000E+00  0.00000000000E+00  0.70043798866E+02  0.70043798866E+02  0.00000000000E+00 0. -1.
         21   -1    0    0  501  502  0.00000000000E+00 -0.00000000000E+00 -0.47423610896E+03  0.47423610896E+03  0.00000000000E+00 0.  1.
         23    2    1    2    0    0 -0.12040554719E+03  0.27410736070E+02 -0.13468607283E+03  0.20328587254E+03  0.89084025021E+02 0.  0.
         23    2    1    2    0    0  0.13291805343E+03 -0.27974917328E+01 -0.20476773548E+03  0.27061329771E+03  0.11673344214E+03 0.  0.
        -13    1    4    4    0    0  0.16903451054E+02 -0.35964267066E+02 -0.11069852777E+03  0.11761513173E+03  0.00000000000E+00 0. -1.
         13    1    4    4    0    0  0.11601460238E+03  0.33166775333E+02 -0.94069207714E+02  0.15299816597E+03  0.00000000000E+00 0.  1.
        -13    1    3    3    0    0 -0.17566111423E+01  0.30918731186E+02 -0.13927477454E+02  0.33956269658E+02  0.00000000000E+00 0.  1.
         13    1    3    3    0    0 -0.11864893604E+03 -0.35079951163E+01 -0.12075859538E+03  0.16932960288E+03  0.00000000000E+00 0. -1.
          1    1    1    2  501    0 -0.12512506246E+02 -0.24613244337E+02 -0.64738501785E+02  0.70380737583E+02  0.00000000000E+00 0. -1.
<scales pt_clust_5="13000.00000" pt_clust_6="13000.00000" pt_clust_7="13000.00000" pt_clust_8="13000.00000" pt_clust_9="27.61113"></scales>
<clustering>
<clus scale="   27.611">  2  9  1 -1</clus>
<clus scale="   89.084">  7  8 -1 -1</clus>
<clus scale="  116.733">  5  6 -1 -1</clus>
<clus scale="  154.945">  1  7  2 -1</clus>
<clus scale="   27.611">  2  5  1 -1</clus>
</clustering>
</event>
<event>
 9    1  0.1671478E-005  0.1062634E+03  0.7546771E-02  0.1268182E+00
         21   -1    0    0  501  502  0.00000000000E+00  0.00000000000E+00  0.10566720494E+03  0.10566720494E+03  0.00000000000E+00 0.  1.
          2   -1    0    0  502    0 -0.00000000000E+00 -0.00000000000E+00 -0.46606868764E+03  0.46606868764E+03  0.00000000000E+00 0.  1.
         23    2    1    2    0    0  0.50531511379E+02 -0.71670765730E+01 -0.32074935807E+03  0.33744030131E+03  0.91547832389E+02 0.  0.
         23    2    1    2    0    0 -0.54943661740E+02 -0.13630236353E+02 -0.11367287154E+03  0.15728217510E+03  0.92798553710E+02 0.  0.
        -11    1    3    3    0    0  0.25004912188E+02  0.41260190688E+02 -0.18188826168E+03  0.18817807711E+03  0.00000000000E+00 0. -1.
         11    1    3    3    0    0  0.25526599191E+02 -0.48427267261E+02 -0.13886109639E+03  0.14926222420E+03  0.00000000000E+00 0.  1.
        -13    1    4    4    0    0  0.97009060752E+01 -0.38239442159E+02 -0.38387516149E+02  0.55045107970E+02  0.00000000000E+00 0.  1.
         13    1    4    4    0    0 -0.64644567815E+02  0.24609205806E+02 -0.75285355394E+02  0.10223706713E+03  0.00000000000E+00 0. -1.
          2    1    1    2  501    0  0.44121503611E+01  0.20797312926E+02  0.74020746921E+02  0.77013416172E+02  0.00000000000E+00 0.  1.
<scales pt_clust_5="13000.00000" pt_clust_6="13000.00000" pt_clust_7="13000.00000" pt_clust_8="13000.00000" pt_clust_9="21.26018"></scales>
<clustering>
<clus scale="   21.260">  1  9  2 -1</clus>
<clus scale="   91.548">  5  6 -1 -1</clus>
<clus scale="   92.799">  7  8 -1 -1</clus>
<clus scale="  105.173">  2  5  1 -1</clus>
<clus scale="   21.260">  1  5  2 -1</clus>
</clustering>
</event>
<event>
 9    1  0.1671478E-005  0.1392137E+03  0.7546771E-02  0.1214548E+00
         21   -1    0    0  501  502  0.00000000000E+00  0.00000000000E+00  0.16920792121E+03  0.16920792121E+03  0.00000000000E+00 0.  1.
         -3   -1    0    0    0  501 -0.00000000000E+00 -0.00000000000E+00 -0.62557555026E+03  0.62557555026E+03  0.00000000000E+00 0.  1.
         23    2    1    2    0    0 -0.83280282692E+02 -0.66984348895E+02 -0.57861196679E+03  0.59554262019E+03  0.91960295066E+02 0.  0.
         23    2    1    2    0    0  0.49522388952E+02  0.46008040728E+02  0.10882976281E+03  0.15729384049E+03  0.91259126460E+02 0.  0.
        -13    1    4    4    0    0  0.28458988202E+02  0.48612981292E+02  0.11263285354E+02  0.57445605198E+02  0.00000000000E+00 0. -1.
         13    1    4    4    0    0  0.21063400750E+02 -0.26049405644E+01  0.97566477460E+02  0.99848235290E+02  0.00000000000E+00 0.  1.
        -13    1    3    3    0    0 -0.52430808326E+02  0.10087133218E+02 -0.15685850306E+03  0.16569649936E+03  0.00000000000E+00 0.  1.
         13    1    3    3    0    0 -0.30849474366E+02 -0.77071482113E+02 -0.42175346373E+03  0.42984612083E+03  0.00000000000E+00 0. -1.
         -3    1    1    2    0  502  0.33757893740E+02  0.20976308167E+02  0.13414574932E+02  0.41947010796E+02  0.00000000000E+00 0.  1.
<scales pt_clust_5="13000.00000" pt_clust_6="13000.00000" pt_clust_7="13000.00000" pt_clust_8="13000.00000" pt_clust_9="39.74419"></scales>
<clustering>
<clus scale="   39.744">  1  9  2 -1</clus>
<clus scale="   91.259">  5  6 -1 -1</clus>
<clus scale="   91.960">  7  8 -1 -1</clus>
<clus scale="  138.752">  1  5  2 -1</clus>
<clus scale="   39.744">  1  5  2 -1</clus>
</clustering>
</event>
<event>
 9    1  0.1671478E-005  0.1510408E+03  0.7546771E-02  0.1199716E+00
         21   -1    0    0  501  502  0.00000000000E+00  0.00000000000E+00  0.81460930995E+02  0.81460930995E+02  0.00000000000E+00 0. -1.
          2   -1    0    0  502    0 -0.00000000000E+00 -0.00000000000E+00 -0.61817136095E+03  0.61817136095E+03  0.00000000000E+00 0. -1.
         23    2    1    2    0    0  0.92196604481E+02 -0.87326705584E+02 -0.48628994162E+03  0.51084602482E+03  0.91430773627E+02 0.  0.
         23    2    1    2    0    0 -0.70442515451E+02  0.69231887851E+02 -0.74015482886E+02  0.15194353939E+03  0.88619101654E+02 0.  0.
        -11    1    3    3    0    0  0.23834071340E+02 -0.49343302502E+02 -0.79182078717E+02  0.96294475690E+02  0.00000000000E+00 0.  1.
         11    1    3    3    0    0  0.68362533141E+02 -0.37983403082E+02 -0.40710786291E+03  0.41455154913E+03  0.00000000000E+00 0. -1.
        -13    1    4    4    0    0 -0.84300003128E+02  0.35444346458E+02 -0.33480989555E+02  0.97384643989E+02  0.00000000000E+00 0.  1.
         13    1    4    4    0    0  0.13857487677E+02  0.33787541393E+02 -0.40534493331E+02  0.54558895405E+02  0.00000000000E+00 0. -1.
          2    1    1    2  501    0 -0.21754089030E+02  0.18094817733E+02  0.23594994557E+02  0.36842727728E+02  0.00000000000E+00 0. -1.
<scales pt_clust_5="13000.00000" pt_clust_6="13000.00000" pt_clust_7="13000.00000" pt_clust_8="13000.00000" pt_clust_9="28.29599"></scales>
<clustering>
<clus scale="   28.296">  1  9  2 -1</clus>
<clus scale="   88.619">  7  8 -1 -1</clus>
<clus scale="   91.431">  5  6 -1 -1</clus>
<clus scale="  149.356">  1  7  2 -1</clus>
<clus scale="   28.296">  1  5  2 -1</clus>
</clustering>
</event>
<event>
 9    1  0.1671478E-005  0.9477092E+02  0.7546771E-02  0.1293634E+00
         -3   -1    0    0    0  501 -0.00000000000E+00  0.00000000000E+00  0.12759679596E+03  0.12759679596E+03  0.00000000000E+00 0.  1.
         21   -1    0    0  501  502  0.00000000000E+00 -0.00000000000E+00 -0.10618402502E+03  0.10618402502E+03  0.00000000000E+00 0. -1.
         23    2    1    2    0    0 -0.51025245206E+00  0.82946385715E+01  0.32301318266E+02  0.99532496806E+02  0.93777829854E+02 0.  0.
         23    2    1    2    0    0  0.25363937225E+02 -0.43596110316E+01  0.18279598154E+02  0.95725982608E+02  0.90371370012E+02 0.  0.
        -11    1    3    3    0    0  0.28881329762E+02  0.35235034266E+02  0.37910747297E+02  0.59269415462E+02  0.00000000000E+00 0. -1.
         11    1    3    3    0    0 -0.29391582214E+02 -0.26940395695E+02 -0.56094290316E+01  0.40263081344E+02  0.00000000000E+00 0.  1.
        -13    1    4    4    0    0  0.42881332616E+02  0.30170603795E+02 -0.10664277507E+01  0.52442456926E+02  0.00000000000E+00 0. -1.
         13    1    4    4    0    0 -0.17517395391E+02 -0.34530214826E+02  0.19346025905E+02  0.43283525683E+02  0.00000000000E+00 0.  1.
         -3    1    1    2    0  502 -0.24853684772E+02 -0.39350275399E+01 -0.29168145489E+02  0.38522341566E+02  0.00000000000E+00 0.  1.
<scales pt_clust_5="13000.00000" pt_clust_6="13000.00000" pt_clust_7="13000.00000" pt_clust_8="13000.00000" pt_clust_9="25.16327"></scales>
<clustering>
<clus scale="   25.163">  2  9  1 -1</clus>
<clus scale="   90.371">  7  8 -1 -1</clus>
<clus scale="   91.401">  2  7  1 -1</clus>
<clus scale="   93.778">  5  6 -1 -1</clus>
<clus scale="   25.163">  2  5  1 -1</clus>
</clustering>
</event>
<event>
 9    1  0.1671478E-005  0.1074534E+03  0.7546771E-02  0.1266159E+00
         21   -1    0    0  501  502  0.00000000000E+00  0.00000000000E+00  0.13894704294E+03  0.13894704294E+03  0.00000000000E+00 0. -1.
          3   -1    0    0  502    0 -0.00000000000E+00 -0.00000000000E+00 -0.30816297555E+03  0.30816297555E+03  0.00000000000E+00 0. -1.
         23    2    1    2    0    0  0.70015140072E+01  0.51888917271E+02 -0.23373784221E+03  0.25646096780E+03  0.91637155095E+02 0.  0.
         23    2    1    2    0    0  0.36336412229E+01 -0.93274930559E+02  0.70663901427E+02  0.14747923848E+03  0.89684573912E+02 0.  0.
        -13    1    4    4    0    0  0.42729465453E+02 -0.22503533703E+02  0.21588670751E+02  0.52898836961E+02  0.00000000000E+00 0. -1.
         13    1    4    4    0    0 -0.39095824230E+02 -0.70771396855E+02  0.49075230677E+02  0.94580401517E+02  0.00000000000E+00 0.  1.
        -13    1    3    3    0    0 -0.27902654926E+02 -0.84765168940E+01 -0.33423647470E+02  0.44357070471E+02  0.00000000000E+00 0.  1.
         13    1    3    3    0    0  0.34904168934E+02  0.60365434165E+02 -0.20031419474E+03  0.21210389733E+03  0.00000000000E+00 0. -1.
          3    1    1    2  501    0 -0.10635155230E+02  0.41386013287E+02 -0.61419918331E+01  0.43169812210E+02  0.00000000000E+00 0. -1.
<scales pt_clust_5="13000.00000" pt_clust_6="13000.00000" pt_clust_7="13000.00000" pt_clust_8="13000.00000" pt_clust_9="42.73065"></scales>
<clustering>
<clus scale="   42.731">  1  9  2 -1</clus>
<clus scale="   89.685">  5  6 -1 -1</clus>
<clus scale="   91.637">  7  8 -1 -1</clus>
<clus scale="  105.793">  1  5  2 -1</clus>
<clus scale="   42.731">  1  5  2 -1</clus>
</clustering>
</event>
<event>
 9    1  0.1671478E-005  0.1731724E+03  0.7546771E-02  0.1174764E+00
         21   -1    0    0  501  502  0.00000000000E+00  0.00000000000E+00  0.16765344677E+03  0.16765344677E+03  0.00000000000E+00 0. -1.
          3   -1    0    0  502    0 -0.00000000000E+00 -0.00000000000E+00 -0.33105972468E+03  0.33105972468E+03  0.00000000000E+00 0. -1.
         23    2    1    2    0    0  0.63251432774E+02  0.11659153171E+03 -0.15618343342E+03  0.22446263681E+03  0.91629042512E+02 0.  0.
         23    2    1    2    0    0 -0.10822410760E+03 -0.14188289033E+03 -0.49874700802E+02  0.20730746069E+03  0.92982178077E+02 0.  0.
        -11    1    3    3    0    0  0.83274690572E+02  0.10558161680E+03 -0.11316184289E+03  0.17574912399E+03  0.00000000000E+00 0. -1.
         11    1    3    3    0    0 -0.20023257798E+02  0.11009914910E+02 -0.43021590533E+02  0.48713512819E+02  0.00000000000E+00 0.  1.
        -13    1    4    4    0    0 -0.39187972519E+02 -0.12323716234E+03 -0.38273494443E+02  0.13486272928E+03  0.00000000000E+00 0. -1.
         13    1    4    4    0    0 -0.69036135085E+02 -0.18645727996E+02 -0.11601206359E+02  0.72444731409E+02  0.00000000000E+00 0.  1.
          3    1    1    2  501    0  0.44972674829E+02  0.25291358622E+02  0.42651856320E+02  0.66943073949E+02  0.00000000000E+00 0. -1.
<scales pt_clust_5="13000.00000" pt_clust_6="13000.00000" pt_clust_7="13000.00000" pt_clust_8="13000.00000" pt_clust_9="51.59646"></scales>
<clustering>
<clus scale="   51.596">  1  9  2 -1</clus>
<clus scale="   91.629">  5  6 -1 -1</clus>
<clus scale="   92.982">  7  8 -1 -1</clus>
<clus scale="  172.450">  2  5  1 -1</clus>
<clus scale="   51.596">  1  5  2 -1</clus>
</clustering>
</event>
<event>
 9    1  0.1671478E-005  0.9072328E+02  0.7546771E-02  0.1306569E+00
         -1   -1    0    0    0  501 -0.00000000000E+00  0.00000000000E+00  0.25942386746E+03  0.25942386746E+03  0.00000000000E+00 0.  1.
         21   -1    0    0  501  502  0.00000000000E+00 -0.00000000000E+00 -0.52625692504E+02  0.52625692504E+02  0.00000000000E+00 0.  1.
         23    2    1    2    0    0  0.20715588425E+02 -0.67105803293E+01  0.66734859670E+02  0.10800155648E+03  0.82076959104E+02 0.  0.
         23    2    1    2    0    0  0.24499563654E+02 -0.10686446685E+02  0.65170653223E+02  0.11485171792E+03  0.90715347687E+02 0.  0.
        -11    1    3    3    0    0 -0.22263973734E+02  0.11178576780E+02  0.54412435893E+02  0.59844450746E+02  0.00000000000E+00 0. -1.
         11    1    3    3    0    0  0.42979562159E+02 -0.17889157109E+02  0.12322423777E+02  0.48157105739E+02  0.00000000000E+00 0.  1.
        -13    1    4    4    0    0 -0.27870172212E+02  0.16899033937E+02  0.10410950527E+02  0.34215665096E+02  0.00000000000E+00 0. -1.
         13    1    4    4    0    0  0.52369735866E+02 -0.27585480622E+02  0.54759702696E+02  0.80636052825E+02  0.00000000000E+00 0.  1.
         -1    1    1    2    0  502 -0.45215152079E+02  0.17397027015E+02  0.74892662064E+02  0.89196285559E+02  0.00000000000E+00 0.  1.
<scales pt_clust_5="13000.00000" pt_clust_6="13000.00000" pt_clust_7="13000.00000" pt_clust_8="13000.00000" pt_clust_9="48.44656"></scales>
<clustering>
<clus scale="   48.447">  2  9  1 -1</clus>
<clus scale="   82.077">  5  6 -1 -1</clus>
<clus scale="   82.086">  1  5  2 -1</clus>
<clus scale="   90.715">  7  8 -1 -1</clus>
<clus scale="   48.447">  2  5  1 -1</clus>
</clustering>
</event>
<event>
 9    1  0.1671478E-005  0.1120789E+03  0.7546771E-02  0.1264487E+00
         21   -1    0    0  501  502  0.00000000000E+00  0.00000000000E+00  0.29080734785E+03  0.29080734785E+03  0.00000000000E+00 0. -1.
          2   -1    0    0  502    0 -0.00000000000E+00 -0.00000000000E+00 -0.10935548903E+03  0.10935548903E+03  0.00000000000E+00 0. -1.
         23    2    1    2    0    0  0.27682433180E+02  0.13105321089E+02 -0.58099950182E+02  0.12686865456E+03  0.10854485134E+03 0.  0.
         23    2    1    2    0    0  0.17394052319E+01 -0.30348314500E+02  0.16778800006E+03  0.19383973202E+03  0.92179081271E+02 0.  0.
        -13    1    3    3    0    0  0.33894474056E+02 -0.61282402369E+01 -0.85870829721E+02  0.92521295370E+02  0.00000000000E+00 0. -1.
         13    1    3    3    0    0 -0.62120408759E+01  0.19233561326E+02  0.27770879539E+02  0.34347359193E+02  0.00000000000E+00 0.  1.
        -13    1    4    4    0    0  0.30717296259E+02  0.19259173122E+02  0.41553962843E+02  0.55147074871E+02  0.00000000000E+00 0.  1.
         13    1    4    4    0    0 -0.28977891027E+02 -0.49607487623E+02  0.12623403721E+03  0.13869265715E+03  0.00000000000E+00 0. -1.
          2    1    1    2  501    0 -0.29421838412E+02  0.17242993411E+02  0.71763808949E+02  0.79454450299E+02  0.00000000000E+00 0. -1.
<scales pt_clust_5="13000.00000" pt_clust_6="13000.00000" pt_clust_7="13000.00000" pt_clust_8="13000.00000" pt_clust_9="34.10228"></scales>
<clustering>
<clus scale="   34.102">  1  9  2 -1</clus>
<clus scale="   92.179">  7  8 -1 -1</clus>
<clus scale="   96.316">  1  7  2 -1</clus>
<clus scale="  108.545">  5  6 -1 -1</clus>
<clus scale="   34.102">  1  5  2 -1</clus>
</clustering>
</event>
<event>
 9    1  0.1671478E-005  0.1668692E+03  0.7546771E-02  0.1181634E+00
          2   -1    0    0  502    0 -0.00000000000E+00  0.00000000000E+00  0.23835959687E+03  0.23835959687E+03  0.00000000000E+00 0. -1.
         21   -1    0    0  501  502  0.00000000000E+00 -0.00000000000E+00 -0.22338315822E+03  0.22338315822E+03  0.00000000000E+00 0. -1.
         23    2    1    2    0    0  0.56022868906E+02 -0.14039982733E+03  0.95303960085E+02  0.20160227946E+03  0.93327171400E+02 0.  0.
         23    2    1    2    0    0 -0.78301867904E+02  0.97100141202E+02  0.13470530020E+02  0.15445560882E+03  0.90085847818E+02 0.  0.
        -13    1    3    3    0    0 -0.25444703544E+02 -0.29945477585E+02  0.12161016254E+02  0.41134594717E+02  0.00000000000E+00 0.  1.
         13    1    3    3    0    0  0.81467572450E+02 -0.11045434975E+03  0.83142943831E+02  0.16046768475E+03  0.00000000000E+00 0. -1.
        -13    1    4    4    0    0 -0.22953821117E+02  0.41077232730E+02 -0.37907761431E+02  0.60425287168E+02  0.00000000000E+00 0.  1.
         13    1    4    4    0    0 -0.55348046787E+02  0.56022908472E+02  0.51378291451E+02  0.94030321648E+02  0.00000000000E+00 0. -1.
          2    1    1    2  501    0  0.22278998998E+02  0.43299686128E+02 -0.93798051462E+02  0.10568486681E+03  0.00000000000E+00 0. -1.
<scales pt_clust_5="13000.00000" pt_clust_6="13000.00000" pt_clust_7="13000.00000" pt_clust_8="13000.00000" pt_clust_9="48.69514"></scales>
<clustering>
<clus scale="   48.695">  2  9  1 -1</clus>
<clus scale="   90.086">  7  8 -1 -1</clus>
<clus scale="   93.327">  5  6 -1 -1</clus>
<clus scale="  165.078">  2  7  1 -1</clus>
<clus scale="   48.695">  2  5  1 -1</clus>
</clustering>
</event>
<event>
 9    1  0.1671478E-005  0.1192163E+03  0.7546771E-02  0.1247830E+00
         -4   -1    0    0    0  501 -0.00000000000E+00  0.00000000000E+00  0.50669371287E+03  0.50669371287E+03  0.00000000000E+00 0.  1.
         21   -1    0    0  501  502  0.00000000000E+00 -0.00000000000E+00 -0.71741142731E+02  0.71741142731E+02  0.00000000000E+00 0. -1.
         23    2    1    2    0    0 -0.31461596392E+02  0.57610703486E+02  0.41674039345E+03  0.43345971735E+03  0.99528618109E+02 0.  0.
         23    2    1    2    0    0  0.55493198886E+02 -0.43325826500E+02  0.23455388461E+02  0.11653103695E+03  0.89848232934E+02 0.  0.
        -13    1    3    3    0    0 -0.58849973965E+02  0.62297535768E+02  0.36278525170E+03  0.37276995755E+03  0.00000000000E+00 0.  1.
         13    1    3    3    0    0  0.27388377573E+02 -0.46868322813E+01  0.53955141752E+02  0.60689759798E+02  0.00000000000E+00 0. -1.
        -13    1    4    4    0    0 -0.55840707473E+01 -0.32956677286E+02  0.40272964412E+02  0.52337711895E+02  0.00000000000E+00 0.  1.
         13    1    4    4    0    0  0.61077269634E+02 -0.10369149213E+02 -0.16817575951E+02  0.64193325059E+02  0.00000000000E+00 0. -1.
         -4    1    1    2    0  502 -0.24031602494E+02 -0.14284876987E+02 -0.52432117765E+01  0.28444101299E+02  0.00000000000E+00 0.  1.
<scales pt_clust_5="13000.00000" pt_clust_6="13000.00000" pt_clust_7="13000.00000" pt_clust_8="13000.00000" pt_clust_9="27.95667"></scales>
<clustering>
<clus scale="   27.957">  2  9  1 -1</clus>
<clus scale="   89.848">  7  8 -1 -1</clus>
<clus scale="   99.529">  5  6 -1 -1</clus>
<clus scale="  111.262">  2  7  1 -1</clus>
<clus scale="   27.957">  2  5  1 -1</clus>
</clustering>
</event>
<event>
 9    1  0.1671478E-005  0.1443583E+03  0.7546771E-02  0.1207965E+00
          2   -1    0    0  502    0 -0.00000000000E+00  0.00000000000E+00  0.35448787901E+03  0.35448787901E+03  0.00000000000E+00 0. -1.
         21   -1    0    0  501  502  0.00000000000E+00 -0.00000000000E+00 -0.87202443417E+02  0.87202443417E+02  0.00000000000E+00 0.  1.
         23    2    1    2    0    0  0.49378460968E+02 -0.93914420632E+02  0.12670203232E+03  0.18880882257E+03  0.91308354922E+02 0.  0.
         23    2    1    2    0    0 -0.89074945785E+02  0.81854174679E+02  0.14765604214E+03  0.21079489082E+03  0.89430013616E+02 0.  0.
        -13    1    3    3    0    0  0.65856975238E+02 -0.78912123909E+02  0.13059080097E+03  0.16618730934E+03  0.00000000000E+00 0.  1.
         13    1    3    3    0    0 -0.16478514270E+02 -0.15002296722E+02 -0.38887686508E+01  0.22621513237E+02  0.00000000000E+00 0. -1.
        -13    1    4    4    0    0 -0.35637059538E+02  0.50457363300E+02  0.13814207584E+02  0.63299114171E+02  0.00000000000E+00 0.  1.
         13    1    4    4    0    0 -0.53437886247E+02  0.31396811379E+02  0.13384183455E+03  0.14749577664E+03  0.00000000000E+00 0. -1.
          2    1    1    2  501    0  0.39696484817E+02  0.12060245952E+02 -0.70726388677E+01  0.42086609032E+02  0.00000000000E+00 0. -1.
<scales pt_clust_5="13000.00000" pt_clust_6="13000.00000" pt_clust_7="13000.00000" pt_clust_8="13000.00000" pt_clust_9="41.48808"></scales>
<clustering>
<clus scale="   41.488">  2  9  1 -1</clus>
<clus scale="   89.430">  7  8 -1 -1</clus>
<clus scale="   91.308">  5  6 -1 -1</clus>
<clus scale="  143.178">  2  7  1 -1</clus>
<clus scale="   41.488">  2  5  1 -1</clus>
</clustering>
</event>
<event>
 9    1  0.1671478E-005  0.9429762E+02  0.7546771E-02  0.1292862E+00
         -1   -1    0    0    0  501 -0.00000000000E+00  0.00000000000E+00  0.36284968326E+03  0.36284968326E+03  0.00000000000E+00 0.  1.
         21   -1    0    0  501  502  0.00000000000E+00 -0.00000000000E+00 -0.83740148277E+02  0.83740148277E+02  0.00000000000E+00 0.  1.
         23    2    1    2    0    0 -0.15958528679E+02  0.19314655404E+02  0.24543977344E+03  0.26328404723E+03  0.91924298148E+02 0.  0.
         23    2    1    2    0    0  0.18842579781E+02  0.29602931276E+01  0.85476531940E+02  0.12683957723E+03  0.91750938361E+02 0.  0.
        -13    1    3    3    0    0 -0.31863126124E+02  0.43040825635E+02  0.21488477186E+03  0.22145707632E+03  0.00000000000E+00 0.  1.
         13    1    3    3    0    0  0.15904597446E+02 -0.23726170230E+02  0.30555001583E+02  0.41826970909E+02  0.00000000000E+00 0. -1.
        -13    1    4    4    0    0 -0.35871600800E+02 -0.87143408634E+01  0.42491434228E+02  0.56287063020E+02  0.00000000000E+00 0.  1.
         13    1    4    4    0    0  0.54714180581E+02  0.11674633991E+02  0.42985097711E+02  0.70552514206E+02  0.00000000000E+00 0. -1.
         -1    1    1    2    0  502 -0.28840511025E+01 -0.22274948532E+02 -0.51806770397E+02  0.56466207079E+02  0.00000000000E+00 0.  1.
<scales pt_clust_5="13000.00000" pt_clust_6="13000.00000" pt_clust_7="13000.00000" pt_clust_8="13000.00000" pt_clust_9="22.46088"></scales>
<clustering>
<clus scale="   22.461">  2  9  1 -1</clus>
<clus scale="   91.751">  7  8 -1 -1</clus>
<clus scale="   91.924">  5  6 -1 -1</clus>
<clus scale="   94.129">  2  7  1 -1</clus>
<clus scale="   22.461">  2  5  1 -1</clus>
</clustering>
</event>
<event>
 9    1  0.1671478E-005  0.9448090E+02  0.7546771E-02  0.1294524E+00
         21   -1    0    0  501  502  0.00000000000E+00  0.00000000000E+00  0.13222372800E+03  0.13222372800E+03  0.00000000000E+00 0. -1.
          1   -1    0    0  502    0 -0.00000000000E+00 -0.00000000000E+00 -0.21108435893E+03  0.21108435893E+03  0.00000000000E+00 0. -1.
         23    2    1    2    0    0  0.39999160975E+01 -0.21754328616E+01 -0.11866540400E+03  0.14890247710E+03  0.89831719032E+02 0.  0.
         23    2    1    2    0    0 -0.26680366243E+02 -0.27109522416E+02 -0.38219096860E+02  0.10803584831E+03  0.93617717381E+02 0.  0.
        -11    1    3    3    0    0  0.26213069793E+02 -0.10423530863E+02 -0.12177912421E+03  0.12500372041E+03  0.00000000000E+00 0. -1.
         11    1    3    3    0    0 -0.22213153695E+02  0.82480980015E+01  0.31137202119E+01  0.23898756689E+02  0.00000000000E+00 0.  1.
        -11    1    4    4    0    0  0.24475881411E+02  0.17035803121E+02 -0.25589556023E+02  0.39295199913E+02  0.00000000000E+00 0.  1.
         11    1    4    4    0    0 -0.51156247654E+02 -0.44145325536E+02 -0.12629540838E+02  0.68740648400E+02  0.00000000000E+00 0. -1.
          1    1    1    2  501    0  0.22680450146E+02  0.29284955278E+02  0.78023869928E+02  0.86369761508E+02  0.00000000000E+00 0. -1.
<scales pt_clust_5="13000.00000" pt_clust_6="13000.00000" pt_clust_7="13000.00000" pt_clust_8="13000.00000" pt_clust_9="37.04067"></scales>
<clustering>
<clus scale="   37.041">  1  9  2 -1</clus>
<clus scale="   89.832">  5  6 -1 -1</clus>
<clus scale="   90.731">  2  5  1 -1</clus>
<clus scale="   93.618">  7  8 -1 -1</clus>
<clus scale="   37.041">  1  5  2 -1</clus>
</clustering>
</event>
<event>
 9    1  0.1671478E-005  0.1542817E+03  0.7546771E-02  0.1196140E+00
         21   -1    0    0  501  502  0.00000000000E+00  0.00000000000E+00  0.24328797779E+03  0.24328797779E+03  0.00000000000E+00 0.  1.
         -1   -1    0    0    0  501 -0.00000000000E+00 -0.00000000000E+00 -0.52305196047E+03  0.52305196047E+03  0.00000000000E+00 0.  1.
         23    2    1    2    0    0 -0.46027791367E+02 -0.13321940346E+03 -0.39182669408E+03  0.42563261488E+03  0.88141917523E+02 0.  0.
         23    2    1    2    0    0  0.60973432451E+02  0.77596798521E+02 -0.72039767822E+02  0.14780587387E+03  0.83173466898E+02 0.  0.
        -11    1    3    3    0    0 -0.37071972936E+02 -0.71652542219E+02 -0.32270057713E+03  0.33263204967E+03  0.00000000000E+00 0.  1.
         11    1    3    3    0    0 -0.89558184310E+01 -0.61566861241E+02 -0.69126116946E+02  0.93000565218E+02  0.00000000000E+00 0. -1.
        -13    1    4    4    0    0  0.79517484491E+02  0.60324026111E+02 -0.70917056032E+02  0.12243874919E+03  0.00000000000E+00 0. -1.
         13    1    4    4    0    0 -0.18544052040E+02  0.17272772410E+02 -0.11227117905E+01  0.25367124680E+02  0.00000000000E+00 0.  1.
         -1    1    1    2    0  502 -0.14945641084E+02  0.55622604939E+02  0.18410247922E+03  0.19290144951E+03  0.00000000000E+00 0.  1.
<scales pt_clust_5="13000.00000" pt_clust_6="13000.00000" pt_clust_7="13000.00000" pt_clust_8="13000.00000" pt_clust_9="57.59554"></scales>
<clustering>
<clus scale="   57.596">  1  9  2 -1</clus>
<clus scale="   83.173">  7  8 -1 -1</clus>
<clus scale="   88.142">  5  6 -1 -1</clus>
<clus scale="  151.498">  1  7  2 -1</clus>
<clus scale="   57.596">  1  5  2 -1</clus>
</clustering>
</event>
<event>
 9    1  0.1671478E-005  0.1466217E+03  0.7546771E-02  0.1226124E+00
          3   -1    0    0  502    0 -0.00000000000E+00  0.00000000000E+00  0.26311722653E+03  0.26311722653E+03  0.00000000000E+00 0. -1.
         21   -1    0    0  501  502  0.00000000000E+00 -0.00000000000E+00 -0.28832535538E+03  0.28832535538E+03  0.00000000000E+00 0. -1.
         23    2    1    2    0    0  0.16087911631E+02  0.81990897589E+00 -0.18566552151E+03  0.20772310882E+03  0.91748083944E+02 0.  0.
         23    2    1    2    0    0 -0.11957333038E+03  0.38471277341E+02  0.17217878511E+03  0.23240720846E+03  0.92680936472E+02 0.  0.
        -11    1    4    4    0    0 -0.61516983997E+02  0.64353589060E+02  0.75639684240E+02  0.11682074121E+03  0.00000000000E+00 0. -1.
         11    1    4    4    0    0 -0.58056346387E+02 -0.25882311719E+02  0.96539100866E+02  0.11558646725E+03  0.00000000000E+00 0.  1.
        -11    1    3    3    0    0  0.48886890394E+02  0.61957546746E+00 -0.57734663637E+02  0.75654499611E+02  0.00000000000E+00 0.  1.
         11    1    3    3    0    0 -0.32798978762E+02  0.20033350843E+00 -0.12793085787E+03  0.13206860921E+03  0.00000000000E+00 0. -1.
          3    1    1    2  501    0  0.10348541875E+03 -0.39291186317E+02 -0.11721392442E+02  0.11131226463E+03  0.00000000000E+00 0. -1.
<scales pt_clust_5="13000.00000" pt_clust_6="13000.00000" pt_clust_7="13000.00000" pt_clust_8="13000.00000" pt_clust_9="113.61406"></scales>
<clustering>
<clus scale="   91.748">  7  8 -1 -1</clus>
<clus scale="   92.681">  5  6 -1 -1</clus>
<clus scale="   93.152">  1  7  2 -1</clus>
<clus scale="  113.614">  2  9  1 -1</clus>
<clus scale="  113.614">  2  5  1 -1</clus>
</clustering>
</event>
<event>
 9    1  0.1671478E-005  0.1007657E+03  0.7546771E-02  0.1280051E+00
         21   -1    0    0  501  502  0.00000000000E+00  0.00000000000E+00  0.54572363882E+02  0.54572363882E+02  0.00000000000E+00 0.  1.
         -3   -1    0    0    0  501 -0.00000000000E+00 -0.00000000000E+00 -0.60719150614E+03  0.60719150614E+03  0.00000000000E+00 0.  1.
         23    2    1    2    0    0  0.93663981413E+01 -0.23993115146E+02 -0.28744233103E+03  0.30325241457E+03  0.93142548224E+02 0.  0.
         23    2    1    2    0    0 -0.57987163404E+02  0.22250084394E+02 -0.28546638111E+03  0.30579823494E+03  0.90354459616E+02 0.  0.
        -11    1    3    3    0    0 -0.34397556311E+02 -0.19148205448E+02 -0.61224898563E+02  0.72789654870E+02  0.00000000000E+00 0.  1.
         11    1    3    3    0    0  0.43763954453E+02 -0.48449096981E+01 -0.22621743246E+03  0.23046275970E+03  0.00000000000E+00 0. -1.
        -13    1    4    4    0    0 -0.67297689164E+02 -0.80285221893E+01 -0.12457571189E+03  0.14181870162E+03  0.00000000000E+00 0.  1.
         13    1    4    4    0    0  0.93105257600E+01  0.30278606584E+02 -0.16089066922E+03  0.16397953332E+03  0.00000000000E+00 0. -1.
         -3    1    1    2    0  502  0.48620765262E+02  0.17430307522E+01  0.20289569878E+02  0.52713220512E+02  0.00000000000E+00 0.  1.
<scales pt_clust_5="13000.00000" pt_clust_6="13000.00000" pt_clust_7="13000.00000" pt_clust_8="13000.00000" pt_clust_9="48.65200"></scales>
<clustering>
<clus scale="   48.652">  1  9  2 -1</clus>
<clus scale="   90.354">  7  8 -1 -1</clus>
<clus scale="   93.143">  5  6 -1 -1</clus>
<clus scale="   98.194">  1  7  2 -1</clus>
<clus scale="   48.652">  1  5  2 -1</clus>
</clustering>
</event>
<event>
 9    1  0.1671478E-005  0.1706981E+03  0.7546771E-02  0.1177199E+00
         21   -1    0    0  501  502  0.00000000000E+00  0.00000000000E+00  0.12175083374E+03  0.12175083374E+03  0.00000000000E+00 0. -1.
          2   -1    0    0  502    0 -0.00000000000E+00 -0.00000000000E+00 -0.43674960501E+03  0.43674960501E+03  0.00000000000E+00 0. -1.
         23    2    1    2    0    0 -0.10314147529E+03  0.60686478208E+02 -0.12109334045E+03  0.19295113513E+03  0.90804905612E+02 0.  0.
         23    2    1    2    0    0  0.16900831733E+03 -0.40357064452E+02 -0.21753933478E+03  0.29267758511E+03  0.90245790314E+02 0.  0.
        -13    1    4    4    0    0  0.11553069475E+03  0.48650708793E-01 -0.18514497257E+03  0.21823383024E+03  0.00000000000E+00 0. -1.
         13    1    4    4    0    0  0.53477622586E+02 -0.40405715161E+02 -0.32394362209E+02  0.74443754863E+02  0.00000000000E+00 0.  1.
        -13    1    3    3    0    0 -0.71406532080E+02  0.75594430532E+02 -0.53821575417E+02  0.11709044680E+03  0.00000000000E+00 0. -1.
         13    1    3    3    0    0 -0.31734943214E+02 -0.14907952324E+02 -0.67271765032E+02  0.75860688330E+02  0.00000000000E+00 0.  1.
          2    1    1    2  501    0 -0.65866842040E+02 -0.20329413756E+02  0.23633903959E+02  0.72871718522E+02  0.00000000000E+00 0. -1.
<scales pt_clust_5="13000.00000" pt_clust_6="13000.00000" pt_clust_7="13000.00000" pt_clust_8="13000.00000" pt_clust_9="68.93276"></scales>
<clustering>
<clus scale="   68.933">  1  9  2 -1</clus>
<clus scale="   90.246">  5  6 -1 -1</clus>
<clus scale="   90.805">  7  8 -1 -1</clus>
<clus scale="  170.401">  1  5  2 -1</clus>
<clus scale="   68.933">  1  5  2 -1</clus>
</clustering>
</event>
<event>
 9    1  0.1671478E-005  0.1469337E+03  0.7546771E-02  0.1204374E+00
          1   -1    0    0  502    0 -0.00000000000E+00  0.00000000000E+00  0.91179367429E+02  0.91179367429E+02  0.00000000000E+00 0. -1.
         21   -1    0    0  501  502  0.00000000000E+00 -0.00000000000E+00 -0.41598290388E+03  0.41598290388E+03  0.00000000000E+00 0.  1.
         23    2    1    2    0    0 -0.10985019946E+03  0.71720652233E+01 -0.83813828243E+01  0.14462715227E+03  0.93425161254E+02 0.  0.
         23    2    1    2    0    0  0.12365797380E+03 -0.21727042871E+02 -0.28487786766E+03  0.32515137947E+03  0.93833156266E+02 0.  0.
        -11    1    3    3    0    0  0.82929732151E+01  0.22798981307E+02  0.47918117390E+01  0.24729100532E+02  0.00000000000E+00 0.  1.
         11    1    3    3    0    0 -0.11814317268E+03 -0.15626916083E+02 -0.13173194563E+02  0.11989805174E+03  0.00000000000E+00 0. -1.
        -13    1    4    4    0    0  0.95925597214E+02 -0.10526010256E+02 -0.27826066102E+03  0.29451912088E+03  0.00000000000E+00 0.  1.
         13    1    4    4    0    0  0.27732376586E+02 -0.11201032616E+02 -0.66172066389E+01  0.30632258592E+02  0.00000000000E+00 0. -1.
          1    1    1    2  501    0 -0.13807774338E+02  0.14554977648E+02 -0.31544285970E+02  0.37383739565E+02  0.00000000000E+00 0. -1.
<scales pt_clust_5="13000.00000" pt_clust_6="13000.00000" pt_clust_7="13000.00000" pt_clust_8="13000.00000" pt_clust_9="20.06245"></scales>
<clustering>
<clus scale="   20.062">  2  9  1 -1</clus>
<clus scale="   93.425">  5  6 -1 -1</clus>
<clus scale="   93.833">  7  8 -1 -1</clus>
<clus scale="  146.674">  1  5  2 -1</clus>
<clus scale="   20.062">  2  5  1 -1</clus>
</clustering>
</event>
<event>
 9    1  0.1671478E-005  0.1001269E+03  0.7546771E-02  0.1281213E+00
          2   -1    0    0  502    0 -0.00000000000E+00  0.00000000000E+00  0.77740960791E+03  0.77740960791E+03  0.00000000000E+00 0. -1.
         21   -1    0    0  501  502  0.00000000000E+00 -0.00000000000E+00 -0.18502009957E+02  0.18502009957E+02  0.00000000000E+00 0. -1.
         23    2    1    2    0    0 -0.78130802688E+01  0.32165410613E+02  0.41298912930E+03  0.42470777174E+03  0.93386361908E+02 0.  0.
         23    2    1    2    0    0  0.37723427105E+02 -0.27202105956E+02  0.29172330646E+03  0.30910409697E+03  0.90993646534E+02 0.  0.
        -13    1    3    3    0    0 -0.34446474667E+02  0.51023458739E+02  0.32678722025E+03  0.33253547221E+03  0.00000000000E+00 0. -1.
         13    1    3    3    0    0  0.26633394398E+02 -0.18858048126E+02  0.86201909047E+02  0.92172299524E+02  0.00000000000E+00 0.  1.
        -13    1    4    4    0    0  0.45615440968E+02  0.91781821714E+01  0.24492391554E+03  0.24930449632E+03  0.00000000000E+00 0. -1.
         13    1    4    4    0    0 -0.78920138630E+01 -0.36380288127E+02  0.46799390920E+02  0.59799600647E+02  0.00000000000E+00 0.  1.
          2    1    1    2  501    0 -0.29910346836E+02 -0.49633046568E+01  0.54195162192E+02  0.62099749162E+02  0.00000000000E+00 0. -1.
<scales pt_clust_5="13000.00000" pt_clust_6="13000.00000" pt_clust_7="13000.00000" pt_clust_8="13000.00000" pt_clust_9="30.31935"></scales>
<clustering>
<clus scale="   30.319">  2  9  1 -1</clus>
<clus scale="   90.994">  7  8 -1 -1</clus>
<clus scale="   93.386">  5  6 -1 -1</clus>
<clus scale="   97.899">  2  7  1 -1</clus>
<clus scale="   30.319">  2  5  1 -1</clus>
</clustering>
</event>
<event>
 9    1  0.1671478E-005  0.1380377E+03  0.7546771E-02  0.1216163E+00
         21   -1    0    0  501  502  0.00000000000E+00  0.00000000000E+00  0.12424686309E+03  0.12424686309E+03  0.00000000000E+00 0. -1.
          1   -1    0    0  502    0 -0.00000000000E+00 -0.00000000000E+00 -0.33755090277E+03  0.33755090277E+03  0.00000000000E+00 0. -1.
         23    2    1    2    0    0 -0.72868889727E+02 -0.51612074466E+02 -0.14752850431E+03  0.19535749611E+03  0.91794391899E+02 0.  0.
         23    2    1    2    0    0  0.82834391807E+02  0.93931943464E+02 -0.12025256275E+03  0.19674070694E+03  0.92528268384E+02 0.  0.
        -13    1    4    4    0    0  0.32581077214E+02 -0.23082380758E+01 -0.69708768853E+02  0.76981601766E+02  0.00000000000E+00 0.  1.
         13    1    4    4    0    0  0.50253314593E+02  0.96240181540E+02 -0.50543793896E+02  0.11975910517E+03  0.00000000000E+00 0. -1.
        -13    1    3    3    0    0 -0.88658182510E+02 -0.20197347830E+02 -0.90018145664E+02  0.12795105601E+03  0.00000000000E+00 0. -1.
         13    1    3    3    0    0  0.15789292783E+02 -0.31414726636E+02 -0.57510358644E+02  0.67406440104E+02  0.00000000000E+00 0.  1.
          1    1    1    2  501    0 -0.99655020796E+01 -0.42319868998E+02  0.54477027378E+02  0.69699562808E+02  0.00000000000E+00 0. -1.
<scales pt_clust_5="13000.00000" pt_clust_6="13000.00000" pt_clust_7="13000.00000" pt_clust_8="13000.00000" pt_clust_9="43.47738"></scales>
<clustering>
<clus scale="   43.477">  1  9  2 -1</clus>
<clus scale="   91.794">  7  8 -1 -1</clus>
<clus scale="   92.528">  5  6 -1 -1</clus>
<clus scale="  137.547">  2  7  1 -1</clus>
<clus scale="   43.477">  1  5  2 -1</clus>
</clustering>
</event>
<event>
 9    1  0.1671478E-005  0.1747082E+03  0.7546771E-02  0.1188791E+00
          1   -1    0    0  502    0 -0.00000000000E+00  0.00000000000E+00  0.46893508335E+03  0.46893508335E+03  0.00000000000E+00 0. -1.
         21   -1    0    0  501  502  0.00000000000E+00 -0.00000000000E+00 -0.12938497760E+03  0.12938497760E+03  0.00000000000E+00 0.  1.
         23    2    1    2    0    0 -0.77932667247E+02 -0.17647429974E+02  0.17230542994E+03  0.21149381917E+03  0.93035165117E+02 0.  0.
         23    2    1    2    0    0 -0.94054298830E+02  0.10121731536E+03  0.11283171132E+03  0.18801926770E+03  0.59406177196E+02 0.  0.
        -11    1    3    3    0    0  0.13835533552E+02 -0.26468610532E+02  0.51439527960E+02  0.59481378337E+02  0.00000000000E+00 0. -1.
         11    1    3    3    0    0 -0.91768200799E+02  0.88211805577E+01  0.12086590198E+03  0.15201244083E+03  0.00000000000E+00 0.  1.
        -13    1    4    4    0    0 -0.29577225898E+02  0.20900860886E+02  0.13492973672E+01  0.36241949189E+02  0.00000000000E+00 0.  1.
         13    1    4    4    0    0 -0.64477072932E+02  0.80316454476E+02  0.11148241395E+03  0.15177731851E+03  0.00000000000E+00 0. -1.
          1    1    1    2  501    0  0.17198696608E+03 -0.83569885388E+02  0.54412964486E+02  0.19880697409E+03  0.00000000000E+00 0. -1.
<scales pt_clust_5="13000.00000" pt_clust_6="13000.00000" pt_clust_7="13000.00000" pt_clust_8="13000.00000" pt_clust_9="164.29811"></scales>
<clustering>
<clus scale="   59.406">  7  8 -1 -1</clus>
<clus scale="   93.035">  5  6 -1 -1</clus>
<clus scale="  122.640">  1  5  2 -1</clus>
<clus scale="  164.298">  2  9  1 -1</clus>
<clus scale="  164.298">  2  5  1 -1</clus>
</clustering>
</event>
<event>
 9    1  0.1671478E-005  0.1197873E+03  0.7546771E-02  0.1244074E+00
         -1   -1    0    0    0  501 -0.00000000000E+00  0.00000000000E+00  0.32431389553E+03  0.32431389553E+03  0.00000000000E+00 0.  1.
         21   -1    0    0  501  502  0.00000000000E+00 -0.00000000000E+00 -0.11935318058E+03  0.11935318058E+03  0.00000000000E+00 0.  1.
         23    2    1    2    0    0  0.20617580579E+02  0.80007987520E+02  0.58531701491E+02  0.13548657678E+03  0.90023828582E+02 0.  0.
         23    2    1    2    0    0 -0.98926831024E+02 -0.22007749897E+02  0.56775566936E+01  0.13698663597E+03  0.91990460555E+02 0.  0.
        -11    1    4    4    0    0 -0.11572427366E+03 -0.10015476448E+02  0.64214314435E+01  0.11633422568E+03  0.00000000000E+00 0.  1.
         11    1    4    4    0    0  0.16797442632E+02 -0.11992273449E+02 -0.74387474997E+00  0.20652410297E+02  0.00000000000E+00 0. -1.
        -13    1    3    3    0    0  0.36701465358E+02 -0.29936471133E+01  0.10691038203E+02  0.38343940595E+02  0.00000000000E+00 0. -1.
         13    1    3    3    0    0 -0.16083884779E+02  0.83001634633E+02  0.47840663288E+02  0.97142636186E+02  0.00000000000E+00 0.  1.
         -1    1    1    2    0  502  0.78309250445E+02 -0.58000237623E+02  0.14075145676E+03  0.17119386336E+03  0.00000000000E+00 0.  1.
<scales pt_clust_5="13000.00000" pt_clust_6="13000.00000" pt_clust_7="13000.00000" pt_clust_8="13000.00000" pt_clust_9="97.44935"></scales>
<clustering>
<clus scale="   90.024">  7  8 -1 -1</clus>
<clus scale="   91.990">  5  6 -1 -1</clus>
<clus scale="   97.449">  2  9  1 -1</clus>
<clus scale="  118.284">  1  7  2 -1</clus>
<clus scale="   97.449">  2  5  1 -1</clus>
</clustering>
</event>
<event>
 9    1  0.1671478E-005  0.9366943E+02  0.7546771E-02  0.1294325E+00
         21   -1    0    0  501  502  0.00000000000E+00  0.00000000000E+00  0.31156652055E+02  0.31156652055E+02  0.00000000000E+00 0.  1.
          1   -1    0    0  502    0 -0.00000000000E+00 -0.00000000000E+00 -0.46056897935E+03  0.46056897935E+03  0.00000000000E+00 0. -1.
         23    2    1    2    0    0  0.96698972137E+01 -0.60223808572E+01 -0.22816847319E+03  0.24664931703E+03  0.92979876612E+02 0.  0.
         23    2    1    2    0    0  0.98677721938E+01  0.17435207145E+02 -0.20118965146E+03  0.22244942621E+03  0.92763742859E+02 0.  0.
        -13    1    4    4    0    0 -0.28438018011E+02 -0.24902804107E+02 -0.81468196512E+02  0.89810564878E+02  0.00000000000E+00 0.  1.
         13    1    4    4    0    0  0.38305790204E+02  0.42338011252E+02 -0.11972145495E+03  0.13263886133E+03  0.00000000000E+00 0. -1.
        -13    1    3    3    0    0  0.94449454918E+01 -0.46186516727E+02 -0.77434834384E+02  0.90656245780E+02  0.00000000000E+00 0.  1.
         13    1    3    3    0    0  0.22495172190E+00  0.40164135870E+02 -0.15073363880E+03  0.15599307125E+03  0.00000000000E+00 0. -1.
          1    1    1    2  501    0 -0.19537669408E+02 -0.11412826287E+02 -0.54202642783E-01  0.22626888157E+02  0.00000000000E+00 0. -1.
<scales pt_clust_5="13000.00000" pt_clust_6="13000.00000" pt_clust_7="13000.00000" pt_clust_8="13000.00000" pt_clust_9="22.62682"></scales>
<clustering>
<clus scale="   22.627">  1  9  2 -1</clus>
<clus scale="   92.764">  5  6 -1 -1</clus>
<clus scale="   92.980">  7  8 -1 -1</clus>
<clus scale="   93.455">  1  5  2 -1</clus>
<clus scale="   22.627">  1  5  2 -1</clus>
</clustering>
</event>
<event>
 9    1  0.1671478E-005  0.1060536E+03  0.7546771E-02  0.1268657E+00
          1   -1    0    0  502    0 -0.00000000000E+00  0.00000000000E+00  0.35154120175E+03  0.35154120175E+03  0.00000000000E+00 0. -1.
         21   -1    0    0  501  502  0.00000000000E+00 -0.00000000000E+00 -0.12320422287E+03  0.12320422287E+03  0.00000000000E+00 0. -1.
         23    2    1    2    0    0 -0.36784441313E+02  0.40847765805E+02  0.16652636680E+03  0.19829276631E+03  0.92560008845E+02 0.  0.
         23    2    1    2    0    0  0.49718182502E+02 -0.15944575567E+02  0.15044048288E+03  0.18348651103E+03  0.91152804015E+02 0.  0.
        -11    1    4    4    0    0  0.47539103236E+02 -0.40922278705E+02  0.14477817794E+03  0.15778250866E+03  0.00000000000E+00 0. -1.
         11    1    4    4    0    0  0.21790792660E+01  0.24977703138E+02  0.56623049341E+01  0.25704002367E+02  0.00000000000E+00 0.  1.
        -11    1    3    3    0    0 -0.29920415214E+02 -0.25858754352E+02  0.75527928971E+02  0.85254762201E+02  0.00000000000E+00 0. -1.
         11    1    3    3    0    0 -0.68640260994E+01  0.66706520157E+02  0.90998437826E+02  0.11303800411E+03  0.00000000000E+00 0.  1.
          1    1    1    2  501    0 -0.12933741189E+02 -0.24903190239E+02 -0.88629870789E+02  0.92966147286E+02  0.00000000000E+00 0. -1.
<scales pt_clust_5="13000.00000" pt_clust_6="13000.00000" pt_clust_7="13000.00000" pt_clust_8="13000.00000" pt_clust_9="28.06155"></scales>
<clustering>
<clus scale="   28.062">  2  9  1 -1</clus>
<clus scale="   91.153">  5  6 -1 -1</clus>
<clus scale="   92.560">  7  8 -1 -1</clus>
<clus scale="  104.828">  2  5  1 -1</clus>
<clus scale="   28.062">  2  5  1 -1</clus>
</clustering>
</event>
<event>
 9    1  0.1671478E-005  0.9155215E+02  0.7546771E-02  0.1299156E+00
         21   -1    0    0  501  502  0.00000000000E+00  0.00000000000E+00  0.28289231214E+02  0.28289231214E+02  0.00000000000E+00 0.  1.
          2   -1    0    0  502    0 -0.00000000000E+00 -0.00000000000E+00 -0.39740741114E+03  0.39740741114E+03  0.00000000000E+00 0. -1.
         23    2    1    2    0    0 -0.12820704891E+02  0.86804387746E-01 -0.20691500499E+03  0.22642213306E+03  0.91042764883E+02 0.  0.
         23    2    1    2    0    0 -0.23649108406E+01 -0.17151195989E+02 -0.12440166858E+03  0.15510721067E+03  0.91009424391E+02 0.  0.
        -11    1    3    3    0    0  0.11102014610E+02 -0.38483006662E+02 -0.13962741772E+03  0.14525843284E+03  0.00000000000E+00 0.  1.
         11    1    3    3    0    0 -0.23922719501E+02  0.38569811049E+02 -0.67287587268E+02  0.81163700218E+02  0.00000000000E+00 0. -1.
        -11    1    4    4    0    0  0.17047854090E+02  0.29108652207E+02 -0.19845224486E+02  0.39137908698E+02  0.00000000000E+00 0.  1.
         11    1    4    4    0    0 -0.19412764930E+02 -0.46259848196E+02 -0.10455644410E+03  0.11596930197E+03  0.00000000000E+00 0. -1.
          2    1    1    2  501    0  0.15185615732E+02  0.17064391601E+02 -0.37801506352E+02  0.44167298631E+02  0.00000000000E+00 0. -1.
<scales pt_clust_5="13000.00000" pt_clust_6="13000.00000" pt_clust_7="13000.00000" pt_clust_8="13000.00000" pt_clust_9="22.84286"></scales>
<clustering>
<clus scale="   22.843">  1  9  2 -1</clus>
<clus scale="   91.009">  7  8 -1 -1</clus>
<clus scale="   91.043">  5  6 -1 -1</clus>
<clus scale="   91.519">  1  7  2 -1</clus>
<clus scale="   22.843">  1  5  2 -1</clus>
</clustering>
</event>
<event>
 9    1  0.1671478E-005  0.1068786E+03  0.7546771E-02  0.1278339E+00
         -3   -1    0    0    0  501 -0.00000000000E+00  0.00000000000E+00  0.72329069266E+02  0.72329069266E+02  0.00000000000E+00 0.  1.
         21   -1    0    0  501  502  0.00000000000E+00 -0.00000000000E+00 -0.47062489887E+03  0.47062489887E+03  0.00000000000E+00 0. -1.
         23    2    1    2    0    0 -0.32796489066E+02 -0.37914013693E+01  0.94030694949E+01  0.10761532974E+03  0.10199341674E+03 0.  0.
         23    2    1    2    0    0  0.12784061218E+02  0.55297979419E+02 -0.27243911754E+03  0.28922692306E+03  0.78789856641E+02 0.  0.
        -13    1    4    4    0    0  0.22088081001E+02 -0.13319379585E+02 -0.50029293019E+02  0.56286937693E+02  0.00000000000E+00 0.  1.
         13    1    4    4    0    0 -0.93040197837E+01  0.68617359004E+02 -0.22240982452E+03  0.23293998537E+03  0.00000000000E+00 0. -1.
        -13    1    3    3    0    0 -0.40124069755E+02  0.23675328550E+02 -0.32625210811E+02  0.56875887124E+02  0.00000000000E+00 0.  1.
         13    1    3    3    0    0  0.73275806891E+01 -0.27466729919E+02  0.42028280306E+02  0.50739442613E+02  0.00000000000E+00 0. -1.
         -3    1    1    2    0  502  0.20012427848E+02 -0.51506578050E+02 -0.13525978156E+03  0.14611171534E+03  0.00000000000E+00 0.  1.
<scales pt_clust_5="13000.00000" pt_clust_6="13000.00000" pt_clust_7="13000.00000" pt_clust_8="13000.00000" pt_clust_9="55.25780"></scales>
<clustering>
<clus scale="   55.258">  2  9  1 -1</clus>
<clus scale="   78.790">  5  6 -1 -1</clus>
<clus scale="   85.019">  2  5  1 -1</clus>
<clus scale="  101.993">  7  8 -1 -1</clus>
<clus scale="   55.258">  2  5  1 -1</clus>
</clustering>
</event>
<event>
 9    1  0.1671478E-005  0.9401746E+02  0.7546771E-02  0.1293460E+00
         21   -1    0    0  501  502  0.00000000000E+00  0.00000000000E+00  0.47842014237E+03  0.47842014237E+03  0.00000000000E+00 0. -1.
          3   -1    0    0  502    0 -0.00000000000E+00 -0.00000000000E+00 -0.38947325469E+02  0.38947325469E+02  0.00000000000E+00 0. -1.
         23    2    1    2    0    0 -0.23101220027E+02  0.39379205506E+01  0.50655072944E+02  0.10767219303E+03  0.92077093529E+02 0.  0.
         23    2    1    2    0    0 -0.36543200459E+01 -0.11976828133E+02  0.34845459344E+03  0.36060691692E+03  0.91977966813E+02 0.  0.
        -13    1    3    3    0    0  0.30556538553E+02  0.70980315908E+00 -0.42205615729E+01  0.30854805280E+02  0.00000000000E+00 0.  1.
         13    1    3    3    0    0 -0.53657758580E+02  0.32281173915E+01  0.54875634517E+02  0.76817387754E+02  0.00000000000E+00 0. -1.
        -13    1    4    4    0    0  0.27213748162E+02  0.29836322481E+02  0.13459623158E+03  0.14052380504E+03  0.00000000000E+00 0.  1.
         13    1    4    4    0    0 -0.30868068208E+02 -0.41813150614E+02  0.21385836186E+03  0.22008311188E+03  0.00000000000E+00 0. -1.
          3    1    1    2  501    0  0.26755540073E+02  0.80389075821E+01  0.40363150525E+02  0.49088357887E+02  0.00000000000E+00 0. -1.
<scales pt_clust_5="13000.00000" pt_clust_6="13000.00000" pt_clust_7="13000.00000" pt_clust_8="13000.00000" pt_clust_9="27.93714"></scales>
<clustering>
<clus scale="   27.937">  1  9  2 -1</clus>
<clus scale="   91.978">  7  8 -1 -1</clus>
<clus scale="   92.077">  5  6 -1 -1</clus>
<clus scale="   93.920">  1  7  2 -1</clus>
<clus scale="   27.937">  1  5  2 -1</clus>
</clustering>
</event>
<event>
 9    1  0.1671478E-005  0.1437371E+03  0.7546771E-02  0.1210069E+00
         21   -1    0    0  501  502  0.00000000000E+00  0.00000000000E+00  0.10199500546E+03  0.10199500546E+03  0.00000000000E+00 0. -1.
          2   -1    0    0  502    0 -0.00000000000E+00 -0.00000000000E+00 -0.75098013734E+03  0.75098013734E+03  0.00000000000E+00 0.  1.
         23    2    1    2    0    0  0.38864930724E+01 -0.10652591107E+03 -0.66450928031E+03  0.68046846349E+03  0.10050806745E+03 0.  0.
         23    2    1    2    0    0 -0.32187052560E+02  0.73357143242E+02 -0.77762300694E+01  0.12306988669E+03  0.93104513522E+02 0.  0.
        -13    1    4    4    0    0 -0.19102420107E+02  0.91210921545E+02  0.11269575153E+02  0.93868727418E+02  0.00000000000E+00 0. -1.
         13    1    4    4    0    0 -0.13084632453E+02 -0.17853778303E+02 -0.19045805222E+02  0.29201159269E+02  0.00000000000E+00 0.  1.
        -13    1    3    3    0    0 -0.29228347299E+02 -0.99203540912E+02 -0.58432920361E+03  0.59341069843E+03  0.00000000000E+00 0.  1.
         13    1    3    3    0    0  0.33114840372E+02 -0.73223701586E+01 -0.80180076704E+02  0.87057765063E+02  0.00000000000E+00 0. -1.
          2    1    1    2  501    0  0.28300559488E+02  0.33168767829E+02  0.23300378503E+02  0.49436792625E+02  0.00000000000E+00 0.  1.
<scales pt_clust_5="13000.00000" pt_clust_6="13000.00000" pt_clust_7="13000.00000" pt_clust_8="13000.00000" pt_clust_9="43.60148"></scales>
<clustering>
<clus scale="   43.601">  1  9  2 -1</clus>
<clus scale="   93.105">  5  6 -1 -1</clus>
<clus scale="  100.508">  7  8 -1 -1</clus>
<clus scale="  138.661">  1  5  2 -1</clus>
<clus scale="   43.601">  1  5  2 -1</clus>
</clustering>
</event>
<event>
 9    1  0.1671478E-005  0.9347827E+02  0.7546771E-02  0.1298972E+00
         -1   -1    0    0    0  501 -0.00000000000E+00  0.00000000000E+00  0.30956627399E+03  0.30956627399E+03  0.00000000000E+00 0.  1.
         21   -1    0    0  501  502  0.00000000000E+00 -0.00000000000E+00 -0.55224389691E+02  0.55224389691E+02  0.00000000000E+00 0. -1.
         23    2    1    2    0    0 -0.22999566934E+02 -0.47738254726E+01  0.16908218533E+03  0.18852001022E+03  0.79995245909E+02 0.  0.
         23    2    1    2    0    0  0.47878141206E+02  0.21078085382E+02  0.10011717055E+03  0.14302134052E+03  0.87721456414E+02 0.  0.
        -11    1    3    3    0    0  0.26569744299E+02 -0.79159427324E+01  0.30065734869E+02  0.40896966571E+02  0.00000000000E+00 0.  1.
         11    1    3    3    0    0 -0.49569311234E+02  0.31421172598E+01  0.13901645046E+03  0.14762304365E+03  0.00000000000E+00 0. -1.
        -13    1    4    4    0    0  0.46896681473E+02 -0.17088971366E+02  0.90966370342E+02  0.10376035952E+03  0.00000000000E+00 0.  1.
         13    1    4    4    0    0  0.98145973290E+00  0.38167056748E+02  0.91508002100E+01  0.39260980993E+02  0.00000000000E+00 0. -1.
         -1    1    1    2    0  502 -0.24878574272E+02 -0.16304259909E+02 -0.14857471588E+02  0.33249312940E+02  0.00000000000E+00 0.  1.
<scales pt_clust_5="13000.00000" pt_clust_6="13000.00000" pt_clust_7="13000.00000" pt_clust_8="13000.00000" pt_clust_9="29.74512"></scales>
<clustering>
<clus scale="   29.745">  2  9  1 -1</clus>
<clus scale="   79.995">  5  6 -1 -1</clus>
<clus scale="   86.269">  1  5  2 -1</clus>
<clus scale="   87.721">  7  8 -1 -1</clus>
<clus scale="   29.745">  2  5  1 -1</clus>
</clustering>
</event>
<event>
 9    1  0.1671478E-005  0.9512903E+02  0.7546771E-02  0.1293899E+00
         21   -1    0    0  501  502  0.00000000000E+00  0.00000000000E+00  0.12924377847E+03  0.12924377847E+03  0.00000000000E+00 0. -1.
         -1   -1    0    0    0  501 -0.00000000000E+00 -0.00000000000E+00 -0.16793247634E+03  0.16793247634E+03  0.00000000000E+00 0.  1.
         23    2    1    2    0    0 -0.85159672463E+01  0.27751162179E+01 -0.53602120542E+02  0.10716057179E+03  0.92357879204E+02 0.  0.
         23    2    1    2    0    0  0.92802670234E+01  0.50106902279E+02 -0.44735077253E+02  0.11029720600E+03  0.86990927708E+02 0.  0.
        -13    1    4    4    0    0 -0.20134670398E+02 -0.15507616262E+02 -0.25187640031E+02  0.35781396347E+02  0.00000000000E+00 0.  1.
         13    1    4    4    0    0  0.29414937422E+02  0.65614518541E+02 -0.19547437222E+02  0.74515809657E+02  0.00000000000E+00 0. -1.
        -13    1    3    3    0    0 -0.47581653084E+02 -0.49113494682E+00 -0.10181124517E+02  0.48661177752E+02  0.00000000000E+00 0.  1.
         13    1    3    3    0    0  0.39065685838E+02  0.32662511647E+01 -0.43420996026E+02  0.58499394036E+02  0.00000000000E+00 0. -1.
         -1    1    1    2    0  502 -0.76429977714E+00 -0.52882018497E+02  0.59648499923E+02  0.79718477014E+02  0.00000000000E+00 0.  1.
<scales pt_clust_5="13000.00000" pt_clust_6="13000.00000" pt_clust_7="13000.00000" pt_clust_8="13000.00000" pt_clust_9="52.88754"></scales>
<clustering>
<clus scale="   52.888">  1  9  2 -1</clus>
<clus scale="   86.991">  5  6 -1 -1</clus>
<clus scale="   89.928">  1  5  2 -1</clus>
<clus scale="   92.358">  7  8 -1 -1</clus>
<clus scale="   52.888">  1  5  2 -1</clus>
</clustering>
</event>
<event>
 9    1  0.1671478E-005  0.9726019E+02  0.7546771E-02  0.1289763E+00
         21   -1    0    0  501  502  0.00000000000E+00  0.00000000000E+00  0.10958255770E+03  0.10958255770E+03  0.00000000000E+00 0. -1.
          1   -1    0    0  502    0 -0.00000000000E+00 -0.00000000000E+00 -0.36702957456E+03  0.36702957456E+03  0.00000000000E+00 0. -1.
         23    2    1    2    0    0  0.40112645053E+02 -0.14074774276E+02 -0.23051711874E+03  0.24949033414E+03  0.85440980979E+02 0.  0.
         23    2    1    2    0    0  0.10609095392E+02  0.31715045450E+02 -0.97609092489E+02  0.13835568614E+03  0.92175723149E+02 0.  0.
        -11    1    4    4    0    0  0.90213452236E+01 -0.32195221234E+02 -0.25949235003E+02  0.42323512818E+02  0.00000000000E+00 0. -1.
         11    1    4    4    0    0  0.15877501680E+01  0.63910266684E+02 -0.71659857485E+02  0.96032173323E+02  0.00000000000E+00 0.  1.
        -13    1    3    3    0    0  0.64881489124E+02 -0.19237273103E+02 -0.19031910308E+03  0.20199267636E+03  0.00000000000E+00 0. -1.
         13    1    3    3    0    0 -0.24768844072E+02  0.51624988265E+01 -0.40198015661E+02  0.47497657772E+02  0.00000000000E+00 0.  1.
          1    1    1    2  501    0 -0.50721740444E+02 -0.17640271174E+02  0.70679194368E+02  0.88766111987E+02  0.00000000000E+00 0. -1.
<scales pt_clust_5="13000.00000" pt_clust_6="13000.00000" pt_clust_7="13000.00000" pt_clust_8="13000.00000" pt_clust_9="53.70171"></scales>
<clustering>
<clus scale="   53.702">  1  9  2 -1</clus>
<clus scale="   85.441">  7  8 -1 -1</clus>
<clus scale="   90.903">  2  7  1 -1</clus>
<clus scale="   92.176">  5  6 -1 -1</clus>
<clus scale="   53.702">  1  5  2 -1</clus>
</clustering>
</event>
<event>
 9    1  0.1671478E-005  0.1174627E+03  0.7546771E-02  0.1247758E+00
         -2   -1    0    0    0  501 -0.00000000000E+00  0.00000000000E+00  0.15068080475E+03  0.15068080475E+03  0.00000000000E+00 0.  1.
         21   -1    0    0  501  502  0.00000000000E+00 -0.00000000000E+00 -0.21487384053E+03  0.21487384053E+03  0.00000000000E+00 0. -1.
         23    2    1    2    0    0 -0.63758411659E+02 -0.20778549564E+02  0.87385809633E+02  0.14537830219E+03  0.94877225101E+02 0.  0.
         23    2    1    2    0    0  0.65428515631E+02  0.53875290016E+02 -0.11514410542E+03  0.17092521362E+03  0.93668703991E+02 0.  0.
        -13    1    4    4    0    0 -0.21226362923E+02  0.29334898204E+02 -0.35218451219E+02  0.50511721827E+02  0.00000000000E+00 0.  1.
         13    1    4    4    0    0  0.86654878554E+02  0.24540391812E+02 -0.79925654197E+02  0.12041349180E+03  0.00000000000E+00 0. -1.
        -13    1    3    3    0    0 -0.66216163824E+02 -0.52415021789E+02  0.63772052406E+02  0.10582433335E+03  0.00000000000E+00 0.  1.
         13    1    3    3    0    0  0.24577521653E+01  0.31636472226E+02  0.23613757228E+02  0.39553968840E+02  0.00000000000E+00 0. -1.
         -2    1    1    2    0  502 -0.16701039718E+01 -0.33096740452E+02 -0.36434739990E+02  0.49251129469E+02  0.00000000000E+00 0.  1.
<scales pt_clust_5="13000.00000" pt_clust_6="13000.00000" pt_clust_7="13000.00000" pt_clust_8="13000.00000" pt_clust_9="33.13885"></scales>
<clustering>
<clus scale="   33.139">  2  9  1 -1</clus>
<clus scale="   93.669">  5  6 -1 -1</clus>
<clus scale="   94.877">  7  8 -1 -1</clus>
<clus scale="  116.489">  2  5  1 -1</clus>
<clus scale="   33.139">  2  5  1 -1</clus>
</clustering>
</event>
<event>
 9    1  0.1671478E-005  0.9690745E+02  0.7546771E-02  0.1289120E+00
         -1   -1    0    0    0  501 -0.00000000000E+00  0.00000000000E+00  0.66371952827E+02  0.66371952827E+02  0.00000000000E+00 0.  1.
         21   -1    0    0  501  502  0.00000000000E+00 -0.00000000000E+00 -0.21382691842E+03  0.21382691842E+03  0.00000000000E+00 0.  1.
         23    2    1    2    0    0 -0.28438179105E+00  0.23828154405E+02 -0.18467807250E+02  0.93778876157E+02  0.88800652550E+02 0.  0.
         23    2    1    2    0    0 -0.27278028376E+02 -0.29944377942E+02 -0.76992155518E+02  0.12725433813E+03  0.92871513175E+02 0.  0.
        -11    1    3    3    0    0 -0.32739952340E+02  0.10092820374E+02  0.21534832348E+02  0.40466263808E+02  0.00000000000E+00 0.  1.
         11    1    3    3    0    0  0.32455570549E+02  0.13735334031E+02 -0.40002639598E+02  0.53312612349E+02  0.00000000000E+00 0. -1.
        -11    1    4    4    0    0  0.24186153457E+02 -0.36999019769E+02 -0.55715290489E+02  0.71120257854E+02  0.00000000000E+00 0.  1.
         11    1    4    4    0    0 -0.51464181833E+02  0.70546418275E+01 -0.21276865029E+02  0.56134080277E+02  0.00000000000E+00 0. -1.
         -1    1    1    2    0  502  0.27562410167E+02  0.61162235365E+01 -0.51995002822E+02  0.59165656956E+02  0.00000000000E+00 0.  1.
<scales pt_clust_5="13000.00000" pt_clust_6="13000.00000" pt_clust_7="13000.00000" pt_clust_8="13000.00000" pt_clust_9="28.23286"></scales>
<clustering>
<clus scale="   28.233">  2  9  1 -1</clus>
<clus scale="   88.801">  5  6 -1 -1</clus>
<clus scale="   92.872">  7  8 -1 -1</clus>
<clus scale="   93.013">  1  5  2 -1</clus>
<clus scale="   28.233">  2  5  1 -1</clus>
</clustering>
</event>
<event>
 9    1  0.1671478E-005  0.1149532E+03  0.7546771E-02  0.1252332E+00
         21   -1    0    0  501  502  0.00000000000E+00  0.00000000000E+00  0.19690198391E+03  0.19690198391E+03  0.00000000000E+00 0.  1.
          1   -1    0    0  502    0 -0.00000000000E+00 -0.00000000000E+00 -0.88177949861E+02  0.88177949861E+02  0.00000000000E+00 0. -1.
         23    2    1    2    0    0  0.60208072816E+02 -0.20462983816E+02  0.10650579574E+02  0.11246666978E+03  0.92149721796E+02 0.  0.
         23    2    1    2    0    0 -0.78888783621E+02  0.92701188141E+01  0.84587773364E+02  0.14699856551E+03  0.90244731573E+02 0.  0.
        -11    1    4    4    0    0 -0.30377240840E+02 -0.38339563343E+02  0.52754298770E+02  0.71942441695E+02  0.00000000000E+00 0.  1.
         11    1    4    4    0    0 -0.48511542781E+02  0.47609682157E+02  0.31833474594E+02  0.75056123820E+02  0.00000000000E+00 0. -1.
        -13    1    3    3    0    0  0.11329718951E+02 -0.49279409757E+02  0.21066820992E+02  0.54778040347E+02  0.00000000000E+00 0. -1.
         13    1    3    3    0    0  0.48878353865E+02  0.28816425941E+02 -0.10416241418E+02  0.57688629432E+02  0.00000000000E+00 0.  1.
          1    1    1    2  501    0  0.18680710805E+02  0.11192865002E+02  0.13485681115E+02  0.25614698481E+02  0.00000000000E+00 0. -1.
<scales pt_clust_5="13000.00000" pt_clust_6="13000.00000" pt_clust_7="13000.00000" pt_clust_8="13000.00000" pt_clust_9="21.77726"></scales>
<clustering>
<clus scale="   21.777">  1  9  2 -1</clus>
<clus scale="   90.245">  5  6 -1 -1</clus>
<clus scale="   92.150">  7  8 -1 -1</clus>
<clus scale="  113.432">  1  5  2 -1</clus>
<clus scale="   21.777">  1  5  2 -1</clus>
</clustering>
</event>
<event>
 9    1  0.1671478E-005  0.9398876E+02  0.7546771E-02  0.1293768E+00
         21   -1    0    0  501  502  0.00000000000E+00  0.00000000000E+00  0.35410275536E+03  0.35410275536E+03  0.00000000000E+00 0.  1.
          1   -1    0    0  502    0 -0.00000000000E+00 -0.00000000000E+00 -0.47560135123E+02  0.47560135123E+02  0.00000000000E+00 0. -1.
         23    2    1    2    0    0  0.73314760390E+01  0.25687638233E+02  0.45462980868E+02  0.10551084308E+03  0.91389551259E+02 0.  0.
         23    2    1    2    0    0  0.23365891849E+02 -0.11891421078E+01  0.21863866022E+03  0.23832695407E+03  0.91921131050E+02 0.  0.
        -11    1    3    3    0    0 -0.37868317652E+02  0.18851242686E+02  0.18681473230E+01  0.42342281552E+02  0.00000000000E+00 0.  1.
         11    1    3    3    0    0  0.45199793691E+02  0.68363955463E+01  0.43594833545E+02  0.63168561529E+02  0.00000000000E+00 0. -1.
        -13    1    4    4    0    0  0.51540014863E+02  0.92417320024E+01  0.18902042610E+03  0.19613899211E+03  0.00000000000E+00 0.  1.
         13    1    4    4    0    0 -0.28174123013E+02 -0.10430874110E+02  0.29618234123E+02  0.42187961966E+02  0.00000000000E+00 0. -1.
          1    1    1    2  501    0 -0.30697367888E+02 -0.24498496125E+02  0.42440979150E+02  0.57825093332E+02  0.00000000000E+00 0. -1.
<scales pt_clust_5="13000.00000" pt_clust_6="13000.00000" pt_clust_7="13000.00000" pt_clust_8="13000.00000" pt_clust_9="39.27475"></scales>
<clustering>
<clus scale="   39.275">  1  9  2 -1</clus>
<clus scale="   91.390">  5  6 -1 -1</clus>
<clus scale="   91.921">  7  8 -1 -1</clus>
<clus scale="   93.469">  2  5  1 -1</clus>
<clus scale="   39.275">  1  5  2 -1</clus>
</clustering>
</event>
<event>
 9    1  0.1671478E-005  0.1051109E+03  0.7546771E-02  0.1270185E+00
         21   -1    0    0  501  502  0.00000000000E+00  0.00000000000E+00  0.32207480265E+03  0.32207480265E+03  0.00000000000E+00 0.  1.
          1   -1    0    0  502    0 -0.00000000000E+00 -0.00000000000E+00 -0.66984971649E+02  0.66984971649E+02  0.00000000000E+00 0. -1.
         23    2    1    2    0    0 -0.32510583625E+02  0.49351494149E+02  0.90315748690E+01  0.10984238887E+03  0.92148103759E+02 0.  0.
         23    2    1    2    0    0  0.22225373664E+02 -0.14518837605E+02  0.16820778642E+03  0.19331165139E+03  0.91491919156E+02 0.  0.
        -11    1    3    3    0    0 -0.64935725388E+02  0.32760359283E+02  0.20780910642E+01  0.72761308637E+02  0.00000000000E+00 0. -1.
         11    1    3    3    0    0  0.32425141763E+02  0.16591134865E+02  0.69534838049E+01  0.37081080236E+02  0.00000000000E+00 0.  1.
        -13    1    4    4    0    0  0.44450191011E+02  0.17180931960E+00  0.15904326555E+03  0.16513815221E+03  0.00000000000E+00 0.  1.
         13    1    4    4    0    0 -0.22224817347E+02 -0.14690646925E+02  0.91645208708E+01  0.28173499179E+02  0.00000000000E+00 0. -1.
          1    1    1    2  501    0  0.10285209961E+02 -0.34832656543E+02  0.77850469719E+02  0.85905734042E+02  0.00000000000E+00 0. -1.
<scales pt_clust_5="13000.00000" pt_clust_6="13000.00000" pt_clust_7="13000.00000" pt_clust_8="13000.00000" pt_clust_9="36.31941"></scales>
<clustering>
<clus scale="   36.319">  1  9  2 -1</clus>
<clus scale="   91.492">  7  8 -1 -1</clus>
<clus scale="   92.148">  5  6 -1 -1</clus>
<clus scale="  104.536">  1  7  2 -1</clus>
<clus scale="   36.319">  1  5  2 -1</clus>
</clustering>
</event>
<event>
 9    1  0.1671478E-005  0.1219004E+03  0.7546771E-02  0.1246529E+00
         21   -1    0    0  501  502  0.00000000000E+00  0.00000000000E+00  0.52419830465E+03  0.52419830465E+03  0.00000000000E+00 0. -1.
          3   -1    0    0  502    0 -0.00000000000E+00 -0.00000000000E+00 -0.51285947166E+02  0.51285947166E+02  0.00000000000E+00 0. -1.
         23    2    1    2    0    0  0.63981500174E+02 -0.24033845147E+02  0.67669537055E+02  0.13360069739E+03  0.92729294302E+02 0.  0.
         23    2    1    2    0    0 -0.10409357045E+03  0.39065643986E+02  0.28463332654E+03  0.31389299550E+03  0.71771067249E+02 0.  0.
        -11    1    3    3    0    0  0.33461358784E+02  0.35194287571E+02  0.27988260959E+02  0.56050362718E+02  0.00000000000E+00 0.  1.
         11    1    3    3    0    0  0.30520141390E+02 -0.59228132718E+02  0.39681276096E+02  0.77550334676E+02  0.00000000000E+00 0. -1.
        -13    1    4    4    0    0 -0.80692759306E+02  0.31706831028E+02  0.27357661550E+03  0.28698572976E+03  0.00000000000E+00 0. -1.
         13    1    4    4    0    0 -0.23400811147E+02  0.73588129577E+01  0.11056711048E+02  0.26907265741E+02  0.00000000000E+00 0.  1.
          3    1    1    2  501    0  0.40112070279E+02 -0.15031798838E+02  0.12060949389E+03  0.12799055892E+03  0.00000000000E+00 0. -1.
<scales pt_clust_5="13000.00000" pt_clust_6="13000.00000" pt_clust_7="13000.00000" pt_clust_8="13000.00000" pt_clust_9="42.83612"></scales>
<clustering>
<clus scale="   42.836">  1  9  2 -1</clus>
<clus scale="   71.771">  7  8 -1 -1</clus>
<clus scale="   92.729">  5  6 -1 -1</clus>
<clus scale="  106.827">  1  7  2 -1</clus>
<clus scale="   42.836">  1  5  2 -1</clus>
</clustering>
</event>
<event>
 9    1  0.1671478E-005  0.1129885E+03  0.7546771E-02  0.1255964E+00
         21   -1    0    0  501  502  0.00000000000E+00  0.00000000000E+00  0.55911893319E+02  0.55911893319E+02  0.00000000000E+00 0. -1.
         -1   -1    0    0    0  501 -0.00000000000E+00 -0.00000000000E+00 -0.50767324322E+03  0.50767324322E+03  0.00000000000E+00 0.  1.
         23    2    1    2    0    0 -0.17620427429E+02 -0.71589063593E+02 -0.38348002963E+03  0.40081139706E+03  0.90318156524E+02 0.  0.
         23    2    1    2    0    0  0.23394744887E+02  0.32637822500E+02 -0.70873949775E+02  0.12331155946E+03  0.92574739499E+02 0.  0.
        -11    1    3    3    0    0 -0.11619551951E+02  0.19193732864E+02 -0.11962783677E+03  0.12171373258E+03  0.00000000000E+00 0.  1.
         11    1    3    3    0    0 -0.60008754775E+01 -0.90782796457E+02 -0.26385219286E+03  0.27909766448E+03  0.00000000000E+00 0. -1.
        -13    1    4    4    0    0  0.33936451761E+02 -0.60315937580E+01  0.75079309062E+01  0.35276506458E+02  0.00000000000E+00 0. -1.
         13    1    4    4    0    0 -0.10541706874E+02  0.38669416258E+02 -0.78381880682E+02  0.88035053000E+02  0.00000000000E+00 0.  1.
         -1    1    1    2    0  502 -0.57743174587E+01  0.38951241092E+02  0.25926295002E+01  0.39462180027E+02  0.00000000000E+00 0.  1.
<scales pt_clust_5="13000.00000" pt_clust_6="13000.00000" pt_clust_7="13000.00000" pt_clust_8="13000.00000" pt_clust_9="39.37692"></scales>
<clustering>
<clus scale="   39.377">  1  9  2 -1</clus>
<clus scale="   90.318">  5  6 -1 -1</clus>
<clus scale="   92.575">  7  8 -1 -1</clus>
<clus scale="  111.147">  2  5  1 -1</clus>
<clus scale="   39.377">  1  5  2 -1</clus>
</clustering>
</event>
<event>
 9    1  0.1671478E-005  0.2295458E+03  0.7546771E-02  0.1164965E+00
          2   -1    0    0  502    0 -0.00000000000E+00  0.00000000000E+00  0.45008208901E+03  0.45008208901E+03  0.00000000000E+00 0. -1.
         21   -1    0    0  501  502  0.00000000000E+00 -0.00000000000E+00 -0.11560847483E+04  0.11560847483E+04  0.00000000000E+00 0. -1.
         23    2    1    2    0    0 -0.13870142077E+02 -0.11532819723E+02  0.38957868051E+03  0.40044445052E+03  0.90878065957E+02 0.  0.
         23    2    1    2    0    0  0.10816439604E+03 -0.17708985846E+03 -0.26671504618E+03  0.35045093645E+03  0.92836353129E+02 0.  0.
        -11    1    4    4    0    0  0.11308637919E+02 -0.18507717387E+02 -0.94979261527E+02  0.97424232174E+02  0.00000000000E+00 0.  1.
         11    1    4    4    0    0  0.96855758120E+02 -0.15858214107E+03 -0.17173578465E+03  0.25302670428E+03  0.00000000000E+00 0. -1.
        -11    1    3    3    0    0  0.37271222615E+02 -0.16349832830E+02  0.19479120409E+03  0.19899767401E+03  0.00000000000E+00 0.  1.
         11    1    3    3    0    0 -0.51141364692E+02  0.48170131072E+01  0.19478747642E+03  0.20144677651E+03  0.00000000000E+00 0. -1.
          2    1    1    2  501    0 -0.94294253962E+02  0.18862267818E+03 -0.82886629365E+03  0.85527145036E+03  0.00000000000E+00 0. -1.
<scales pt_clust_5="13000.00000" pt_clust_6="13000.00000" pt_clust_7="13000.00000" pt_clust_8="13000.00000" pt_clust_9="209.93496"></scales>
<clustering>
<clus scale="   90.878">  7  8 -1 -1</clus>
<clus scale="   92.651">  1  7  2 -1</clus>
<clus scale="   92.836">  5  6 -1 -1</clus>
<clus scale="  209.935">  2  9  1 -1</clus>
<clus scale="  209.935">  2  5  1 -1</clus>
</clustering>
</event>
<event>
 9    1  0.1671478E-005  0.1212939E+03  0.7546771E-02  0.1242242E+00
          2   -1    0    0  502    0 -0.00000000000E+00  0.00000000000E+00  0.45911289193E+03  0.45911289193E+03  0.00000000000E+00 0.  1.
         21   -1    0    0  501  502  0.00000000000E+00 -0.00000000000E+00 -0.10104005081E+03  0.10104005081E+03  0.00000000000E+00 0.  1.
         23    2    1    2    0    0 -0.26661406025E+02  0.57366132091E+02  0.20513654432E+03  0.23140288868E+03  0.86397866827E+02 0.  0.
         23    2    1    2    0    0  0.93358664071E+02 -0.77043378539E+02  0.19557049884E+03  0.24718171803E+03  0.90550866261E+02 0.  0.
        -11    1    3    3    0    0  0.21634307385E+02  0.16849685297E+02  0.15361588907E+02  0.31431410474E+02  0.00000000000E+00 0. -1.
         11    1    3    3    0    0 -0.48295713409E+02  0.40516446793E+02  0.18977495541E+03  0.19997147821E+03  0.00000000000E+00 0.  1.
        -13    1    4    4    0    0  0.46171525823E+02 -0.59439583199E+02  0.43374294304E+02  0.86868885420E+02  0.00000000000E+00 0. -1.
         13    1    4    4    0    0  0.47187138248E+02 -0.17603795340E+02  0.15219620453E+03  0.16031283261E+03  0.00000000000E+00 0.  1.
          2    1    1    2  501    0 -0.66697258046E+02  0.19677246449E+02 -0.42634202041E+02  0.81568336028E+02  0.00000000000E+00 0.  1.
<scales pt_clust_5="13000.00000" pt_clust_6="13000.00000" pt_clust_7="13000.00000" pt_clust_8="13000.00000" pt_clust_9="69.53933"></scales>
<clustering>
<clus scale="   69.539">  2  9  1 -1</clus>
<clus scale="   86.398">  5  6 -1 -1</clus>
<clus scale="   90.551">  7  8 -1 -1</clus>
<clus scale="  118.226">  1  5  2 -1</clus>
<clus scale="   69.539">  2  5  1 -1</clus>
</clustering>
</event>
<event>
 9    1  0.1701820E-005  0.1095471E+03  0.7546771E-02  0.1262279E+00
          1   -1    0    0  502    0 -0.00000000000E+00  0.00000000000E+00  0.33599142608E+03  0.33599142608E+03  0.00000000000E+00 0. -1.
         21   -1    0    0  501  502  0.00000000000E+00 -0.00000000000E+00 -0.66066236789E+03  0.66066236789E+03  0.00000000000E+00 0. -1.
         23    2    1    2    0    0 -0.59964056452E+02 -0.89715072127E+01  0.30526756659E+03  0.32411761444E+03  0.90486268419E+02 0.  0.
         23    2    1    2    0    0  0.92802031373E+02  0.81178577924E+02 -0.34679153543E+03  0.37848788086E+03  0.88241307605E+02 0.  0.
        -11    1    3    3    0    0 -0.54625996167E+02  0.26892379913E+02  0.11201926555E+03  0.12749711922E+03  0.00000000000E+00 0.  1.
         11    1    3    3    0    0 -0.53380602846E+01 -0.35863887125E+02  0.19324830104E+03  0.19662049522E+03  0.00000000000E+00 0. -1.
        -13    1    4    4    0    0 -0.82366776271E+01  0.21277495513E+02 -0.12936740994E+03  0.13136400355E+03  0.00000000000E+00 0.  1.
         13    1    4    4    0    0  0.10103870900E+03  0.59901082412E+02 -0.21742412550E+03  0.24712387731E+03  0.00000000000E+00 0. -1.
          1    1    1    2  501    0 -0.32837974921E+02 -0.72207070712E+02 -0.28314697296E+03  0.29404829867E+03  0.00000000000E+00 0. -1.
<scales pt_clust_5="13000.00000" pt_clust_6="13000.00000" pt_clust_7="13000.00000" pt_clust_8="13000.00000" pt_clust_9="79.32335"></scales>
<clustering>
<clus scale="   79.323">  2  9  1 -1</clus>
<clus scale="   88.241">  7  8 -1 -1</clus>
<clus scale="   90.486">  5  6 -1 -1</clus>
<clus scale="  107.700">  2  7  1 -1</clus>
<clus scale="   79.323">  2  5  1 -1</clus>
</clustering>
</event>
<event>
 9    1  0.1671478E-005  0.1131326E+03  0.7546771E-02  0.1255126E+00
         21   -1    0    0  501  502  0.00000000000E+00  0.00000000000E+00  0.26907994533E+03  0.26907994533E+03  0.00000000000E+00 0.  1.
          1   -1    0    0  502    0 -0.00000000000E+00 -0.00000000000E+00 -0.73141782077E+02  0.73141782077E+02  0.00000000000E+00 0. -1.
         23    2    1    2    0    0  0.51357848631E+02 -0.49704701654E+02  0.45483354556E+02  0.12543059973E+03  0.92498182814E+02 0.  0.
         23    2    1    2    0    0 -0.59832774503E+02  0.71819398623E+01  0.12206858204E+03  0.16496654372E+03  0.93175536810E+02 0.  0.
        -13    1    4    4    0    0 -0.72432948069E+02  0.32024253187E+02  0.10752610160E+03  0.13354380287E+03  0.00000000000E+00 0.  1.
         13    1    4    4    0    0  0.12600173567E+02 -0.24842313325E+02  0.14542480436E+02  0.31422740849E+02  0.00000000000E+00 0. -1.
        -13    1    3    3    0    0  0.74599659052E+01 -0.66999095883E+02  0.14411002329E+02  0.68936252644E+02  0.00000000000E+00 0. -1.
         13    1    3    3    0    0  0.43897882726E+02  0.17294394229E+02  0.31072352227E+02  0.56494347084E+02  0.00000000000E+00 0.  1.
          1    1    1    2  501    0  0.84749258716E+01  0.42522761792E+02  0.28386226655E+02  0.51824583960E+02  0.00000000000E+00 0. -1.
<scales pt_clust_5="13000.00000" pt_clust_6="13000.00000" pt_clust_7="13000.00000" pt_clust_8="13000.00000" pt_clust_9="43.35910"></scales>
<clustering>
<clus scale="   43.359">  1  9  2 -1</clus>
<clus scale="   92.498">  7  8 -1 -1</clus>
<clus scale="   93.176">  5  6 -1 -1</clus>
<clus scale="  112.575">  2  7  1 -1</clus>
<clus scale="   43.359">  1  5  2 -1</clus>
</clustering>
</event>
<event>
 9    1  0.1671478E-005  0.1254749E+03  0.7546771E-02  0.1234646E+00
         21   -1    0    0  501  502  0.00000000000E+00  0.00000000000E+00  0.39614024114E+02  0.39614024114E+02  0.00000000000E+00 0.  1.
          2   -1    0    0  502    0 -0.00000000000E+00 -0.00000000000E+00 -0.70218539154E+03  0.70218539154E+03  0.00000000000E+00 0.  1.
         23    2    1    2    0    0 -0.60288298013E+02 -0.62021524206E+02 -0.36382858737E+03  0.38510046449E+03  0.91922676294E+02 0.  0.
         23    2    1    2    0    0  0.80747909607E+02  0.34512423706E+02 -0.29656249130E+03  0.32234636792E+03  0.90810447452E+02 0.  0.
        -11    1    3    3    0    0 -0.34252063996E+02 -0.10176760373E+02 -0.31157110443E+02  0.47408183585E+02  0.00000000000E+00 0. -1.
         11    1    3    3    0    0 -0.26036234017E+02 -0.51844763833E+02 -0.33267147693E+03  0.33769228090E+03  0.00000000000E+00 0.  1.
        -13    1    4    4    0    0  0.89357485433E+02  0.76792509124E+01 -0.26628835245E+03  0.28098615223E+03  0.00000000000E+00 0.  1.
         13    1    4    4    0    0 -0.86095758264E+01  0.26833172793E+02 -0.30274138854E+02  0.41360215684E+02  0.00000000000E+00 0. -1.
          2    1    1    2  501    0 -0.20459611593E+02  0.27509100500E+02 -0.21802887531E+01  0.34352583250E+02  0.00000000000E+00 0.  1.
<scales pt_clust_5="13000.00000" pt_clust_6="13000.00000" pt_clust_7="13000.00000" pt_clust_8="13000.00000" pt_clust_9="34.28332"></scales>
<clustering>
<clus scale="   34.283">  1  9  2 -1</clus>
<clus scale="   90.810">  7  8 -1 -1</clus>
<clus scale="   91.923">  5  6 -1 -1</clus>
<clus scale="  124.662">  1  7  2 -1</clus>
<clus scale="   34.283">  1  5  2 -1</clus>
</clustering>
</event>
<event>
 9    1  0.1671478E-005  0.1096605E+03  0.7546771E-02  0.1264633E+00
         21   -1    0    0  501  502  0.00000000000E+00  0.00000000000E+00  0.98154483088E+02  0.98154483088E+02  0.00000000000E+00 0. -1.
         -2   -1    0    0    0  501 -0.00000000000E+00 -0.00000000000E+00 -0.30320535087E+03  0.30320535087E+03  0.00000000000E+00 0.  1.
         23    2    1    2    0    0  0.57361006962E+02 -0.20995557422E+02 -0.16244672965E+03  0.19147154760E+03  0.80878396464E+02 0.  0.
         23    2    1    2    0    0 -0.57084642176E+02  0.55001536554E+02  0.35344909965E+02  0.12484396207E+03  0.89738101216E+02 0.  0.
        -13    1    4    4    0    0 -0.44593860863E+02 -0.31116842632E+01 -0.14788067059E+02  0.47084837612E+02  0.00000000000E+00 0.  1.
         13    1    4    4    0    0 -0.12490781314E+02  0.58113220817E+02  0.50132977024E+02  0.77759124461E+02  0.00000000000E+00 0. -1.
        -13    1    3    3    0    0  0.45895218890E+02 -0.50352579462E+02 -0.12638100323E+03  0.14357545526E+03  0.00000000000E+00 0.  1.
         13    1    3    3    0    0  0.11465788072E+02  0.29357022040E+02 -0.36065726419E+02  0.47896092338E+02  0.00000000000E+00 0. -1.
         -2    1    1    2    0  502 -0.27636478564E+00 -0.34005979132E+02 -0.77949048099E+02  0.85044324289E+02  0.00000000000E+00 0.  1.
<scales pt_clust_5="13000.00000" pt_clust_6="13000.00000" pt_clust_7="13000.00000" pt_clust_8="13000.00000" pt_clust_9="34.00712"></scales>
<clustering>
<clus scale="   34.007">  1  9  2 -1</clus>
<clus scale="   80.878">  7  8 -1 -1</clus>
<clus scale="   89.738">  5  6 -1 -1</clus>
<clus scale="  102.537">  2  7  1 -1</clus>
<clus scale="   34.007">  1  5  2 -1</clus>
</clustering>
</event>
<event>
 9    1  0.1671478E-005  0.1403507E+03  0.7546771E-02  0.1213695E+00
         21   -1    0    0  501  502  0.00000000000E+00  0.00000000000E+00  0.17345061831E+03  0.17345061831E+03  0.00000000000E+00 0. -1.
         -2   -1    0    0    0  501 -0.00000000000E+00 -0.00000000000E+00 -0.31408799154E+03  0.31408799154E+03  0.00000000000E+00 0. -1.
         23    2    1    2    0    0 -0.11402566357E+03 -0.45337855304E+01 -0.18469575543E+03  0.23719531379E+03  0.95533699020E+02 0.  0.
         23    2    1    2    0    0  0.78619202525E+02 -0.54287793544E+02 -0.43118079159E+02  0.13937784619E+03  0.91863331769E+02 0.  0.
        -13    1    4    4    0    0 -0.88093320714E+01 -0.33597378573E+02  0.85052060759E+01  0.35759288429E+02  0.00000000000E+00 0. -1.
         13    1    4    4    0    0  0.87428534596E+02 -0.20690414971E+02 -0.51623285235E+02  0.10361855776E+03  0.00000000000E+00 0.  1.
        -13    1    3    3    0    0 -0.18765171603E+02 -0.32169949821E+02 -0.10019556903E+03  0.10689335522E+03  0.00000000000E+00 0. -1.
         13    1    3    3    0    0 -0.95260491970E+02  0.27636164291E+02 -0.84500186395E+02  0.13030195857E+03  0.00000000000E+00 0.  1.
         -2    1    1    2    0  502  0.35406461048E+02  0.58821579075E+02  0.87176461358E+02  0.11096544987E+03  0.00000000000E+00 0. -1.
<scales pt_clust_5="13000.00000" pt_clust_6="13000.00000" pt_clust_7="13000.00000" pt_clust_8="13000.00000" pt_clust_9="68.65563"></scales>
<clustering>
<clus scale="   68.656">  1  9  2 -1</clus>
<clus scale="   91.863">  5  6 -1 -1</clus>
<clus scale="   95.534">  7  8 -1 -1</clus>
<clus scale="  137.879">  1  5  2 -1</clus>
<clus scale="   68.656">  1  5  2 -1</clus>
</clustering>
</event>
<event>
 9    1  0.1671478E-005  0.9892317E+02  0.7546771E-02  0.1282579E+00
         21   -1    0    0  501  502  0.00000000000E+00  0.00000000000E+00  0.98424884439E+02  0.98424884439E+02  0.00000000000E+00 0.  1.
         -1   -1    0    0    0  501 -0.00000000000E+00 -0.00000000000E+00 -0.22232376535E+03  0.22232376535E+03  0.00000000000E+00 0.  1.
         23    2    1    2    0    0  0.32820757706E+02 -0.36698338242E+02 -0.13326333860E+03  0.16818518325E+03  0.90017599844E+02 0.  0.
         23    2    1    2    0    0 -0.20638894240E+02  0.16263183365E+02 -0.36717460333E+02  0.10070272493E+03  0.90013398036E+02 0.  0.
        -13    1    3    3    0    0  0.10663712953E+02  0.27960785960E+02 -0.20326286725E+02  0.36175658356E+02  0.00000000000E+00 0. -1.
         13    1    3    3    0    0  0.22157044753E+02 -0.64659124202E+02 -0.11293705188E+03  0.13200952489E+03  0.00000000000E+00 0.  1.
        -13    1    4    4    0    0  0.14427513188E+02  0.26742641537E+02 -0.52647624537E+02  0.60787288001E+02  0.00000000000E+00 0. -1.
         13    1    4    4    0    0 -0.35066407428E+02 -0.10479458172E+02  0.15930164204E+02  0.39915436927E+02  0.00000000000E+00 0.  1.
         -1    1    1    2    0  502 -0.12181863466E+02  0.20435154877E+02  0.46081918023E+02  0.51860741617E+02  0.00000000000E+00 0.  1.
<scales pt_clust_5="13000.00000" pt_clust_6="13000.00000" pt_clust_7="13000.00000" pt_clust_8="13000.00000" pt_clust_9="23.79061"></scales>
<clustering>
<clus scale="   23.791">  1  9  2 -1</clus>
<clus scale="   90.013">  7  8 -1 -1</clus>
<clus scale="   90.018">  5  6 -1 -1</clus>
<clus scale="   98.919">  1  7  2 -1</clus>
<clus scale="   23.791">  1  5  2 -1</clus>
</clustering>
</event>
<event>
 9    1  0.1671478E-005  0.1135403E+03  0.7546771E-02  0.1256683E+00
         21   -1    0    0  501  502  0.00000000000E+00  0.00000000000E+00  0.86821532832E+02  0.86821532832E+02  0.00000000000E+00 0.  1.
         -3   -1    0    0    0  501 -0.00000000000E+00 -0.00000000000E+00 -0.23580895019E+03  0.23580895019E+03  0.00000000000E+00 0.  1.
         23    2    1    2    0    0  0.25437055795E+02  0.46893195555E+02 -0.86464467349E+02  0.13211147958E+03  0.84447162921E+02 0.  0.
         23    2    1    2    0    0 -0.65461251899E+02 -0.68671271552E+02 -0.60276802152E+02  0.14489810859E+03  0.91439870720E+02 0.  0.
        -13    1    4    4    0    0 -0.20210417862E+02 -0.81712198426E+02 -0.44630126626E+02  0.95274301700E+02  0.00000000000E+00 0.  1.
         13    1    4    4    0    0 -0.45250834037E+02  0.13040926874E+02 -0.15646675526E+02  0.49623806885E+02  0.00000000000E+00 0. -1.
        -13    1    3    3    0    0  0.37451506962E+02  0.64189648354E+02 -0.81844963308E+02  0.11055100338E+03  0.00000000000E+00 0.  1.
         13    1    3    3    0    0 -0.12014451167E+02 -0.17296452799E+02 -0.46195040406E+01  0.21560476197E+02  0.00000000000E+00 0. -1.
         -3    1    1    2    0  502  0.40024196104E+02  0.21778075998E+02 -0.22461478610E+01  0.45620894864E+02  0.00000000000E+00 0.  1.
<scales pt_clust_5="13000.00000" pt_clust_6="13000.00000" pt_clust_7="13000.00000" pt_clust_8="13000.00000" pt_clust_9="45.56557"></scales>
<clustering>
<clus scale="   45.566">  1  9  2 -1</clus>
<clus scale="   84.447">  7  8 -1 -1</clus>
<clus scale="   91.440">  5  6 -1 -1</clus>
<clus scale="  107.988">  2  7  1 -1</clus>
<clus scale="   45.566">  1  5  2 -1</clus>
</clustering>
</event>
<event>
 9    1  0.1671478E-005  0.9278052E+02  0.7546771E-02  0.1296753E+00
         21   -1    0    0  501  502  0.00000000000E+00  0.00000000000E+00  0.15772463940E+03  0.15772463940E+03  0.00000000000E+00 0. -1.
         -4   -1    0    0    0  501 -0.00000000000E+00 -0.00000000000E+00 -0.94330683993E+02  0.94330683993E+02  0.00000000000E+00 0.  1.
         23    2    1    2    0    0 -0.38312641931E+01  0.11354726777E+02 -0.11709973070E+02  0.94181170503E+02  0.92678805573E+02 0.  0.
         23    2    1    2    0    0  0.38394873584E+01  0.10177035607E+02  0.14548437705E+02  0.93604530817E+02  0.91825037070E+02 0.  0.
        -13    1    3    3    0    0  0.34220345824E+02  0.12601302985E+02 -0.34173136585E+02  0.49976276065E+02  0.00000000000E+00 0. -1.
         13    1    3    3    0    0 -0.38051610017E+02 -0.12465762081E+01  0.22463163516E+02  0.44204894438E+02  0.00000000000E+00 0.  1.
        -13    1    4    4    0    0 -0.16534330948E+02 -0.31487763624E+02 -0.15014507345E+02  0.38604388205E+02  0.00000000000E+00 0.  1.
         13    1    4    4    0    0  0.20373818306E+02  0.41664799230E+02  0.29562945050E+02  0.55000142612E+02  0.00000000000E+00 0. -1.
         -4    1    1    2    0  502 -0.82231652255E-02 -0.21531762384E+02  0.60555490772E+02  0.64269622074E+02  0.00000000000E+00 0.  1.
<scales pt_clust_5="13000.00000" pt_clust_6="13000.00000" pt_clust_7="13000.00000" pt_clust_8="13000.00000" pt_clust_9="21.53176"></scales>
<clustering>
<clus scale="   21.532">  1  9  2 -1</clus>
<clus scale="   91.825">  7  8 -1 -1</clus>
<clus scale="   91.928">  1  7  2 -1</clus>
<clus scale="   92.679">  5  6 -1 -1</clus>
<clus scale="   21.532">  1  5  2 -1</clus>
</clustering>
</event>
<event>
 9    1  0.1671478E-005  0.1098852E+03  0.7546771E-02  0.1260943E+00
         21   -1    0    0  501  502  0.00000000000E+00  0.00000000000E+00  0.26518209546E+03  0.26518209546E+03  0.00000000000E+00 0.  1.
         -4   -1    0    0    0  501 -0.00000000000E+00 -0.00000000000E+00 -0.14100777503E+03  0.14100777503E+03  0.00000000000E+00 0.  1.
         23    2    1    2    0    0  0.13791236836E+02  0.71872062265E+02 -0.76903882610E+02  0.14068278437E+03  0.92312767867E+02 0.  0.
         23    2    1    2    0    0  0.19387116023E+02 -0.11256591518E+01  0.12023874088E+03  0.15307543891E+03  0.92723286248E+02 0.  0.
        -13    1    4    4    0    0 -0.35828750791E+02 -0.11090928649E+02  0.59965484349E+02  0.70728830011E+02  0.00000000000E+00 0. -1.
         13    1    4    4    0    0  0.55215866813E+02  0.99652694969E+01  0.60273256527E+02  0.82346608895E+02  0.00000000000E+00 0.  1.
        -13    1    3    3    0    0  0.39259693199E+02  0.77849565292E+02 -0.74005656736E+02  0.11436221209E+03  0.00000000000E+00 0.  1.
         13    1    3    3    0    0 -0.25468456363E+02 -0.59775030270E+01 -0.28982258735E+01  0.26320572280E+02  0.00000000000E+00 0. -1.
         -4    1    1    2    0  502 -0.33178352858E+02 -0.70746403113E+02  0.80839462157E+02  0.11243164721E+03  0.00000000000E+00 0.  1.
<scales pt_clust_5="13000.00000" pt_clust_6="13000.00000" pt_clust_7="13000.00000" pt_clust_8="13000.00000" pt_clust_9="78.13998"></scales>
<clustering>
<clus scale="   78.140">  1  9  2 -1</clus>
<clus scale="   92.313">  7  8 -1 -1</clus>
<clus scale="   92.723">  5  6 -1 -1</clus>
<clus scale="  109.539">  2  7  1 -1</clus>
<clus scale="   78.140">  1  5  2 -1</clus>
</clustering>
</event>
<event>
 9    1  0.1897992E-005  0.1103298E+03  0.7546771E-02  0.1269064E+00
         21   -1    0    0  501  502  0.00000000000E+00  0.00000000000E+00  0.92551260049E+02  0.92551260049E+02  0.00000000000E+00 0.  1.
         -1   -1    0    0    0  501 -0.00000000000E+00 -0.00000000000E+00 -0.58039139882E+03  0.58039139882E+03  0.00000000000E+00 0.  1.
         23    2    1    2    0    0 -0.40597077631E+02  0.31935168888E+01 -0.40378663510E+03  0.41997883708E+03  0.10807523145E+03 0.  0.
         23    2    1    2    0    0 -0.73609028266E+01  0.11090191303E+02 -0.14690614510E+03  0.17262425032E+03  0.89669064326E+02 0.  0.
        -11    1    3    3    0    0 -0.11213873989E+02  0.54760565901E+02 -0.20952882915E+03  0.21685663650E+03  0.00000000000E+00 0. -1.
         11    1    3    3    0    0 -0.29383203641E+02 -0.51567049012E+02 -0.19425780595E+03  0.20312220059E+03  0.00000000000E+00 0.  1.
        -13    1    4    4    0    0 -0.43106230865E+02  0.27045907806E+02 -0.92883886096E+02  0.10591054983E+03  0.00000000000E+00 0. -1.
         13    1    4    4    0    0  0.35745328038E+02 -0.15955716503E+02 -0.54022259005E+02  0.66713700495E+02  0.00000000000E+00 0.  1.
         -1    1    1    2    0  502  0.47957980457E+02 -0.14283708192E+02  0.62852641425E+02  0.80339571466E+02  0.00000000000E+00 0.  1.
<scales pt_clust_5="13000.00000" pt_clust_6="13000.00000" pt_clust_7="13000.00000" pt_clust_8="13000.00000" pt_clust_9="50.03991"></scales>
<clustering>
<clus scale="   50.040">  1  9  2 -1</clus>
<clus scale="   89.669">  7  8 -1 -1</clus>
<clus scale="   92.374">  1  7  2 -1</clus>
<clus scale="  108.075">  5  6 -1 -1</clus>
<clus scale="   50.040">  1  5  2 -1</clus>
</clustering>
</event>
<event>
 9    1  0.1671478E-005  0.1079364E+03  0.7546771E-02  0.1270601E+00
         -3   -1    0    0    0  501 -0.00000000000E+00  0.00000000000E+00  0.16245320313E+03  0.16245320313E+03  0.00000000000E+00 0.  1.
         21   -1    0    0  501  502  0.00000000000E+00 -0.00000000000E+00 -0.15324809734E+03  0.15324809734E+03  0.00000000000E+00 0. -1.
         23    2    1    2    0    0 -0.35393981585E+02  0.84661309761E+01  0.33299348741E+02  0.92013073775E+02  0.77673353300E+02 0.  0.
         23    2    1    2    0    0  0.81054662574E+02 -0.70443324932E+02  0.42836236994E+01  0.14164327758E+03  0.92262388328E+02 0.  0.
        -11    1    3    3    0    0 -0.44942040076E+02 -0.14030818125E+02  0.44811735512E+02  0.64998018917E+02  0.00000000000E+00 0.  1.
         11    1    3    3    0    0  0.95480584915E+01  0.22496949101E+02 -0.11512386772E+02  0.27015054858E+02  0.00000000000E+00 0. -1.
        -13    1    4    4    0    0 -0.80632902738E+01 -0.26638747568E+02 -0.25731400076E+02  0.37904412301E+02  0.00000000000E+00 0.  1.
         13    1    4    4    0    0  0.89117952847E+02 -0.43804577364E+02  0.30015023775E+02  0.10373886528E+03  0.00000000000E+00 0. -1.
         -3    1    1    2    0  502 -0.45660680989E+02  0.61977193956E+02 -0.28377866656E+02  0.82044949113E+02  0.00000000000E+00 0.  1.
<scales pt_clust_5="13000.00000" pt_clust_6="13000.00000" pt_clust_7="13000.00000" pt_clust_8="13000.00000" pt_clust_9="76.98097"></scales>
<clustering>
<clus scale="   76.981">  2  9  1 -1</clus>
<clus scale="   77.673">  5  6 -1 -1</clus>
<clus scale="   92.262">  7  8 -1 -1</clus>
<clus scale="   95.766">  1  5  2 -1</clus>
<clus scale="   76.981">  2  5  1 -1</clus>
</clustering>
</event>
<event>
 9    1  0.1671478E-005  0.9565198E+02  0.7546771E-02  0.1290037E+00
         -1   -1    0    0    0  501 -0.00000000000E+00  0.00000000000E+00  0.29569491136E+03  0.29569491136E+03  0.00000000000E+00 0.  1.
         21   -1    0    0  501  502  0.00000000000E+00 -0.00000000000E+00 -0.18075672644E+03  0.18075672644E+03  0.00000000000E+00 0.  1.
         23    2    1    2    0    0 -0.36816721730E+02  0.19405648723E+02  0.16576623024E+03  0.19364729372E+03  0.91042743124E+02 0.  0.
         23    2    1    2    0    0  0.12765438665E+02 -0.41591794204E+01  0.96392029243E+02  0.13285545480E+03  0.90437234424E+02 0.  0.
        -13    1    4    4    0    0 -0.21374543747E+02  0.30620705298E+02  0.20327160332E+02  0.42516963209E+02  0.00000000000E+00 0.  1.
         13    1    4    4    0    0  0.34139982411E+02 -0.34779884719E+02  0.76064868911E+02  0.90338491589E+02  0.00000000000E+00 0. -1.
        -13    1    3    3    0    0  0.25002424400E-01  0.29936473636E+02  0.75728044451E+01  0.30879450222E+02  0.00000000000E+00 0. -1.
         13    1    3    3    0    0 -0.36841724155E+02 -0.10530824913E+02  0.15819342580E+03  0.16276784350E+03  0.00000000000E+00 0.  1.
         -1    1    1    2    0  502  0.24051283066E+02 -0.15246469303E+02 -0.14722007457E+03  0.14994888929E+03  0.00000000000E+00 0.  1.
<scales pt_clust_5="13000.00000" pt_clust_6="13000.00000" pt_clust_7="13000.00000" pt_clust_8="13000.00000" pt_clust_9="28.47664"></scales>
<clustering>
<clus scale="   28.477">  2  9  1 -1</clus>
<clus scale="   90.437">  5  6 -1 -1</clus>
<clus scale="   91.043">  7  8 -1 -1</clus>
<clus scale="   95.076">  2  5  1 -1</clus>
<clus scale="   28.477">  2  5  1 -1</clus>
</clustering>
</event>
<event>
 9    1  0.2131548E-005  0.1069539E+03  0.7546771E-02  0.1266624E+00
         21   -1    0    0  501  502  0.00000000000E+00  0.00000000000E+00  0.24516075019E+03  0.24516075019E+03  0.00000000000E+00 0. -1.
          1   -1    0    0  502    0 -0.00000000000E+00 -0.00000000000E+00 -0.57169351064E+03  0.57169351064E+03  0.00000000000E+00 0. -1.
         23    2    1    2    0    0  0.10324330569E+02  0.38481668189E+02 -0.27552315858E+03  0.29310891705E+03  0.91719113355E+02 0.  0.
         23    2    1    2    0    0 -0.50228929705E+02 -0.62494603704E+02 -0.27204932007E+03  0.29785254812E+03  0.90976848695E+02 0.  0.
        -11    1    3    3    0    0 -0.34199005159E+02  0.41629570658E+02 -0.12521486884E+03  0.13631344939E+03  0.00000000000E+00 0. -1.
         11    1    3    3    0    0  0.44523335728E+02 -0.31479024691E+01 -0.15030828974E+03  0.15679546766E+03  0.00000000000E+00 0.  1.
        -11    1    4    4    0    0 -0.37253505922E+02 -0.21455196772E+02 -0.31027038360E+02  0.53017226270E+02  0.00000000000E+00 0.  1.
         11    1    4    4    0    0 -0.12975423784E+02 -0.41039406932E+02 -0.24102228171E+03  0.24483532185E+03  0.00000000000E+00 0. -1.
          1    1    1    2  501    0  0.39904599137E+02  0.24012935515E+02  0.22103971821E+03  0.22589279566E+03  0.00000000000E+00 0. -1.
<scales pt_clust_5="13000.00000" pt_clust_6="13000.00000" pt_clust_7="13000.00000" pt_clust_8="13000.00000" pt_clust_9="46.57250"></scales>
<clustering>
<clus scale="   46.573">  1  9  2 -1</clus>
<clus scale="   90.977">  7  8 -1 -1</clus>
<clus scale="   91.719">  5  6 -1 -1</clus>
<clus scale="  106.318">  1  7  2 -1</clus>
<clus scale="   46.573">  1  5  2 -1</clus>
</clustering>
</event>
<event>
 9    1  0.1671478E-005  0.1081627E+03  0.7546771E-02  0.1264164E+00
         21   -1    0    0  501  502  0.00000000000E+00  0.00000000000E+00  0.49441776428E+02  0.49441776428E+02  0.00000000000E+00 0.  1.
          1   -1    0    0  502    0 -0.00000000000E+00 -0.00000000000E+00 -0.65135936472E+03  0.65135936472E+03  0.00000000000E+00 0. -1.
         23    2    1    2    0    0  0.42036807328E+02 -0.40155760603E+02 -0.46929163840E+03  0.48163812815E+03  0.91438866632E+02 0.  0.
         23    2    1    2    0    0 -0.63107426995E+02  0.78755095203E+01 -0.14083474373E+03  0.17975019884E+03  0.91821228200E+02 0.  0.
        -11    1    3    3    0    0 -0.24085256580E+02 -0.34368682579E+02 -0.18521748662E+03  0.18991267276E+03  0.00000000000E+00 0. -1.
         11    1    3    3    0    0  0.66122063908E+02 -0.57870780241E+01 -0.28407415179E+03  0.29172545539E+03  0.00000000000E+00 0.  1.
        -13    1    4    4    0    0 -0.43573854222E+02  0.44811128221E+02 -0.50986778682E+02  0.80662070297E+02  0.00000000000E+00 0.  1.
         13    1    4    4    0    0 -0.19533572774E+02 -0.36935618701E+02 -0.89847965053E+02  0.99088128544E+02  0.00000000000E+00 0. -1.
          1    1    1    2  501    0  0.21070619667E+02  0.32280251082E+02  0.82087938505E+01  0.39412814155E+02  0.00000000000E+00 0. -1.
<scales pt_clust_5="13000.00000" pt_clust_6="13000.00000" pt_clust_7="13000.00000" pt_clust_8="13000.00000" pt_clust_9="38.54848"></scales>
<clustering>
<clus scale="   38.548">  1  9  2 -1</clus>
<clus scale="   91.439">  5  6 -1 -1</clus>
<clus scale="   91.821">  7  8 -1 -1</clus>
<clus scale="  107.838">  2  5  1 -1</clus>
<clus scale="   38.548">  1  5  2 -1</clus>
</clustering>
</event>
<event>
 9    1  0.1671478E-005  0.1053277E+03  0.7546771E-02  0.1271183E+00
         21   -1    0    0  501  502  0.00000000000E+00  0.00000000000E+00  0.34668794801E+02  0.34668794801E+02  0.00000000000E+00 0. -1.
          1   -1    0    0  502    0 -0.00000000000E+00 -0.00000000000E+00 -0.39107944188E+03  0.39107944188E+03  0.00000000000E+00 0. -1.
         23    2    1    2    0    0 -0.18038319676E+02  0.38227612677E+02 -0.17033199622E+03  0.19836868112E+03  0.92468445240E+02 0.  0.
         23    2    1    2    0    0  0.38978377504E+02 -0.47398542029E+02 -0.15047605415E+03  0.18506954659E+03  0.88553704054E+02 0.  0.
        -11    1    4    4    0    0  0.26489043872E+02 -0.71029064719E+02 -0.82565963762E+02  0.11208896401E+03  0.00000000000E+00 0. -1.
         11    1    4    4    0    0  0.12489333632E+02  0.23630522690E+02 -0.67910090389E+02  0.72980582581E+02  0.00000000000E+00 0.  1.
        -13    1    3    3    0    0  0.28382444857E+02  0.42745905841E+02 -0.62375502024E+02  0.80768056155E+02  0.00000000000E+00 0. -1.
         13    1    3    3    0    0 -0.46420764533E+02 -0.45182931641E+01 -0.10795649420E+03  0.11760062497E+03  0.00000000000E+00 0.  1.
          1    1    1    2  501    0 -0.20940057828E+02  0.91709293518E+01 -0.35602596699E+02  0.42310008966E+02  0.00000000000E+00 0. -1.
<scales pt_clust_5="13000.00000" pt_clust_6="13000.00000" pt_clust_7="13000.00000" pt_clust_8="13000.00000" pt_clust_9="22.86028"></scales>
<clustering>
<clus scale="   22.860">  1  9  2 -1</clus>
<clus scale="   88.554">  5  6 -1 -1</clus>
<clus scale="   92.468">  7  8 -1 -1</clus>
<clus scale="  101.908">  1  5  2 -1</clus>
<clus scale="   22.860">  1  5  2 -1</clus>
</clustering>
</event>
<event>
 9    1  0.2430581E-005  0.1790635E+03  0.7546771E-02  0.1169033E+00
         21   -1    0    0  501  502  0.00000000000E+00  0.00000000000E+00  0.22762302923E+03  0.22762302923E+03  0.00000000000E+00 0.  1.
          1   -1    0    0  502    0 -0.00000000000E+00 -0.00000000000E+00 -0.66969740842E+03  0.66969740842E+03  0.00000000000E+00 0. -1.
         23    2    1    2    0    0 -0.14955950261E+03  0.38377976517E+02 -0.56996201615E+03  0.59738659634E+03  0.90405374509E+02 0.  0.
         23    2    1    2    0    0  0.12837872632E+03 -0.30997712140E+02  0.18082119291E+03  0.24244423415E+03  0.92956696023E+02 0.  0.
        -13    1    4    4    0    0  0.10348511022E+03 -0.62766788805E+02  0.13940194699E+03  0.18461240651E+03  0.00000000000E+00 0.  1.
         13    1    4    4    0    0  0.24893616099E+02  0.31769076665E+02  0.41419245924E+02  0.57831827635E+02  0.00000000000E+00 0. -1.
        -13    1    3    3    0    0 -0.63504869292E+02 -0.31684162556E+01 -0.10536280076E+03  0.12306188309E+03  0.00000000000E+00 0.  1.
         13    1    3    3    0    0 -0.86054633313E+02  0.41546392773E+02 -0.46459921538E+03  0.47432471325E+03  0.00000000000E+00 0. -1.
          1    1    1    2  501    0  0.21180776281E+02 -0.73802643770E+01 -0.52933555954E+02  0.57489607166E+02  0.00000000000E+00 0. -1.
<scales pt_clust_5="13000.00000" pt_clust_6="13000.00000" pt_clust_7="13000.00000" pt_clust_8="13000.00000" pt_clust_9="22.42976"></scales>
<clustering>
<clus scale="   22.430">  1  9  2 -1</clus>
<clus scale="   90.405">  7  8 -1 -1</clus>
<clus scale="   92.957">  5  6 -1 -1</clus>
<clus scale="  177.752">  2  7  1 -1</clus>
<clus scale="   22.430">  1  5  2 -1</clus>
</clustering>
</event>
<event>
 9    1  0.1671478E-005  0.1042937E+03  0.7546771E-02  0.1276487E+00
         21   -1    0    0  501  502  0.00000000000E+00  0.00000000000E+00  0.85200883157E+02  0.85200883157E+02  0.00000000000E+00 0. -1.
          1   -1    0    0  502    0 -0.00000000000E+00 -0.00000000000E+00 -0.39047464260E+03  0.39047464260E+03  0.00000000000E+00 0. -1.
         23    2    1    2    0    0 -0.24567556302E+02 -0.55766914405E+01 -0.20554435046E+03  0.22615325616E+03  0.90896374837E+02 0.  0.
         23    2    1    2    0    0  0.21156098283E+02  0.26173697114E+02 -0.15643392938E+03  0.18909646945E+03  0.10076337421E+03 0.  0.
        -11    1    4    4    0    0  0.49133687460E+02 -0.93969386124E+01 -0.12314197869E+03  0.13291489238E+03  0.00000000000E+00 0. -1.
         11    1    4    4    0    0 -0.27977589177E+02  0.35570635726E+02 -0.33291950684E+02  0.56181577074E+02  0.00000000000E+00 0.  1.
        -13    1    3    3    0    0 -0.22067462537E+02 -0.47201219895E+02 -0.10228048055E+03  0.11478773786E+03  0.00000000000E+00 0.  1.
         13    1    3    3    0    0 -0.25000937655E+01  0.41624528455E+02 -0.10326386991E+03  0.11136551830E+03  0.00000000000E+00 0. -1.
          1    1    1    2  501    0  0.34114580191E+01 -0.20597005674E+02  0.56704520398E+02  0.60425800137E+02  0.00000000000E+00 0. -1.
<scales pt_clust_5="13000.00000" pt_clust_6="13000.00000" pt_clust_7="13000.00000" pt_clust_8="13000.00000" pt_clust_9="20.87761"></scales>
<clustering>
<clus scale="   20.878">  1  9  2 -1</clus>
<clus scale="   90.896">  7  8 -1 -1</clus>
<clus scale="   94.795">  2  7  1 -1</clus>
<clus scale="  100.763">  5  6 -1 -1</clus>
<clus scale="   20.878">  1  5  2 -1</clus>
</clustering>
</event>
<event>
 9    1  0.1671478E-005  0.1017715E+03  0.7546771E-02  0.1276939E+00
          3   -1    0    0  502    0 -0.00000000000E+00  0.00000000000E+00  0.41879411099E+03  0.41879411099E+03  0.00000000000E+00 0. -1.
         21   -1    0    0  501  502  0.00000000000E+00 -0.00000000000E+00 -0.32014405877E+03  0.32014405877E+03  0.00000000000E+00 0. -1.
         23    2    1    2    0    0  0.84367476740E+01  0.43931419579E+02  0.37957721079E+03  0.39285998163E+03  0.90878808741E+02 0.  0.
         23    2    1    2    0    0  0.26755598970E+02 -0.44717425069E+02 -0.57776586297E+02  0.12016825702E+03  0.91579287449E+02 0.  0.
        -11    1    3    3    0    0  0.44119381972E+01 -0.28307542907E+02  0.12158505370E+03  0.12491480083E+03  0.00000000000E+00 0.  1.
         11    1    3    3    0    0  0.40248094769E+01  0.72238962486E+02  0.25799215709E+03  0.26794518080E+03  0.00000000000E+00 0. -1.
        -13    1    4    4    0    0 -0.34055369446E+02 -0.14549679601E+02 -0.25778523269E+02  0.45121986066E+02  0.00000000000E+00 0.  1.
         13    1    4    4    0    0  0.60810968416E+02 -0.30167745468E+02 -0.31998063028E+02  0.75046270952E+02  0.00000000000E+00 0. -1.
          3    1    1    2  501    0 -0.35192346644E+02  0.78600548958E+00 -0.22315057227E+03  0.22590993111E+03  0.00000000000E+00 0. -1.
<scales pt_clust_5="13000.00000" pt_clust_6="13000.00000" pt_clust_7="13000.00000" pt_clust_8="13000.00000" pt_clust_9="35.20112"></scales>
<clustering>
<clus scale="   35.201">  2  9  1 -1</clus>
<clus scale="   90.879">  5  6 -1 -1</clus>
<clus scale="   91.579">  7  8 -1 -1</clus>
<clus scale="  101.142">  1  5  2 -1</clus>
<clus scale="   35.201">  2  5  1 -1</clus>
</clustering>
</event>
<event>
 9    1  0.1671478E-005  0.9763704E+02  0.7546771E-02  0.1288308E+00
          2   -1    0    0  502    0 -0.00000000000E+00  0.00000000000E+00  0.44937434927E+03  0.44937434927E+03  0.00000000000E+00 0. -1.
         21   -1    0    0  501  502  0.00000000000E+00 -0.00000000000E+00 -0.48478821435E+02  0.48478821435E+02  0.00000000000E+00 0. -1.
         23    2    1    2    0    0  0.72463611001E+01  0.49203356926E+01  0.18415560361E+03  0.20476737604E+03  0.89104839902E+02 0.  0.
         23    2    1    2    0    0 -0.30458805997E+02  0.44679923100E+02  0.21170116628E+03  0.23809131902E+03  0.94583603227E+02 0.  0.
        -13    1    3    3    0    0 -0.23983628061E+02  0.27509905355E+02  0.34478836162E+02  0.50207563680E+02  0.00000000000E+00 0. -1.
         13    1    3    3    0    0  0.31229989162E+02 -0.22589569663E+02  0.14967676745E+03  0.15455981236E+03  0.00000000000E+00 0.  1.
        -13    1    4    4    0    0 -0.53951954652E+02  0.45890245618E+02  0.19927199598E+03  0.21148535750E+03  0.00000000000E+00 0. -1.
         13    1    4    4    0    0  0.23493148656E+02 -0.12103225180E+01  0.12429170296E+02  0.26605961524E+02  0.00000000000E+00 0.  1.
          2    1    1    2  501    0  0.23212444897E+02 -0.49600258792E+02  0.50387579472E+01  0.54994475650E+02  0.00000000000E+00 0. -1.
<scales pt_clust_5="13000.00000" pt_clust_6="13000.00000" pt_clust_7="13000.00000" pt_clust_8="13000.00000" pt_clust_9="54.76316"></scales>
<clustering>
<clus scale="   54.763">  2  9  1 -1</clus>
<clus scale="   89.105">  5  6 -1 -1</clus>
<clus scale="   92.340">  1  5  2 -1</clus>
<clus scale="   94.584">  7  8 -1 -1</clus>
<clus scale="   54.763">  2  5  1 -1</clus>
</clustering>
</event>
<event>
 9    1  0.1671478E-005  0.1738267E+03  0.7546771E-02  0.1188622E+00
          1   -1    0    0  502    0 -0.00000000000E+00  0.00000000000E+00  0.13244426249E+03  0.13244426249E+03  0.00000000000E+00 0. -1.
         21   -1    0    0  501  502  0.00000000000E+00 -0.00000000000E+00 -0.53111141254E+03  0.53111141254E+03  0.00000000000E+00 0. -1.
         23    2    1    2    0    0 -0.76670737540E+02  0.36649996994E+02 -0.37026945574E+02  0.13035217761E+03  0.91646446923E+02 0.  0.
         23    2    1    2    0    0  0.20053646128E+03 -0.74713478431E+02 -0.12931302669E+03  0.26718195003E+03  0.94166657531E+02 0.  0.
        -13    1    4    4    0    0  0.40606846621E+02 -0.27372772332E+00  0.10667784606E+02  0.41985623108E+02  0.00000000000E+00 0.  1.
         13    1    4    4    0    0  0.15992961466E+03 -0.74439750707E+02 -0.13998081129E+03  0.22519632693E+03  0.00000000000E+00 0. -1.
        -13    1    3    3    0    0  0.62327479443E+01  0.21711177445E+02 -0.40136560421E+02  0.46056116373E+02  0.00000000000E+00 0.  1.
         13    1    3    3    0    0 -0.82903485484E+02  0.14938819549E+02  0.31096148469E+01  0.84296061233E+02  0.00000000000E+00 0. -1.
          1    1    1    2  501    0 -0.12386572374E+03  0.38063481437E+02 -0.23232717778E+03  0.26602154739E+03  0.00000000000E+00 0. -1.
<scales pt_clust_5="13000.00000" pt_clust_6="13000.00000" pt_clust_7="13000.00000" pt_clust_8="13000.00000" pt_clust_9="146.11075"></scales>
<clustering>
<clus scale="   91.646">  7  8 -1 -1</clus>
<clus scale="   94.167">  5  6 -1 -1</clus>
<clus scale="  124.983">  1  7  2 -1</clus>
<clus scale="  146.111">  2  9  1 -1</clus>
<clus scale="  146.111">  2  5  1 -1</clus>
</clustering>
</event>
<event>
 9    1  0.1671478E-005  0.9728391E+02  0.7546771E-02  0.1287233E+00
          2   -1    0    0  502    0 -0.00000000000E+00  0.00000000000E+00  0.25785023105E+03  0.25785023105E+03  0.00000000000E+00 0. -1.
         21   -1    0    0  501  502  0.00000000000E+00 -0.00000000000E+00 -0.56923844224E+02  0.56923844224E+02  0.00000000000E+00 0. -1.
         23    2    1    2    0    0  0.19104150060E+02  0.41365423966E+02  0.76757713135E+02  0.12737075511E+03  0.90859759417E+02 0.  0.
         23    2    1    2    0    0  0.54052266963E+01 -0.13143975811E+02  0.55491348300E+02  0.10921294539E+03  0.92984929579E+02 0.  0.
        -11    1    3    3    0    0 -0.34460913121E+02  0.27652187196E+02  0.47278780549E+02  0.64710749340E+02  0.00000000000E+00 0.  1.
         11    1    3    3    0    0  0.53565063181E+02  0.13713236770E+02  0.29478932585E+02  0.62660005766E+02  0.00000000000E+00 0. -1.
        -13    1    4    4    0    0  0.23511279496E+02  0.35167573654E+02  0.21756038191E+02  0.47569566931E+02  0.00000000000E+00 0. -1.
         13    1    4    4    0    0 -0.18106052800E+02 -0.48311549465E+02  0.33735310109E+02  0.61643378459E+02  0.00000000000E+00 0.  1.
          2    1    1    2  501    0 -0.24509376756E+02 -0.28221448155E+02  0.68677325394E+02  0.78190374779E+02  0.00000000000E+00 0. -1.
<scales pt_clust_5="13000.00000" pt_clust_6="13000.00000" pt_clust_7="13000.00000" pt_clust_8="13000.00000" pt_clust_9="37.37862"></scales>
<clustering>
<clus scale="   37.379">  2  9  1 -1</clus>
<clus scale="   90.860">  5  6 -1 -1</clus>
<clus scale="   92.985">  7  8 -1 -1</clus>
<clus scale="   95.255">  1  5  2 -1</clus>
<clus scale="   37.379">  2  5  1 -1</clus>
</clustering>
</event>
<event>
 9    1  0.1671478E-005  0.1100046E+03  0.7546771E-02  0.1261799E+00
         21   -1    0    0  501  502  0.00000000000E+00  0.00000000000E+00  0.22203747572E+02  0.22203747572E+02  0.00000000000E+00 0.  1.
          1   -1    0    0  502    0 -0.00000000000E+00 -0.00000000000E+00 -0.87751236365E+03  0.87751236365E+03  0.00000000000E+00 0. -1.
         23    2    1    2    0    0 -0.14316224399E+02  0.51157072975E+02 -0.42516082911E+03  0.43838640890E+03  0.92730321378E+02 0.  0.
         23    2    1    2    0    0 -0.24920671817E+02 -0.70121100112E+02 -0.36348280195E+03  0.38168430963E+03  0.89583236922E+02 0.  0.
        -11    1    4    4    0    0 -0.57344516443E+02 -0.35034114209E+02 -0.18169506693E+03  0.19372372098E+03  0.00000000000E+00 0.  1.
         11    1    4    4    0    0  0.32423844626E+02 -0.35086985903E+02 -0.18178773502E+03  0.18796058865E+03  0.00000000000E+00 0. -1.
        -13    1    3    3    0    0 -0.29113554066E+02  0.67538814554E+02 -0.38996993508E+03  0.39684460532E+03  0.00000000000E+00 0.  1.
         13    1    3    3    0    0  0.14797329667E+02 -0.16381741579E+02 -0.35190894027E+02  0.41541803582E+02  0.00000000000E+00 0. -1.
          1    1    1    2  501    0  0.39236896215E+02  0.18964027137E+02 -0.66664985014E+02  0.79645392690E+02  0.00000000000E+00 0. -1.
<scales pt_clust_5="13000.00000" pt_clust_6="13000.00000" pt_clust_7="13000.00000" pt_clust_8="13000.00000" pt_clust_9="43.57945"></scales>
<clustering>
<clus scale="   43.579">  1  9  2 -1</clus>
<clus scale="   89.583">  5  6 -1 -1</clus>
<clus scale="   92.730">  7  8 -1 -1</clus>
<clus scale="  107.365">  1  5  2 -1</clus>
<clus scale="   43.579">  1  5  2 -1</clus>
</clustering>
</event>
<event>
 9    1  0.1671478E-005  0.9528230E+02  0.7546771E-02  0.1290892E+00
          2   -1    0    0  502    0 -0.00000000000E+00  0.00000000000E+00  0.11129092038E+03  0.11129092038E+03  0.00000000000E+00 0. -1.
         21   -1    0    0  501  502  0.00000000000E+00 -0.00000000000E+00 -0.16627287802E+03  0.16627287802E+03  0.00000000000E+00 0.  1.
         23    2    1    2    0    0  0.53218841810E+01 -0.24374257517E+02  0.33215236390E+02  0.10001755810E+03  0.90982597890E+02 0.  0.
         23    2    1    2    0    0  0.27218505928E+02  0.27129586963E+02 -0.19186071754E+02  0.10119832725E+03  0.91630423636E+02 0.  0.
        -13    1    4    4    0    0  0.24245407751E+02  0.60189520937E+02 -0.20287311536E+02  0.67986713680E+02  0.00000000000E+00 0.  1.
         13    1    4    4    0    0  0.29730981769E+01 -0.33059933973E+02  0.11012397821E+01  0.33211613573E+02  0.00000000000E+00 0. -1.
        -13    1    3    3    0    0  0.29193252788E+02 -0.13564523791E+01 -0.21331514379E+02  0.36181756137E+02  0.00000000000E+00 0.  1.
         13    1    3    3    0    0 -0.23871368607E+02 -0.23017805138E+02  0.54546750770E+02  0.63835801962E+02  0.00000000000E+00 0. -1.
          2    1    1    2  501    0 -0.32540390109E+02 -0.27553294468E+01 -0.69011122273E+02  0.76347913044E+02  0.00000000000E+00 0. -1.
<scales pt_clust_5="13000.00000" pt_clust_6="13000.00000" pt_clust_7="13000.00000" pt_clust_8="13000.00000" pt_clust_9="32.65683"></scales>
<clustering>
<clus scale="   32.657">  2  9  1 -1</clus>
<clus scale="   90.983">  7  8 -1 -1</clus>
<clus scale="   91.630">  5  6 -1 -1</clus>
<clus scale="   94.659">  1  7  2 -1</clus>
<clus scale="   32.657">  2  5  1 -1</clus>
</clustering>
</event>
<event>
 9    1  0.1671478E-005  0.9466179E+02  0.7546771E-02  0.1292326E+00
          1   -1    0    0  502    0 -0.00000000000E+00  0.00000000000E+00  0.44987943011E+03  0.44987943011E+03  0.00000000000E+00 0. -1.
         21   -1    0    0  501  502  0.00000000000E+00 -0.00000000000E+00 -0.50231568006E+02  0.50231568006E+02  0.00000000000E+00 0.  1.
         23    2    1    2    0    0  0.22729613631E+02 -0.54634534965E+01  0.35401282812E+03  0.36616868185E+03  0.90597662404E+02 0.  0.
         23    2    1    2    0    0 -0.25461528125E+02  0.30371505897E+02  0.44020140539E+02  0.10883290942E+03  0.91302308926E+02 0.  0.
        -11    1    4    4    0    0  0.32156900344E+01  0.53599615563E+02  0.47598302306E+02  0.71755542179E+02  0.00000000000E+00 0. -1.
         11    1    4    4    0    0 -0.28677218159E+02 -0.23228109666E+02 -0.35781617679E+01  0.37077367243E+02  0.00000000000E+00 0.  1.
        -13    1    3    3    0    0 -0.28332783859E+02  0.72211394285E+01  0.52438390517E+02  0.60038956485E+02  0.00000000000E+00 0.  1.
         13    1    3    3    0    0  0.51062397490E+02 -0.12684592925E+02  0.30157443760E+03  0.30612972536E+03  0.00000000000E+00 0. -1.
          1    1    1    2  501    0  0.27319144938E+01 -0.24908052401E+02  0.16148934439E+01  0.25109406844E+02  0.00000000000E+00 0. -1.
<scales pt_clust_5="13000.00000" pt_clust_6="13000.00000" pt_clust_7="13000.00000" pt_clust_8="13000.00000" pt_clust_9="25.05742"></scales>
<clustering>
<clus scale="   25.057">  2  9  1 -1</clus>
<clus scale="   90.598">  7  8 -1 -1</clus>
<clus scale="   91.302">  5  6 -1 -1</clus>
<clus scale="   93.982">  1  7  2 -1</clus>
<clus scale="   25.057">  2  5  1 -1</clus>
</clustering>
</event>
<event>
 9    1  0.1671478E-005  0.1166978E+03  0.7546771E-02  0.1249986E+00
         21   -1    0    0  501  502  0.00000000000E+00  0.00000000000E+00  0.19053946688E+03  0.19053946688E+03  0.00000000000E+00 0.  1.
          3   -1    0    0  502    0 -0.00000000000E+00 -0.00000000000E+00 -0.13375970044E+03  0.13375970044E+03  0.00000000000E+00 0. -1.
         23    2    1    2    0    0 -0.34214296721E+02  0.34023302807E+02  0.70449035565E+01  0.10253479295E+03  0.90197283022E+02 0.  0.
         23    2    1    2    0    0  0.87241394858E+02 -0.33794570030E+02 -0.19996035962E+02  0.13416115691E+03  0.94054455656E+02 0.  0.
        -11    1    3    3    0    0  0.20146605390E+02 -0.28406646414E+01  0.27074507439E+02  0.33867152780E+02  0.00000000000E+00 0.  1.
         11    1    3    3    0    0 -0.54360902112E+02  0.36863967448E+02 -0.20029603883E+02  0.68667640167E+02  0.00000000000E+00 0. -1.
        -13    1    4    4    0    0  0.99556563703E+01 -0.46461755603E+02 -0.28461005820E+02  0.55388073444E+02  0.00000000000E+00 0. -1.
         13    1    4    4    0    0  0.77285738488E+02  0.12667185573E+02  0.84649698581E+01  0.78773083466E+02  0.00000000000E+00 0.  1.
          3    1    1    2  501    0 -0.53027098137E+02 -0.22873277688E+00  0.69730898846E+02  0.87603217460E+02  0.00000000000E+00 0. -1.
<scales pt_clust_5="13000.00000" pt_clust_6="13000.00000" pt_clust_7="13000.00000" pt_clust_8="13000.00000" pt_clust_9="53.02759"></scales>
<clustering>
<clus scale="   53.028">  1  9  2 -1</clus>
<clus scale="   90.197">  5  6 -1 -1</clus>
<clus scale="   94.054">  7  8 -1 -1</clus>
<clus scale="  113.612">  2  5  1 -1</clus>
<clus scale="   53.028">  1  5  2 -1</clus>
</clustering>
</event>
<event>
 9    1  0.1671478E-005  0.9702312E+02  0.7546771E-02  0.1287019E+00
          1   -1    0    0  502    0 -0.00000000000E+00  0.00000000000E+00  0.67289389853E+03  0.67289389853E+03  0.00000000000E+00 0. -1.
         21   -1    0    0  501  502  0.00000000000E+00 -0.00000000000E+00 -0.19459572653E+02  0.19459572653E+02  0.00000000000E+00 0.  1.
         23    2    1    2    0    0  0.21304283417E+02  0.21281843848E+02  0.40277280357E+03  0.41387668709E+03  0.90339312909E+02 0.  0.
         23    2    1    2    0    0 -0.15419955817E+02 -0.40743771775E+02  0.20415116398E+03  0.22771651043E+03  0.90990556613E+02 0.  0.
        -11    1    3    3    0    0  0.45117402820E+02 -0.17410055501E+02  0.17173234071E+03  0.17841156609E+03  0.00000000000E+00 0.  1.
         11    1    3    3    0    0 -0.23813119403E+02  0.38691899350E+02  0.23104046286E+03  0.23546512100E+03  0.00000000000E+00 0. -1.
        -13    1    4    4    0    0 -0.35242004713E+02 -0.54643505084E+02  0.90028790068E+02  0.11105446675E+03  0.00000000000E+00 0. -1.
         13    1    4    4    0    0  0.19822048896E+02  0.13899733309E+02  0.11412237391E+03  0.11666204368E+03  0.00000000000E+00 0.  1.
          1    1    1    2  501    0 -0.58843276001E+01  0.19461927927E+02  0.46510358331E+02  0.50760273660E+02  0.00000000000E+00 0. -1.
<scales pt_clust_5="13000.00000" pt_clust_6="13000.00000" pt_clust_7="13000.00000" pt_clust_8="13000.00000" pt_clust_9="20.33204"></scales>
<clustering>
<clus scale="   20.332">  2  9  1 -1</clus>
<clus scale="   90.339">  5  6 -1 -1</clus>
<clus scale="   90.991">  7  8 -1 -1</clus>
<clus scale="   96.413">  1  5  2 -1</clus>
<clus scale="   20.332">  2  5  1 -1</clus>
</clustering>
</event>
<event>
 9    1  0.1671478E-005  0.1219389E+03  0.7546771E-02  0.1241203E+00
         21   -1    0    0  501  502  0.00000000000E+00  0.00000000000E+00  0.87290659900E+02  0.87290659900E+02  0.00000000000E+00 0. -1.
          1   -1    0    0  502    0 -0.00000000000E+00 -0.00000000000E+00 -0.54724183035E+03  0.54724183035E+03  0.00000000000E+00 0. -1.
         23    2    1    2    0    0  0.32567238993E+02 -0.60912512730E+02 -0.39016148397E+03  0.40674826396E+03  0.91908690533E+02 0.  0.
         23    2    1    2    0    0 -0.90653123879E+02  0.77803869143E+02 -0.67088202766E+02  0.16723188564E+03  0.95886629424E+02 0.  0.
        -13    1    3    3    0    0 -0.27177905567E+02 -0.30767312080E+02 -0.22194379954E+03  0.22570847613E+03  0.00000000000E+00 0.  1.
         13    1    3    3    0    0  0.59745144560E+02 -0.30145200650E+02 -0.16821768443E+03  0.18103978783E+03  0.00000000000E+00 0. -1.
        -13    1    4    4    0    0 -0.42143134173E+02  0.42155416035E+02  0.18661069130E+02  0.62460854622E+02  0.00000000000E+00 0.  1.
         13    1    4    4    0    0 -0.48509989706E+02  0.35648453108E+02 -0.85749271896E+02  0.10477103102E+03  0.00000000000E+00 0. -1.
          1    1    1    2  501    0  0.58085884886E+02 -0.16891356413E+02 -0.27014837173E+01  0.60552340655E+02  0.00000000000E+00 0. -1.
<scales pt_clust_5="13000.00000" pt_clust_6="13000.00000" pt_clust_7="13000.00000" pt_clust_8="13000.00000" pt_clust_9="60.49205"></scales>
<clustering>
<clus scale="   60.492">  1  9  2 -1</clus>
<clus scale="   91.909">  5  6 -1 -1</clus>
<clus scale="   95.887">  7  8 -1 -1</clus>
<clus scale="  118.836">  2  5  1 -1</clus>
<clus scale="   60.492">  1  5  2 -1</clus>
</clustering>
</event>
<event>
 9    1  0.1671478E-005  0.1228483E+03  0.7546771E-02  0.1238873E+00
          2   -1    0    0  502    0 -0.00000000000E+00  0.00000000000E+00  0.25400324627E+03  0.25400324627E+03  0.00000000000E+00 0. -1.
         21   -1    0    0  501  502  0.00000000000E+00 -0.00000000000E+00 -0.11981634589E+03  0.11981634589E+03  0.00000000000E+00 0. -1.
         23    2    1    2    0    0 -0.25569736471E+02  0.68001640772E+02  0.95891505600E+02  0.14974898331E+03  0.89171422467E+02 0.  0.
         23    2    1    2    0    0  0.47192228598E+02 -0.84509272186E+02  0.93723733644E+02  0.16232650136E+03  0.90536353313E+02 0.  0.
        -11    1    4    4    0    0  0.53939906168E+02 -0.56468586334E+02  0.16393810124E+02  0.79793306300E+02  0.00000000000E+00 0.  1.
         11    1    4    4    0    0 -0.67476775697E+01 -0.28040685852E+02  0.77329923521E+02  0.82533195063E+02  0.00000000000E+00 0. -1.
        -13    1    3    3    0    0  0.19974793217E+02  0.49568955364E+02  0.15696822537E+02  0.55699766047E+02  0.00000000000E+00 0.  1.
         13    1    3    3    0    0 -0.45544529688E+02  0.18432685407E+02  0.80194683063E+02  0.94049217261E+02  0.00000000000E+00 0. -1.
          2    1    1    2  501    0 -0.21622492127E+02  0.16507631414E+02 -0.55428338860E+02  0.61744107488E+02  0.00000000000E+00 0. -1.
<scales pt_clust_5="13000.00000" pt_clust_6="13000.00000" pt_clust_7="13000.00000" pt_clust_8="13000.00000" pt_clust_9="27.20357"></scales>
<clustering>
<clus scale="   27.204">  2  9  1 -1</clus>
<clus scale="   89.171">  7  8 -1 -1</clus>
<clus scale="   90.536">  5  6 -1 -1</clus>
<clus scale="  121.846">  1  7  2 -1</clus>
<clus scale="   27.204">  2  5  1 -1</clus>
</clustering>
</event>
<event>
 9    1  0.1671478E-005  0.1711471E+03  0.7546771E-02  0.1176874E+00
          1   -1    0    0  502    0 -0.00000000000E+00  0.00000000000E+00  0.28055803136E+03  0.28055803136E+03  0.00000000000E+00 0. -1.
         21   -1    0    0  501  502  0.00000000000E+00 -0.00000000000E+00 -0.14230470168E+03  0.14230470168E+03  0.00000000000E+00 0.  1.
         23    2    1    2    0    0  0.59941084949E+02 -0.13397106240E+03  0.58199228622E+02  0.18227181154E+03  0.91075154924E+02 0.  0.
         23    2    1    2    0    0 -0.99528892200E+02  0.10800271857E+03  0.35566378059E+02  0.17562395403E+03  0.89488649446E+02 0.  0.
        -13    1    3    3    0    0  0.12370183507E+02 -0.12336365487E+03  0.42617961360E+02  0.13110264457E+03  0.00000000000E+00 0.  1.
         13    1    3    3    0    0  0.47570901442E+02 -0.10607407524E+02  0.15581267262E+02  0.51169166965E+02  0.00000000000E+00 0. -1.
        -13    1    4    4    0    0 -0.48828111574E+02  0.70080035122E+01  0.38507655983E+02  0.62579039321E+02  0.00000000000E+00 0. -1.
         13    1    4    4    0    0 -0.50700780626E+02  0.10099471506E+03 -0.29412779238E+01  0.11304491471E+03  0.00000000000E+00 0.  1.
          1    1    1    2  501    0  0.39587807251E+02  0.25968343828E+02  0.44487723005E+02  0.64966967470E+02  0.00000000000E+00 0. -1.
<scales pt_clust_5="13000.00000" pt_clust_6="13000.00000" pt_clust_7="13000.00000" pt_clust_8="13000.00000" pt_clust_9="47.34503"></scales>
<clustering>
<clus scale="   47.345">  2  9  1 -1</clus>
<clus scale="   89.489">  7  8 -1 -1</clus>
<clus scale="   91.075">  5  6 -1 -1</clus>
<clus scale="  170.308">  2  7  1 -1</clus>
<clus scale="   47.345">  2  5  1 -1</clus>
</clustering>
</event>
<event>
 9    1  0.1671478E-005  0.1706251E+03  0.7546771E-02  0.1177785E+00
         21   -1    0    0  501  502  0.00000000000E+00  0.00000000000E+00  0.97631131700E+02  0.97631131700E+02  0.00000000000E+00 0. -1.
          2   -1    0    0  502    0 -0.00000000000E+00 -0.00000000000E+00 -0.88791553297E+03  0.88791553297E+03  0.00000000000E+00 0. -1.
         23    2    1    2    0    0 -0.11494938614E+02  0.13560298217E+03 -0.60828163316E+03  0.62914749971E+03  0.85438450186E+02 0.  0.
         23    2    1    2    0    0 -0.40324166125E+02 -0.18963726201E+03 -0.18331618408E+03  0.28152161108E+03  0.89784545684E+02 0.  0.
        -11    1    3    3    0    0  0.28788621487E+02  0.18273550754E+02 -0.18268785685E+03  0.18584283797E+03  0.00000000000E+00 0. -1.
         11    1    3    3    0    0 -0.40283560101E+02  0.11732943142E+03 -0.42559377631E+03  0.44330466175E+03  0.00000000000E+00 0.  1.
        -13    1    4    4    0    0 -0.16761522196E+02 -0.68033066589E+02 -0.13541484531E+02  0.71363986570E+02  0.00000000000E+00 0.  1.
         13    1    4    4    0    0 -0.23562643928E+02 -0.12160419542E+03 -0.16977469955E+03  0.21015762451E+03  0.00000000000E+00 0. -1.
          2    1    1    2  501    0  0.51819104739E+02  0.54034279835E+02  0.13134159666E+01  0.74877553878E+02  0.00000000000E+00 0. -1.
<scales pt_clust_5="13000.00000" pt_clust_6="13000.00000" pt_clust_7="13000.00000" pt_clust_8="13000.00000" pt_clust_9="74.86603"></scales>
<clustering>
<clus scale="   74.866">  1  9  2 -1</clus>
<clus scale="   85.438">  5  6 -1 -1</clus>
<clus scale="   89.785">  7  8 -1 -1</clus>
<clus scale="  168.379">  2  5  1 -1</clus>
<clus scale="   74.866">  1  5  2 -1</clus>
</clustering>
</event>
<event>
 9    1  0.1671478E-005  0.1527790E+03  0.7546771E-02  0.1219451E+00
         21   -1    0    0  501  502  0.00000000000E+00  0.00000000000E+00  0.32373276531E+03  0.32373276531E+03  0.00000000000E+00 0. -1.
          1   -1    0    0  502    0 -0.00000000000E+00 -0.00000000000E+00 -0.23024449488E+03  0.23024449488E+03  0.00000000000E+00 0. -1.
         23    2    1    2    0    0  0.10167675011E+02  0.23022974739E+02  0.12247758647E+03  0.15479322456E+03  0.91250995623E+02 0.  0.
         23    2    1    2    0    0  0.10687943545E+03 -0.15640310177E+02 -0.16419810713E+03  0.22019815074E+03  0.99289345754E+02 0.  0.
        -13    1    3    3    0    0  0.31694105758E+02  0.12812499751E+02  0.45551893117E+01  0.34488059373E+02  0.00000000000E+00 0. -1.
         13    1    3    3    0    0 -0.21526430747E+02  0.10210474988E+02  0.11792239715E+03  0.12030516519E+03  0.00000000000E+00 0.  1.
        -13    1    4    4    0    0  0.49298193463E+02 -0.38113237607E+02 -0.23635122740E+02  0.66644953196E+02  0.00000000000E+00 0.  1.
         13    1    4    4    0    0  0.57581241991E+02  0.22472927430E+02 -0.14056298439E+03  0.15355319754E+03  0.00000000000E+00 0. -1.
          1    1    1    2  501    0 -0.11704711046E+03 -0.73826645624E+01  0.13520879108E+03  0.17898588489E+03  0.00000000000E+00 0. -1.
<scales pt_clust_5="13000.00000" pt_clust_6="13000.00000" pt_clust_7="13000.00000" pt_clust_8="13000.00000" pt_clust_9="116.11650"></scales>
<clustering>
<clus scale="   91.251">  5  6 -1 -1</clus>
<clus scale="   94.658">  2  5  1 -1</clus>
<clus scale="   99.289">  7  8 -1 -1</clus>
<clus scale="  116.116">  1  9  2 -1</clus>
<clus scale="  116.116">  1  5  2 -1</clus>
</clustering>
</event>
<event>
 9    1  0.1671478E-005  0.1261425E+03  0.7546771E-02  0.1241999E+00
         21   -1    0    0  501  502  0.00000000000E+00  0.00000000000E+00  0.54609437353E+02  0.54609437353E+02  0.00000000000E+00 0.  1.
          1   -1    0    0  502    0 -0.00000000000E+00 -0.00000000000E+00 -0.53051589501E+03  0.53051589501E+03  0.00000000000E+00 0. -1.
         23    2    1    2    0    0  0.34626006511E+02 -0.50933723980E+02 -0.43374143530E+03  0.45214328565E+03  0.11184236004E+03 0.  0.
         23    2    1    2    0    0 -0.10052486290E+02  0.48119984544E+02 -0.38628935753E+02  0.10799647219E+03  0.88059400036E+02 0.  0.
        -11    1    4    4    0    0 -0.37230590847E+02  0.23228048545E+02  0.11888597486E+02  0.45464248419E+02  0.00000000000E+00 0.  1.
         11    1    4    4    0    0  0.27178104558E+02  0.24891935999E+02 -0.50517533239E+02  0.62532223771E+02  0.00000000000E+00 0. -1.
        -11    1    3    3    0    0  0.49504885591E+02  0.10651108023E+02 -0.29890111839E+03  0.30316012003E+03  0.00000000000E+00 0. -1.
         11    1    3    3    0    0 -0.14878879080E+02 -0.61584832003E+02 -0.13484031691E+03  0.14898316562E+03  0.00000000000E+00 0.  1.
          1    1    1    2  501    0 -0.24573520221E+02  0.28137394354E+01 -0.35360866041E+01  0.24985574521E+02  0.00000000000E+00 0. -1.
<scales pt_clust_5="13000.00000" pt_clust_6="13000.00000" pt_clust_7="13000.00000" pt_clust_8="13000.00000" pt_clust_9="24.73409"></scales>
<clustering>
<clus scale="   24.734">  1  9  2 -1</clus>
<clus scale="   88.059">  5  6 -1 -1</clus>
<clus scale="  105.630">  1  5  2 -1</clus>
<clus scale="  111.842">  7  8 -1 -1</clus>
<clus scale="   24.734">  1  5  2 -1</clus>
</clustering>
</event>
<event>
 9    1  0.1671478E-005  0.1060679E+03  0.7546771E-02  0.1269220E+00
          2   -1    0    0  502    0 -0.00000000000E+00  0.00000000000E+00  0.52820377862E+03  0.52820377862E+03  0.00000000000E+00 0. -1.
         21   -1    0    0  501  502  0.00000000000E+00 -0.00000000000E+00 -0.90495515347E+02  0.90495515347E+02  0.00000000000E+00 0. -1.
         23    2    1    2    0    0 -0.38551431499E+02  0.32284439361E+02  0.42588425488E+03  0.43813670946E+03  0.89765693509E+02 0.  0.
         23    2    1    2    0    0  0.13364684382E+02 -0.80449085942E+02  0.21909094902E+02  0.12528225907E+03  0.92547100332E+02 0.  0.
        -11    1    4    4    0    0  0.35255807031E+02  0.41892867970E+01  0.16506046996E+01  0.35542179860E+02  0.00000000000E+00 0.  1.
         11    1    4    4    0    0 -0.21891122650E+02 -0.84638372739E+02  0.20258490203E+02  0.89740079207E+02  0.00000000000E+00 0. -1.
        -13    1    3    3    0    0 -0.63023623577E+02  0.82509699077E+00  0.26280853631E+03  0.27026095662E+03  0.00000000000E+00 0. -1.
         13    1    3    3    0    0  0.24472192079E+02  0.31459342370E+02  0.16307571856E+03  0.16787575284E+03  0.00000000000E+00 0.  1.
          2    1    1    2  501    0  0.25186747117E+02  0.48164646581E+02 -0.10085086506E+02  0.55280325437E+02  0.00000000000E+00 0. -1.
<scales pt_clust_5="13000.00000" pt_clust_6="13000.00000" pt_clust_7="13000.00000" pt_clust_8="13000.00000" pt_clust_9="54.35260"></scales>
<clustering>
<clus scale="   54.353">  2  9  1 -1</clus>
<clus scale="   89.766">  7  8 -1 -1</clus>
<clus scale="   92.547">  5  6 -1 -1</clus>
<clus scale="  103.650">  1  7  2 -1</clus>
<clus scale="   54.353">  2  5  1 -1</clus>
</clustering>
</event>
<event>
 9    1  0.1671478E-005  0.1165239E+03  0.7546771E-02  0.1249830E+00
         21   -1    0    0  501  502  0.00000000000E+00  0.00000000000E+00  0.60803142347E+02  0.60803142347E+02  0.00000000000E+00 0. -1.
          1   -1    0    0  502    0 -0.00000000000E+00 -0.00000000000E+00 -0.30668526654E+03  0.30668526654E+03  0.00000000000E+00 0. -1.
         23    2    1    2    0    0 -0.63056599133E+02 -0.21834932229E+01 -0.13378424218E+03  0.17418258339E+03  0.91980685808E+02 0.  0.
         23    2    1    2    0    0  0.80880345752E+02  0.24362038350E+02 -0.10962727203E+03  0.16474575336E+03  0.89374969836E+02 0.  0.
        -13    1    3    3    0    0  0.39997511363E+01 -0.36145863859E+02 -0.44593503290E+02  0.57542176001E+02  0.00000000000E+00 0.  1.
         13    1    3    3    0    0 -0.67056350269E+02  0.33962370636E+02 -0.89190738892E+02  0.11664040738E+03  0.00000000000E+00 0. -1.
        -13    1    4    4    0    0  0.66674798404E+02  0.92381897118E+01 -0.16458814964E+02  0.69294772396E+02  0.00000000000E+00 0.  1.
         13    1    4    4    0    0  0.14205547348E+02  0.15123848638E+02 -0.93168457071E+02  0.95450980959E+02  0.00000000000E+00 0. -1.
          1    1    1    2  501    0 -0.17823746619E+02 -0.22178545127E+02 -0.24706099777E+01  0.28560072149E+02  0.00000000000E+00 0. -1.
<scales pt_clust_5="13000.00000" pt_clust_6="13000.00000" pt_clust_7="13000.00000" pt_clust_8="13000.00000" pt_clust_9="28.45301"></scales>
<clustering>
<clus scale="   28.453">  1  9  2 -1</clus>
<clus scale="   89.375">  7  8 -1 -1</clus>
<clus scale="   91.981">  5  6 -1 -1</clus>
<clus scale="  114.478">  1  7  2 -1</clus>
<clus scale="   28.453">  1  5  2 -1</clus>
</clustering>
</event>
<event>
 9    1  0.1671478E-005  0.9750311E+02  0.7546771E-02  0.1286414E+00
         21   -1    0    0  501  502  0.00000000000E+00  0.00000000000E+00  0.16948102596E+03  0.16948102596E+03  0.00000000000E+00 0. -1.
         -1   -1    0    0    0  501 -0.00000000000E+00 -0.00000000000E+00 -0.20788067150E+03  0.20788067150E+03  0.00000000000E+00 0.  1.
         23    2    1    2    0    0 -0.28561529883E+02  0.12119073332E+02 -0.16887452314E+03  0.19550934345E+03  0.93502223936E+02 0.  0.
         23    2    1    2    0    0 -0.27293305900E+01 -0.10768847407E+02  0.79946063427E+02  0.12240403930E+03  0.92021510848E+02 0.  0.
        -13    1    4    4    0    0 -0.40235991845E+02  0.14436177160E+02  0.19633351935E+02  0.47040480003E+02  0.00000000000E+00 0.  1.
         13    1    4    4    0    0  0.37506661255E+02 -0.25205024567E+02  0.60312711492E+02  0.75363559294E+02  0.00000000000E+00 0. -1.
        -13    1    3    3    0    0  0.18163423883E+02  0.32754540354E+02 -0.11640921563E+03  0.12228603913E+03  0.00000000000E+00 0.  1.
         13    1    3    3    0    0 -0.46724953766E+02 -0.20635467022E+02 -0.52465307511E+02  0.73223304322E+02  0.00000000000E+00 0. -1.
         -1    1    1    2    0  502  0.31290860473E+02 -0.13502259250E+01  0.50528814179E+02  0.59448314707E+02  0.00000000000E+00 0.  1.
<scales pt_clust_5="13000.00000" pt_clust_6="13000.00000" pt_clust_7="13000.00000" pt_clust_8="13000.00000" pt_clust_9="31.31998"></scales>
<clustering>
<clus scale="   31.320">  1  9  2 -1</clus>
<clus scale="   92.022">  5  6 -1 -1</clus>
<clus scale="   93.502">  7  8 -1 -1</clus>
<clus scale="   96.084">  1  5  2 -1</clus>
<clus scale="   31.320">  1  5  2 -1</clus>
</clustering>
</event>
<event>
 9    1  0.1671478E-005  0.1281975E+03  0.7546771E-02  0.1231557E+00
         -1   -1    0    0    0  501 -0.00000000000E+00  0.00000000000E+00  0.51316308151E+03  0.51316308151E+03  0.00000000000E+00 0.  1.
         21   -1    0    0  501  502  0.00000000000E+00 -0.00000000000E+00 -0.52001463345E+02  0.52001463345E+02  0.00000000000E+00 0.  1.
         23    2    1    2    0    0  0.72253281114E+02 -0.64032173608E+02  0.32631209480E+03  0.35195736323E+03  0.89854028468E+02 0.  0.
         23    2    1    2    0    0 -0.36516850702E+02  0.78478784786E+02  0.12377972686E+03  0.17310309919E+03  0.84562770302E+02 0.  0.
        -11    1    4    4    0    0 -0.58139223919E+02  0.42414360685E+02  0.10440362387E+03  0.12680403790E+03  0.00000000000E+00 0. -1.
         11    1    4    4    0    0  0.21622373217E+02  0.36064424101E+02  0.19376102986E+02  0.46299061289E+02  0.00000000000E+00 0.  1.
        -13    1    3    3    0    0  0.68461803259E+02 -0.76806231517E+01  0.12335826130E+03  0.14129144032E+03  0.00000000000E+00 0. -1.
         13    1    3    3    0    0  0.37914778549E+01 -0.56351550456E+02  0.20295383350E+03  0.21066592291E+03  0.00000000000E+00 0.  1.
         -1    1    1    2    0  502 -0.35736430412E+02 -0.14446611178E+02  0.11069796506E+02  0.40104082433E+02  0.00000000000E+00 0.  1.
<scales pt_clust_5="13000.00000" pt_clust_6="13000.00000" pt_clust_7="13000.00000" pt_clust_8="13000.00000" pt_clust_9="38.54604"></scales>
<clustering>
<clus scale="   38.546">  2  9  1 -1</clus>
<clus scale="   84.563">  5  6 -1 -1</clus>
<clus scale="   89.854">  7  8 -1 -1</clus>
<clus scale="  124.546">  2  5  1 -1</clus>
<clus scale="   38.546">  2  5  1 -1</clus>
</clustering>
</event>
<event>
 9    1  0.1671478E-005  0.1195764E+03  0.7546771E-02  0.1244052E+00
         -1   -1    0    0    0  501 -0.00000000000E+00  0.00000000000E+00  0.52823574424E+03  0.52823574424E+03  0.00000000000E+00 0.  1.
         21   -1    0    0  501  502  0.00000000000E+00 -0.00000000000E+00 -0.12816293817E+03  0.12816293817E+03  0.00000000000E+00 0.  1.
         23    2    1    2    0    0 -0.46217507902E+02  0.60648194252E+02  0.39268132592E+03  0.41034866687E+03  0.91504880635E+02 0.  0.
         23    2    1    2    0    0 -0.26872185774E+02 -0.11837840260E+03 -0.75368763981E+01  0.15172220359E+03  0.90704255598E+02 0.  0.
        -13    1    3    3    0    0 -0.71510555071E+02  0.58902616631E+02  0.28315396924E+03  0.29792523899E+03  0.00000000000E+00 0.  1.
         13    1    3    3    0    0  0.25293047169E+02  0.17455776207E+01  0.10952735667E+03  0.11242342788E+03  0.00000000000E+00 0. -1.
        -13    1    4    4    0    0 -0.59417441277E+02 -0.91625261416E+02 -0.89328527753E+01  0.10956923253E+03  0.00000000000E+00 0.  1.
         13    1    4    4    0    0  0.32545255503E+02 -0.26753141188E+02  0.13959763773E+01  0.42152971060E+02  0.00000000000E+00 0. -1.
         -1    1    1    2    0  502  0.73089693676E+02  0.57730208353E+02  0.14928356552E+02  0.94327811951E+02  0.00000000000E+00 0.  1.
<scales pt_clust_5="13000.00000" pt_clust_6="13000.00000" pt_clust_7="13000.00000" pt_clust_8="13000.00000" pt_clust_9="93.13904"></scales>
<clustering>
<clus scale="   90.704">  7  8 -1 -1</clus>
<clus scale="   91.505">  5  6 -1 -1</clus>
<clus scale="   93.139">  2  9  1 -1</clus>
<clus scale="  118.965">  2  7  1 -1</clus>
<clus scale="   93.139">  2  5  1 -1</clus>
</clustering>
</event>
<event>
 9    1  0.1671478E-005  0.1246048E+03  0.7546771E-02  0.1237308E+00
         21   -1    0    0  501  502  0.00000000000E+00  0.00000000000E+00  0.63452042345E+03  0.63452042345E+03  0.00000000000E+00 0. -1.
          1   -1    0    0  502    0 -0.00000000000E+00 -0.00000000000E+00 -0.38490393976E+02  0.38490393976E+02  0.00000000000E+00 0. -1.
         23    2    1    2    0    0 -0.83171748129E+02  0.35631346390E+02  0.14329586754E+03  0.19375493984E+03  0.93915592571E+02 0.  0.
         23    2    1    2    0    0  0.69648197804E+02 -0.93335466274E+01  0.24956568751E+03  0.27394662381E+03  0.88463177440E+02 0.  0.
        -11    1    4    4    0    0  0.82307364658E+02  0.14848916790E+02  0.20837211799E+03  0.22453047045E+03  0.00000000000E+00 0. -1.
         11    1    4    4    0    0 -0.12659166854E+02 -0.24182463418E+02  0.41193569527E+02  0.49416153359E+02  0.00000000000E+00 0.  1.
        -13    1    3    3    0    0 -0.32933208824E+02 -0.81723521615E+01  0.11747089977E+03  0.12227344715E+03  0.00000000000E+00 0.  1.
         13    1    3    3    0    0 -0.50238539305E+02  0.43803698551E+02  0.25824967765E+02  0.71481492698E+02  0.00000000000E+00 0. -1.
          1    1    1    2  501    0  0.13523550325E+02 -0.26297799762E+02  0.20316847442E+03  0.20530925377E+03  0.00000000000E+00 0. -1.
<scales pt_clust_5="13000.00000" pt_clust_6="13000.00000" pt_clust_7="13000.00000" pt_clust_8="13000.00000" pt_clust_9="29.57128"></scales>
<clustering>
<clus scale="   29.571">  1  9  2 -1</clus>
<clus scale="   88.463">  5  6 -1 -1</clus>
<clus scale="   93.916">  7  8 -1 -1</clus>
<clus scale="  120.549">  1  5  2 -1</clus>
<clus scale="   29.571">  1  5  2 -1</clus>
</clustering>
</event>
<event>
 9    1  0.1671478E-005  0.1116086E+03  0.7546771E-02  0.1261601E+00
         -1   -1    0    0    0  501 -0.00000000000E+00  0.00000000000E+00  0.44942159910E+03  0.44942159910E+03  0.00000000000E+00 0.  1.
         21   -1    0    0  501  502  0.00000000000E+00 -0.00000000000E+00 -0.58769998996E+02  0.58769998996E+02  0.00000000000E+00 0.  1.
         23    2    1    2    0    0 -0.44263607311E+01 -0.37334965354E+02  0.21651476671E+03  0.24193345821E+03  0.10119121351E+03 0.  0.
         23    2    1    2    0    0  0.72790902456E+02  0.50922744892E+02  0.86569168195E+02  0.15433658563E+03  0.91836372726E+02 0.  0.
        -13    1    4    4    0    0  0.63343618128E+02 -0.74291476765E+01  0.23691494487E+02  0.68035969192E+02  0.00000000000E+00 0. -1.
         13    1    4    4    0    0  0.94472843281E+01  0.58351892569E+02  0.62877673708E+02  0.86300616443E+02  0.00000000000E+00 0.  1.
        -13    1    3    3    0    0  0.24527080199E+02 -0.61847864987E+02  0.10663522342E+03  0.12568932708E+03  0.00000000000E+00 0.  1.
         13    1    3    3    0    0 -0.28953440930E+02  0.24512899633E+02  0.10987954328E+03  0.11624413113E+03  0.00000000000E+00 0. -1.
         -1    1    1    2    0  502 -0.68364541725E+02 -0.13587779538E+02  0.87567665208E+02  0.11192155426E+03  0.00000000000E+00 0.  1.
<scales pt_clust_5="13000.00000" pt_clust_6="13000.00000" pt_clust_7="13000.00000" pt_clust_8="13000.00000" pt_clust_9="69.70182"></scales>
<clustering>
<clus scale="   69.702">  2  9  1 -1</clus>
<clus scale="   91.836">  5  6 -1 -1</clus>
<clus scale="  101.191">  7  8 -1 -1</clus>
<clus scale="  103.202">  2  5  1 -1</clus>
<clus scale="   69.702">  2  5  1 -1</clus>
</clustering>
</event>
<event>
 9    1  0.1671478E-005  0.2293546E+03  0.7546771E-02  0.1146279E+00
         21   -1    0    0  501  502  0.00000000000E+00  0.00000000000E+00  0.21032770297E+03  0.21032770297E+03  0.00000000000E+00 0.  1.
         -4   -1    0    0    0  501 -0.00000000000E+00 -0.00000000000E+00 -0.48308008525E+03  0.48308008525E+03  0.00000000000E+00 0.  1.
         23    2    1    2    0    0 -0.59525429641E+02 -0.97533360470E+02 -0.85811962708E+02  0.16762013898E+03  0.87617263532E+02 0.  0.
         23    2    1    2    0    0  0.19962963417E+03  0.20997570797E+03 -0.16323719170E+03  0.34458524128E+03  0.90281886180E+02 0.  0.
        -13    1    3    3    0    0  0.92596251663E+01 -0.60478764156E+02 -0.16985241147E+02  0.63497401434E+02  0.00000000000E+00 0. -1.
         13    1    3    3    0    0 -0.68785054807E+02 -0.37054596313E+02 -0.68826721561E+02  0.10412273754E+03  0.00000000000E+00 0.  1.
        -13    1    4    4    0    0  0.10382282899E+03  0.10077003142E+03 -0.13229764238E+03  0.19605214926E+03  0.00000000000E+00 0.  1.
         13    1    4    4    0    0  0.95806805190E+02  0.10920567655E+03 -0.30939549323E+02  0.14853309202E+03  0.00000000000E+00 0. -1.
         -4    1    1    2    0  502 -0.14010420453E+03 -0.11244234750E+03 -0.23703227872E+02  0.18120240796E+03  0.00000000000E+00 0.  1.
<scales pt_clust_5="13000.00000" pt_clust_6="13000.00000" pt_clust_7="13000.00000" pt_clust_8="13000.00000" pt_clust_9="210.83812"></scales>
<clustering>
<clus scale="   87.617">  5  6 -1 -1</clus>
<clus scale="   90.282">  7  8 -1 -1</clus>
<clus scale="  143.989">  2  5  1 -1</clus>
<clus scale="  210.838">  1  9  2 -1</clus>
<clus scale="  210.838">  1  5  2 -1</clus>
</clustering>
</event>
<event>
 9    1  0.1671478E-005  0.9501669E+02  0.7546771E-02  0.1292591E+00
         21   -1    0    0  501  502  0.00000000000E+00  0.00000000000E+00  0.16021776598E+03  0.16021776598E+03  0.00000000000E+00 0.  1.
          3   -1    0    0  502    0 -0.00000000000E+00 -0.00000000000E+00 -0.11417948942E+03  0.11417948942E+03  0.00000000000E+00 0. -1.
         23    2    1    2    0    0  0.10434597358E+02  0.32582063202E+02 -0.56530030700E+02  0.11221911696E+03  0.90702889565E+02 0.  0.
         23    2    1    2    0    0 -0.56614198063E+01 -0.24182940043E+01  0.96995975805E+02  0.13113482879E+03  0.88035357552E+02 0.  0.
        -13    1    3    3    0    0 -0.37405220383E+02 -0.19239081363E+01 -0.16468721307E+02  0.40915409272E+02  0.00000000000E+00 0.  1.
         13    1    3    3    0    0  0.47839817741E+02  0.34505971338E+02 -0.40061309394E+02  0.71303707686E+02  0.00000000000E+00 0. -1.
        -13    1    4    4    0    0 -0.16964400376E+02 -0.20284373097E+02  0.10518873953E+03  0.10846159503E+03  0.00000000000E+00 0.  1.
         13    1    4    4    0    0  0.11302980569E+02  0.17866079093E+02 -0.81927637234E+01  0.22673233764E+02  0.00000000000E+00 0. -1.
          3    1    1    2  501    0 -0.47731775515E+01 -0.30163769197E+02  0.55723314615E+01  0.31043309650E+02  0.00000000000E+00 0. -1.
<scales pt_clust_5="13000.00000" pt_clust_6="13000.00000" pt_clust_7="13000.00000" pt_clust_8="13000.00000" pt_clust_9="30.53909"></scales>
<clustering>
<clus scale="   30.539">  1  9  2 -1</clus>
<clus scale="   88.035">  7  8 -1 -1</clus>
<clus scale="   90.703">  5  6 -1 -1</clus>
<clus scale="   92.474">  1  7  2 -1</clus>
<clus scale="   30.539">  1  5  2 -1</clus>
</clustering>
</event>
<event>
 9    1  0.1671478E-005  0.1244972E+03  0.7546771E-02  0.1236504E+00
         21   -1    0    0  501  502  0.00000000000E+00  0.00000000000E+00  0.17047290309E+03  0.17047290309E+03  0.00000000000E+00 0. -1.
         -3   -1    0    0    0  501 -0.00000000000E+00 -0.00000000000E+00 -0.15288467147E+03  0.15288467147E+03  0.00000000000E+00 0.  1.
         23    2    1    2    0    0 -0.58224311945E+02 -0.36272668276E+02 -0.37320312060E+02  0.12268814587E+03  0.94624513104E+02 0.  0.
         23    2    1    2    0    0  0.10656087941E+03  0.29995922040E+02  0.39429269686E+02  0.14952816139E+03  0.92460950579E+02 0.  0.
        -11    1    3    3    0    0 -0.38622406697E+02  0.40577992320E+01 -0.60744038245E+02  0.72097116558E+02  0.00000000000E+00 0.  1.
         11    1    3    3    0    0 -0.19601905248E+02 -0.40330467508E+02  0.23423726184E+02  0.50591029315E+02  0.00000000000E+00 0. -1.
        -13    1    4    4    0    0  0.86692141489E+02  0.41050937843E+02 -0.86842657433E+01  0.96312633466E+02  0.00000000000E+00 0. -1.
         13    1    4    4    0    0  0.19868737919E+02 -0.11055015802E+02  0.48113535430E+02  0.53215527926E+02  0.00000000000E+00 0.  1.
         -3    1    1    2    0  502 -0.48336567462E+02  0.62767462358E+01  0.15479273998E+02  0.51141267298E+02  0.00000000000E+00 0.  1.
<scales pt_clust_5="13000.00000" pt_clust_6="13000.00000" pt_clust_7="13000.00000" pt_clust_8="13000.00000" pt_clust_9="48.74240"></scales>
<clustering>
<clus scale="   48.742">  1  9  2 -1</clus>
<clus scale="   92.461">  7  8 -1 -1</clus>
<clus scale="   94.625">  5  6 -1 -1</clus>
<clus scale="  122.861">  1  7  2 -1</clus>
<clus scale="   48.742">  1  5  2 -1</clus>
</clustering>
</event>
<event>
 9    1  0.1671478E-005  0.1397934E+03  0.7546771E-02  0.1231455E+00
          1   -1    0    0  502    0 -0.00000000000E+00  0.00000000000E+00  0.78213219106E+02  0.78213219106E+02  0.00000000000E+00 0. -1.
         21   -1    0    0  501  502  0.00000000000E+00 -0.00000000000E+00 -0.53684647017E+03  0.53684647017E+03  0.00000000000E+00 0. -1.
         23    2    1    2    0    0 -0.30484399797E+01 -0.29617548395E+02 -0.15957277449E+02  0.97567935454E+02  0.91533464733E+02 0.  0.
         23    2    1    2    0    0 -0.98133910595E+01 -0.86228192208E+02 -0.11167250942E+03  0.16656589894E+03  0.87987757983E+02 0.  0.
        -13    1    3    3    0    0 -0.31209617229E+02 -0.45998186631E+02  0.92820503140E+01  0.56356275950E+02  0.00000000000E+00 0. -1.
         13    1    3    3    0    0  0.28161177250E+02  0.16380638237E+02 -0.25239327763E+02  0.41211659504E+02  0.00000000000E+00 0.  1.
        -13    1    4    4    0    0  0.36594722494E+02 -0.21530486610E+02 -0.51613562371E+02  0.66833340398E+02  0.00000000000E+00 0.  1.
         13    1    4    4    0    0 -0.46408113554E+02 -0.64697705598E+02 -0.60058947049E+02  0.99732558545E+02  0.00000000000E+00 0. -1.
          1    1    1    2  501    0  0.12861831039E+02  0.11584574060E+03 -0.33100346420E+03  0.35092585488E+03  0.00000000000E+00 0. -1.
<scales pt_clust_5="13000.00000" pt_clust_6="13000.00000" pt_clust_7="13000.00000" pt_clust_8="13000.00000" pt_clust_9="108.62942"></scales>
<clustering>
<clus scale="   87.988">  7  8 -1 -1</clus>
<clus scale="   91.533">  5  6 -1 -1</clus>
<clus scale="   96.254">  1  5  2 -1</clus>
<clus scale="  108.629">  2  9  1 -1</clus>
<clus scale="  108.629">  2  5  1 -1</clus>
</clustering>
</event>
<event>
 9    1  0.1671478E-005  0.1066686E+03  0.7546771E-02  0.1272733E+00
         21   -1    0    0  501  502  0.00000000000E+00  0.00000000000E+00  0.36823775830E+02  0.36823775830E+02  0.00000000000E+00 0. -1.
          1   -1    0    0  502    0 -0.00000000000E+00 -0.00000000000E+00 -0.58988798007E+03  0.58988798007E+03  0.00000000000E+00 0. -1.
         23    2    1    2    0    0 -0.13903248303E+02  0.36470695452E+02 -0.29414752846E+03  0.31104234976E+03  0.93280024121E+02 0.  0.
         23    2    1    2    0    0 -0.31563719974E+02  0.16446688278E+02 -0.16000225939E+03  0.19462579221E+03  0.10493671430E+03 0.  0.
        -11    1    3    3    0    0  0.20604075909E+02  0.57211467776E+02 -0.17229172726E+03  0.18270774278E+03  0.00000000000E+00 0.  1.
         11    1    3    3    0    0 -0.34507324212E+02 -0.20740772323E+02 -0.12185580120E+03  0.12833460698E+03  0.00000000000E+00 0. -1.
        -13    1    4    4    0    0  0.17042165531E+02  0.48943597752E+02 -0.84571558182E+02  0.99188001393E+02  0.00000000000E+00 0. -1.
         13    1    4    4    0    0 -0.48605885506E+02 -0.32496909474E+02 -0.75430701206E+02  0.95437790815E+02  0.00000000000E+00 0.  1.
          1    1    1    2  501    0  0.45466968278E+02 -0.52917383730E+02 -0.98914416382E+02  0.12104361393E+03  0.00000000000E+00 0. -1.
<scales pt_clust_5="13000.00000" pt_clust_6="13000.00000" pt_clust_7="13000.00000" pt_clust_8="13000.00000" pt_clust_9="69.76743"></scales>
<clustering>
<clus scale="   69.767">  1  9  2 -1</clus>
<clus scale="   93.280">  5  6 -1 -1</clus>
<clus scale="   95.224">  2  5  1 -1</clus>
<clus scale="  104.937">  7  8 -1 -1</clus>
<clus scale="   69.767">  1  5  2 -1</clus>
</clustering>
</event>
<event>
 9    1  0.1671478E-005  0.9267491E+02  0.7546771E-02  0.1296857E+00
         21   -1    0    0  501  502  0.00000000000E+00  0.00000000000E+00  0.13472030357E+03  0.13472030357E+03  0.00000000000E+00 0.  1.
          2   -1    0    0  502    0 -0.00000000000E+00 -0.00000000000E+00 -0.11458211617E+03  0.11458211617E+03  0.00000000000E+00 0. -1.
         23    2    1    2    0    0 -0.11342071238E+02  0.16548436096E+01 -0.50498423393E+02  0.10572680848E+03  0.92177471104E+02 0.  0.
         23    2    1    2    0    0 -0.20802088886E+01 -0.16810717658E+02  0.29418289819E+02  0.97653850557E+02  0.91563700534E+02 0.  0.
        -11    1    3    3    0    0 -0.17570791956E+02 -0.40374925856E+02 -0.64094359804E+01  0.44496609280E+02  0.00000000000E+00 0.  1.
         11    1    3    3    0    0  0.62287207182E+01  0.42029769466E+02 -0.44088987412E+02  0.61230199201E+02  0.00000000000E+00 0. -1.
        -13    1    4    4    0    0  0.56984905153E+01 -0.43187164392E+02 -0.14435570582E+02  0.45891062969E+02  0.00000000000E+00 0.  1.
         13    1    4    4    0    0 -0.77786994039E+01  0.26376446734E+02  0.43853860401E+02  0.51762787588E+02  0.00000000000E+00 0. -1.
          2    1    1    2  501    0  0.13422280127E+02  0.15155874048E+02  0.41218320972E+02  0.45921760699E+02  0.00000000000E+00 0. -1.
<scales pt_clust_5="13000.00000" pt_clust_6="13000.00000" pt_clust_7="13000.00000" pt_clust_8="13000.00000" pt_clust_9="20.24495"></scales>
<clustering>
<clus scale="   20.245">  1  9  2 -1</clus>
<clus scale="   91.564">  7  8 -1 -1</clus>
<clus scale="   92.064">  1  7  2 -1</clus>
<clus scale="   92.177">  5  6 -1 -1</clus>
<clus scale="   20.245">  1  5  2 -1</clus>
</clustering>
</event>
<event>
 9    1  0.1671478E-005  0.1034971E+03  0.7546771E-02  0.1276944E+00
         21   -1    0    0  501  502  0.00000000000E+00  0.00000000000E+00  0.29152425983E+03  0.29152425983E+03  0.00000000000E+00 0. -1.
         -1   -1    0    0    0  501 -0.00000000000E+00 -0.00000000000E+00 -0.57907062498E+02  0.57907062498E+02  0.00000000000E+00 0.  1.
         23    2    1    2    0    0 -0.39506382005E+02  0.11963231318E+02  0.23223671658E+02  0.95957526576E+02  0.83454387893E+02 0.  0.
         23    2    1    2    0    0  0.64126155699E+02 -0.15531305665E+02  0.14757340952E+03  0.18590729959E+03  0.91816270563E+02 0.  0.
        -11    1    4    4    0    0 -0.58701326399E+00 -0.33064829430E+02  0.95349964304E+02  0.10092196601E+03  0.00000000000E+00 0.  1.
         11    1    4    4    0    0  0.64713168963E+02  0.17533523764E+02  0.52223445220E+02  0.84985333579E+02  0.00000000000E+00 0. -1.
        -11    1    3    3    0    0  0.26304823553E+02  0.90358338985E+00  0.51514667621E+01  0.26819728092E+02  0.00000000000E+00 0. -1.
         11    1    3    3    0    0 -0.65811205559E+02  0.11059647929E+02  0.18072204896E+02  0.69137798484E+02  0.00000000000E+00 0.  1.
         -1    1    1    2    0  502 -0.24619773694E+02  0.35680743469E+01  0.62820116148E+02  0.67566496166E+02  0.00000000000E+00 0.  1.
<scales pt_clust_5="13000.00000" pt_clust_6="13000.00000" pt_clust_7="13000.00000" pt_clust_8="13000.00000" pt_clust_9="24.87699"></scales>
<clustering>
<clus scale="   24.877">  1  9  2 -1</clus>
<clus scale="   83.454">  7  8 -1 -1</clus>
<clus scale="   91.816">  5  6 -1 -1</clus>
<clus scale="   96.156">  2  7  1 -1</clus>
<clus scale="   24.877">  1  5  2 -1</clus>
</clustering>
</event>
<event>
 9    1  0.1671478E-005  0.1066129E+03  0.7546771E-02  0.1268300E+00
          2   -1    0    0  502    0 -0.00000000000E+00  0.00000000000E+00  0.21196836080E+03  0.21196836080E+03  0.00000000000E+00 0. -1.
         21   -1    0    0  501  502  0.00000000000E+00 -0.00000000000E+00 -0.89014396069E+02  0.89014396069E+02  0.00000000000E+00 0.  1.
         23    2    1    2    0    0  0.47157811576E+01  0.37753604994E+02  0.89444694124E+02  0.13487207741E+03  0.93501607874E+02 0.  0.
         23    2    1    2    0    0 -0.19826478660E+02 -0.71816892429E+02  0.47358316746E+02  0.12635597145E+03  0.90400586630E+02 0.  0.
        -13    1    3    3    0    0 -0.32790049654E+02  0.43642738653E+02  0.24921172558E+02  0.60007839781E+02  0.00000000000E+00 0.  1.
         13    1    3    3    0    0  0.37505830812E+02 -0.58891336587E+01  0.64523521566E+02  0.74864237626E+02  0.00000000000E+00 0. -1.
        -13    1    4    4    0    0 -0.39573693017E+02  0.11788726524E+01  0.56372270616E+01  0.39990564496E+02  0.00000000000E+00 0. -1.
         13    1    4    4    0    0  0.19747214357E+02 -0.72995765082E+02  0.41721089685E+02  0.86365406959E+02  0.00000000000E+00 0.  1.
          2    1    1    2  501    0  0.15110697503E+02  0.34063287435E+02 -0.13849046139E+02  0.39754708008E+02  0.00000000000E+00 0. -1.
<scales pt_clust_5="13000.00000" pt_clust_6="13000.00000" pt_clust_7="13000.00000" pt_clust_8="13000.00000" pt_clust_9="37.26447"></scales>
<clustering>
<clus scale="   37.264">  2  9  1 -1</clus>
<clus scale="   90.401">  7  8 -1 -1</clus>
<clus scale="   93.502">  5  6 -1 -1</clus>
<clus scale="  103.904">  2  7  1 -1</clus>
<clus scale="   37.264">  2  5  1 -1</clus>
</clustering>
</event>
<event>
 9    1  0.1671478E-005  0.2192440E+03  0.7546771E-02  0.1134601E+00
          2   -1    0    0  502    0 -0.00000000000E+00  0.00000000000E+00  0.93818625609E+03  0.93818625609E+03  0.00000000000E+00 0. -1.
         21   -1    0    0  501  502  0.00000000000E+00 -0.00000000000E+00 -0.33443402317E+03  0.33443402317E+03  0.00000000000E+00 0.  1.
         23    2    1    2    0    0 -0.13790436564E+03 -0.14225630464E+03  0.87124527545E+03  0.89839756436E+03  0.93783705250E+02 0.  0.
         23    2    1    2    0    0  0.11070186446E+03  0.16975751184E+03 -0.23587007305E+03  0.32425968191E+03  0.91853874862E+02 0.  0.
        -11    1    3    3    0    0 -0.12040555226E+03 -0.75911323280E+02  0.69159237752E+03  0.70608784345E+03  0.00000000000E+00 0. -1.
         11    1    3    3    0    0 -0.17498813389E+02 -0.66344981362E+02  0.17965289793E+03  0.19230972091E+03  0.00000000000E+00 0.  1.
        -13    1    4    4    0    0  0.11495041981E+03  0.12197222417E+03 -0.21322021128E+03  0.27120781880E+03  0.00000000000E+00 0.  1.
         13    1    4    4    0    0 -0.42485553457E+01  0.47785287672E+02 -0.22649861776E+02  0.53051863105E+02  0.00000000000E+00 0. -1.
          2    1    1    2  501    0  0.27202501181E+02 -0.27501207195E+02 -0.31622969479E+02  0.49963032998E+02  0.00000000000E+00 0. -1.
<scales pt_clust_5="13000.00000" pt_clust_6="13000.00000" pt_clust_7="13000.00000" pt_clust_8="13000.00000" pt_clust_9="38.68194"></scales>
<clustering>
<clus scale="   38.682">  2  9  1 -1</clus>
<clus scale="   91.854">  7  8 -1 -1</clus>
<clus scale="   93.784">  5  6 -1 -1</clus>
<clus scale="  218.425">  2  7  1 -1</clus>
<clus scale="   38.682">  2  5  1 -1</clus>
</clustering>
</event>
<event>
 9    1  0.1671478E-005  0.9659749E+02  0.7546771E-02  0.1289754E+00
         21   -1    0    0  501  502  0.00000000000E+00  0.00000000000E+00  0.91885109833E+02  0.91885109833E+02  0.00000000000E+00 0. -1.
          3   -1    0    0  502    0 -0.00000000000E+00 -0.00000000000E+00 -0.26250010172E+03  0.26250010172E+03  0.00000000000E+00 0. -1.
         23    2    1    2    0    0 -0.24537805889E+02 -0.19359520027E+01 -0.12398834801E+03  0.15346552411E+03  0.87021289464E+02 0.  0.
         23    2    1    2    0    0  0.31807911650E+02  0.74857126920E+02 -0.26763809127E+02  0.12499285165E+03  0.91058106672E+02 0.  0.
        -11    1    3    3    0    0  0.37861251948E+00  0.40006604738E+02 -0.70572298533E+02  0.81124109180E+02  0.00000000000E+00 0.  1.
         11    1    3    3    0    0 -0.24916418408E+02 -0.41942556741E+02 -0.53416049482E+02  0.72341414933E+02  0.00000000000E+00 0. -1.
        -11    1    4    4    0    0 -0.15855622628E+02  0.55492872382E+02 -0.41952876649E+02  0.71350567715E+02  0.00000000000E+00 0. -1.
         11    1    4    4    0    0  0.47663534278E+02  0.19364254538E+02  0.15189067522E+02  0.53642283936E+02  0.00000000000E+00 0.  1.
          3    1    1    2  501    0 -0.72701057608E+01 -0.72921174918E+02 -0.19862834749E+02  0.75926835792E+02  0.00000000000E+00 0. -1.
<scales pt_clust_5="13000.00000" pt_clust_6="13000.00000" pt_clust_7="13000.00000" pt_clust_8="13000.00000" pt_clust_9="73.28269"></scales>
<clustering>
<clus scale="   73.283">  1  9  2 -1</clus>
<clus scale="   87.021">  5  6 -1 -1</clus>
<clus scale="   91.058">  7  8 -1 -1</clus>
<clus scale="   92.802">  2  5  1 -1</clus>
<clus scale="   73.283">  1  5  2 -1</clus>
</clustering>
</event>
<event>
 9    1  0.1671478E-005  0.1314477E+03  0.7546771E-02  0.1225947E+00
          1   -1    0    0  502    0 -0.00000000000E+00  0.00000000000E+00  0.48188693724E+03  0.48188693724E+03  0.00000000000E+00 0. -1.
         21   -1    0    0  501  502  0.00000000000E+00 -0.00000000000E+00 -0.19717472817E+03  0.19717472817E+03  0.00000000000E+00 0. -1.
         23    2    1    2    0    0  0.75565098101E+02 -0.47946878795E+02  0.27820264424E+03  0.30708578815E+03  0.94318517714E+02 0.  0.
         23    2    1    2    0    0 -0.15771310278E+03 -0.52490801146E+02 -0.90610286849E+02  0.20990093221E+03  0.90661294196E+02 0.  0.
        -11    1    3    3    0    0  0.28750853558E+02 -0.25206015204E+01  0.92074074096E+01  0.30294246377E+02  0.00000000000E+00 0.  1.
         11    1    3    3    0    0  0.46814244543E+02 -0.45426277274E+02  0.26899523683E+03  0.27679154177E+03  0.00000000000E+00 0. -1.
        -13    1    4    4    0    0 -0.14436476485E+03 -0.10808243071E+02 -0.61221123365E+02  0.15718151735E+03  0.00000000000E+00 0. -1.
         13    1    4    4    0    0 -0.13348337927E+02 -0.41682558074E+02 -0.29389163484E+02  0.52719414861E+02  0.00000000000E+00 0.  1.
          1    1    1    2  501    0  0.82148004678E+02  0.10043767994E+03  0.97119851681E+02  0.16207494506E+03  0.00000000000E+00 0. -1.
<scales pt_clust_5="13000.00000" pt_clust_6="13000.00000" pt_clust_7="13000.00000" pt_clust_8="13000.00000" pt_clust_9="129.75376"></scales>
<clustering>
<clus scale="   90.661">  7  8 -1 -1</clus>
<clus scale="   94.319">  5  6 -1 -1</clus>
<clus scale="  129.754">  2  9  1 -1</clus>
<clus scale="  129.754">  2  7  1 -1</clus>
<clus scale="  129.754">  2  5  1 -1</clus>
</clustering>
</event>
<event>
 9    1  0.1671478E-005  0.9253751E+02  0.7546771E-02  0.1298420E+00
         -2   -1    0    0    0  501 -0.00000000000E+00  0.00000000000E+00  0.64305205028E+02  0.64305205028E+02  0.00000000000E+00 0.  1.
         21   -1    0    0  501  502  0.00000000000E+00 -0.00000000000E+00 -0.29542083939E+03  0.29542083939E+03  0.00000000000E+00 0.  1.
         23    2    1    2    0    0  0.28394447296E+01 -0.67871550425E+00 -0.64571447261E+01  0.89806706694E+02  0.89526681766E+02 0.  0.
         23    2    1    2    0    0  0.43359650491E+02  0.92150029973E+01 -0.16176323782E+03  0.19141432321E+03  0.92234063385E+02 0.  0.
        -11    1    3    3    0    0 -0.38203979908E+02 -0.21136643966E+02 -0.47020858480E+01  0.43913681357E+02  0.00000000000E+00 0.  1.
         11    1    3    3    0    0  0.41043424638E+02  0.20457928462E+02 -0.17550588781E+01  0.45893025337E+02  0.00000000000E+00 0. -1.
        -11    1    4    4    0    0 -0.71364665630E+01 -0.33263708982E+02 -0.36917934307E+02  0.50202961703E+02  0.00000000000E+00 0. -1.
         11    1    4    4    0    0  0.50496117053E+02  0.42478711979E+02 -0.12484530352E+03  0.14121136151E+03  0.00000000000E+00 0.  1.
         -2    1    1    2    0  502 -0.46199095220E+02 -0.85362874930E+01 -0.62895251815E+02  0.78505014516E+02  0.00000000000E+00 0.  1.
<scales pt_clust_5="13000.00000" pt_clust_6="13000.00000" pt_clust_7="13000.00000" pt_clust_8="13000.00000" pt_clust_9="46.98111"></scales>
<clustering>
<clus scale="   46.981">  2  9  1 -1</clus>
<clus scale="   89.527">  5  6 -1 -1</clus>
<clus scale="   89.839">  1  5  2 -1</clus>
<clus scale="   92.234">  7  8 -1 -1</clus>
<clus scale="   46.981">  2  5  1 -1</clus>
</clustering>
</event>
<event>
 9    1  0.1671478E-005  0.9119403E+02  0.7546771E-02  0.1302095E+00
         21   -1    0    0  501  502  0.00000000000E+00  0.00000000000E+00  0.22876909387E+03  0.22876909387E+03  0.00000000000E+00 0.  1.
          1   -1    0    0  502    0 -0.00000000000E+00 -0.00000000000E+00 -0.25020095562E+03  0.25020095562E+03  0.00000000000E+00 0. -1.
         23    2    1    2    0    0  0.14530243123E+02  0.35549573412E+01 -0.20443265873E+03  0.22273418176E+03  0.87143778230E+02 0.  0.
         23    2    1    2    0    0  0.23430195268E+02  0.91045670795E+01  0.30970782819E+02  0.99027777464E+02  0.90639087203E+02 0.  0.
        -13    1    4    4    0    0  0.29263417565E+02  0.36449186859E+02 -0.11540067338E+02  0.48146276952E+02  0.00000000000E+00 0. -1.
         13    1    4    4    0    0 -0.58332222965E+01 -0.27344619779E+02  0.42510850157E+02  0.50881500511E+02  0.00000000000E+00 0.  1.
        -13    1    3    3    0    0  0.41552788528E+02 -0.25439134411E+02 -0.11688144633E+03  0.12662960274E+03  0.00000000000E+00 0.  1.
         13    1    3    3    0    0 -0.27022545406E+02  0.28994091752E+02 -0.87551212393E+02  0.96104579018E+02  0.00000000000E+00 0. -1.
          1    1    1    2  501    0 -0.37960438391E+02 -0.12659524421E+02  0.15203001416E+03  0.15720809027E+03  0.00000000000E+00 0. -1.
<scales pt_clust_5="13000.00000" pt_clust_6="13000.00000" pt_clust_7="13000.00000" pt_clust_8="13000.00000" pt_clust_9="40.01573"></scales>
<clustering>
<clus scale="   40.016">  1  9  2 -1</clus>
<clus scale="   87.144">  7  8 -1 -1</clus>
<clus scale="   87.721">  2  7  1 -1</clus>
<clus scale="   90.639">  5  6 -1 -1</clus>
<clus scale="   40.016">  1  5  2 -1</clus>
</clustering>
</event>
<event>
 9    1  0.1671478E-005  0.9868044E+02  0.7546771E-02  0.1283674E+00
         21   -1    0    0  501  502  0.00000000000E+00  0.00000000000E+00  0.14225218226E+03  0.14225218226E+03  0.00000000000E+00 0. -1.
          2   -1    0    0  502    0 -0.00000000000E+00 -0.00000000000E+00 -0.14297326565E+03  0.14297326565E+03  0.00000000000E+00 0. -1.
         23    2    1    2    0    0  0.27391741727E+02 -0.57355229740E+00 -0.63733898894E+02  0.11878727069E+03  0.96424941444E+02 0.  0.
         23    2    1    2    0    0  0.12423619796E+02  0.14348749186E+02  0.11674903050E+02  0.10002582658E+03  0.97512202774E+02 0.  0.
        -13    1    4    4    0    0  0.32772191764E+02 -0.10701564183E+02  0.42956582227E+02  0.55080014394E+02  0.00000000000E+00 0.  1.
         13    1    4    4    0    0 -0.20348571968E+02  0.25050313369E+02 -0.31281679177E+02  0.44945812187E+02  0.00000000000E+00 0. -1.
        -13    1    3    3    0    0  0.54458170019E+02 -0.21294417700E+02 -0.61141387745E+02  0.84601500001E+02  0.00000000000E+00 0.  1.
         13    1    3    3    0    0 -0.27066428292E+02  0.20720865403E+02 -0.25925111495E+01  0.34185770689E+02  0.00000000000E+00 0. -1.
          2    1    1    2  501    0 -0.39815361524E+02 -0.13775196889E+02  0.51337912458E+02  0.66412350645E+02  0.00000000000E+00 0. -1.
<scales pt_clust_5="13000.00000" pt_clust_6="13000.00000" pt_clust_7="13000.00000" pt_clust_8="13000.00000" pt_clust_9="42.13098"></scales>
<clustering>
<clus scale="   42.131">  1  9  2 -1</clus>
<clus scale="   96.425">  7  8 -1 -1</clus>
<clus scale="   97.512">  5  6 -1 -1</clus>
<clus scale="   97.606">  2  7  1 -1</clus>
<clus scale="   42.131">  1  5  2 -1</clus>
</clustering>
</event>
<event>
 9    1  0.1671478E-005  0.1086061E+03  0.7546771E-02  0.1264030E+00
         21   -1    0    0  501  502  0.00000000000E+00  0.00000000000E+00  0.62004701177E+02  0.62004701177E+02  0.00000000000E+00 0.  1.
          1   -1    0    0  502    0 -0.00000000000E+00 -0.00000000000E+00 -0.33743859586E+03  0.33743859586E+03  0.00000000000E+00 0. -1.
         23    2    1    2    0    0  0.64879669085E+02  0.12203079593E+02 -0.24242966064E+03  0.26715118183E+03  0.90770738560E+02 0.  0.
         23    2    1    2    0    0 -0.42202399670E+02 -0.78625630258E+01 -0.42614523555E+02  0.10728299095E+03  0.88604627945E+02 0.  0.
        -11    1    3    3    0    0  0.80477705843E+02  0.26373179167E+02 -0.14911066059E+03  0.17148234551E+03  0.00000000000E+00 0.  1.
         11    1    3    3    0    0 -0.15598036758E+02 -0.14170099574E+02 -0.93319000049E+02  0.95668836320E+02  0.00000000000E+00 0. -1.
        -13    1    4    4    0    0  0.23333354762E+02 -0.19558792463E+02 -0.51048696972E+01  0.30871532221E+02  0.00000000000E+00 0.  1.
         13    1    4    4    0    0 -0.65535754432E+02  0.11696229437E+02 -0.37509653858E+02  0.76411458725E+02  0.00000000000E+00 0. -1.
          1    1    1    2  501    0 -0.22677269415E+02 -0.43405165676E+01  0.96102895128E+01  0.25009124269E+02  0.00000000000E+00 0. -1.
<scales pt_clust_5="13000.00000" pt_clust_6="13000.00000" pt_clust_7="13000.00000" pt_clust_8="13000.00000" pt_clust_9="23.08893"></scales>
<clustering>
<clus scale="   23.089">  1  9  2 -1</clus>
<clus scale="   88.605">  7  8 -1 -1</clus>
<clus scale="   90.771">  5  6 -1 -1</clus>
<clus scale="  106.802">  1  7  2 -1</clus>
<clus scale="   23.089">  1  5  2 -1</clus>
</clustering>
</event>
<event>
 9    1  0.1671478E-005  0.9459841E+02  0.7546771E-02  0.1292321E+00
         21   -1    0    0  501  502  0.00000000000E+00  0.00000000000E+00  0.26573247962E+03  0.26573247962E+03  0.00000000000E+00 0.  1.
          1   -1    0    0  502    0 -0.00000000000E+00 -0.00000000000E+00 -0.10449851434E+03  0.10449851434E+03  0.00000000000E+00 0. -1.
         23    2    1    2    0    0 -0.18895288441E+02 -0.23094753474E+01 -0.86523143557E+00  0.92942021635E+02  0.90967604995E+02 0.  0.
         23    2    1    2    0    0 -0.40118376048E+02  0.57628084883E+02  0.24742410554E+02  0.11788493266E+03  0.91401259312E+02 0.  0.
        -11    1    4    4    0    0  0.37891457538E+00 -0.23244684947E+02  0.13122850763E+02  0.26695845495E+02  0.00000000000E+00 0. -1.
         11    1    4    4    0    0 -0.40497290623E+02  0.80872769830E+02  0.11619559791E+02  0.91189087163E+02  0.00000000000E+00 0.  1.
        -13    1    3    3    0    0 -0.47263536455E+02  0.22588929007E+02  0.10698191353E+02  0.53465436406E+02  0.00000000000E+00 0.  1.
         13    1    3    3    0    0  0.28368248014E+02 -0.24898404354E+02 -0.11563422789E+02  0.39476585229E+02  0.00000000000E+00 0. -1.
          1    1    1    2  501    0  0.59013664489E+02 -0.55318609535E+02  0.13735678616E+03  0.15940403967E+03  0.00000000000E+00 0. -1.
<scales pt_clust_5="13000.00000" pt_clust_6="13000.00000" pt_clust_7="13000.00000" pt_clust_8="13000.00000" pt_clust_9="80.88734"></scales>
<clustering>
<clus scale="   80.887">  1  9  2 -1</clus>
<clus scale="   90.968">  7  8 -1 -1</clus>
<clus scale="   91.401">  5  6 -1 -1</clus>
<clus scale="   94.179">  2  7  1 -1</clus>
<clus scale="   80.887">  1  5  2 -1</clus>
</clustering>
</event>
<event>
 9    1  0.1671478E-005  0.9722167E+02  0.7546771E-02  0.1287418E+00
         21   -1    0    0  501  502  0.00000000000E+00  0.00000000000E+00  0.12052429669E+03  0.12052429669E+03  0.00000000000E+00 0. -1.
          2   -1    0    0  502    0 -0.00000000000E+00 -0.00000000000E+00 -0.28625622158E+03  0.28625622158E+03  0.00000000000E+00 0. -1.
         23    2    1    2    0    0  0.38402811484E+02 -0.19430785711E+02 -0.19858808384E+03  0.22217230627E+03  0.89838606788E+02 0.  0.
         23    2    1    2    0    0  0.18368599169E+02  0.20251317264E+02 -0.29305388531E+02  0.10041958851E+03  0.92074788475E+02 0.  0.
        -11    1    4    4    0    0  0.49889036237E+02  0.30248748675E+00 -0.37272459016E+02  0.62275546055E+02  0.00000000000E+00 0. -1.
         11    1    4    4    0    0 -0.31520437069E+02  0.19948829777E+02  0.79670704847E+01  0.38144042452E+02  0.00000000000E+00 0.  1.
        -11    1    3    3    0    0 -0.45221714344E+01  0.30741966036E+02 -0.88550820033E+02  0.93844372440E+02  0.00000000000E+00 0.  1.
         11    1    3    3    0    0  0.42924982919E+02 -0.50172751747E+02 -0.11003726380E+03  0.12832793383E+03  0.00000000000E+00 0. -1.
          2    1    1    2  501    0 -0.56771410653E+02 -0.82053155275E+00  0.62161547481E+02  0.84188623488E+02  0.00000000000E+00 0. -1.
<scales pt_clust_5="13000.00000" pt_clust_6="13000.00000" pt_clust_7="13000.00000" pt_clust_8="13000.00000" pt_clust_9="56.77734"></scales>
<clustering>
<clus scale="   56.777">  1  9  2 -1</clus>
<clus scale="   89.839">  7  8 -1 -1</clus>
<clus scale="   92.075">  5  6 -1 -1</clus>
<clus scale="   95.107">  2  7  1 -1</clus>
<clus scale="   56.777">  1  5  2 -1</clus>
</clustering>
</event>
<event>
 9    1  0.1671478E-005  0.1281464E+03  0.7546771E-02  0.1232279E+00
         21   -1    0    0  501  502  0.00000000000E+00  0.00000000000E+00  0.33765900000E+03  0.33765900000E+03  0.00000000000E+00 0.  1.
          1   -1    0    0  502    0 -0.00000000000E+00 -0.00000000000E+00 -0.98342232833E+02  0.98342232833E+02  0.00000000000E+00 0. -1.
         23    2    1    2    0    0 -0.32422748625E+02 -0.79790948511E+02 -0.11950008366E+02  0.12680737981E+03  0.92301022653E+02 0.  0.
         23    2    1    2    0    0  0.39770066036E+02  0.46079960891E+02  0.24869720610E+03  0.27459592755E+03  0.99235085308E+02 0.  0.
        -13    1    3    3    0    0  0.15197656072E+02 -0.66163155550E+02 -0.29824721481E+02  0.74148809254E+02  0.00000000000E+00 0. -1.
         13    1    3    3    0    0 -0.47620404697E+02 -0.13627792961E+02  0.17874713115E+02  0.52658570560E+02  0.00000000000E+00 0.  1.
        -13    1    4    4    0    0  0.73235121605E+02  0.34573700798E+02  0.16964812147E+03  0.18798725739E+03  0.00000000000E+00 0.  1.
         13    1    4    4    0    0 -0.33465055568E+02  0.11506260093E+02  0.79049084629E+02  0.86608670156E+02  0.00000000000E+00 0. -1.
          1    1    1    2  501    0 -0.73473174115E+01  0.33710987620E+02  0.25695694273E+01  0.34597925465E+02  0.00000000000E+00 0. -1.
<scales pt_clust_5="13000.00000" pt_clust_6="13000.00000" pt_clust_7="13000.00000" pt_clust_8="13000.00000" pt_clust_9="34.50239"></scales>
<clustering>
<clus scale="   34.502">  1  9  2 -1</clus>
<clus scale="   92.301">  5  6 -1 -1</clus>
<clus scale="   99.235">  7  8 -1 -1</clus>
<clus scale="  122.855">  2  5  1 -1</clus>
<clus scale="   34.502">  1  5  2 -1</clus>
</clustering>
</event>
<event>
 9    1  0.1671478E-005  0.9863150E+02  0.7546771E-02  0.1283265E+00
         21   -1    0    0  501  502  0.00000000000E+00  0.00000000000E+00  0.69272435202E+03  0.69272435202E+03  0.00000000000E+00 0.  1.
         -4   -1    0    0    0  501 -0.00000000000E+00 -0.00000000000E+00 -0.11574885203E+03  0.11574885203E+03  0.00000000000E+00 0.  1.
         23    2    1    2    0    0  0.39761425568E+02  0.50544023938E+02 -0.37061250837E+02  0.11827277681E+03  0.92082811111E+02 0.  0.
         23    2    1    2    0    0  0.40624641071E+02 -0.12997594985E+01  0.39914400232E+02  0.10838998496E+03  0.92212681645E+02 0.  0.
        -11    1    4    4    0    0  0.21101589550E+02  0.34944565533E+02 -0.11608394515E+02  0.42440011370E+02  0.00000000000E+00 0.  1.
         11    1    4    4    0    0  0.19523051521E+02 -0.36244325031E+02  0.51522794746E+02  0.65949973587E+02  0.00000000000E+00 0. -1.
        -11    1    3    3    0    0  0.36052388837E+02 -0.89163332508E+01  0.14118773249E+02  0.39731794542E+02  0.00000000000E+00 0.  1.
         11    1    3    3    0    0  0.37090367312E+01  0.59460357189E+02 -0.51180024086E+02  0.78540982270E+02  0.00000000000E+00 0. -1.
         -4    1    1    2    0  502 -0.80386066639E+02 -0.49244264440E+02  0.57412235060E+03  0.58181044228E+03  0.00000000000E+00 0.  1.
<scales pt_clust_5="13000.00000" pt_clust_6="13000.00000" pt_clust_7="13000.00000" pt_clust_8="13000.00000" pt_clust_9="94.27045"></scales>
<clustering>
<clus scale="   92.083">  7  8 -1 -1</clus>
<clus scale="   92.213">  5  6 -1 -1</clus>
<clus scale="   94.270">  1  9  2 -1</clus>
<clus scale="   98.510">  2  7  1 -1</clus>
<clus scale="   94.270">  1  5  2 -1</clus>
</clustering>
</event>
<event>
 9    1  0.1671478E-005  0.9626361E+02  0.7546771E-02  0.1289027E+00
         21   -1    0    0  501  502  0.00000000000E+00  0.00000000000E+00  0.13601350117E+03  0.13601350117E+03  0.00000000000E+00 0. -1.
         -2   -1    0    0    0  501 -0.00000000000E+00 -0.00000000000E+00 -0.10930312672E+03  0.10930312672E+03  0.00000000000E+00 0.  1.
         23    2    1    2    0    0  0.18071333773E+02  0.13146872289E+02 -0.11230087371E+02  0.95126970978E+02  0.91780239648E+02 0.  0.
         23    2    1    2    0    0 -0.39907218613E+02  0.19141738698E+01 -0.57181799499E+01  0.99104258016E+02  0.90513569236E+02 0.  0.
        -13    1    4    4    0    0 -0.26288525972E+02 -0.42578268410E+02 -0.13730210092E+02  0.51889442160E+02  0.00000000000E+00 0.  1.
         13    1    4    4    0    0 -0.13618692642E+02  0.44492442279E+02  0.80120301426E+01  0.47214815855E+02  0.00000000000E+00 0. -1.
        -13    1    3    3    0    0  0.11964525842E+02  0.51419712995E+02 -0.18011310534E+02  0.55781216106E+02  0.00000000000E+00 0. -1.
         13    1    3    3    0    0  0.61068079311E+01 -0.38272840706E+02  0.67812231638E+01  0.39345754872E+02  0.00000000000E+00 0.  1.
         -2    1    1    2    0  502  0.21835884841E+02 -0.15061046158E+02  0.43658641772E+02  0.51085398888E+02  0.00000000000E+00 0.  1.
<scales pt_clust_5="13000.00000" pt_clust_6="13000.00000" pt_clust_7="13000.00000" pt_clust_8="13000.00000" pt_clust_9="26.52623"></scales>
<clustering>
<clus scale="   26.526">  1  9  2 -1</clus>
<clus scale="   90.514">  5  6 -1 -1</clus>
<clus scale="   91.780">  7  8 -1 -1</clus>
<clus scale="   95.057">  1  5  2 -1</clus>
<clus scale="   26.526">  1  5  2 -1</clus>
</clustering>
</event>
<event>
 9    1  0.1671478E-005  0.9440993E+02  0.7546771E-02  0.1293252E+00
         21   -1    0    0  501  502  0.00000000000E+00  0.00000000000E+00  0.21408728255E+03  0.21408728255E+03  0.00000000000E+00 0.  1.
         -4   -1    0    0    0  501 -0.00000000000E+00 -0.00000000000E+00 -0.75873723512E+03  0.75873723512E+03  0.00000000000E+00 0.  1.
         23    2    1    2    0    0 -0.11816376312E+02  0.30819180887E+02 -0.43016117880E+03  0.44113853113E+03  0.92060389077E+02 0.  0.
         23    2    1    2    0    0  0.49288074820E+01 -0.52959262615E+01 -0.31579554429E+03  0.32865079012E+03  0.90731340074E+02 0.  0.
        -11    1    4    4    0    0 -0.39045826753E+02 -0.20987415038E+02 -0.15358841255E+03  0.15985758864E+03  0.00000000000E+00 0. -1.
         11    1    4    4    0    0  0.43974634235E+02  0.15691488777E+02 -0.16220713174E+03  0.16879320147E+03  0.00000000000E+00 0.  1.
        -13    1    3    3    0    0  0.12838346954E+02 -0.27360408707E+02 -0.84331499275E+02  0.89583574873E+02  0.00000000000E+00 0. -1.
         13    1    3    3    0    0 -0.24654723266E+02  0.58179589594E+02 -0.34582967953E+03  0.35155495625E+03  0.00000000000E+00 0.  1.
         -4    1    1    2    0  502  0.68875688296E+01 -0.25523254625E+02  0.20130677052E+03  0.20303519642E+03  0.00000000000E+00 0.  1.
<scales pt_clust_5="13000.00000" pt_clust_6="13000.00000" pt_clust_7="13000.00000" pt_clust_8="13000.00000" pt_clust_9="26.43625"></scales>
<clustering>
<clus scale="   26.436">  1  9  2 -1</clus>
<clus scale="   90.731">  5  6 -1 -1</clus>
<clus scale="   92.060">  7  8 -1 -1</clus>
<clus scale="   93.114">  1  5  2 -1</clus>
<clus scale="   26.436">  1  5  2 -1</clus>
</clustering>
</event>
<event>
 9    1  0.1671478E-005  0.1568116E+03  0.7546771E-02  0.1212172E+00
         -2   -1    0    0    0  501 -0.00000000000E+00  0.00000000000E+00  0.16518235302E+03  0.16518235302E+03  0.00000000000E+00 0.  1.
         21   -1    0    0  501  502  0.00000000000E+00 -0.00000000000E+00 -0.29936644135E+03  0.29936644135E+03  0.00000000000E+00 0.  1.
         23    2    1    2    0    0 -0.44491057119E+02 -0.93285428334E+01  0.32862266026E+02  0.10726472525E+03  0.91429299892E+02 0.  0.
         23    2    1    2    0    0  0.14895674213E+03  0.57920559471E+02 -0.47094805472E+02  0.19096318196E+03  0.93306558871E+02 0.  0.
        -13    1    4    4    0    0  0.11548511813E+03  0.42465467331E+02 -0.75553106928E+02  0.14438975169E+03  0.00000000000E+00 0.  1.
         13    1    4    4    0    0  0.33471623995E+02  0.15455092141E+02  0.28458301456E+02  0.46573430276E+02  0.00000000000E+00 0. -1.
        -13    1    3    3    0    0 -0.27934235279E+02 -0.48417580605E+02  0.32806096734E+02  0.64813760848E+02  0.00000000000E+00 0.  1.
         13    1    3    3    0    0 -0.16556821840E+02  0.39089037772E+02  0.56169292248E-01  0.42450964398E+02  0.00000000000E+00 0. -1.
         -2    1    1    2    0  502 -0.10446568501E+03 -0.48592016638E+02 -0.11995154889E+03  0.16632088716E+03  0.00000000000E+00 0.  1.
<scales pt_clust_5="13000.00000" pt_clust_6="13000.00000" pt_clust_7="13000.00000" pt_clust_8="13000.00000" pt_clust_9="126.03076"></scales>
<clustering>
<clus scale="   91.429">  7  8 -1 -1</clus>
<clus scale="   93.307">  5  6 -1 -1</clus>
<clus scale="  102.107">  1  7  2 -1</clus>
<clus scale="  126.031">  2  9  1 -1</clus>
<clus scale="  126.031">  2  5  1 -1</clus>
</clustering>
</event>
<event>
 9    1  0.1671478E-005  0.2621493E+03  0.7546771E-02  0.1105953E+00
          1   -1    0    0  502    0 -0.00000000000E+00  0.00000000000E+00  0.27790768692E+03  0.27790768692E+03  0.00000000000E+00 0. -1.
         21   -1    0    0  501  502  0.00000000000E+00 -0.00000000000E+00 -0.65332890384E+03  0.65332890384E+03  0.00000000000E+00 0. -1.
         23    2    1    2    0    0  0.19851245642E+03  0.20753476562E+03  0.12992865281E+03  0.32821323097E+03  0.91458164576E+02 0.  0.
         23    2    1    2    0    0 -0.77572407644E+02 -0.12852753543E+03 -0.20284456341E+03  0.26779493294E+03  0.89618097560E+02 0.  0.
        -11    1    3    3    0    0  0.10735283589E+03  0.15803824489E+03  0.50636230820E+02  0.19764803590E+03  0.00000000000E+00 0.  1.
         11    1    3    3    0    0  0.91159620532E+02  0.49496520727E+02  0.79292421990E+02  0.13056519507E+03  0.00000000000E+00 0. -1.
        -13    1    4    4    0    0 -0.22094956498E+02 -0.10717720476E+03 -0.96207454917E+02  0.14570866380E+03  0.00000000000E+00 0.  1.
         13    1    4    4    0    0 -0.55477451146E+02 -0.21350330669E+02 -0.10663710849E+03  0.12208626914E+03  0.00000000000E+00 0. -1.
          1    1    1    2  501    0 -0.12094004878E+03 -0.79007230188E+02 -0.30250530632E+03  0.33522842686E+03  0.00000000000E+00 0. -1.
<scales pt_clust_5="13000.00000" pt_clust_6="13000.00000" pt_clust_7="13000.00000" pt_clust_8="13000.00000" pt_clust_9="144.45981"></scales>
<clustering>
<clus scale="   89.618">  7  8 -1 -1</clus>
<clus scale="   91.458">  5  6 -1 -1</clus>
<clus scale="  144.460">  2  9  1 -1</clus>
<clus scale="  261.513">  2  7  1 -1</clus>
<clus scale="  144.460">  2  5  1 -1</clus>
</clustering>
</event>
<event>
 9    1  0.1671478E-005  0.1169863E+03  0.7546771E-02  0.1257990E+00
          1   -1    0    0  502    0 -0.00000000000E+00  0.00000000000E+00  0.31621903420E+03  0.31621903420E+03  0.00000000000E+00 0. -1.
         21   -1    0    0  501  502  0.00000000000E+00 -0.00000000000E+00 -0.50410082303E+02  0.50410082303E+02  0.00000000000E+00 0.  1.
         23    2    1    2    0    0  0.27842900053E+02  0.73937314859E+01  0.14772973822E+03  0.17590547798E+03  0.91042667361E+02 0.  0.
         23    2    1    2    0    0 -0.23305991331E+02 -0.35860048494E+02  0.90086879198E+02  0.15054297733E+03  0.11277601655E+03 0.  0.
        -13    1    4    4    0    0  0.30121473492E+02 -0.27771105633E+02  0.87299081864E+02  0.96434781939E+02  0.00000000000E+00 0. -1.
         13    1    4    4    0    0 -0.53427464822E+02 -0.80889428607E+01  0.27877973335E+01  0.54108195386E+02  0.00000000000E+00 0.  1.
        -13    1    3    3    0    0  0.29133357976E+02  0.37384126228E+02  0.34126710520E+02  0.58403405823E+02  0.00000000000E+00 0.  1.
         13    1    3    3    0    0 -0.12904579230E+01 -0.29990394742E+02  0.11360302770E+03  0.11750207216E+03  0.00000000000E+00 0. -1.
          1    1    1    2  501    0 -0.45369087228E+01  0.28466317008E+02  0.27992334480E+02  0.40180661199E+02  0.00000000000E+00 0. -1.
<scales pt_clust_5="13000.00000" pt_clust_6="13000.00000" pt_clust_7="13000.00000" pt_clust_8="13000.00000" pt_clust_9="28.82559"></scales>
<clustering>
<clus scale="   28.826">  2  9  1 -1</clus>
<clus scale="   91.043">  7  8 -1 -1</clus>
<clus scale="   96.209">  1  7  2 -1</clus>
<clus scale="  112.776">  5  6 -1 -1</clus>
<clus scale="   28.826">  2  5  1 -1</clus>
</clustering>
</event>
<event>
 9    1  0.1671478E-005  0.1121115E+03  0.7546771E-02  0.1257095E+00
         -2   -1    0    0    0  501 -0.00000000000E+00  0.00000000000E+00  0.41504360774E+03  0.41504360774E+03  0.00000000000E+00 0.  1.
         21   -1    0    0  501  502  0.00000000000E+00 -0.00000000000E+00 -0.76631198359E+02  0.76631198359E+02  0.00000000000E+00 0.  1.
         23    2    1    2    0    0 -0.30251473247E+02 -0.47061977761E+02  0.24107023137E+03  0.26347080959E+03  0.90399279140E+02 0.  0.
         23    2    1    2    0    0  0.48997315325E+02  0.68786403235E+02  0.13317901654E+03  0.18229499682E+03  0.91446756309E+02 0.  0.
        -11    1    3    3    0    0  0.69993531540E+01 -0.56318143395E+02  0.81259836690E+02  0.99115514824E+02  0.00000000000E+00 0.  1.
         11    1    3    3    0    0 -0.37250826401E+02  0.92561656337E+01  0.15981039468E+03  0.16435529477E+03  0.00000000000E+00 0. -1.
        -13    1    4    4    0    0  0.29427822767E+02 -0.15334751945E+02  0.62221270282E+02  0.70516933041E+02  0.00000000000E+00 0. -1.
         13    1    4    4    0    0  0.19569492558E+02  0.84121155180E+02  0.70957746254E+02  0.11177806378E+03  0.00000000000E+00 0.  1.
         -2    1    1    2    0  502 -0.18745842078E+02 -0.21724425474E+02 -0.35836838525E+02  0.45908999693E+02  0.00000000000E+00 0.  1.
<scales pt_clust_5="13000.00000" pt_clust_6="13000.00000" pt_clust_7="13000.00000" pt_clust_8="13000.00000" pt_clust_9="28.69420"></scales>
<clustering>
<clus scale="   28.694">  2  9  1 -1</clus>
<clus scale="   90.399">  5  6 -1 -1</clus>
<clus scale="   91.447">  7  8 -1 -1</clus>
<clus scale="  111.259">  1  5  2 -1</clus>
<clus scale="   28.694">  2  5  1 -1</clus>
</clustering>
</event>
<event>
 9    1  0.1671478E-005  0.1766564E+03  0.7546771E-02  0.1173876E+00
         21   -1    0    0  501  502  0.00000000000E+00  0.00000000000E+00  0.11590262841E+04  0.11590262841E+04  0.00000000000E+00 0.  1.
          2   -1    0    0  502    0 -0.00000000000E+00 -0.00000000000E+00 -0.15099319328E+03  0.15099319328E+03  0.00000000000E+00 0. -1.
         23    2    1    2    0    0  0.17602435394E+02 -0.13595391442E+03 -0.75319086692E+02  0.18891976657E+03  0.10594527268E+03 0.  0.
         23    2    1    2    0    0  0.89148312990E+00  0.19266735445E+03  0.64489219642E+03  0.67860045168E+03  0.86551278484E+02 0.  0.
        -13    1    3    3    0    0 -0.21398271288E+02 -0.31967635333E+01 -0.41002260161E+02  0.46360442723E+02  0.00000000000E+00 0. -1.
         13    1    3    3    0    0  0.39000706682E+02 -0.13275715089E+03 -0.34316826532E+02  0.14255932385E+03  0.00000000000E+00 0.  1.
        -13    1    4    4    0    0 -0.34040442289E+02  0.15931666083E+03  0.49489346737E+03  0.52101832422E+03  0.00000000000E+00 0.  1.
         13    1    4    4    0    0  0.34931925419E+02  0.33350693617E+02  0.14999872905E+03  0.15758212746E+03  0.00000000000E+00 0. -1.
          2    1    1    2  501    0 -0.18493918524E+02 -0.56713440029E+02  0.43845998105E+03  0.44249925908E+03  0.00000000000E+00 0. -1.
<scales pt_clust_5="13000.00000" pt_clust_6="13000.00000" pt_clust_7="13000.00000" pt_clust_8="13000.00000" pt_clust_9="59.65266"></scales>
<clustering>
<clus scale="   59.653">  1  9  2 -1</clus>
<clus scale="   86.551">  7  8 -1 -1</clus>
<clus scale="  105.945">  5  6 -1 -1</clus>
<clus scale="  165.753">  1  7  2 -1</clus>
<clus scale="   59.653">  1  5  2 -1</clus>
</clustering>
</event>
<event>
 9    1  0.1671478E-005  0.1220063E+03  0.7546771E-02  0.1239845E+00
         21   -1    0    0  501  502  0.00000000000E+00  0.00000000000E+00  0.85184911691E+02  0.85184911691E+02  0.00000000000E+00 0.  1.
          1   -1    0    0  502    0 -0.00000000000E+00 -0.00000000000E+00 -0.68233677918E+03  0.68233677918E+03  0.00000000000E+00 0. -1.
         23    2    1    2    0    0 -0.11259136031E+03  0.24083871506E+02 -0.46106295809E+03  0.48339979747E+03  0.88540756638E+02 0.  0.
         23    2    1    2    0    0  0.47475811607E+02  0.14344010993E+00 -0.17695496682E+03  0.20351772504E+03  0.88613942793E+02 0.  0.
        -11    1    3    3    0    0 -0.97172876249E+02  0.54164527946E+02 -0.34270892391E+03  0.36031343369E+03  0.00000000000E+00 0. -1.
         11    1    3    3    0    0 -0.15418484056E+02 -0.30080656440E+02 -0.11835403417E+03  0.12308636378E+03  0.00000000000E+00 0.  1.
        -11    1    4    4    0    0  0.68828536342E+02  0.14310669902E+02 -0.98721710161E+02  0.12119463167E+03  0.00000000000E+00 0. -1.
         11    1    4    4    0    0 -0.21352724735E+02 -0.14167229792E+02 -0.78233256662E+02  0.82323093368E+02  0.00000000000E+00 0.  1.
          1    1    1    2  501    0  0.65115548699E+02 -0.24227311616E+02  0.40866057418E+02  0.80604168375E+02  0.00000000000E+00 0. -1.
<scales pt_clust_5="13000.00000" pt_clust_6="13000.00000" pt_clust_7="13000.00000" pt_clust_8="13000.00000" pt_clust_9="69.47660"></scales>
<clustering>
<clus scale="   69.477">  1  9  2 -1</clus>
<clus scale="   88.541">  5  6 -1 -1</clus>
<clus scale="   88.614">  7  8 -1 -1</clus>
<clus scale="  121.953">  2  5  1 -1</clus>
<clus scale="   69.477">  1  5  2 -1</clus>
</clustering>
</event>
<event>
 9    1  0.1671478E-005  0.1333110E+03  0.7546771E-02  0.1222705E+00
          2   -1    0    0  502    0 -0.00000000000E+00  0.00000000000E+00  0.58454178919E+03  0.58454178919E+03  0.00000000000E+00 0. -1.
         21   -1    0    0  501  502  0.00000000000E+00 -0.00000000000E+00 -0.55442269704E+02  0.55442269704E+02  0.00000000000E+00 0.  1.
         23    2    1    2    0    0 -0.21151262728E+02 -0.85009952585E+02  0.35484251913E+03  0.37679832289E+03  0.91595277144E+02 0.  0.
         23    2    1    2    0    0  0.35802971515E+02  0.12175518935E+03  0.12812505336E+03  0.20241533590E+03  0.91922576152E+02 0.  0.
        -13    1    4    4    0    0  0.14244575688E+02  0.12914595671E+03  0.90200529318E+02  0.15816991358E+03  0.00000000000E+00 0.  1.
         13    1    4    4    0    0  0.21558395827E+02 -0.73907673611E+01  0.37924524046E+02  0.44245422328E+02  0.00000000000E+00 0. -1.
        -13    1    3    3    0    0  0.12016767030E+02 -0.91698947904E+02  0.27289603695E+03  0.28814119234E+03  0.00000000000E+00 0. -1.
         13    1    3    3    0    0 -0.33168029758E+02  0.66889953190E+01  0.81946482178E+02  0.88657130552E+02  0.00000000000E+00 0.  1.
          2    1    1    2  501    0 -0.14651708787E+02 -0.36745236765E+02  0.46131946990E+02  0.60770400101E+02  0.00000000000E+00 0. -1.
<scales pt_clust_5="13000.00000" pt_clust_6="13000.00000" pt_clust_7="13000.00000" pt_clust_8="13000.00000" pt_clust_9="39.55863"></scales>
<clustering>
<clus scale="   39.559">  2  9  1 -1</clus>
<clus scale="   91.595">  7  8 -1 -1</clus>
<clus scale="   91.923">  5  6 -1 -1</clus>
<clus scale="  133.086">  1  7  2 -1</clus>
<clus scale="   39.559">  2  5  1 -1</clus>
</clustering>
</event>
<event>
 9    1  0.1671478E-005  0.9159467E+02  0.7546771E-02  0.1301969E+00
         -1   -1    0    0    0  501 -0.00000000000E+00  0.00000000000E+00  0.53460790170E+02  0.53460790170E+02  0.00000000000E+00 0.  1.
         21   -1    0    0  501  502  0.00000000000E+00 -0.00000000000E+00 -0.21800297302E+03  0.21800297302E+03  0.00000000000E+00 0. -1.
         23    2    1    2    0    0 -0.78351106090E+01 -0.27535957528E+00 -0.44716791506E+02  0.10146837635E+03  0.90745662017E+02 0.  0.
         23    2    1    2    0    0  0.92998298154E+01 -0.19782630446E+02 -0.60360990388E+02  0.10722211748E+03  0.85879531982E+02 0.  0.
        -11    1    3    3    0    0 -0.36962057588E+02  0.28551268272E+02 -0.37413831293E+02  0.59842822402E+02  0.00000000000E+00 0. -1.
         11    1    3    3    0    0  0.29126946979E+02 -0.28826627847E+02 -0.73029602129E+01  0.41625553945E+02  0.00000000000E+00 0.  1.
        -13    1    4    4    0    0  0.16452498006E+02  0.31216724657E+02 -0.14110542414E+02  0.38003631355E+02  0.00000000000E+00 0. -1.
         13    1    4    4    0    0 -0.71526681906E+01 -0.50999355102E+02 -0.46250447974E+02  0.69218486121E+02  0.00000000000E+00 0.  1.
         -1    1    1    2    0  502 -0.14647192064E+01  0.20057990021E+02 -0.59464400958E+02  0.62773269370E+02  0.00000000000E+00 0.  1.
<scales pt_clust_5="13000.00000" pt_clust_6="13000.00000" pt_clust_7="13000.00000" pt_clust_8="13000.00000" pt_clust_9="20.11140"></scales>
<clustering>
<clus scale="   20.111">  2  9  1 -1</clus>
<clus scale="   85.880">  7  8 -1 -1</clus>
<clus scale="   86.776">  2  7  1 -1</clus>
<clus scale="   90.746">  5  6 -1 -1</clus>
<clus scale="   20.111">  2  5  1 -1</clus>
</clustering>
</event>
<event>
 9    1  0.1671478E-005  0.1418540E+03  0.7546771E-02  0.1227404E+00
          2   -1    0    0  502    0 -0.00000000000E+00  0.00000000000E+00  0.11736636121E+04  0.11736636121E+04  0.00000000000E+00 0. -1.
         21   -1    0    0  501  502  0.00000000000E+00 -0.00000000000E+00 -0.30691987570E+02  0.30691987570E+02  0.00000000000E+00 0. -1.
         23    2    1    2    0    0 -0.33656341683E+02  0.23572760421E+02  0.38046600758E+03  0.39343001752E+03  0.91347530856E+02 0.  0.
         23    2    1    2    0    0  0.12654002933E+03  0.28015854278E+02  0.56928336136E+03  0.59041797536E+03  0.87821255940E+02 0.  0.
        -13    1    3    3    0    0 -0.15079314092E+02  0.55281199852E+02  0.29311416851E+03  0.29866253958E+03  0.00000000000E+00 0.  1.
         13    1    3    3    0    0 -0.18577027592E+02 -0.31708439432E+02  0.87351839076E+02  0.94767477941E+02  0.00000000000E+00 0. -1.
        -13    1    4    4    0    0  0.26566430611E+02  0.73649723663E+01  0.26922914605E+02  0.38533899156E+02  0.00000000000E+00 0.  1.
         13    1    4    4    0    0  0.99973598720E+02  0.20650881912E+02  0.54236044676E+03  0.55188407621E+03  0.00000000000E+00 0. -1.
          2    1    1    2  501    0 -0.92883687647E+02 -0.51588614699E+02  0.19322225563E+03  0.22050760682E+03  0.00000000000E+00 0. -1.
<scales pt_clust_5="13000.00000" pt_clust_6="13000.00000" pt_clust_7="13000.00000" pt_clust_8="13000.00000" pt_clust_9="111.40011"></scales>
<clustering>
<clus scale="   87.821">  7  8 -1 -1</clus>
<clus scale="   91.348">  5  6 -1 -1</clus>
<clus scale="  100.164">  1  5  2 -1</clus>
<clus scale="  111.400">  2  9  1 -1</clus>
<clus scale="  111.400">  2  5  1 -1</clus>
</clustering>
</event>
<event>
 9    1  0.1671478E-005  0.1062443E+03  0.7546771E-02  0.1268906E+00
          2   -1    0    0  502    0 -0.00000000000E+00  0.00000000000E+00  0.91947310957E+03  0.91947310957E+03  0.00000000000E+00 0. -1.
         21   -1    0    0  501  502  0.00000000000E+00 -0.00000000000E+00 -0.23241591551E+02  0.23241591551E+02  0.00000000000E+00 0.  1.
         23    2    1    2    0    0 -0.53823201997E+02 -0.45560593981E+02  0.40835562933E+03  0.42392583711E+03  0.89364929157E+02 0.  0.
         23    2    1    2    0    0 -0.33202431972E+01  0.35595710384E+02  0.17901257650E+03  0.20452588839E+03  0.92234797463E+02 0.  0.
        -11    1    4    4    0    0  0.20441084900E+02  0.45977044997E+02  0.43372898285E+02  0.66429924915E+02  0.00000000000E+00 0.  1.
         11    1    4    4    0    0 -0.23761328097E+02 -0.10381334613E+02  0.13563967821E+03  0.13809596347E+03  0.00000000000E+00 0. -1.
        -11    1    3    3    0    0 -0.62979325384E+02 -0.66130061305E+02  0.32733600388E+03  0.33983590138E+03  0.00000000000E+00 0.  1.
         11    1    3    3    0    0  0.91561233869E+01  0.20569467324E+02  0.81019625451E+02  0.84089935722E+02  0.00000000000E+00 0. -1.
          2    1    1    2  501    0  0.57143445194E+02  0.99648835970E+01  0.30886331219E+03  0.31426297563E+03  0.00000000000E+00 0. -1.
<scales pt_clust_5="13000.00000" pt_clust_6="13000.00000" pt_clust_7="13000.00000" pt_clust_8="13000.00000" pt_clust_9="58.00582"></scales>
<clustering>
<clus scale="   58.006">  2  9  1 -1</clus>
<clus scale="   89.365">  7  8 -1 -1</clus>
<clus scale="   92.235">  5  6 -1 -1</clus>
<clus scale="  103.763">  1  7  2 -1</clus>
<clus scale="   58.006">  2  5  1 -1</clus>
</clustering>
</event>
<event>
 9    1  0.1671478E-005  0.1258326E+03  0.7546771E-02  0.1234012E+00
          2   -1    0    0  502    0 -0.00000000000E+00  0.00000000000E+00  0.54688131863E+03  0.54688131863E+03  0.00000000000E+00 0. -1.
         21   -1    0    0  501  502  0.00000000000E+00 -0.00000000000E+00 -0.13933859706E+03  0.13933859706E+03  0.00000000000E+00 0. -1.
         23    2    1    2    0    0 -0.79944366833E+02  0.46289653949E+02  0.42833100680E+03  0.44767882373E+03  0.91733548835E+02 0.  0.
         23    2    1    2    0    0  0.67992776548E+02 -0.13270871993E+02  0.74882243307E+02  0.13662970643E+03  0.90891103029E+02 0.  0.
        -11    1    3    3    0    0  0.19234962493E+02  0.17700138728E+02  0.67833347924E+02  0.72695541704E+02  0.00000000000E+00 0.  1.
         11    1    3    3    0    0 -0.99179329326E+02  0.28589515221E+02  0.36049765887E+03  0.37498328203E+03  0.00000000000E+00 0. -1.
        -13    1    4    4    0    0  0.77751715582E+02  0.69002364979E+01  0.81908930838E+02  0.11314599193E+03  0.00000000000E+00 0.  1.
         13    1    4    4    0    0 -0.97589390341E+01 -0.20171108491E+02 -0.70266875306E+01  0.23483714494E+02  0.00000000000E+00 0. -1.
          2    1    1    2  501    0  0.11951590285E+02 -0.33018781957E+02 -0.95670528532E+02  0.10191138554E+03  0.00000000000E+00 0. -1.
<scales pt_clust_5="13000.00000" pt_clust_6="13000.00000" pt_clust_7="13000.00000" pt_clust_8="13000.00000" pt_clust_9="35.11525"></scales>
<clustering>
<clus scale="   35.115">  2  9  1 -1</clus>
<clus scale="   90.891">  7  8 -1 -1</clus>
<clus scale="   91.734">  5  6 -1 -1</clus>
<clus scale="  125.220">  2  7  1 -1</clus>
<clus scale="   35.115">  2  5  1 -1</clus>
</clustering>
</event>
<event>
 9    1  0.1671478E-005  0.9761693E+02  0.7546771E-02  0.1288883E+00
         21   -1    0    0  501  502  0.00000000000E+00  0.00000000000E+00  0.27157650130E+03  0.27157650130E+03  0.00000000000E+00 0. -1.
          1   -1    0    0  502    0 -0.00000000000E+00 -0.00000000000E+00 -0.11273280015E+03  0.11273280015E+03  0.00000000000E+00 0. -1.
         23    2    1    2    0    0 -0.17035457423E+02 -0.10784753924E+02 -0.19302364760E+02  0.93597293209E+02  0.89338425573E+02 0.  0.
         23    2    1    2    0    0 -0.56071689590E+02  0.29546239410E+02  0.21411958171E+02  0.11675158512E+03  0.95684095010E+02 0.  0.
        -13    1    3    3    0    0 -0.50888555009E+02 -0.10236261233E+02  0.46621426301E+01  0.52116807739E+02  0.00000000000E+00 0. -1.
         13    1    3    3    0    0  0.33853097586E+02 -0.54849269173E+00 -0.23964507390E+02  0.41480485471E+02  0.00000000000E+00 0.  1.
        -13    1    4    4    0    0 -0.57900216969E+02  0.57461956411E+02  0.85187469946E-01  0.81574008217E+02  0.00000000000E+00 0. -1.
         13    1    4    4    0    0  0.18285273787E+01 -0.27915717001E+02  0.21326770701E+02  0.35177576901E+02  0.00000000000E+00 0.  1.
          1    1    1    2  501    0  0.73107147013E+02 -0.18761485485E+02  0.15673410775E+03  0.17396042312E+03  0.00000000000E+00 0. -1.
<scales pt_clust_5="13000.00000" pt_clust_6="13000.00000" pt_clust_7="13000.00000" pt_clust_8="13000.00000" pt_clust_9="75.47614"></scales>
<clustering>
<clus scale="   75.476">  1  9  2 -1</clus>
<clus scale="   89.338">  5  6 -1 -1</clus>
<clus scale="   91.406">  2  5  1 -1</clus>
<clus scale="   95.684">  7  8 -1 -1</clus>
<clus scale="   75.476">  1  5  2 -1</clus>
</clustering>
</event>
<event>
 9    1  0.1671478E-005  0.1180792E+03  0.7546771E-02  0.1255078E+00
          2   -1    0    0  502    0 -0.00000000000E+00  0.00000000000E+00  0.13193298515E+03  0.13193298515E+03  0.00000000000E+00 0. -1.
         21   -1    0    0  501  502  0.00000000000E+00 -0.00000000000E+00 -0.12926165333E+03  0.12926165333E+03  0.00000000000E+00 0.  1.
         23    2    1    2    0    0 -0.27765051370E+02 -0.45942317056E+02  0.25469991761E+02  0.12645332979E+03  0.11162495044E+03 0.  0.
         23    2    1    2    0    0  0.17483776208E+02  0.18230899784E+02  0.40165984558E+01  0.94832846562E+02  0.91318604821E+02 0.  0.
        -11    1    3    3    0    0 -0.64564516101E+02 -0.11997197643E+02 -0.81119882175E+01  0.66168828337E+02  0.00000000000E+00 0.  1.
         11    1    3    3    0    0  0.36799464731E+02 -0.33945119413E+02  0.33581979978E+02  0.60284501456E+02  0.00000000000E+00 0. -1.
        -11    1    4    4    0    0  0.64337250193E+01 -0.34983747495E+02  0.16276370796E+02  0.39117459691E+02  0.00000000000E+00 0. -1.
         11    1    4    4    0    0  0.11050051189E+02  0.53214647279E+02 -0.12259772340E+02  0.55715386871E+02  0.00000000000E+00 0.  1.
          2    1    1    2  501    0  0.10281275162E+02  0.27711417272E+02 -0.26815258392E+02  0.39908462121E+02  0.00000000000E+00 0. -1.
<scales pt_clust_5="13000.00000" pt_clust_6="13000.00000" pt_clust_7="13000.00000" pt_clust_8="13000.00000" pt_clust_9="29.55719"></scales>
<clustering>
<clus scale="   29.557">  2  9  1 -1</clus>
<clus scale="   91.319">  7  8 -1 -1</clus>
<clus scale="   99.104">  2  7  1 -1</clus>
<clus scale="  111.625">  5  6 -1 -1</clus>
<clus scale="   29.557">  2  5  1 -1</clus>
</clustering>
</event>
<event>
 9    1  0.1671478E-005  0.9271681E+02  0.7546771E-02  0.1297431E+00
         -1   -1    0    0    0  501 -0.00000000000E+00  0.00000000000E+00  0.88330531070E+02  0.88330531070E+02  0.00000000000E+00 0.  1.
         21   -1    0    0  501  502  0.00000000000E+00 -0.00000000000E+00 -0.14025169357E+03  0.14025169357E+03  0.00000000000E+00 0. -1.
         23    2    1    2    0    0  0.24261241159E+02 -0.10155748936E+02  0.77039344394E+01  0.95332382174E+02  0.91308079742E+02 0.  0.
         23    2    1    2    0    0 -0.30581298208E+01 -0.54517287831E+01 -0.32509572099E+02  0.95455438402E+02  0.89530971947E+02 0.  0.
        -11    1    3    3    0    0 -0.16018918314E+01 -0.39846628643E+02  0.30163508259E+02  0.50001570997E+02  0.00000000000E+00 0.  1.
         11    1    3    3    0    0  0.25863132990E+02  0.29690879707E+02 -0.22459573819E+02  0.45330811178E+02  0.00000000000E+00 0. -1.
        -13    1    4    4    0    0  0.48538978071E+01  0.41360166937E+02 -0.20835134944E+02  0.46565293741E+02  0.00000000000E+00 0. -1.
         13    1    4    4    0    0 -0.79120276278E+01 -0.46811895720E+02 -0.11674437154E+02  0.48890144661E+02  0.00000000000E+00 0.  1.
         -1    1    1    2    0  502 -0.21203111338E+02  0.15607477719E+02 -0.27115524839E+02  0.37794404063E+02  0.00000000000E+00 0.  1.
<scales pt_clust_5="13000.00000" pt_clust_6="13000.00000" pt_clust_7="13000.00000" pt_clust_8="13000.00000" pt_clust_9="26.32803"></scales>
<clustering>
<clus scale="   26.328">  2  9  1 -1</clus>
<clus scale="   89.531">  7  8 -1 -1</clus>
<clus scale="   90.967">  2  7  1 -1</clus>
<clus scale="   91.308">  5  6 -1 -1</clus>
<clus scale="   26.328">  2  5  1 -1</clus>
</clustering>
</event>
<event>
 9    1  0.1671478E-005  0.1238704E+03  0.7546771E-02  0.1238466E+00
         21   -1    0    0  501  502  0.00000000000E+00  0.00000000000E+00  0.19186442414E+03  0.19186442414E+03  0.00000000000E+00 0.  1.
          2   -1    0    0  502    0 -0.00000000000E+00 -0.00000000000E+00 -0.15871693445E+03  0.15871693445E+03  0.00000000000E+00 0. -1.
         23    2    1    2    0    0  0.26654035070E+02  0.78370593859E+02 -0.60494468719E+02  0.14025206237E+03  0.95700954465E+02 0.  0.
         23    2    1    2    0    0 -0.72612860204E+02 -0.40106492526E+02  0.86423770174E+02  0.15009261885E+03  0.90429906413E+02 0.  0.
        -13    1    3    3    0    0  0.52590926004E+02  0.51937038215E+02 -0.57221668849E+01  0.74135043201E+02  0.00000000000E+00 0.  1.
         13    1    3    3    0    0 -0.25936890934E+02  0.26433555643E+02 -0.54772301834E+02  0.66117019167E+02  0.00000000000E+00 0. -1.
        -13    1    4    4    0    0 -0.61865334809E+02  0.24369096632E+01  0.86300842390E+02  0.10621249257E+03  0.00000000000E+00 0. -1.
         13    1    4    4    0    0 -0.10747525396E+02 -0.42543402189E+02  0.12292778352E+00  0.43880126289E+02  0.00000000000E+00 0.  1.
          2    1    1    2  501    0  0.45958825135E+02 -0.38264101333E+02  0.72181882399E+01  0.60236677365E+02  0.00000000000E+00 0. -1.
<scales pt_clust_5="13000.00000" pt_clust_6="13000.00000" pt_clust_7="13000.00000" pt_clust_8="13000.00000" pt_clust_9="59.80263"></scales>
<clustering>
<clus scale="   59.803">  1  9  2 -1</clus>
<clus scale="   90.430">  7  8 -1 -1</clus>
<clus scale="   95.701">  5  6 -1 -1</clus>
<clus scale="  119.845">  1  7  2 -1</clus>
<clus scale="   59.803">  1  5  2 -1</clus>
</clustering>
</event>
<event>
 9    1  0.1671478E-005  0.1308696E+03  0.7546771E-02  0.1227469E+00
         21   -1    0    0  501  502  0.00000000000E+00  0.00000000000E+00  0.17930262659E+03  0.17930262659E+03  0.00000000000E+00 0. -1.
          4   -1    0    0  502    0 -0.00000000000E+00 -0.00000000000E+00 -0.16079763387E+03  0.16079763387E+03  0.00000000000E+00 0. -1.
         23    2    1    2    0    0  0.44767050731E+02 -0.10495122267E+03 -0.44936851775E+02  0.15297929013E+03  0.91457610895E+02 0.  0.
         23    2    1    2    0    0 -0.67378184434E+01  0.50510435425E+02  0.47596176748E+02  0.11884866987E+03  0.96244002439E+02 0.  0.
        -11    1    4    4    0    0 -0.40897959241E+02  0.14840577437E+02  0.53668130522E+02  0.69088016634E+02  0.00000000000E+00 0.  1.
         11    1    4    4    0    0  0.34160140797E+02  0.35669857988E+02 -0.60719537741E+01  0.49760653239E+02  0.00000000000E+00 0. -1.
        -13    1    3    3    0    0  0.14686432358E+02 -0.21562631466E+02 -0.57788242351E+02  0.63404410928E+02  0.00000000000E+00 0.  1.
         13    1    3    3    0    0  0.30080618373E+02 -0.83388591201E+02  0.12851390576E+02  0.89574879201E+02  0.00000000000E+00 0. -1.
          4    1    1    2  501    0 -0.38029232288E+02  0.54440787242E+02  0.15845667744E+02  0.68272300460E+02  0.00000000000E+00 0. -1.
<scales pt_clust_5="13000.00000" pt_clust_6="13000.00000" pt_clust_7="13000.00000" pt_clust_8="13000.00000" pt_clust_9="66.40800"></scales>
<clustering>
<clus scale="   66.408">  1  9  2 -1</clus>
<clus scale="   91.458">  7  8 -1 -1</clus>
<clus scale="   96.244">  5  6 -1 -1</clus>
<clus scale="  127.391">  2  7  1 -1</clus>
<clus scale="   66.408">  1  5  2 -1</clus>
</clustering>
</event>
<event>
 9    1  0.1671478E-005  0.1291494E+03  0.7546771E-02  0.1229904E+00
         21   -1    0    0  501  502  0.00000000000E+00  0.00000000000E+00  0.20262020013E+03  0.20262020013E+03  0.00000000000E+00 0. -1.
          4   -1    0    0  502    0 -0.00000000000E+00 -0.00000000000E+00 -0.19037797511E+03  0.19037797511E+03  0.00000000000E+00 0.  1.
         23    2    1    2    0    0 -0.37458047965E+02  0.57941994921E+02 -0.43533853603E+02  0.12169770902E+03  0.90303686735E+02 0.  0.
         23    2    1    2    0    0  0.66568708196E+02 -0.13443503353E+03  0.65108064210E+02  0.18892509703E+03  0.94601591486E+02 0.  0.
        -11    1    4    4    0    0  0.76819697028E+02 -0.87607600538E+02  0.76840735172E+02  0.13957383747E+03  0.00000000000E+00 0. -1.
         11    1    4    4    0    0 -0.10250988832E+02 -0.46827432989E+02 -0.11732670962E+02  0.49351259562E+02  0.00000000000E+00 0.  1.
        -13    1    3    3    0    0 -0.93950219778E+01  0.29768743403E+02  0.26641308281E+02  0.41039052483E+02  0.00000000000E+00 0. -1.
         13    1    3    3    0    0 -0.28063025987E+02  0.28173251518E+02 -0.70175161884E+02  0.80658656535E+02  0.00000000000E+00 0.  1.
          4    1    1    2  501    0 -0.29110660232E+02  0.76493038606E+02 -0.93319855859E+01  0.82375369191E+02  0.00000000000E+00 0.  1.
<scales pt_clust_5="13000.00000" pt_clust_6="13000.00000" pt_clust_7="13000.00000" pt_clust_8="13000.00000" pt_clust_9="81.84511"></scales>
<clustering>
<clus scale="   81.845">  1  9  2 -1</clus>
<clus scale="   90.304">  7  8 -1 -1</clus>
<clus scale="   94.602">  5  6 -1 -1</clus>
<clus scale="  126.035">  2  7  1 -1</clus>
<clus scale="   81.845">  1  5  2 -1</clus>
</clustering>
</event>
<event>
 9    1  0.1671478E-005  0.1410031E+03  0.7546771E-02  0.1232098E+00
         -3   -1    0    0    0  501 -0.00000000000E+00  0.00000000000E+00  0.14784766538E+03  0.14784766538E+03  0.00000000000E+00 0.  1.
         21   -1    0    0  501  502  0.00000000000E+00 -0.00000000000E+00 -0.24874207700E+03  0.24874207700E+03  0.00000000000E+00 0.  1.
         23    2    1    2    0    0  0.60701298888E+01 -0.66728930534E+01 -0.54444823741E+02  0.10738901377E+03  0.92123761690E+02 0.  0.
         23    2    1    2    0    0  0.85415484837E+02 -0.45800739644E+02  0.51357584332E+02  0.14536282413E+03  0.95389917545E+02 0.  0.
        -13    1    4    4    0    0 -0.15969882030E+02 -0.16565466870E+02  0.29829167003E+02  0.37672682793E+02  0.00000000000E+00 0. -1.
         13    1    4    4    0    0  0.10138536687E+03 -0.29235272774E+02  0.21528417329E+02  0.10769014134E+03  0.00000000000E+00 0.  1.
        -13    1    3    3    0    0  0.25676235037E+02 -0.16184215337E+02  0.15534188527E+02  0.34095584538E+02  0.00000000000E+00 0.  1.
         13    1    3    3    0    0 -0.19606105149E+02  0.95113222837E+01 -0.69979012268E+02  0.73293429233E+02  0.00000000000E+00 0. -1.
         -3    1    1    2    0  502 -0.91485614726E+02  0.52473632697E+02 -0.97807172207E+02  0.14383790448E+03  0.00000000000E+00 0.  1.
<scales pt_clust_5="13000.00000" pt_clust_6="13000.00000" pt_clust_7="13000.00000" pt_clust_8="13000.00000" pt_clust_9="103.83944"></scales>
<clustering>
<clus scale="   92.124">  7  8 -1 -1</clus>
<clus scale="   92.564">  1  7  2 -1</clus>
<clus scale="   95.390">  5  6 -1 -1</clus>
<clus scale="  103.839">  2  9  1 -1</clus>
<clus scale="  103.839">  2  5  1 -1</clus>
</clustering>
</event>
<event>
 9    1  0.1671478E-005  0.1244242E+03  0.7546771E-02  0.1246060E+00
         21   -1    0    0  501  502  0.00000000000E+00  0.00000000000E+00  0.14586814341E+03  0.14586814341E+03  0.00000000000E+00 0.  1.
          1   -1    0    0  502    0 -0.00000000000E+00 -0.00000000000E+00 -0.54035330307E+03  0.54035330307E+03  0.00000000000E+00 0. -1.
         23    2    1    2    0    0 -0.35660996384E+02  0.29879860202E+02 -0.33039812507E+03  0.34561026191E+03  0.90105601267E+02 0.  0.
         23    2    1    2    0    0 -0.80733981738E+02 -0.32934709051E+02  0.87115550189E+02  0.14977265420E+03  0.85088530324E+02 0.  0.
        -11    1    4    4    0    0  0.17271604319E+02 -0.12365638482E+02  0.20342274891E+02  0.29411315485E+02  0.00000000000E+00 0.  1.
         11    1    4    4    0    0 -0.98005586057E+02 -0.20569070569E+02  0.66773275298E+02  0.12036133871E+03  0.00000000000E+00 0. -1.
        -11    1    3    3    0    0  0.15587745958E+02 -0.22962050698E+02 -0.95003714558E+02  0.98974437993E+02  0.00000000000E+00 0.  1.
         11    1    3    3    0    0 -0.51248742341E+02  0.52841910900E+02 -0.23539441051E+03  0.24663582392E+03  0.00000000000E+00 0. -1.
          1    1    1    2  501    0  0.11639497812E+03  0.30548488497E+01 -0.15120258477E+03  0.19083853037E+03  0.00000000000E+00 0. -1.
<scales pt_clust_5="13000.00000" pt_clust_6="13000.00000" pt_clust_7="13000.00000" pt_clust_8="13000.00000" pt_clust_9="90.78182"></scales>
<clustering>
<clus scale="   85.089">  5  6 -1 -1</clus>
<clus scale="   90.106">  7  8 -1 -1</clus>
<clus scale="  101.408">  2  7  1 -1</clus>
<clus scale="   90.782">  1  9  2 -1</clus>
<clus scale="   90.782">  1  5  2 -1</clus>
</clustering>
</event>
<event>
 9    1  0.1671478E-005  0.1068432E+03  0.7546771E-02  0.1266694E+00
         21   -1    0    0  501  502  0.00000000000E+00  0.00000000000E+00  0.71512615380E+02  0.71512615380E+02  0.00000000000E+00 0. -1.
         -1   -1    0    0    0  501 -0.00000000000E+00 -0.00000000000E+00 -0.26781668839E+03  0.26781668839E+03  0.00000000000E+00 0.  1.
         23    2    1    2    0    0  0.41133351432E+02  0.33617822720E+02 -0.16911977899E+03  0.19946503944E+03  0.91447753994E+02 0.  0.
         23    2    1    2    0    0 -0.29747495359E+02 -0.54072258455E+02 -0.33510304517E+02  0.11561472683E+03  0.91842811026E+02 0.  0.
        -11    1    3    3    0    0  0.37528564764E+02  0.75390653985E+01 -0.16885253346E+03  0.17313696525E+03  0.00000000000E+00 0.  1.
         11    1    3    3    0    0  0.36047866684E+01  0.26078757321E+02 -0.26724552518E+00  0.26328074189E+02  0.00000000000E+00 0. -1.
        -11    1    4    4    0    0 -0.77829547202E+01 -0.59472331410E+02 -0.57185402031E+02  0.82871604262E+02  0.00000000000E+00 0.  1.
         11    1    4    4    0    0 -0.21964540639E+02  0.54000729550E+01  0.23675097514E+02  0.32743122571E+02  0.00000000000E+00 0. -1.
         -1    1    1    2    0  502 -0.11385856073E+02  0.20454435735E+02  0.63260104976E+01  0.24249537492E+02  0.00000000000E+00 0.  1.
<scales pt_clust_5="13000.00000" pt_clust_6="13000.00000" pt_clust_7="13000.00000" pt_clust_8="13000.00000" pt_clust_9="23.40986"></scales>
<clustering>
<clus scale="   23.410">  1  9  2 -1</clus>
<clus scale="   91.448">  5  6 -1 -1</clus>
<clus scale="   91.843">  7  8 -1 -1</clus>
<clus scale="  106.504">  2  5  1 -1</clus>
<clus scale="   23.410">  1  5  2 -1</clus>
</clustering>
</event>
<event>
 9    1  0.1671478E-005  0.1726413E+03  0.7546771E-02  0.1175222E+00
          1   -1    0    0  502    0 -0.00000000000E+00  0.00000000000E+00  0.15341119425E+03  0.15341119425E+03  0.00000000000E+00 0. -1.
         21   -1    0    0  501  502  0.00000000000E+00 -0.00000000000E+00 -0.31784191332E+03  0.31784191332E+03  0.00000000000E+00 0.  1.
         23    2    1    2    0    0  0.14001627738E+03  0.76770544995E+01  0.13911021502E+02  0.16821148906E+03  0.91859095553E+02 0.  0.
         23    2    1    2    0    0 -0.15615289972E+03  0.28147051021E+02 -0.86316768360E+02  0.20297987443E+03  0.92597302084E+02 0.  0.
        -11    1    3    3    0    0  0.12916411272E+03  0.30489061857E+02 -0.10440312599E+02  0.13312381844E+03  0.00000000000E+00 0. -1.
         11    1    3    3    0    0  0.10852164662E+02 -0.22812007358E+02  0.24351334101E+02  0.35087670627E+02  0.00000000000E+00 0.  1.
        -13    1    4    4    0    0 -0.55248081126E+02  0.21392240436E+02 -0.82768424817E+02  0.10178698623E+03  0.00000000000E+00 0.  1.
         13    1    4    4    0    0 -0.10090481859E+03  0.67548105843E+01 -0.35483435431E+01  0.10119288820E+03  0.00000000000E+00 0. -1.
          1    1    1    2  501    0  0.16136622334E+02 -0.35824105520E+02 -0.92024972215E+02  0.10006174408E+03  0.00000000000E+00 0. -1.
<scales pt_clust_5="13000.00000" pt_clust_6="13000.00000" pt_clust_7="13000.00000" pt_clust_8="13000.00000" pt_clust_9="39.29067"></scales>
<clustering>
<clus scale="   39.291">  2  9  1 -1</clus>
<clus scale="   91.859">  5  6 -1 -1</clus>
<clus scale="   92.597">  7  8 -1 -1</clus>
<clus scale="  172.246">  1  5  2 -1</clus>
<clus scale="   39.291">  2  5  1 -1</clus>
</clustering>
</event>
<event>
 9    1  0.1671478E-005  0.1786119E+03  0.7546771E-02  0.1169802E+00
         21   -1    0    0  501  502  0.00000000000E+00  0.00000000000E+00  0.56663045956E+03  0.56663045956E+03  0.00000000000E+00 0.  1.
         -1   -1    0    0    0  501 -0.00000000000E+00 -0.00000000000E+00 -0.68528037394E+02  0.68528037394E+02  0.00000000000E+00 0.  1.
         23    2    1    2    0    0 -0.16112535043E+03  0.42963323470E+02  0.19939284686E+03  0.27510524472E+03  0.90100846720E+02 0.  0.
         23    2    1    2    0    0  0.12476517715E+03 -0.48516940337E+02  0.24558852390E+03  0.29544093945E+03  0.95138754977E+02 0.  0.
        -11    1    4    4    0    0  0.38930923740E+02 -0.19414977554E+02  0.12366435673E+02  0.45227059466E+02  0.00000000000E+00 0.  1.
         11    1    4    4    0    0  0.85834253415E+02 -0.29101962783E+02  0.23322208823E+03  0.25021387998E+03  0.00000000000E+00 0. -1.
        -11    1    3    3    0    0 -0.21859836595E+02 -0.19292047774E+02  0.77626646167E+01  0.30171087571E+02  0.00000000000E+00 0. -1.
         11    1    3    3    0    0 -0.13926551384E+03  0.62255371244E+02  0.19163018224E+03  0.24493415715E+03  0.00000000000E+00 0.  1.
         -1    1    1    2    0  502  0.36360173278E+02  0.55536168667E+01  0.53121051411E+02  0.64612312790E+02  0.00000000000E+00 0.  1.
<scales pt_clust_5="13000.00000" pt_clust_6="13000.00000" pt_clust_7="13000.00000" pt_clust_8="13000.00000" pt_clust_9="36.78186"></scales>
<clustering>
<clus scale="   36.782">  1  9  2 -1</clus>
<clus scale="   90.101">  7  8 -1 -1</clus>
<clus scale="   95.139">  5  6 -1 -1</clus>
<clus scale="  175.980">  2  7  1 -1</clus>
<clus scale="   36.782">  1  5  2 -1</clus>
</clustering>
</event>
<event>
 9    1  0.1671478E-005  0.9755756E+02  0.7546771E-02  0.1286223E+00
         21   -1    0    0  501  502  0.00000000000E+00  0.00000000000E+00  0.33271716460E+03  0.33271716460E+03  0.00000000000E+00 0.  1.
          1   -1    0    0  502    0 -0.00000000000E+00 -0.00000000000E+00 -0.39839011496E+02  0.39839011496E+02  0.00000000000E+00 0. -1.
         23    2    1    2    0    0  0.19244306850E+02 -0.22497521760E+02  0.91936482278E+02  0.13237934777E+03  0.90528962825E+02 0.  0.
         23    2    1    2    0    0  0.65516318704E+00  0.42414521345E+02  0.13720435054E+03  0.17049812443E+03  0.91897528622E+02 0.  0.
        -11    1    3    3    0    0  0.55352625616E+02 -0.73260818135E+01  0.49316656952E+02  0.74496424681E+02  0.00000000000E+00 0.  1.
         11    1    3    3    0    0 -0.36108318766E+02 -0.15171439946E+02  0.42619825325E+02  0.57882923086E+02  0.00000000000E+00 0. -1.
        -13    1    4    4    0    0  0.10789785237E+02 -0.21346151552E+02  0.82436294327E+02  0.85836008026E+02  0.00000000000E+00 0.  1.
         13    1    4    4    0    0 -0.10134622050E+02  0.63760672897E+02  0.54768056216E+02  0.84662116405E+02  0.00000000000E+00 0. -1.
          1    1    1    2  501    0 -0.19899470037E+02 -0.19916999585E+02  0.63737320288E+02  0.69678703904E+02  0.00000000000E+00 0. -1.
<scales pt_clust_5="13000.00000" pt_clust_6="13000.00000" pt_clust_7="13000.00000" pt_clust_8="13000.00000" pt_clust_9="28.15450"></scales>
<clustering>
<clus scale="   28.154">  1  9  2 -1</clus>
<clus scale="   90.529">  5  6 -1 -1</clus>
<clus scale="   91.898">  7  8 -1 -1</clus>
<clus scale="   96.269">  2  5  1 -1</clus>
<clus scale="   28.154">  1  5  2 -1</clus>
</clustering>
</event>
<event>
 9    1  0.1671478E-005  0.1362435E+03  0.7546771E-02  0.1221449E+00
         21   -1    0    0  501  502  0.00000000000E+00  0.00000000000E+00  0.44432546602E+02  0.44432546602E+02  0.00000000000E+00 0. -1.
          4   -1    0    0  502    0 -0.00000000000E+00 -0.00000000000E+00 -0.55770546724E+03  0.55770546724E+03  0.00000000000E+00 0. -1.
         23    2    1    2    0    0  0.26444252381E+02  0.93879235812E+02 -0.26645182458E+03  0.29444802075E+03  0.78679430000E+02 0.  0.
         23    2    1    2    0    0 -0.61155605240E+02 -0.90419984571E+02 -0.22578526568E+03  0.26695486578E+03  0.91488428263E+02 0.  0.
        -11    1    3    3    0    0 -0.90077977374E+01  0.88245058996E+02 -0.17484362337E+03  0.19605770449E+03  0.00000000000E+00 0. -1.
         11    1    3    3    0    0  0.35452050118E+02  0.56341768160E+01 -0.91608201206E+02  0.98390316262E+02  0.00000000000E+00 0.  1.
        -11    1    4    4    0    0  0.10409447303E+02 -0.25472440053E+02 -0.79475450446E+01  0.28642019266E+02  0.00000000000E+00 0.  1.
         11    1    4    4    0    0 -0.71565052543E+02 -0.64947544517E+02 -0.21783772063E+03  0.23831284652E+03  0.00000000000E+00 0. -1.
          4    1    1    2  501    0  0.34711352860E+02 -0.34592512416E+01 -0.21035830380E+02  0.40735127302E+02  0.00000000000E+00 0. -1.
<scales pt_clust_5="13000.00000" pt_clust_6="13000.00000" pt_clust_7="13000.00000" pt_clust_8="13000.00000" pt_clust_9="34.88330"></scales>
<clustering>
<clus scale="   34.883">  1  9  2 -1</clus>
<clus scale="   78.679">  5  6 -1 -1</clus>
<clus scale="   91.488">  7  8 -1 -1</clus>
<clus scale="  127.995">  2  5  1 -1</clus>
<clus scale="   34.883">  1  5  2 -1</clus>
</clustering>
</event>
<event>
 9    1  0.1671478E-005  0.1399577E+03  0.7546771E-02  0.1213932E+00
         -2   -1    0    0    0  501 -0.00000000000E+00  0.00000000000E+00  0.21677915942E+03  0.21677915942E+03  0.00000000000E+00 0.  1.
         21   -1    0    0  501  502  0.00000000000E+00 -0.00000000000E+00 -0.17592831552E+03  0.17592831552E+03  0.00000000000E+00 0.  1.
         23    2    1    2    0    0 -0.85040800515E+02 -0.80102351599E+01  0.63718287539E+02  0.13893208625E+03  0.89140354520E+02 0.  0.
         23    2    1    2    0    0  0.15328368725E+03 -0.46278961148E+01  0.56803321571E+01  0.17873013930E+03  0.91623634065E+02 0.  0.
        -13    1    3    3    0    0 -0.31749622102E+02 -0.41547331473E+02  0.44812285321E+01  0.52481431625E+02  0.00000000000E+00 0. -1.
         13    1    3    3    0    0 -0.53291178412E+02  0.33537096313E+02  0.59237059007E+02  0.86450654628E+02  0.00000000000E+00 0.  1.
        -13    1    4    4    0    0  0.12279369607E+03  0.19048899597E+01  0.42981085887E+02  0.13011262100E+03  0.00000000000E+00 0.  1.
         13    1    4    4    0    0  0.30489991184E+02 -0.65327860745E+01 -0.37300753730E+02  0.48617518294E+02  0.00000000000E+00 0. -1.
         -2    1    1    2    0  502 -0.68242886738E+02  0.12638131275E+02 -0.28547775802E+02  0.75045249388E+02  0.00000000000E+00 0.  1.
<scales pt_clust_5="13000.00000" pt_clust_6="13000.00000" pt_clust_7="13000.00000" pt_clust_8="13000.00000" pt_clust_9="69.40327"></scales>
<clustering>
<clus scale="   69.403">  2  9  1 -1</clus>
<clus scale="   89.140">  5  6 -1 -1</clus>
<clus scale="   91.624">  7  8 -1 -1</clus>
<clus scale="  138.345">  1  5  2 -1</clus>
<clus scale="   69.403">  2  5  1 -1</clus>
</clustering>
</event>
<event>
 9    1  0.1671478E-005  0.1053979E+03  0.7546771E-02  0.1273262E+00
         21   -1    0    0  501  502  0.00000000000E+00  0.00000000000E+00  0.22497072005E+03  0.22497072005E+03  0.00000000000E+00 0.  1.
         -1   -1    0    0    0  501 -0.00000000000E+00 -0.00000000000E+00 -0.11357176784E+03  0.11357176784E+03  0.00000000000E+00 0.  1.
         23    2    1    2    0    0  0.15179238029E+02 -0.34848490622E+02 -0.57466280721E+01  0.93658395694E+02  0.85405180077E+02 0.  0.
         23    2    1    2    0    0  0.42307554798E+01  0.61251898964E+02 -0.10733268413E+02  0.11287315414E+03  0.94103408317E+02 0.  0.
        -11    1    3    3    0    0  0.48136084562E+02 -0.24623322487E+02 -0.18084111591E+02  0.57012505114E+02  0.00000000000E+00 0. -1.
         11    1    3    3    0    0 -0.32956846534E+02 -0.10225168135E+02  0.12337483519E+02  0.36645890580E+02  0.00000000000E+00 0.  1.
        -11    1    4    4    0    0  0.21600950315E+02  0.77113781871E+02  0.11016263698E+02  0.80836220067E+02  0.00000000000E+00 0. -1.
         11    1    4    4    0    0 -0.17370194835E+02 -0.15861882907E+02 -0.21749532110E+02  0.32036934076E+02  0.00000000000E+00 0.  1.
         -1    1    1    2    0  502 -0.19409993509E+02 -0.26403408341E+02  0.12787884869E+03  0.13201093804E+03  0.00000000000E+00 0.  1.
<scales pt_clust_5="13000.00000" pt_clust_6="13000.00000" pt_clust_7="13000.00000" pt_clust_8="13000.00000" pt_clust_9="32.77023"></scales>
<clustering>
<clus scale="   32.770">  1  9  2 -1</clus>
<clus scale="   85.405">  5  6 -1 -1</clus>
<clus scale="   94.103">  7  8 -1 -1</clus>
<clus scale="   97.710">  2  5  1 -1</clus>
<clus scale="   32.770">  1  5  2 -1</clus>
</clustering>
</event>
<event>
 9    1  0.1671478E-005  0.9255085E+02  0.7546771E-02  0.1298743E+00
         -1   -1    0    0    0  501 -0.00000000000E+00  0.00000000000E+00  0.18930618143E+03  0.18930618143E+03  0.00000000000E+00 0.  1.
         21   -1    0    0  501  502  0.00000000000E+00 -0.00000000000E+00 -0.68101461742E+02  0.68101461742E+02  0.00000000000E+00 0. -1.
         23    2    1    2    0    0 -0.99825592787E+01 -0.13654603345E+02  0.94621802739E+02  0.13310660397E+03  0.92075962034E+02 0.  0.
         23    2    1    2    0    0 -0.16336757484E+02  0.21342433039E+01  0.30506442071E+02  0.95304156966E+02  0.88773840109E+02 0.  0.
        -13    1    4    4    0    0  0.14336541041E+02  0.21759353997E+02  0.48219832980E+02  0.54810201496E+02  0.00000000000E+00 0.  1.
         13    1    4    4    0    0 -0.30673298525E+02 -0.19625110693E+02 -0.17713390909E+02  0.40493955470E+02  0.00000000000E+00 0. -1.
        -13    1    3    3    0    0  0.18429609553E+02 -0.33218379708E+02  0.90766618688E+02  0.98395580830E+02  0.00000000000E+00 0.  1.
         13    1    3    3    0    0 -0.28412168832E+02  0.19563776364E+02  0.38551840506E+01  0.34711023140E+02  0.00000000000E+00 0. -1.
         -1    1    1    2    0  502  0.26319316763E+02  0.11520360041E+02 -0.39235251181E+01  0.28996882240E+02  0.00000000000E+00 0.  1.
<scales pt_clust_5="13000.00000" pt_clust_6="13000.00000" pt_clust_7="13000.00000" pt_clust_8="13000.00000" pt_clust_9="28.73021"></scales>
<clustering>
<clus scale="   28.730">  2  9  1 -1</clus>
<clus scale="   88.774">  5  6 -1 -1</clus>
<clus scale="   89.266">  2  5  1 -1</clus>
<clus scale="   92.076">  7  8 -1 -1</clus>
<clus scale="   28.730">  2  5  1 -1</clus>
</clustering>
</event>
<event>
 9    1  0.1671478E-005  0.9909561E+02  0.7546771E-02  0.1282367E+00
          1   -1    0    0  502    0 -0.00000000000E+00  0.00000000000E+00  0.40070533103E+03  0.40070533103E+03  0.00000000000E+00 0. -1.
         21   -1    0    0  501  502  0.00000000000E+00 -0.00000000000E+00 -0.88715953051E+02  0.88715953051E+02  0.00000000000E+00 0. -1.
         23    2    1    2    0    0 -0.34267380795E+02  0.70631276497E+01  0.22724449878E+03  0.24725660182E+03  0.90948467605E+02 0.  0.
         23    2    1    2    0    0  0.31201619558E+02 -0.46655463232E+02  0.13884991613E+03  0.17505054850E+03  0.90626276586E+02 0.  0.
        -13    1    3    3    0    0 -0.51649888480E+02 -0.21773293447E+02  0.18459952205E+03  0.19292167019E+03  0.00000000000E+00 0. -1.
         13    1    3    3    0    0  0.17382507685E+02  0.28836421097E+02  0.42644976724E+02  0.54334931627E+02  0.00000000000E+00 0.  1.
        -13    1    4    4    0    0  0.24882606244E+02  0.22486950928E+02  0.25519980889E+02  0.42143522398E+02  0.00000000000E+00 0.  1.
         13    1    4    4    0    0  0.63190133139E+01 -0.69142414160E+02  0.11332993524E+03  0.13290702610E+03  0.00000000000E+00 0. -1.
          1    1    1    2  501    0  0.30657612364E+01  0.39592335582E+02 -0.54105036933E+02  0.67114133760E+02  0.00000000000E+00 0. -1.
<scales pt_clust_5="13000.00000" pt_clust_6="13000.00000" pt_clust_7="13000.00000" pt_clust_8="13000.00000" pt_clust_9="39.71085"></scales>
<clustering>
<clus scale="   39.711">  2  9  1 -1</clus>
<clus scale="   90.626">  7  8 -1 -1</clus>
<clus scale="   90.948">  5  6 -1 -1</clus>
<clus scale="   98.800">  2  7  1 -1</clus>
<clus scale="   39.711">  2  5  1 -1</clus>
</clustering>
</event>
<event>
 9    1  0.1671478E-005  0.1228089E+03  0.7546771E-02  0.1244096E+00
         21   -1    0    0  501  502  0.00000000000E+00  0.00000000000E+00  0.64316935482E+02  0.64316935482E+02  0.00000000000E+00 0.  1.
         -1   -1    0    0    0  501 -0.00000000000E+00 -0.00000000000E+00 -0.61050621323E+03  0.61050621323E+03  0.00000000000E+00 0.  1.
         23    2    1    2    0    0  0.41483695834E+02 -0.33882381480E+02 -0.23722970652E+03  0.26544363175E+03  0.10636482117E+03 0.  0.
         23    2    1    2    0    0  0.10625878801E+02  0.11381488014E+03 -0.92690527587E+02  0.17299654096E+03  0.90936972878E+02 0.  0.
        -13    1    4    4    0    0  0.38208157899E+02  0.10931207754E+03 -0.86055113544E+02  0.14427222946E+03  0.00000000000E+00 0.  1.
         13    1    4    4    0    0 -0.27582279098E+02  0.45028026064E+01 -0.66354140431E+01  0.28724311499E+02  0.00000000000E+00 0. -1.
        -13    1    3    3    0    0 -0.16356998361E+02  0.29184764661E+02 -0.62965364877E+02  0.71301746527E+02  0.00000000000E+00 0. -1.
         13    1    3    3    0    0  0.57840694195E+02 -0.63067146141E+02 -0.17426434165E+03  0.19414188522E+03  0.00000000000E+00 0.  1.
         -1    1    1    2    0  502 -0.52109574635E+02 -0.79932498662E+02 -0.21626904364E+03  0.23638297601E+03  0.00000000000E+00 0.  1.
<scales pt_clust_5="13000.00000" pt_clust_6="13000.00000" pt_clust_7="13000.00000" pt_clust_8="13000.00000" pt_clust_9="95.41814"></scales>
<clustering>
<clus scale="   90.937">  5  6 -1 -1</clus>
<clus scale="   95.418">  1  9  2 -1</clus>
<clus scale="  106.365">  7  8 -1 -1</clus>
<clus scale="  109.718">  1  5  2 -1</clus>
<clus scale="   95.418">  1  5  2 -1</clus>
</clustering>
</event>
<event>
 9    1  0.1671478E-005  0.1183061E+03  0.7546771E-02  0.1247103E+00
          1   -1    0    0  502    0 -0.00000000000E+00  0.00000000000E+00  0.32192945585E+03  0.32192945585E+03  0.00000000000E+00 0. -1.
         21   -1    0    0  501  502  0.00000000000E+00 -0.00000000000E+00 -0.15535699047E+03  0.15535699047E+03  0.00000000000E+00 0. -1.
         23    2    1    2    0    0 -0.22540044675E+02 -0.80720122878E+02  0.23222141941E+03  0.26312861553E+03  0.91027956292E+02 0.  0.
         23    2    1    2    0    0 -0.43362297414E+02  0.35414874487E+02  0.12726987534E+01  0.10987843765E+03  0.94536496261E+02 0.  0.
        -11    1    4    4    0    0  0.30542326172E+01  0.42805399354E+02 -0.30934104113E+02  0.52901317073E+02  0.00000000000E+00 0.  1.
         11    1    4    4    0    0 -0.46416530031E+02 -0.73905248665E+01  0.32206802866E+02  0.56977120573E+02  0.00000000000E+00 0. -1.
        -13    1    3    3    0    0  0.27183744358E+02 -0.65841788074E+02  0.14692744987E+03  0.16328433035E+03  0.00000000000E+00 0.  1.
         13    1    3    3    0    0 -0.49723789033E+02 -0.14878334804E+02  0.85293969538E+02  0.99844285173E+02  0.00000000000E+00 0. -1.
          1    1    1    2  501    0  0.65902342088E+02  0.45305248391E+02 -0.66921652777E+02  0.10427939315E+03  0.00000000000E+00 0. -1.
<scales pt_clust_5="13000.00000" pt_clust_6="13000.00000" pt_clust_7="13000.00000" pt_clust_8="13000.00000" pt_clust_9="79.97302"></scales>
<clustering>
<clus scale="   79.973">  2  9  1 -1</clus>
<clus scale="   91.028">  7  8 -1 -1</clus>
<clus scale="   94.536">  5  6 -1 -1</clus>
<clus scale="  115.522">  1  7  2 -1</clus>
<clus scale="   79.973">  2  5  1 -1</clus>
</clustering>
</event>
<event>
 9    1  0.1671478E-005  0.1209693E+03  0.7546771E-02  0.1253218E+00
         21   -1    0    0  501  502  0.00000000000E+00  0.00000000000E+00  0.17557345927E+03  0.17557345927E+03  0.00000000000E+00 0.  1.
         -4   -1    0    0    0  501 -0.00000000000E+00 -0.00000000000E+00 -0.13402103833E+03  0.13402103833E+03  0.00000000000E+00 0.  1.
         23    2    1    2    0    0 -0.65045742694E+02  0.78569553004E+01 -0.95031941662E+01  0.11399611673E+03  0.92801527686E+02 0.  0.
         23    2    1    2    0    0  0.91141337125E+02  0.55344182916E+02  0.30447881230E+02  0.12418379821E+03  0.55900092586E+02 0.  0.
        -13    1    3    3    0    0 -0.27237030647E+02 -0.41763480993E+02  0.44918964912E+01  0.50062174516E+02  0.00000000000E+00 0.  1.
         13    1    3    3    0    0 -0.37808712046E+02  0.49620436293E+02 -0.13995090657E+02  0.63933942214E+02  0.00000000000E+00 0. -1.
        -13    1    4    4    0    0  0.54960322733E+02  0.59385513270E+01 -0.11143192016E+01  0.55291456610E+02  0.00000000000E+00 0. -1.
         13    1    4    4    0    0  0.36181014392E+02  0.49405631589E+02  0.31562200432E+02  0.68892341601E+02  0.00000000000E+00 0.  1.
         -4    1    1    2    0  502 -0.26095594432E+02 -0.63201138216E+02  0.20607733885E+02  0.71414582660E+02  0.00000000000E+00 0.  1.
<scales pt_clust_5="13000.00000" pt_clust_6="13000.00000" pt_clust_7="13000.00000" pt_clust_8="13000.00000" pt_clust_9="68.37663"></scales>
<clustering>
<clus scale="   55.900">  7  8 -1 -1</clus>
<clus scale="   68.377">  1  9  2 -1</clus>
<clus scale="   92.802">  5  6 -1 -1</clus>
<clus scale="   95.636">  1  7  2 -1</clus>
<clus scale="   68.377">  1  5  2 -1</clus>
</clustering>
</event>
<event>
 9    1  0.1671478E-005  0.9508461E+02  0.7546771E-02  0.1291116E+00
          1   -1    0    0  502    0 -0.00000000000E+00  0.00000000000E+00  0.42132721499E+03  0.42132721499E+03  0.00000000000E+00 0. -1.
         21   -1    0    0  501  502  0.00000000000E+00 -0.00000000000E+00 -0.41956349370E+02  0.41956349370E+02  0.00000000000E+00 0.  1.
         23    2    1    2    0    0  0.47130775475E+01  0.21016742827E+02  0.20623589123E+03  0.22692997072E+03  0.92195727673E+02 0.  0.
         23    2    1    2    0    0 -0.44216690384E+02 -0.76283754060E+01  0.66969486127E+02  0.12228828468E+03  0.91957624363E+02 0.  0.
        -13    1    4    4    0    0 -0.10328630789E+02  0.39299811633E+02  0.11774049471E+02  0.42305839423E+02  0.00000000000E+00 0.  1.
         13    1    4    4    0    0 -0.33888059595E+02 -0.46928187039E+02  0.55195436656E+02  0.79982445259E+02  0.00000000000E+00 0. -1.
        -13    1    3    3    0    0 -0.17447787805E+01 -0.31047597442E+02  0.13455277744E+03  0.13809941157E+03  0.00000000000E+00 0. -1.
         13    1    3    3    0    0  0.64578563280E+01  0.52064340269E+02  0.71683113788E+02  0.88830559147E+02  0.00000000000E+00 0.  1.
          1    1    1    2  501    0  0.39503612837E+02 -0.13388367421E+02  0.10616548827E+03  0.11406530896E+03  0.00000000000E+00 0. -1.
<scales pt_clust_5="13000.00000" pt_clust_6="13000.00000" pt_clust_7="13000.00000" pt_clust_8="13000.00000" pt_clust_9="41.71074"></scales>
<clustering>
<clus scale="   41.711">  2  9  1 -1</clus>
<clus scale="   91.958">  5  6 -1 -1</clus>
<clus scale="   92.196">  7  8 -1 -1</clus>
<clus scale="   94.854">  2  5  1 -1</clus>
<clus scale="   41.711">  2  5  1 -1</clus>
</clustering>
</event>
<event>
 9    1  0.1671478E-005  0.1138373E+03  0.7546771E-02  0.1254811E+00
         21   -1    0    0  501  502  0.00000000000E+00  0.00000000000E+00  0.14815046164E+03  0.14815046164E+03  0.00000000000E+00 0. -1.
          2   -1    0    0  502    0 -0.00000000000E+00 -0.00000000000E+00 -0.21843496294E+03  0.21843496294E+03  0.00000000000E+00 0. -1.
         23    2    1    2    0    0 -0.23561707893E+02  0.46553476547E+02 -0.58031599544E+02  0.11548577417E+03  0.85128827267E+02 0.  0.
         23    2    1    2    0    0  0.10299258573E+03 -0.49022783467E+02 -0.62203742955E+02  0.15723566176E+03  0.88560948939E+02 0.  0.
        -11    1    3    3    0    0 -0.42242284571E+02 -0.35098281574E+01 -0.42061926468E+02  0.59715451582E+02  0.00000000000E+00 0. -1.
         11    1    3    3    0    0  0.18680576678E+02  0.50063304705E+02 -0.15969673076E+02  0.55770322584E+02  0.00000000000E+00 0.  1.
        -11    1    4    4    0    0  0.67735956022E+00 -0.24389350984E+02 -0.44172999828E+02  0.50463384460E+02  0.00000000000E+00 0.  1.
         11    1    4    4    0    0  0.10231522617E+03 -0.24633432482E+02 -0.18030743128E+02  0.10677227730E+03  0.00000000000E+00 0. -1.
          2    1    1    2  501    0 -0.79430877834E+02  0.24693069194E+01  0.49950841194E+02  0.93863988655E+02  0.00000000000E+00 0. -1.
<scales pt_clust_5="13000.00000" pt_clust_6="13000.00000" pt_clust_7="13000.00000" pt_clust_8="13000.00000" pt_clust_9="79.46925"></scales>
<clustering>
<clus scale="   79.469">  1  9  2 -1</clus>
<clus scale="   85.129">  5  6 -1 -1</clus>
<clus scale="   88.561">  7  8 -1 -1</clus>
<clus scale="  111.188">  2  5  1 -1</clus>
<clus scale="   79.469">  1  5  2 -1</clus>
</clustering>
</event>
<event>
 9    1  0.1671478E-005  0.1031378E+03  0.7546771E-02  0.1274497E+00
         -1   -1    0    0    0  501 -0.00000000000E+00  0.00000000000E+00  0.70145337650E+02  0.70145337650E+02  0.00000000000E+00 0.  1.
         21   -1    0    0  501  502  0.00000000000E+00 -0.00000000000E+00 -0.24540249901E+03  0.24540249901E+03  0.00000000000E+00 0. -1.
         23    2    1    2    0    0 -0.20267474106E+02  0.41957913784E+02 -0.18360097750E+01  0.10342156305E+03  0.92311492978E+02 0.  0.
         23    2    1    2    0    0  0.11286289133E+01 -0.35329803746E+02 -0.12929359358E+03  0.16357250328E+03  0.93753195425E+02 0.  0.
        -11    1    3    3    0    0 -0.67914936802E+01  0.25053261868E+02  0.44936288366E+02  0.51894704245E+02  0.00000000000E+00 0.  1.
         11    1    3    3    0    0 -0.13475980426E+02  0.16904651916E+02 -0.46772298141E+02  0.51526858804E+02  0.00000000000E+00 0. -1.
        -13    1    4    4    0    0 -0.33786777602E+02  0.15548146326E+02 -0.61751832616E+02  0.72087308358E+02  0.00000000000E+00 0. -1.
         13    1    4    4    0    0  0.34915406515E+02 -0.50877950073E+02 -0.67541760965E+02  0.91485194923E+02  0.00000000000E+00 0.  1.
         -1    1    1    2    0  502  0.19138845193E+02 -0.66281100372E+01 -0.44127558007E+02  0.48553770334E+02  0.00000000000E+00 0.  1.
<scales pt_clust_5="13000.00000" pt_clust_6="13000.00000" pt_clust_7="13000.00000" pt_clust_8="13000.00000" pt_clust_9="20.25407"></scales>
<clustering>
<clus scale="   20.254">  2  9  1 -1</clus>
<clus scale="   92.311">  5  6 -1 -1</clus>
<clus scale="   93.753">  7  8 -1 -1</clus>
<clus scale="  101.829">  1  5  2 -1</clus>
<clus scale="   20.254">  2  5  1 -1</clus>
</clustering>
</event>
<event>
 9    1  0.1671478E-005  0.1038451E+03  0.7546771E-02  0.1273470E+00
          2   -1    0    0  502    0 -0.00000000000E+00  0.00000000000E+00  0.81449305755E+02  0.81449305755E+02  0.00000000000E+00 0. -1.
         21   -1    0    0  501  502  0.00000000000E+00 -0.00000000000E+00 -0.21606688217E+03  0.21606688217E+03  0.00000000000E+00 0.  1.
         23    2    1    2    0    0  0.38697818243E+02 -0.23972057057E+02 -0.18115091488E+02  0.10290267997E+03  0.90491018061E+02 0.  0.
         23    2    1    2    0    0 -0.51638210993E+02  0.10963294322E+01 -0.39659343460E+02  0.11340007883E+03  0.92838610409E+02 0.  0.
        -13    1    3    3    0    0  0.50285018542E+02  0.21066214322E+02 -0.60211697183E+01  0.54850915766E+02  0.00000000000E+00 0. -1.
         13    1    3    3    0    0 -0.11587200299E+02 -0.45038271379E+02 -0.12093921770E+02  0.48051764207E+02  0.00000000000E+00 0.  1.
        -13    1    4    4    0    0 -0.58150370937E+02 -0.35801232258E+02 -0.20384895428E+02  0.71265263859E+02  0.00000000000E+00 0.  1.
         13    1    4    4    0    0  0.65121599439E+01  0.36897561690E+02 -0.19274448032E+02  0.42134814973E+02  0.00000000000E+00 0. -1.
          2    1    1    2  501    0  0.12940392750E+02  0.22875727625E+02 -0.76843141470E+02  0.81213429122E+02  0.00000000000E+00 0. -1.
<scales pt_clust_5="13000.00000" pt_clust_6="13000.00000" pt_clust_7="13000.00000" pt_clust_8="13000.00000" pt_clust_9="26.28217"></scales>
<clustering>
<clus scale="   26.282">  2  9  1 -1</clus>
<clus scale="   90.491">  5  6 -1 -1</clus>
<clus scale="   92.839">  7  8 -1 -1</clus>
<clus scale="  101.752">  1  5  2 -1</clus>
<clus scale="   26.282">  2  5  1 -1</clus>
</clustering>
</event>
<event>
 9    1  0.1671478E-005  0.9387064E+02  0.7546771E-02  0.1294022E+00
         21   -1    0    0  501  502  0.00000000000E+00  0.00000000000E+00  0.32050819751E+03  0.32050819751E+03  0.00000000000E+00 0. -1.
         -4   -1    0    0    0  501 -0.00000000000E+00 -0.00000000000E+00 -0.42510166182E+02  0.42510166182E+02  0.00000000000E+00 0.  1.
         23    2    1    2    0    0 -0.17387949699E+01  0.11418766497E+02  0.55657546674E+02  0.10904455349E+03  0.93056652136E+02 0.  0.
         23    2    1    2    0    0  0.16665364459E+02  0.11074289388E+02  0.16930602181E+03  0.19446419511E+03  0.93549024048E+02 0.  0.
        -11    1    3    3    0    0  0.30518469669E+02 -0.15895091566E+02 -0.53521715569E+01  0.34823507394E+02  0.00000000000E+00 0.  1.
         11    1    3    3    0    0 -0.32257264639E+02  0.27313858063E+02  0.61009718231E+02  0.74221046092E+02  0.00000000000E+00 0. -1.
        -13    1    4    4    0    0 -0.37819844931E+02 -0.65777211464E+01  0.68825972337E+02  0.78807496815E+02  0.00000000000E+00 0. -1.
         13    1    4    4    0    0  0.54485209391E+02  0.17652010534E+02  0.10048004947E+03  0.11565669829E+03  0.00000000000E+00 0.  1.
         -4    1    1    2    0  502 -0.14926569489E+02 -0.22493055885E+02  0.53034462842E+02  0.59509615095E+02  0.00000000000E+00 0.  1.
<scales pt_clust_5="13000.00000" pt_clust_6="13000.00000" pt_clust_7="13000.00000" pt_clust_8="13000.00000" pt_clust_9="26.99519"></scales>
<clustering>
<clus scale="   26.995">  1  9  2 -1</clus>
<clus scale="   93.057">  5  6 -1 -1</clus>
<clus scale="   93.380">  2  5  1 -1</clus>
<clus scale="   93.549">  7  8 -1 -1</clus>
<clus scale="   26.995">  1  5  2 -1</clus>
</clustering>
</event>
<event>
 9    1  0.1671478E-005  0.1422072E+03  0.7546771E-02  0.1211971E+00
         21   -1    0    0  501  502  0.00000000000E+00  0.00000000000E+00  0.11321197675E+04  0.11321197675E+04  0.00000000000E+00 0. -1.
          1   -1    0    0  502    0 -0.00000000000E+00 -0.00000000000E+00 -0.16967689544E+03  0.16967689544E+03  0.00000000000E+00 0. -1.
         23    2    1    2    0    0 -0.11296081004E+03 -0.35036548932E+01 -0.11819890830E+03  0.18391458466E+03  0.84149701859E+02 0.  0.
         23    2    1    2    0    0  0.59985148340E+02  0.89910160341E+02  0.31307458318E+03  0.34365219827E+03  0.91646515411E+02 0.  0.
        -11    1    3    3    0    0 -0.41677274949E+02 -0.10132960913E+02  0.31656566677E+01  0.43008063502E+02  0.00000000000E+00 0.  1.
         11    1    3    3    0    0 -0.71283535089E+02  0.66293060195E+01 -0.12136456497E+03  0.14090652115E+03  0.00000000000E+00 0. -1.
        -13    1    4    4    0    0  0.18221994379E+02 -0.11453637045E+02  0.15493642782E+02  0.26519423964E+02  0.00000000000E+00 0.  1.
         13    1    4    4    0    0  0.41763153961E+02  0.10136379739E+03  0.29758094040E+03  0.31713277430E+03  0.00000000000E+00 0. -1.
          1    1    1    2  501    0  0.52975661698E+02 -0.86406505448E+02  0.76756719721E+03  0.77422988004E+03  0.00000000000E+00 0. -1.
<scales pt_clust_5="13000.00000" pt_clust_6="13000.00000" pt_clust_7="13000.00000" pt_clust_8="13000.00000" pt_clust_9="101.35337"></scales>
<clustering>
<clus scale="   84.150">  5  6 -1 -1</clus>
<clus scale="   91.647">  7  8 -1 -1</clus>
<clus scale="  101.353">  1  9  2 -1</clus>
<clus scale="  137.495">  2  5  1 -1</clus>
<clus scale="  101.353">  1  5  2 -1</clus>
</clustering>
</event>
<event>
 9    1  0.1671478E-005  0.1379702E+03  0.7546771E-02  0.1217570E+00
         21   -1    0    0  501  502  0.00000000000E+00  0.00000000000E+00  0.13463302337E+03  0.13463302337E+03  0.00000000000E+00 0. -1.
          1   -1    0    0  502    0 -0.00000000000E+00 -0.00000000000E+00 -0.32284984949E+03  0.32284984949E+03  0.00000000000E+00 0. -1.
         23    2    1    2    0    0 -0.11316900508E+03 -0.28219680402E+02 -0.18061586210E+03  0.23531651609E+03  0.95646218073E+02 0.  0.
         23    2    1    2    0    0  0.78972427672E+02  0.84096987866E+01 -0.77053333260E+02  0.14225720291E+03  0.89400940977E+02 0.  0.
        -11    1    3    3    0    0 -0.78382470643E+02  0.78809113907E+01 -0.44985477055E+02  0.90717217849E+02  0.00000000000E+00 0.  1.
         11    1    3    3    0    0 -0.34786534442E+02 -0.36100591792E+02 -0.13563038504E+03  0.14459929824E+03  0.00000000000E+00 0. -1.
        -13    1    4    4    0    0  0.12226052115E+02 -0.36816812498E+02 -0.21593348044E+02  0.44398498990E+02  0.00000000000E+00 0.  1.
         13    1    4    4    0    0  0.66746375558E+02  0.45226511285E+02 -0.55459985216E+02  0.97858703921E+02  0.00000000000E+00 0. -1.
          1    1    1    2  501    0  0.34196577413E+02  0.19809981615E+02  0.69452369234E+02  0.79909153860E+02  0.00000000000E+00 0. -1.
<scales pt_clust_5="13000.00000" pt_clust_6="13000.00000" pt_clust_7="13000.00000" pt_clust_8="13000.00000" pt_clust_9="39.52014"></scales>
<clustering>
<clus scale="   39.520">  1  9  2 -1</clus>
<clus scale="   89.401">  7  8 -1 -1</clus>
<clus scale="   95.646">  5  6 -1 -1</clus>
<clus scale="  133.716">  1  7  2 -1</clus>
<clus scale="   39.520">  1  5  2 -1</clus>
</clustering>
</event>
<event>
 9    1  0.1671478E-005  0.1004432E+03  0.7546771E-02  0.1279841E+00
         21   -1    0    0  501  502  0.00000000000E+00  0.00000000000E+00  0.63568909213E+02  0.63568909213E+02  0.00000000000E+00 0. -1.
         -1   -1    0    0    0  501 -0.00000000000E+00 -0.00000000000E+00 -0.51631530785E+03  0.51631530785E+03  0.00000000000E+00 0.  1.
         23    2    1    2    0    0  0.36577245720E+02  0.18840650360E+02 -0.44566722345E+03  0.45681562770E+03  0.91478842572E+02 0.  0.
         23    2    1    2    0    0 -0.29021509922E+02  0.12193800155E+01 -0.18671691094E+02  0.98698928163E+02  0.92461405172E+02 0.  0.
        -11    1    3    3    0    0  0.83987037950E+01 -0.36868283850E+02 -0.17601702165E+03  0.18003277615E+03  0.00000000000E+00 0.  1.
         11    1    3    3    0    0  0.28178541925E+02  0.55708934211E+02 -0.26965020181E+03  0.27678285155E+03  0.00000000000E+00 0. -1.
        -13    1    4    4    0    0  0.25630061975E+02  0.15529743168E+02  0.14387782277E+02  0.33242762800E+02  0.00000000000E+00 0.  1.
         13    1    4    4    0    0 -0.54651571897E+02 -0.14310363153E+02 -0.33059473371E+02  0.65456165363E+02  0.00000000000E+00 0. -1.
         -1    1    1    2    0  502 -0.75557357978E+01 -0.20060030375E+02  0.11592515909E+02  0.24369661204E+02  0.00000000000E+00 0.  1.
<scales pt_clust_5="13000.00000" pt_clust_6="13000.00000" pt_clust_7="13000.00000" pt_clust_8="13000.00000" pt_clust_9="21.43581"></scales>
<clustering>
<clus scale="   21.436">  1  9  2 -1</clus>
<clus scale="   91.479">  5  6 -1 -1</clus>
<clus scale="   92.461">  7  8 -1 -1</clus>
<clus scale="   99.539">  2  5  1 -1</clus>
<clus scale="   21.436">  1  5  2 -1</clus>
</clustering>
</event>
<event>
 9    1  0.1671478E-005  0.1202374E+03  0.7546771E-02  0.1243356E+00
         -3   -1    0    0    0  501 -0.00000000000E+00  0.00000000000E+00  0.16447648475E+03  0.16447648475E+03  0.00000000000E+00 0.  1.
         21   -1    0    0  501  502  0.00000000000E+00 -0.00000000000E+00 -0.21899565262E+03  0.21899565262E+03  0.00000000000E+00 0.  1.
         23    2    1    2    0    0 -0.37805384534E+02  0.61505487479E+02  0.53026292617E+02  0.12704120609E+03  0.90086115723E+02 0.  0.
         23    2    1    2    0    0  0.10903458685E+03 -0.38259588969E+02 -0.10530443183E+03  0.18147098684E+03  0.92143140951E+02 0.  0.
        -11    1    4    4    0    0  0.10891756290E+03 -0.12333544363E+02 -0.10981009286E+03  0.15515607729E+03  0.00000000000E+00 0.  1.
         11    1    4    4    0    0  0.11702394983E+00 -0.25926044606E+02  0.45056610320E+01  0.26314909554E+02  0.00000000000E+00 0. -1.
        -11    1    3    3    0    0  0.21479346944E+01  0.70218278264E+02  0.49618672387E+02  0.86007167581E+02  0.00000000000E+00 0.  1.
         11    1    3    3    0    0 -0.39953319229E+02 -0.87127907848E+01  0.34076202297E+01  0.41034038508E+02  0.00000000000E+00 0. -1.
         -3    1    1    2    0  502 -0.71229202318E+02 -0.23245898510E+02 -0.22410286583E+01  0.74959944436E+02  0.00000000000E+00 0.  1.
<scales pt_clust_5="13000.00000" pt_clust_6="13000.00000" pt_clust_7="13000.00000" pt_clust_8="13000.00000" pt_clust_9="74.92648"></scales>
<clustering>
<clus scale="   74.926">  2  9  1 -1</clus>
<clus scale="   90.086">  7  8 -1 -1</clus>
<clus scale="   92.143">  5  6 -1 -1</clus>
<clus scale="  118.668">  1  7  2 -1</clus>
<clus scale="   74.926">  2  5  1 -1</clus>
</clustering>
</event>
<event>
 9    1  0.1671478E-005  0.1386058E+03  0.7546771E-02  0.1225086E+00
         21   -1    0    0  501  502  0.00000000000E+00  0.00000000000E+00  0.64439571013E+03  0.64439571013E+03  0.00000000000E+00 0. -1.
          2   -1    0    0  502    0 -0.00000000000E+00 -0.00000000000E+00 -0.46685863700E+02  0.46685863700E+02  0.00000000000E+00 0. -1.
         23    2    1    2    0    0 -0.21099045028E+02  0.56635146002E+02  0.83241797356E+02  0.13736345609E+03  0.91031932746E+02 0.  0.
         23    2    1    2    0    0 -0.51034520198E+01 -0.95856446344E+02  0.42842410089E+03  0.45559349151E+03  0.12167052132E+03 0.  0.
        -11    1    3    3    0    0  0.34227816392E+02  0.17467312387E+02  0.46279197528E+02  0.60153258772E+02  0.00000000000E+00 0.  1.
         11    1    3    3    0    0 -0.55326861420E+02  0.39167833615E+02  0.36962599828E+02  0.77210197323E+02  0.00000000000E+00 0. -1.
        -13    1    4    4    0    0  0.15272469138E+02  0.16317440930E+02  0.15447318190E+02  0.27168489677E+02  0.00000000000E+00 0.  1.
         13    1    4    4    0    0 -0.20375921158E+02 -0.11217388727E+03  0.41297678270E+03  0.42842500183E+03  0.00000000000E+00 0. -1.
          2    1    1    2  501    0  0.26202497048E+02  0.39221300342E+02  0.86043948192E+02  0.98124626228E+02  0.00000000000E+00 0. -1.
<scales pt_clust_5="13000.00000" pt_clust_6="13000.00000" pt_clust_7="13000.00000" pt_clust_8="13000.00000" pt_clust_9="47.16865"></scales>
<clustering>
<clus scale="   47.169">  1  9  2 -1</clus>
<clus scale="   91.032">  5  6 -1 -1</clus>
<clus scale="  112.671">  2  5  1 -1</clus>
<clus scale="  121.671">  7  8 -1 -1</clus>
<clus scale="   47.169">  1  5  2 -1</clus>
</clustering>
</event>
<event>
 9    1  0.1671478E-005  0.9539585E+02  0.7546771E-02  0.1300098E+00
          3   -1    0    0  502    0 -0.00000000000E+00  0.00000000000E+00  0.10374209729E+03  0.10374209729E+03  0.00000000000E+00 0. -1.
         21   -1    0    0  501  502  0.00000000000E+00 -0.00000000000E+00 -0.34509890937E+03  0.34509890937E+03  0.00000000000E+00 0. -1.
         23    2    1    2    0    0 -0.44182230784E+02 -0.97248681704E+01  0.29387877155E+02  0.10719774682E+03  0.92634048934E+02 0.  0.
         23    2    1    2    0    0 -0.81977980623E+01  0.11849461673E+02 -0.12972677333E+02  0.78594611410E+02  0.76165667794E+02 0.  0.
        -13    1    4    4    0    0 -0.34958408617E+02 -0.17478172604E+01 -0.28188440030E+02  0.44941443563E+02  0.00000000000E+00 0.  1.
         13    1    4    4    0    0  0.26760610555E+02  0.13597278934E+02  0.15215762697E+02  0.33653167847E+02  0.00000000000E+00 0. -1.
        -13    1    3    3    0    0 -0.14463362004E+02 -0.49676139485E+02  0.56819885386E+01  0.52049905555E+02  0.00000000000E+00 0.  1.
         13    1    3    3    0    0 -0.29718868780E+02  0.39951271314E+02  0.23705888616E+02  0.55147841266E+02  0.00000000000E+00 0. -1.
          3    1    1    2  501    0  0.52380028846E+02 -0.21245935027E+01 -0.25777201191E+03  0.26304864843E+03  0.00000000000E+00 0. -1.
<scales pt_clust_5="13000.00000" pt_clust_6="13000.00000" pt_clust_7="13000.00000" pt_clust_8="13000.00000" pt_clust_9="52.42310"></scales>
<clustering>
<clus scale="   52.423">  2  9  1 -1</clus>
<clus scale="   76.166">  5  6 -1 -1</clus>
<clus scale="   79.502">  2  5  1 -1</clus>
<clus scale="   92.634">  7  8 -1 -1</clus>
<clus scale="   52.423">  2  5  1 -1</clus>
</clustering>
</event>
<event>
 9    1  0.1671478E-005  0.1622483E+03  0.7546771E-02  0.1186292E+00
          3   -1    0    0  502    0 -0.00000000000E+00  0.00000000000E+00  0.64381274386E+03  0.64381274386E+03  0.00000000000E+00 0. -1.
         21   -1    0    0  501  502  0.00000000000E+00 -0.00000000000E+00 -0.10810755478E+03  0.10810755478E+03  0.00000000000E+00 0. -1.
         23    2    1    2    0    0 -0.22746442400E+02 -0.15660111167E+03  0.42243013346E+03  0.46057641887E+03  0.92962955777E+02 0.  0.
         23    2    1    2    0    0 -0.27232200505E+02  0.99766123332E+02  0.15252460639E+03  0.20608774872E+03  0.92268805725E+02 0.  0.
        -13    1    4    4    0    0  0.25522444306E+02  0.75541964677E+02  0.77159604771E+02  0.11095759640E+03  0.00000000000E+00 0.  1.
         13    1    4    4    0    0 -0.52754644811E+02  0.24224158655E+02  0.75365001621E+02  0.95130152323E+02  0.00000000000E+00 0. -1.
        -13    1    3    3    0    0  0.31921413306E+02 -0.77908762911E+02  0.24287751268E+03  0.25705687723E+03  0.00000000000E+00 0. -1.
         13    1    3    3    0    0 -0.54667855706E+02 -0.78692348754E+02  0.17955262078E+03  0.20351954164E+03  0.00000000000E+00 0.  1.
          3    1    1    2  501    0  0.49978642905E+02  0.56834988333E+02 -0.39249550768E+02  0.85256131046E+02  0.00000000000E+00 0. -1.
<scales pt_clust_5="13000.00000" pt_clust_6="13000.00000" pt_clust_7="13000.00000" pt_clust_8="13000.00000" pt_clust_9="75.68408"></scales>
<clustering>
<clus scale="   75.684">  2  9  1 -1</clus>
<clus scale="   92.269">  5  6 -1 -1</clus>
<clus scale="   92.963">  7  8 -1 -1</clus>
<clus scale="  161.852">  2  5  1 -1</clus>
<clus scale="   75.684">  2  5  1 -1</clus>
</clustering>
</event>
<event>
 9    1  0.1671478E-005  0.9103693E+02  0.7546771E-02  0.1300855E+00
         21   -1    0    0  501  502  0.00000000000E+00  0.00000000000E+00  0.22383800024E+03  0.22383800024E+03  0.00000000000E+00 0. -1.
          1   -1    0    0  502    0 -0.00000000000E+00 -0.00000000000E+00 -0.28498044028E+03  0.28498044028E+03  0.00000000000E+00 0. -1.
         23    2    1    2    0    0  0.47405952368E+01 -0.12920530146E+02 -0.24499665502E+03  0.26115840713E+03  0.89392053894E+02 0.  0.
         23    2    1    2    0    0 -0.29199905179E+02 -0.20232807391E+02  0.53070991035E+02  0.11054091257E+03  0.90226173055E+02 0.  0.
        -13    1    4    4    0    0  0.40644923582E+01 -0.48959531710E+02  0.12422907206E+02  0.50674297892E+02  0.00000000000E+00 0. -1.
         13    1    4    4    0    0 -0.33264397537E+02  0.28726724319E+02  0.40648083829E+02  0.59866614674E+02  0.00000000000E+00 0.  1.
        -13    1    3    3    0    0  0.18381092264E+01 -0.51265464556E+02 -0.12379907511E+03  0.13400648305E+03  0.00000000000E+00 0. -1.
         13    1    3    3    0    0  0.29024860104E+01  0.38344934410E+02 -0.12119757991E+03  0.12715192408E+03  0.00000000000E+00 0.  1.
          1    1    1    2  501    0  0.24459309942E+02  0.33153337537E+02  0.13078322395E+03  0.13711912083E+03  0.00000000000E+00 0. -1.
<scales pt_clust_5="13000.00000" pt_clust_6="13000.00000" pt_clust_7="13000.00000" pt_clust_8="13000.00000" pt_clust_9="41.19953"></scales>
<clustering>
<clus scale="   41.200">  1  9  2 -1</clus>
<clus scale="   89.392">  7  8 -1 -1</clus>
<clus scale="   90.210">  2  7  1 -1</clus>
<clus scale="   90.226">  5  6 -1 -1</clus>
<clus scale="   41.200">  1  5  2 -1</clus>
</clustering>
</event>
<event>
 9    1  0.1671478E-005  0.1139047E+03  0.7546771E-02  0.1253867E+00
         21   -1    0    0  501  502  0.00000000000E+00  0.00000000000E+00  0.71143461232E+02  0.71143461232E+02  0.00000000000E+00 0. -1.
          1   -1    0    0  502    0 -0.00000000000E+00 -0.00000000000E+00 -0.83282579916E+03  0.83282579916E+03  0.00000000000E+00 0. -1.
         23    2    1    2    0    0 -0.31484440813E+02 -0.79187094015E+02 -0.63533727021E+03  0.64750024327E+03  0.91330456311E+02 0.  0.
         23    2    1    2    0    0 -0.22592823764E+02  0.29085670999E+02 -0.14920156991E+03  0.17928791306E+03  0.92339782125E+02 0.  0.
        -11    1    4    4    0    0  0.22569839365E+02  0.19441957166E+02 -0.81717791164E+01  0.30889566545E+02  0.00000000000E+00 0.  1.
         11    1    4    4    0    0 -0.45162663129E+02  0.96437138334E+01 -0.14102979079E+03  0.14839834652E+03  0.00000000000E+00 0. -1.
        -13    1    3    3    0    0  0.25731436961E+02 -0.58515696147E+02 -0.34155484740E+03  0.34748511813E+03  0.00000000000E+00 0.  1.
         13    1    3    3    0    0 -0.57215877774E+02 -0.20671397868E+02 -0.29378242281E+03  0.30001512514E+03  0.00000000000E+00 0. -1.
          1    1    1    2  501    0  0.54077264577E+02  0.50101423016E+02  0.22856502185E+02  0.77181104064E+02  0.00000000000E+00 0. -1.
<scales pt_clust_5="13000.00000" pt_clust_6="13000.00000" pt_clust_7="13000.00000" pt_clust_8="13000.00000" pt_clust_9="73.71908"></scales>
<clustering>
<clus scale="   73.719">  1  9  2 -1</clus>
<clus scale="   91.330">  7  8 -1 -1</clus>
<clus scale="   92.340">  5  6 -1 -1</clus>
<clus scale="  113.088">  2  7  1 -1</clus>
<clus scale="   73.719">  1  5  2 -1</clus>
</clustering>
</event>
<event>
 9    1  0.1671478E-005  0.1034879E+03  0.7546771E-02  0.1275850E+00
         21   -1    0    0  501  502  0.00000000000E+00  0.00000000000E+00  0.95625142748E+02  0.95625142748E+02  0.00000000000E+00 0. -1.
         -1   -1    0    0    0  501 -0.00000000000E+00 -0.00000000000E+00 -0.27825290967E+03  0.27825290967E+03  0.00000000000E+00 0.  1.
         23    2    1    2    0    0  0.38460721705E+02 -0.56612224377E+01 -0.22379864286E+03  0.24475831423E+03  0.91156586623E+02 0.  0.
         23    2    1    2    0    0 -0.20596281956E+02 -0.45512806802E+01  0.43879730844E+02  0.10836470694E+03  0.96811972114E+02 0.  0.
        -13    1    4    4    0    0 -0.47268352043E+02  0.14645079200E+02  0.54704853858E+02  0.73765821932E+02  0.00000000000E+00 0. -1.
         13    1    4    4    0    0  0.26672070087E+02 -0.19196359880E+02 -0.10825123015E+02  0.34598885006E+02  0.00000000000E+00 0.  1.
        -13    1    3    3    0    0  0.46155250303E+02 -0.41095873334E+02 -0.12334838749E+03  0.13796377290E+03  0.00000000000E+00 0. -1.
         13    1    3    3    0    0 -0.76945285980E+01  0.35434650896E+02 -0.10045025537E+03  0.10679454133E+03  0.00000000000E+00 0.  1.
         -1    1    1    2    0  502 -0.17864439749E+02  0.10212503118E+02 -0.27088549101E+01  0.20755031255E+02  0.00000000000E+00 0.  1.
<scales pt_clust_5="13000.00000" pt_clust_6="13000.00000" pt_clust_7="13000.00000" pt_clust_8="13000.00000" pt_clust_9="20.57750"></scales>
<clustering>
<clus scale="   20.577">  1  9  2 -1</clus>
<clus scale="   91.157">  7  8 -1 -1</clus>
<clus scale="   96.812">  5  6 -1 -1</clus>
<clus scale="   98.218">  2  7  1 -1</clus>
<clus scale="   20.577">  1  5  2 -1</clus>
</clustering>
</event>
<event>
 9    1  0.1671478E-005  0.1016964E+03  0.7546771E-02  0.1278784E+00
         -3   -1    0    0    0  501 -0.00000000000E+00  0.00000000000E+00  0.12411832190E+03  0.12411832190E+03  0.00000000000E+00 0.  1.
         21   -1    0    0  501  502  0.00000000000E+00 -0.00000000000E+00 -0.14976304990E+03  0.14976304990E+03  0.00000000000E+00 0. -1.
         23    2    1    2    0    0 -0.42322344531E+02 -0.85755854311E+01  0.44765556229E+02  0.10680784000E+03  0.86828786412E+02 0.  0.
         23    2    1    2    0    0  0.54617649155E+02 -0.17948169545E+02 -0.82224181529E+02  0.13554176585E+03  0.91134679860E+02 0.  0.
        -11    1    3    3    0    0 -0.46333065717E+02  0.31375938664E+02  0.18978243610E+02  0.59087868775E+02  0.00000000000E+00 0.  1.
         11    1    3    3    0    0  0.40107211868E+01 -0.39951524095E+02  0.25787312620E+02  0.47719971229E+02  0.00000000000E+00 0. -1.
        -11    1    4    4    0    0  0.10407661062E+02  0.33636688226E+02 -0.10483262986E+02  0.36737514974E+02  0.00000000000E+00 0.  1.
         11    1    4    4    0    0  0.44209988093E+02 -0.51584857771E+02 -0.71740918543E+02  0.98804250880E+02  0.00000000000E+00 0. -1.
         -3    1    1    2    0  502 -0.12295304624E+02  0.26523754976E+02  0.11813897304E+02  0.31531765941E+02  0.00000000000E+00 0.  1.
<scales pt_clust_5="13000.00000" pt_clust_6="13000.00000" pt_clust_7="13000.00000" pt_clust_8="13000.00000" pt_clust_9="29.23500"></scales>
<clustering>
<clus scale="   29.235">  2  9  1 -1</clus>
<clus scale="   86.829">  5  6 -1 -1</clus>
<clus scale="   91.135">  7  8 -1 -1</clus>
<clus scale="   97.856">  1  5  2 -1</clus>
<clus scale="   29.235">  2  5  1 -1</clus>
</clustering>
</event>
<event>
 9    1  0.1671478E-005  0.1032553E+03  0.7546771E-02  0.1273739E+00
          1   -1    0    0  502    0 -0.00000000000E+00  0.00000000000E+00  0.32267122745E+03  0.32267122745E+03  0.00000000000E+00 0. -1.
         21   -1    0    0  501  502  0.00000000000E+00 -0.00000000000E+00 -0.66110538507E+02  0.66110538507E+02  0.00000000000E+00 0. -1.
         23    2    1    2    0    0  0.56143652944E+02 -0.39569832256E+01  0.16914179870E+03  0.20026597713E+03  0.91267442431E+02 0.  0.
         23    2    1    2    0    0 -0.26082638629E+02  0.40016407353E+02  0.95737321833E+02  0.14083829985E+03  0.91586980617E+02 0.  0.
        -13    1    4    4    0    0  0.11464963315E+02  0.58303869763E+02  0.69835818216E+02  0.91694209845E+02  0.00000000000E+00 0. -1.
         13    1    4    4    0    0 -0.37547601944E+02 -0.18287462409E+02  0.25901503616E+02  0.49144090008E+02  0.00000000000E+00 0.  1.
        -13    1    3    3    0    0 -0.89303868128E+01  0.27982985404E+02  0.23633303100E+02  0.37700560953E+02  0.00000000000E+00 0. -1.
         13    1    3    3    0    0  0.65074039757E+02 -0.31939968630E+02  0.14550849560E+03  0.16256541618E+03  0.00000000000E+00 0.  1.
          1    1    1    2  501    0 -0.30061014315E+02 -0.36059424128E+02 -0.83184315911E+01  0.47677488967E+02  0.00000000000E+00 0. -1.
<scales pt_clust_5="13000.00000" pt_clust_6="13000.00000" pt_clust_7="13000.00000" pt_clust_8="13000.00000" pt_clust_9="46.94621"></scales>
<clustering>
<clus scale="   46.946">  2  9  1 -1</clus>
<clus scale="   91.267">  7  8 -1 -1</clus>
<clus scale="   91.587">  5  6 -1 -1</clus>
<clus scale="  102.972">  1  7  2 -1</clus>
<clus scale="   46.946">  2  5  1 -1</clus>
</clustering>
</event>
<event>
 9    1  0.1671478E-005  0.1058183E+03  0.7546771E-02  0.1269624E+00
          1   -1    0    0  502    0 -0.00000000000E+00  0.00000000000E+00  0.31868065778E+02  0.31868065778E+02  0.00000000000E+00 0. -1.
         21   -1    0    0  501  502  0.00000000000E+00 -0.00000000000E+00 -0.63886304331E+03  0.63886304331E+03  0.00000000000E+00 0.  1.
         23    2    1    2    0    0  0.24249527929E+02  0.38694935297E+02 -0.17698570131E+03  0.20453681698E+03  0.91793427923E+02 0.  0.
         23    2    1    2    0    0 -0.62266375429E+02 -0.20937608438E+02 -0.17057036141E+03  0.20338418220E+03  0.89193006572E+02 0.  0.
        -11    1    4    4    0    0 -0.24409490338E+02 -0.10889978960E+02 -0.16081354817E+03  0.16301966794E+03  0.00000000000E+00 0.  1.
         11    1    4    4    0    0 -0.37856885091E+02 -0.10047629477E+02 -0.97568132421E+01  0.40364514261E+02  0.00000000000E+00 0. -1.
        -13    1    3    3    0    0 -0.80667421057E+01 -0.26948579027E+02 -0.35908863362E+02  0.45615180671E+02  0.00000000000E+00 0.  1.
         13    1    3    3    0    0  0.32316270035E+02  0.65643514324E+02 -0.14107683795E+03  0.15892163631E+03  0.00000000000E+00 0. -1.
          1    1    1    2  501    0  0.38016847500E+02 -0.17757326859E+02 -0.25943891482E+03  0.26281010991E+03  0.00000000000E+00 0. -1.
<scales pt_clust_5="13000.00000" pt_clust_6="13000.00000" pt_clust_7="13000.00000" pt_clust_8="13000.00000" pt_clust_9="41.95954"></scales>
<clustering>
<clus scale="   41.960">  2  9  1 -1</clus>
<clus scale="   89.193">  5  6 -1 -1</clus>
<clus scale="   91.793">  7  8 -1 -1</clus>
<clus scale="  103.571">  2  5  1 -1</clus>
<clus scale="   41.960">  2  5  1 -1</clus>
</clustering>
</event>
<event>
 9    1  0.1671478E-005  0.9786721E+02  0.7546771E-02  0.1286281E+00
         -2   -1    0    0    0  501 -0.00000000000E+00  0.00000000000E+00  0.12218910760E+03  0.12218910760E+03  0.00000000000E+00 0.  1.
         21   -1    0    0  501  502  0.00000000000E+00 -0.00000000000E+00 -0.23962451515E+03  0.23962451515E+03  0.00000000000E+00 0.  1.
         23    2    1    2    0    0 -0.20512466210E+01 -0.41617170933E+02  0.42234381683E+02  0.10983852670E+03  0.92436802319E+02 0.  0.
         23    2    1    2    0    0  0.18669692415E+02 -0.13679202504E+02 -0.18746231460E+02  0.99681593925E+02  0.95127919022E+02 0.  0.
        -11    1    4    4    0    0  0.44770980807E+02 -0.12429777497E+02  0.21894799458E+02  0.51364601959E+02  0.00000000000E+00 0.  1.
         11    1    4    4    0    0 -0.26101288392E+02 -0.12494250070E+01 -0.40641030918E+02  0.48316991966E+02  0.00000000000E+00 0. -1.
        -11    1    3    3    0    0  0.12126419200E+02 -0.67594793996E+02  0.41490657188E+02  0.80234536528E+02  0.00000000000E+00 0.  1.
         11    1    3    3    0    0 -0.14177665821E+02  0.25977623063E+02  0.74372449478E+00  0.29603990175E+02  0.00000000000E+00 0. -1.
         -2    1    1    2    0  502 -0.16618445794E+02  0.55296373437E+02 -0.14092355777E+03  0.15229350212E+03  0.00000000000E+00 0.  1.
<scales pt_clust_5="13000.00000" pt_clust_6="13000.00000" pt_clust_7="13000.00000" pt_clust_8="13000.00000" pt_clust_9="57.73960"></scales>
<clustering>
<clus scale="   57.740">  2  9  1 -1</clus>
<clus scale="   92.437">  7  8 -1 -1</clus>
<clus scale="   95.128">  5  6 -1 -1</clus>
<clus scale="   95.254">  1  7  2 -1</clus>
<clus scale="   57.740">  2  5  1 -1</clus>
</clustering>
</event>
<event>
 9    1  0.1671478E-005  0.9297743E+02  0.7546771E-02  0.1296668E+00
         21   -1    0    0  501  502  0.00000000000E+00  0.00000000000E+00  0.76749034646E+02  0.76749034646E+02  0.00000000000E+00 0. -1.
          3   -1    0    0  502    0 -0.00000000000E+00 -0.00000000000E+00 -0.54926200160E+03  0.54926200160E+03  0.00000000000E+00 0. -1.
         23    2    1    2    0    0 -0.56842706196E+00 -0.24007850441E+02 -0.32953475084E+03  0.34305720290E+03  0.92295137770E+02 0.  0.
         23    2    1    2    0    0  0.32159218788E+02 -0.40086624958E+02 -0.17571557308E+03  0.20435475930E+03  0.90795110947E+02 0.  0.
        -11    1    3    3    0    0  0.30696914095E+02  0.21283335081E+02 -0.93367175708E+02  0.10056197287E+03  0.00000000000E+00 0. -1.
         11    1    3    3    0    0 -0.31265341157E+02 -0.45291185521E+02 -0.23616757514E+03  0.24249523003E+03  0.00000000000E+00 0.  1.
        -13    1    4    4    0    0  0.62565242350E+02 -0.32740009935E+02 -0.99876153331E+02  0.12231747138E+03  0.00000000000E+00 0. -1.
         13    1    4    4    0    0 -0.30406023562E+02 -0.73466150230E+01 -0.75839419750E+02  0.82037287919E+02  0.00000000000E+00 0.  1.
          3    1    1    2  501    0 -0.31590791726E+02  0.64094475399E+02  0.32737356974E+02  0.78599074042E+02  0.00000000000E+00 0. -1.
<scales pt_clust_5="13000.00000" pt_clust_6="13000.00000" pt_clust_7="13000.00000" pt_clust_8="13000.00000" pt_clust_9="71.45684"></scales>
<clustering>
<clus scale="   71.457">  1  9  2 -1</clus>
<clus scale="   90.795">  7  8 -1 -1</clus>
<clus scale="   91.489">  1  7  2 -1</clus>
<clus scale="   92.295">  5  6 -1 -1</clus>
<clus scale="   71.457">  1  5  2 -1</clus>
</clustering>
</event>
<event>
 9    1  0.1671478E-005  0.1061847E+03  0.7546771E-02  0.1267927E+00
         21   -1    0    0  501  502  0.00000000000E+00  0.00000000000E+00  0.21999397781E+03  0.21999397781E+03  0.00000000000E+00 0.  1.
         -3   -1    0    0    0  501 -0.00000000000E+00 -0.00000000000E+00 -0.10115973363E+03  0.10115973363E+03  0.00000000000E+00 0.  1.
         23    2    1    2    0    0 -0.32224189319E+02 -0.23662318446E+02  0.69478335218E+01  0.10058559217E+03  0.92037412337E+02 0.  0.
         23    2    1    2    0    0  0.47446128438E+02  0.73875815072E+02  0.10957254828E+03  0.16804710793E+03  0.92330471619E+02 0.  0.
        -11    1    3    3    0    0 -0.51882337547E+02 -0.60498494807E+01 -0.26018281337E+02  0.58355193358E+02  0.00000000000E+00 0.  1.
         11    1    3    3    0    0  0.19658148228E+02 -0.17612468965E+02  0.32966114858E+02  0.42230398810E+02  0.00000000000E+00 0. -1.
        -11    1    4    4    0    0 -0.34375126736E+01  0.69712673771E+02  0.36106254776E+02  0.78583299827E+02  0.00000000000E+00 0.  1.
         11    1    4    4    0    0  0.50883641112E+02  0.41631413007E+01  0.73466293508E+02  0.89463808101E+02  0.00000000000E+00 0. -1.
         -3    1    1    2    0  502 -0.15221939119E+02 -0.50213496626E+02  0.23138623771E+01  0.52521011348E+02  0.00000000000E+00 0.  1.
<scales pt_clust_5="13000.00000" pt_clust_6="13000.00000" pt_clust_7="13000.00000" pt_clust_8="13000.00000" pt_clust_9="52.47004"></scales>
<clustering>
<clus scale="   52.470">  1  9  2 -1</clus>
<clus scale="   92.037">  5  6 -1 -1</clus>
<clus scale="   92.330">  7  8 -1 -1</clus>
<clus scale="  105.930">  2  5  1 -1</clus>
<clus scale="   52.470">  1  5  2 -1</clus>
</clustering>
</event>
<event>
 9    1  0.1671478E-005  0.1001149E+03  0.7546771E-02  0.1280079E+00
         21   -1    0    0  501  502  0.00000000000E+00  0.00000000000E+00  0.91974889956E+02  0.91974889956E+02  0.00000000000E+00 0. -1.
          1   -1    0    0  502    0 -0.00000000000E+00 -0.00000000000E+00 -0.23723867971E+03  0.23723867971E+03  0.00000000000E+00 0. -1.
         23    2    1    2    0    0 -0.56259426859E+02  0.10152813836E+02 -0.13350919748E+03  0.17227540296E+03  0.92660163575E+02 0.  0.
         23    2    1    2    0    0  0.68938660257E+01 -0.58907086178E+00 -0.37851172049E+02  0.10028611245E+03  0.92610586494E+02 0.  0.
        -11    1    4    4    0    0  0.25521707740E+02 -0.40834403915E+02 -0.24150387343E+02  0.53870653587E+02  0.00000000000E+00 0.  1.
         11    1    4    4    0    0 -0.18627841714E+02  0.40245333054E+02 -0.13700784706E+02  0.46415458859E+02  0.00000000000E+00 0. -1.
        -11    1    3    3    0    0  0.18893339449E+01  0.38812397161E+02 -0.77111278329E+02  0.86348833239E+02  0.00000000000E+00 0.  1.
         11    1    3    3    0    0 -0.58148760804E+02 -0.28659583325E+02 -0.56397919151E+02  0.85926569721E+02  0.00000000000E+00 0. -1.
          1    1    1    2  501    0  0.49365560833E+02 -0.95637429744E+01  0.26096579775E+02  0.56652054261E+02  0.00000000000E+00 0. -1.
<scales pt_clust_5="13000.00000" pt_clust_6="13000.00000" pt_clust_7="13000.00000" pt_clust_8="13000.00000" pt_clust_9="50.28343"></scales>
<clustering>
<clus scale="   50.283">  1  9  2 -1</clus>
<clus scale="   92.611">  5  6 -1 -1</clus>
<clus scale="   92.660">  7  8 -1 -1</clus>
<clus scale="  100.069">  1  5  2 -1</clus>
<clus scale="   50.283">  1  5  2 -1</clus>
</clustering>
</event>
<event>
 9    1  0.1671478E-005  0.1943305E+03  0.7546771E-02  0.1180479E+00
         21   -1    0    0  501  502  0.00000000000E+00  0.00000000000E+00  0.15280930311E+03  0.15280930311E+03  0.00000000000E+00 0. -1.
          2   -1    0    0  502    0 -0.00000000000E+00 -0.00000000000E+00 -0.43401066549E+03  0.43401066549E+03  0.00000000000E+00 0. -1.
         23    2    1    2    0    0 -0.17855649571E+02  0.53579046642E+02 -0.16654789251E+03  0.19809940099E+03  0.91190096563E+02 0.  0.
         23    2    1    2    0    0  0.89520772077E+02  0.12066679245E+03 -0.92434806221E+02  0.19900717526E+03  0.92115248296E+02 0.  0.
        -11    1    3    3    0    0 -0.35390830993E+02  0.33736122449E+02 -0.26586554390E+02  0.55655024487E+02  0.00000000000E+00 0. -1.
         11    1    3    3    0    0  0.17535181423E+02  0.19842924193E+02 -0.13996133812E+03  0.14244437650E+03  0.00000000000E+00 0.  1.
        -13    1    4    4    0    0  0.27695474054E+02 -0.16120379832E+01 -0.47134816843E+02  0.54693042596E+02  0.00000000000E+00 0.  1.
         13    1    4    4    0    0  0.61825298023E+02  0.12227883043E+03 -0.45299989378E+02  0.14431413266E+03  0.00000000000E+00 0. -1.
          2    1    1    2  501    0 -0.71665122506E+02 -0.17424583909E+03 -0.22218663651E+02  0.18971339236E+03  0.00000000000E+00 0. -1.
<scales pt_clust_5="13000.00000" pt_clust_6="13000.00000" pt_clust_7="13000.00000" pt_clust_8="13000.00000" pt_clust_9="171.11139"></scales>
<clustering>
<clus scale="   91.190">  5  6 -1 -1</clus>
<clus scale="   92.115">  7  8 -1 -1</clus>
<clus scale="  107.262">  2  5  1 -1</clus>
<clus scale="  171.111">  1  9  2 -1</clus>
<clus scale="  171.111">  1  5  2 -1</clus>
</clustering>
</event>
<event>
 9    1  0.1671478E-005  0.1721202E+03  0.7546771E-02  0.1175673E+00
         21   -1    0    0  501  502  0.00000000000E+00  0.00000000000E+00  0.15344393381E+03  0.15344393381E+03  0.00000000000E+00 0. -1.
          2   -1    0    0  502    0 -0.00000000000E+00 -0.00000000000E+00 -0.72783585328E+03  0.72783585328E+03  0.00000000000E+00 0. -1.
         23    2    1    2    0    0  0.11153230726E+03 -0.67615433641E+02 -0.31526183008E+03  0.35247099143E+03  0.88512574610E+02 0.  0.
         23    2    1    2    0    0 -0.89476017683E+02  0.16582737418E+03 -0.34070695845E+03  0.39924471599E+03  0.88376670778E+02 0.  0.
        -11    1    3    3    0    0  0.86069678828E+02 -0.85495753865E+02 -0.28166542234E+03  0.30668049120E+03  0.00000000000E+00 0. -1.
         11    1    3    3    0    0  0.25462628427E+02  0.17880320224E+02 -0.33596407740E+02  0.45790500224E+02  0.00000000000E+00 0.  1.
        -11    1    4    4    0    0 -0.70209983907E+02  0.11497562795E+03 -0.30702165124E+03  0.33527769265E+03  0.00000000000E+00 0. -1.
         11    1    4    4    0    0 -0.19266033775E+02  0.50851746229E+02 -0.33685307217E+02  0.63967023335E+02  0.00000000000E+00 0.  1.
          2    1    1    2  501    0 -0.22056289572E+02 -0.98211940541E+02  0.81576869063E+02  0.12956407967E+03  0.00000000000E+00 0. -1.
<scales pt_clust_5="13000.00000" pt_clust_6="13000.00000" pt_clust_7="13000.00000" pt_clust_8="13000.00000" pt_clust_9="100.65816"></scales>
<clustering>
<clus scale="   88.377">  7  8 -1 -1</clus>
<clus scale="   88.513">  5  6 -1 -1</clus>
<clus scale="  100.658">  1  9  2 -1</clus>
<clus scale="  172.050">  1  7  2 -1</clus>
<clus scale="  100.658">  1  5  2 -1</clus>
</clustering>
</event>
<event>
 9    1  0.1671478E-005  0.2837435E+03  0.7546771E-02  0.1093780E+00
         -3   -1    0    0    0  501 -0.00000000000E+00  0.00000000000E+00  0.30745045370E+03  0.30745045370E+03  0.00000000000E+00 0.  1.
         21   -1    0    0  501  502  0.00000000000E+00 -0.00000000000E+00 -0.32699833910E+03  0.32699833910E+03  0.00000000000E+00 0.  1.
         23    2    1    2    0    0  0.17094427597E+03 -0.18378619890E+03  0.12900046821E+02  0.26820612048E+03  0.93641868100E+02 0.  0.
         23    2    1    2    0    0 -0.21429822936E+03  0.19151817042E+03  0.14595545519E+02  0.30180326315E+03  0.90935356111E+02 0.  0.
        -13    1    4    4    0    0 -0.80086131011E+02  0.55064470691E+02  0.46542123420E+02  0.10775923889E+03  0.00000000000E+00 0. -1.
         13    1    4    4    0    0 -0.13421209834E+03  0.13645369973E+03 -0.31946577901E+02  0.19404402426E+03  0.00000000000E+00 0.  1.
        -13    1    3    3    0    0  0.81596014971E+02 -0.15182156977E+03  0.17197010667E+02  0.17321499901E+03  0.00000000000E+00 0.  1.
         13    1    3    3    0    0  0.89348261000E+02 -0.31964629127E+02 -0.42969638460E+01  0.94991121466E+02  0.00000000000E+00 0. -1.
         -3    1    1    2    0  502  0.43353953384E+02 -0.77319715179E+01 -0.47043477736E+02  0.64439409177E+02  0.00000000000E+00 0.  1.
<scales pt_clust_5="13000.00000" pt_clust_6="13000.00000" pt_clust_7="13000.00000" pt_clust_8="13000.00000" pt_clust_9="44.03804"></scales>
<clustering>
<clus scale="   44.038">  2  9  1 -1</clus>
<clus scale="   90.935">  5  6 -1 -1</clus>
<clus scale="   93.642">  7  8 -1 -1</clus>
<clus scale="  282.862">  2  5  1 -1</clus>
<clus scale="   44.038">  2  5  1 -1</clus>
</clustering>
</event>
<event>
 9    1  0.1671478E-005  0.2019982E+03  0.7546771E-02  0.1163524E+00
          1   -1    0    0  502    0 -0.00000000000E+00  0.00000000000E+00  0.13402534143E+03  0.13402534143E+03  0.00000000000E+00 0. -1.
         21   -1    0    0  501  502  0.00000000000E+00 -0.00000000000E+00 -0.74782804850E+03  0.74782804850E+03  0.00000000000E+00 0. -1.
         23    2    1    2    0    0  0.60253276783E+02 -0.88273296269E+02 -0.90368516135E+02  0.16710821023E+03  0.91301988035E+02 0.  0.
         23    2    1    2    0    0 -0.42264190105E+02  0.25036750101E+03 -0.15618720770E+03  0.31291376587E+03  0.95133767372E+02 0.  0.
        -11    1    3    3    0    0 -0.21674795417E+02 -0.20269769364E+02 -0.38703780280E+01  0.29927247326E+02  0.00000000000E+00 0. -1.
         11    1    3    3    0    0  0.81928072200E+02 -0.68003526905E+02 -0.86498138107E+02  0.13718096290E+03  0.00000000000E+00 0.  1.
        -13    1    4    4    0    0  0.20040643914E+02  0.46732158793E+02 -0.36759972288E+01  0.50980731944E+02  0.00000000000E+00 0.  1.
         13    1    4    4    0    0 -0.62304834019E+02  0.20363534222E+03 -0.15251121047E+03  0.26193303393E+03  0.00000000000E+00 0. -1.
          1    1    1    2  501    0 -0.17989086677E+02 -0.16209420474E+03 -0.36724698323E+03  0.40183141383E+03  0.00000000000E+00 0. -1.
<scales pt_clust_5="13000.00000" pt_clust_6="13000.00000" pt_clust_7="13000.00000" pt_clust_8="13000.00000" pt_clust_9="178.19327"></scales>
<clustering>
<clus scale="   91.302">  5  6 -1 -1</clus>
<clus scale="   95.134">  7  8 -1 -1</clus>
<clus scale="  140.566">  1  5  2 -1</clus>
<clus scale="  178.193">  2  9  1 -1</clus>
<clus scale="  178.193">  2  5  1 -1</clus>
</clustering>
</event>
<event>
 9    1  0.1671478E-005  0.9886929E+02  0.7546771E-02  0.1283652E+00
          1   -1    0    0  502    0 -0.00000000000E+00  0.00000000000E+00  0.36758016678E+03  0.36758016678E+03  0.00000000000E+00 0. -1.
         21   -1    0    0  501  502  0.00000000000E+00 -0.00000000000E+00 -0.47925243127E+02  0.47925243127E+02  0.00000000000E+00 0. -1.
         23    2    1    2    0    0 -0.10028266520E+02 -0.41854305286E+02  0.18628640844E+03  0.21165609243E+03  0.90792766748E+02 0.  0.
         23    2    1    2    0    0 -0.22085627674E+02  0.35259303016E+02  0.13945236639E+03  0.17050550995E+03  0.88849158876E+02 0.  0.
        -11    1    3    3    0    0  0.13271665265E+02  0.15078591944E+02  0.11820337450E+03  0.11989803492E+03  0.00000000000E+00 0.  1.
         11    1    3    3    0    0 -0.23299931785E+02 -0.56932897230E+02  0.68083033936E+02  0.91758057510E+02  0.00000000000E+00 0. -1.
        -13    1    4    4    0    0 -0.54414702983E+02  0.16364250403E+02  0.59805134395E+02  0.82494864640E+02  0.00000000000E+00 0. -1.
         13    1    4    4    0    0  0.32329075308E+02  0.18895052613E+02  0.79647231999E+02  0.88010645314E+02  0.00000000000E+00 0.  1.
          1    1    1    2  501    0  0.32113894194E+02  0.65950022699E+01 -0.60838511751E+01  0.33343807527E+02  0.00000000000E+00 0. -1.
<scales pt_clust_5="13000.00000" pt_clust_6="13000.00000" pt_clust_7="13000.00000" pt_clust_8="13000.00000" pt_clust_9="32.78409"></scales>
<clustering>
<clus scale="   32.784">  2  9  1 -1</clus>
<clus scale="   88.849">  7  8 -1 -1</clus>
<clus scale="   90.793">  5  6 -1 -1</clus>
<clus scale="   97.088">  2  7  1 -1</clus>
<clus scale="   32.784">  2  5  1 -1</clus>
</clustering>
</event>
<event>
 9    1  0.1671478E-005  0.1211570E+03  0.7546771E-02  0.1241480E+00
          1   -1    0    0  502    0 -0.00000000000E+00  0.00000000000E+00  0.60473405882E+02  0.60473405882E+02  0.00000000000E+00 0. -1.
         21   -1    0    0  501  502  0.00000000000E+00 -0.00000000000E+00 -0.41581202365E+03  0.41581202365E+03  0.00000000000E+00 0. -1.
         23    2    1    2    0    0  0.13674242749E+02  0.78097582274E+02 -0.10247805761E+03  0.15897438974E+03  0.92113446517E+02 0.  0.
         23    2    1    2    0    0  0.35276331705E+02 -0.75818933015E+02 -0.11099835700E+03  0.16722361305E+03  0.93006297221E+02 0.  0.
        -11    1    4    4    0    0  0.48624859875E+02 -0.51636693440E+02 -0.22340872005E+02  0.74362891748E+02  0.00000000000E+00 0. -1.
         11    1    4    4    0    0 -0.13348528169E+02 -0.24182239576E+02 -0.88657484995E+02  0.92860721302E+02  0.00000000000E+00 0.  1.
        -11    1    3    3    0    0 -0.21482693991E+02  0.83190879762E+02 -0.69646862975E+02  0.11060250512E+03  0.00000000000E+00 0. -1.
         11    1    3    3    0    0  0.35156936741E+02 -0.50932974874E+01 -0.32831194639E+02  0.48371884620E+02  0.00000000000E+00 0.  1.
          1    1    1    2  501    0 -0.48950574455E+02 -0.22786492590E+01 -0.14186220315E+03  0.15008742674E+03  0.00000000000E+00 0. -1.
<scales pt_clust_5="13000.00000" pt_clust_6="13000.00000" pt_clust_7="13000.00000" pt_clust_8="13000.00000" pt_clust_9="49.00358"></scales>
<clustering>
<clus scale="   49.004">  2  9  1 -1</clus>
<clus scale="   92.113">  7  8 -1 -1</clus>
<clus scale="   93.006">  5  6 -1 -1</clus>
<clus scale="  120.473">  1  7  2 -1</clus>
<clus scale="   49.004">  2  5  1 -1</clus>
</clustering>
</event>
<event>
 9    1  0.1671478E-005  0.1088956E+03  0.7546771E-02  0.1264459E+00
          1   -1    0    0  502    0 -0.00000000000E+00  0.00000000000E+00  0.58765933600E+03  0.58765933600E+03  0.00000000000E+00 0. -1.
         21   -1    0    0  501  502  0.00000000000E+00 -0.00000000000E+00 -0.29578217123E+03  0.29578217123E+03  0.00000000000E+00 0. -1.
         23    2    1    2    0    0  0.27857560551E+02  0.38064202453E+02  0.51615459140E+03  0.52660719046E+03  0.93137766930E+02 0.  0.
         23    2    1    2    0    0  0.50952709517E+01 -0.84231775362E+02 -0.35607377709E+01  0.12894576806E+03  0.97433969846E+02 0.  0.
        -11    1    4    4    0    0 -0.44117548157E+02 -0.57529588255E+02 -0.70911226346E+01  0.72844324421E+02  0.00000000000E+00 0.  1.
         11    1    4    4    0    0  0.49212819108E+02 -0.26702187107E+02  0.35303848637E+01  0.56101443637E+02  0.00000000000E+00 0. -1.
        -13    1    3    3    0    0  0.59531988671E+02  0.37903449497E+02  0.40160829102E+03  0.40776212254E+03  0.00000000000E+00 0. -1.
         13    1    3    3    0    0 -0.31674428120E+02  0.16075295608E+00  0.11454630038E+03  0.11884506792E+03  0.00000000000E+00 0.  1.
          1    1    1    2  501    0 -0.32952831503E+02  0.46167572909E+02 -0.22071668886E+03  0.22788854871E+03  0.00000000000E+00 0. -1.
<scales pt_clust_5="13000.00000" pt_clust_6="13000.00000" pt_clust_7="13000.00000" pt_clust_8="13000.00000" pt_clust_9="56.72155"></scales>
<clustering>
<clus scale="   56.722">  2  9  1 -1</clus>
<clus scale="   93.138">  7  8 -1 -1</clus>
<clus scale="   97.434">  5  6 -1 -1</clus>
<clus scale="  105.069">  1  7  2 -1</clus>
<clus scale="   56.722">  2  5  1 -1</clus>
</clustering>
</event>
<event>
 9    1  0.1671478E-005  0.1068363E+03  0.7546771E-02  0.1266856E+00
         21   -1    0    0  501  502  0.00000000000E+00  0.00000000000E+00  0.50120042865E+02  0.50120042865E+02  0.00000000000E+00 0. -1.
          2   -1    0    0  502    0 -0.00000000000E+00 -0.00000000000E+00 -0.63681714765E+03  0.63681714765E+03  0.00000000000E+00 0. -1.
         23    2    1    2    0    0 -0.12893747339E+02 -0.50421558886E+02 -0.42496017613E+03  0.43771263954E+03  0.91063830375E+02 0.  0.
         23    2    1    2    0    0  0.65726039334E+02  0.41860138796E+02 -0.15345266733E+03  0.19506572919E+03  0.91819029209E+02 0.  0.
        -11    1    4    4    0    0 -0.11880301535E+02  0.37030706810E+02 -0.75694030080E+02  0.85099947128E+02  0.00000000000E+00 0.  1.
         11    1    4    4    0    0  0.77606340869E+02  0.48294319865E+01 -0.77758637253E+02  0.10996578206E+03  0.00000000000E+00 0. -1.
        -11    1    3    3    0    0  0.31391225007E+02  0.71136996540E+01 -0.13925099665E+03  0.14292254475E+03  0.00000000000E+00 0.  1.
         11    1    3    3    0    0 -0.44284972346E+02 -0.57535258540E+02 -0.28570917948E+03  0.29479009480E+03  0.00000000000E+00 0. -1.
          2    1    1    2  501    0 -0.52832291995E+02  0.85614200895E+01 -0.82842613262E+01  0.54158821785E+02  0.00000000000E+00 0. -1.
<scales pt_clust_5="13000.00000" pt_clust_6="13000.00000" pt_clust_7="13000.00000" pt_clust_8="13000.00000" pt_clust_9="53.52148"></scales>
<clustering>
<clus scale="   53.521">  1  9  2 -1</clus>
<clus scale="   91.064">  7  8 -1 -1</clus>
<clus scale="   91.819">  5  6 -1 -1</clus>
<clus scale="  106.188">  2  7  1 -1</clus>
<clus scale="   53.521">  1  5  2 -1</clus>
</clustering>
</event>
<event>
 9    1  0.1671478E-005  0.9515734E+02  0.7546771E-02  0.1291445E+00
         21   -1    0    0  501  502  0.00000000000E+00  0.00000000000E+00  0.78007033945E+02  0.78007033945E+02  0.00000000000E+00 0.  1.
          1   -1    0    0  502    0 -0.00000000000E+00 -0.00000000000E+00 -0.37045779345E+03  0.37045779345E+03  0.00000000000E+00 0. -1.
         23    2    1    2    0    0 -0.33265579822E+02  0.35376662575E+01 -0.29589501508E+03  0.31090870604E+03  0.89393789848E+02 0.  0.
         23    2    1    2    0    0 -0.40193922180E+01  0.19105730333E+01  0.25130055887E+02  0.94080537551E+02  0.90552868722E+02 0.  0.
        -11    1    3    3    0    0 -0.60288389306E+02 -0.12528739318E+02 -0.22656655041E+03  0.23478513786E+03  0.00000000000E+00 0. -1.
         11    1    3    3    0    0  0.27022809483E+02  0.16066405576E+02 -0.69328464668E+02  0.76123568188E+02  0.00000000000E+00 0.  1.
        -13    1    4    4    0    0 -0.29574529620E+02 -0.84511791409E+01  0.48836403567E+02  0.57715418603E+02  0.00000000000E+00 0.  1.
         13    1    4    4    0    0  0.25555137402E+02  0.10361752174E+02 -0.23706347680E+02  0.36365118948E+02  0.00000000000E+00 0. -1.
          1    1    1    2  501    0  0.37284972040E+02 -0.54482392908E+01 -0.21685800317E+02  0.43475583801E+02  0.00000000000E+00 0. -1.
<scales pt_clust_5="13000.00000" pt_clust_6="13000.00000" pt_clust_7="13000.00000" pt_clust_8="13000.00000" pt_clust_9="37.68093"></scales>
<clustering>
<clus scale="   37.681">  1  9  2 -1</clus>
<clus scale="   89.394">  5  6 -1 -1</clus>
<clus scale="   90.553">  7  8 -1 -1</clus>
<clus scale="   94.055">  2  5  1 -1</clus>
<clus scale="   37.681">  1  5  2 -1</clus>
</clustering>
</event>
<event>
 9    1  0.1671478E-005  0.1051998E+03  0.7546771E-02  0.1271088E+00
         21   -1    0    0  501  502  0.00000000000E+00  0.00000000000E+00  0.16033112886E+03  0.16033112886E+03  0.00000000000E+00 0. -1.
          1   -1    0    0  502    0 -0.00000000000E+00 -0.00000000000E+00 -0.26967210963E+03  0.26967210963E+03  0.00000000000E+00 0. -1.
         23    2    1    2    0    0 -0.23947324765E+02  0.62639180814E+02 -0.18248718827E+03  0.21469420508E+03  0.91076267353E+02 0.  0.
         23    2    1    2    0    0 -0.88120283169E+00 -0.21596611064E+01 -0.24954283625E+02  0.97419532417E+02  0.94140365257E+02 0.  0.
        -13    1    3    3    0    0 -0.20234188128E+02 -0.56653262371E+01 -0.13324882336E+01  0.21054543820E+02  0.00000000000E+00 0.  1.
         13    1    3    3    0    0 -0.37131366377E+01  0.68304507051E+02 -0.18115470003E+03  0.19363966126E+03  0.00000000000E+00 0. -1.
        -13    1    4    4    0    0 -0.11433713669E+02  0.29066980891E+02  0.23309859504E+02  0.38973949459E+02  0.00000000000E+00 0. -1.
         13    1    4    4    0    0  0.10552510838E+02 -0.31226641997E+02 -0.48264143128E+02  0.58445582958E+02  0.00000000000E+00 0.  1.
          1    1    1    2  501    0  0.24828527597E+02 -0.60479519708E+02  0.98100491125E+02  0.11788950100E+03  0.00000000000E+00 0. -1.
<scales pt_clust_5="13000.00000" pt_clust_6="13000.00000" pt_clust_7="13000.00000" pt_clust_8="13000.00000" pt_clust_9="65.37758"></scales>
<clustering>
<clus scale="   65.378">  1  9  2 -1</clus>
<clus scale="   91.076">  5  6 -1 -1</clus>
<clus scale="   94.140">  7  8 -1 -1</clus>
<clus scale="  102.467">  2  5  1 -1</clus>
<clus scale="   65.378">  1  5  2 -1</clus>
</clustering>
</event>
<event>
 9    1  0.1671478E-005  0.1311932E+03  0.7546771E-02  0.1226344E+00
         -1   -1    0    0    0  501 -0.00000000000E+00  0.00000000000E+00  0.25828447748E+03  0.25828447748E+03  0.00000000000E+00 0.  1.
         21   -1    0    0  501  502  0.00000000000E+00 -0.00000000000E+00 -0.12090286524E+03  0.12090286524E+03  0.00000000000E+00 0. -1.
         23    2    1    2    0    0 -0.87353111780E+02  0.41936608142E+02  0.13367695885E+03  0.18822767816E+03  0.90392943622E+02 0.  0.
         23    2    1    2    0    0  0.62242501225E+02 -0.63748465301E+02  0.46417473328E+02  0.13682386436E+03  0.92888062966E+02 0.  0.
        -11    1    4    4    0    0  0.40678004902E+02  0.86245766743E+01  0.45031481130E+02  0.61293700315E+02  0.00000000000E+00 0.  1.
         11    1    4    4    0    0  0.21564496323E+02 -0.72373041975E+02  0.13859921983E+01  0.75530164046E+02  0.00000000000E+00 0. -1.
        -13    1    3    3    0    0 -0.54501803451E+02  0.92000340753E+01  0.10038432744E+02  0.56177017884E+02  0.00000000000E+00 0. -1.
         13    1    3    3    0    0 -0.32851308329E+02  0.32736574067E+02  0.12363852611E+03  0.13205066027E+03  0.00000000000E+00 0.  1.
         -1    1    1    2    0  502  0.25110610555E+02  0.21811857159E+02 -0.42712819941E+02  0.54135800193E+02  0.00000000000E+00 0.  1.
<scales pt_clust_5="13000.00000" pt_clust_6="13000.00000" pt_clust_7="13000.00000" pt_clust_8="13000.00000" pt_clust_9="33.26109"></scales>
<clustering>
<clus scale="   33.261">  2  9  1 -1</clus>
<clus scale="   90.393">  7  8 -1 -1</clus>
<clus scale="   92.888">  5  6 -1 -1</clus>
<clus scale="  129.439">  1  7  2 -1</clus>
<clus scale="   33.261">  2  5  1 -1</clus>
</clustering>
</event>
<event>
 9    1  0.1837376E-005  0.9374589E+02  0.7546771E-02  0.1297535E+00
         21   -1    0    0  501  502  0.00000000000E+00  0.00000000000E+00  0.63914016881E+02  0.63914016881E+02  0.00000000000E+00 0. -1.
         -2   -1    0    0    0  501 -0.00000000000E+00 -0.00000000000E+00 -0.33705266117E+03  0.33705266117E+03  0.00000000000E+00 0.  1.
         23    2    1    2    0    0  0.16540693290E+00 -0.53090003561E+01 -0.23641763397E+03  0.25196434467E+03  0.86974251896E+02 0.  0.
         23    2    1    2    0    0 -0.41462165544E+01  0.42212508941E+02 -0.43905231228E+02  0.11119586804E+03  0.92939575623E+02 0.  0.
        -11    1    3    3    0    0  0.28918172646E+02  0.27342829178E+02 -0.76486630899E+02  0.86221202282E+02  0.00000000000E+00 0. -1.
         11    1    3    3    0    0 -0.28752765714E+02 -0.32651829534E+02 -0.15993100307E+03  0.16574314239E+03  0.00000000000E+00 0.  1.
        -13    1    4    4    0    0 -0.54766491289E-01 -0.25464597336E+02  0.70033835935E+01  0.26410151431E+02  0.00000000000E+00 0.  1.
         13    1    4    4    0    0 -0.40914500631E+01  0.67677106277E+02 -0.50908614821E+02  0.84785716608E+02  0.00000000000E+00 0. -1.
         -2    1    1    2    0  502  0.39808096215E+01 -0.36903508585E+02  0.71842209066E+01  0.37806465336E+02  0.00000000000E+00 0.  1.
<scales pt_clust_5="13000.00000" pt_clust_6="13000.00000" pt_clust_7="13000.00000" pt_clust_8="13000.00000" pt_clust_9="37.11759"></scales>
<clustering>
<clus scale="   37.118">  1  9  2 -1</clus>
<clus scale="   86.974">  5  6 -1 -1</clus>
<clus scale="   87.835">  2  5  1 -1</clus>
<clus scale="   92.940">  7  8 -1 -1</clus>
<clus scale="   37.118">  1  5  2 -1</clus>
</clustering>
</event>
<event>
 9    1  0.1671478E-005  0.1052171E+03  0.7546771E-02  0.1271770E+00
         21   -1    0    0  501  502  0.00000000000E+00  0.00000000000E+00  0.27914475399E+03  0.27914475399E+03  0.00000000000E+00 0. -1.
         -3   -1    0    0    0  501 -0.00000000000E+00 -0.00000000000E+00 -0.12805207207E+03  0.12805207207E+03  0.00000000000E+00 0.  1.
         23    2    1    2    0    0 -0.51648842738E+02  0.40921037922E+02 -0.87269069529E+02  0.13700833412E+03  0.82542466771E+02 0.  0.
         23    2    1    2    0    0  0.30648659748E+02 -0.56853686776E+02  0.19495000039E+03  0.21940033273E+03  0.77196640514E+02 0.  0.
        -13    1    4    4    0    0  0.11949263168E+02 -0.20330585080E+02  0.37881588480E+01  0.23884466236E+02  0.00000000000E+00 0.  1.
         13    1    4    4    0    0  0.18699396580E+02 -0.36523101697E+02  0.19116184154E+03  0.19551586650E+03  0.00000000000E+00 0. -1.
        -13    1    3    3    0    0  0.61937062423E+01 -0.20300475755E+02 -0.20766139368E+02  0.29693498567E+02  0.00000000000E+00 0. -1.
         13    1    3    3    0    0 -0.57842548981E+02  0.61221513677E+02 -0.66502930161E+02  0.10731483555E+03  0.00000000000E+00 0.  1.
         -3    1    1    2    0  502  0.21000182991E+02  0.15932648854E+02  0.43411751064E+02  0.50788159207E+02  0.00000000000E+00 0.  1.
<scales pt_clust_5="13000.00000" pt_clust_6="13000.00000" pt_clust_7="13000.00000" pt_clust_8="13000.00000" pt_clust_9="26.36014"></scales>
<clustering>
<clus scale="   26.360">  1  9  2 -1</clus>
<clus scale="   77.197">  5  6 -1 -1</clus>
<clus scale="   82.542">  7  8 -1 -1</clus>
<clus scale="  101.078">  1  5  2 -1</clus>
<clus scale="   26.360">  1  5  2 -1</clus>
</clustering>
</event>
<event>
 9    1  0.1671478E-005  0.1059076E+03  0.7546771E-02  0.1268428E+00
         -1   -1    0    0    0  501 -0.00000000000E+00  0.00000000000E+00  0.17864260201E+03  0.17864260201E+03  0.00000000000E+00 0.  1.
         21   -1    0    0  501  502  0.00000000000E+00 -0.00000000000E+00 -0.20096657326E+03  0.20096657326E+03  0.00000000000E+00 0.  1.
         23    2    1    2    0    0 -0.14127520801E+02  0.44836900738E+02  0.75240438786E+02  0.12705321763E+03  0.90947578135E+02 0.  0.
         23    2    1    2    0    0 -0.70982690006E+01 -0.10063363481E+03 -0.12694936623E+03  0.18601810875E+03  0.91154162382E+02 0.  0.
        -11    1    4    4    0    0 -0.28435957243E+02 -0.43437596642E+02 -0.82885727025E+01  0.52574983631E+02  0.00000000000E+00 0. -1.
         11    1    4    4    0    0  0.21337688242E+02 -0.57196038167E+02 -0.11866079352E+03  0.13344312512E+03  0.00000000000E+00 0.  1.
        -13    1    3    3    0    0 -0.47919576905E+02  0.48718809539E+02  0.51638284126E+02  0.85652324202E+02  0.00000000000E+00 0.  1.
         13    1    3    3    0    0  0.33792056105E+02 -0.38819088014E+01  0.23602154660E+02  0.41400893424E+02  0.00000000000E+00 0. -1.
         -1    1    1    2    0  502  0.21225789801E+02  0.55796734070E+02  0.29384956195E+02  0.66537848900E+02  0.00000000000E+00 0.  1.
<scales pt_clust_5="13000.00000" pt_clust_6="13000.00000" pt_clust_7="13000.00000" pt_clust_8="13000.00000" pt_clust_9="59.69768"></scales>
<clustering>
<clus scale="   59.698">  2  9  1 -1</clus>
<clus scale="   90.948">  7  8 -1 -1</clus>
<clus scale="   91.154">  5  6 -1 -1</clus>
<clus scale="  105.730">  1  7  2 -1</clus>
<clus scale="   59.698">  2  5  1 -1</clus>
</clustering>
</event>
<event>
 9    1  0.1671478E-005  0.1203169E+03  0.7546771E-02  0.1242836E+00
          1   -1    0    0  502    0 -0.00000000000E+00  0.00000000000E+00  0.34119153837E+03  0.34119153837E+03  0.00000000000E+00 0. -1.
         21   -1    0    0  501  502  0.00000000000E+00 -0.00000000000E+00 -0.16099670378E+03  0.16099670378E+03  0.00000000000E+00 0. -1.
         23    2    1    2    0    0 -0.76771655644E+02  0.29998468206E+02  0.25626568448E+03  0.28420693203E+03  0.91146497273E+02 0.  0.
         23    2    1    2    0    0  0.39244606159E+02 -0.57864414669E+02  0.14125188529E+02  0.11639333956E+03  0.91975317045E+02 0.  0.
        -13    1    4    4    0    0 -0.87402134474E+01 -0.63914143189E+02  0.20319734195E+02  0.67633576192E+02  0.00000000000E+00 0. -1.
         13    1    4    4    0    0  0.47984819606E+02  0.60497285202E+01 -0.61945456660E+01  0.48759763369E+02  0.00000000000E+00 0.  1.
        -13    1    3    3    0    0 -0.29499266155E+02  0.58799330062E+02  0.16265519620E+03  0.17545449772E+03  0.00000000000E+00 0.  1.
         13    1    3    3    0    0 -0.47272389489E+02 -0.28800861856E+02  0.93610488285E+02  0.10875243431E+03  0.00000000000E+00 0. -1.
          1    1    1    2  501    0  0.37527049485E+02  0.27865946463E+02 -0.90196038424E+02  0.10158797056E+03  0.00000000000E+00 0. -1.
<scales pt_clust_5="13000.00000" pt_clust_6="13000.00000" pt_clust_7="13000.00000" pt_clust_8="13000.00000" pt_clust_9="46.74174"></scales>
<clustering>
<clus scale="   46.742">  2  9  1 -1</clus>
<clus scale="   91.146">  7  8 -1 -1</clus>
<clus scale="   91.975">  5  6 -1 -1</clus>
<clus scale="  119.685">  1  7  2 -1</clus>
<clus scale="   46.742">  2  5  1 -1</clus>
</clustering>
</event>
<event>
 9    1  0.1671478E-005  0.1757492E+03  0.7546771E-02  0.1172225E+00
          2   -1    0    0  502    0 -0.00000000000E+00  0.00000000000E+00  0.25717421911E+03  0.25717421911E+03  0.00000000000E+00 0. -1.
         21   -1    0    0  501  502  0.00000000000E+00 -0.00000000000E+00 -0.30197846855E+03  0.30197846855E+03  0.00000000000E+00 0.  1.
         23    2    1    2    0    0  0.51728926217E+02  0.10493973586E+03  0.31513137807E+02  0.15165694142E+03  0.91205921177E+02 0.  0.
         23    2    1    2    0    0  0.60598812053E+01 -0.23414210303E+03 -0.12788247195E+02  0.25235468274E+03  0.93059658646E+02 0.  0.
        -11    1    4    4    0    0 -0.25977587858E+02 -0.20044360152E+03 -0.26567987100E+02  0.20385860394E+03  0.00000000000E+00 0.  1.
         11    1    4    4    0    0  0.32037469064E+02 -0.33698501507E+02  0.13779739905E+02  0.48496078807E+02  0.00000000000E+00 0. -1.
        -11    1    3    3    0    0  0.75871544653E+02  0.68055769632E+02  0.94441781607E+01  0.10235854419E+03  0.00000000000E+00 0. -1.
         11    1    3    3    0    0 -0.24142618436E+02  0.36883966228E+02  0.22068959646E+02  0.49298397231E+02  0.00000000000E+00 0.  1.
          2    1    1    2  501    0 -0.57788807422E+02  0.12920236717E+03 -0.63529140051E+02  0.15514106349E+03  0.00000000000E+00 0. -1.
<scales pt_clust_5="13000.00000" pt_clust_6="13000.00000" pt_clust_7="13000.00000" pt_clust_8="13000.00000" pt_clust_9="141.53727"></scales>
<clustering>
<clus scale="   91.206">  7  8 -1 -1</clus>
<clus scale="   93.060">  5  6 -1 -1</clus>
<clus scale="  141.537">  2  9  1 -1</clus>
<clus scale="  174.775">  1  7  2 -1</clus>
<clus scale="  141.537">  2  5  1 -1</clus>
</clustering>
</event>
<event>
 9    1  0.1671478E-005  0.1033606E+03  0.7546771E-02  0.1273737E+00
         21   -1    0    0  501  502  0.00000000000E+00  0.00000000000E+00  0.40601715918E+03  0.40601715918E+03  0.00000000000E+00 0. -1.
          3   -1    0    0  502    0 -0.00000000000E+00 -0.00000000000E+00 -0.76303386599E+02  0.76303386599E+02  0.00000000000E+00 0. -1.
         23    2    1    2    0    0  0.38699344736E+02  0.50909726040E+02  0.41451473961E+02  0.11830825122E+03  0.90494077844E+02 0.  0.
         23    2    1    2    0    0 -0.58426026731E+02  0.46146109910E+02  0.11610085136E+03  0.16539572627E+03  0.91286770804E+02 0.  0.
        -13    1    4    4    0    0 -0.34486210379E+02  0.15308042645E+02 -0.50892315947E+01  0.38072761315E+02  0.00000000000E+00 0.  1.
         13    1    4    4    0    0 -0.23939816352E+02  0.30838067265E+02  0.12119008295E+03  0.12732296496E+03  0.00000000000E+00 0. -1.
        -13    1    3    3    0    0 -0.27763283883E+02  0.30171496659E+02  0.18677840710E+02  0.45055309079E+02  0.00000000000E+00 0.  1.
         13    1    3    3    0    0  0.66462628620E+02  0.20738229381E+02  0.22773633251E+02  0.73252942141E+02  0.00000000000E+00 0. -1.
          3    1    1    2  501    0  0.19726681995E+02 -0.97055835950E+02  0.17216144726E+03  0.19861656829E+03  0.00000000000E+00 0. -1.
<scales pt_clust_5="13000.00000" pt_clust_6="13000.00000" pt_clust_7="13000.00000" pt_clust_8="13000.00000" pt_clust_9="99.04028"></scales>
<clustering>
<clus scale="   90.494">  7  8 -1 -1</clus>
<clus scale="   91.287">  5  6 -1 -1</clus>
<clus scale="   99.040">  1  9  2 -1</clus>
<clus scale="  102.661">  2  7  1 -1</clus>
<clus scale="   99.040">  1  5  2 -1</clus>
</clustering>
</event>
<event>
 9    1  0.1671478E-005  0.1420642E+03  0.7546771E-02  0.1219675E+00
          2   -1    0    0  502    0 -0.00000000000E+00  0.00000000000E+00  0.86186214978E+03  0.86186214978E+03  0.00000000000E+00 0. -1.
         21   -1    0    0  501  502  0.00000000000E+00 -0.00000000000E+00 -0.64989627820E+02  0.64989627820E+02  0.00000000000E+00 0.  1.
         23    2    1    2    0    0  0.45120237953E+01 -0.76654397900E+02  0.73595162351E+03  0.75001429967E+03  0.12247613027E+03 0.  0.
         23    2    1    2    0    0 -0.20406201647E+02  0.52607213885E+02  0.86251125201E+02  0.13846414949E+03  0.92461516734E+02 0.  0.
        -13    1    4    4    0    0 -0.35818214191E+02  0.24044319856E+02 -0.32476739484E+01  0.43262237243E+02  0.00000000000E+00 0.  1.
         13    1    4    4    0    0  0.15412012545E+02  0.28562894028E+02  0.89498799150E+02  0.95201912245E+02  0.00000000000E+00 0. -1.
        -13    1    3    3    0    0  0.57499101742E+02 -0.70645661308E+02  0.48006937638E+03  0.48863438510E+03  0.00000000000E+00 0. -1.
         13    1    3    3    0    0 -0.52987077947E+02 -0.60087365920E+01  0.25588224713E+03  0.26137991457E+03  0.00000000000E+00 0.  1.
          2    1    1    2  501    0  0.15894177851E+02  0.24047184015E+02 -0.25330226749E+02  0.38373328443E+02  0.00000000000E+00 0. -1.
<scales pt_clust_5="13000.00000" pt_clust_6="13000.00000" pt_clust_7="13000.00000" pt_clust_8="13000.00000" pt_clust_9="28.82520"></scales>
<clustering>
<clus scale="   28.825">  2  9  1 -1</clus>
<clus scale="   92.462">  5  6 -1 -1</clus>
<clus scale="  117.179">  2  5  1 -1</clus>
<clus scale="  122.476">  7  8 -1 -1</clus>
<clus scale="   28.825">  2  5  1 -1</clus>
</clustering>
</event>
<event>
 9    1  0.2148786E-005  0.9247069E+02  0.7546771E-02  0.1297972E+00
         21   -1    0    0  501  502  0.00000000000E+00  0.00000000000E+00  0.46003618419E+03  0.46003618419E+03  0.00000000000E+00 0. -1.
         -3   -1    0    0    0  501 -0.00000000000E+00 -0.00000000000E+00 -0.11177111634E+03  0.11177111634E+03  0.00000000000E+00 0.  1.
         23    2    1    2    0    0 -0.88331201400E+01  0.32454183883E+01 -0.52522965861E+02  0.10655815673E+03  0.92235687625E+02 0.  0.
         23    2    1    2    0    0 -0.43401228580E+02  0.43589929505E+02  0.76712224514E+02  0.13366641339E+03  0.90543890357E+02 0.  0.
        -11    1    3    3    0    0 -0.10718389555E+02 -0.38977936095E+02 -0.49888384115E+02  0.64210701962E+02  0.00000000000E+00 0.  1.
         11    1    3    3    0    0  0.18852694151E+01  0.42223354483E+02 -0.26345817453E+01  0.42347454770E+02  0.00000000000E+00 0. -1.
        -13    1    4    4    0    0 -0.44909526071E+02  0.69413502790E+02  0.65484880698E+02  0.10546738596E+03  0.00000000000E+00 0. -1.
         13    1    4    4    0    0  0.15082974908E+01 -0.25823573285E+02  0.11227343817E+02  0.28199027425E+02  0.00000000000E+00 0.  1.
         -3    1    1    2    0  502  0.52234348720E+02 -0.46835347893E+02  0.32407580920E+03  0.33158273041E+03  0.00000000000E+00 0.  1.
<scales pt_clust_5="13000.00000" pt_clust_6="13000.00000" pt_clust_7="13000.00000" pt_clust_8="13000.00000" pt_clust_9="70.15680"></scales>
<clustering>
<clus scale="   70.157">  1  9  2 -1</clus>
<clus scale="   90.544">  7  8 -1 -1</clus>
<clus scale="   90.783">  1  7  2 -1</clus>
<clus scale="   92.236">  5  6 -1 -1</clus>
<clus scale="   70.157">  1  5  2 -1</clus>
</clustering>
</event>
<event>
 9    1  0.1671478E-005  0.1171541E+03  0.7546771E-02  0.1247938E+00
          2   -1    0    0  502    0 -0.00000000000E+00  0.00000000000E+00  0.34654153615E+03  0.34654153615E+03  0.00000000000E+00 0. -1.
         21   -1    0    0  501  502  0.00000000000E+00 -0.00000000000E+00 -0.31002958063E+03  0.31002958063E+03  0.00000000000E+00 0. -1.
         23    2    1    2    0    0  0.67714431628E+02 -0.28879325107E+02  0.31265574178E+03  0.33415164154E+03  0.92111057998E+02 0.  0.
         23    2    1    2    0    0 -0.33703577209E+02  0.50553195315E+02 -0.12910569919E+03  0.16995080987E+03  0.92322475807E+02 0.  0.
        -11    1    3    3    0    0  0.25528545085E+02  0.21870282511E+02  0.34093320108E+02  0.47878704528E+02  0.00000000000E+00 0.  1.
         11    1    3    3    0    0  0.42185886543E+02 -0.50749607618E+02  0.27856242167E+03  0.28627293701E+03  0.00000000000E+00 0. -1.
        -13    1    4    4    0    0 -0.55097128325E+02  0.24787403251E+02 -0.12137527749E+03  0.13558048125E+03  0.00000000000E+00 0.  1.
         13    1    4    4    0    0  0.21393551116E+02  0.25765792064E+02 -0.77304217003E+01  0.34370328623E+02  0.00000000000E+00 0. -1.
          2    1    1    2  501    0 -0.34010854419E+02 -0.21673870208E+02 -0.14703808708E+03  0.15246866537E+03  0.00000000000E+00 0. -1.
<scales pt_clust_5="13000.00000" pt_clust_6="13000.00000" pt_clust_7="13000.00000" pt_clust_8="13000.00000" pt_clust_9="40.32983"></scales>
<clustering>
<clus scale="   40.330">  2  9  1 -1</clus>
<clus scale="   92.111">  5  6 -1 -1</clus>
<clus scale="   92.322">  7  8 -1 -1</clus>
<clus scale="  116.988">  1  5  2 -1</clus>
<clus scale="   40.330">  2  5  1 -1</clus>
</clustering>
</event>
<event>
 9    1  0.1671478E-005  0.1092833E+03  0.7546771E-02  0.1262543E+00
         -1   -1    0    0    0  501 -0.00000000000E+00  0.00000000000E+00  0.37017673802E+03  0.37017673802E+03  0.00000000000E+00 0.  1.
         21   -1    0    0  501  502  0.00000000000E+00 -0.00000000000E+00 -0.20212473038E+03  0.20212473038E+03  0.00000000000E+00 0.  1.
         23    2    1    2    0    0  0.41873274292E+02  0.53494543326E+02  0.23096031464E+03  0.25751167581E+03  0.91403276612E+02 0.  0.
         23    2    1    2    0    0 -0.10150677224E+02 -0.42152301982E+02  0.10306084760E+03  0.14543593262E+03  0.93006555571E+02 0.  0.
        -11    1    4    4    0    0 -0.40049521076E+02  0.85424419071E+01  0.59429679341E+02  0.72172184661E+02  0.00000000000E+00 0. -1.
         11    1    4    4    0    0  0.29898843852E+02 -0.50694743889E+02  0.43631168260E+02  0.73263747962E+02  0.00000000000E+00 0.  1.
        -11    1    3    3    0    0  0.25712758844E+02 -0.11172516366E+02  0.15623912024E+02  0.32094823824E+02  0.00000000000E+00 0. -1.
         11    1    3    3    0    0  0.16160515448E+02  0.64667059693E+02  0.21533640262E+03  0.22541685199E+03  0.00000000000E+00 0.  1.
         -1    1    1    2    0  502 -0.31722597068E+02 -0.11342241345E+02 -0.16596915460E+03  0.16935385996E+03  0.00000000000E+00 0.  1.
<scales pt_clust_5="13000.00000" pt_clust_6="13000.00000" pt_clust_7="13000.00000" pt_clust_8="13000.00000" pt_clust_9="33.68931"></scales>
<clustering>
<clus scale="   33.689">  2  9  1 -1</clus>
<clus scale="   91.403">  7  8 -1 -1</clus>
<clus scale="   93.007">  5  6 -1 -1</clus>
<clus scale="  107.922">  1  7  2 -1</clus>
<clus scale="   33.689">  2  5  1 -1</clus>
</clustering>
</event>
<event>
 9    1  0.1671478E-005  0.1043200E+03  0.7546771E-02  0.1271563E+00
         21   -1    0    0  501  502  0.00000000000E+00  0.00000000000E+00  0.12154570629E+03  0.12154570629E+03  0.00000000000E+00 0.  1.
          1   -1    0    0  502    0 -0.00000000000E+00 -0.00000000000E+00 -0.10898584645E+03  0.10898584645E+03  0.00000000000E+00 0. -1.
         23    2    1    2    0    0  0.37419875547E+02  0.16289639625E+02  0.58241417233E+01  0.10010802690E+03  0.91225528099E+02 0.  0.
         23    2    1    2    0    0 -0.57555349365E+02 -0.17483468472E+02  0.10404193559E+01  0.10946406589E+03  0.91449490646E+02 0.  0.
        -11    1    4    4    0    0  0.21631512614E+02 -0.40306333761E+01  0.16708566128E+02  0.27628690259E+02  0.00000000000E+00 0. -1.
         11    1    4    4    0    0 -0.79186861979E+02 -0.13452835095E+02 -0.15668146772E+02  0.81835375636E+02  0.00000000000E+00 0.  1.
        -13    1    3    3    0    0  0.15975451209E+02 -0.28111187798E+02 -0.25941270912E+02  0.41453630206E+02  0.00000000000E+00 0. -1.
         13    1    3    3    0    0  0.21444424338E+02  0.44400827423E+02  0.31765412635E+02  0.58654396689E+02  0.00000000000E+00 0.  1.
          1    1    1    2  501    0  0.20135473818E+02  0.11938288463E+01  0.56952987578E+01  0.20959459943E+02  0.00000000000E+00 0. -1.
<scales pt_clust_5="13000.00000" pt_clust_6="13000.00000" pt_clust_7="13000.00000" pt_clust_8="13000.00000" pt_clust_9="20.17083"></scales>
<clustering>
<clus scale="   20.171">  1  9  2 -1</clus>
<clus scale="   91.226">  7  8 -1 -1</clus>
<clus scale="   91.449">  5  6 -1 -1</clus>
<clus scale="  104.124">  2  7  1 -1</clus>
<clus scale="   20.171">  1  5  2 -1</clus>
</clustering>
</event>
<event>
 9    1  0.1671478E-005  0.1044229E+03  0.7546771E-02  0.1271612E+00
         -1   -1    0    0    0  501 -0.00000000000E+00  0.00000000000E+00  0.82916694656E+02  0.82916694656E+02  0.00000000000E+00 0.  1.
         21   -1    0    0  501  502  0.00000000000E+00 -0.00000000000E+00 -0.20752620812E+03  0.20752620812E+03  0.00000000000E+00 0. -1.
         23    2    1    2    0    0  0.39535439181E+02 -0.11065106708E+02 -0.27384221855E+01  0.10045092479E+03  0.91637338441E+02 0.  0.
         23    2    1    2    0    0 -0.60173283054E+02  0.17958598565E+02 -0.65410614794E+02  0.12948391047E+03  0.92434838064E+02 0.  0.
        -11    1    3    3    0    0  0.42193149203E+02  0.11005813209E+02  0.35494410831E+02  0.56224931875E+02  0.00000000000E+00 0.  1.
         11    1    3    3    0    0 -0.26577100219E+01 -0.22070919917E+02 -0.38232833016E+02  0.44225992911E+02  0.00000000000E+00 0. -1.
        -13    1    4    4    0    0 -0.18250594460E+02 -0.32144645925E+02 -0.50315151609E+02  0.62433780449E+02  0.00000000000E+00 0. -1.
         13    1    4    4    0    0 -0.41922688594E+02  0.50103244491E+02 -0.15095463185E+02  0.67050130024E+02  0.00000000000E+00 0.  1.
         -1    1    1    2    0  502  0.20637843873E+02 -0.68934918570E+01 -0.56460476482E+02  0.60508067514E+02  0.00000000000E+00 0.  1.
<scales pt_clust_5="13000.00000" pt_clust_6="13000.00000" pt_clust_7="13000.00000" pt_clust_8="13000.00000" pt_clust_9="21.75870"></scales>
<clustering>
<clus scale="   21.759">  2  9  1 -1</clus>
<clus scale="   91.637">  5  6 -1 -1</clus>
<clus scale="   92.435">  7  8 -1 -1</clus>
<clus scale="  103.718">  1  5  2 -1</clus>
<clus scale="   21.759">  2  5  1 -1</clus>
</clustering>
</event>
<event>
 9    1  0.1671478E-005  0.1295259E+03  0.7546771E-02  0.1228272E+00
         21   -1    0    0  501  502  0.00000000000E+00  0.00000000000E+00  0.78172992299E+02  0.78172992299E+02  0.00000000000E+00 0.  1.
          1   -1    0    0  502    0 -0.00000000000E+00 -0.00000000000E+00 -0.39024491620E+03  0.39024491620E+03  0.00000000000E+00 0. -1.
         23    2    1    2    0    0  0.86418237635E+02 -0.23719986686E+02 -0.24127747244E+03  0.27290171198E+03  0.90718113576E+02 0.  0.
         23    2    1    2    0    0 -0.90922388160E+02  0.48517854765E+02 -0.20283126066E+02  0.13906608025E+03  0.91143329839E+02 0.  0.
        -11    1    3    3    0    0  0.82128894720E+02 -0.51944720384E+02 -0.16544786022E+03  0.19187601146E+03  0.00000000000E+00 0. -1.
         11    1    3    3    0    0  0.42893429150E+01  0.28224733698E+02 -0.75829612221E+02  0.81025700519E+02  0.00000000000E+00 0.  1.
        -11    1    4    4    0    0 -0.79605733169E+02  0.15317164757E+02  0.22125542275E+02  0.84031112753E+02  0.00000000000E+00 0.  1.
         11    1    4    4    0    0 -0.11316654991E+02  0.33200690009E+02 -0.42408668341E+02  0.55034967499E+02  0.00000000000E+00 0. -1.
          1    1    1    2  501    0  0.45041505255E+01 -0.24797868079E+02 -0.50511325395E+02  0.56450116266E+02  0.00000000000E+00 0. -1.
<scales pt_clust_5="13000.00000" pt_clust_6="13000.00000" pt_clust_7="13000.00000" pt_clust_8="13000.00000" pt_clust_9="25.20362"></scales>
<clustering>
<clus scale="   25.204">  1  9  2 -1</clus>
<clus scale="   90.718">  5  6 -1 -1</clus>
<clus scale="   91.143">  7  8 -1 -1</clus>
<clus scale="  129.227">  2  5  1 -1</clus>
<clus scale="   25.204">  1  5  2 -1</clus>
</clustering>
</event>
<event>
 9    1  0.1671478E-005  0.9708594E+02  0.7546771E-02  0.1292801E+00
         21   -1    0    0  501  502  0.00000000000E+00  0.00000000000E+00  0.44504542411E+02  0.44504542411E+02  0.00000000000E+00 0. -1.
          2   -1    0    0  502    0 -0.00000000000E+00 -0.00000000000E+00 -0.51969499347E+03  0.51969499347E+03  0.00000000000E+00 0. -1.
         23    2    1    2    0    0 -0.34429478249E+01  0.19899610669E+02 -0.20799170445E+03  0.22849337570E+03  0.92416585221E+02 0.  0.
         23    2    1    2    0    0 -0.57696399252E+02  0.39847811982E+00 -0.24993551646E+03  0.26901244770E+03  0.81061096449E+02 0.  0.
        -13    1    3    3    0    0  0.18858109580E+02 -0.32157370758E+02 -0.69433274690E+02  0.78808022594E+02  0.00000000000E+00 0.  1.
         13    1    3    3    0    0 -0.22301057405E+02  0.52056981427E+02 -0.13855842976E+03  0.14968535311E+03  0.00000000000E+00 0. -1.
        -13    1    4    4    0    0 -0.73467604947E+02 -0.17534785778E+02 -0.18501478709E+03  0.19983850763E+03  0.00000000000E+00 0.  1.
         13    1    4    4    0    0  0.15771205695E+02  0.17933263898E+02 -0.64920729368E+02  0.69173940070E+02  0.00000000000E+00 0. -1.
          2    1    1    2  501    0  0.61139347077E+02 -0.20298088789E+02 -0.17263230148E+02  0.66693712482E+02  0.00000000000E+00 0. -1.
<scales pt_clust_5="13000.00000" pt_clust_6="13000.00000" pt_clust_7="13000.00000" pt_clust_8="13000.00000" pt_clust_9="64.42074"></scales>
<clustering>
<clus scale="   64.421">  1  9  2 -1</clus>
<clus scale="   81.061">  7  8 -1 -1</clus>
<clus scale="   86.347">  1  7  2 -1</clus>
<clus scale="   92.417">  5  6 -1 -1</clus>
<clus scale="   64.421">  1  5  2 -1</clus>
</clustering>
</event>
<event>
 9    1  0.1671478E-005  0.2072161E+03  0.7546771E-02  0.1181289E+00
          1   -1    0    0  502    0 -0.00000000000E+00  0.00000000000E+00  0.26012776586E+03  0.26012776586E+03  0.00000000000E+00 0. -1.
         21   -1    0    0  501  502  0.00000000000E+00 -0.00000000000E+00 -0.28014978286E+03  0.28014978286E+03  0.00000000000E+00 0. -1.
         23    2    1    2    0    0 -0.26958033856E+02 -0.18812085698E+02  0.88896639148E+02  0.12429972925E+03  0.80418779414E+02 0.  0.
         23    2    1    2    0    0  0.11142784892E+03 -0.14819826525E+03 -0.17251807321E+02  0.20757815979E+03  0.91717916622E+02 0.  0.
        -11    1    4    4    0    0  0.12263906361E+03 -0.13083068892E+03 -0.32037041758E+02  0.18216306193E+03  0.00000000000E+00 0. -1.
         11    1    4    4    0    0 -0.11211214685E+02 -0.17367576329E+02  0.14785234437E+02  0.25415097867E+02  0.00000000000E+00 0.  1.
        -13    1    3    3    0    0 -0.36082412963E+02  0.23550730679E+02  0.50680919114E+02  0.66521673182E+02  0.00000000000E+00 0.  1.
         13    1    3    3    0    0  0.91243791067E+01 -0.42362816377E+02  0.38215720034E+02  0.57778056069E+02  0.00000000000E+00 0. -1.
          1    1    1    2  501    0 -0.84469815069E+02  0.16701035094E+03 -0.91666848829E+02  0.20839965968E+03  0.00000000000E+00 0. -1.
<scales pt_clust_5="13000.00000" pt_clust_6="13000.00000" pt_clust_7="13000.00000" pt_clust_8="13000.00000" pt_clust_9="185.81267"></scales>
<clustering>
<clus scale="   80.419">  7  8 -1 -1</clus>
<clus scale="   86.878">  1  7  2 -1</clus>
<clus scale="   91.718">  5  6 -1 -1</clus>
<clus scale="  185.813">  2  9  1 -1</clus>
<clus scale="  185.813">  2  5  1 -1</clus>
</clustering>
</event>
<event>
 9    1  0.1671478E-005  0.1008229E+03  0.7546771E-02  0.1280707E+00
          4   -1    0    0  502    0 -0.00000000000E+00  0.00000000000E+00  0.60086751332E+03  0.60086751332E+03  0.00000000000E+00 0. -1.
         21   -1    0    0  501  502  0.00000000000E+00 -0.00000000000E+00 -0.23946057230E+02  0.23946057230E+02  0.00000000000E+00 0.  1.
         23    2    1    2    0    0 -0.24709125354E+02 -0.46986664127E+02  0.36511587287E+03  0.38001060238E+03  0.90995438445E+02 0.  0.
         23    2    1    2    0    0  0.57588133935E+01  0.25310534972E+02  0.13192616689E+03  0.15989307445E+03  0.86530310493E+02 0.  0.
        -11    1    4    4    0    0  0.20362649721E+02  0.65599765478E+01 -0.41201584420E+01  0.21786383398E+02  0.00000000000E+00 0.  1.
         11    1    4    4    0    0 -0.14603836327E+02  0.18750558425E+02  0.13604632533E+03  0.13810669105E+03  0.00000000000E+00 0. -1.
        -13    1    3    3    0    0 -0.54695523719E+02 -0.67000236235E+01  0.18701985297E+03  0.19496901302E+03  0.00000000000E+00 0. -1.
         13    1    3    3    0    0  0.29986398366E+02 -0.40286640503E+02  0.17809601990E+03  0.18504158936E+03  0.00000000000E+00 0.  1.
          4    1    1    2  501    0  0.18950311960E+02  0.21676129155E+02  0.79879416329E+02  0.84909893720E+02  0.00000000000E+00 0. -1.
<scales pt_clust_5="13000.00000" pt_clust_6="13000.00000" pt_clust_7="13000.00000" pt_clust_8="13000.00000" pt_clust_9="28.79183"></scales>
<clustering>
<clus scale="   28.792">  2  9  1 -1</clus>
<clus scale="   86.530">  5  6 -1 -1</clus>
<clus scale="   90.995">  7  8 -1 -1</clus>
<clus scale="   96.812">  2  5  1 -1</clus>
<clus scale="   28.792">  2  5  1 -1</clus>
</clustering>
</event>
<event>
 9    1  0.1708732E-005  0.1286746E+03  0.7546771E-02  0.1234333E+00
         21   -1    0    0  501  502  0.00000000000E+00  0.00000000000E+00  0.41276225526E+03  0.41276225526E+03  0.00000000000E+00 0.  1.
         -3   -1    0    0    0  501 -0.00000000000E+00 -0.00000000000E+00 -0.34638072710E+03  0.34638072710E+03  0.00000000000E+00 0.  1.
         23    2    1    2    0    0 -0.18502955379E+02  0.22466598256E+02 -0.98438235373E+02  0.14785910464E+03  0.10641955293E+03 0.  0.
         23    2    1    2    0    0  0.11095169586E+02 -0.12544253612E+03 -0.18784552053E+03  0.24381725114E+03  0.91115200229E+02 0.  0.
        -11    1    4    4    0    0  0.40067906732E+02 -0.46278018132E+02 -0.38476105055E+02  0.72301471440E+02  0.00000000000E+00 0.  1.
         11    1    4    4    0    0 -0.28972737146E+02 -0.79164517984E+02 -0.14936941548E+03  0.17151577970E+03  0.00000000000E+00 0. -1.
        -11    1    3    3    0    0 -0.37661675100E+02 -0.24745128817E+02 -0.83297874131E+02  0.94706171955E+02  0.00000000000E+00 0.  1.
         11    1    3    3    0    0  0.19158719721E+02  0.47211727073E+02 -0.15140361242E+02  0.53152932686E+02  0.00000000000E+00 0. -1.
         -3    1    1    2    0  502  0.74077857929E+01  0.10297593786E+03  0.35266528407E+03  0.36746662658E+03  0.00000000000E+00 0.  1.
<scales pt_clust_5="13000.00000" pt_clust_6="13000.00000" pt_clust_7="13000.00000" pt_clust_8="13000.00000" pt_clust_9="103.24204"></scales>
<clustering>
<clus scale="   91.115">  5  6 -1 -1</clus>
<clus scale="  103.242">  1  9  2 -1</clus>
<clus scale="  106.420">  7  8 -1 -1</clus>
<clus scale="  116.336">  1  5  2 -1</clus>
<clus scale="  103.242">  1  5  2 -1</clus>
</clustering>
</event>
<event>
 9    1  0.1671478E-005  0.2169980E+03  0.7546771E-02  0.1136209E+00
         21   -1    0    0  501  502  0.00000000000E+00  0.00000000000E+00  0.10545858754E+03  0.10545858754E+03  0.00000000000E+00 0.  1.
          1   -1    0    0  502    0 -0.00000000000E+00 -0.00000000000E+00 -0.96233895185E+03  0.96233895185E+03  0.00000000000E+00 0. -1.
         23    2    1    2    0    0 -0.18484608051E+03 -0.81980342874E+02 -0.72641812400E+03  0.75932206213E+03  0.89430716495E+02 0.  0.
         23    2    1    2    0    0  0.15825118512E+03  0.93321882099E+02 -0.16536245627E+03  0.26315501778E+03  0.90296235648E+02 0.  0.
        -13    1    4    4    0    0  0.11867842626E+03  0.44412481825E+02 -0.59457490557E+02  0.13997224934E+03  0.00000000000E+00 0.  1.
         13    1    4    4    0    0  0.39572758851E+02  0.48909400274E+02 -0.10590496571E+03  0.12318276844E+03  0.00000000000E+00 0. -1.
        -13    1    3    3    0    0  0.30894081771E+00 -0.25135495903E+02 -0.53983229831E+02  0.59548952146E+02  0.00000000000E+00 0.  1.
         13    1    3    3    0    0 -0.18515502133E+03 -0.56844846971E+02 -0.67243489417E+03  0.69977310998E+03  0.00000000000E+00 0. -1.
          1    1    1    2  501    0  0.26594895396E+02 -0.11341539225E+02  0.34900215961E+02  0.45320459477E+02  0.00000000000E+00 0. -1.
<scales pt_clust_5="13000.00000" pt_clust_6="13000.00000" pt_clust_7="13000.00000" pt_clust_8="13000.00000" pt_clust_9="28.91226"></scales>
<clustering>
<clus scale="   28.912">  1  9  2 -1</clus>
<clus scale="   89.431">  7  8 -1 -1</clus>
<clus scale="   90.296">  5  6 -1 -1</clus>
<clus scale="  216.639">  2  7  1 -1</clus>
<clus scale="   28.912">  1  5  2 -1</clus>
</clustering>
</event>
<event>
 9    1  0.1671478E-005  0.1433698E+03  0.7546771E-02  0.1209873E+00
         21   -1    0    0  501  502  0.00000000000E+00  0.00000000000E+00  0.37403426559E+02  0.37403426559E+02  0.00000000000E+00 0.  1.
          1   -1    0    0  502    0 -0.00000000000E+00 -0.00000000000E+00 -0.64978182202E+03  0.64978182202E+03  0.00000000000E+00 0. -1.
         23    2    1    2    0    0 -0.11448048135E+03  0.28310989951E+02 -0.36456410243E+03  0.39353402688E+03  0.89748274491E+02 0.  0.
         23    2    1    2    0    0  0.90745314191E+02 -0.26633187413E+02 -0.21368831777E+03  0.25204887357E+03  0.94455803415E+02 0.  0.
        -11    1    3    3    0    0 -0.30914877432E+02  0.25384901074E+02 -0.33815461919E+02  0.52379464621E+02  0.00000000000E+00 0.  1.
         11    1    3    3    0    0 -0.83565603920E+02  0.29260888772E+01 -0.33074864051E+03  0.34115456226E+03  0.00000000000E+00 0. -1.
        -13    1    4    4    0    0  0.11025597397E+03 -0.21776131224E+02 -0.16791707548E+03  0.20205623951E+03  0.00000000000E+00 0.  1.
         13    1    4    4    0    0 -0.19510659779E+02 -0.48570561898E+01 -0.45771242291E+02  0.49992634064E+02  0.00000000000E+00 0. -1.
          1    1    1    2  501    0  0.23735167160E+02 -0.16778025376E+01 -0.34125975266E+02  0.41602348123E+02  0.00000000000E+00 0. -1.
<scales pt_clust_5="13000.00000" pt_clust_6="13000.00000" pt_clust_7="13000.00000" pt_clust_8="13000.00000" pt_clust_9="23.79439"></scales>
<clustering>
<clus scale="   23.794">  1  9  2 -1</clus>
<clus scale="   89.748">  5  6 -1 -1</clus>
<clus scale="   94.456">  7  8 -1 -1</clus>
<clus scale="  140.313">  2  5  1 -1</clus>
<clus scale="   23.794">  1  5  2 -1</clus>
</clustering>
</event>
<event>
 9    1  0.1671478E-005  0.1840163E+03  0.7546771E-02  0.1165280E+00
          2   -1    0    0  502    0 -0.00000000000E+00  0.00000000000E+00  0.28567198528E+03  0.28567198528E+03  0.00000000000E+00 0. -1.
         21   -1    0    0  501  502  0.00000000000E+00 -0.00000000000E+00 -0.24307359584E+03  0.24307359584E+03  0.00000000000E+00 0. -1.
         23    2    1    2    0    0  0.52629971097E+02 -0.13017974026E+03  0.99214972995E+02  0.20039937610E+03  0.10295445810E+03 0.  0.
         23    2    1    2    0    0 -0.64042944495E+02  0.15651044286E+03  0.64868468651E+02  0.20351760345E+03  0.92814218882E+02 0.  0.
        -11    1    3    3    0    0 -0.18995088838E+02 -0.25480961478E+02 -0.96727145654E+01  0.33221291439E+02  0.00000000000E+00 0.  1.
         11    1    3    3    0    0  0.71625059934E+02 -0.10469877878E+03  0.10888768756E+03  0.16717808466E+03  0.00000000000E+00 0. -1.
        -13    1    4    4    0    0 -0.41931581283E+02  0.10674978863E+03  0.87794860655E+02  0.14443584195E+03  0.00000000000E+00 0. -1.
         13    1    4    4    0    0 -0.22111363211E+02  0.49760654230E+02 -0.22926392004E+02  0.59081761507E+02  0.00000000000E+00 0.  1.
          2    1    1    2  501    0  0.11412973398E+02 -0.26330702604E+02 -0.12148505220E+03  0.12482860157E+03  0.00000000000E+00 0. -1.
<scales pt_clust_5="13000.00000" pt_clust_6="13000.00000" pt_clust_7="13000.00000" pt_clust_8="13000.00000" pt_clust_9="28.69777"></scales>
<clustering>
<clus scale="   28.698">  2  9  1 -1</clus>
<clus scale="   92.814">  7  8 -1 -1</clus>
<clus scale="  102.954">  5  6 -1 -1</clus>
<clus scale="  178.541">  2  7  1 -1</clus>
<clus scale="   28.698">  2  5  1 -1</clus>
</clustering>
</event>
<event>
 9    1  0.1671478E-005  0.1262108E+03  0.7546771E-02  0.1233378E+00
         -2   -1    0    0    0  501 -0.00000000000E+00  0.00000000000E+00  0.45222428584E+03  0.45222428584E+03  0.00000000000E+00 0.  1.
         21   -1    0    0  501  502  0.00000000000E+00 -0.00000000000E+00 -0.45039266032E+02  0.45039266032E+02  0.00000000000E+00 0. -1.
         23    2    1    2    0    0  0.65615577282E+02 -0.64662895600E+02  0.23672939616E+03  0.27008943767E+03  0.91764934938E+02 0.  0.
         23    2    1    2    0    0 -0.40308222881E+02  0.68780914061E+02  0.15478824035E+03  0.19712603336E+03  0.92432173556E+02 0.  0.
        -11    1    3    3    0    0  0.35893968724E+02 -0.67652453602E+02  0.80812527817E+02  0.11133685877E+03  0.00000000000E+00 0. -1.
         11    1    3    3    0    0  0.29721608558E+02  0.29895580019E+01  0.15591686834E+03  0.15875257889E+03  0.00000000000E+00 0.  1.
        -11    1    4    4    0    0  0.18470103875E+02  0.58700876828E+02  0.66724627321E+02  0.90769563008E+02  0.00000000000E+00 0.  1.
         11    1    4    4    0    0 -0.58778326756E+02  0.10080037233E+02  0.88063613027E+02  0.10635647035E+03  0.00000000000E+00 0. -1.
         -2    1    1    2    0  502 -0.25307354401E+02 -0.41180184609E+01  0.15667383303E+02  0.30048080844E+02  0.00000000000E+00 0.  1.
<scales pt_clust_5="13000.00000" pt_clust_6="13000.00000" pt_clust_7="13000.00000" pt_clust_8="13000.00000" pt_clust_9="25.64021"></scales>
<clustering>
<clus scale="   25.640">  2  9  1 -1</clus>
<clus scale="   91.765">  5  6 -1 -1</clus>
<clus scale="   92.432">  7  8 -1 -1</clus>
<clus scale="  125.723">  1  5  2 -1</clus>
<clus scale="   25.640">  2  5  1 -1</clus>
</clustering>
</event>
<event>
 9    1  0.1671478E-005  0.1121693E+03  0.7546771E-02  0.1257935E+00
         -1   -1    0    0    0  501 -0.00000000000E+00  0.00000000000E+00  0.87987959997E+02  0.87987959997E+02  0.00000000000E+00 0.  1.
         21   -1    0    0  501  502  0.00000000000E+00 -0.00000000000E+00 -0.24407064306E+03  0.24407064306E+03  0.00000000000E+00 0. -1.
         23    2    1    2    0    0 -0.53485111806E+02  0.37973196311E+02  0.14449010983E+02  0.11271546211E+03  0.90517294794E+02 0.  0.
         23    2    1    2    0    0  0.40394052279E+02 -0.59370959717E+02 -0.14324279101E+03  0.18227665545E+03  0.86888961485E+02 0.  0.
        -11    1    3    3    0    0  0.10517665953E+01  0.54011895611E+02 -0.15812728697E+00  0.54022366522E+02  0.00000000000E+00 0. -1.
         11    1    3    3    0    0 -0.54536878401E+02 -0.16038699300E+02  0.14607138270E+02  0.58693095586E+02  0.00000000000E+00 0.  1.
        -11    1    4    4    0    0 -0.19452020592E+02 -0.11895341273E+02 -0.35699032105E+01  0.23078658064E+02  0.00000000000E+00 0.  1.
         11    1    4    4    0    0  0.59846072871E+02 -0.47475618444E+02 -0.13967288780E+03  0.15919799739E+03  0.00000000000E+00 0. -1.
         -1    1    1    2    0  502  0.13091059527E+02  0.21397763406E+02 -0.27288903027E+02  0.37066485492E+02  0.00000000000E+00 0.  1.
<scales pt_clust_5="13000.00000" pt_clust_6="13000.00000" pt_clust_7="13000.00000" pt_clust_8="13000.00000" pt_clust_9="25.08466"></scales>
<clustering>
<clus scale="   25.085">  2  9  1 -1</clus>
<clus scale="   86.889">  7  8 -1 -1</clus>
<clus scale="   90.517">  5  6 -1 -1</clus>
<clus scale="  109.262">  2  7  1 -1</clus>
<clus scale="   25.085">  2  5  1 -1</clus>
</clustering>
</event>
<event>
 9    1  0.1671478E-005  0.2302388E+03  0.7546771E-02  0.1126576E+00
          3   -1    0    0  502    0 -0.00000000000E+00  0.00000000000E+00  0.57566054761E+03  0.57566054761E+03  0.00000000000E+00 0. -1.
         21   -1    0    0  501  502  0.00000000000E+00 -0.00000000000E+00 -0.28143766191E+03  0.28143766191E+03  0.00000000000E+00 0. -1.
         23    2    1    2    0    0  0.17072232838E+03 -0.12088129055E+03  0.32893042999E+03  0.40006232253E+03  0.89979077166E+02 0.  0.
         23    2    1    2    0    0 -0.24955803940E+03  0.26591790480E+02 -0.13417029219E+03  0.29892700876E+03  0.91484156616E+02 0.  0.
        -11    1    4    4    0    0 -0.20826174377E+03  0.28015118563E+01 -0.13993104854E+03  0.25092130386E+03  0.00000000000E+00 0. -1.
         11    1    4    4    0    0 -0.41296295624E+02  0.23790278623E+02  0.57607563423E+01  0.48005704899E+02  0.00000000000E+00 0.  1.
        -13    1    3    3    0    0  0.17210890369E+03 -0.91307941667E+02  0.25879590163E+03  0.32393507628E+03  0.00000000000E+00 0. -1.
         13    1    3    3    0    0 -0.13865753096E+01 -0.29573348880E+02  0.70134528353E+02  0.76127246255E+02  0.00000000000E+00 0.  1.
          3    1    1    2  501    0  0.78835711013E+02  0.94289500067E+02  0.99462747899E+02  0.15810887822E+03  0.00000000000E+00 0. -1.
<scales pt_clust_5="13000.00000" pt_clust_6="13000.00000" pt_clust_7="13000.00000" pt_clust_8="13000.00000" pt_clust_9="122.90482"></scales>
<clustering>
<clus scale="   89.979">  7  8 -1 -1</clus>
<clus scale="   91.484">  5  6 -1 -1</clus>
<clus scale="  122.905">  2  9  1 -1</clus>
<clus scale="  229.645">  1  7  2 -1</clus>
<clus scale="  122.905">  2  5  1 -1</clus>
</clustering>
</event>
<event>
 9    1  0.1671478E-005  0.1267552E+03  0.7546771E-02  0.1241733E+00
          2   -1    0    0  502    0 -0.00000000000E+00  0.00000000000E+00  0.34032067625E+03  0.34032067625E+03  0.00000000000E+00 0. -1.
         21   -1    0    0  501  502  0.00000000000E+00 -0.00000000000E+00 -0.31508325995E+03  0.31508325995E+03  0.00000000000E+00 0. -1.
         23    2    1    2    0    0  0.52326684100E+02 -0.42061924138E+02  0.27265694426E+03  0.30303033678E+03  0.11392229115E+03 0.  0.
         23    2    1    2    0    0 -0.15122537226E+02  0.19030601814E+02  0.88548513193E+01  0.92390623392E+02  0.88694779786E+02 0.  0.
        -11    1    3    3    0    0  0.87158662605E+02 -0.42720538799E+02  0.20975503870E+03  0.23112518937E+03  0.00000000000E+00 0. -1.
         11    1    3    3    0    0 -0.34831978505E+02  0.65861466130E+00  0.62901905560E+02  0.71905147402E+02  0.00000000000E+00 0.  1.
        -13    1    4    4    0    0  0.26918778740E+02 -0.15834349127E+02  0.19398861590E+02  0.36764970993E+02  0.00000000000E+00 0. -1.
         13    1    4    4    0    0 -0.42041315965E+02  0.34864950941E+02 -0.10544010270E+02  0.55625652399E+02  0.00000000000E+00 0.  1.
          2    1    1    2  501    0 -0.37204146874E+02  0.23031322324E+02 -0.25627437928E+03  0.25998297603E+03  0.00000000000E+00 0. -1.
<scales pt_clust_5="13000.00000" pt_clust_6="13000.00000" pt_clust_7="13000.00000" pt_clust_8="13000.00000" pt_clust_9="43.75603"></scales>
<clustering>
<clus scale="   43.756">  2  9  1 -1</clus>
<clus scale="   88.695">  7  8 -1 -1</clus>
<clus scale="  104.668">  2  7  1 -1</clus>
<clus scale="  113.922">  5  6 -1 -1</clus>
<clus scale="   43.756">  2  5  1 -1</clus>
</clustering>
</event>
<event>
 9    1  0.1671478E-005  0.1043104E+03  0.7546771E-02  0.1272289E+00
         21   -1    0    0  501  502  0.00000000000E+00  0.00000000000E+00  0.29265389808E+03  0.29265389808E+03  0.00000000000E+00 0. -1.
          1   -1    0    0  502    0 -0.00000000000E+00 -0.00000000000E+00 -0.18344096728E+03  0.18344096728E+03  0.00000000000E+00 0. -1.
         23    2    1    2    0    0  0.31150448605E+02 -0.35642267305E+02 -0.10452995291E+03  0.14508734023E+03  0.88786843467E+02 0.  0.
         23    2    1    2    0    0 -0.72466299038E+02  0.16121849736E+02  0.49431937346E+01  0.11726619376E+03  0.90640203552E+02 0.  0.
        -11    1    4    4    0    0 -0.42489200930E+02  0.14647893140E+02  0.47369222378E+02  0.65297290892E+02  0.00000000000E+00 0.  1.
         11    1    4    4    0    0 -0.29977098108E+02  0.14739565958E+01 -0.42426028644E+02  0.51968902870E+02  0.00000000000E+00 0. -1.
        -13    1    3    3    0    0 -0.27074168360E+02 -0.12524673764E+00 -0.10752613466E+02  0.29131511727E+02  0.00000000000E+00 0.  1.
         13    1    3    3    0    0  0.58224616965E+02 -0.35517020567E+02 -0.93777339442E+02  0.11595582850E+03  0.00000000000E+00 0. -1.
          1    1    1    2  501    0  0.41315850433E+02  0.19520417569E+02  0.20879968997E+03  0.21374133136E+03  0.00000000000E+00 0. -1.
<scales pt_clust_5="13000.00000" pt_clust_6="13000.00000" pt_clust_7="13000.00000" pt_clust_8="13000.00000" pt_clust_9="45.69514"></scales>
<clustering>
<clus scale="   45.695">  1  9  2 -1</clus>
<clus scale="   88.787">  7  8 -1 -1</clus>
<clus scale="   90.640">  5  6 -1 -1</clus>
<clus scale="  102.704">  2  7  1 -1</clus>
<clus scale="   45.695">  1  5  2 -1</clus>
</clustering>
</event>
<event>
 9    1  0.1671478E-005  0.2451219E+03  0.7546771E-02  0.1116440E+00
         21   -1    0    0  501  502  0.00000000000E+00  0.00000000000E+00  0.43840823226E+03  0.43840823226E+03  0.00000000000E+00 0. -1.
          4   -1    0    0  502    0 -0.00000000000E+00 -0.00000000000E+00 -0.22090530834E+03  0.22090530834E+03  0.00000000000E+00 0. -1.
         23    2    1    2    0    0 -0.10241115464E+03 -0.14525140596E+03  0.96208517831E+02  0.22142274057E+03  0.90476160461E+02 0.  0.
         23    2    1    2    0    0  0.20029473808E+03  0.20039081710E+03  0.42137764994E+02  0.30045963763E+03  0.90696973088E+02 0.  0.
        -13    1    3    3    0    0 -0.13277246688E+02 -0.68272617221E+02  0.74034141535E+02  0.10157996680E+03  0.00000000000E+00 0.  1.
         13    1    3    3    0    0 -0.89133907947E+02 -0.76978788743E+02  0.22174376297E+02  0.11984277378E+03  0.00000000000E+00 0. -1.
        -13    1    4    4    0    0  0.95065742890E+02  0.43612229876E+02  0.38963074510E+02  0.11161381295E+03  0.00000000000E+00 0.  1.
         13    1    4    4    0    0  0.10522899519E+03  0.15677858722E+03  0.31746904835E+01  0.18884582468E+03  0.00000000000E+00 0. -1.
          4    1    1    2  501    0 -0.97883583448E+02 -0.55139411135E+02  0.79156641089E+02  0.13743116240E+03  0.00000000000E+00 0. -1.
<scales pt_clust_5="13000.00000" pt_clust_6="13000.00000" pt_clust_7="13000.00000" pt_clust_8="13000.00000" pt_clust_9="112.34567"></scales>
<clustering>
<clus scale="   90.476">  5  6 -1 -1</clus>
<clus scale="   90.697">  7  8 -1 -1</clus>
<clus scale="  112.346">  1  9  2 -1</clus>
<clus scale="  245.040">  2  5  1 -1</clus>
<clus scale="  112.346">  1  5  2 -1</clus>
</clustering>
</event>
<event>
 9    1  0.1671478E-005  0.1020767E+03  0.7546771E-02  0.1294515E+00
         21   -1    0    0  501  502  0.00000000000E+00  0.00000000000E+00  0.36468092568E+03  0.36468092568E+03  0.00000000000E+00 0. -1.
         -1   -1    0    0    0  501 -0.00000000000E+00 -0.00000000000E+00 -0.38509254100E+02  0.38509254100E+02  0.00000000000E+00 0.  1.
         23    2    1    2    0    0  0.28331236180E+02 -0.50041673497E+02  0.96824532425E+02  0.14554021530E+03  0.92196182999E+02 0.  0.
         23    2    1    2    0    0  0.72552295881E+01  0.36983729954E+02  0.88857081851E+02  0.11213583240E+03  0.57082653007E+02 0.  0.
        -11    1    3    3    0    0  0.44827883484E+01 -0.47721697489E+02  0.10869928258E+03  0.11879810536E+03  0.00000000000E+00 0. -1.
         11    1    3    3    0    0  0.23848447832E+02 -0.23199760082E+01 -0.11874750159E+02  0.26742109939E+02  0.00000000000E+00 0.  1.
        -13    1    4    4    0    0 -0.23288373726E+02  0.58618172513E+01  0.39945732334E+02  0.46608698587E+02  0.00000000000E+00 0. -1.
         13    1    4    4    0    0  0.30543603314E+02  0.31121912702E+02  0.48911349518E+02  0.65527133810E+02  0.00000000000E+00 0.  1.
         -1    1    1    2    0  502 -0.35586465768E+02  0.13057943543E+02  0.14049005731E+03  0.14551413209E+03  0.00000000000E+00 0.  1.
<scales pt_clust_5="13000.00000" pt_clust_6="13000.00000" pt_clust_7="13000.00000" pt_clust_8="13000.00000" pt_clust_9="37.90655"></scales>
<clustering>
<clus scale="   37.907">  1  9  2 -1</clus>
<clus scale="   57.083">  7  8 -1 -1</clus>
<clus scale="   71.958">  1  7  2 -1</clus>
<clus scale="   92.196">  5  6 -1 -1</clus>
<clus scale="   37.907">  1  5  2 -1</clus>
</clustering>
</event>
<event>
 9    1  0.1671478E-005  0.1816075E+03  0.7546771E-02  0.1166744E+00
         21   -1    0    0  501  502  0.00000000000E+00  0.00000000000E+00  0.84099157081E+02  0.84099157081E+02  0.00000000000E+00 0. -1.
          2   -1    0    0  502    0 -0.00000000000E+00 -0.00000000000E+00 -0.15817336993E+04  0.15817336993E+04  0.00000000000E+00 0. -1.
         23    2    1    2    0    0 -0.83854080339E+02  0.83710874379E+02 -0.64927526772E+03  0.66643818851E+03  0.92425475647E+02 0.  0.
         23    2    1    2    0    0  0.16225267338E+03 -0.17969436289E+03 -0.83602456206E+03  0.87485023974E+03  0.88373522888E+02 0.  0.
        -13    1    3    3    0    0  0.16006870379E+02  0.36160938966E+02 -0.15941253217E+03  0.16424429615E+03  0.00000000000E+00 0.  1.
         13    1    3    3    0    0 -0.99860950718E+02  0.47549935413E+02 -0.48986273556E+03  0.50219389236E+03  0.00000000000E+00 0. -1.
        -13    1    4    4    0    0  0.89527363898E+02 -0.15659366832E+03 -0.55009234023E+03  0.57891131326E+03  0.00000000000E+00 0.  1.
         13    1    4    4    0    0  0.72725309479E+02 -0.23100694570E+02 -0.28593222183E+03  0.29593892648E+03  0.00000000000E+00 0. -1.
          2    1    1    2  501    0 -0.78398593038E+02  0.95983488511E+02 -0.12334712488E+02  0.12454442817E+03  0.00000000000E+00 0. -1.
<scales pt_clust_5="13000.00000" pt_clust_6="13000.00000" pt_clust_7="13000.00000" pt_clust_8="13000.00000" pt_clust_9="123.93212"></scales>
<clustering>
<clus scale="   88.374">  7  8 -1 -1</clus>
<clus scale="   92.425">  5  6 -1 -1</clus>
<clus scale="  123.932">  1  9  2 -1</clus>
<clus scale="  179.579">  1  7  2 -1</clus>
<clus scale="  123.932">  1  5  2 -1</clus>
</clustering>
</event>
<event>
 9    1  0.1671478E-005  0.9604072E+02  0.7546771E-02  0.1289134E+00
          3   -1    0    0  502    0 -0.00000000000E+00  0.00000000000E+00  0.27022509851E+03  0.27022509851E+03  0.00000000000E+00 0. -1.
         21   -1    0    0  501  502  0.00000000000E+00 -0.00000000000E+00 -0.10960264527E+03  0.10960264527E+03  0.00000000000E+00 0. -1.
         23    2    1    2    0    0 -0.32432509281E+02  0.30136685046E+02  0.12780827274E+03  0.16354927289E+03  0.91941952538E+02 0.  0.
         23    2    1    2    0    0 -0.52476220337E+01 -0.13401522896E+02  0.10030897812E+03  0.13718734841E+03  0.92473450882E+02 0.  0.
        -11    1    4    4    0    0  0.12779688807E+02 -0.42596339680E+02  0.91542169722E+02  0.10177297007E+03  0.00000000000E+00 0. -1.
         11    1    4    4    0    0 -0.18027310841E+02  0.29194816784E+02  0.87668084009E+01  0.35414378334E+02  0.00000000000E+00 0.  1.
        -13    1    3    3    0    0 -0.20430999075E+02  0.62540158269E+02  0.68995560576E+02  0.95336690202E+02  0.00000000000E+00 0.  1.
         13    1    3    3    0    0 -0.12001510206E+02 -0.32403473222E+02  0.58812712167E+02  0.68212582685E+02  0.00000000000E+00 0. -1.
          3    1    1    2  501    0  0.37680131314E+02 -0.16735162150E+02 -0.67494797629E+02  0.79091122479E+02  0.00000000000E+00 0. -1.
<scales pt_clust_5="13000.00000" pt_clust_6="13000.00000" pt_clust_7="13000.00000" pt_clust_8="13000.00000" pt_clust_9="41.22933"></scales>
<clustering>
<clus scale="   41.229">  2  9  1 -1</clus>
<clus scale="   91.942">  7  8 -1 -1</clus>
<clus scale="   92.473">  5  6 -1 -1</clus>
<clus scale="   95.529">  1  7  2 -1</clus>
<clus scale="   41.229">  2  5  1 -1</clus>
</clustering>
</event>
<event>
 9    1  0.1671478E-005  0.2838710E+03  0.7546771E-02  0.1093747E+00
          2   -1    0    0  502    0 -0.00000000000E+00  0.00000000000E+00  0.21276392924E+04  0.21276392924E+04  0.00000000000E+00 0. -1.
         21   -1    0    0  501  502  0.00000000000E+00 -0.00000000000E+00 -0.89013232798E+02  0.89013232798E+02  0.00000000000E+00 0.  1.
         23    2    1    2    0    0  0.22931173454E+03  0.51667450398E+02  0.10631961715E+04  0.10925255797E+04  0.89289675678E+02 0.  0.
         23    2    1    2    0    0 -0.37996636215E+03 -0.93617974342E+02  0.68984032577E+03  0.79852279719E+03  0.92845145743E+02 0.  0.
        -11    1    3    3    0    0  0.14251898835E+02 -0.17896267483E+02  0.60806989398E+02  0.64968322819E+02  0.00000000000E+00 0.  1.
         11    1    3    3    0    0  0.21505983571E+03  0.69563717880E+02  0.10023891821E+04  0.10275572569E+04  0.00000000000E+00 0. -1.
        -13    1    4    4    0    0 -0.20750040955E+03 -0.12885255511E+02  0.30458759845E+03  0.36877642943E+03  0.00000000000E+00 0.  1.
         13    1    4    4    0    0 -0.17246595260E+03 -0.80732718832E+02  0.38525272731E+03  0.42974636775E+03  0.00000000000E+00 0. -1.
          2    1    1    2  501    0  0.15065462761E+03  0.41950523945E+02  0.28558956232E+03  0.32560414829E+03  0.00000000000E+00 0. -1.
<scales pt_clust_5="13000.00000" pt_clust_6="13000.00000" pt_clust_7="13000.00000" pt_clust_8="13000.00000" pt_clust_9="156.38626"></scales>
<clustering>
<clus scale="   89.290">  5  6 -1 -1</clus>
<clus scale="   92.845">  7  8 -1 -1</clus>
<clus scale="  156.386">  2  9  1 -1</clus>
<clus scale="  282.728">  1  5  2 -1</clus>
<clus scale="  156.386">  2  5  1 -1</clus>
</clustering>
</event>
<event>
 9    1  0.1671478E-005  0.1001008E+03  0.7546771E-02  0.1282370E+00
         21   -1    0    0  501  502  0.00000000000E+00  0.00000000000E+00  0.26806498660E+03  0.26806498660E+03  0.00000000000E+00 0.  1.
         -3   -1    0    0    0  501 -0.00000000000E+00 -0.00000000000E+00 -0.27359862585E+03  0.27359862585E+03  0.00000000000E+00 0.  1.
         23    2    1    2    0    0  0.29649151605E+02  0.28503330390E+02 -0.20058752998E+03  0.22429434746E+03  0.91548266429E+02 0.  0.
         23    2    1    2    0    0  0.27321204159E+02  0.10134190346E+01 -0.12068796234E+02  0.10053599405E+03  0.95991432127E+02 0.  0.
        -11    1    4    4    0    0  0.40893585628E+02 -0.38537533661E+02 -0.16300361410E+02  0.58507509162E+02  0.00000000000E+00 0.  1.
         11    1    4    4    0    0 -0.13572381470E+02  0.39550952696E+02  0.42315651762E+01  0.42028484885E+02  0.00000000000E+00 0. -1.
        -11    1    3    3    0    0 -0.30953280528E+02  0.13172164035E+02 -0.10343872620E+03  0.10877123498E+03  0.00000000000E+00 0. -1.
         11    1    3    3    0    0  0.60602432132E+02  0.15331166355E+02 -0.97148803774E+02  0.11552311248E+03  0.00000000000E+00 0.  1.
         -3    1    1    2    0  502 -0.56970355763E+02 -0.29516749425E+02  0.20712268696E+03  0.21683327094E+03  0.00000000000E+00 0.  1.
<scales pt_clust_5="13000.00000" pt_clust_6="13000.00000" pt_clust_7="13000.00000" pt_clust_8="13000.00000" pt_clust_9="64.16276"></scales>
<clustering>
<clus scale="   64.163">  1  9  2 -1</clus>
<clus scale="   91.548">  7  8 -1 -1</clus>
<clus scale="   95.848">  2  7  1 -1</clus>
<clus scale="   95.991">  5  6 -1 -1</clus>
<clus scale="   64.163">  1  5  2 -1</clus>
</clustering>
</event>
<event>
 9    1  0.1671478E-005  0.1267091E+03  0.7546771E-02  0.1250271E+00
          3   -1    0    0  502    0 -0.00000000000E+00  0.00000000000E+00  0.21306544846E+03  0.21306544846E+03  0.00000000000E+00 0. -1.
         21   -1    0    0  501  502  0.00000000000E+00 -0.00000000000E+00 -0.21318399560E+03  0.21318399560E+03  0.00000000000E+00 0. -1.
         23    2    1    2    0    0 -0.24911187115E+02  0.56060509863E+01  0.62075601801E+02  0.10789522688E+03  0.84474875517E+02 0.  0.
         23    2    1    2    0    0  0.10634708439E+03  0.29625772037E+02  0.71105247884E+02  0.15822359578E+03  0.88268687874E+02 0.  0.
        -13    1    4    4    0    0  0.11282102362E+03  0.67333570884E+01  0.41861404715E+02  0.12052509562E+03  0.00000000000E+00 0. -1.
         13    1    4    4    0    0 -0.64739392346E+01  0.22892414948E+02  0.29243843169E+02  0.37698500165E+02  0.00000000000E+00 0.  1.
        -13    1    3    3    0    0  0.24632796639E+02 -0.12498857826E+02  0.16304282388E+01  0.27670461027E+02  0.00000000000E+00 0.  1.
         13    1    3    3    0    0 -0.49543983754E+02  0.18104908812E+02  0.60445173562E+02  0.80224765854E+02  0.00000000000E+00 0. -1.
          3    1    1    2  501    0 -0.81435897272E+02 -0.35231823023E+02 -0.13329939682E+03  0.16013062140E+03  0.00000000000E+00 0. -1.
<scales pt_clust_5="13000.00000" pt_clust_6="13000.00000" pt_clust_7="13000.00000" pt_clust_8="13000.00000" pt_clust_9="90.90569"></scales>
<clustering>
<clus scale="   84.475">  7  8 -1 -1</clus>
<clus scale="   88.250">  1  7  2 -1</clus>
<clus scale="   88.269">  5  6 -1 -1</clus>
<clus scale="   90.906">  2  9  1 -1</clus>
<clus scale="   90.906">  2  5  1 -1</clus>
</clustering>
</event>
<event>
 9    1  0.1671478E-005  0.1010784E+03  0.7546771E-02  0.1279097E+00
         -2   -1    0    0    0  501 -0.00000000000E+00  0.00000000000E+00  0.41955658314E+03  0.41955658314E+03  0.00000000000E+00 0.  1.
         21   -1    0    0  501  502  0.00000000000E+00 -0.00000000000E+00 -0.94248281433E+02  0.94248281433E+02  0.00000000000E+00 0.  1.
         23    2    1    2    0    0  0.57448357544E+02  0.51527508068E+01  0.30358316894E+03  0.32180871485E+03  0.89840101656E+02 0.  0.
         23    2    1    2    0    0 -0.28208164823E+01  0.49814228752E+01  0.72048679388E+02  0.11703396549E+03  0.92049797923E+02 0.  0.
        -11    1    3    3    0    0  0.23097244588E+02  0.47150920385E+02  0.14979236289E+03  0.15872757789E+03  0.00000000000E+00 0. -1.
         11    1    3    3    0    0  0.34351112956E+02 -0.41998169578E+02  0.15379080605E+03  0.16308113697E+03  0.00000000000E+00 0.  1.
        -11    1    4    4    0    0  0.35269214187E+02 -0.24204457260E+02  0.44395878547E+02  0.61650362955E+02  0.00000000000E+00 0.  1.
         11    1    4    4    0    0 -0.38090030669E+02  0.29185880135E+02  0.27652800842E+02  0.55383602537E+02  0.00000000000E+00 0. -1.
         -2    1    1    2    0  502 -0.54627541062E+02 -0.10134173682E+02 -0.50323546626E+02  0.74962184224E+02  0.00000000000E+00 0.  1.
<scales pt_clust_5="13000.00000" pt_clust_6="13000.00000" pt_clust_7="13000.00000" pt_clust_8="13000.00000" pt_clust_9="55.55961"></scales>
<clustering>
<clus scale="   55.560">  2  9  1 -1</clus>
<clus scale="   89.840">  5  6 -1 -1</clus>
<clus scale="   92.050">  7  8 -1 -1</clus>
<clus scale="   99.070">  1  5  2 -1</clus>
<clus scale="   55.560">  2  5  1 -1</clus>
</clustering>
</event>
<event>
 9    1  0.1671478E-005  0.1237540E+03  0.7546771E-02  0.1237874E+00
         -1   -1    0    0    0  501 -0.00000000000E+00  0.00000000000E+00  0.31947787698E+03  0.31947787698E+03  0.00000000000E+00 0.  1.
         21   -1    0    0  501  502  0.00000000000E+00 -0.00000000000E+00 -0.86511592713E+02  0.86511592713E+02  0.00000000000E+00 0. -1.
         23    2    1    2    0    0 -0.31719325914E+02  0.50275966470E+02  0.10107193157E+03  0.14966223738E+03  0.93002481183E+02 0.  0.
         23    2    1    2    0    0  0.29215359828E+02 -0.10778050065E+03  0.13715780352E+03  0.19852805228E+03  0.90171785521E+02 0.  0.
        -11    1    4    4    0    0  0.85483759081E+01 -0.56852889036E+02  0.13120128916E+03  0.14324490916E+03  0.00000000000E+00 0.  1.
         11    1    4    4    0    0  0.20666983920E+02 -0.50927611619E+02  0.59565143534E+01  0.55283143116E+02  0.00000000000E+00 0. -1.
        -13    1    3    3    0    0 -0.57640460709E+02  0.55936797900E+01  0.44344984591E+02  0.72939629987E+02  0.00000000000E+00 0. -1.
         13    1    3    3    0    0  0.25921134795E+02  0.44682286680E+02  0.56726946976E+02  0.76722607394E+02  0.00000000000E+00 0.  1.
         -1    1    1    2    0  502  0.25039660858E+01  0.57504534185E+02 -0.52634508193E+01  0.57799180033E+02  0.00000000000E+00 0.  1.
<scales pt_clust_5="13000.00000" pt_clust_6="13000.00000" pt_clust_7="13000.00000" pt_clust_8="13000.00000" pt_clust_9="57.55902"></scales>
<clustering>
<clus scale="   57.559">  2  9  1 -1</clus>
<clus scale="   90.172">  5  6 -1 -1</clus>
<clus scale="   93.002">  7  8 -1 -1</clus>
<clus scale="  121.641">  2  5  1 -1</clus>
<clus scale="   57.559">  2  5  1 -1</clus>
</clustering>
</event>
<event>
 9    1  0.1671478E-005  0.1410276E+03  0.7546771E-02  0.1213582E+00
         -3   -1    0    0    0  501 -0.00000000000E+00  0.00000000000E+00  0.17687673881E+03  0.17687673881E+03  0.00000000000E+00 0.  1.
         21   -1    0    0  501  502  0.00000000000E+00 -0.00000000000E+00 -0.22769067546E+03  0.22769067546E+03  0.00000000000E+00 0. -1.
         23    2    1    2    0    0 -0.21285847148E+02  0.10473112805E+03  0.97557318631E+02  0.17445518339E+03  0.97444774724E+02 0.  0.
         23    2    1    2    0    0 -0.21422855768E+02 -0.89817528278E+02 -0.96303414508E+02  0.16113753403E+03  0.90359449374E+02 0.  0.
        -11    1    4    4    0    0  0.25312629725E+02 -0.47003374316E+02 -0.10411371293E+02  0.54391571708E+02  0.00000000000E+00 0.  1.
         11    1    4    4    0    0 -0.46735485493E+02 -0.42814153962E+02 -0.85892043216E+02  0.10674596232E+03  0.00000000000E+00 0. -1.
        -11    1    3    3    0    0  0.28405957458E+02  0.86725706777E+02  0.54593701555E+02  0.10634246040E+03  0.00000000000E+00 0.  1.
         11    1    3    3    0    0 -0.49691804606E+02  0.18005421273E+02  0.42963617076E+02  0.68112722986E+02  0.00000000000E+00 0. -1.
         -3    1    1    2    0  502  0.42708702916E+02 -0.14913599771E+02 -0.52067840771E+02  0.68974696849E+02  0.00000000000E+00 0.  1.
<scales pt_clust_5="13000.00000" pt_clust_6="13000.00000" pt_clust_7="13000.00000" pt_clust_8="13000.00000" pt_clust_9="45.23769"></scales>
<clustering>
<clus scale="   45.238">  2  9  1 -1</clus>
<clus scale="   90.359">  5  6 -1 -1</clus>
<clus scale="   97.445">  7  8 -1 -1</clus>
<clus scale="  136.228">  2  5  1 -1</clus>
<clus scale="   45.238">  2  5  1 -1</clus>
</clustering>
</event>
<event>
 9    1  0.1671478E-005  0.1779584E+03  0.7546771E-02  0.1169939E+00
         21   -1    0    0  501  502  0.00000000000E+00  0.00000000000E+00  0.26179150005E+03  0.26179150005E+03  0.00000000000E+00 0.  1.
          4   -1    0    0  502    0 -0.00000000000E+00 -0.00000000000E+00 -0.16145643351E+03  0.16145643351E+03  0.00000000000E+00 0. -1.
         23    2    1    2    0    0  0.94734263756E+02 -0.12789914901E+03 -0.38861570902E+02  0.18800508018E+03  0.92211254373E+02 0.  0.
         23    2    1    2    0    0 -0.88316405649E+02  0.10584020493E+03  0.11177354803E+03  0.19946839672E+03  0.91062499215E+02 0.  0.
        -13    1    3    3    0    0  0.37978312780E+02 -0.11190577280E+03 -0.49435684028E+02  0.12809816971E+03  0.00000000000E+00 0. -1.
         13    1    3    3    0    0  0.56755950976E+02 -0.15993376213E+02  0.10574113126E+02  0.59906910472E+02  0.00000000000E+00 0.  1.
        -13    1    4    4    0    0 -0.88119656181E+02  0.40824538094E+02  0.47749962056E+02  0.10822095727E+03  0.00000000000E+00 0. -1.
         13    1    4    4    0    0 -0.19674946800E+00  0.65015666839E+02  0.64023585979E+02  0.91247439451E+02  0.00000000000E+00 0.  1.
          4    1    1    2  501    0 -0.64178581073E+01  0.22058944076E+02  0.27423089404E+02  0.35774456654E+02  0.00000000000E+00 0. -1.
<scales pt_clust_5="13000.00000" pt_clust_6="13000.00000" pt_clust_7="13000.00000" pt_clust_8="13000.00000" pt_clust_9="22.97359"></scales>
<clustering>
<clus scale="   22.974">  1  9  2 -1</clus>
<clus scale="   91.062">  7  8 -1 -1</clus>
<clus scale="   92.211">  5  6 -1 -1</clus>
<clus scale="  177.366">  1  7  2 -1</clus>
<clus scale="   22.974">  1  5  2 -1</clus>
</clustering>
</event>
<event>
 9    1  0.1671478E-005  0.9229560E+02  0.7546771E-02  0.1297633E+00
         21   -1    0    0  501  502  0.00000000000E+00  0.00000000000E+00  0.15837933608E+03  0.15837933608E+03  0.00000000000E+00 0.  1.
          1   -1    0    0  502    0 -0.00000000000E+00 -0.00000000000E+00 -0.83818540878E+02  0.83818540878E+02  0.00000000000E+00 0. -1.
         23    2    1    2    0    0  0.34697301727E+01  0.51810160658E+01 -0.55897177953E+01  0.92607134471E+02  0.92227731485E+02 0.  0.
         23    2    1    2    0    0  0.43163804952E+01  0.17320453729E+02  0.37537646267E+02  0.10077685027E+03  0.91805606611E+02 0.  0.
        -11    1    4    4    0    0  0.39705000421E+02  0.28077512644E+02  0.41028265060E+02  0.63625091816E+02  0.00000000000E+00 0.  1.
         11    1    4    4    0    0 -0.35388619925E+02 -0.10757058915E+02 -0.34906187935E+01  0.37151758455E+02  0.00000000000E+00 0. -1.
        -11    1    3    3    0    0 -0.23175570516E+01  0.48315842317E+02  0.20756932899E+01  0.48415908461E+02  0.00000000000E+00 0. -1.
         11    1    3    3    0    0  0.57872872244E+01 -0.43134826251E+02 -0.76654110852E+01  0.44191226010E+02  0.00000000000E+00 0.  1.
          1    1    1    2  501    0 -0.77861106680E+01 -0.22501469795E+02  0.42612866727E+02  0.48813892213E+02  0.00000000000E+00 0. -1.
<scales pt_clust_5="13000.00000" pt_clust_6="13000.00000" pt_clust_7="13000.00000" pt_clust_8="13000.00000" pt_clust_9="23.81049"></scales>
<clustering>
<clus scale="   23.810">  1  9  2 -1</clus>
<clus scale="   91.806">  5  6 -1 -1</clus>
<clus scale="   91.874">  1  5  2 -1</clus>
<clus scale="   92.228">  7  8 -1 -1</clus>
<clus scale="   23.810">  1  5  2 -1</clus>
</clustering>
</event>
<event>
 9    1  0.1671478E-005  0.1028678E+03  0.7546771E-02  0.1274775E+00
          2   -1    0    0  502    0 -0.00000000000E+00  0.00000000000E+00  0.17825422809E+03  0.17825422809E+03  0.00000000000E+00 0. -1.
         21   -1    0    0  501  502  0.00000000000E+00 -0.00000000000E+00 -0.13070772376E+03  0.13070772376E+03  0.00000000000E+00 0.  1.
         23    2    1    2    0    0 -0.51755088992E+02  0.10432697335E+02  0.11708277558E+03  0.15727351939E+03  0.90769781060E+02 0.  0.
         23    2    1    2    0    0  0.28368397053E+02 -0.30940000871E+01 -0.22406659869E+02  0.98565987990E+02  0.91645276987E+02 0.  0.
        -13    1    3    3    0    0 -0.71132582456E+02 -0.14303019868E+02  0.91353955304E+02  0.11666175815E+03  0.00000000000E+00 0. -1.
         13    1    3    3    0    0  0.19377493464E+02  0.24735717203E+02  0.25728820275E+02  0.40611761243E+02  0.00000000000E+00 0.  1.
        -13    1    4    4    0    0  0.46464489997E+02 -0.26003563282E+02 -0.38050364806E+02  0.65444361070E+02  0.00000000000E+00 0.  1.
         13    1    4    4    0    0 -0.18096092944E+02  0.22909563195E+02  0.15643704937E+02  0.33121626920E+02  0.00000000000E+00 0. -1.
          2    1    1    2  501    0  0.23386691940E+02 -0.73386972478E+01 -0.47129611384E+02  0.53122444469E+02  0.00000000000E+00 0. -1.
<scales pt_clust_5="13000.00000" pt_clust_6="13000.00000" pt_clust_7="13000.00000" pt_clust_8="13000.00000" pt_clust_9="24.51110"></scales>
<clustering>
<clus scale="   24.511">  2  9  1 -1</clus>
<clus scale="   90.770">  5  6 -1 -1</clus>
<clus scale="   91.645">  7  8 -1 -1</clus>
<clus scale="  102.089">  1  5  2 -1</clus>
<clus scale="   24.511">  2  5  1 -1</clus>
</clustering>
</event>
<event>
 9    1  0.1671478E-005  0.1068767E+03  0.7546771E-02  0.1266988E+00
          2   -1    0    0  502    0 -0.00000000000E+00  0.00000000000E+00  0.39840823067E+03  0.39840823067E+03  0.00000000000E+00 0. -1.
         21   -1    0    0  501  502  0.00000000000E+00 -0.00000000000E+00 -0.19533792969E+03  0.19533792969E+03  0.00000000000E+00 0. -1.
         23    2    1    2    0    0 -0.52877053539E+02  0.18716853565E+02  0.36103760244E+03  0.37619123040E+03  0.89584530243E+02 0.  0.
         23    2    1    2    0    0  0.66770710012E+02  0.86864290116E+01 -0.14578194994E+03  0.18450260208E+03  0.90857313850E+02 0.  0.
        -13    1    3    3    0    0 -0.76505729249E+02  0.25644433945E+02  0.28949984369E+03  0.30053439587E+03  0.00000000000E+00 0. -1.
         13    1    3    3    0    0  0.23628675710E+02 -0.69275803792E+01  0.71537758748E+02  0.75656834539E+02  0.00000000000E+00 0.  1.
        -13    1    4    4    0    0  0.68124019044E+02 -0.29915845676E+02 -0.93124609596E+02  0.11919745260E+03  0.00000000000E+00 0. -1.
         13    1    4    4    0    0 -0.13533090315E+01  0.38602274687E+02 -0.52657340346E+02  0.65305149480E+02  0.00000000000E+00 0.  1.
          2    1    1    2  501    0 -0.13893656473E+02 -0.27403282577E+02 -0.12185351524E+02  0.33052327875E+02  0.00000000000E+00 0. -1.
<scales pt_clust_5="13000.00000" pt_clust_6="13000.00000" pt_clust_7="13000.00000" pt_clust_8="13000.00000" pt_clust_9="30.72415"></scales>
<clustering>
<clus scale="   30.724">  2  9  1 -1</clus>
<clus scale="   89.585">  5  6 -1 -1</clus>
<clus scale="   90.857">  7  8 -1 -1</clus>
<clus scale="  105.797">  1  5  2 -1</clus>
<clus scale="   30.724">  2  5  1 -1</clus>
</clustering>
</event>
<event>
 9    1  0.1671478E-005  0.9900359E+02  0.7546771E-02  0.1282595E+00
         21   -1    0    0  501  502  0.00000000000E+00  0.00000000000E+00  0.86099693221E+03  0.86099693221E+03  0.00000000000E+00 0.  1.
         -4   -1    0    0    0  501 -0.00000000000E+00 -0.00000000000E+00 -0.39426940848E+02  0.39426940848E+02  0.00000000000E+00 0.  1.
         23    2    1    2    0    0 -0.47593394796E+02 -0.18855671103E+01  0.59867448138E+02  0.11963880427E+03  0.91981767488E+02 0.  0.
         23    2    1    2    0    0 -0.21245640755E+02  0.27687767200E+02  0.44210085675E+03  0.45283720045E+03  0.91598978547E+02 0.  0.
        -11    1    4    4    0    0  0.35697394347E+02  0.38832901534E+01  0.14346977338E+03  0.14789509721E+03  0.00000000000E+00 0. -1.
         11    1    4    4    0    0 -0.56943035102E+02  0.23804477046E+02  0.29863108337E+03  0.30494210324E+03  0.00000000000E+00 0.  1.
        -11    1    3    3    0    0  0.25269859405E+02  0.11037006256E+02  0.27253541048E+02  0.38770308241E+02  0.00000000000E+00 0. -1.
         11    1    3    3    0    0 -0.72863254201E+02 -0.12922573366E+02  0.32613907089E+02  0.80868496034E+02  0.00000000000E+00 0.  1.
         -4    1    1    2    0  502  0.68839035552E+02 -0.25802200089E+02  0.31960168647E+03  0.32794786832E+03  0.00000000000E+00 0.  1.
<scales pt_clust_5="13000.00000" pt_clust_6="13000.00000" pt_clust_7="13000.00000" pt_clust_8="13000.00000" pt_clust_9="73.51576"></scales>
<clustering>
<clus scale="   73.516">  1  9  2 -1</clus>
<clus scale="   91.599">  5  6 -1 -1</clus>
<clus scale="   91.982">  7  8 -1 -1</clus>
<clus scale="   98.648">  1  5  2 -1</clus>
<clus scale="   73.516">  1  5  2 -1</clus>
</clustering>
</event>
<event>
 9    1  0.1671478E-005  0.1028771E+03  0.7546771E-02  0.1277203E+00
          3   -1    0    0  502    0 -0.00000000000E+00  0.00000000000E+00  0.40297501920E+03  0.40297501920E+03  0.00000000000E+00 0. -1.
         21   -1    0    0  501  502  0.00000000000E+00 -0.00000000000E+00 -0.45318900796E+03  0.45318900796E+03  0.00000000000E+00 0. -1.
         23    2    1    2    0    0  0.38734325288E+02 -0.21315521857E+01  0.37072606022E+03  0.38468578030E+03  0.95081261913E+02 0.  0.
         23    2    1    2    0    0 -0.62985932548E+02 -0.73486930546E+02 -0.28776035435E+03  0.31641978549E+03  0.89151009255E+02 0.  0.
        -11    1    4    4    0    0 -0.82492835731E+02 -0.58915289565E+02 -0.18646023953E+03  0.21223454059E+03  0.00000000000E+00 0. -1.
         11    1    4    4    0    0  0.19506903183E+02 -0.14571640982E+02 -0.10130011482E+03  0.10418524490E+03  0.00000000000E+00 0.  1.
        -13    1    3    3    0    0  0.61509142485E+02 -0.10098976909E+02  0.33975404747E+03  0.34542463247E+03  0.00000000000E+00 0. -1.
         13    1    3    3    0    0 -0.22774817197E+02  0.79674247228E+01  0.30972012749E+02  0.39261147829E+02  0.00000000000E+00 0.  1.
          3    1    1    2  501    0  0.24251607260E+02  0.75618482732E+02 -0.13317969463E+03  0.15505846138E+03  0.00000000000E+00 0. -1.
<scales pt_clust_5="13000.00000" pt_clust_6="13000.00000" pt_clust_7="13000.00000" pt_clust_8="13000.00000" pt_clust_9="79.41219"></scales>
<clustering>
<clus scale="   79.412">  2  9  1 -1</clus>
<clus scale="   89.151">  5  6 -1 -1</clus>
<clus scale="   95.081">  7  8 -1 -1</clus>
<clus scale="   97.423">  2  5  1 -1</clus>
<clus scale="   79.412">  2  5  1 -1</clus>
</clustering>
</event>
<event>
 9    1  0.1671478E-005  0.2070597E+03  0.7546771E-02  0.1144075E+00
          2   -1    0    0  502    0 -0.00000000000E+00  0.00000000000E+00  0.25097638379E+03  0.25097638379E+03  0.00000000000E+00 0. -1.
         21   -1    0    0  501  502  0.00000000000E+00 -0.00000000000E+00 -0.70300414859E+03  0.70300414859E+03  0.00000000000E+00 0. -1.
         23    2    1    2    0    0  0.74275480375E+02  0.18112579591E+03  0.10437620906E+03  0.23983428758E+03  0.91119106421E+02 0.  0.
         23    2    1    2    0    0 -0.11860751650E+03 -0.12875839078E+03 -0.49561350899E+02  0.20268058710E+03  0.89311962901E+02 0.  0.
        -11    1    3    3    0    0  0.38121592855E+02  0.13533132875E+03  0.11360983318E+03  0.18076232622E+03  0.00000000000E+00 0. -1.
         11    1    3    3    0    0  0.36153887519E+02  0.45794467156E+02 -0.92336241283E+01  0.59071961364E+02  0.00000000000E+00 0.  1.
        -13    1    4    4    0    0 -0.55570194198E+02 -0.77858140824E+02 -0.70699330736E+02  0.11894676096E+03  0.00000000000E+00 0. -1.
         13    1    4    4    0    0 -0.63037322307E+02 -0.50900249958E+02  0.21137979836E+02  0.83733826146E+02  0.00000000000E+00 0.  1.
          2    1    1    2  501    0  0.44332036130E+02 -0.52367405128E+02 -0.50684262296E+03  0.51146565769E+03  0.00000000000E+00 0. -1.
<scales pt_clust_5="13000.00000" pt_clust_6="13000.00000" pt_clust_7="13000.00000" pt_clust_8="13000.00000" pt_clust_9="68.61250"></scales>
<clustering>
<clus scale="   68.612">  2  9  1 -1</clus>
<clus scale="   89.312">  7  8 -1 -1</clus>
<clus scale="   91.119">  5  6 -1 -1</clus>
<clus scale="  206.271">  2  7  1 -1</clus>
<clus scale="   68.612">  2  5  1 -1</clus>
</clustering>
</event>
<event>
 9    1  0.1671478E-005  0.1618323E+03  0.7546771E-02  0.1203928E+00
         21   -1    0    0  501  502  0.00000000000E+00  0.00000000000E+00  0.46771096724E+02  0.46771096724E+02  0.00000000000E+00 0. -1.
          1   -1    0    0  502    0 -0.00000000000E+00 -0.00000000000E+00 -0.91310717338E+03  0.91310717338E+03  0.00000000000E+00 0. -1.
         23    2    1    2    0    0 -0.41643267871E+02 -0.49134466666E+02 -0.22549656366E+03  0.25126629913E+03  0.90209175156E+02 0.  0.
         23    2    1    2    0    0  0.28840528377E+02 -0.10729921628E+03 -0.34128655863E+03  0.37042950578E+03  0.91632994926E+02 0.  0.
        -11    1    3    3    0    0 -0.25603665544E+02 -0.65517346008E+02 -0.91975380578E+02  0.11579093639E+03  0.00000000000E+00 0. -1.
         11    1    3    3    0    0 -0.16039602327E+02  0.16382879342E+02 -0.13352118308E+03  0.13547536274E+03  0.00000000000E+00 0.  1.
        -13    1    4    4    0    0  0.47216980040E+02 -0.14594377599E+02 -0.12345213317E+03  0.13297694630E+03  0.00000000000E+00 0. -1.
         13    1    4    4    0    0 -0.18376451663E+02 -0.92704838676E+02 -0.21783442546E+03  0.23745255948E+03  0.00000000000E+00 0.  1.
          1    1    1    2  501    0  0.12802739494E+02  0.15643368294E+03 -0.29955295436E+03  0.33818246520E+03  0.00000000000E+00 0. -1.
<scales pt_clust_5="13000.00000" pt_clust_6="13000.00000" pt_clust_7="13000.00000" pt_clust_8="13000.00000" pt_clust_9="133.39077"></scales>
<clustering>
<clus scale="   90.209">  5  6 -1 -1</clus>
<clus scale="   91.633">  7  8 -1 -1</clus>
<clus scale="  110.843">  2  5  1 -1</clus>
<clus scale="  133.391">  1  9  2 -1</clus>
<clus scale="  133.391">  1  5  2 -1</clus>
</clustering>
</event>
<event>
 9    1  0.1671478E-005  0.1015209E+03  0.7546771E-02  0.1278910E+00
         -1   -1    0    0    0  501 -0.00000000000E+00  0.00000000000E+00  0.43627478705E+02  0.43627478705E+02  0.00000000000E+00 0.  1.
         21   -1    0    0  501  502  0.00000000000E+00 -0.00000000000E+00 -0.53483572855E+03  0.53483572855E+03  0.00000000000E+00 0. -1.
         23    2    1    2    0    0  0.26781101022E+02 -0.17730765419E+02 -0.37089673687E+02  0.10388904920E+03  0.91573376234E+02 0.  0.
         23    2    1    2    0    0 -0.48867732134E+02  0.13904075589E+02 -0.29965589682E+03  0.31849346695E+03  0.95200070522E+02 0.  0.
        -11    1    3    3    0    0  0.38255626868E+02  0.29580968740E+02 -0.18235686833E+02  0.51682366170E+02  0.00000000000E+00 0.  1.
         11    1    3    3    0    0 -0.11474525847E+02 -0.47311734159E+02 -0.18853986854E+02  0.52206683028E+02  0.00000000000E+00 0. -1.
        -13    1    4    4    0    0 -0.27481406440E+02 -0.38421734411E+02 -0.18096809586E+03  0.18703183979E+03  0.00000000000E+00 0. -1.
         13    1    4    4    0    0 -0.21386325694E+02  0.52325810000E+02 -0.11868780096E+03  0.13146162716E+03  0.00000000000E+00 0.  1.
         -1    1    1    2    0  502  0.22086631112E+02  0.38266898302E+01 -0.15446267934E+03  0.15608069111E+03  0.00000000000E+00 0.  1.
<scales pt_clust_5="13000.00000" pt_clust_6="13000.00000" pt_clust_7="13000.00000" pt_clust_8="13000.00000" pt_clust_9="22.41568"></scales>
<clustering>
<clus scale="   22.416">  2  9  1 -1</clus>
<clus scale="   91.573">  5  6 -1 -1</clus>
<clus scale="   95.200">  7  8 -1 -1</clus>
<clus scale="   98.128">  1  5  2 -1</clus>
<clus scale="   22.416">  2  5  1 -1</clus>
</clustering>
</event>
<event>
 9    1  0.1671478E-005  0.9421106E+02  0.7546771E-02  0.1294108E+00
         -2   -1    0    0    0  501 -0.00000000000E+00  0.00000000000E+00  0.25299283843E+03  0.25299283843E+03  0.00000000000E+00 0.  1.
         21   -1    0    0  501  502  0.00000000000E+00 -0.00000000000E+00 -0.78945052690E+02  0.78945052690E+02  0.00000000000E+00 0. -1.
         23    2    1    2    0    0  0.18419602071E+02 -0.16629661214E+02  0.18144842478E+03  0.20406981222E+03  0.90028495657E+02 0.  0.
         23    2    1    2    0    0  0.11167758925E+02  0.56345178405E+01 -0.17870889811E+02  0.94612534108E+02  0.92063544777E+02 0.  0.
        -11    1    3    3    0    0 -0.68968958948E+01 -0.44069736170E+02  0.14571831556E+03  0.15239270425E+03  0.00000000000E+00 0. -1.
         11    1    3    3    0    0  0.25316497966E+02  0.27440074956E+02  0.35730109220E+02  0.51677107966E+02  0.00000000000E+00 0.  1.
        -11    1    4    4    0    0 -0.27423663509E+02 -0.18949343484E+02 -0.32519031181E+02  0.46568469243E+02  0.00000000000E+00 0. -1.
         11    1    4    4    0    0  0.38591422433E+02  0.24583861325E+02  0.14648141370E+02  0.48044064864E+02  0.00000000000E+00 0.  1.
         -2    1    1    2    0  502 -0.29587360996E+02  0.10995143373E+02  0.10470250770E+02  0.33255544796E+02  0.00000000000E+00 0.  1.
<scales pt_clust_5="13000.00000" pt_clust_6="13000.00000" pt_clust_7="13000.00000" pt_clust_8="13000.00000" pt_clust_9="31.56430"></scales>
<clustering>
<clus scale="   31.564">  2  9  1 -1</clus>
<clus scale="   90.028">  5  6 -1 -1</clus>
<clus scale="   92.064">  7  8 -1 -1</clus>
<clus scale="   92.223">  1  5  2 -1</clus>
<clus scale="   31.564">  2  5  1 -1</clus>
</clustering>
</event>
<event>
 9    1  0.1671478E-005  0.1004065E+03  0.7546771E-02  0.1279927E+00
          2   -1    0    0  502    0 -0.00000000000E+00  0.00000000000E+00  0.32532359859E+03  0.32532359859E+03  0.00000000000E+00 0. -1.
         21   -1    0    0  501  502  0.00000000000E+00 -0.00000000000E+00 -0.84023075548E+02  0.84023075548E+02  0.00000000000E+00 0.  1.
         23    2    1    2    0    0 -0.20161195873E+02  0.12873066045E+02  0.19065378676E+03  0.21337125119E+03  0.92769794534E+02 0.  0.
         23    2    1    2    0    0  0.61923164717E+02 -0.28127838945E+02  0.81701457795E+02  0.14174290627E+03  0.93756437746E+02 0.  0.
        -13    1    4    4    0    0  0.44870353577E+02 -0.57917237671E+02  0.28886803466E+02  0.78754063159E+02  0.00000000000E+00 0.  1.
         13    1    4    4    0    0  0.17052811140E+02  0.29789398725E+02  0.52814654328E+02  0.62988843108E+02  0.00000000000E+00 0. -1.
        -13    1    3    3    0    0 -0.11204381610E+02 -0.39258452041E+02  0.10552676968E+03  0.11314885480E+03  0.00000000000E+00 0.  1.
         13    1    3    3    0    0 -0.89568142633E+01  0.52131518087E+02  0.85127017079E+02  0.10022239638E+03  0.00000000000E+00 0. -1.
          2    1    1    2  501    0 -0.41761968845E+02  0.15254772900E+02 -0.31054721513E+02  0.54232516687E+02  0.00000000000E+00 0. -1.
<scales pt_clust_5="13000.00000" pt_clust_6="13000.00000" pt_clust_7="13000.00000" pt_clust_8="13000.00000" pt_clust_9="44.46088"></scales>
<clustering>
<clus scale="   44.461">  2  9  1 -1</clus>
<clus scale="   92.770">  7  8 -1 -1</clus>
<clus scale="   93.756">  5  6 -1 -1</clus>
<clus scale="   99.486">  1  7  2 -1</clus>
<clus scale="   44.461">  2  5  1 -1</clus>
</clustering>
</event>
<event>
 9    1  0.1671478E-005  0.1385403E+03  0.7546771E-02  0.1235014E+00
         21   -1    0    0  501  502  0.00000000000E+00  0.00000000000E+00  0.20628317090E+03  0.20628317090E+03  0.00000000000E+00 0. -1.
          2   -1    0    0  502    0 -0.00000000000E+00 -0.00000000000E+00 -0.20393160031E+03  0.20393160031E+03  0.00000000000E+00 0. -1.
         23    2    1    2    0    0 -0.35774958748E+01  0.10643824533E+02  0.57113076719E+01  0.92095980186E+02  0.91230263913E+02 0.  0.
         23    2    1    2    0    0 -0.10522240025E+02 -0.10956222099E+03 -0.10225543070E+03  0.17753426155E+03  0.94591982295E+02 0.  0.
        -13    1    3    3    0    0 -0.38161197242E+02 -0.21477727206E+02 -0.37742744543E+01  0.43952416185E+02  0.00000000000E+00 0. -1.
         13    1    3    3    0    0  0.34583701367E+02  0.32121551739E+02  0.94855821262E+01  0.48143564000E+02  0.00000000000E+00 0.  1.
        -13    1    4    4    0    0 -0.26053536255E+02 -0.77505093741E+02 -0.14790501820E+02  0.83093834015E+02  0.00000000000E+00 0.  1.
         13    1    4    4    0    0  0.15531296229E+02 -0.32057127251E+02 -0.87464928879E+02  0.94440427540E+02  0.00000000000E+00 0. -1.
          2    1    1    2  501    0  0.14099735900E+02  0.98918396459E+02  0.98895693611E+02  0.14058452947E+03  0.00000000000E+00 0. -1.
<scales pt_clust_5="13000.00000" pt_clust_6="13000.00000" pt_clust_7="13000.00000" pt_clust_8="13000.00000" pt_clust_9="101.22134"></scales>
<clustering>
<clus scale="   91.230">  5  6 -1 -1</clus>
<clus scale="   91.919">  2  5  1 -1</clus>
<clus scale="   94.592">  7  8 -1 -1</clus>
<clus scale="  101.221">  1  9  2 -1</clus>
<clus scale="  101.221">  1  5  2 -1</clus>
</clustering>
</event>
<event>
 9    1  0.1671478E-005  0.1022744E+03  0.7546771E-02  0.1275588E+00
         21   -1    0    0  501  502  0.00000000000E+00  0.00000000000E+00  0.33934728045E+03  0.33934728045E+03  0.00000000000E+00 0. -1.
         -1   -1    0    0    0  501 -0.00000000000E+00 -0.00000000000E+00 -0.69940635674E+02  0.69940635674E+02  0.00000000000E+00 0.  1.
         23    2    1    2    0    0  0.33855270984E+01  0.53138632881E+02 -0.16386169717E+01  0.10553730064E+03  0.91105766351E+02 0.  0.
         23    2    1    2    0    0 -0.57747905781E+01 -0.26548990992E+02  0.13501231175E+03  0.16512276431E+03  0.91098879471E+02 0.  0.
        -13    1    4    4    0    0  0.29599277594E+02 -0.33425066973E+02  0.11617792373E+03  0.12446148922E+03  0.00000000000E+00 0. -1.
         13    1    4    4    0    0 -0.35374068173E+02  0.68760759812E+01  0.18834388016E+02  0.40661275090E+02  0.00000000000E+00 0.  1.
        -13    1    3    3    0    0  0.44903148500E+02  0.19910648116E+02 -0.13730888980E+02  0.51002587834E+02  0.00000000000E+00 0.  1.
         13    1    3    3    0    0 -0.41517621402E+02  0.33227984765E+02  0.12092272008E+02  0.54534712805E+02  0.00000000000E+00 0. -1.
         -1    1    1    2    0  502  0.23892634798E+01 -0.26589641889E+02  0.13603295000E+03  0.13862785118E+03  0.00000000000E+00 0.  1.
<scales pt_clust_5="13000.00000" pt_clust_6="13000.00000" pt_clust_7="13000.00000" pt_clust_8="13000.00000" pt_clust_9="26.69677"></scales>
<clustering>
<clus scale="   26.697">  1  9  2 -1</clus>
<clus scale="   91.099">  5  6 -1 -1</clus>
<clus scale="   91.106">  7  8 -1 -1</clus>
<clus scale="  102.268">  1  5  2 -1</clus>
<clus scale="   26.697">  1  5  2 -1</clus>
</clustering>
</event>
<event>
 9    1  0.1671478E-005  0.1061159E+03  0.7546771E-02  0.1271919E+00
          1   -1    0    0  502    0 -0.00000000000E+00  0.00000000000E+00  0.16760997083E+03  0.16760997083E+03  0.00000000000E+00 0. -1.
         21   -1    0    0  501  502  0.00000000000E+00 -0.00000000000E+00 -0.34163494556E+03  0.34163494556E+03  0.00000000000E+00 0.  1.
         23    2    1    2    0    0  0.44454645133E+02 -0.78929071688E+01  0.12441335290E+03  0.16297667691E+03  0.95101006199E+02 0.  0.
         23    2    1    2    0    0 -0.53134708905E+02  0.37548175248E+02 -0.10593264239E+03  0.15129845391E+03  0.86234185086E+02 0.  0.
        -11    1    3    3    0    0  0.22977474972E+02  0.22541470904E+02 -0.94404378612E+00  0.32202072686E+02  0.00000000000E+00 0.  1.
         11    1    3    3    0    0  0.21477170161E+02 -0.30434378072E+02  0.12535739668E+03  0.13077460423E+03  0.00000000000E+00 0. -1.
        -11    1    4    4    0    0 -0.44122842946E+02  0.10748684310E+02 -0.11331503599E+03  0.12207643862E+03  0.00000000000E+00 0.  1.
         11    1    4    4    0    0 -0.90118659587E+01  0.26799490938E+02  0.73823936009E+01  0.29222015294E+02  0.00000000000E+00 0. -1.
          1    1    1    2  501    0  0.86800637714E+01 -0.29655268079E+02 -0.19250568524E+03  0.19496978556E+03  0.00000000000E+00 0. -1.
<scales pt_clust_5="13000.00000" pt_clust_6="13000.00000" pt_clust_7="13000.00000" pt_clust_8="13000.00000" pt_clust_9="30.89949"></scales>
<clustering>
<clus scale="   30.899">  2  9  1 -1</clus>
<clus scale="   86.234">  7  8 -1 -1</clus>
<clus scale="   95.101">  5  6 -1 -1</clus>
<clus scale="   98.248">  2  7  1 -1</clus>
<clus scale="   30.899">  2  5  1 -1</clus>
</clustering>
</event>
<event>
 9    1  0.1671478E-005  0.1240892E+03  0.7546771E-02  0.1236889E+00
          1   -1    0    0  502    0 -0.00000000000E+00  0.00000000000E+00  0.90172742614E+02  0.90172742614E+02  0.00000000000E+00 0. -1.
         21   -1    0    0  501  502  0.00000000000E+00 -0.00000000000E+00 -0.35113910834E+03  0.35113910834E+03  0.00000000000E+00 0. -1.
         23    2    1    2    0    0 -0.45256416858E+02  0.81483199775E+02  0.90374874686E+01  0.12996321918E+03  0.90117185091E+02 0.  0.
         23    2    1    2    0    0  0.38979911283E+02 -0.44646457064E+02 -0.14830179589E+03  0.18403904498E+03  0.91456043004E+02 0.  0.
        -11    1    3    3    0    0 -0.19861711013E+02  0.20834109832E+02 -0.39043976722E+02  0.48507523284E+02  0.00000000000E+00 0.  1.
         11    1    3    3    0    0 -0.25394705845E+02  0.60649089943E+02  0.48081464191E+02  0.81455695901E+02  0.00000000000E+00 0. -1.
        -13    1    4    4    0    0 -0.25281036231E+02 -0.33865610754E+02 -0.73967777404E+02  0.85189450513E+02  0.00000000000E+00 0.  1.
         13    1    4    4    0    0  0.64260947514E+02 -0.10780846310E+02 -0.74334018484E+02  0.98849594468E+02  0.00000000000E+00 0. -1.
          1    1    1    2  501    0  0.62765055750E+01 -0.36836742711E+02 -0.12170205730E+03  0.12730958679E+03  0.00000000000E+00 0. -1.
<scales pt_clust_5="13000.00000" pt_clust_6="13000.00000" pt_clust_7="13000.00000" pt_clust_8="13000.00000" pt_clust_9="37.36763"></scales>
<clustering>
<clus scale="   37.368">  2  9  1 -1</clus>
<clus scale="   90.117">  5  6 -1 -1</clus>
<clus scale="   91.456">  7  8 -1 -1</clus>
<clus scale="  123.106">  1  5  2 -1</clus>
<clus scale="   37.368">  2  5  1 -1</clus>
</clustering>
</event>
<event>
 9    1  0.1671478E-005  0.9921349E+02  0.7546771E-02  0.1282174E+00
         21   -1    0    0  501  502  0.00000000000E+00  0.00000000000E+00  0.52085532959E+02  0.52085532959E+02  0.00000000000E+00 0. -1.
          1   -1    0    0  502    0 -0.00000000000E+00 -0.00000000000E+00 -0.68260942768E+03  0.68260942768E+03  0.00000000000E+00 0. -1.
         23    2    1    2    0    0 -0.72093406582E+01 -0.43631238243E+02 -0.45112618853E+03  0.46268369958E+03  0.92766957110E+02 0.  0.
         23    2    1    2    0    0 -0.23639575431E+02  0.15071648670E+02 -0.20204267070E+03  0.22426086632E+03  0.93197163363E+02 0.  0.
        -11    1    4    4    0    0  0.28822888036E+02 -0.18541218244E+02 -0.85398133517E+02  0.92018350653E+02  0.00000000000E+00 0.  1.
         11    1    4    4    0    0 -0.52462463468E+02  0.33612866914E+02 -0.11664453718E+03  0.13224251566E+03  0.00000000000E+00 0. -1.
        -13    1    3    3    0    0  0.17506304083E+02 -0.66678065909E+02 -0.30849180245E+03  0.31610066013E+03  0.00000000000E+00 0.  1.
         13    1    3    3    0    0 -0.24715644741E+02  0.23046827666E+02 -0.14263438608E+03  0.14658303945E+03  0.00000000000E+00 0. -1.
          1    1    1    2  501    0  0.30848916089E+02  0.28559589573E+02  0.22644964510E+02  0.47750394743E+02  0.00000000000E+00 0. -1.
<scales pt_clust_5="13000.00000" pt_clust_6="13000.00000" pt_clust_7="13000.00000" pt_clust_8="13000.00000" pt_clust_9="42.03934"></scales>
<clustering>
<clus scale="   42.039">  1  9  2 -1</clus>
<clus scale="   92.767">  7  8 -1 -1</clus>
<clus scale="   93.197">  5  6 -1 -1</clus>
<clus scale="   98.809">  2  7  1 -1</clus>
<clus scale="   42.039">  1  5  2 -1</clus>
</clustering>
</event>
<event>
 9    1  0.1671478E-005  0.1255104E+03  0.7546771E-02  0.1250600E+00
          1   -1    0    0  502    0 -0.00000000000E+00  0.00000000000E+00  0.71004396409E+03  0.71004396409E+03  0.00000000000E+00 0. -1.
         21   -1    0    0  501  502  0.00000000000E+00 -0.00000000000E+00 -0.26426286706E+02  0.26426286706E+02  0.00000000000E+00 0.  1.
         23    2    1    2    0    0  0.11770454265E+02 -0.50959979871E+01  0.37303550449E+03  0.38377423009E+03  0.89233733990E+02 0.  0.
         23    2    1    2    0    0 -0.14589289400E+02 -0.31349468463E+02  0.25763741357E+03  0.28835812056E+03  0.12481078591E+03 0.  0.
        -13    1    3    3    0    0 -0.22600118584E+02 -0.33359654071E+02  0.11324282093E+03  0.12019803814E+03  0.00000000000E+00 0.  1.
         13    1    3    3    0    0  0.34370572848E+02  0.28263656084E+02  0.25979268355E+03  0.26357619195E+03  0.00000000000E+00 0. -1.
        -13    1    4    4    0    0 -0.69371332339E+02 -0.26707098934E+02  0.15594015970E+03  0.17275122081E+03  0.00000000000E+00 0.  1.
         13    1    4    4    0    0  0.54782042939E+02 -0.46423695292E+01  0.10169725387E+03  0.11560689974E+03  0.00000000000E+00 0. -1.
          1    1    1    2  501    0  0.28188351350E+01  0.36445466450E+02  0.52944759319E+02  0.64337900150E+02  0.00000000000E+00 0. -1.
<scales pt_clust_5="13000.00000" pt_clust_6="13000.00000" pt_clust_7="13000.00000" pt_clust_8="13000.00000" pt_clust_9="36.55431"></scales>
<clustering>
<clus scale="   36.554">  2  9  1 -1</clus>
<clus scale="   89.234">  5  6 -1 -1</clus>
<clus scale="   90.210">  1  5  2 -1</clus>
<clus scale="  124.811">  7  8 -1 -1</clus>
<clus scale="   36.554">  2  5  1 -1</clus>
</clustering>
</event>
<event>
 9    1  0.1671478E-005  0.1092585E+03  0.7546771E-02  0.1262025E+00
         21   -1    0    0  501  502  0.00000000000E+00  0.00000000000E+00  0.86161839338E+02  0.86161839338E+02  0.00000000000E+00 0.  1.
         -1   -1    0    0    0  501 -0.00000000000E+00 -0.00000000000E+00 -0.28618600568E+03  0.28618600568E+03  0.00000000000E+00 0.  1.
         23    2    1    2    0    0 -0.94286323403E+01  0.38222145251E+02 -0.11257107205E+03  0.15064123360E+03  0.92036424866E+02 0.  0.
         23    2    1    2    0    0  0.31540827508E+02 -0.83068250174E+02 -0.10811779541E+03  0.16760344909E+03  0.92229607382E+02 0.  0.
        -11    1    3    3    0    0 -0.29743527279E+02  0.55320454075E+02 -0.10612242617E+03  0.12331666306E+03  0.00000000000E+00 0.  1.
         11    1    3    3    0    0  0.20314894939E+02 -0.17098308824E+02 -0.64486458811E+01  0.27324570531E+02  0.00000000000E+00 0. -1.
        -13    1    4    4    0    0  0.12799573972E+01 -0.20197425824E+02 -0.94334239518E+02  0.96480687427E+02  0.00000000000E+00 0.  1.
         13    1    4    4    0    0  0.30260870111E+02 -0.62870824349E+02 -0.13783555889E+02  0.71122761667E+02  0.00000000000E+00 0. -1.
         -1    1    1    2    0  502 -0.22112195168E+02  0.44846104923E+02  0.20664701112E+02  0.54103162328E+02  0.00000000000E+00 0.  1.
<scales pt_clust_5="13000.00000" pt_clust_6="13000.00000" pt_clust_7="13000.00000" pt_clust_8="13000.00000" pt_clust_9="50.00122"></scales>
<clustering>
<clus scale="   50.001">  1  9  2 -1</clus>
<clus scale="   92.036">  5  6 -1 -1</clus>
<clus scale="   92.230">  7  8 -1 -1</clus>
<clus scale="  109.095">  2  5  1 -1</clus>
<clus scale="   50.001">  1  5  2 -1</clus>
</clustering>
</event>
<event>
 9    1  0.1671478E-005  0.2161964E+03  0.7546771E-02  0.1136857E+00
          1   -1    0    0  502    0 -0.00000000000E+00  0.00000000000E+00  0.66255013372E+03  0.66255013372E+03  0.00000000000E+00 0. -1.
         21   -1    0    0  501  502  0.00000000000E+00 -0.00000000000E+00 -0.12310385882E+03  0.12310385882E+03  0.00000000000E+00 0. -1.
         23    2    1    2    0    0 -0.23121028121E+02  0.17937615517E+03  0.36820867968E+03  0.42015888673E+03  0.90804577651E+02 0.  0.
         23    2    1    2    0    0  0.31809845692E+02 -0.22809107046E+03  0.19013135867E+03  0.31252706997E+03  0.92118582319E+02 0.  0.
        -13    1    4    4    0    0  0.47797657969E+02 -0.19741111240E+03  0.12422278642E+03  0.23809045356E+03  0.00000000000E+00 0. -1.
         13    1    4    4    0    0 -0.15987812277E+02 -0.30679958056E+02  0.65908572246E+02  0.74436616414E+02  0.00000000000E+00 0.  1.
        -13    1    3    3    0    0  0.17551560984E+02  0.13096181130E+03  0.29615709563E+03  0.32429628213E+03  0.00000000000E+00 0.  1.
         13    1    3    3    0    0 -0.40672589105E+02  0.48414343862E+02  0.72051584054E+02  0.95862604600E+02  0.00000000000E+00 0. -1.
          1    1    1    2  501    0 -0.86888175713E+01  0.48714915292E+02 -0.18893763455E+02  0.52968035835E+02  0.00000000000E+00 0. -1.
<scales pt_clust_5="13000.00000" pt_clust_6="13000.00000" pt_clust_7="13000.00000" pt_clust_8="13000.00000" pt_clust_9="49.48372"></scales>
<clustering>
<clus scale="   49.484">  2  9  1 -1</clus>
<clus scale="   90.805">  7  8 -1 -1</clus>
<clus scale="   92.119">  5  6 -1 -1</clus>
<clus scale="  215.640">  1  7  2 -1</clus>
<clus scale="   49.484">  2  5  1 -1</clus>
</clustering>
</event>
<event>
 9    1  0.1671478E-005  0.2613319E+03  0.7546771E-02  0.1106623E+00
         -1   -1    0    0    0  501 -0.00000000000E+00  0.00000000000E+00  0.15855186690E+03  0.15855186690E+03  0.00000000000E+00 0.  1.
         21   -1    0    0  501  502  0.00000000000E+00 -0.00000000000E+00 -0.50641860972E+03  0.50641860972E+03  0.00000000000E+00 0. -1.
         23    2    1    2    0    0  0.22396654165E+03 -0.11429341738E+03 -0.76793402348E+02  0.27788900664E+03  0.90005979414E+02 0.  0.
         23    2    1    2    0    0 -0.20961112956E+03  0.96232534167E+02 -0.22698592785E+03  0.33732231695E+03  0.95216636146E+02 0.  0.
        -11    1    4    4    0    0 -0.96282033474E+02 -0.45669986484E+01 -0.70695577764E+02  0.11953640517E+03  0.00000000000E+00 0. -1.
         11    1    4    4    0    0 -0.11332909609E+03  0.10079953282E+03 -0.15629035009E+03  0.21778591177E+03  0.00000000000E+00 0.  1.
        -11    1    3    3    0    0  0.36680374792E+02 -0.53935123474E+01  0.18237118427E+02  0.41317458282E+02  0.00000000000E+00 0.  1.
         11    1    3    3    0    0  0.18728616686E+03 -0.10889990503E+03 -0.95030520775E+02  0.23657154836E+03  0.00000000000E+00 0. -1.
         -1    1    1    2    0  502 -0.14355412095E+02  0.18060883213E+02 -0.44087412626E+02  0.49759153036E+02  0.00000000000E+00 0.  1.
<scales pt_clust_5="13000.00000" pt_clust_6="13000.00000" pt_clust_7="13000.00000" pt_clust_8="13000.00000" pt_clust_9="23.07105"></scales>
<clustering>
<clus scale="   23.071">  2  9  1 -1</clus>
<clus scale="   90.006">  7  8 -1 -1</clus>
<clus scale="   95.217">  5  6 -1 -1</clus>
<clus scale="  259.479">  1  7  2 -1</clus>
<clus scale="   23.071">  2  5  1 -1</clus>
</clustering>
</event>
<event>
 9    1  0.1955693E-005  0.2135313E+03  0.7546771E-02  0.1170961E+00
          2   -1    0    0  502    0 -0.00000000000E+00  0.00000000000E+00  0.19190940617E+03  0.19190940617E+03  0.00000000000E+00 0. -1.
         21   -1    0    0  501  502  0.00000000000E+00 -0.00000000000E+00 -0.64536439214E+03  0.64536439214E+03  0.00000000000E+00 0. -1.
         23    2    1    2    0    0 -0.23960927762E+02  0.36355359941E+02 -0.15972147564E+03  0.18860324832E+03  0.90357054183E+02 0.  0.
         23    2    1    2    0    0 -0.10081793682E+03 -0.18048479366E+03  0.70680798899E+02  0.23740318259E+03  0.92873455008E+02 0.  0.
        -11    1    4    4    0    0 -0.21071028074E+02 -0.22105463603E+02 -0.21695191927E+02  0.37460927617E+02  0.00000000000E+00 0.  1.
         11    1    4    4    0    0 -0.79746908750E+02 -0.15837933005E+03  0.92375990826E+02  0.19994225498E+03  0.00000000000E+00 0. -1.
        -13    1    3    3    0    0  0.16816206791E+02  0.46562107339E+02 -0.46854333839E+02  0.68162623557E+02  0.00000000000E+00 0.  1.
         13    1    3    3    0    0 -0.40777134553E+02 -0.10206747398E+02 -0.11286714181E+03  0.12044062477E+03  0.00000000000E+00 0. -1.
          2    1    1    2  501    0  0.12477886459E+03  0.14412943372E+03 -0.36441430923E+03  0.41126736739E+03  0.00000000000E+00 0. -1.
<scales pt_clust_5="13000.00000" pt_clust_6="13000.00000" pt_clust_7="13000.00000" pt_clust_8="13000.00000" pt_clust_9="192.27617"></scales>
<clustering>
<clus scale="   90.357">  7  8 -1 -1</clus>
<clus scale="   92.873">  5  6 -1 -1</clus>
<clus scale="  100.301">  1  7  2 -1</clus>
<clus scale="  192.276">  2  9  1 -1</clus>
<clus scale="  192.276">  2  5  1 -1</clus>
</clustering>
</event>
<event>
 9    1  0.1671478E-005  0.1103654E+03  0.7546771E-02  0.1261873E+00
         -1   -1    0    0    0  501 -0.00000000000E+00  0.00000000000E+00  0.24593517633E+03  0.24593517633E+03  0.00000000000E+00 0.  1.
         21   -1    0    0  501  502  0.00000000000E+00 -0.00000000000E+00 -0.74976557007E+02  0.74976557007E+02  0.00000000000E+00 0. -1.
         23    2    1    2    0    0 -0.58288862568E+02  0.17592169407E+02  0.15784849084E+03  0.19322360580E+03  0.93338844292E+02 0.  0.
         23    2    1    2    0    0  0.45311960548E+02 -0.33520540462E+02  0.18609854244E+02  0.10641937172E+03  0.88328679382E+02 0.  0.
        -13    1    4    4    0    0 -0.47492062255E+01  0.24763310150E+02 -0.56665536610E+01  0.25843496663E+02  0.00000000000E+00 0. -1.
         13    1    4    4    0    0  0.50061166774E+02 -0.58283850612E+02  0.24276407905E+02  0.80575875060E+02  0.00000000000E+00 0.  1.
        -13    1    3    3    0    0 -0.25591341314E+02 -0.33831686652E+02  0.10237979827E+03  0.11082022769E+03  0.00000000000E+00 0.  1.
         13    1    3    3    0    0 -0.32697521254E+02  0.51423856059E+02  0.55468692570E+02  0.82403378107E+02  0.00000000000E+00 0. -1.
         -1    1    1    2    0  502  0.12976902020E+02  0.15928371055E+02 -0.54997257601E+01  0.21268755815E+02  0.00000000000E+00 0.  1.
<scales pt_clust_5="13000.00000" pt_clust_6="13000.00000" pt_clust_7="13000.00000" pt_clust_8="13000.00000" pt_clust_9="20.54539"></scales>
<clustering>
<clus scale="   20.545">  2  9  1 -1</clus>
<clus scale="   88.329">  5  6 -1 -1</clus>
<clus scale="   93.339">  7  8 -1 -1</clus>
<clus scale="  106.162">  2  5  1 -1</clus>
<clus scale="   20.545">  2  5  1 -1</clus>
</clustering>
</event>
<event>
 9    1  0.1671478E-005  0.1605972E+03  0.7546771E-02  0.1197022E+00
          2   -1    0    0  502    0 -0.00000000000E+00  0.00000000000E+00  0.48140928707E+03  0.48140928707E+03  0.00000000000E+00 0. -1.
         21   -1    0    0  501  502  0.00000000000E+00 -0.00000000000E+00 -0.12931373371E+03  0.12931373371E+03  0.00000000000E+00 0.  1.
         23    2    1    2    0    0 -0.76087204797E+02  0.57251660840E+02  0.21894813453E+03  0.25553498246E+03  0.91064956181E+02 0.  0.
         23    2    1    2    0    0  0.12904496658E+03  0.64543187458E+02  0.46742108220E+01  0.17040742575E+03  0.90545105084E+02 0.  0.
        -11    1    3    3    0    0 -0.24700130954E+02  0.71778033406E+02  0.15197741737E+03  0.16988030474E+03  0.00000000000E+00 0.  1.
         11    1    3    3    0    0 -0.51387073843E+02 -0.14526372567E+02  0.66970717160E+02  0.85654677718E+02  0.00000000000E+00 0. -1.
        -13    1    4    4    0    0  0.47604158332E+01  0.27212955906E+02  0.27117371700E+02  0.38711217702E+02  0.00000000000E+00 0. -1.
         13    1    4    4    0    0  0.12428455075E+03  0.37330231552E+02 -0.22443160878E+02  0.13169620804E+03  0.00000000000E+00 0.  1.
          2    1    1    2  501    0 -0.52957761787E+02 -0.12179484830E+03  0.12847320800E+03  0.18478061257E+03  0.00000000000E+00 0. -1.
<scales pt_clust_5="13000.00000" pt_clust_6="13000.00000" pt_clust_7="13000.00000" pt_clust_8="13000.00000" pt_clust_9="132.63889"></scales>
<clustering>
<clus scale="   90.545">  7  8 -1 -1</clus>
<clus scale="   91.065">  5  6 -1 -1</clus>
<clus scale="  131.757">  1  5  2 -1</clus>
<clus scale="  132.639">  2  9  1 -1</clus>
<clus scale="  132.639">  2  5  1 -1</clus>
</clustering>
</event>
<event>
 9    1  0.1671478E-005  0.9925470E+02  0.7546771E-02  0.1285319E+00
          1   -1    0    0  502    0 -0.00000000000E+00  0.00000000000E+00  0.27671771672E+02  0.27671771672E+02  0.00000000000E+00 0. -1.
         21   -1    0    0  501  502  0.00000000000E+00 -0.00000000000E+00 -0.60147422239E+03  0.60147422239E+03  0.00000000000E+00 0. -1.
         23    2    1    2    0    0  0.32070514935E+02 -0.31210009435E+02 -0.12276075358E+03  0.15837663681E+03  0.89500691892E+02 0.  0.
         23    2    1    2    0    0 -0.45189881298E+02  0.58420257143E+01 -0.24060035102E+03  0.25839889667E+03  0.82493674033E+02 0.  0.
        -11    1    4    4    0    0 -0.68782661718E+02  0.11539072389E+01 -0.15706987549E+03  0.17147399757E+03  0.00000000000E+00 0. -1.
         11    1    4    4    0    0  0.23592780420E+02  0.46881184753E+01 -0.83530475525E+02  0.86924899103E+02  0.00000000000E+00 0.  1.
        -11    1    3    3    0    0  0.52937976032E+02 -0.48662471267E+02 -0.98304790584E+02  0.12179612994E+03  0.00000000000E+00 0. -1.
         11    1    3    3    0    0 -0.20867461097E+02  0.17452461832E+02 -0.24455962999E+02  0.36580506869E+02  0.00000000000E+00 0.  1.
          1    1    1    2  501    0  0.13119366362E+02  0.25367983721E+02 -0.21044134612E+03  0.21237046058E+03  0.00000000000E+00 0. -1.
<scales pt_clust_5="13000.00000" pt_clust_6="13000.00000" pt_clust_7="13000.00000" pt_clust_8="13000.00000" pt_clust_9="28.55963"></scales>
<clustering>
<clus scale="   28.560">  2  9  1 -1</clus>
<clus scale="   82.494">  5  6 -1 -1</clus>
<clus scale="   89.501">  7  8 -1 -1</clus>
<clus scale="   92.986">  2  5  1 -1</clus>
<clus scale="   28.560">  2  5  1 -1</clus>
</clustering>
</event>
<event>
 9    1  0.1671478E-005  0.1569327E+03  0.7546771E-02  0.1193723E+00
         21   -1    0    0  501  502  0.00000000000E+00  0.00000000000E+00  0.57565553072E+02  0.57565553072E+02  0.00000000000E+00 0.  1.
          1   -1    0    0  502    0 -0.00000000000E+00 -0.00000000000E+00 -0.92476137074E+03  0.92476137074E+03  0.00000000000E+00 0. -1.
         23    2    1    2    0    0 -0.11581908700E+03  0.14632836300E+02 -0.57966317255E+03  0.59687491636E+03  0.81376233357E+02 0.  0.
         23    2    1    2    0    0  0.16736727012E+03 -0.33395916848E+02 -0.26036186891E+03  0.32423502081E+03  0.90625358296E+02 0.  0.
        -11    1    3    3    0    0 -0.15349603451E+02 -0.22717069369E+02 -0.55961910433E+02  0.62317020036E+02  0.00000000000E+00 0. -1.
         11    1    3    3    0    0 -0.10046948355E+03  0.37349905669E+02 -0.52370126211E+03  0.53455789632E+03  0.00000000000E+00 0.  1.
        -11    1    4    4    0    0  0.15089154193E+03  0.49156353819E+01 -0.19340667214E+03  0.24535395192E+03  0.00000000000E+00 0.  1.
         11    1    4    4    0    0  0.16475728194E+02 -0.38311552230E+02 -0.66955196767E+02  0.78881068882E+02  0.00000000000E+00 0. -1.
          1    1    1    2  501    0 -0.51548183119E+02  0.18763080548E+02 -0.27170776218E+02  0.61216986653E+02  0.00000000000E+00 0. -1.
<scales pt_clust_5="13000.00000" pt_clust_6="13000.00000" pt_clust_7="13000.00000" pt_clust_8="13000.00000" pt_clust_9="54.85680"></scales>
<clustering>
<clus scale="   54.857">  1  9  2 -1</clus>
<clus scale="   81.376">  5  6 -1 -1</clus>
<clus scale="   90.625">  7  8 -1 -1</clus>
<clus scale="  151.780">  2  5  1 -1</clus>
<clus scale="   54.857">  1  5  2 -1</clus>
</clustering>
</event>
<event>
 9    1  0.1671478E-005  0.1139902E+03  0.7546771E-02  0.1253383E+00
         -1   -1    0    0    0  501 -0.00000000000E+00  0.00000000000E+00  0.10729850744E+03  0.10729850744E+03  0.00000000000E+00 0.  1.
         21   -1    0    0  501  502  0.00000000000E+00 -0.00000000000E+00 -0.17873668548E+03  0.17873668548E+03  0.00000000000E+00 0. -1.
         23    2    1    2    0    0  0.58399895693E+01  0.60008207597E+02 -0.26883928428E+02  0.11249738444E+03  0.91092400560E+02 0.  0.
         23    2    1    2    0    0  0.12884747320E+02 -0.80677132460E+02 -0.65326576831E+02  0.13876267650E+03  0.91174022248E+02 0.  0.
        -11    1    4    4    0    0 -0.27627773672E+02 -0.39150586295E+02  0.43280734425E+01  0.48112311367E+02  0.00000000000E+00 0.  1.
         11    1    4    4    0    0  0.40512520993E+02 -0.41526546165E+02 -0.69654650274E+02  0.90650365131E+02  0.00000000000E+00 0. -1.
        -13    1    3    3    0    0  0.97882960639E+01  0.27657923709E+02  0.33100438427E+02  0.44231329483E+02  0.00000000000E+00 0.  1.
         13    1    3    3    0    0 -0.39483064946E+01  0.32350283888E+02 -0.59984366855E+02  0.68266054953E+02  0.00000000000E+00 0. -1.
         -1    1    1    2    0  502 -0.18724736889E+02  0.20668924863E+02  0.20772327219E+02  0.34775131986E+02  0.00000000000E+00 0.  1.
<scales pt_clust_5="13000.00000" pt_clust_6="13000.00000" pt_clust_7="13000.00000" pt_clust_8="13000.00000" pt_clust_9="27.88944"></scales>
<clustering>
<clus scale="   27.889">  2  9  1 -1</clus>
<clus scale="   91.092">  7  8 -1 -1</clus>
<clus scale="   91.174">  5  6 -1 -1</clus>
<clus scale="  113.925">  1  7  2 -1</clus>
<clus scale="   27.889">  2  5  1 -1</clus>
</clustering>
</event>
<event>
 9    1  0.1671478E-005  0.9636498E+02  0.7546771E-02  0.1289123E+00
         21   -1    0    0  501  502  0.00000000000E+00  0.00000000000E+00  0.66222806760E+02  0.66222806760E+02  0.00000000000E+00 0.  1.
         -3   -1    0    0    0  501 -0.00000000000E+00 -0.00000000000E+00 -0.41745861053E+03  0.41745861053E+03  0.00000000000E+00 0.  1.
         23    2    1    2    0    0  0.16112794461E+00 -0.12613377513E+01 -0.25546987001E+03  0.27208407591E+03  0.93612354688E+02 0.  0.
         23    2    1    2    0    0 -0.20375719976E+02 -0.48860585916E+02 -0.11079525736E+03  0.15550173076E+03  0.95407926273E+02 0.  0.
        -11    1    3    3    0    0  0.13319974440E+02 -0.45456263305E+02 -0.12198162077E+03  0.13085568157E+03  0.00000000000E+00 0.  1.
         11    1    3    3    0    0 -0.13158846495E+02  0.44194925554E+02 -0.13348824923E+03  0.14122839434E+03  0.00000000000E+00 0. -1.
        -11    1    4    4    0    0  0.19662954750E+02 -0.57732005193E+02 -0.92025605128E+02  0.11040076183E+03  0.00000000000E+00 0.  1.
         11    1    4    4    0    0 -0.40038674726E+02  0.88714192770E+01 -0.18769652232E+02  0.45100968933E+02  0.00000000000E+00 0. -1.
         -3    1    1    2    0  502  0.20214592032E+02  0.50121923668E+02  0.15029323591E+02  0.56095610619E+02  0.00000000000E+00 0.  1.
<scales pt_clust_5="13000.00000" pt_clust_6="13000.00000" pt_clust_7="13000.00000" pt_clust_8="13000.00000" pt_clust_9="54.04477"></scales>
<clustering>
<clus scale="   54.045">  1  9  2 -1</clus>
<clus scale="   93.612">  5  6 -1 -1</clus>
<clus scale="   94.588">  2  5  1 -1</clus>
<clus scale="   95.408">  7  8 -1 -1</clus>
<clus scale="   54.045">  1  5  2 -1</clus>
</clustering>
</event>
<event>
 9    1  0.1671478E-005  0.1027536E+03  0.7546771E-02  0.1276897E+00
         21   -1    0    0  501  502  0.00000000000E+00  0.00000000000E+00  0.37409491645E+02  0.37409491645E+02  0.00000000000E+00 0. -1.
          1   -1    0    0  502    0 -0.00000000000E+00 -0.00000000000E+00 -0.46513924738E+03  0.46513924738E+03  0.00000000000E+00 0. -1.
         23    2    1    2    0    0 -0.25418714619E+02 -0.35815945182E+02 -0.31942841615E+03  0.33590752899E+03  0.94183130155E+02 0.  0.
         23    2    1    2    0    0  0.38321615476E+02  0.11875693787E+02 -0.94663557383E+02  0.13621737743E+03  0.89355506274E+02 0.  0.
        -11    1    4    4    0    0  0.81682792620E+01  0.48861024680E+02 -0.40133717298E+02  0.63756064676E+02  0.00000000000E+00 0.  1.
         11    1    4    4    0    0  0.30153336214E+02 -0.36985330893E+02 -0.54529840084E+02  0.72461312752E+02  0.00000000000E+00 0. -1.
        -13    1    3    3    0    0 -0.11269328098E+02 -0.50042925938E+02 -0.30912389045E+03  0.31335103613E+03  0.00000000000E+00 0. -1.
         13    1    3    3    0    0 -0.14149386522E+02  0.14226980756E+02 -0.10304525692E+02  0.22556492859E+02  0.00000000000E+00 0.  1.
          1    1    1    2  501    0 -0.12902900857E+02  0.23940251395E+02 -0.13637782210E+02  0.30423832615E+02  0.00000000000E+00 0. -1.
<scales pt_clust_5="13000.00000" pt_clust_6="13000.00000" pt_clust_7="13000.00000" pt_clust_8="13000.00000" pt_clust_9="27.19596"></scales>
<clustering>
<clus scale="   27.196">  1  9  2 -1</clus>
<clus scale="   89.356">  5  6 -1 -1</clus>
<clus scale="   94.183">  7  8 -1 -1</clus>
<clus scale="   98.348">  1  5  2 -1</clus>
<clus scale="   27.196">  1  5  2 -1</clus>
</clustering>
</event>
<event>
 9    1  0.1671478E-005  0.1409260E+03  0.7546771E-02  0.1212983E+00
          2   -1    0    0  502    0 -0.00000000000E+00  0.00000000000E+00  0.15174379783E+03  0.15174379783E+03  0.00000000000E+00 0. -1.
         21   -1    0    0  501  502  0.00000000000E+00 -0.00000000000E+00 -0.17426493792E+03  0.17426493792E+03  0.00000000000E+00 0.  1.
         23    2    1    2    0    0  0.45996820826E+02 -0.96488985147E+02  0.48963442737E+02  0.15078221707E+03  0.94403530011E+02 0.  0.
         23    2    1    2    0    0 -0.62817221706E+02  0.79825118579E+02 -0.64797427027E+02  0.15062309641E+03  0.90391137421E+02 0.  0.
        -11    1    4    4    0    0 -0.72638486362E+01  0.53560497535E+02 -0.70583852110E+02  0.88902027940E+02  0.00000000000E+00 0.  1.
         11    1    4    4    0    0 -0.55553373070E+02  0.26264621044E+02  0.57864250830E+01  0.61721068471E+02  0.00000000000E+00 0. -1.
        -13    1    3    3    0    0  0.45148568962E+02 -0.68278154703E+02 -0.12824063885E+02  0.82853824918E+02  0.00000000000E+00 0.  1.
         13    1    3    3    0    0  0.84825186407E+00 -0.28210830443E+02  0.61787506622E+02  0.67928392150E+02  0.00000000000E+00 0. -1.
          2    1    1    2  501    0  0.16820400880E+02  0.16663866568E+02 -0.66871557938E+01  0.24603422269E+02  0.00000000000E+00 0. -1.
<scales pt_clust_5="13000.00000" pt_clust_6="13000.00000" pt_clust_7="13000.00000" pt_clust_8="13000.00000" pt_clust_9="23.67721"></scales>
<clustering>
<clus scale="   23.677">  2  9  1 -1</clus>
<clus scale="   90.391">  5  6 -1 -1</clus>
<clus scale="   94.404">  7  8 -1 -1</clus>
<clus scale="  138.270">  2  5  1 -1</clus>
<clus scale="   23.677">  2  5  1 -1</clus>
</clustering>
</event>
<event>
 9    1  0.1671478E-005  0.9638749E+02  0.7546771E-02  0.1288524E+00
         21   -1    0    0  501  502  0.00000000000E+00  0.00000000000E+00  0.38728613895E+03  0.38728613895E+03  0.00000000000E+00 0. -1.
         -4   -1    0    0    0  501 -0.00000000000E+00 -0.00000000000E+00 -0.39148639156E+02  0.39148639156E+02  0.00000000000E+00 0.  1.
         23    2    1    2    0    0  0.13975473562E+02 -0.23380167211E+02  0.10213934100E+03  0.14025234300E+03  0.92175531774E+02 0.  0.
         23    2    1    2    0    0 -0.37134672728E+02  0.16181362957E+01  0.11550578659E+03  0.15187609237E+03  0.91340891246E+02 0.  0.
        -11    1    4    4    0    0  0.36529977692E+01  0.41445820767E+02  0.48728042788E+02  0.64074352168E+02  0.00000000000E+00 0.  1.
         11    1    4    4    0    0 -0.40787670497E+02 -0.39827684472E+02  0.66777743804E+02  0.87801740202E+02  0.00000000000E+00 0. -1.
        -13    1    3    3    0    0 -0.12203149053E+02  0.17317130803E+02 -0.57982713768E+01  0.21964057390E+02  0.00000000000E+00 0.  1.
         13    1    3    3    0    0  0.26178622616E+02 -0.40697298014E+02  0.10793761238E+03  0.11828828561E+03  0.00000000000E+00 0. -1.
         -4    1    1    2    0  502  0.23159199166E+02  0.21762030915E+02  0.13049237221E+03  0.13430634274E+03  0.00000000000E+00 0.  1.
<scales pt_clust_5="13000.00000" pt_clust_6="13000.00000" pt_clust_7="13000.00000" pt_clust_8="13000.00000" pt_clust_9="31.77947"></scales>
<clustering>
<clus scale="   31.779">  1  9  2 -1</clus>
<clus scale="   91.341">  5  6 -1 -1</clus>
<clus scale="   92.176">  7  8 -1 -1</clus>
<clus scale="   95.590">  1  5  2 -1</clus>
<clus scale="   31.779">  1  5  2 -1</clus>
</clustering>
</event>
<event>
 9    1  0.1671478E-005  0.1588655E+03  0.7546771E-02  0.1205067E+00
         21   -1    0    0  501  502  0.00000000000E+00  0.00000000000E+00  0.21455921711E+03  0.21455921711E+03  0.00000000000E+00 0.  1.
         -1   -1    0    0    0  501 -0.00000000000E+00 -0.00000000000E+00 -0.60177526218E+03  0.60177526218E+03  0.00000000000E+00 0.  1.
         23    2    1    2    0    0  0.21767946564E+02  0.66229106842E+02 -0.45854850247E+03  0.47258579535E+03  0.90611625959E+02 0.  0.
         23    2    1    2    0    0  0.49795376502E+02 -0.16073683359E+03 -0.20031848837E+02  0.19408086482E+03  0.94605485716E+02 0.  0.
        -13    1    3    3    0    0  0.47835061383E+02  0.96082356121E+01 -0.25802669315E+03  0.26259909685E+03  0.00000000000E+00 0. -1.
         13    1    3    3    0    0 -0.26067114819E+02  0.56620871230E+02 -0.20052180932E+03  0.20998669850E+03  0.00000000000E+00 0.  1.
        -13    1    4    4    0    0  0.18475660305E+02 -0.79142561799E+01  0.24653135932E+02  0.31808215698E+02  0.00000000000E+00 0. -1.
         13    1    4    4    0    0  0.31319716196E+02 -0.15282257741E+03 -0.44684984769E+02  0.16227264912E+03  0.00000000000E+00 0.  1.
         -1    1    1    2    0  502 -0.71563323066E+02  0.94507726750E+02  0.91364306235E+02  0.14966781911E+03  0.00000000000E+00 0.  1.
<scales pt_clust_5="13000.00000" pt_clust_6="13000.00000" pt_clust_7="13000.00000" pt_clust_8="13000.00000" pt_clust_9="127.62466"></scales>
<clustering>
<clus scale="   90.612">  5  6 -1 -1</clus>
<clus scale="   94.605">  7  8 -1 -1</clus>
<clus scale="  114.327">  2  5  1 -1</clus>
<clus scale="  127.625">  1  9  2 -1</clus>
<clus scale="  127.625">  1  5  2 -1</clus>
</clustering>
</event>
<event>
 9    1  0.1671478E-005  0.2356376E+03  0.7546771E-02  0.1123738E+00
         21   -1    0    0  501  502  0.00000000000E+00  0.00000000000E+00  0.66276793407E+02  0.66276793407E+02  0.00000000000E+00 0.  1.
          2   -1    0    0  502    0 -0.00000000000E+00 -0.00000000000E+00 -0.14179583380E+04  0.14179583380E+04  0.00000000000E+00 0. -1.
         23    2    1    2    0    0  0.19726343372E+03  0.47262552655E+02 -0.94119136592E+03  0.96679838251E+03  0.87814087549E+02 0.  0.
         23    2    1    2    0    0 -0.24394769283E+03 -0.40834155437E+02 -0.34030421359E+03  0.43289791738E+03  0.10205755237E+03 0.  0.
        -11    1    4    4    0    0 -0.18294177555E+03 -0.70789824248E+01 -0.17401947095E+03  0.25258776990E+03  0.00000000000E+00 0.  1.
         11    1    4    4    0    0 -0.61005917283E+02 -0.33755173012E+02 -0.16628474264E+03  0.18031014748E+03  0.00000000000E+00 0. -1.
        -13    1    3    3    0    0  0.16008822997E+03  0.21488912515E+01 -0.74867653951E+03  0.76560395762E+03  0.00000000000E+00 0. -1.
         13    1    3    3    0    0  0.37175203749E+02  0.45113661403E+02 -0.19251482641E+03  0.20119442489E+03  0.00000000000E+00 0.  1.
          2    1    1    2  501    0  0.46684259117E+02 -0.64283972174E+01 -0.70185965086E+02  0.84538831522E+02  0.00000000000E+00 0. -1.
<scales pt_clust_5="13000.00000" pt_clust_6="13000.00000" pt_clust_7="13000.00000" pt_clust_8="13000.00000" pt_clust_9="47.12477"></scales>
<clustering>
<clus scale="   47.125">  1  9  2 -1</clus>
<clus scale="   87.814">  7  8 -1 -1</clus>
<clus scale="  102.058">  5  6 -1 -1</clus>
<clus scale="  229.827">  2  7  1 -1</clus>
<clus scale="   47.125">  1  5  2 -1</clus>
</clustering>
</event>
<event>
 9    1  0.1671478E-005  0.1467561E+03  0.7546771E-02  0.1204671E+00
         21   -1    0    0  501  502  0.00000000000E+00  0.00000000000E+00  0.43761610368E+03  0.43761610368E+03  0.00000000000E+00 0. -1.
          1   -1    0    0  502    0 -0.00000000000E+00 -0.00000000000E+00 -0.10020064186E+03  0.10020064186E+03  0.00000000000E+00 0. -1.
         23    2    1    2    0    0 -0.33109961280E+02  0.15504924942E+03  0.71877643415E+02  0.19654521324E+03  0.91252868125E+02 0.  0.
         23    2    1    2    0    0 -0.11022626911E+02 -0.61741611406E+02  0.15404061879E+03  0.18933198455E+03  0.90468576048E+02 0.  0.
        -11    1    3    3    0    0 -0.27776857043E+02  0.86480662617E+02 -0.79468201404E+01  0.91179003856E+02  0.00000000000E+00 0.  1.
         11    1    3    3    0    0 -0.53331042366E+01  0.68568586804E+02  0.79824463555E+02  0.10536620938E+03  0.00000000000E+00 0. -1.
        -11    1    4    4    0    0  0.39924841902E+02 -0.27199951240E+02  0.73704254611E+02  0.88125748202E+02  0.00000000000E+00 0.  1.
         11    1    4    4    0    0 -0.50947468814E+02 -0.34541660166E+02  0.80336364183E+02  0.10120623635E+03  0.00000000000E+00 0. -1.
          1    1    1    2  501    0  0.44132588191E+02 -0.93307638015E+02  0.11149719961E+03  0.15193954776E+03  0.00000000000E+00 0. -1.
<scales pt_clust_5="13000.00000" pt_clust_6="13000.00000" pt_clust_7="13000.00000" pt_clust_8="13000.00000" pt_clust_9="103.21822"></scales>
<clustering>
<clus scale="   90.469">  7  8 -1 -1</clus>
<clus scale="   91.253">  5  6 -1 -1</clus>
<clus scale="  103.218">  1  9  2 -1</clus>
<clus scale="  146.270">  1  7  2 -1</clus>
<clus scale="  103.218">  1  5  2 -1</clus>
</clustering>
</event>
<event>
 9    1  0.1671478E-005  0.1006158E+03  0.7546771E-02  0.1282760E+00
         21   -1    0    0  501  502  0.00000000000E+00  0.00000000000E+00  0.11201762272E+03  0.11201762272E+03  0.00000000000E+00 0. -1.
         -1   -1    0    0    0  501 -0.00000000000E+00 -0.00000000000E+00 -0.14844984476E+03  0.14844984476E+03  0.00000000000E+00 0.  1.
         23    2    1    2    0    0  0.79596385639E+01  0.82934286841E+01 -0.83735859166E+02  0.12525742471E+03  0.92442368691E+02 0.  0.
         23    2    1    2    0    0 -0.84215818696E+01 -0.30272993839E+02  0.42944187645E+02  0.11279755795E+03  0.99457069278E+02 0.  0.
        -11    1    4    4    0    0 -0.40948937930E+01  0.31704373875E+02 -0.74224486595E+01  0.32818108143E+02  0.00000000000E+00 0.  1.
         11    1    4    4    0    0 -0.43266880766E+01 -0.61977367714E+02  0.50366636304E+02  0.79979449805E+02  0.00000000000E+00 0. -1.
        -13    1    3    3    0    0  0.42085226818E+01  0.49133905547E+02 -0.60739709401E+02  0.78237872131E+02  0.00000000000E+00 0.  1.
         13    1    3    3    0    0  0.37511158821E+01 -0.40840476863E+02 -0.22996149765E+02  0.47019552579E+02  0.00000000000E+00 0. -1.
         -1    1    1    2    0  502  0.46194330565E+00  0.21979565155E+02  0.43594494757E+01  0.22412484819E+02  0.00000000000E+00 0.  1.
<scales pt_clust_5="13000.00000" pt_clust_6="13000.00000" pt_clust_7="13000.00000" pt_clust_8="13000.00000" pt_clust_9="21.98442"></scales>
<clustering>
<clus scale="   21.984">  1  9  2 -1</clus>
<clus scale="   92.442">  7  8 -1 -1</clus>
<clus scale="   93.688">  2  7  1 -1</clus>
<clus scale="   99.457">  5  6 -1 -1</clus>
<clus scale="   21.984">  1  5  2 -1</clus>
</clustering>
</event>
<event>
 9    1  0.1671478E-005  0.1338612E+03  0.7546771E-02  0.1222111E+00
          1   -1    0    0  502    0 -0.00000000000E+00  0.00000000000E+00  0.75222154510E+02  0.75222154510E+02  0.00000000000E+00 0. -1.
         21   -1    0    0  501  502  0.00000000000E+00 -0.00000000000E+00 -0.30907669211E+03  0.30907669211E+03  0.00000000000E+00 0.  1.
         23    2    1    2    0    0 -0.32470953199E+02  0.77529019781E+02 -0.98727615876E+02  0.15763945187E+03  0.89654575674E+02 0.  0.
         23    2    1    2    0    0  0.31668575293E+02 -0.11145385917E+03 -0.11794224365E+03  0.18862189090E+03  0.90790877878E+02 0.  0.
        -13    1    4    4    0    0  0.18260990949E+02 -0.57278871105E+02 -0.11842408538E+03  0.13281037935E+03  0.00000000000E+00 0.  1.
         13    1    4    4    0    0  0.13407584344E+02 -0.54174988067E+02  0.48184173369E+00  0.55811511550E+02  0.00000000000E+00 0. -1.
        -13    1    3    3    0    0 -0.42153129330E+02 -0.22664617843E+01 -0.28841037800E+02  0.51125616111E+02  0.00000000000E+00 0.  1.
         13    1    3    3    0    0  0.96821761312E+01  0.79795481565E+02 -0.69886578075E+02  0.10651383576E+03  0.00000000000E+00 0. -1.
          1    1    1    2  501    0  0.80237790585E+00  0.33924839392E+02 -0.17184678071E+02  0.38037503841E+02  0.00000000000E+00 0. -1.
<scales pt_clust_5="13000.00000" pt_clust_6="13000.00000" pt_clust_7="13000.00000" pt_clust_8="13000.00000" pt_clust_9="33.93434"></scales>
<clustering>
<clus scale="   33.934">  2  9  1 -1</clus>
<clus scale="   89.655">  7  8 -1 -1</clus>
<clus scale="   90.791">  5  6 -1 -1</clus>
<clus scale="  133.093">  1  7  2 -1</clus>
<clus scale="   33.934">  2  5  1 -1</clus>
</clustering>
</event>
<event>
 9    1  0.1671478E-005  0.1206226E+03  0.7546771E-02  0.1246892E+00
         -1   -1    0    0    0  501 -0.00000000000E+00  0.00000000000E+00  0.12028639570E+03  0.12028639570E+03  0.00000000000E+00 0.  1.
         21   -1    0    0  501  502  0.00000000000E+00 -0.00000000000E+00 -0.23113051801E+03  0.23113051801E+03  0.00000000000E+00 0.  1.
         23    2    1    2    0    0  0.69422348882E+02  0.26407078851E+02  0.47783803370E+02  0.12152836886E+03  0.83480873476E+02 0.  0.
         23    2    1    2    0    0 -0.46621305054E+02 -0.26563382758E+02 -0.17088071554E+03  0.20400335815E+03  0.97662642828E+02 0.  0.
        -11    1    4    4    0    0 -0.24157114904E+02 -0.62252834635E+02 -0.12478127687E+03  0.14152508144E+03  0.00000000000E+00 0.  1.
         11    1    4    4    0    0 -0.22464190150E+02  0.35689451877E+02 -0.46099438676E+02  0.62478276710E+02  0.00000000000E+00 0. -1.
        -13    1    3    3    0    0  0.52497565966E+02  0.55178061014E+02  0.43939653363E+02  0.87927845347E+02  0.00000000000E+00 0.  1.
         13    1    3    3    0    0  0.16924782916E+02 -0.28770982163E+02  0.38441500077E+01  0.33600523517E+02  0.00000000000E+00 0. -1.
         -1    1    1    2    0  502 -0.22801043829E+02  0.15630390715E+00  0.12252789861E+02  0.25885186690E+02  0.00000000000E+00 0.  1.
<scales pt_clust_5="13000.00000" pt_clust_6="13000.00000" pt_clust_7="13000.00000" pt_clust_8="13000.00000" pt_clust_9="22.80159"></scales>
<clustering>
<clus scale="   22.802">  2  9  1 -1</clus>
<clus scale="   83.481">  7  8 -1 -1</clus>
<clus scale="   97.663">  5  6 -1 -1</clus>
<clus scale="  109.457">  1  7  2 -1</clus>
<clus scale="   22.802">  2  5  1 -1</clus>
</clustering>
</event>
<event>
 9    1  0.1671478E-005  0.1390058E+03  0.7546771E-02  0.1228203E+00
         -2   -1    0    0    0  501 -0.00000000000E+00  0.00000000000E+00  0.48571851628E+03  0.48571851628E+03  0.00000000000E+00 0.  1.
         21   -1    0    0  501  502  0.00000000000E+00 -0.00000000000E+00 -0.72805653370E+02  0.72805653370E+02  0.00000000000E+00 0. -1.
         23    2    1    2    0    0  0.46453142565E+02 -0.14821591232E+02  0.15229352278E+03  0.18481206885E+03  0.92653168812E+02 0.  0.
         23    2    1    2    0    0 -0.16054099403E+02 -0.88318291699E+02  0.22548830315E+03  0.26059213335E+03  0.94896945941E+02 0.  0.
        -11    1    3    3    0    0  0.73643034027E+02 -0.20010032291E+01  0.11897441011E+03  0.13993645249E+03  0.00000000000E+00 0. -1.
         11    1    3    3    0    0 -0.27189891463E+02 -0.12820588003E+02  0.33319112675E+02  0.44875616363E+02  0.00000000000E+00 0.  1.
        -13    1    4    4    0    0 -0.28350160513E+02  0.10884544752E+02  0.60241354969E+02  0.67462773172E+02  0.00000000000E+00 0.  1.
         13    1    4    4    0    0  0.12296061109E+02 -0.99202836451E+02  0.16524694819E+03  0.19312936018E+03  0.00000000000E+00 0. -1.
         -2    1    1    2    0  502 -0.30399043161E+02  0.10313988293E+03  0.35131036972E+02  0.11311996745E+03  0.00000000000E+00 0.  1.
<scales pt_clust_5="13000.00000" pt_clust_6="13000.00000" pt_clust_7="13000.00000" pt_clust_8="13000.00000" pt_clust_9="101.57356"></scales>
<clustering>
<clus scale="   92.653">  5  6 -1 -1</clus>
<clus scale="   94.897">  7  8 -1 -1</clus>
<clus scale="  104.700">  1  5  2 -1</clus>
<clus scale="  101.574">  2  9  1 -1</clus>
<clus scale="  101.574">  2  5  1 -1</clus>
</clustering>
</event>
<event>
 9    1  0.1671478E-005  0.1033584E+03  0.7546771E-02  0.1279789E+00
         21   -1    0    0  501  502  0.00000000000E+00  0.00000000000E+00  0.70090685262E+02  0.70090685262E+02  0.00000000000E+00 0. -1.
          2   -1    0    0  502    0 -0.00000000000E+00 -0.00000000000E+00 -0.46470518534E+03  0.46470518534E+03  0.00000000000E+00 0. -1.
         23    2    1    2    0    0  0.35576177989E+01 -0.17067233371E+02 -0.25396896899E+03  0.26963123543E+03  0.88864046796E+02 0.  0.
         23    2    1    2    0    0 -0.34961109761E+02  0.13994496317E+02 -0.18295345513E+03  0.21238602722E+03  0.10108280117E+03 0.  0.
        -13    1    3    3    0    0 -0.27649772140E+02 -0.42220078767E+02 -0.14330753432E+03  0.15193450676E+03  0.00000000000E+00 0.  1.
         13    1    3    3    0    0  0.31207389938E+02  0.25152845397E+02 -0.11066143466E+03  0.11769672867E+03  0.00000000000E+00 0. -1.
        -13    1    4    4    0    0  0.23515427347E+02 -0.72296069204E+01 -0.12488988263E+03  0.12728992624E+03  0.00000000000E+00 0. -1.
         13    1    4    4    0    0 -0.58476537108E+02  0.21224103237E+02 -0.58063572498E+02  0.85096100978E+02  0.00000000000E+00 0.  1.
          2    1    1    2  501    0  0.31403491962E+02  0.30727370537E+01  0.42307924039E+02  0.52778607948E+02  0.00000000000E+00 0. -1.
<scales pt_clust_5="13000.00000" pt_clust_6="13000.00000" pt_clust_7="13000.00000" pt_clust_8="13000.00000" pt_clust_9="31.55346"></scales>
<clustering>
<clus scale="   31.553">  1  9  2 -1</clus>
<clus scale="   88.864">  5  6 -1 -1</clus>
<clus scale="   91.444">  2  5  1 -1</clus>
<clus scale="  101.083">  7  8 -1 -1</clus>
<clus scale="   31.553">  1  5  2 -1</clus>
</clustering>
</event>
<event>
 9    1  0.1671478E-005  0.1131174E+03  0.7546771E-02  0.1255579E+00
         21   -1    0    0  501  502  0.00000000000E+00  0.00000000000E+00  0.86726919040E+02  0.86726919040E+02  0.00000000000E+00 0. -1.
          2   -1    0    0  502    0 -0.00000000000E+00 -0.00000000000E+00 -0.25158596404E+03  0.25158596404E+03  0.00000000000E+00 0. -1.
         23    2    1    2    0    0  0.43900314316E+02 -0.11309043608E+02 -0.61129409576E+02  0.11917362821E+03  0.91708325032E+02 0.  0.
         23    2    1    2    0    0 -0.89506943044E+02 -0.17674620370E+02 -0.10421796701E+03  0.16509986341E+03  0.89848178573E+02 0.  0.
        -11    1    3    3    0    0  0.18453607356E+02  0.40510183744E+02 -0.28570949784E+02  0.52895271840E+02  0.00000000000E+00 0. -1.
         11    1    3    3    0    0  0.25446706961E+02 -0.51819227353E+02 -0.32558459792E+02  0.66278356366E+02  0.00000000000E+00 0.  1.
        -13    1    4    4    0    0 -0.33590235985E+02  0.34706519337E+02 -0.23173372453E+02  0.53570996153E+02  0.00000000000E+00 0.  1.
         13    1    4    4    0    0 -0.55916707059E+02 -0.52381139707E+02 -0.81044594557E+02  0.11152886726E+03  0.00000000000E+00 0. -1.
          2    1    1    2  501    0  0.45606628728E+02  0.28983663979E+02  0.48833158732E+00  0.54039391459E+02  0.00000000000E+00 0. -1.
<scales pt_clust_5="13000.00000" pt_clust_6="13000.00000" pt_clust_7="13000.00000" pt_clust_8="13000.00000" pt_clust_9="54.03718"></scales>
<clustering>
<clus scale="   54.037">  1  9  2 -1</clus>
<clus scale="   89.848">  7  8 -1 -1</clus>
<clus scale="   91.708">  5  6 -1 -1</clus>
<clus scale="  111.615">  1  7  2 -1</clus>
<clus scale="   54.037">  1  5  2 -1</clus>
</clustering>
</event>
<event>
 9    1  0.1671478E-005  0.1234389E+03  0.7546771E-02  0.1237737E+00
          4   -1    0    0  502    0 -0.00000000000E+00  0.00000000000E+00  0.34031849622E+03  0.34031849622E+03  0.00000000000E+00 0. -1.
         21   -1    0    0  501  502  0.00000000000E+00 -0.00000000000E+00 -0.72670126567E+02  0.72670126567E+02  0.00000000000E+00 0.  1.
         23    2    1    2    0    0  0.79496020948E+02 -0.14549604200E+02  0.19946291151E+03  0.23382979658E+03  0.91430915848E+02 0.  0.
         23    2    1    2    0    0 -0.91394431238E+02 -0.18171390033E+02  0.46385132425E+02  0.13807975815E+03  0.90726499011E+02 0.  0.
        -11    1    4    4    0    0 -0.52144889273E+02  0.30412187755E+02  0.14019934333E+00  0.60365638382E+02  0.00000000000E+00 0. -1.
         11    1    4    4    0    0 -0.39249541965E+02 -0.48583577788E+02  0.46244933082E+02  0.77714119765E+02  0.00000000000E+00 0.  1.
        -11    1    3    3    0    0  0.39427017998E+02  0.17179414841E+02  0.16887602653E+03  0.17426627436E+03  0.00000000000E+00 0. -1.
         11    1    3    3    0    0  0.40069002950E+02 -0.31729019041E+02  0.30586884978E+02  0.59563522221E+02  0.00000000000E+00 0.  1.
          4    1    1    2  501    0  0.11898410290E+02  0.32720994233E+02  0.21800325717E+02  0.41079068057E+02  0.00000000000E+00 0. -1.
<scales pt_clust_5="13000.00000" pt_clust_6="13000.00000" pt_clust_7="13000.00000" pt_clust_8="13000.00000" pt_clust_9="34.81717"></scales>
<clustering>
<clus scale="   34.817">  2  9  1 -1</clus>
<clus scale="   90.726">  5  6 -1 -1</clus>
<clus scale="   91.431">  7  8 -1 -1</clus>
<clus scale="  122.918">  2  5  1 -1</clus>
<clus scale="   34.817">  2  5  1 -1</clus>
</clustering>
</event>
<event>
 9    1  0.1671478E-005  0.1346098E+03  0.7546771E-02  0.1226697E+00
         21   -1    0    0  501  502  0.00000000000E+00  0.00000000000E+00  0.19289263361E+03  0.19289263361E+03  0.00000000000E+00 0.  1.
          3   -1    0    0  502    0 -0.00000000000E+00 -0.00000000000E+00 -0.28686141934E+03  0.28686141934E+03  0.00000000000E+00 0. -1.
         23    2    1    2    0    0 -0.91766262505E+02  0.14498560722E+02 -0.18468290317E+03  0.22552139814E+03  0.90115875958E+02 0.  0.
         23    2    1    2    0    0  0.14877675877E+03 -0.29218403434E+02  0.10271853224E+03  0.19414125418E+03  0.64432062357E+02 0.  0.
        -11    1    3    3    0    0 -0.78499614626E+02 -0.25883353543E+02 -0.14734397048E+03  0.16894491151E+03  0.00000000000E+00 0. -1.
         11    1    3    3    0    0 -0.13266647879E+02  0.40381914265E+02 -0.37338932687E+02  0.56576486634E+02  0.00000000000E+00 0.  1.
        -13    1    4    4    0    0  0.10159057107E+03 -0.72373485291E+00  0.36427507854E+02  0.10792650856E+03  0.00000000000E+00 0.  1.
         13    1    4    4    0    0  0.47186187701E+02 -0.28494668581E+02  0.66291024390E+02  0.86214745618E+02  0.00000000000E+00 0. -1.
          3    1    1    2  501    0 -0.57010496265E+02  0.14719842712E+02 -0.12004414807E+02  0.60091400622E+02  0.00000000000E+00 0. -1.
<scales pt_clust_5="13000.00000" pt_clust_6="13000.00000" pt_clust_7="13000.00000" pt_clust_8="13000.00000" pt_clust_9="58.88017"></scales>
<clustering>
<clus scale="   58.880">  1  9  2 -1</clus>
<clus scale="   64.432">  7  8 -1 -1</clus>
<clus scale="   90.116">  5  6 -1 -1</clus>
<clus scale="  118.955">  1  7  2 -1</clus>
<clus scale="   58.880">  1  5  2 -1</clus>
</clustering>
</event>
<event>
 9    1  0.1671478E-005  0.2259483E+03  0.7546771E-02  0.1129691E+00
          1   -1    0    0  502    0 -0.00000000000E+00  0.00000000000E+00  0.10499895602E+04  0.10499895602E+04  0.00000000000E+00 0. -1.
         21   -1    0    0  501  502  0.00000000000E+00 -0.00000000000E+00 -0.72525688465E+02  0.72525688465E+02  0.00000000000E+00 0.  1.
         23    2    1    2    0    0 -0.70781253714E+02 -0.18651053171E+03  0.69135428284E+03  0.72530048057E+03  0.91070732973E+02 0.  0.
         23    2    1    2    0    0  0.73838886792E+02  0.21628134880E+03  0.24759631940E+03  0.34844056797E+03  0.88752966072E+02 0.  0.
        -11    1    3    3    0    0 -0.47354939325E+02 -0.18505870188E+03  0.65269909428E+03  0.68007743758E+03  0.00000000000E+00 0. -1.
         11    1    3    3    0    0 -0.23426314388E+02 -0.14518298252E+01  0.38655188555E+02  0.45223042997E+02  0.00000000000E+00 0.  1.
        -13    1    4    4    0    0 -0.11167718892E+02  0.72655691976E+02  0.10915107320E+03  0.13159606492E+03  0.00000000000E+00 0. -1.
         13    1    4    4    0    0  0.85006605684E+02  0.14362565682E+03  0.13844524620E+03  0.21684450305E+03  0.00000000000E+00 0.  1.
          1    1    1    2  501    0 -0.30576330789E+01 -0.29770817091E+02  0.38513269513E+02  0.48774200135E+02  0.00000000000E+00 0. -1.
<scales pt_clust_5="13000.00000" pt_clust_6="13000.00000" pt_clust_7="13000.00000" pt_clust_8="13000.00000" pt_clust_9="29.92742"></scales>
<clustering>
<clus scale="   29.927">  2  9  1 -1</clus>
<clus scale="   88.753">  7  8 -1 -1</clus>
<clus scale="   91.071">  5  6 -1 -1</clus>
<clus scale="  225.024">  2  7  1 -1</clus>
<clus scale="   29.927">  2  5  1 -1</clus>
</clustering>
</event>
<event>
 9    1  0.1671478E-005  0.9966054E+02  0.7546771E-02  0.1283340E+00
          2   -1    0    0  502    0 -0.00000000000E+00  0.00000000000E+00  0.22828544983E+03  0.22828544983E+03  0.00000000000E+00 0. -1.
         21   -1    0    0  501  502  0.00000000000E+00 -0.00000000000E+00 -0.71552426790E+02  0.71552426790E+02  0.00000000000E+00 0.  1.
         23    2    1    2    0    0  0.19264502000E+02  0.30532462245E+02  0.14983792982E+03  0.18058255943E+03  0.94102620942E+02 0.  0.
         23    2    1    2    0    0  0.43372837944E+01 -0.29235589619E+02  0.12087506710E+02  0.95054339334E+02  0.89530374045E+02 0.  0.
        -11    1    4    4    0    0 -0.32476771118E+02 -0.41696065305E+02 -0.39735271157E+01  0.53000862653E+02  0.00000000000E+00 0.  1.
         11    1    4    4    0    0  0.36814054913E+02  0.12460475686E+02  0.16061033826E+02  0.42053476681E+02  0.00000000000E+00 0. -1.
        -13    1    3    3    0    0  0.52931813304E+02  0.23779351933E+02  0.55931788155E+02  0.80595281278E+02  0.00000000000E+00 0.  1.
         13    1    3    3    0    0 -0.33667311303E+02  0.67531103115E+01  0.93906141663E+02  0.99987278148E+02  0.00000000000E+00 0. -1.
          2    1    1    2  501    0 -0.23601785795E+02 -0.12968726259E+01 -0.51924134935E+01  0.24200977856E+02  0.00000000000E+00 0. -1.
<scales pt_clust_5="13000.00000" pt_clust_6="13000.00000" pt_clust_7="13000.00000" pt_clust_8="13000.00000" pt_clust_9="23.63739"></scales>
<clustering>
<clus scale="   23.637">  2  9  1 -1</clus>
<clus scale="   89.530">  5  6 -1 -1</clus>
<clus scale="   94.103">  7  8 -1 -1</clus>
<clus scale="   95.355">  2  5  1 -1</clus>
<clus scale="   23.637">  2  5  1 -1</clus>
</clustering>
</event>
<event>
 9    1  0.1671478E-005  0.9774208E+02  0.7546771E-02  0.1286050E+00
         21   -1    0    0  501  502  0.00000000000E+00  0.00000000000E+00  0.29218579779E+03  0.29218579779E+03  0.00000000000E+00 0.  1.
         -1   -1    0    0    0  501 -0.00000000000E+00 -0.00000000000E+00 -0.86975153033E+02  0.86975153033E+02  0.00000000000E+00 0.  1.
         23    2    1    2    0    0 -0.13576163227E+02 -0.34332937090E+02  0.12332907303E+02  0.10021968928E+03  0.92351625544E+02 0.  0.
         23    2    1    2    0    0 -0.64809257931E+02  0.22788770201E+02  0.15197759865E+03  0.18977645125E+03  0.90544701653E+02 0.  0.
        -11    1    3    3    0    0  0.34770326715E+02  0.69698055357E+01  0.75352571165E-01  0.35462085205E+02  0.00000000000E+00 0.  1.
         11    1    3    3    0    0 -0.48346489942E+02 -0.41302742626E+02  0.12257554732E+02  0.64757604080E+02  0.00000000000E+00 0. -1.
        -13    1    4    4    0    0 -0.54274035081E+02 -0.11114945701E+02  0.30550643274E+02  0.63265746707E+02  0.00000000000E+00 0.  1.
         13    1    4    4    0    0 -0.10535222850E+02  0.33903715902E+02  0.12142695538E+03  0.12651070455E+03  0.00000000000E+00 0. -1.
         -1    1    1    2    0  502  0.78385421158E+02  0.11544166889E+02  0.40900138805E+02  0.89164810288E+02  0.00000000000E+00 0.  1.
<scales pt_clust_5="13000.00000" pt_clust_6="13000.00000" pt_clust_7="13000.00000" pt_clust_8="13000.00000" pt_clust_9="79.23098"></scales>
<clustering>
<clus scale="   79.231">  1  9  2 -1</clus>
<clus scale="   90.545">  7  8 -1 -1</clus>
<clus scale="   92.352">  5  6 -1 -1</clus>
<clus scale="   96.037">  1  7  2 -1</clus>
<clus scale="   79.231">  1  5  2 -1</clus>
</clustering>
</event>
<event>
 9    1  0.1671478E-005  0.1039171E+03  0.7546771E-02  0.1272742E+00
          3   -1    0    0  502    0 -0.00000000000E+00  0.00000000000E+00  0.25043729076E+03  0.25043729076E+03  0.00000000000E+00 0. -1.
         21   -1    0    0  501  502  0.00000000000E+00 -0.00000000000E+00 -0.17141886410E+03  0.17141886410E+03  0.00000000000E+00 0.  1.
         23    2    1    2    0    0  0.32090805558E+02  0.79783491932E+01  0.10178573025E+03  0.14030201179E+03  0.90724008811E+02 0.  0.
         23    2    1    2    0    0 -0.65957618748E+02 -0.24392580261E+02  0.10016732565E+03  0.15298777468E+03  0.91795210285E+02 0.  0.
        -11    1    4    4    0    0 -0.42165418143E+02  0.81579781839E+01 -0.21621392995E+01  0.43001743471E+02  0.00000000000E+00 0.  1.
         11    1    4    4    0    0 -0.23792200605E+02 -0.32550558445E+02  0.10232946495E+03  0.10998603121E+03  0.00000000000E+00 0. -1.
        -13    1    3    3    0    0 -0.29015804349E+02 -0.11662542158E+01  0.57065274276E+02  0.64029076044E+02  0.00000000000E+00 0. -1.
         13    1    3    3    0    0  0.61106609907E+02  0.91446034090E+01  0.44720455970E+02  0.76272935750E+02  0.00000000000E+00 0.  1.
          3    1    1    2  501    0  0.33866813191E+02  0.16414231068E+02 -0.12293462923E+03  0.12856636839E+03  0.00000000000E+00 0. -1.
<scales pt_clust_5="13000.00000" pt_clust_6="13000.00000" pt_clust_7="13000.00000" pt_clust_8="13000.00000" pt_clust_9="37.63493"></scales>
<clustering>
<clus scale="   37.635">  2  9  1 -1</clus>
<clus scale="   90.724">  7  8 -1 -1</clus>
<clus scale="   91.795">  5  6 -1 -1</clus>
<clus scale="  102.972">  1  7  2 -1</clus>
<clus scale="   37.635">  2  5  1 -1</clus>
</clustering>
</event>
<event>
 9    1  0.1671478E-005  0.9536218E+02  0.7546771E-02  0.1290772E+00
         21   -1    0    0  501  502  0.00000000000E+00  0.00000000000E+00  0.50369666137E+02  0.50369666137E+02  0.00000000000E+00 0.  1.
         -1   -1    0    0    0  501 -0.00000000000E+00 -0.00000000000E+00 -0.31529238872E+03  0.31529238872E+03  0.00000000000E+00 0.  1.
         23    2    1    2    0    0 -0.79194834700E+01 -0.18236727301E+02 -0.14987448889E+03  0.17587842785E+03  0.89864133670E+02 0.  0.
         23    2    1    2    0    0  0.17915860249E+02  0.38631270987E+02 -0.12886549504E+03  0.16319826126E+03  0.90631139897E+02 0.  0.
        -13    1    4    4    0    0 -0.39689848228E+01  0.65385953321E+02 -0.81530948206E+02  0.10458666859E+03  0.00000000000E+00 0.  1.
         13    1    4    4    0    0  0.21884845072E+02 -0.26754682333E+02 -0.47334546834E+02  0.58611592664E+02  0.00000000000E+00 0. -1.
        -13    1    3    3    0    0  0.38815717618E+02 -0.16303172807E+02 -0.94083358607E+02  0.10307342890E+03  0.00000000000E+00 0.  1.
         13    1    3    3    0    0 -0.46735201088E+02 -0.19335544947E+01 -0.55791130287E+02  0.72804998952E+02  0.00000000000E+00 0. -1.
         -1    1    1    2    0  502 -0.99963767791E+01 -0.20394543686E+02  0.13817261351E+02  0.26585365751E+02  0.00000000000E+00 0.  1.
<scales pt_clust_5="13000.00000" pt_clust_6="13000.00000" pt_clust_7="13000.00000" pt_clust_8="13000.00000" pt_clust_9="22.71266"></scales>
<clustering>
<clus scale="   22.713">  1  9  2 -1</clus>
<clus scale="   89.864">  7  8 -1 -1</clus>
<clus scale="   90.631">  5  6 -1 -1</clus>
<clus scale="   94.634">  2  7  1 -1</clus>
<clus scale="   22.713">  1  5  2 -1</clus>
</clustering>
</event>
<event>
 9    1  0.1671478E-005  0.1321374E+03  0.7546771E-02  0.1225106E+00
         21   -1    0    0  501  502  0.00000000000E+00  0.00000000000E+00  0.12588260472E+03  0.12588260472E+03  0.00000000000E+00 0. -1.
         -4   -1    0    0    0  501 -0.00000000000E+00 -0.00000000000E+00 -0.20887014547E+03  0.20887014547E+03  0.00000000000E+00 0.  1.
         23    2    1    2    0    0 -0.20638139969E+02 -0.90408269843E+02 -0.99492345056E+02  0.16570807674E+03  0.94661776318E+02 0.  0.
         23    2    1    2    0    0 -0.55373284907E-01  0.92735969177E+02 -0.15050517827E+02  0.13123755733E+03  0.91634138404E+02 0.  0.
        -11    1    3    3    0    0  0.29563611791E+02 -0.41831037906E+02 -0.10019133537E+02  0.52194117592E+02  0.00000000000E+00 0. -1.
         11    1    3    3    0    0 -0.50201751760E+02 -0.48577231937E+02 -0.89473211520E+02  0.11351395915E+03  0.00000000000E+00 0.  1.
        -13    1    4    4    0    0 -0.32359383528E+02  0.14579141089E+02 -0.28610349553E+02  0.45587642610E+02  0.00000000000E+00 0.  1.
         13    1    4    4    0    0  0.32304010243E+02  0.78156828089E+02  0.13559831726E+02  0.85649914717E+02  0.00000000000E+00 0. -1.
         -4    1    1    2    0  502  0.20693513254E+02 -0.23276993347E+01  0.31555322125E+02  0.37807116121E+02  0.00000000000E+00 0.  1.
<scales pt_clust_5="13000.00000" pt_clust_6="13000.00000" pt_clust_7="13000.00000" pt_clust_8="13000.00000" pt_clust_9="20.82402"></scales>
<clustering>
<clus scale="   20.824">  1  9  2 -1</clus>
<clus scale="   91.634">  7  8 -1 -1</clus>
<clus scale="   94.662">  5  6 -1 -1</clus>
<clus scale="  129.986">  1  7  2 -1</clus>
<clus scale="   20.824">  1  5  2 -1</clus>
</clustering>
</event>
<event>
 9    1  0.1671478E-005  0.2783793E+03  0.7546771E-02  0.1096660E+00
         21   -1    0    0  501  502  0.00000000000E+00  0.00000000000E+00  0.95030610365E+02  0.95030610365E+02  0.00000000000E+00 0.  1.
          1   -1    0    0  502    0 -0.00000000000E+00 -0.00000000000E+00 -0.11532916691E+04  0.11532916691E+04  0.00000000000E+00 0. -1.
         23    2    1    2    0    0  0.11360357128E+03 -0.23726247972E+03 -0.64911707369E+03  0.70643443026E+03  0.92181197715E+02 0.  0.
         23    2    1    2    0    0 -0.13234981868E+03  0.22685590353E+03 -0.43004871195E+03  0.51194246187E+03  0.90349953765E+02 0.  0.
        -11    1    4    4    0    0 -0.59176955169E+02  0.99744345475E+02 -0.10981453414E+03  0.15971874776E+03  0.00000000000E+00 0.  1.
         11    1    4    4    0    0 -0.73172863510E+02  0.12711155805E+03 -0.32023417780E+03  0.35222371410E+03  0.00000000000E+00 0. -1.
        -13    1    3    3    0    0  0.23341411945E+02 -0.12361208006E+02 -0.22885182245E+02  0.34947854603E+02  0.00000000000E+00 0. -1.
         13    1    3    3    0    0  0.90262159339E+02 -0.22490127171E+03 -0.62623189145E+03  0.67148657566E+03  0.00000000000E+00 0.  1.
          1    1    1    2  501    0  0.18746247394E+02  0.10406576189E+02  0.20904726869E+02  0.29945387371E+02  0.00000000000E+00 0. -1.
<scales pt_clust_5="13000.00000" pt_clust_6="13000.00000" pt_clust_7="13000.00000" pt_clust_8="13000.00000" pt_clust_9="21.44105"></scales>
<clustering>
<clus scale="   21.441">  1  9  2 -1</clus>
<clus scale="   90.350">  5  6 -1 -1</clus>
<clus scale="   92.181">  7  8 -1 -1</clus>
<clus scale="  277.778">  1  5  2 -1</clus>
<clus scale="   21.441">  1  5  2 -1</clus>
</clustering>
</event>
<event>
 9    1  0.1671478E-005  0.1125836E+03  0.7546771E-02  0.1256914E+00
         21   -1    0    0  501  502  0.00000000000E+00  0.00000000000E+00  0.18112529565E+03  0.18112529565E+03  0.00000000000E+00 0.  1.
          2   -1    0    0  502    0 -0.00000000000E+00 -0.00000000000E+00 -0.87096790721E+02  0.87096790721E+02  0.00000000000E+00 0. -1.
         23    2    1    2    0    0 -0.44811797917E+02 -0.58577691178E+02  0.37491614788E+02  0.12403387650E+03  0.92408539676E+02 0.  0.
         23    2    1    2    0    0  0.46450227876E+02  0.31910893854E+02  0.47429012763E+02  0.11596134389E+03  0.89563347468E+02 0.  0.
        -11    1    3    3    0    0 -0.17469347852E+02  0.18305808969E+02  0.33968264355E+02  0.42357097866E+02  0.00000000000E+00 0. -1.
         11    1    3    3    0    0 -0.27342450065E+02 -0.76883500147E+02  0.35233504329E+01  0.81676778638E+02  0.00000000000E+00 0.  1.
        -13    1    4    4    0    0  0.25695818710E+02  0.33068061826E+02  0.72296848678E+02  0.83550021788E+02  0.00000000000E+00 0.  1.
         13    1    4    4    0    0  0.20754409166E+02 -0.11571679720E+01 -0.24867835915E+02  0.32411322106E+02  0.00000000000E+00 0. -1.
          2    1    1    2  501    0 -0.16384299596E+01  0.26666797324E+02  0.91078773765E+01  0.28226865971E+02  0.00000000000E+00 0. -1.
<scales pt_clust_5="13000.00000" pt_clust_6="13000.00000" pt_clust_7="13000.00000" pt_clust_8="13000.00000" pt_clust_9="26.71710"></scales>
<clustering>
<clus scale="   26.717">  1  9  2 -1</clus>
<clus scale="   89.563">  7  8 -1 -1</clus>
<clus scale="   92.409">  5  6 -1 -1</clus>
<clus scale="  110.260">  1  7  2 -1</clus>
<clus scale="   26.717">  1  5  2 -1</clus>
</clustering>
</event>
<event>
 9    1  0.1671478E-005  0.1282764E+03  0.7546771E-02  0.1231526E+00
         21   -1    0    0  501  502  0.00000000000E+00  0.00000000000E+00  0.14005665614E+03  0.14005665614E+03  0.00000000000E+00 0.  1.
         -1   -1    0    0    0  501 -0.00000000000E+00 -0.00000000000E+00 -0.17010513951E+03  0.17010513951E+03  0.00000000000E+00 0.  1.
         23    2    1    2    0    0 -0.76396462205E+01 -0.73214967616E+02 -0.60222380156E+02  0.13740703907E+03  0.99172393522E+02 0.  0.
         23    2    1    2    0    0 -0.10580101348E+02  0.96347855075E+02  0.69762746430E+01  0.13526850101E+03  0.94095968221E+02 0.  0.
        -11    1    4    4    0    0 -0.49342584665E+02  0.48803357991E+02 -0.13294648708E+02  0.70662621638E+02  0.00000000000E+00 0.  1.
         11    1    4    4    0    0  0.38762483316E+02  0.47544497085E+02  0.20270923351E+02  0.64605879372E+02  0.00000000000E+00 0. -1.
        -11    1    3    3    0    0 -0.39618941363E+02  0.15935227307E+01 -0.33091298055E+02  0.51645269255E+02  0.00000000000E+00 0. -1.
         11    1    3    3    0    0  0.31979295143E+02 -0.74808490347E+02 -0.27131082101E+02  0.85761769815E+02  0.00000000000E+00 0.  1.
         -1    1    1    2    0  502  0.18219747569E+02 -0.23132887460E+02  0.23197622149E+02  0.37486255575E+02  0.00000000000E+00 0.  1.
<scales pt_clust_5="13000.00000" pt_clust_6="13000.00000" pt_clust_7="13000.00000" pt_clust_8="13000.00000" pt_clust_9="29.44639"></scales>
<clustering>
<clus scale="   29.446">  1  9  2 -1</clus>
<clus scale="   94.096">  5  6 -1 -1</clus>
<clus scale="   99.172">  7  8 -1 -1</clus>
<clus scale="  124.393">  1  5  2 -1</clus>
<clus scale="   29.446">  1  5  2 -1</clus>
</clustering>
</event>
<event>
 9    1  0.1671478E-005  0.1044907E+03  0.7546771E-02  0.1271171E+00
         21   -1    0    0  501  502  0.00000000000E+00  0.00000000000E+00  0.34914370631E+03  0.34914370631E+03  0.00000000000E+00 0.  1.
          4   -1    0    0  502    0 -0.00000000000E+00 -0.00000000000E+00 -0.68179131200E+02  0.68179131200E+02  0.00000000000E+00 0. -1.
         23    2    1    2    0    0 -0.51878443161E+02 -0.24587156880E+02  0.63521462003E+01  0.10769640193E+03  0.90896997090E+02 0.  0.
         23    2    1    2    0    0  0.33768492440E+02  0.14707887497E+02  0.12611629941E+03  0.15970421989E+03  0.90793633249E+02 0.  0.
        -11    1    4    4    0    0  0.19611203750E+02  0.31443109518E+02  0.13192212116E+03  0.13702815221E+03  0.00000000000E+00 0. -1.
         11    1    4    4    0    0  0.14157288690E+02 -0.16735222021E+02 -0.58058217486E+01  0.22676067678E+02  0.00000000000E+00 0.  1.
        -13    1    3    3    0    0 -0.63023345173E+02 -0.43321134828E+02 -0.14146274053E+02  0.77773901980E+02  0.00000000000E+00 0.  1.
         13    1    3    3    0    0  0.11144902012E+02  0.18733977949E+02  0.20498420253E+02  0.29922499954E+02  0.00000000000E+00 0. -1.
          4    1    1    2  501    0  0.18109950721E+02  0.98792693827E+01  0.14849612951E+03  0.14992221569E+03  0.00000000000E+00 0. -1.
<scales pt_clust_5="13000.00000" pt_clust_6="13000.00000" pt_clust_7="13000.00000" pt_clust_8="13000.00000" pt_clust_9="20.62935"></scales>
<clustering>
<clus scale="   20.629">  1  9  2 -1</clus>
<clus scale="   90.794">  5  6 -1 -1</clus>
<clus scale="   90.897">  7  8 -1 -1</clus>
<clus scale="  104.401">  1  5  2 -1</clus>
<clus scale="   20.629">  1  5  2 -1</clus>
</clustering>
</event>
<event>
 9    1  0.1671478E-005  0.9839148E+02  0.7546771E-02  0.1284146E+00
         21   -1    0    0  501  502  0.00000000000E+00  0.00000000000E+00  0.99214647989E+02  0.99214647989E+02  0.00000000000E+00 0. -1.
          2   -1    0    0  502    0 -0.00000000000E+00 -0.00000000000E+00 -0.47490832274E+03  0.47490832274E+03  0.00000000000E+00 0. -1.
         23    2    1    2    0    0  0.31029254723E+02 -0.70095167916E+01 -0.28359152273E+03  0.29916709646E+03  0.89804520301E+02 0.  0.
         23    2    1    2    0    0 -0.52723418757E+02 -0.21642009231E+02 -0.16325206940E+03  0.19524478695E+03  0.90670575276E+02 0.  0.
        -11    1    3    3    0    0 -0.26996968800E+02 -0.96428527649E+01 -0.43121340761E+02  0.51780990362E+02  0.00000000000E+00 0.  1.
         11    1    3    3    0    0  0.58026223523E+02  0.26333359733E+01 -0.24047018197E+03  0.24738610610E+03  0.00000000000E+00 0. -1.
        -11    1    4    4    0    0 -0.21253436007E+02  0.27191209955E+02 -0.11391051013E+03  0.11902384113E+03  0.00000000000E+00 0. -1.
         11    1    4    4    0    0 -0.31469982750E+02 -0.48833219186E+02 -0.49341559269E+02  0.76220945818E+02  0.00000000000E+00 0.  1.
          2    1    1    2  501    0  0.21694164035E+02  0.28651526022E+02  0.71149917381E+02  0.79711087309E+02  0.00000000000E+00 0. -1.
<scales pt_clust_5="13000.00000" pt_clust_6="13000.00000" pt_clust_7="13000.00000" pt_clust_8="13000.00000" pt_clust_9="35.93810"></scales>
<clustering>
<clus scale="   35.938">  1  9  2 -1</clus>
<clus scale="   89.805">  5  6 -1 -1</clus>
<clus scale="   90.671">  7  8 -1 -1</clus>
<clus scale="   97.594">  2  5  1 -1</clus>
<clus scale="   35.938">  1  5  2 -1</clus>
</clustering>
</event>
<event>
 9    1  0.1671478E-005  0.1715588E+03  0.7546771E-02  0.1177907E+00
         21   -1    0    0  501  502  0.00000000000E+00  0.00000000000E+00  0.57149819541E+02  0.57149819541E+02  0.00000000000E+00 0. -1.
          2   -1    0    0  502    0 -0.00000000000E+00 -0.00000000000E+00 -0.83611904334E+03  0.83611904334E+03  0.00000000000E+00 0. -1.
         23    2    1    2    0    0 -0.13326905750E+03  0.36505148298E+02 -0.28219454704E+03  0.32666046478E+03  0.89331009905E+02 0.  0.
         23    2    1    2    0    0  0.14574407920E+03  0.47175420254E+02 -0.28838157186E+03  0.34169563749E+03  0.10062365920E+03 0.  0.
        -11    1    3    3    0    0 -0.23658160645E+02  0.32002448325E+02 -0.24876224897E+02  0.46932843820E+02  0.00000000000E+00 0.  1.
         11    1    3    3    0    0 -0.10961089685E+03  0.45026999733E+01 -0.25731832214E+03  0.27972762096E+03  0.00000000000E+00 0. -1.
        -13    1    4    4    0    0  0.35534015719E+02 -0.28760562389E+02 -0.46209765714E+02  0.65001374366E+02  0.00000000000E+00 0.  1.
         13    1    4    4    0    0  0.11021006348E+03  0.75935982643E+02 -0.24217180614E+03  0.27669426312E+03  0.00000000000E+00 0. -1.
          2    1    1    2  501    0 -0.12475021702E+02 -0.83680568552E+02 -0.20839310490E+03  0.22491276062E+03  0.00000000000E+00 0. -1.
<scales pt_clust_5="13000.00000" pt_clust_6="13000.00000" pt_clust_7="13000.00000" pt_clust_8="13000.00000" pt_clust_9="84.60538"></scales>
<clustering>
<clus scale="   84.605">  1  9  2 -1</clus>
<clus scale="   89.331">  5  6 -1 -1</clus>
<clus scale="  100.624">  7  8 -1 -1</clus>
<clus scale="  165.189">  2  5  1 -1</clus>
<clus scale="   84.605">  1  5  2 -1</clus>
</clustering>
</event>
<event>
 9    1  0.1671478E-005  0.1054876E+03  0.7546771E-02  0.1269853E+00
         21   -1    0    0  501  502  0.00000000000E+00  0.00000000000E+00  0.91916627588E+02  0.91916627588E+02  0.00000000000E+00 0. -1.
          2   -1    0    0  502    0 -0.00000000000E+00 -0.00000000000E+00 -0.63065739526E+03  0.63065739526E+03  0.00000000000E+00 0. -1.
         23    2    1    2    0    0  0.42853837256E+02  0.29300429090E+02 -0.56912820589E+03  0.57868243818E+03  0.90947693833E+02 0.  0.
         23    2    1    2    0    0 -0.39480063013E+02  0.44481659880E+01  0.40417649173E+02  0.10852274027E+03  0.92548026635E+02 0.  0.
        -13    1    3    3    0    0  0.78408353120E+01 -0.31992194619E+02 -0.14277577868E+03  0.14652611437E+03  0.00000000000E+00 0.  1.
         13    1    3    3    0    0  0.35013001944E+02  0.61292623709E+02 -0.42635242721E+03  0.43215632381E+03  0.00000000000E+00 0. -1.
        -13    1    4    4    0    0 -0.37062933881E+02  0.42596903356E+02  0.54670430366E+01  0.56727822124E+02  0.00000000000E+00 0. -1.
         13    1    4    4    0    0 -0.24171291326E+01 -0.38148737368E+02  0.34950606136E+02  0.51794918142E+02  0.00000000000E+00 0.  1.
          2    1    1    2  501    0 -0.33737742429E+01 -0.33748595078E+02 -0.10030210960E+02  0.35368844401E+02  0.00000000000E+00 0. -1.
<scales pt_clust_5="13000.00000" pt_clust_6="13000.00000" pt_clust_7="13000.00000" pt_clust_8="13000.00000" pt_clust_9="33.91681"></scales>
<clustering>
<clus scale="   33.917">  1  9  2 -1</clus>
<clus scale="   90.948">  5  6 -1 -1</clus>
<clus scale="   92.548">  7  8 -1 -1</clus>
<clus scale="  104.086">  2  5  1 -1</clus>
<clus scale="   33.917">  1  5  2 -1</clus>
</clustering>
</event>
<event>
 9    1  0.1671478E-005  0.1052685E+03  0.7546771E-02  0.1270514E+00
         21   -1    0    0  501  502  0.00000000000E+00  0.00000000000E+00  0.37106570410E+03  0.37106570410E+03  0.00000000000E+00 0.  1.
          2   -1    0    0  502    0 -0.00000000000E+00 -0.00000000000E+00 -0.18317772672E+03  0.18317772672E+03  0.00000000000E+00 0. -1.
         23    2    1    2    0    0 -0.20924860754E+02 -0.48465212529E+02 -0.14868640799E+03  0.18318287932E+03  0.93067678241E+02 0.  0.
         23    2    1    2    0    0 -0.29091139854E+02  0.18466359023E+02  0.19397395704E+03  0.21699428754E+03  0.90957814309E+02 0.  0.
        -11    1    4    4    0    0 -0.49883835525E+02  0.31711424310E+02  0.75002819135E+02  0.95495729521E+02  0.00000000000E+00 0. -1.
         11    1    4    4    0    0  0.20792695671E+02 -0.13245065287E+02  0.11897113790E+03  0.12149855802E+03  0.00000000000E+00 0.  1.
        -11    1    3    3    0    0 -0.62949776847E+01 -0.69415705476E+02 -0.63649765169E+02  0.94389933345E+02  0.00000000000E+00 0. -1.
         11    1    3    3    0    0 -0.14629883070E+02  0.20950492947E+02 -0.85036642821E+02  0.88792945979E+02  0.00000000000E+00 0.  1.
          2    1    1    2  501    0  0.50016000609E+02  0.29998853506E+02  0.14260042833E+03  0.15406626396E+03  0.00000000000E+00 0. -1.
<scales pt_clust_5="13000.00000" pt_clust_6="13000.00000" pt_clust_7="13000.00000" pt_clust_8="13000.00000" pt_clust_9="58.32265"></scales>
<clustering>
<clus scale="   58.323">  1  9  2 -1</clus>
<clus scale="   90.958">  5  6 -1 -1</clus>
<clus scale="   93.068">  7  8 -1 -1</clus>
<clus scale="  103.408">  1  5  2 -1</clus>
<clus scale="   58.323">  1  5  2 -1</clus>
</clustering>
</event>
<event>
 9    1  0.1671478E-005  0.2543720E+03  0.7546771E-02  0.1110615E+00
          1   -1    0    0  502    0 -0.00000000000E+00  0.00000000000E+00  0.10288013000E+04  0.10288013000E+04  0.00000000000E+00 0. -1.
         21   -1    0    0  501  502  0.00000000000E+00 -0.00000000000E+00 -0.10954365101E+03  0.10954365101E+03  0.00000000000E+00 0.  1.
         23    2    1    2    0    0  0.10099916831E+03 -0.20440100026E+03  0.70427066767E+03  0.74593524376E+03  0.91878254446E+02 0.  0.
         23    2    1    2    0    0 -0.10744603673E+03  0.24651537939E+03  0.19794201255E+03  0.34652164776E+03  0.92637621665E+02 0.  0.
        -11    1    3    3    0    0  0.21592459041E+02 -0.23468748803E+02  0.31797719363E+02  0.45034558003E+02  0.00000000000E+00 0.  1.
         11    1    3    3    0    0  0.79406709271E+02 -0.18093225146E+03  0.67247294830E+03  0.70090068576E+03  0.00000000000E+00 0. -1.
        -13    1    4    4    0    0 -0.84075285589E+02  0.23163839023E+03  0.20185284116E+03  0.31854288088E+03  0.00000000000E+00 0.  1.
         13    1    4    4    0    0 -0.23370751142E+02  0.14876989155E+02 -0.39108286131E+01  0.27978766872E+02  0.00000000000E+00 0. -1.
          1    1    1    2  501    0  0.64468684191E+01 -0.42114379124E+02  0.17044968726E+02  0.45888059452E+02  0.00000000000E+00 0. -1.
<scales pt_clust_5="13000.00000" pt_clust_6="13000.00000" pt_clust_7="13000.00000" pt_clust_8="13000.00000" pt_clust_9="42.60496"></scales>
<clustering>
<clus scale="   42.605">  2  9  1 -1</clus>
<clus scale="   91.878">  5  6 -1 -1</clus>
<clus scale="   92.638">  7  8 -1 -1</clus>
<clus scale="  254.096">  1  5  2 -1</clus>
<clus scale="   42.605">  2  5  1 -1</clus>
</clustering>
</event>
<event>
 9    1  0.1671478E-005  0.1374256E+03  0.7546771E-02  0.1217407E+00
         21   -1    0    0  501  502  0.00000000000E+00  0.00000000000E+00  0.22297709911E+03  0.22297709911E+03  0.00000000000E+00 0.  1.
          4   -1    0    0  502    0 -0.00000000000E+00 -0.00000000000E+00 -0.19984292606E+03  0.19984292606E+03  0.00000000000E+00 0. -1.
         23    2    1    2    0    0  0.98859300732E+01  0.66294027641E+02 -0.70935380847E+01  0.11285856924E+03  0.90521316023E+02 0.  0.
         23    2    1    2    0    0 -0.92150912095E+02 -0.12216912475E+03 -0.45754354877E+02  0.18481023500E+03  0.92974600449E+02 0.  0.
        -11    1    3    3    0    0  0.29681018793E+02 -0.11792188485E+02  0.53276357668E+00  0.31942173108E+02  0.00000000000E+00 0.  1.
         11    1    3    3    0    0 -0.19795088720E+02  0.78086216126E+02 -0.76263016614E+01  0.80916396134E+02  0.00000000000E+00 0. -1.
        -13    1    4    4    0    0 -0.27684731334E+02 -0.14455872499E+02  0.25630024580E+02  0.40401915286E+02  0.00000000000E+00 0. -1.
         13    1    4    4    0    0 -0.64466180761E+02 -0.10771325225E+03 -0.71384379458E+02  0.14440831971E+03  0.00000000000E+00 0.  1.
          4    1    1    2  501    0  0.82264982022E+02  0.55875097107E+02  0.75982066019E+02  0.12515122093E+03  0.00000000000E+00 0. -1.
<scales pt_clust_5="13000.00000" pt_clust_6="13000.00000" pt_clust_7="13000.00000" pt_clust_8="13000.00000" pt_clust_9="99.44624"></scales>
<clustering>
<clus scale="   90.521">  5  6 -1 -1</clus>
<clus scale="   92.975">  7  8 -1 -1</clus>
<clus scale="   99.446">  1  9  2 -1</clus>
<clus scale="  135.778">  2  5  1 -1</clus>
<clus scale="   99.446">  1  5  2 -1</clus>
</clustering>
</event>
<event>
 9    1  0.1671478E-005  0.1031060E+03  0.7546771E-02  0.1274504E+00
          1   -1    0    0  502    0 -0.00000000000E+00  0.00000000000E+00  0.14433943034E+03  0.14433943034E+03  0.00000000000E+00 0. -1.
         21   -1    0    0  501  502  0.00000000000E+00 -0.00000000000E+00 -0.24471970829E+03  0.24471970829E+03  0.00000000000E+00 0. -1.
         23    2    1    2    0    0 -0.50485619175E+02 -0.70661273303E+01  0.10379189602E+03  0.14644723054E+03  0.89862705028E+02 0.  0.
         23    2    1    2    0    0  0.48338083916E+02 -0.13204324270E+02 -0.19568680133E+03  0.22053240030E+03  0.88488930563E+02 0.  0.
        -13    1    4    4    0    0  0.55787057512E+02  0.11887049221E+02 -0.61752800975E+02  0.84064892513E+02  0.00000000000E+00 0.  1.
         13    1    4    4    0    0 -0.74489735955E+01 -0.25091373490E+02 -0.13393400035E+03  0.13646750778E+03  0.00000000000E+00 0. -1.
        -13    1    3    3    0    0 -0.12465527067E+02 -0.46498014679E+02  0.42156914613E+02  0.63989531830E+02  0.00000000000E+00 0.  1.
         13    1    3    3    0    0 -0.38020092108E+02  0.39431887349E+02  0.61634981403E+02  0.82457698708E+02  0.00000000000E+00 0. -1.
          1    1    1    2  501    0  0.21475352588E+01  0.20270451600E+02 -0.84853726421E+01  0.22079507799E+02  0.00000000000E+00 0. -1.
<scales pt_clust_5="13000.00000" pt_clust_6="13000.00000" pt_clust_7="13000.00000" pt_clust_8="13000.00000" pt_clust_9="20.38389"></scales>
<clustering>
<clus scale="   20.384">  2  9  1 -1</clus>
<clus scale="   88.489">  5  6 -1 -1</clus>
<clus scale="   89.863">  7  8 -1 -1</clus>
<clus scale="  101.911">  2  5  1 -1</clus>
<clus scale="   20.384">  2  5  1 -1</clus>
</clustering>
</event>
<event>
 9    1  0.1671478E-005  0.1452550E+03  0.7546771E-02  0.1206513E+00
         21   -1    0    0  501  502  0.00000000000E+00  0.00000000000E+00  0.12656053751E+03  0.12656053751E+03  0.00000000000E+00 0. -1.
          1   -1    0    0  502    0 -0.00000000000E+00 -0.00000000000E+00 -0.70019381209E+03  0.70019381209E+03  0.00000000000E+00 0. -1.
         23    2    1    2    0    0 -0.83448121292E+02 -0.87328642135E+02 -0.59764382037E+03  0.61663443215E+03  0.92032636563E+02 0.  0.
         23    2    1    2    0    0  0.45567441004E+02  0.61209183613E+02 -0.44776121517E+02  0.12736257547E+03  0.91615330236E+02 0.  0.
        -13    1    4    4    0    0  0.65661161688E+02  0.33856191684E+02 -0.35475516341E+01  0.73960901780E+02  0.00000000000E+00 0.  1.
         13    1    4    4    0    0 -0.20093720684E+02  0.27352991929E+02 -0.41228569883E+02  0.53401673691E+02  0.00000000000E+00 0. -1.
        -13    1    3    3    0    0 -0.41737363532E+02  0.34426459938E+01 -0.90155849601E+02  0.99407929982E+02  0.00000000000E+00 0.  1.
         13    1    3    3    0    0 -0.41710757760E+02 -0.90771288129E+02 -0.50748797077E+03  0.51722650216E+03  0.00000000000E+00 0. -1.
          1    1    1    2  501    0  0.37880680288E+02  0.26119458522E+02  0.68786667311E+02  0.82757341984E+02  0.00000000000E+00 0. -1.
<scales pt_clust_5="13000.00000" pt_clust_6="13000.00000" pt_clust_7="13000.00000" pt_clust_8="13000.00000" pt_clust_9="46.01274"></scales>
<clustering>
<clus scale="   46.013">  1  9  2 -1</clus>
<clus scale="   91.615">  5  6 -1 -1</clus>
<clus scale="   92.033">  7  8 -1 -1</clus>
<clus scale="  144.991">  1  5  2 -1</clus>
<clus scale="   46.013">  1  5  2 -1</clus>
</clustering>
</event>
<event>
 9    1  0.1671478E-005  0.1886001E+03  0.7546771E-02  0.1181013E+00
         21   -1    0    0  501  502  0.00000000000E+00  0.00000000000E+00  0.30405923877E+03  0.30405923877E+03  0.00000000000E+00 0. -1.
          2   -1    0    0  502    0 -0.00000000000E+00 -0.00000000000E+00 -0.20458465211E+03  0.20458465211E+03  0.00000000000E+00 0. -1.
         23    2    1    2    0    0  0.67748767066E+02 -0.20745096823E+02  0.30345149876E+02  0.11984740222E+03  0.91773183532E+02 0.  0.
         23    2    1    2    0    0 -0.13423733599E+03  0.15052256570E+03 -0.55514613079E+01  0.22496682784E+03  0.99511555840E+02 0.  0.
        -11    1    3    3    0    0  0.36519369544E+02  0.34072555152E+02  0.24748477494E+00  0.49946617655E+02  0.00000000000E+00 0.  1.
         11    1    3    3    0    0  0.31229397523E+02 -0.54817651975E+02  0.30097665101E+02  0.69900784561E+02  0.00000000000E+00 0. -1.
        -13    1    4    4    0    0 -0.50145107036E+02 -0.24722255125E+00 -0.14191601565E+02  0.52115203478E+02  0.00000000000E+00 0.  1.
         13    1    4    4    0    0 -0.84092228957E+02  0.15076978825E+03  0.86401402575E+01  0.17285162436E+03  0.00000000000E+00 0. -1.
          2    1    1    2  501    0  0.66488568926E+02 -0.12977746888E+03  0.74680898092E+02  0.16382966082E+03  0.00000000000E+00 0. -1.
<scales pt_clust_5="13000.00000" pt_clust_6="13000.00000" pt_clust_7="13000.00000" pt_clust_8="13000.00000" pt_clust_9="160.21060"></scales>
<clustering>
<clus scale="   91.773">  5  6 -1 -1</clus>
<clus scale="   99.512">  7  8 -1 -1</clus>
<clus scale="  115.942">  2  5  1 -1</clus>
<clus scale="  160.211">  1  9  2 -1</clus>
<clus scale="  160.211">  1  5  2 -1</clus>
</clustering>
</event>
<event>
 9    1  0.1671478E-005  0.1484724E+03  0.7546771E-02  0.1219536E+00
         21   -1    0    0  501  502  0.00000000000E+00  0.00000000000E+00  0.24761687513E+03  0.24761687513E+03  0.00000000000E+00 0. -1.
          1   -1    0    0  502    0 -0.00000000000E+00 -0.00000000000E+00 -0.20867765191E+03  0.20867765191E+03  0.00000000000E+00 0. -1.
         23    2    1    2    0    0 -0.27047392255E+02 -0.40952687877E+02 -0.62662920114E+02  0.12052190262E+03  0.90499742447E+02 0.  0.
         23    2    1    2    0    0  0.50830345657E+02 -0.79220153228E+02 -0.49824935305E+02  0.14099762407E+03  0.92402646592E+02 0.  0.
        -11    1    4    4    0    0  0.33663553729E+02  0.47851259336E+01 -0.43234646939E+02  0.55003336043E+02  0.00000000000E+00 0.  1.
         11    1    4    4    0    0  0.17166791928E+02 -0.84005279161E+02 -0.65902883665E+01  0.85994288024E+02  0.00000000000E+00 0. -1.
        -13    1    3    3    0    0 -0.44968474670E+02 -0.30432538195E+02 -0.77756122571E+02  0.94838376686E+02  0.00000000000E+00 0. -1.
         13    1    3    3    0    0  0.17921082415E+02 -0.10520149683E+02  0.15093202457E+02  0.25683525939E+02  0.00000000000E+00 0.  1.
          1    1    1    2  501    0 -0.23782953402E+02  0.12017284110E+03  0.15142707864E+03  0.19477500034E+03  0.00000000000E+00 0. -1.
<scales pt_clust_5="13000.00000" pt_clust_6="13000.00000" pt_clust_7="13000.00000" pt_clust_8="13000.00000" pt_clust_9="116.21448"></scales>
<clustering>
<clus scale="   90.500">  7  8 -1 -1</clus>
<clus scale="   92.403">  5  6 -1 -1</clus>
<clus scale="  102.951">  2  7  1 -1</clus>
<clus scale="  116.214">  1  9  2 -1</clus>
<clus scale="  116.214">  1  5  2 -1</clus>
</clustering>
</event>
<event>
 9    1  0.1671478E-005  0.1129588E+03  0.7546771E-02  0.1256911E+00
         -3   -1    0    0    0  501 -0.00000000000E+00  0.00000000000E+00  0.30350028206E+03  0.30350028206E+03  0.00000000000E+00 0.  1.
         21   -1    0    0  501  502  0.00000000000E+00 -0.00000000000E+00 -0.16047011966E+03  0.16047011966E+03  0.00000000000E+00 0.  1.
         23    2    1    2    0    0  0.20802801345E+02 -0.53214827840E+02  0.16509092226E+03  0.19601139324E+03  0.88886890049E+02 0.  0.
         23    2    1    2    0    0 -0.38960219012E+02  0.65286924809E+02  0.92138055291E+02  0.15169724897E+03  0.93500550246E+02 0.  0.
        -11    1    3    3    0    0  0.78598311195E+01 -0.77631274584E+02  0.12118573387E+03  0.14413318088E+03  0.00000000000E+00 0.  1.
         11    1    3    3    0    0  0.12942970226E+02  0.24416446743E+02  0.43905188390E+02  0.51878212357E+02  0.00000000000E+00 0. -1.
        -13    1    4    4    0    0 -0.60523885073E+02  0.19809547508E+02  0.75313257679E+02  0.98628827525E+02  0.00000000000E+00 0.  1.
         13    1    4    4    0    0  0.21563666060E+02  0.45477377301E+02  0.16824797612E+02  0.53068421447E+02  0.00000000000E+00 0. -1.
         -3    1    1    2    0  502  0.18157417667E+02 -0.12072096969E+02 -0.11419881515E+03  0.11626175951E+03  0.00000000000E+00 0.  1.
<scales pt_clust_5="13000.00000" pt_clust_6="13000.00000" pt_clust_7="13000.00000" pt_clust_8="13000.00000" pt_clust_9="21.80430"></scales>
<clustering>
<clus scale="   21.804">  2  9  1 -1</clus>
<clus scale="   88.887">  5  6 -1 -1</clus>
<clus scale="   93.501">  7  8 -1 -1</clus>
<clus scale="  109.171">  1  5  2 -1</clus>
<clus scale="   21.804">  2  5  1 -1</clus>
</clustering>
</event>
<event>
 9    1  0.1671478E-005  0.9840727E+02  0.7546771E-02  0.1289436E+00
         -3   -1    0    0    0  501 -0.00000000000E+00  0.00000000000E+00  0.18391202112E+03  0.18391202112E+03  0.00000000000E+00 0.  1.
         21   -1    0    0  501  502  0.00000000000E+00 -0.00000000000E+00 -0.20821177872E+03  0.20821177872E+03  0.00000000000E+00 0.  1.
         23    2    1    2    0    0 -0.11342439673E+02  0.32411147327E+02  0.13155477591E+03  0.15842526552E+03  0.81318954003E+02 0.  0.
         23    2    1    2    0    0  0.34109343151E+02 -0.23383630473E+02 -0.29886612261E+02  0.10537182183E+03  0.92194196015E+02 0.  0.
        -11    1    3    3    0    0 -0.28231958797E+02 -0.41891682989E+01  0.10806643109E+03  0.11177184868E+03  0.00000000000E+00 0. -1.
         11    1    3    3    0    0  0.16889519124E+02  0.36600315626E+02  0.23488344822E+02  0.46653416837E+02  0.00000000000E+00 0.  1.
        -13    1    4    4    0    0  0.82001256055E+01  0.35609493171E+02 -0.89209482337E+01  0.37614643175E+02  0.00000000000E+00 0.  1.
         13    1    4    4    0    0  0.25909217545E+02 -0.58993123644E+02 -0.20965664027E+02  0.67757178654E+02  0.00000000000E+00 0. -1.
         -3    1    1    2    0  502 -0.22766903478E+02 -0.90275168542E+01 -0.12596792125E+03  0.12832671250E+03  0.00000000000E+00 0.  1.
<scales pt_clust_5="13000.00000" pt_clust_6="13000.00000" pt_clust_7="13000.00000" pt_clust_8="13000.00000" pt_clust_9="24.49139"></scales>
<clustering>
<clus scale="   24.491">  2  9  1 -1</clus>
<clus scale="   81.319">  5  6 -1 -1</clus>
<clus scale="   88.301">  1  5  2 -1</clus>
<clus scale="   92.194">  7  8 -1 -1</clus>
<clus scale="   24.491">  2  5  1 -1</clus>
</clustering>
</event>
<event>
 9    1  0.1671478E-005  0.9841264E+02  0.7546771E-02  0.1285073E+00
          4   -1    0    0  502    0 -0.00000000000E+00  0.00000000000E+00  0.56687833051E+03  0.56687833051E+03  0.00000000000E+00 0. -1.
         21   -1    0    0  501  502  0.00000000000E+00 -0.00000000000E+00 -0.25676553294E+02  0.25676553294E+02  0.00000000000E+00 0.  1.
         23    2    1    2    0    0 -0.94189657228E+01  0.20413686052E+02  0.26248135340E+03  0.27802562908E+03  0.88861431740E+02 0.  0.
         23    2    1    2    0    0  0.32695993665E+02 -0.45688339909E+02  0.23868697948E+03  0.26177221895E+03  0.91633880403E+02 0.  0.
        -11    1    3    3    0    0  0.23785832375E+02 -0.19100281977E+02  0.16426480224E+03  0.16707337265E+03  0.00000000000E+00 0. -1.
         11    1    3    3    0    0 -0.33204798098E+02  0.39513968029E+02  0.98216551162E+02  0.11095225644E+03  0.00000000000E+00 0.  1.
        -13    1    4    4    0    0  0.41305307302E+02 -0.70007438416E+02  0.17101743502E+03  0.18935187595E+03  0.00000000000E+00 0. -1.
         13    1    4    4    0    0 -0.86093136371E+01  0.24319098507E+02  0.67669544451E+02  0.72420342997E+02  0.00000000000E+00 0.  1.
          4    1    1    2  501    0 -0.23277027942E+02  0.25274653857E+02  0.40033444341E+02  0.52757035770E+02  0.00000000000E+00 0. -1.
<scales pt_clust_5="13000.00000" pt_clust_6="13000.00000" pt_clust_7="13000.00000" pt_clust_8="13000.00000" pt_clust_9="34.36027"></scales>
<clustering>
<clus scale="   34.360">  2  9  1 -1</clus>
<clus scale="   88.861">  5  6 -1 -1</clus>
<clus scale="   91.634">  7  8 -1 -1</clus>
<clus scale="   95.836">  1  5  2 -1</clus>
<clus scale="   34.360">  2  5  1 -1</clus>
</clustering>
</event>
<event>
 9    1  0.1671478E-005  0.1649314E+03  0.7546771E-02  0.1183290E+00
         21   -1    0    0  501  502  0.00000000000E+00  0.00000000000E+00  0.67152892882E+03  0.67152892882E+03  0.00000000000E+00 0. -1.
         -1   -1    0    0    0  501 -0.00000000000E+00 -0.00000000000E+00 -0.14651148353E+03  0.14651148353E+03  0.00000000000E+00 0.  1.
         23    2    1    2    0    0  0.73046490464E+02  0.10903698244E+03 -0.58120930374E+02  0.16997569896E+03  0.91043079805E+02 0.  0.
         23    2    1    2    0    0 -0.99743961829E+02 -0.16618085597E+03  0.49769540584E+03  0.54186359121E+03  0.91381068461E+02 0.  0.
        -11    1    4    4    0    0  0.15680118107E+02 -0.20474159722E+02  0.93180744880E+02  0.96683548428E+02  0.00000000000E+00 0.  1.
         11    1    4    4    0    0 -0.11542407994E+03 -0.14570669625E+03  0.40451466096E+03  0.44518004278E+03  0.00000000000E+00 0. -1.
        -11    1    3    3    0    0  0.35684201125E+02 -0.64609927567E+01 -0.22207881700E+01  0.36332334599E+02  0.00000000000E+00 0. -1.
         11    1    3    3    0    0  0.37362289340E+02  0.11549797520E+03 -0.55900142204E+02  0.13364336436E+03  0.00000000000E+00 0.  1.
         -1    1    1    2    0  502  0.26697471365E+02  0.57143873529E+02  0.85442969835E+02  0.10620112219E+03  0.00000000000E+00 0.  1.
<scales pt_clust_5="13000.00000" pt_clust_6="13000.00000" pt_clust_7="13000.00000" pt_clust_8="13000.00000" pt_clust_9="63.07279"></scales>
<clustering>
<clus scale="   63.073">  1  9  2 -1</clus>
<clus scale="   91.043">  7  8 -1 -1</clus>
<clus scale="   91.381">  5  6 -1 -1</clus>
<clus scale="  164.744">  2  7  1 -1</clus>
<clus scale="   63.073">  1  5  2 -1</clus>
</clustering>
</event>
<event>
 9    1  0.1671478E-005  0.9790868E+02  0.7546771E-02  0.1291382E+00
          1   -1    0    0  502    0 -0.00000000000E+00  0.00000000000E+00  0.63881053585E+02  0.63881053585E+02  0.00000000000E+00 0. -1.
         21   -1    0    0  501  502  0.00000000000E+00 -0.00000000000E+00 -0.30484114075E+03  0.30484114075E+03  0.00000000000E+00 0.  1.
         23    2    1    2    0    0 -0.77959554171E+01  0.15908454506E+00  0.18407998808E+01  0.98050233224E+02  0.97722348838E+02 0.  0.
         23    2    1    2    0    0 -0.84066277676E+01 -0.18815214979E+02 -0.14641936335E+03  0.17117335301E+03  0.86238060687E+02 0.  0.
        -11    1    4    4    0    0 -0.63685411857E+01  0.23104197537E+02 -0.11818640400E+03  0.12059182539E+03  0.00000000000E+00 0.  1.
         11    1    4    4    0    0 -0.20380865819E+01 -0.41919412516E+02 -0.28232959355E+02  0.50581527622E+02  0.00000000000E+00 0. -1.
        -11    1    3    3    0    0 -0.90095473715E+01 -0.34658111478E+02  0.34913903438E+02  0.50013371095E+02  0.00000000000E+00 0. -1.
         11    1    3    3    0    0  0.12135919544E+01  0.34817196023E+02 -0.33073103557E+02  0.48036862129E+02  0.00000000000E+00 0.  1.
          1    1    1    2  501    0  0.16202583185E+02  0.18656130434E+02 -0.96381523700E+02  0.99498608108E+02  0.00000000000E+00 0. -1.
<scales pt_clust_5="13000.00000" pt_clust_6="13000.00000" pt_clust_7="13000.00000" pt_clust_8="13000.00000" pt_clust_9="24.70981"></scales>
<clustering>
<clus scale="   24.710">  2  9  1 -1</clus>
<clus scale="   86.238">  5  6 -1 -1</clus>
<clus scale="   86.449">  2  5  1 -1</clus>
<clus scale="   97.722">  7  8 -1 -1</clus>
<clus scale="   24.710">  2  5  1 -1</clus>
</clustering>
</event>
<event>
 9    1  0.1671478E-005  0.1106245E+03  0.7546771E-02  0.1259915E+00
         21   -1    0    0  501  502  0.00000000000E+00  0.00000000000E+00  0.81164357201E+03  0.81164357201E+03  0.00000000000E+00 0.  1.
          4   -1    0    0  502    0 -0.00000000000E+00 -0.00000000000E+00 -0.23004559852E+02  0.23004559852E+02  0.00000000000E+00 0. -1.
         23    2    1    2    0    0  0.32509946723E+02  0.44997819170E+02  0.20281959098E+03  0.22953356002E+03  0.92022651149E+02 0.  0.
         23    2    1    2    0    0 -0.62859516270E+02 -0.45608169625E+02  0.50066198417E+03  0.51470849916E+03  0.90724819067E+02 0.  0.
        -11    1    3    3    0    0 -0.93090799274E+01  0.36235288432E+02  0.17404499815E+03  0.17802055072E+03  0.00000000000E+00 0.  1.
         11    1    3    3    0    0  0.41819026651E+02  0.87625307382E+01  0.28774592831E+02  0.51513009304E+02  0.00000000000E+00 0. -1.
        -13    1    4    4    0    0  0.74624904472E+01  0.20435746069E+02  0.12363797624E+03  0.12553747508E+03  0.00000000000E+00 0. -1.
         13    1    4    4    0    0 -0.70322006717E+02 -0.66043915693E+02  0.37702400793E+03  0.38917102408E+03  0.00000000000E+00 0.  1.
          4    1    1    2  501    0  0.30349569546E+02  0.61035045421E+00  0.85157437005E+02  0.90406072675E+02  0.00000000000E+00 0. -1.
<scales pt_clust_5="13000.00000" pt_clust_6="13000.00000" pt_clust_7="13000.00000" pt_clust_8="13000.00000" pt_clust_9="30.35572"></scales>
<clustering>
<clus scale="   30.356">  1  9  2 -1</clus>
<clus scale="   90.725">  7  8 -1 -1</clus>
<clus scale="   92.023">  5  6 -1 -1</clus>
<clus scale="  109.547">  1  7  2 -1</clus>
<clus scale="   30.356">  1  5  2 -1</clus>
</clustering>
</event>
<event>
 9    1  0.1671478E-005  0.1026364E+03  0.7546771E-02  0.1277163E+00
         -2   -1    0    0    0  501 -0.00000000000E+00  0.00000000000E+00  0.12789591683E+03  0.12789591683E+03  0.00000000000E+00 0.  1.
         21   -1    0    0  501  502  0.00000000000E+00 -0.00000000000E+00 -0.37411644637E+03  0.37411644637E+03  0.00000000000E+00 0.  1.
         23    2    1    2    0    0 -0.52622054180E+02 -0.35305015837E+02  0.53688576010E+02  0.11832288742E+03  0.84275250015E+02 0.  0.
         23    2    1    2    0    0  0.36850760638E+02 -0.15364631039E+02 -0.21493286440E+02  0.10026132766E+03  0.89422156179E+02 0.  0.
        -11    1    3    3    0    0 -0.38282783169E+02 -0.61534321750E+02  0.24387680394E+02  0.76464391683E+02  0.00000000000E+00 0.  1.
         11    1    3    3    0    0 -0.14339271011E+02  0.26229305914E+02  0.29300895616E+02  0.41858495741E+02  0.00000000000E+00 0. -1.
        -13    1    4    4    0    0 -0.10061618290E+02 -0.38264600914E+02 -0.26802155180E+02  0.47788820534E+02  0.00000000000E+00 0.  1.
         13    1    4    4    0    0  0.46912378927E+02  0.22899969875E+02  0.53088687400E+01  0.52472507127E+02  0.00000000000E+00 0. -1.
         -2    1    1    2    0  502  0.15771293542E+02  0.50669646876E+02 -0.27841581911E+03  0.28342814811E+03  0.00000000000E+00 0.  1.
<scales pt_clust_5="13000.00000" pt_clust_6="13000.00000" pt_clust_7="13000.00000" pt_clust_8="13000.00000" pt_clust_9="53.06738"></scales>
<clustering>
<clus scale="   53.067">  2  9  1 -1</clus>
<clus scale="   84.275">  5  6 -1 -1</clus>
<clus scale="   89.422">  7  8 -1 -1</clus>
<clus scale="   98.185">  1  5  2 -1</clus>
<clus scale="   53.067">  2  5  1 -1</clus>
</clustering>
</event>
<event>
 9    1  0.1671478E-005  0.3690758E+03  0.7546771E-02  0.1086983E+00
         -1   -1    0    0    0  501 -0.00000000000E+00  0.00000000000E+00  0.29565972478E+03  0.29565972478E+03  0.00000000000E+00 0.  1.
         21   -1    0    0  501  502  0.00000000000E+00 -0.00000000000E+00 -0.79044694736E+03  0.79044694736E+03  0.00000000000E+00 0. -1.
         23    2    1    2    0    0  0.93152640162E+02  0.80870283163E+02 -0.32184670258E+01  0.15384473844E+03  0.91871801698E+02 0.  0.
         23    2    1    2    0    0  0.13581932735E+03 -0.35232054001E+03 -0.94842928965E+02  0.39981025952E+03  0.90974775860E+02 0.  0.
        -13    1    3    3    0    0  0.57493768158E+02  0.53266724760E+02  0.42895097791E+02  0.89346890031E+02  0.00000000000E+00 0.  1.
         13    1    3    3    0    0  0.35658872004E+02  0.27603558403E+02 -0.46113564817E+02  0.64497848408E+02  0.00000000000E+00 0. -1.
        -13    1    4    4    0    0  0.71901151252E+02 -0.27921496366E+03 -0.49127069202E+02  0.29247947007E+03  0.00000000000E+00 0. -1.
         13    1    4    4    0    0  0.63918176101E+02 -0.73105576355E+02 -0.45715859763E+02  0.10733078945E+03  0.00000000000E+00 0.  1.
         -1    1    1    2    0  502 -0.22897196751E+03  0.27145025685E+03 -0.39672582659E+03  0.53245167418E+03  0.00000000000E+00 0.  1.
<scales pt_clust_5="13000.00000" pt_clust_6="13000.00000" pt_clust_7="13000.00000" pt_clust_8="13000.00000" pt_clust_9="357.68774"></scales>
<clustering>
<clus scale="   90.975">  7  8 -1 -1</clus>
<clus scale="   91.872">  5  6 -1 -1</clus>
<clus scale="  153.811">  1  5  2 -1</clus>
<clus scale="  357.688">  2  9  1 -1</clus>
<clus scale="  357.688">  2  5  1 -1</clus>
</clustering>
</event>
<event>
 9    1  0.1671478E-005  0.1010942E+03  0.7546771E-02  0.1278469E+00
         21   -1    0    0  501  502  0.00000000000E+00  0.00000000000E+00  0.34457604072E+02  0.34457604072E+02  0.00000000000E+00 0.  1.
          2   -1    0    0  502    0 -0.00000000000E+00 -0.00000000000E+00 -0.73951363681E+03  0.73951363681E+03  0.00000000000E+00 0. -1.
         23    2    1    2    0    0  0.94925109874E+01  0.40667747832E+02 -0.37810047688E+03  0.39142106144E+03  0.92230706630E+02 0.  0.
         23    2    1    2    0    0 -0.77385506154E+02 -0.42107806418E+01 -0.17310900521E+03  0.21048237189E+03  0.91268033586E+02 0.  0.
        -13    1    3    3    0    0  0.49679759783E+02  0.25796424968E+02 -0.17083593415E+03  0.17977333081E+03  0.00000000000E+00 0. -1.
         13    1    3    3    0    0 -0.40187248795E+02  0.14871322864E+02 -0.20726454273E+03  0.21164773063E+03  0.00000000000E+00 0.  1.
        -13    1    4    4    0    0 -0.42007751484E+01 -0.32619019649E+02 -0.91555581310E+02  0.97283459147E+02  0.00000000000E+00 0. -1.
         13    1    4    4    0    0 -0.73184731005E+02  0.28408239007E+02 -0.81553423897E+02  0.11319891274E+03  0.00000000000E+00 0.  1.
          2    1    1    2  501    0  0.67892995166E+02 -0.36456967190E+02 -0.15384655065E+03  0.17206780755E+03  0.00000000000E+00 0. -1.
<scales pt_clust_5="13000.00000" pt_clust_6="13000.00000" pt_clust_7="13000.00000" pt_clust_8="13000.00000" pt_clust_9="77.06211"></scales>
<clustering>
<clus scale="   77.062">  1  9  2 -1</clus>
<clus scale="   91.268">  7  8 -1 -1</clus>
<clus scale="   92.231">  5  6 -1 -1</clus>
<clus scale="  100.217">  1  7  2 -1</clus>
<clus scale="   77.062">  1  5  2 -1</clus>
</clustering>
</event>
<event>
 9    1  0.1671478E-005  0.9258778E+02  0.7546771E-02  0.1300824E+00
         21   -1    0    0  501  502  0.00000000000E+00  0.00000000000E+00  0.95856574392E+02  0.95856574392E+02  0.00000000000E+00 0. -1.
          1   -1    0    0  502    0 -0.00000000000E+00 -0.00000000000E+00 -0.23926883914E+03  0.23926883914E+03  0.00000000000E+00 0. -1.
         23    2    1    2    0    0 -0.21573877960E+02 -0.19210827937E+02 -0.13992110097E+03  0.16563298044E+03  0.83796668157E+02 0.  0.
         23    2    1    2    0    0  0.38220265946E+01 -0.88305248671E+01 -0.56232686682E+02  0.10717779652E+03  0.90732458128E+02 0.  0.
        -11    1    4    4    0    0  0.29847525633E+02  0.24149263639E+02 -0.52443769710E+02  0.64995466781E+02  0.00000000000E+00 0.  1.
         11    1    4    4    0    0 -0.26025499038E+02 -0.32979788506E+02 -0.37889169717E+01  0.42182329736E+02  0.00000000000E+00 0. -1.
        -13    1    3    3    0    0  0.31346261203E+02 -0.11710209454E+02 -0.38651784208E+02  0.51124138323E+02  0.00000000000E+00 0.  1.
         13    1    3    3    0    0 -0.52920139162E+02 -0.75006184831E+01 -0.10126931676E+03  0.11450884212E+03  0.00000000000E+00 0. -1.
          1    1    1    2  501    0  0.17751851365E+02  0.28041352804E+02  0.52741522898E+02  0.62314636576E+02  0.00000000000E+00 0. -1.
<scales pt_clust_5="13000.00000" pt_clust_6="13000.00000" pt_clust_7="13000.00000" pt_clust_8="13000.00000" pt_clust_9="33.18804"></scales>
<clustering>
<clus scale="   33.188">  1  9  2 -1</clus>
<clus scale="   83.797">  7  8 -1 -1</clus>
<clus scale="   85.802">  2  7  1 -1</clus>
<clus scale="   90.732">  5  6 -1 -1</clus>
<clus scale="   33.188">  1  5  2 -1</clus>
</clustering>
</event>
<event>
 9    1  0.1671478E-005  0.1100035E+03  0.7546771E-02  0.1261805E+00
          1   -1    0    0  502    0 -0.00000000000E+00  0.00000000000E+00  0.18249511370E+03  0.18249511370E+03  0.00000000000E+00 0. -1.
         21   -1    0    0  501  502  0.00000000000E+00 -0.00000000000E+00 -0.27656120387E+03  0.27656120387E+03  0.00000000000E+00 0. -1.
         23    2    1    2    0    0 -0.57368535818E+02 -0.41733829809E+02  0.10070530331E+03  0.15397127207E+03  0.92372793913E+02 0.  0.
         23    2    1    2    0    0  0.46485235583E+02 -0.61282438756E+00  0.48729476963E+01  0.10070904812E+03  0.89203778352E+02 0.  0.
        -11    1    3    3    0    0 -0.26334570574E+02 -0.44942820217E+02  0.38695308005E+01  0.52233513810E+02  0.00000000000E+00 0.  1.
         11    1    3    3    0    0 -0.31033965244E+02  0.32089904075E+01  0.96835772505E+02  0.10173775826E+03  0.00000000000E+00 0. -1.
        -13    1    4    4    0    0 -0.35379964863E+01  0.34669675547E+02  0.16240816097E+02  0.38448250014E+02  0.00000000000E+00 0. -1.
         13    1    4    4    0    0  0.50023232070E+02 -0.35282499934E+02 -0.11367868400E+02  0.62260798102E+02  0.00000000000E+00 0.  1.
          1    1    1    2  501    0  0.10883300234E+02  0.42346654197E+02 -0.19964434117E+03  0.20437599738E+03  0.00000000000E+00 0. -1.
<scales pt_clust_5="13000.00000" pt_clust_6="13000.00000" pt_clust_7="13000.00000" pt_clust_8="13000.00000" pt_clust_9="43.72282"></scales>
<clustering>
<clus scale="   43.723">  2  9  1 -1</clus>
<clus scale="   89.204">  7  8 -1 -1</clus>
<clus scale="   92.373">  5  6 -1 -1</clus>
<clus scale="  107.356">  2  7  1 -1</clus>
<clus scale="   43.723">  2  5  1 -1</clus>
</clustering>
</event>
<event>
 9    1  0.1671478E-005  0.2250080E+03  0.7546771E-02  0.1145934E+00
         21   -1    0    0  501  502  0.00000000000E+00  0.00000000000E+00  0.11853908601E+03  0.11853908601E+03  0.00000000000E+00 0. -1.
          1   -1    0    0  502    0 -0.00000000000E+00 -0.00000000000E+00 -0.17664523857E+04  0.17664523857E+04  0.00000000000E+00 0. -1.
         23    2    1    2    0    0 -0.12352291882E+03 -0.46599609586E+01 -0.44246757082E+03  0.46842119956E+03  0.91439828619E+02 0.  0.
         23    2    1    2    0    0  0.16792778695E+03 -0.19318977876E+03 -0.11814144867E+04  0.12123796445E+04  0.92747942508E+02 0.  0.
        -11    1    4    4    0    0  0.38286494770E+02 -0.11295424911E+03 -0.48132835161E+03  0.49588456332E+03  0.00000000000E+00 0. -1.
         11    1    4    4    0    0  0.12964129218E+03 -0.80235529652E+02 -0.70008613507E+03  0.71649508119E+03  0.00000000000E+00 0.  1.
        -11    1    3    3    0    0 -0.11142287439E+03 -0.32270917899E+02 -0.27829549278E+03  0.30150431238E+03  0.00000000000E+00 0. -1.
         11    1    3    3    0    0 -0.12100044426E+02  0.27610956940E+02 -0.16417207804E+03  0.16691688718E+03  0.00000000000E+00 0.  1.
          1    1    1    2  501    0 -0.44404868132E+02  0.19784973972E+03 -0.24031242210E+02  0.20419062766E+03  0.00000000000E+00 0. -1.
<scales pt_clust_5="13000.00000" pt_clust_6="13000.00000" pt_clust_7="13000.00000" pt_clust_8="13000.00000" pt_clust_9="205.00344"></scales>
<clustering>
<clus scale="   91.440">  7  8 -1 -1</clus>
<clus scale="   92.748">  5  6 -1 -1</clus>
<clus scale="  153.756">  2  7  1 -1</clus>
<clus scale="  205.003">  1  9  2 -1</clus>
<clus scale="  205.003">  1  5  2 -1</clus>
</clustering>
</event>
<event>
 9    1  0.1671478E-005  0.1102693E+03  0.7546771E-02  0.1260081E+00
          1   -1    0    0  502    0 -0.00000000000E+00  0.00000000000E+00  0.26929546852E+03  0.26929546852E+03  0.00000000000E+00 0. -1.
         21   -1    0    0  501  502  0.00000000000E+00 -0.00000000000E+00 -0.67930534717E+02  0.67930534717E+02  0.00000000000E+00 0.  1.
         23    2    1    2    0    0  0.79157234989E+02  0.50800649260E+01  0.10124654802E+03  0.15745306652E+03  0.90823618953E+02 0.  0.
         23    2    1    2    0    0 -0.41542336343E+02 -0.48787075236E+01  0.37675043180E+02  0.10687511658E+03  0.90847752698E+02 0.  0.
        -11    1    4    4    0    0 -0.59069222059E+02  0.25897852468E+02  0.22023406705E+02  0.68153519352E+02  0.00000000000E+00 0.  1.
         11    1    4    4    0    0  0.17526885716E+02 -0.30776559992E+02  0.15651636474E+02  0.38721597232E+02  0.00000000000E+00 0. -1.
        -13    1    3    3    0    0  0.27351176758E+02 -0.17195465683E+02 -0.90719544551E+01  0.33556985379E+02  0.00000000000E+00 0.  1.
         13    1    3    3    0    0  0.51806058231E+02  0.22275530609E+02  0.11031850248E+03  0.12389608114E+03  0.00000000000E+00 0. -1.
          1    1    1    2  501    0 -0.37614898646E+02 -0.20135740244E+00  0.62443342598E+02  0.72897820130E+02  0.00000000000E+00 0. -1.
<scales pt_clust_5="13000.00000" pt_clust_6="13000.00000" pt_clust_7="13000.00000" pt_clust_8="13000.00000" pt_clust_9="37.61546"></scales>
<clustering>
<clus scale="   37.615">  2  9  1 -1</clus>
<clus scale="   90.824">  7  8 -1 -1</clus>
<clus scale="   90.848">  5  6 -1 -1</clus>
<clus scale="  110.249">  1  7  2 -1</clus>
<clus scale="   37.615">  2  5  1 -1</clus>
</clustering>
</event>
<event>
 9    1  0.1671478E-005  0.9435963E+02  0.7546771E-02  0.1295196E+00
         21   -1    0    0  501  502  0.00000000000E+00  0.00000000000E+00  0.18220039060E+03  0.18220039060E+03  0.00000000000E+00 0.  1.
          1   -1    0    0  502    0 -0.00000000000E+00 -0.00000000000E+00 -0.35853779464E+03  0.35853779464E+03  0.00000000000E+00 0. -1.
         23    2    1    2    0    0  0.72571920896E-02 -0.30714828986E+02 -0.19248284532E+03  0.21430081656E+03  0.89060616787E+02 0.  0.
         23    2    1    2    0    0 -0.28959126553E+02 -0.34116053507E+02 -0.12862028875E+03  0.16519726618E+03  0.93511614020E+02 0.  0.
        -11    1    4    4    0    0 -0.11828242370E+02 -0.59463089249E+02 -0.43147070547E+02  0.74413950288E+02  0.00000000000E+00 0.  1.
         11    1    4    4    0    0 -0.17130884183E+02  0.25347035742E+02 -0.85473218206E+02  0.90783315892E+02  0.00000000000E+00 0. -1.
        -11    1    3    3    0    0 -0.17163047468E+02 -0.47756119410E+02 -0.18012264768E+03  0.18713467169E+03  0.00000000000E+00 0.  1.
         11    1    3    3    0    0  0.17170304660E+02  0.17041290424E+02 -0.12360197636E+02  0.27166144869E+02  0.00000000000E+00 0. -1.
          1    1    1    2  501    0  0.28951869361E+02  0.64830882493E+02  0.14476573003E+03  0.16124010250E+03  0.00000000000E+00 0. -1.
<scales pt_clust_5="13000.00000" pt_clust_6="13000.00000" pt_clust_7="13000.00000" pt_clust_8="13000.00000" pt_clust_9="71.00179"></scales>
<clustering>
<clus scale="   71.002">  1  9  2 -1</clus>
<clus scale="   89.061">  7  8 -1 -1</clus>
<clus scale="   89.951">  2  7  1 -1</clus>
<clus scale="   93.512">  5  6 -1 -1</clus>
<clus scale="   71.002">  1  5  2 -1</clus>
</clustering>
</event>
<event>
 9    1  0.1671478E-005  0.9301860E+02  0.7546771E-02  0.1297591E+00
         21   -1    0    0  501  502  0.00000000000E+00  0.00000000000E+00  0.43440697413E+02  0.43440697413E+02  0.00000000000E+00 0.  1.
          1   -1    0    0  502    0 -0.00000000000E+00 -0.00000000000E+00 -0.28626497199E+03  0.28626497199E+03  0.00000000000E+00 0. -1.
         23    2    1    2    0    0 -0.53201442128E+01 -0.52724983387E+01 -0.10005681136E+03  0.13609989855E+03  0.91954954799E+02 0.  0.
         23    2    1    2    0    0  0.14771391666E+02 -0.27656462481E+02 -0.86971455046E+02  0.12813182896E+03  0.88716727124E+02 0.  0.
        -11    1    4    4    0    0  0.13890380425E+01  0.26949336385E+02 -0.59971299868E+02  0.65762854000E+02  0.00000000000E+00 0. -1.
         11    1    4    4    0    0  0.13382353623E+02 -0.54605798866E+02 -0.27000155177E+02  0.62368974962E+02  0.00000000000E+00 0.  1.
        -13    1    3    3    0    0 -0.12667378347E+02 -0.26517798743E+02 -0.10825400028E+03  0.11217212087E+03  0.00000000000E+00 0.  1.
         13    1    3    3    0    0  0.73472341343E+01  0.21245300404E+02  0.81971889139E+01  0.23927777682E+02  0.00000000000E+00 0. -1.
          1    1    1    2  501    0 -0.94512474531E+01  0.32928960820E+02 -0.55796008172E+02  0.65473941893E+02  0.00000000000E+00 0. -1.
<scales pt_clust_5="13000.00000" pt_clust_6="13000.00000" pt_clust_7="13000.00000" pt_clust_8="13000.00000" pt_clust_9="34.25848"></scales>
<clustering>
<clus scale="   34.258">  1  9  2 -1</clus>
<clus scale="   88.717">  5  6 -1 -1</clus>
<clus scale="   89.819">  1  5  2 -1</clus>
<clus scale="   91.955">  7  8 -1 -1</clus>
<clus scale="   34.258">  1  5  2 -1</clus>
</clustering>
</event>
<event>
 9    1  0.1671478E-005  0.1586628E+03  0.7546771E-02  0.1190386E+00
         21   -1    0    0  501  502  0.00000000000E+00  0.00000000000E+00  0.16772598965E+03  0.16772598965E+03  0.00000000000E+00 0. -1.
         -3   -1    0    0    0  501 -0.00000000000E+00 -0.00000000000E+00 -0.38019892550E+03  0.38019892550E+03  0.00000000000E+00 0.  1.
         23    2    1    2    0    0 -0.22387985903E+02 -0.13614217964E+03 -0.29207559092E+03  0.33597602802E+03  0.92389531878E+02 0.  0.
         23    2    1    2    0    0  0.23409500097E+02  0.95818899450E+02  0.14311384554E+02  0.13520280956E+03  0.91354900242E+02 0.  0.
        -11    1    3    3    0    0 -0.41075333211E+02 -0.47309585863E+02 -0.18648693759E+03  0.19673016496E+03  0.00000000000E+00 0.  1.
         11    1    3    3    0    0  0.18687347307E+02 -0.88832593781E+02 -0.10558865333E+03  0.13924586306E+03  0.00000000000E+00 0. -1.
        -13    1    4    4    0    0  0.56936861259E+02  0.45953518780E+02  0.16765676983E+02  0.75064105823E+02  0.00000000000E+00 0.  1.
         13    1    4    4    0    0 -0.33527361161E+02  0.49865380670E+02 -0.24542924295E+01  0.60138703737E+02  0.00000000000E+00 0. -1.
         -3    1    1    2    0  502 -0.10215141938E+01  0.40323280194E+02  0.65291270520E+02  0.76746077573E+02  0.00000000000E+00 0.  1.
<scales pt_clust_5="13000.00000" pt_clust_6="13000.00000" pt_clust_7="13000.00000" pt_clust_8="13000.00000" pt_clust_9="40.33622"></scales>
<clustering>
<clus scale="   40.336">  1  9  2 -1</clus>
<clus scale="   91.355">  7  8 -1 -1</clus>
<clus scale="   92.390">  5  6 -1 -1</clus>
<clus scale="  158.063">  1  7  2 -1</clus>
<clus scale="   40.336">  1  5  2 -1</clus>
</clustering>
</event>
<event>
 9    1  0.1671478E-005  0.9934959E+02  0.7546771E-02  0.1281764E+00
         21   -1    0    0  501  502  0.00000000000E+00  0.00000000000E+00  0.16475255145E+03  0.16475255145E+03  0.00000000000E+00 0.  1.
          3   -1    0    0  502    0 -0.00000000000E+00 -0.00000000000E+00 -0.92534609674E+02  0.92534609674E+02  0.00000000000E+00 0. -1.
         23    2    1    2    0    0  0.39806821454E+02 -0.14960214677E+02 -0.66367674718E+01  0.10090437484E+03  0.91264752905E+02 0.  0.
         23    2    1    2    0    0 -0.37565254679E+02 -0.84730987387E+01  0.31967703516E+02  0.10391816862E+03  0.91072004154E+02 0.  0.
        -11    1    4    4    0    0 -0.16314127955E+02 -0.42084525987E+02 -0.98641060146E+01  0.46201284462E+02  0.00000000000E+00 0.  1.
         11    1    4    4    0    0 -0.21251126724E+02  0.33611427248E+02  0.41831809530E+02  0.57716884161E+02  0.00000000000E+00 0. -1.
        -13    1    3    3    0    0 -0.24579922356E+02 -0.96826262690E+01  0.17776990606E+02  0.31842538051E+02  0.00000000000E+00 0.  1.
         13    1    3    3    0    0  0.64386743811E+02 -0.52775884081E+01 -0.24413758078E+02  0.69061836794E+02  0.00000000000E+00 0. -1.
          3    1    1    2  501    0 -0.22415667754E+01  0.23433313416E+02  0.46887005733E+02  0.52464617656E+02  0.00000000000E+00 0. -1.
<scales pt_clust_5="13000.00000" pt_clust_6="13000.00000" pt_clust_7="13000.00000" pt_clust_8="13000.00000" pt_clust_9="23.54028"></scales>
<clustering>
<clus scale="   23.540">  1  9  2 -1</clus>
<clus scale="   91.072">  5  6 -1 -1</clus>
<clus scale="   91.265">  7  8 -1 -1</clus>
<clus scale="   99.173">  1  5  2 -1</clus>
<clus scale="   23.540">  1  5  2 -1</clus>
</clustering>
</event>
<event>
 9    1  0.1671478E-005  0.1101154E+03  0.7546771E-02  0.1260638E+00
         -1   -1    0    0    0  501 -0.00000000000E+00  0.00000000000E+00  0.65246815748E+03  0.65246815748E+03  0.00000000000E+00 0.  1.
         21   -1    0    0  501  502  0.00000000000E+00 -0.00000000000E+00 -0.21525853791E+03  0.21525853791E+03  0.00000000000E+00 0.  1.
         23    2    1    2    0    0 -0.59582012582E+02  0.23253091255E+02  0.40849772132E+03  0.42370207804E+03  0.92532913794E+02 0.  0.
         23    2    1    2    0    0  0.39018441464E+02 -0.40366364473E+02  0.22315584482E+03  0.24774885998E+03  0.91810045139E+02 0.  0.
        -11    1    4    4    0    0  0.65941937796E+02 -0.36129671115E+02  0.19285163857E+03  0.20699141720E+03  0.00000000000E+00 0. -1.
         11    1    4    4    0    0 -0.26923496332E+02 -0.42366933582E+01  0.30304206242E+02  0.40757442772E+02  0.00000000000E+00 0.  1.
        -11    1    3    3    0    0  0.66823043144E+01 -0.27080830014E+02  0.13383047753E+03  0.13670633219E+03  0.00000000000E+00 0. -1.
         11    1    3    3    0    0 -0.66264316897E+02  0.50333921269E+02  0.27466724379E+03  0.28699574585E+03  0.00000000000E+00 0.  1.
         -1    1    1    2    0  502  0.20563571118E+02  0.17113273217E+02 -0.19444394657E+03  0.19627575738E+03  0.00000000000E+00 0.  1.
<scales pt_clust_5="13000.00000" pt_clust_6="13000.00000" pt_clust_7="13000.00000" pt_clust_8="13000.00000" pt_clust_9="26.75303"></scales>
<clustering>
<clus scale="   26.753">  2  9  1 -1</clus>
<clus scale="   91.810">  5  6 -1 -1</clus>
<clus scale="   92.533">  7  8 -1 -1</clus>
<clus scale="  109.509">  2  5  1 -1</clus>
<clus scale="   26.753">  2  5  1 -1</clus>
</clustering>
</event>
<event>
 9    1  0.1671478E-005  0.9462532E+02  0.7546771E-02  0.1292358E+00
         21   -1    0    0  501  502  0.00000000000E+00  0.00000000000E+00  0.85632095704E+02  0.85632095704E+02  0.00000000000E+00 0. -1.
          1   -1    0    0  502    0 -0.00000000000E+00 -0.00000000000E+00 -0.29961865262E+03  0.29961865262E+03  0.00000000000E+00 0. -1.
         23    2    1    2    0    0  0.48243768488E+01  0.31103575528E+02 -0.21312428889E+03  0.23415552758E+03  0.91739531067E+02 0.  0.
         23    2    1    2    0    0  0.40835215141E+01 -0.43960620516E+00 -0.40826329708E+02  0.99940984419E+02  0.91129264058E+02 0.  0.
        -13    1    3    3    0    0 -0.24336361862E+02 -0.24266420994E+02 -0.78878423226E+02  0.86040242602E+02  0.00000000000E+00 0.  1.
         13    1    3    3    0    0  0.29160738711E+02  0.55369996522E+02 -0.13424586567E+03  0.14811528498E+03  0.00000000000E+00 0. -1.
        -13    1    4    4    0    0 -0.59135060436E+01 -0.36361139681E+02  0.87927653582E+01  0.37873668363E+02  0.00000000000E+00 0.  1.
         13    1    4    4    0    0  0.99970275577E+01  0.35921533476E+02 -0.49619095066E+02  0.62067316056E+02  0.00000000000E+00 0. -1.
          1    1    1    2  501    0 -0.89078983629E+01 -0.30663969323E+02  0.39964061680E+02  0.51154236324E+02  0.00000000000E+00 0. -1.
<scales pt_clust_5="13000.00000" pt_clust_6="13000.00000" pt_clust_7="13000.00000" pt_clust_8="13000.00000" pt_clust_9="31.93164"></scales>
<clustering>
<clus scale="   31.932">  1  9  2 -1</clus>
<clus scale="   91.129">  7  8 -1 -1</clus>
<clus scale="   91.740">  5  6 -1 -1</clus>
<clus scale="   94.034">  1  7  2 -1</clus>
<clus scale="   31.932">  1  5  2 -1</clus>
</clustering>
</event>
<event>
 9    1  0.1671478E-005  0.2527630E+03  0.7546771E-02  0.1111616E+00
         -1   -1    0    0    0  501 -0.00000000000E+00  0.00000000000E+00  0.47927406825E+03  0.47927406825E+03  0.00000000000E+00 0.  1.
         21   -1    0    0  501  502  0.00000000000E+00 -0.00000000000E+00 -0.32741356754E+03  0.32741356754E+03  0.00000000000E+00 0.  1.
         23    2    1    2    0    0 -0.11449427213E+02 -0.30942849190E+03  0.28041600016E+03  0.42798044996E+03  0.93043277138E+02 0.  0.
         23    2    1    2    0    0  0.63853031453E+01  0.14578614461E+03 -0.34882417752E+01  0.17268223072E+03  0.92263822385E+02 0.  0.
        -11    1    4    4    0    0 -0.35131893745E+02  0.62916811073E+02  0.24086361391E+02  0.75979785988E+02  0.00000000000E+00 0. -1.
         11    1    4    4    0    0  0.41517196890E+02  0.82869333532E+02 -0.27574603166E+02  0.96702444734E+02  0.00000000000E+00 0.  1.
        -13    1    3    3    0    0  0.25709760317E+02 -0.25384686032E+03  0.20586644735E+03  0.32784175210E+03  0.00000000000E+00 0.  1.
         13    1    3    3    0    0 -0.37159187530E+02 -0.55581631579E+02  0.74549552808E+02  0.10013869787E+03  0.00000000000E+00 0. -1.
         -1    1    1    2    0  502  0.50641240677E+01  0.16364234730E+03 -0.12506725768E+03  0.20602495510E+03  0.00000000000E+00 0.  1.
<scales pt_clust_5="13000.00000" pt_clust_6="13000.00000" pt_clust_7="13000.00000" pt_clust_8="13000.00000" pt_clust_9="163.72069"></scales>
<clustering>
<clus scale="   92.264">  5  6 -1 -1</clus>
<clus scale="   93.043">  7  8 -1 -1</clus>
<clus scale="  163.721">  2  9  1 -1</clus>
<clus scale="  252.477">  2  5  1 -1</clus>
<clus scale="  163.721">  2  5  1 -1</clus>
</clustering>
</event>
<event>
 9    1  0.1671478E-005  0.1048921E+03  0.7546771E-02  0.1271102E+00
         21   -1    0    0  501  502  0.00000000000E+00  0.00000000000E+00  0.80459660190E+02  0.80459660190E+02  0.00000000000E+00 0. -1.
          2   -1    0    0  502    0 -0.00000000000E+00 -0.00000000000E+00 -0.48395266193E+03  0.48395266193E+03  0.00000000000E+00 0. -1.
         23    2    1    2    0    0 -0.45672241526E+02  0.16580074571E+02 -0.40716367911E+03  0.42032176033E+03  0.92343208220E+02 0.  0.
         23    2    1    2    0    0  0.61027151280E+02  0.46728344686E+00 -0.20097512741E+02  0.11105554203E+03  0.90580858079E+02 0.  0.
        -11    1    4    4    0    0 -0.10582891702E+02 -0.24796235036E+02  0.10842066691E+02  0.29058583566E+02  0.00000000000E+00 0.  1.
         11    1    4    4    0    0  0.71610042982E+02  0.25263518483E+02 -0.30939579431E+02  0.81996958464E+02  0.00000000000E+00 0. -1.
        -13    1    3    3    0    0  0.27206656332E+02  0.10090015712E+02 -0.80671489847E+02  0.85731556851E+02  0.00000000000E+00 0.  1.
         13    1    3    3    0    0 -0.72878897858E+02  0.64900588594E+01 -0.32649218926E+03  0.33459020348E+03  0.00000000000E+00 0. -1.
          2    1    1    2  501    0 -0.15354909754E+02 -0.17047358018E+02  0.23768190112E+02  0.33035019754E+02  0.00000000000E+00 0. -1.
<scales pt_clust_5="13000.00000" pt_clust_6="13000.00000" pt_clust_7="13000.00000" pt_clust_8="13000.00000" pt_clust_9="22.94310"></scales>
<clustering>
<clus scale="   22.943">  1  9  2 -1</clus>
<clus scale="   90.581">  5  6 -1 -1</clus>
<clus scale="   92.343">  7  8 -1 -1</clus>
<clus scale="  103.344">  1  5  2 -1</clus>
<clus scale="   22.943">  1  5  2 -1</clus>
</clustering>
</event>
<event>
 9    1  0.1671478E-005  0.2245707E+03  0.7546771E-02  0.1130637E+00
         21   -1    0    0  501  502  0.00000000000E+00  0.00000000000E+00  0.37477195627E+03  0.37477195627E+03  0.00000000000E+00 0. -1.
         -3   -1    0    0    0  501 -0.00000000000E+00 -0.00000000000E+00 -0.18771244736E+03  0.18771244736E+03  0.00000000000E+00 0.  1.
         23    2    1    2    0    0 -0.18363814755E+03 -0.10363611626E+03 -0.69875979880E+01  0.22931670841E+03  0.89854952006E+02 0.  0.
         23    2    1    2    0    0  0.15729707805E+03  0.11873113690E+03  0.10941446199E+03  0.24325442492E+03  0.91442534523E+02 0.  0.
        -11    1    3    3    0    0 -0.66035913145E+02 -0.82923396859E+01 -0.35238130041E+02  0.75307572867E+02  0.00000000000E+00 0. -1.
         11    1    3    3    0    0 -0.11760223441E+03 -0.95343776577E+02  0.28250532053E+02  0.15400913554E+03  0.00000000000E+00 0.  1.
        -11    1    4    4    0    0  0.13467939566E+03  0.13047438301E+03  0.78745086678E+02  0.20337869336E+03  0.00000000000E+00 0.  1.
         11    1    4    4    0    0  0.22617682384E+02 -0.11743246108E+02  0.30669375308E+02  0.39875731559E+02  0.00000000000E+00 0. -1.
         -3    1    1    2    0  502  0.26341069506E+02 -0.15095020639E+02  0.84632644907E+02  0.89913270293E+02  0.00000000000E+00 0.  1.
<scales pt_clust_5="13000.00000" pt_clust_6="13000.00000" pt_clust_7="13000.00000" pt_clust_8="13000.00000" pt_clust_9="30.35970"></scales>
<clustering>
<clus scale="   30.360">  1  9  2 -1</clus>
<clus scale="   89.855">  5  6 -1 -1</clus>
<clus scale="   91.443">  7  8 -1 -1</clus>
<clus scale="  223.929">  2  5  1 -1</clus>
<clus scale="   30.360">  1  5  2 -1</clus>
</clustering>
</event>
<event>
 9    1  0.1671478E-005  0.1039273E+03  0.7546771E-02  0.1272852E+00
          2   -1    0    0  502    0 -0.00000000000E+00  0.00000000000E+00  0.60526772316E+03  0.60526772316E+03  0.00000000000E+00 0. -1.
         21   -1    0    0  501  502  0.00000000000E+00 -0.00000000000E+00 -0.71269915850E+02  0.71269915850E+02  0.00000000000E+00 0.  1.
         23    2    1    2    0    0  0.10110318694E+02 -0.45276134505E+02  0.49273850687E+03  0.50336080485E+03  0.91808043227E+02 0.  0.
         23    2    1    2    0    0 -0.48172661818E+02  0.53036991910E+02  0.59993818980E+02  0.13004963791E+03  0.90444027704E+02 0.  0.
        -11    1    4    4    0    0 -0.33579079658E+02 -0.70124687309E+01  0.58996175310E+02  0.68244252576E+02  0.00000000000E+00 0. -1.
         11    1    4    4    0    0 -0.14593582160E+02  0.60049460641E+02  0.99764366992E+00  0.61805385335E+02  0.00000000000E+00 0.  1.
        -11    1    3    3    0    0  0.49922861287E+02 -0.17500674310E+02  0.29826913533E+03  0.30292415350E+03  0.00000000000E+00 0.  1.
         11    1    3    3    0    0 -0.39812542593E+02 -0.27775460195E+02  0.19446937154E+03  0.20043665135E+03  0.00000000000E+00 0. -1.
          2    1    1    2  501    0  0.38062343124E+02 -0.77608574053E+01 -0.18734518541E+02  0.43127196254E+02  0.00000000000E+00 0. -1.
<scales pt_clust_5="13000.00000" pt_clust_6="13000.00000" pt_clust_7="13000.00000" pt_clust_8="13000.00000" pt_clust_9="38.84550"></scales>
<clustering>
<clus scale="   38.846">  2  9  1 -1</clus>
<clus scale="   90.444">  5  6 -1 -1</clus>
<clus scale="   91.808">  7  8 -1 -1</clus>
<clus scale="  102.724">  2  5  1 -1</clus>
<clus scale="   38.846">  2  5  1 -1</clus>
</clustering>
</event>
<event>
 9    1  0.1671478E-005  0.1384853E+03  0.7546771E-02  0.1215784E+00
         21   -1    0    0  501  502  0.00000000000E+00  0.00000000000E+00  0.57971600548E+03  0.57971600548E+03  0.00000000000E+00 0. -1.
          1   -1    0    0  502    0 -0.00000000000E+00 -0.00000000000E+00 -0.16086759161E+03  0.16086759161E+03  0.00000000000E+00 0. -1.
         23    2    1    2    0    0 -0.98021762035E+02 -0.66447386799E+02 -0.87483185434E+02  0.17361589299E+03  0.92008964346E+02 0.  0.
         23    2    1    2    0    0  0.48127987601E+02  0.35919993554E+02  0.81128651644E+02  0.13776046143E+03  0.93752533240E+02 0.  0.
        -11    1    3    3    0    0 -0.73781077658E+02 -0.57624500552E+02 -0.10632887614E+03  0.14166884056E+03  0.00000000000E+00 0. -1.
         11    1    3    3    0    0 -0.24240684377E+02 -0.88228862465E+01  0.18845690706E+02  0.31947052430E+02  0.00000000000E+00 0.  1.
        -13    1    4    4    0    0  0.86293824193E+01  0.51934449225E+02  0.81871236600E+01  0.53279285384E+02  0.00000000000E+00 0.  1.
         13    1    4    4    0    0  0.39498605182E+02 -0.16014455671E+02  0.72941527984E+02  0.84481176047E+02  0.00000000000E+00 0. -1.
          1    1    1    2  501    0  0.49893774434E+02  0.30527393245E+02  0.42520294766E+03  0.42920724267E+03  0.00000000000E+00 0. -1.
<scales pt_clust_5="13000.00000" pt_clust_6="13000.00000" pt_clust_7="13000.00000" pt_clust_8="13000.00000" pt_clust_9="58.49197"></scales>
<clustering>
<clus scale="   58.492">  1  9  2 -1</clus>
<clus scale="   92.009">  5  6 -1 -1</clus>
<clus scale="   93.753">  7  8 -1 -1</clus>
<clus scale="  137.311">  2  5  1 -1</clus>
<clus scale="   58.492">  1  5  2 -1</clus>
</clustering>
</event>
<event>
 9    1  0.1671478E-005  0.2302430E+03  0.7546771E-02  0.1126536E+00
         21   -1    0    0  501  502  0.00000000000E+00  0.00000000000E+00  0.78088238825E+02  0.78088238825E+02  0.00000000000E+00 0.  1.
          2   -1    0    0  502    0 -0.00000000000E+00 -0.00000000000E+00 -0.15943384623E+04  0.15943384623E+04  0.00000000000E+00 0.  1.
         23    2    1    2    0    0  0.20306661657E+03 -0.62623830075E+02 -0.75950799109E+03  0.79391019891E+03  0.91012199963E+02 0.  0.
         23    2    1    2    0    0 -0.15719524649E+03  0.17067757098E+03 -0.23013160476E+03  0.33898101067E+03  0.90035500386E+02 0.  0.
        -11    1    4    4    0    0 -0.15070974847E+03  0.11757924272E+03 -0.20360247903E+03  0.27927097248E+03  0.00000000000E+00 0.  1.
         11    1    4    4    0    0 -0.64854980199E+01  0.53098328258E+02 -0.26529125729E+02  0.59710038187E+02  0.00000000000E+00 0. -1.
        -13    1    3    3    0    0  0.15171669755E+03 -0.70034016375E+01 -0.43710814441E+03  0.46274240551E+03  0.00000000000E+00 0.  1.
         13    1    3    3    0    0  0.51349919020E+02 -0.55620428438E+02 -0.32239984668E+03  0.33116779339E+03  0.00000000000E+00 0. -1.
          2    1    1    2  501    0 -0.45871370088E+02 -0.10805374090E+03 -0.52661062762E+03  0.53953549155E+03  0.00000000000E+00 0.  1.
<scales pt_clust_5="13000.00000" pt_clust_6="13000.00000" pt_clust_7="13000.00000" pt_clust_8="13000.00000" pt_clust_9="117.38742"></scales>
<clustering>
<clus scale="   90.036">  5  6 -1 -1</clus>
<clus scale="   91.012">  7  8 -1 -1</clus>
<clus scale="  117.387">  1  9  2 -1</clus>
<clus scale="  229.859">  1  5  2 -1</clus>
<clus scale="  117.387">  1  5  2 -1</clus>
</clustering>
</event>
<event>
 9    1  0.1671478E-005  0.2333201E+03  0.7546771E-02  0.1124348E+00
          2   -1    0    0  502    0 -0.00000000000E+00  0.00000000000E+00  0.10891272935E+04  0.10891272935E+04  0.00000000000E+00 0. -1.
         21   -1    0    0  501  502  0.00000000000E+00 -0.00000000000E+00 -0.19299538256E+03  0.19299538256E+03  0.00000000000E+00 0.  1.
         23    2    1    2    0    0 -0.13405580049E+03  0.16294346509E+03  0.90828070821E+03  0.93685935702E+03  0.90609488844E+02 0.  0.
         23    2    1    2    0    0  0.19570076468E+03 -0.17183036971E+03 -0.36751748517E+02  0.27829777643E+03  0.90964257252E+02 0.  0.
        -13    1    4    4    0    0  0.12123722318E+03 -0.15479152492E+03 -0.44269194520E+02  0.20154067097E+03  0.00000000000E+00 0.  1.
         13    1    4    4    0    0  0.74463541501E+02 -0.17038844787E+02  0.75174460023E+01  0.76757105462E+02  0.00000000000E+00 0. -1.
        -13    1    3    3    0    0 -0.27067827463E+02 -0.62752591194E+01  0.15255765210E+03  0.15506735109E+03  0.00000000000E+00 0.  1.
         13    1    3    3    0    0 -0.10698797302E+03  0.16921872421E+03  0.75572305611E+03  0.78179200593E+03  0.00000000000E+00 0. -1.
          2    1    1    2  501    0 -0.61644964193E+02  0.88869046129E+01  0.24602951200E+02  0.66965542570E+02  0.00000000000E+00 0. -1.
<scales pt_clust_5="13000.00000" pt_clust_6="13000.00000" pt_clust_7="13000.00000" pt_clust_8="13000.00000" pt_clust_9="62.28225"></scales>
<clustering>
<clus scale="   62.282">  2  9  1 -1</clus>
<clus scale="   90.609">  7  8 -1 -1</clus>
<clus scale="   90.964">  5  6 -1 -1</clus>
<clus scale="  233.182">  1  7  2 -1</clus>
<clus scale="   62.282">  2  5  1 -1</clus>
</clustering>
</event>
<event>
 9    1  0.1671478E-005  0.2696420E+03  0.7546771E-02  0.1103206E+00
          1   -1    0    0  502    0 -0.00000000000E+00  0.00000000000E+00  0.83456158431E+03  0.83456158431E+03  0.00000000000E+00 0. -1.
         21   -1    0    0  501  502  0.00000000000E+00 -0.00000000000E+00 -0.25498001171E+03  0.25498001171E+03  0.00000000000E+00 0.  1.
         23    2    1    2    0    0 -0.23673934377E+03 -0.47758273686E+02  0.72280645232E+03  0.77158361952E+03  0.12068862747E+03 0.  0.
         23    2    1    2    0    0  0.22878820696E+03  0.69063098652E+02 -0.11204562999E+03  0.27936702215E+03  0.91531167518E+02 0.  0.
        -11    1    4    4    0    0  0.91212459095E+02  0.54023425183E+02 -0.81692337252E+01  0.10632487734E+03  0.00000000000E+00 0. -1.
         11    1    4    4    0    0  0.13757574786E+03  0.15039673469E+02 -0.10387639627E+03  0.17304214481E+03  0.00000000000E+00 0.  1.
        -13    1    3    3    0    0 -0.65576215077E+01 -0.33656707442E+02  0.52406194044E+02  0.62627354485E+02  0.00000000000E+00 0.  1.
         13    1    3    3    0    0 -0.23018172226E+03 -0.14101566244E+02  0.67040025828E+03  0.70895626504E+03  0.00000000000E+00 0. -1.
          1    1    1    2  501    0  0.79511368169E+01 -0.21304824966E+02 -0.31179249727E+02  0.38590954342E+02  0.00000000000E+00 0. -1.
<scales pt_clust_5="13000.00000" pt_clust_6="13000.00000" pt_clust_7="13000.00000" pt_clust_8="13000.00000" pt_clust_9="22.74019"></scales>
<clustering>
<clus scale="   22.740">  2  9  1 -1</clus>
<clus scale="   91.531">  5  6 -1 -1</clus>
<clus scale="  120.689">  7  8 -1 -1</clus>
<clus scale="  257.913">  2  5  1 -1</clus>
<clus scale="   22.740">  2  5  1 -1</clus>
</clustering>
</event>
<event>
 9    1  0.1671478E-005  0.1604029E+03  0.7546771E-02  0.1188830E+00
         -1   -1    0    0    0  501 -0.00000000000E+00  0.00000000000E+00  0.55714191457E+03  0.55714191457E+03  0.00000000000E+00 0.  1.
         21   -1    0    0  501  502  0.00000000000E+00 -0.00000000000E+00 -0.55849072321E+02  0.55849072321E+02  0.00000000000E+00 0. -1.
         23    2    1    2    0    0 -0.97860430710E+02  0.65142887978E+02  0.23274736158E+03  0.27765265267E+03  0.95390782899E+02 0.  0.
         23    2    1    2    0    0  0.12153348213E+03 -0.78009866376E+02  0.21018248728E+03  0.27105605443E+03  0.91862833374E+02 0.  0.
        -11    1    3    3    0    0 -0.89306768059E+02  0.13829171843E+02  0.18971336977E+03  0.21013830561E+03  0.00000000000E+00 0.  1.
         11    1    3    3    0    0 -0.85536626509E+01  0.51313716135E+02  0.43033991804E+02  0.67514347060E+02  0.00000000000E+00 0. -1.
        -13    1    4    4    0    0  0.80977765077E+02 -0.56348768020E+01  0.65622910058E+02  0.10438159128E+03  0.00000000000E+00 0. -1.
         13    1    4    4    0    0  0.40555717054E+02 -0.72374989574E+02  0.14455957722E+03  0.16667446316E+03  0.00000000000E+00 0.  1.
         -1    1    1    2    0  502 -0.23673051420E+02  0.12866978398E+02  0.58362993385E+02  0.64282279779E+02  0.00000000000E+00 0.  1.
<scales pt_clust_5="13000.00000" pt_clust_6="13000.00000" pt_clust_7="13000.00000" pt_clust_8="13000.00000" pt_clust_9="26.94389"></scales>
<clustering>
<clus scale="   26.944">  2  9  1 -1</clus>
<clus scale="   91.863">  7  8 -1 -1</clus>
<clus scale="   95.391">  5  6 -1 -1</clus>
<clus scale="  158.330">  2  7  1 -1</clus>
<clus scale="   26.944">  2  5  1 -1</clus>
</clustering>
</event>
<event>
 9    1  0.4521375E-005  0.1717940E+03  0.7546771E-02  0.1201633E+00
          2   -1    0    0  502    0 -0.00000000000E+00  0.00000000000E+00  0.54263218605E+03  0.54263218605E+03  0.00000000000E+00 0. -1.
         21   -1    0    0  501  502  0.00000000000E+00 -0.00000000000E+00 -0.37511960224E+03  0.37511960224E+03  0.00000000000E+00 0. -1.
         23    2    1    2    0    0  0.44331705951E+02  0.54026200423E+01 -0.10580916139E+03  0.14379260311E+03  0.86523092984E+02 0.  0.
         23    2    1    2    0    0 -0.26559661248E+02 -0.15189058613E+03  0.48469267660E+03  0.51617586449E+03  0.87945247627E+02 0.  0.
        -11    1    3    3    0    0 -0.44982214724E+01  0.27967739774E+02 -0.78522614694E+02  0.83475921576E+02  0.00000000000E+00 0.  1.
         11    1    3    3    0    0  0.48829927424E+02 -0.22565119732E+02 -0.27286546692E+02  0.60316681533E+02  0.00000000000E+00 0. -1.
        -13    1    4    4    0    0 -0.18715373825E+02 -0.86814356233E+01  0.16230005815E+02  0.26249678677E+02  0.00000000000E+00 0.  1.
         13    1    4    4    0    0 -0.78442874228E+01 -0.14320915050E+03  0.46846267078E+03  0.48992618582E+03  0.00000000000E+00 0. -1.
          2    1    1    2  501    0 -0.17772044703E+02  0.14648796608E+03 -0.21137093140E+03  0.25778332068E+03  0.00000000000E+00 0. -1.
<scales pt_clust_5="13000.00000" pt_clust_6="13000.00000" pt_clust_7="13000.00000" pt_clust_8="13000.00000" pt_clust_9="147.57643"></scales>
<clustering>
<clus scale="   86.523">  5  6 -1 -1</clus>
<clus scale="   87.945">  7  8 -1 -1</clus>
<clus scale="   97.369">  1  5  2 -1</clus>
<clus scale="  147.576">  2  9  1 -1</clus>
<clus scale="  147.576">  2  5  1 -1</clus>
</clustering>
</event>
<event>
 9    1  0.1671478E-005  0.9800364E+02  0.7546771E-02  0.1285140E+00
         21   -1    0    0  501  502  0.00000000000E+00  0.00000000000E+00  0.18098526225E+03  0.18098526225E+03  0.00000000000E+00 0. -1.
         -1   -1    0    0    0  501 -0.00000000000E+00 -0.00000000000E+00 -0.72241946932E+02  0.72241946932E+02  0.00000000000E+00 0.  1.
         23    2    1    2    0    0  0.37328104009E+02  0.16147739299E+02  0.20298093748E+02  0.10327673918E+03  0.92735836726E+02 0.  0.
         23    2    1    2    0    0 -0.11020496491E+02 -0.16378925763E+02  0.76939436208E+02  0.12123589604E+03  0.91590092771E+02 0.  0.
        -11    1    4    4    0    0  0.37824212290E+02  0.61467349577E+00  0.50659761939E+02  0.63225472229E+02  0.00000000000E+00 0.  1.
         11    1    4    4    0    0 -0.48844708781E+02 -0.16993599258E+02  0.26279674269E+02  0.58010423816E+02  0.00000000000E+00 0. -1.
        -13    1    3    3    0    0 -0.15319191532E+02 -0.27232778113E+02  0.15531361995E+02  0.34893051434E+02  0.00000000000E+00 0.  1.
         13    1    3    3    0    0  0.52647295541E+02  0.43380517412E+02  0.47667317540E+01  0.68383687751E+02  0.00000000000E+00 0. -1.
         -1    1    1    2    0  502 -0.26307607519E+02  0.23118646329E+00  0.11505785362E+02  0.28714573954E+02  0.00000000000E+00 0.  1.
<scales pt_clust_5="13000.00000" pt_clust_6="13000.00000" pt_clust_7="13000.00000" pt_clust_8="13000.00000" pt_clust_9="26.30864"></scales>
<clustering>
<clus scale="   26.309">  1  9  2 -1</clus>
<clus scale="   91.590">  5  6 -1 -1</clus>
<clus scale="   92.736">  7  8 -1 -1</clus>
<clus scale="   96.920">  1  5  2 -1</clus>
<clus scale="   26.309">  1  5  2 -1</clus>
</clustering>
</event>
<event>
 9    1  0.1671478E-005  0.9672169E+02  0.7546771E-02  0.1295061E+00
         -1   -1    0    0    0  501 -0.00000000000E+00  0.00000000000E+00  0.25001941423E+03  0.25001941423E+03  0.00000000000E+00 0.  1.
         21   -1    0    0  501  502  0.00000000000E+00 -0.00000000000E+00 -0.52960378752E+02  0.52960378752E+02  0.00000000000E+00 0. -1.
         23    2    1    2    0    0  0.11626350428E+02  0.98847176421E+01  0.95616596144E+02  0.12554468089E+03  0.79912788553E+02 0.  0.
         23    2    1    2    0    0 -0.15307655257E+02 -0.36205497366E+02  0.10993208205E+03  0.14953512135E+03  0.93437291823E+02 0.  0.
        -11    1    3    3    0    0  0.39987302595E+02  0.22676328588E+02  0.36337352070E+02  0.58596957280E+02  0.00000000000E+00 0.  1.
         11    1    3    3    0    0 -0.28360952167E+02 -0.12791610946E+02  0.59279244075E+02  0.66947723609E+02  0.00000000000E+00 0. -1.
        -13    1    4    4    0    0 -0.36099208345E+01 -0.57705800983E+02  0.28416905464E+02  0.64424463611E+02  0.00000000000E+00 0. -1.
         13    1    4    4    0    0 -0.11697734422E+02  0.21500303617E+02  0.81515176586E+02  0.85110657735E+02  0.00000000000E+00 0.  1.
         -1    1    1    2    0  502  0.36813048286E+01  0.26320779723E+02 -0.84896427116E+01  0.27899990750E+02  0.00000000000E+00 0.  1.
<scales pt_clust_5="13000.00000" pt_clust_6="13000.00000" pt_clust_7="13000.00000" pt_clust_8="13000.00000" pt_clust_9="26.57697"></scales>
<clustering>
<clus scale="   26.577">  2  9  1 -1</clus>
<clus scale="   79.913">  5  6 -1 -1</clus>
<clus scale="   83.729">  1  5  2 -1</clus>
<clus scale="   93.437">  7  8 -1 -1</clus>
<clus scale="   26.577">  2  5  1 -1</clus>
</clustering>
</event>
<event>
 9    1  0.1671478E-005  0.1813111E+03  0.7546771E-02  0.1167673E+00
          4   -1    0    0  502    0 -0.00000000000E+00  0.00000000000E+00  0.12099608124E+03  0.12099608124E+03  0.00000000000E+00 0. -1.
         21   -1    0    0  501  502  0.00000000000E+00 -0.00000000000E+00 -0.33675700189E+03  0.33675700189E+03  0.00000000000E+00 0.  1.
         23    2    1    2    0    0 -0.13823550342E+03  0.90688004259E+02 -0.58859046521E+02  0.20193833226E+03  0.99906627198E+02 0.  0.
         23    2    1    2    0    0  0.11197130966E+03 -0.76534705972E+02 -0.10007147243E+03  0.19162894026E+03  0.91171353745E+02 0.  0.
        -11    1    3    3    0    0 -0.69056605403E+02 -0.62389198617E+01 -0.43540496941E+02  0.81874988517E+02  0.00000000000E+00 0. -1.
         11    1    3    3    0    0 -0.69178898014E+02  0.96926924120E+02 -0.15318549579E+02  0.12006334374E+03  0.00000000000E+00 0.  1.
        -13    1    4    4    0    0  0.67733043879E+02 -0.15777003985E+01 -0.74960437959E+02  0.10104118779E+03  0.00000000000E+00 0.  1.
         13    1    4    4    0    0  0.44238265785E+02 -0.74957005573E+02 -0.25111034469E+02  0.90587752463E+02  0.00000000000E+00 0. -1.
          4    1    1    2  501    0  0.26264193752E+02 -0.14153298287E+02 -0.56830401699E+02  0.64185810605E+02  0.00000000000E+00 0. -1.
<scales pt_clust_5="13000.00000" pt_clust_6="13000.00000" pt_clust_7="13000.00000" pt_clust_8="13000.00000" pt_clust_9="29.83494"></scales>
<clustering>
<clus scale="   29.835">  2  9  1 -1</clus>
<clus scale="   91.171">  7  8 -1 -1</clus>
<clus scale="   99.907">  5  6 -1 -1</clus>
<clus scale="  176.648">  2  7  1 -1</clus>
<clus scale="   29.835">  2  5  1 -1</clus>
</clustering>
</event>
<event>
 9    1  0.1671478E-005  0.2921476E+03  0.7546771E-02  0.1109070E+00
          2   -1    0    0  502    0 -0.00000000000E+00  0.00000000000E+00  0.84653995589E+03  0.84653995589E+03  0.00000000000E+00 0. -1.
         21   -1    0    0  501  502  0.00000000000E+00 -0.00000000000E+00 -0.20099807972E+03  0.20099807972E+03  0.00000000000E+00 0. -1.
         23    2    1    2    0    0  0.72959709978E+01  0.14881437354E+03  0.34293308809E+03  0.38475852603E+03  0.90758313569E+02 0.  0.
         23    2    1    2    0    0  0.21677890024E+03  0.94834405324E+02  0.17777345559E+03  0.30900255216E+03  0.88839854256E+02 0.  0.
        -11    1    3    3    0    0  0.46037746822E+02  0.11140272497E+03  0.23225242598E+03  0.26167007975E+03  0.00000000000E+00 0. -1.
         11    1    3    3    0    0 -0.38741775824E+02  0.37411648573E+02  0.11068066210E+03  0.12308844628E+03  0.00000000000E+00 0.  1.
        -11    1    4    4    0    0  0.81224987269E+02  0.49136299561E+02  0.12403101752E+03  0.15619080574E+03  0.00000000000E+00 0. -1.
         11    1    4    4    0    0  0.13555391297E+03  0.45698105763E+02  0.53742438068E+02  0.15281174642E+03  0.00000000000E+00 0.  1.
          2    1    1    2  501    0 -0.22407487124E+03 -0.24364877887E+03  0.12483533249E+03  0.35377695742E+03  0.00000000000E+00 0. -1.
<scales pt_clust_5="13000.00000" pt_clust_6="13000.00000" pt_clust_7="13000.00000" pt_clust_8="13000.00000" pt_clust_9="278.31238"></scales>
<clustering>
<clus scale="   88.840">  7  8 -1 -1</clus>
<clus scale="   90.758">  5  6 -1 -1</clus>
<clus scale="  174.459">  1  5  2 -1</clus>
<clus scale="  278.312">  2  9  1 -1</clus>
<clus scale="  278.312">  2  5  1 -1</clus>
</clustering>
</event>
<event>
 9    1  0.2623378E-005  0.9329081E+02  0.7546771E-02  0.1296163E+00
          1   -1    0    0  502    0 -0.00000000000E+00  0.00000000000E+00  0.11107396657E+03  0.11107396657E+03  0.00000000000E+00 0. -1.
         21   -1    0    0  501  502  0.00000000000E+00 -0.00000000000E+00 -0.27674760305E+03  0.27674760305E+03  0.00000000000E+00 0.  1.
         23    2    1    2    0    0  0.94110498509E+01  0.14068456066E+02  0.62109892933E+02  0.11131975192E+03  0.90818274875E+02 0.  0.
         23    2    1    2    0    0 -0.28195749533E+02 -0.52106892481E+02 -0.19694380561E+03  0.22405302219E+03  0.88897500790E+02 0.  0.
        -11    1    3    3    0    0 -0.36616824488E+02  0.91016279408E+01  0.51468796472E+02  0.63817462164E+02  0.00000000000E+00 0.  1.
         11    1    3    3    0    0  0.46027874339E+02  0.49668281254E+01  0.10641096460E+02  0.47502289752E+02  0.00000000000E+00 0. -1.
        -13    1    4    4    0    0 -0.49152624688E+02 -0.47435171015E+02 -0.18932344002E+03  0.20126957273E+03  0.00000000000E+00 0.  1.
         13    1    4    4    0    0  0.20956875155E+02 -0.46717214658E+01 -0.76203655910E+01  0.22783449464E+02  0.00000000000E+00 0. -1.
          1    1    1    2  501    0  0.18784699682E+02  0.38038436415E+02 -0.30839723795E+02  0.52448795513E+02  0.00000000000E+00 0. -1.
<scales pt_clust_5="13000.00000" pt_clust_6="13000.00000" pt_clust_7="13000.00000" pt_clust_8="13000.00000" pt_clust_9="42.42390"></scales>
<clustering>
<clus scale="   42.424">  2  9  1 -1</clus>
<clus scale="   88.898">  7  8 -1 -1</clus>
<clus scale="   90.818">  5  6 -1 -1</clus>
<clus scale="   91.422">  2  7  1 -1</clus>
<clus scale="   42.424">  2  5  1 -1</clus>
</clustering>
</event>
<event>
 9    1  0.1671478E-005  0.1763828E+03  0.7546771E-02  0.1187730E+00
          1   -1    0    0  502    0 -0.00000000000E+00  0.00000000000E+00  0.24446724076E+03  0.24446724076E+03  0.00000000000E+00 0. -1.
         21   -1    0    0  501  502  0.00000000000E+00 -0.00000000000E+00 -0.24227890422E+03  0.24227890422E+03  0.00000000000E+00 0. -1.
         23    2    1    2    0    0  0.79068159138E+02 -0.22762499211E+02 -0.28580897092E+02  0.12531788114E+03  0.90098826271E+02 0.  0.
         23    2    1    2    0    0 -0.18325468220E+03  0.99264473365E+02  0.45815733790E+02  0.23129840252E+03  0.89242116316E+02 0.  0.
        -11    1    4    4    0    0 -0.15899217807E+03  0.71078824973E+02  0.69162187699E+02  0.18738762034E+03  0.00000000000E+00 0. -1.
         11    1    4    4    0    0 -0.24262504128E+02  0.28185648392E+02 -0.23346453910E+02  0.43910782184E+02  0.00000000000E+00 0.  1.
        -13    1    3    3    0    0  0.45918678824E+02 -0.46098715267E+02  0.13967525371E+02  0.66548541525E+02  0.00000000000E+00 0. -1.
         13    1    3    3    0    0  0.33149480314E+02  0.23336216055E+02 -0.42548422462E+02  0.58769339616E+02  0.00000000000E+00 0.  1.
          1    1    1    2  501    0  0.10418652306E+03 -0.76501974153E+02 -0.15046500159E+02  0.13012986131E+03  0.00000000000E+00 0. -1.
<scales pt_clust_5="13000.00000" pt_clust_6="13000.00000" pt_clust_7="13000.00000" pt_clust_8="13000.00000" pt_clust_9="152.14050"></scales>
<clustering>
<clus scale="   89.242">  5  6 -1 -1</clus>
<clus scale="   90.099">  7  8 -1 -1</clus>
<clus scale="  122.015">  1  7  2 -1</clus>
<clus scale="  152.141">  2  9  1 -1</clus>
<clus scale="  152.141">  2  5  1 -1</clus>
</clustering>
</event>
<event>
 9    1  0.1671478E-005  0.2538595E+03  0.7546771E-02  0.1111523E+00
         21   -1    0    0  501  502  0.00000000000E+00  0.00000000000E+00  0.22003470029E+03  0.22003470029E+03  0.00000000000E+00 0. -1.
          2   -1    0    0  502    0 -0.00000000000E+00 -0.00000000000E+00 -0.12786664205E+04  0.12786664205E+04  0.00000000000E+00 0. -1.
         23    2    1    2    0    0 -0.23161498069E+03 -0.21215186112E+02 -0.84498126042E+03  0.88097351749E+03  0.89584734533E+02 0.  0.
         23    2    1    2    0    0  0.23514338046E+03  0.64348486898E+00 -0.37564778009E+03  0.45439121336E+03  0.10033591904E+03 0.  0.
        -13    1    3    3    0    0 -0.65561846063E+02  0.14324242195E+02 -0.38161586952E+03  0.38747156211E+03  0.00000000000E+00 0.  1.
         13    1    3    3    0    0 -0.16605313463E+03 -0.35539428307E+02 -0.46336539090E+03  0.49350195538E+03  0.00000000000E+00 0. -1.
        -13    1    4    4    0    0  0.67721876835E+02  0.35967157214E+02 -0.68608525896E+02  0.10289323994E+03  0.00000000000E+00 0.  1.
         13    1    4    4    0    0  0.16742150363E+03 -0.35323672345E+02 -0.30703925419E+03  0.35149797342E+03  0.00000000000E+00 0. -1.
          2    1    1    2  501    0 -0.35283997718E+01  0.20571701243E+02  0.16199732029E+03  0.16333638994E+03  0.00000000000E+00 0. -1.
<scales pt_clust_5="13000.00000" pt_clust_6="13000.00000" pt_clust_7="13000.00000" pt_clust_8="13000.00000" pt_clust_9="20.87210"></scales>
<clustering>
<clus scale="   20.872">  1  9  2 -1</clus>
<clus scale="   89.585">  5  6 -1 -1</clus>
<clus scale="  100.336">  7  8 -1 -1</clus>
<clus scale="  249.806">  2  5  1 -1</clus>
<clus scale="   20.872">  1  5  2 -1</clus>
</clustering>
</event>
<event>
 9    1  0.1671478E-005  0.1218227E+03  0.7546771E-02  0.1241642E+00
         21   -1    0    0  501  502  0.00000000000E+00  0.00000000000E+00  0.12001956811E+03  0.12001956811E+03  0.00000000000E+00 0. -1.
         -2   -1    0    0    0  501 -0.00000000000E+00 -0.00000000000E+00 -0.31490245794E+03  0.31490245794E+03  0.00000000000E+00 0.  1.
         23    2    1    2    0    0  0.73323013155E+02  0.29870129948E+02 -0.24173036744E+03  0.26877835695E+03  0.86831709085E+02 0.  0.
         23    2    1    2    0    0 -0.87897360562E+02 -0.13435541286E+02  0.59300377560E+02  0.14089328249E+03  0.91803717300E+02 0.  0.
        -11    1    4    4    0    0 -0.28715580354E+02  0.24434842488E+02 -0.13185290939E+02  0.39943685103E+02  0.00000000000E+00 0.  1.
         11    1    4    4    0    0 -0.59181780208E+02 -0.37870383774E+02  0.72485668499E+02  0.10094959739E+03  0.00000000000E+00 0. -1.
        -11    1    3    3    0    0  0.31903739006E+02  0.30664671593E+02 -0.31036243085E+02  0.54050152925E+02  0.00000000000E+00 0. -1.
         11    1    3    3    0    0  0.41419274149E+02 -0.79454164477E+00 -0.21069412435E+03  0.21472820402E+03  0.00000000000E+00 0.  1.
         -2    1    1    2    0  502  0.14574347408E+02 -0.16434588662E+02 -0.12452899955E+02  0.25250386614E+02  0.00000000000E+00 0.  1.
<scales pt_clust_5="13000.00000" pt_clust_6="13000.00000" pt_clust_7="13000.00000" pt_clust_8="13000.00000" pt_clust_9="21.96606"></scales>
<clustering>
<clus scale="   21.966">  1  9  2 -1</clus>
<clus scale="   86.832">  7  8 -1 -1</clus>
<clus scale="   91.804">  5  6 -1 -1</clus>
<clus scale="  118.121">  2  7  1 -1</clus>
<clus scale="   21.966">  1  5  2 -1</clus>
</clustering>
</event>
<event>
 9    1  0.1671478E-005  0.9498894E+02  0.7546771E-02  0.1294139E+00
         21   -1    0    0  501  502  0.00000000000E+00  0.00000000000E+00  0.20764487116E+02  0.20764487116E+02  0.00000000000E+00 0.  1.
          2   -1    0    0  502    0 -0.00000000000E+00 -0.00000000000E+00 -0.54777383182E+03  0.54777383182E+03  0.00000000000E+00 0. -1.
         23    2    1    2    0    0 -0.37876379950E+02  0.42905110422E+01 -0.29720193992E+03  0.31315735040E+03  0.91024745942E+02 0.  0.
         23    2    1    2    0    0  0.13417742033E+02 -0.32909578021E+01 -0.18316959541E+03  0.20270925565E+03  0.85726748670E+02 0.  0.
        -11    1    4    4    0    0  0.35693606454E+02  0.29062625912E+02 -0.79733970439E+02  0.92066149092E+02  0.00000000000E+00 0.  1.
         11    1    4    4    0    0 -0.22275864422E+02 -0.32353583714E+02 -0.10343562498E+03  0.11064310656E+03  0.00000000000E+00 0. -1.
        -13    1    3    3    0    0 -0.62928307809E+02 -0.15844413083E-01 -0.26369436385E+03  0.27109904039E+03  0.00000000000E+00 0. -1.
         13    1    3    3    0    0  0.25051927859E+02  0.43063554552E+01 -0.33507576077E+02  0.42058310015E+02  0.00000000000E+00 0.  1.
          2    1    1    2  501    0  0.24458637918E+02 -0.99955324008E+00 -0.46637809363E+02  0.52671712880E+02  0.00000000000E+00 0. -1.
<scales pt_clust_5="13000.00000" pt_clust_6="13000.00000" pt_clust_7="13000.00000" pt_clust_8="13000.00000" pt_clust_9="24.47905"></scales>
<clustering>
<clus scale="   24.479">  1  9  2 -1</clus>
<clus scale="   85.727">  5  6 -1 -1</clus>
<clus scale="   89.925">  1  5  2 -1</clus>
<clus scale="   91.025">  7  8 -1 -1</clus>
<clus scale="   24.479">  1  5  2 -1</clus>
</clustering>
</event>
<event>
 9    1  0.1671478E-005  0.1105333E+03  0.7546771E-02  0.1259704E+00
         21   -1    0    0  501  502  0.00000000000E+00  0.00000000000E+00  0.10481549502E+03  0.10481549502E+03  0.00000000000E+00 0. -1.
          1   -1    0    0  502    0 -0.00000000000E+00 -0.00000000000E+00 -0.39482036648E+03  0.39482036648E+03  0.00000000000E+00 0. -1.
         23    2    1    2    0    0 -0.20459609457E+02 -0.83626166624E+02 -0.26189014296E+03  0.29016303561E+03  0.90532916078E+02 0.  0.
         23    2    1    2    0    0 -0.45481400282E+02  0.14097589757E+02 -0.45285095986E+02  0.11212159947E+03  0.90847197754E+02 0.  0.
        -13    1    3    3    0    0  0.98843578205E+01 -0.65505592316E+02 -0.75465343433E+02  0.10041763398E+03  0.00000000000E+00 0.  1.
         13    1    3    3    0    0 -0.30343967278E+02 -0.18120574308E+02 -0.18642479952E+03  0.18974540163E+03  0.00000000000E+00 0. -1.
        -13    1    4    4    0    0  0.25295751356E+02 -0.90186988687E+01 -0.20015870282E+02  0.33493984969E+02  0.00000000000E+00 0. -1.
         13    1    4    4    0    0 -0.70777151638E+02  0.23116288626E+02 -0.25269225704E+02  0.78627614497E+02  0.00000000000E+00 0.  1.
          1    1    1    2  501    0  0.65941009739E+02  0.69528576867E+02  0.17170367475E+02  0.97351226422E+02  0.00000000000E+00 0. -1.
<scales pt_clust_5="13000.00000" pt_clust_6="13000.00000" pt_clust_7="13000.00000" pt_clust_8="13000.00000" pt_clust_9="95.82505"></scales>
<clustering>
<clus scale="   90.533">  5  6 -1 -1</clus>
<clus scale="   90.847">  7  8 -1 -1</clus>
<clus scale="   95.825">  1  9  2 -1</clus>
<clus scale="  110.275">  2  5  1 -1</clus>
<clus scale="   95.825">  1  5  2 -1</clus>
</clustering>
</event>
<event>
 9    1  0.1671478E-005  0.1278393E+03  0.7546771E-02  0.1231496E+00
          1   -1    0    0  502    0 -0.00000000000E+00  0.00000000000E+00  0.82319674130E+03  0.82319674130E+03  0.00000000000E+00 0. -1.
         21   -1    0    0  501  502  0.00000000000E+00 -0.00000000000E+00 -0.46420900420E+02  0.46420900420E+02  0.00000000000E+00 0. -1.
         23    2    1    2    0    0 -0.32664811128E+02  0.59462473844E+02  0.27762062624E+03  0.29954548841E+03  0.89730216942E+02 0.  0.
         23    2    1    2    0    0 -0.34783715038E+02 -0.13056925591E+03  0.39199885764E+03  0.42485520188E+03  0.92631532144E+02 0.  0.
        -11    1    4    4    0    0  0.23868700804E+02 -0.44706725747E+02  0.20203111110E+03  0.20829060482E+03  0.00000000000E+00 0. -1.
         11    1    4    4    0    0 -0.58652415843E+02 -0.85862530167E+02  0.18996774654E+03  0.21656459705E+03  0.00000000000E+00 0.  1.
        -13    1    3    3    0    0 -0.62737994789E+02  0.35261104838E+02  0.20560273959E+03  0.21783454279E+03  0.00000000000E+00 0. -1.
         13    1    3    3    0    0  0.30073183661E+02  0.24201369006E+02  0.72017886641E+02  0.81710945616E+02  0.00000000000E+00 0.  1.
          1    1    1    2  501    0  0.67448526166E+02  0.71106782070E+02  0.10715635700E+03  0.14521695144E+03  0.00000000000E+00 0. -1.
<scales pt_clust_5="13000.00000" pt_clust_6="13000.00000" pt_clust_7="13000.00000" pt_clust_8="13000.00000" pt_clust_9="98.00754"></scales>
<clustering>
<clus scale="   89.730">  7  8 -1 -1</clus>
<clus scale="   92.632">  5  6 -1 -1</clus>
<clus scale="   98.008">  2  9  1 -1</clus>
<clus scale="  125.753">  1  7  2 -1</clus>
<clus scale="   98.008">  2  5  1 -1</clus>
</clustering>
</event>
<event>
 9    1  0.1671478E-005  0.2009942E+03  0.7546771E-02  0.1149287E+00
         21   -1    0    0  501  502  0.00000000000E+00  0.00000000000E+00  0.14547417916E+03  0.14547417916E+03  0.00000000000E+00 0. -1.
          1   -1    0    0  502    0 -0.00000000000E+00 -0.00000000000E+00 -0.33924357059E+03  0.33924357059E+03  0.00000000000E+00 0. -1.
         23    2    1    2    0    0 -0.93606500400E+02  0.14901786401E+03 -0.13183668939E+03  0.23840828888E+03  0.92136305703E+02 0.  0.
         23    2    1    2    0    0  0.78702634679E+02 -0.16493506460E+03 -0.79915149499E+02  0.21804551025E+03  0.88089347718E+02 0.  0.
        -13    1    3    3    0    0 -0.16852231969E+01  0.49444406299E+02 -0.78469334069E+02  0.92763277651E+02  0.00000000000E+00 0.  1.
         13    1    3    3    0    0 -0.91921277203E+02  0.99573457708E+02 -0.53367355319E+02  0.14564501123E+03  0.00000000000E+00 0. -1.
        -13    1    4    4    0    0  0.20397317547E+02 -0.39586737996E+02  0.18630014836E+02  0.48272537131E+02  0.00000000000E+00 0.  1.
         13    1    4    4    0    0  0.58305317132E+02 -0.12534832660E+03 -0.98545164335E+02  0.16977297312E+03  0.00000000000E+00 0. -1.
          1    1    1    2  501    0  0.14903865721E+02  0.15917200594E+02  0.17982447450E+02  0.28263950617E+02  0.00000000000E+00 0. -1.
<scales pt_clust_5="13000.00000" pt_clust_6="13000.00000" pt_clust_7="13000.00000" pt_clust_8="13000.00000" pt_clust_9="21.80556"></scales>
<clustering>
<clus scale="   21.806">  1  9  2 -1</clus>
<clus scale="   88.089">  7  8 -1 -1</clus>
<clus scale="   92.136">  5  6 -1 -1</clus>
<clus scale="  199.172">  1  7  2 -1</clus>
<clus scale="   21.806">  1  5  2 -1</clus>
</clustering>
</event>
<event>
 9    1  0.1671478E-005  0.1710830E+03  0.7546771E-02  0.1177785E+00
         21   -1    0    0  501  502  0.00000000000E+00  0.00000000000E+00  0.11864704669E+03  0.11864704669E+03  0.00000000000E+00 0.  1.
          2   -1    0    0  502    0 -0.00000000000E+00 -0.00000000000E+00 -0.31772543139E+03  0.31772543139E+03  0.00000000000E+00 0. -1.
         23    2    1    2    0    0  0.12909593337E+03  0.73060171653E+02 -0.14547551892E+03  0.22409874440E+03  0.83985546010E+02 0.  0.
         23    2    1    2    0    0 -0.13423718009E+03 -0.41449745203E+02 -0.62430207809E+02  0.17905365774E+03  0.91787687664E+02 0.  0.
        -11    1    4    4    0    0 -0.82259951080E+02 -0.16971411463E+02 -0.82948069617E+02  0.11804706948E+03  0.00000000000E+00 0. -1.
         11    1    4    4    0    0 -0.51977229009E+02 -0.24478333740E+02  0.20517861808E+02  0.61006588261E+02  0.00000000000E+00 0.  1.
        -13    1    3    3    0    0  0.89184949072E+02  0.90362009776E+02 -0.10837457837E+03  0.16692602310E+03  0.00000000000E+00 0.  1.
         13    1    3    3    0    0  0.39910984302E+02 -0.17301838122E+02 -0.37100940559E+02  0.57172721299E+02  0.00000000000E+00 0. -1.
          2    1    1    2  501    0  0.51412467141E+01 -0.31610426450E+02  0.88273420356E+01  0.33220075941E+02  0.00000000000E+00 0. -1.
<scales pt_clust_5="13000.00000" pt_clust_6="13000.00000" pt_clust_7="13000.00000" pt_clust_8="13000.00000" pt_clust_9="32.02579"></scales>
<clustering>
<clus scale="   32.026">  1  9  2 -1</clus>
<clus scale="   83.986">  7  8 -1 -1</clus>
<clus scale="   91.788">  5  6 -1 -1</clus>
<clus scale="  167.027">  2  7  1 -1</clus>
<clus scale="   32.026">  1  5  2 -1</clus>
</clustering>
</event>
<event>
 9    1  0.1671478E-005  0.9711637E+02  0.7546771E-02  0.1287922E+00
         -3   -1    0    0    0  501 -0.00000000000E+00  0.00000000000E+00  0.22608005310E+03  0.22608005310E+03  0.00000000000E+00 0.  1.
         21   -1    0    0  501  502  0.00000000000E+00 -0.00000000000E+00 -0.21326871254E+03  0.21326871254E+03  0.00000000000E+00 0.  1.
         23    2    1    2    0    0 -0.28026115779E+02  0.69145359878E+01  0.14116838886E+03  0.17199668935E+03  0.93920568357E+02 0.  0.
         23    2    1    2    0    0 -0.37773225603E+02 -0.72340347950E+02 -0.18896131976E+02  0.12385370558E+03  0.91229019876E+02 0.  0.
        -13    1    4    4    0    0  0.28141736734E+02 -0.12138462220E+02 -0.15916309998E+02  0.34534454324E+02  0.00000000000E+00 0. -1.
         13    1    4    4    0    0 -0.65914962337E+02 -0.60201885730E+02 -0.29798219783E+01  0.89319251253E+02  0.00000000000E+00 0.  1.
        -13    1    3    3    0    0 -0.18500847882E+02 -0.42496938574E+02  0.83153103553E+02  0.95198265694E+02  0.00000000000E+00 0.  1.
         13    1    3    3    0    0 -0.95252678971E+01  0.49411474562E+02  0.58015285305E+02  0.76798423656E+02  0.00000000000E+00 0. -1.
         -3    1    1    2    0  502  0.65799341382E+02  0.65425811962E+02 -0.10946091632E+03  0.14349837072E+03  0.00000000000E+00 0.  1.
<scales pt_clust_5="13000.00000" pt_clust_6="13000.00000" pt_clust_7="13000.00000" pt_clust_8="13000.00000" pt_clust_9="92.79057"></scales>
<clustering>
<clus scale="   91.229">  5  6 -1 -1</clus>
<clus scale="   92.791">  2  9  1 -1</clus>
<clus scale="   93.921">  7  8 -1 -1</clus>
<clus scale="   94.516">  2  5  1 -1</clus>
<clus scale="   92.791">  2  5  1 -1</clus>
</clustering>
</event>
<event>
 9    1  0.1671478E-005  0.1234452E+03  0.7546771E-02  0.1239346E+00
         21   -1    0    0  501  502  0.00000000000E+00  0.00000000000E+00  0.13773729624E+03  0.13773729624E+03  0.00000000000E+00 0. -1.
          1   -1    0    0  502    0 -0.00000000000E+00 -0.00000000000E+00 -0.19986366682E+03  0.19986366682E+03  0.00000000000E+00 0. -1.
         23    2    1    2    0    0 -0.69250481069E+02  0.64184758695E+02 -0.90268415118E+02  0.15928127854E+03  0.91141793651E+02 0.  0.
         23    2    1    2    0    0  0.44632564050E+02 -0.54002580288E+02 -0.30210921758E+02  0.11417307688E+03  0.84937902254E+02 0.  0.
        -11    1    3    3    0    0 -0.41782440278E+02  0.17830212342E+02 -0.94888101707E+02  0.10520190413E+03  0.00000000000E+00 0. -1.
         11    1    3    3    0    0 -0.27468040791E+02  0.46354546353E+02  0.46196865894E+01  0.54079374411E+02  0.00000000000E+00 0.  1.
        -13    1    4    4    0    0  0.63695251795E+02 -0.40431112037E+02  0.64641434693E+00  0.75446522605E+02  0.00000000000E+00 0.  1.
         13    1    4    4    0    0 -0.19062687744E+02 -0.13571468251E+02 -0.30857336105E+02  0.38726554275E+02  0.00000000000E+00 0. -1.
          1    1    1    2  501    0  0.24617917019E+02 -0.10182178407E+02  0.58352966293E+02  0.64146607631E+02  0.00000000000E+00 0. -1.
<scales pt_clust_5="13000.00000" pt_clust_6="13000.00000" pt_clust_7="13000.00000" pt_clust_8="13000.00000" pt_clust_9="26.64054"></scales>
<clustering>
<clus scale="   26.641">  1  9  2 -1</clus>
<clus scale="   84.938">  7  8 -1 -1</clus>
<clus scale="   91.142">  5  6 -1 -1</clus>
<clus scale="  118.938">  1  7  2 -1</clus>
<clus scale="   26.641">  1  5  2 -1</clus>
</clustering>
</event>
<event>
 9    1  0.1671478E-005  0.1075943E+03  0.7546771E-02  0.1272672E+00
         21   -1    0    0  501  502  0.00000000000E+00  0.00000000000E+00  0.34186726480E+03  0.34186726480E+03  0.00000000000E+00 0.  1.
          1   -1    0    0  502    0 -0.00000000000E+00 -0.00000000000E+00 -0.41883135425E+02  0.41883135425E+02  0.00000000000E+00 0. -1.
         23    2    1    2    0    0 -0.11900432583E+02 -0.41076803021E+02  0.11348860191E+03  0.15964731987E+03  0.10382042158E+03 0.  0.
         23    2    1    2    0    0  0.63728498129E+01  0.13984630756E+02  0.10571603674E+03  0.13872236771E+03  0.88497637078E+02 0.  0.
        -11    1    3    3    0    0 -0.57202924862E+02 -0.15172962056E+02  0.70412263951E+02  0.91979782045E+02  0.00000000000E+00 0. -1.
         11    1    3    3    0    0  0.45302492279E+02 -0.25903840966E+02  0.43076337963E+02  0.67667537828E+02  0.00000000000E+00 0.  1.
        -13    1    4    4    0    0 -0.31858445991E+02  0.77515857931E+01  0.82047473677E+01  0.33798898542E+02  0.00000000000E+00 0. -1.
         13    1    4    4    0    0  0.38231295804E+02  0.62330449633E+01  0.97511289371E+02  0.10492346917E+03  0.00000000000E+00 0.  1.
          1    1    1    2  501    0  0.55275827696E+01  0.27092172265E+02  0.80779490720E+02  0.85380712636E+02  0.00000000000E+00 0. -1.
<scales pt_clust_5="13000.00000" pt_clust_6="13000.00000" pt_clust_7="13000.00000" pt_clust_8="13000.00000" pt_clust_9="27.65032"></scales>
<clustering>
<clus scale="   27.650">  1  9  2 -1</clus>
<clus scale="   88.498">  7  8 -1 -1</clus>
<clus scale="   92.896">  1  7  2 -1</clus>
<clus scale="  103.820">  5  6 -1 -1</clus>
<clus scale="   27.650">  1  5  2 -1</clus>
</clustering>
</event>
<event>
 9    1  0.1671478E-005  0.1177463E+03  0.7546771E-02  0.1247319E+00
         -3   -1    0    0    0  501 -0.00000000000E+00  0.00000000000E+00  0.24587774103E+03  0.24587774103E+03  0.00000000000E+00 0.  1.
         21   -1    0    0  501  502  0.00000000000E+00 -0.00000000000E+00 -0.28971244999E+03  0.28971244999E+03  0.00000000000E+00 0.  1.
         23    2    1    2    0    0  0.44980092837E+02  0.35673205554E+02  0.59995139053E+02  0.11839735904E+03  0.84396277005E+02 0.  0.
         23    2    1    2    0    0 -0.11787312115E+03 -0.12104839901E+02  0.11537037664E+03  0.18499119563E+03  0.82890402430E+02 0.  0.
        -11    1    3    3    0    0  0.46836709696E+02  0.55670450315E+02  0.65153815802E+02  0.97662152992E+02  0.00000000000E+00 0. -1.
         11    1    3    3    0    0 -0.18566168586E+01 -0.19997244761E+02 -0.51586767497E+01  0.20735206051E+02  0.00000000000E+00 0.  1.
        -13    1    4    4    0    0 -0.10519925938E+02 -0.26467127318E+02  0.52576313794E+02  0.59795036938E+02  0.00000000000E+00 0. -1.
         13    1    4    4    0    0 -0.10735319521E+03  0.14362287418E+02  0.62794062845E+02  0.12519615869E+03  0.00000000000E+00 0.  1.
         -3    1    1    2    0  502  0.72893028312E+02 -0.23568365654E+02 -0.21920022465E+03  0.23220163635E+03  0.00000000000E+00 0.  1.
<scales pt_clust_5="13000.00000" pt_clust_6="13000.00000" pt_clust_7="13000.00000" pt_clust_8="13000.00000" pt_clust_9="76.60849"></scales>
<clustering>
<clus scale="   76.608">  2  9  1 -1</clus>
<clus scale="   82.890">  7  8 -1 -1</clus>
<clus scale="   84.396">  5  6 -1 -1</clus>
<clus scale="  116.672">  2  7  1 -1</clus>
<clus scale="   76.608">  2  5  1 -1</clus>
</clustering>
</event>
<event>
 9    1  0.1671478E-005  0.9388696E+02  0.7546771E-02  0.1294040E+00
         21   -1    0    0  501  502  0.00000000000E+00  0.00000000000E+00  0.46951744131E+02  0.46951744131E+02  0.00000000000E+00 0.  1.
          1   -1    0    0  502    0 -0.00000000000E+00 -0.00000000000E+00 -0.33286328813E+03  0.33286328813E+03  0.00000000000E+00 0. -1.
         23    2    1    2    0    0  0.19467214107E+02  0.27835562713E+01 -0.16680575770E+03  0.19093098736E+03  0.90795156932E+02 0.  0.
         23    2    1    2    0    0 -0.15503202307E+02  0.34092642258E+02 -0.11495733533E+03  0.15156411654E+03  0.91399315857E+02 0.  0.
        -11    1    4    4    0    0  0.15934997196E+02  0.49077525065E+02 -0.29861670489E+02  0.59617505537E+02  0.00000000000E+00 0.  1.
         11    1    4    4    0    0 -0.31438199503E+02 -0.14984882807E+02 -0.85095664836E+02  0.91946611001E+02  0.00000000000E+00 0. -1.
        -13    1    3    3    0    0  0.37060543655E+01  0.45640247777E+02 -0.66732320205E+02  0.80931882569E+02  0.00000000000E+00 0.  1.
         13    1    3    3    0    0  0.15761159741E+02 -0.42856691506E+02 -0.10007343749E+03  0.10999910479E+03  0.00000000000E+00 0. -1.
          1    1    1    2  501    0 -0.39640118004E+01 -0.36876198529E+02 -0.41484509775E+01  0.37319928363E+02  0.00000000000E+00 0. -1.
<scales pt_clust_5="13000.00000" pt_clust_6="13000.00000" pt_clust_7="13000.00000" pt_clust_8="13000.00000" pt_clust_9="37.08864"></scales>
<clustering>
<clus scale="   37.089">  1  9  2 -1</clus>
<clus scale="   90.795">  7  8 -1 -1</clus>
<clus scale="   91.399">  5  6 -1 -1</clus>
<clus scale="   93.299">  2  7  1 -1</clus>
<clus scale="   37.089">  1  5  2 -1</clus>
</clustering>
</event>
<event>
 9    1  0.1671478E-005  0.9303753E+02  0.7546771E-02  0.1296155E+00
         21   -1    0    0  501  502  0.00000000000E+00  0.00000000000E+00  0.43382275197E+03  0.43382275197E+03  0.00000000000E+00 0. -1.
         -1   -1    0    0    0  501 -0.00000000000E+00 -0.00000000000E+00 -0.37412195291E+02  0.37412195291E+02  0.00000000000E+00 0.  1.
         23    2    1    2    0    0  0.11756722836E+02 -0.15719398070E+02  0.51479639530E+02  0.10537385091E+03  0.89823021334E+02 0.  0.
         23    2    1    2    0    0 -0.32485962660E+02  0.32834509342E+01  0.29569556112E+03  0.31101153439E+03  0.90698350777E+02 0.  0.
        -13    1    3    3    0    0  0.49193917271E+02  0.40977227900E+01  0.24065388000E+02  0.54917899888E+02  0.00000000000E+00 0.  1.
         13    1    3    3    0    0 -0.37437194435E+02 -0.19817120860E+02  0.27414251531E+02  0.50455951020E+02  0.00000000000E+00 0. -1.
        -13    1    4    4    0    0  0.15107999092E+02  0.34062306952E+02  0.15298320156E+03  0.15745587430E+03  0.00000000000E+00 0.  1.
         13    1    4    4    0    0 -0.47593961753E+02 -0.30778856018E+02  0.14271235956E+03  0.15355566008E+03  0.00000000000E+00 0. -1.
         -1    1    1    2    0  502  0.20729239824E+02  0.12435947136E+02  0.49235356028E+02  0.54849561968E+02  0.00000000000E+00 0.  1.
<scales pt_clust_5="13000.00000" pt_clust_6="13000.00000" pt_clust_7="13000.00000" pt_clust_8="13000.00000" pt_clust_9="24.17342"></scales>
<clustering>
<clus scale="   24.173">  1  9  2 -1</clus>
<clus scale="   89.823">  5  6 -1 -1</clus>
<clus scale="   90.698">  7  8 -1 -1</clus>
<clus scale="   92.184">  2  5  1 -1</clus>
<clus scale="   24.173">  1  5  2 -1</clus>
</clustering>
</event>
<event>
 9    1  0.1671478E-005  0.9840897E+02  0.7546771E-02  0.1285524E+00
         21   -1    0    0  501  502  0.00000000000E+00  0.00000000000E+00  0.79204813238E+02  0.79204813238E+02  0.00000000000E+00 0. -1.
          4   -1    0    0  502    0 -0.00000000000E+00 -0.00000000000E+00 -0.21664697293E+03  0.21664697293E+03  0.00000000000E+00 0. -1.
         23    2    1    2    0    0  0.92160063536E+01  0.23971072035E+02 -0.81234610890E+02  0.12311367045E+03  0.88872756107E+02 0.  0.
         23    2    1    2    0    0  0.23025474289E+02 -0.45482516253E+02 -0.75143882447E+02  0.12960066055E+03  0.92471057062E+02 0.  0.
        -11    1    3    3    0    0 -0.39537592528E+02  0.17698186446E+02 -0.39757624446E+02  0.58797242520E+02  0.00000000000E+00 0.  1.
         11    1    3    3    0    0  0.48753598881E+02  0.62728855899E+01 -0.41476986444E+02  0.64316427932E+02  0.00000000000E+00 0. -1.
        -13    1    4    4    0    0 -0.19304640747E+02  0.16420016948E+02 -0.29648499016E+01  0.25516199676E+02  0.00000000000E+00 0.  1.
         13    1    4    4    0    0  0.42330115037E+02 -0.61902533201E+02 -0.72179032545E+02  0.10408446087E+03  0.00000000000E+00 0. -1.
          4    1    1    2  501    0 -0.32241480643E+02  0.21511444218E+02  0.18936333646E+02  0.43137455167E+02  0.00000000000E+00 0. -1.
<scales pt_clust_5="13000.00000" pt_clust_6="13000.00000" pt_clust_7="13000.00000" pt_clust_8="13000.00000" pt_clust_9="38.75894"></scales>
<clustering>
<clus scale="   38.759">  1  9  2 -1</clus>
<clus scale="   88.873">  5  6 -1 -1</clus>
<clus scale="   92.471">  7  8 -1 -1</clus>
<clus scale="   95.036">  2  5  1 -1</clus>
<clus scale="   38.759">  1  5  2 -1</clus>
</clustering>
</event>
<event>
 9    1  0.1671478E-005  0.9615621E+02  0.7546771E-02  0.1289843E+00
         -4   -1    0    0    0  501 -0.00000000000E+00  0.00000000000E+00  0.11291006900E+03  0.11291006900E+03  0.00000000000E+00 0.  1.
         21   -1    0    0  501  502  0.00000000000E+00 -0.00000000000E+00 -0.15617751958E+03  0.15617751958E+03  0.00000000000E+00 0.  1.
         23    2    1    2    0    0  0.14106311847E+02  0.32574966140E+02  0.27042007502E+02  0.10119475087E+03  0.90823955985E+02 0.  0.
         23    2    1    2    0    0 -0.41529647691E+02  0.84054685110E+00 -0.16895895451E+02  0.99178614064E+02  0.88461901676E+02 0.  0.
        -11    1    4    4    0    0  0.13401671760E+02 -0.26080734097E+02 -0.23598354351E+02  0.37638966844E+02  0.00000000000E+00 0. -1.
         11    1    4    4    0    0 -0.54931319452E+02  0.26921280948E+02  0.67024589002E+01  0.61539647220E+02  0.00000000000E+00 0.  1.
        -13    1    3    3    0    0  0.33767040969E+02  0.24040870113E+02  0.53158651774E+02  0.67409337261E+02  0.00000000000E+00 0. -1.
         13    1    3    3    0    0 -0.19660729122E+02  0.85340960275E+01 -0.26116644272E+02  0.33785413608E+02  0.00000000000E+00 0.  1.
         -4    1    1    2    0  502  0.27423335844E+02 -0.33415512991E+02 -0.53413562632E+02  0.68714223639E+02  0.00000000000E+00 0.  1.
<scales pt_clust_5="13000.00000" pt_clust_6="13000.00000" pt_clust_7="13000.00000" pt_clust_8="13000.00000" pt_clust_9="43.22772"></scales>
<clustering>
<clus scale="   43.228">  2  9  1 -1</clus>
<clus scale="   88.462">  5  6 -1 -1</clus>
<clus scale="   90.824">  7  8 -1 -1</clus>
<clus scale="   93.928">  2  5  1 -1</clus>
<clus scale="   43.228">  2  5  1 -1</clus>
</clustering>
</event>
<event>
 9    1  0.1671478E-005  0.1518941E+03  0.7546771E-02  0.1199114E+00
         21   -1    0    0  501  502  0.00000000000E+00  0.00000000000E+00  0.38668435285E+03  0.38668435285E+03  0.00000000000E+00 0.  1.
         -2   -1    0    0    0  501 -0.00000000000E+00 -0.00000000000E+00 -0.16503631464E+03  0.16503631464E+03  0.00000000000E+00 0.  1.
         23    2    1    2    0    0  0.55007368245E+02 -0.10898425889E+03 -0.47764954078E+02  0.15652403936E+03  0.85527216792E+02 0.  0.
         23    2    1    2    0    0  0.16377662984E+02  0.13552777279E+03  0.63816393141E+02  0.17594713008E+03  0.90823210188E+02 0.  0.
        -11    1    3    3    0    0  0.35792660810E+02 -0.61878573541E+02 -0.70859505696E+02  0.10065357410E+03  0.00000000000E+00 0.  1.
         11    1    3    3    0    0  0.19214707435E+02 -0.47105685348E+02  0.23094551618E+02  0.55870465260E+02  0.00000000000E+00 0. -1.
        -13    1    4    4    0    0  0.53436486071E+02  0.77473597678E+02  0.27315743813E+02  0.97998807344E+02  0.00000000000E+00 0.  1.
         13    1    4    4    0    0 -0.37058823087E+02  0.58054175112E+02  0.36500649328E+02  0.77948322739E+02  0.00000000000E+00 0. -1.
         -2    1    1    2    0  502 -0.71385031229E+02 -0.26543513900E+02  0.20559659915E+03  0.21924949805E+03  0.00000000000E+00 0.  1.
<scales pt_clust_5="13000.00000" pt_clust_6="13000.00000" pt_clust_7="13000.00000" pt_clust_8="13000.00000" pt_clust_9="76.16023"></scales>
<clustering>
<clus scale="   76.160">  1  9  2 -1</clus>
<clus scale="   85.527">  5  6 -1 -1</clus>
<clus scale="   90.823">  7  8 -1 -1</clus>
<clus scale="  148.788">  2  5  1 -1</clus>
<clus scale="   76.160">  1  5  2 -1</clus>
</clustering>
</event>
<event>
 9    1  0.1671478E-005  0.9147590E+02  0.7546771E-02  0.1300145E+00
          1   -1    0    0  502    0 -0.00000000000E+00  0.00000000000E+00  0.71112550849E+03  0.71112550849E+03  0.00000000000E+00 0. -1.
         21   -1    0    0  501  502  0.00000000000E+00 -0.00000000000E+00 -0.17623898752E+02  0.17623898752E+02  0.00000000000E+00 0.  1.
         23    2    1    2    0    0 -0.13597006507E+02 -0.76918074239E+01  0.44834263905E+03  0.45766703028E+03  0.90575637620E+02 0.  0.
         23    2    1    2    0    0  0.11131384116E+02 -0.16151783714E+02  0.20290301123E+03  0.22250087594E+03  0.89175220752E+02 0.  0.
        -13    1    4    4    0    0  0.48305775297E+02 -0.19256300144E+02  0.14028609954E+03  0.14961431331E+03  0.00000000000E+00 0. -1.
         13    1    4    4    0    0 -0.37174391182E+02  0.31045164301E+01  0.62616911687E+02  0.72886562624E+02  0.00000000000E+00 0.  1.
        -13    1    3    3    0    0  0.34803499405E+01  0.39903191830E+02  0.16090852111E+03  0.16581896671E+03  0.00000000000E+00 0. -1.
         13    1    3    3    0    0 -0.17077356447E+02 -0.47594999254E+02  0.28743411794E+03  0.29184806358E+03  0.00000000000E+00 0.  1.
          1    1    1    2  501    0  0.24656223910E+01  0.23843591138E+02  0.42255959457E+02  0.48581501024E+02  0.00000000000E+00 0. -1.
<scales pt_clust_5="13000.00000" pt_clust_6="13000.00000" pt_clust_7="13000.00000" pt_clust_8="13000.00000" pt_clust_9="23.97073"></scales>
<clustering>
<clus scale="   23.971">  2  9  1 -1</clus>
<clus scale="   89.175">  5  6 -1 -1</clus>
<clus scale="   90.089">  2  5  1 -1</clus>
<clus scale="   90.576">  7  8 -1 -1</clus>
<clus scale="   23.971">  2  5  1 -1</clus>
</clustering>
</event>
<event>
 9    1  0.1671478E-005  0.1384661E+03  0.7546771E-02  0.1215809E+00
         21   -1    0    0  501  502  0.00000000000E+00  0.00000000000E+00  0.26358970610E+03  0.26358970610E+03  0.00000000000E+00 0. -1.
          2   -1    0    0  502    0 -0.00000000000E+00 -0.00000000000E+00 -0.15626731260E+03  0.15626731260E+03  0.00000000000E+00 0. -1.
         23    2    1    2    0    0 -0.81810684087E+02 -0.49892985451E+02 -0.11179088685E+02  0.13227891648E+03  0.90501059074E+02 0.  0.
         23    2    1    2    0    0  0.10821067739E+03  0.32227428899E+02 -0.18466069379E+02  0.14697532231E+03  0.92263707798E+02 0.  0.
        -11    1    3    3    0    0 -0.57304976185E+02  0.11862353657E+02 -0.26271500724E+02  0.64146453372E+02  0.00000000000E+00 0.  1.
         11    1    3    3    0    0 -0.24505707902E+02 -0.61755339108E+02  0.15092412039E+02  0.68132463109E+02  0.00000000000E+00 0. -1.
        -13    1    4    4    0    0  0.10101903884E+03 -0.41693630326E+01  0.79715799013E+01  0.10141881424E+03  0.00000000000E+00 0. -1.
         13    1    4    4    0    0  0.71916385450E+01  0.36396791932E+02 -0.26437649281E+02  0.45556508068E+02  0.00000000000E+00 0.  1.
          2    1    1    2  501    0 -0.26399993299E+02  0.17665556551E+02  0.13696755157E+03  0.14060277990E+03  0.00000000000E+00 0. -1.
<scales pt_clust_5="13000.00000" pt_clust_6="13000.00000" pt_clust_7="13000.00000" pt_clust_8="13000.00000" pt_clust_9="31.76526"></scales>
<clustering>
<clus scale="   31.765">  1  9  2 -1</clus>
<clus scale="   90.501">  5  6 -1 -1</clus>
<clus scale="   92.264">  7  8 -1 -1</clus>
<clus scale="  137.298">  2  5  1 -1</clus>
<clus scale="   31.765">  1  5  2 -1</clus>
</clustering>
</event>
<event>
 9    1  0.1671478E-005  0.2297367E+03  0.7546771E-02  0.1127114E+00
         -3   -1    0    0    0  501 -0.00000000000E+00  0.00000000000E+00  0.30063341073E+03  0.30063341073E+03  0.00000000000E+00 0.  1.
         21   -1    0    0  501  502  0.00000000000E+00 -0.00000000000E+00 -0.26547856073E+03  0.26547856073E+03  0.00000000000E+00 0.  1.
         23    2    1    2    0    0 -0.16233970356E+03  0.29338472211E+02 -0.23654591855E+02  0.18752508566E+03  0.85972046222E+02 0.  0.
         23    2    1    2    0    0  0.25010289112E+03 -0.68928325975E+02  0.64506919802E+02  0.28213899900E+03  0.90214753701E+02 0.  0.
        -11    1    4    4    0    0  0.43532040654E+02  0.14256802675E+02  0.34690791841E+02  0.57460821649E+02  0.00000000000E+00 0. -1.
         11    1    4    4    0    0  0.20657085047E+03 -0.83185128649E+02  0.29816127962E+02  0.22467817735E+03  0.00000000000E+00 0.  1.
        -11    1    3    3    0    0 -0.56744945550E+02  0.51660117159E+02 -0.21018450592E+02  0.79564639229E+02  0.00000000000E+00 0.  1.
         11    1    3    3    0    0 -0.10559475801E+03 -0.22321644948E+02 -0.26361412628E+01  0.10796044643E+03  0.00000000000E+00 0. -1.
         -3    1    1    2    0  502 -0.87763187561E+02  0.39589853764E+02 -0.56974779446E+01  0.96447886793E+02  0.00000000000E+00 0.  1.
<scales pt_clust_5="13000.00000" pt_clust_6="13000.00000" pt_clust_7="13000.00000" pt_clust_8="13000.00000" pt_clust_9="96.27946"></scales>
<clustering>
<clus scale="   85.972">  7  8 -1 -1</clus>
<clus scale="   90.215">  5  6 -1 -1</clus>
<clus scale="   96.279">  2  9  1 -1</clus>
<clus scale="  228.104">  1  7  2 -1</clus>
<clus scale="   96.279">  2  5  1 -1</clus>
</clustering>
</event>
<event>
 9    1  0.1671478E-005  0.9879457E+02  0.7546771E-02  0.1284962E+00
         -1   -1    0    0    0  501 -0.00000000000E+00  0.00000000000E+00  0.32198638073E+03  0.32198638073E+03  0.00000000000E+00 0.  1.
         21   -1    0    0  501  502  0.00000000000E+00 -0.00000000000E+00 -0.11865924368E+03  0.11865924368E+03  0.00000000000E+00 0.  1.
         23    2    1    2    0    0 -0.37730826303E+02  0.25051806111E+02  0.18730754415E+03  0.21296727845E+03  0.90662767178E+02 0.  0.
         23    2    1    2    0    0  0.52679712002E+01 -0.38683855320E+02  0.99266733477E+02  0.13729164263E+03  0.86434475636E+02 0.  0.
        -11    1    3    3    0    0 -0.67145303075E+02  0.17259797947E+02  0.14637792848E+03  0.16196570717E+03  0.00000000000E+00 0.  1.
         11    1    3    3    0    0  0.29414476772E+02  0.77920081644E+01  0.40929615660E+02  0.51001571281E+02  0.00000000000E+00 0. -1.
        -13    1    4    4    0    0 -0.36270222457E+02 -0.20098440940E+01  0.57038496404E+02  0.67623654015E+02  0.00000000000E+00 0.  1.
         13    1    4    4    0    0  0.41538193657E+02 -0.36674011226E+02  0.42228237073E+02  0.69667988617E+02  0.00000000000E+00 0. -1.
         -1    1    1    2    0  502  0.32462855103E+02  0.13632049209E+02 -0.83247140573E+02  0.90386703340E+02  0.00000000000E+00 0.  1.
<scales pt_clust_5="13000.00000" pt_clust_6="13000.00000" pt_clust_7="13000.00000" pt_clust_8="13000.00000" pt_clust_9="35.20894"></scales>
<clustering>
<clus scale="   35.209">  2  9  1 -1</clus>
<clus scale="   86.434">  7  8 -1 -1</clus>
<clus scale="   90.663">  5  6 -1 -1</clus>
<clus scale="   94.929">  2  7  1 -1</clus>
<clus scale="   35.209">  2  5  1 -1</clus>
</clustering>
</event>
<event>
 9    1  0.1671478E-005  0.1094375E+03  0.7546771E-02  0.1262372E+00
          1   -1    0    0  502    0 -0.00000000000E+00  0.00000000000E+00  0.15734180255E+03  0.15734180255E+03  0.00000000000E+00 0. -1.
         21   -1    0    0  501  502  0.00000000000E+00 -0.00000000000E+00 -0.16865643441E+03  0.16865643441E+03  0.00000000000E+00 0. -1.
         23    2    1    2    0    0 -0.45770653656E+02 -0.35736546190E+02  0.92870991182E+02  0.14289574496E+03  0.91772106089E+02 0.  0.
         23    2    1    2    0    0  0.69458924566E+02  0.19125134859E+02 -0.10241729822E+03  0.15411628601E+03  0.89845498792E+02 0.  0.
        -13    1    4    4    0    0  0.68851539056E+02 -0.34718301270E+01 -0.24783690063E+02  0.73258578528E+02  0.00000000000E+00 0. -1.
         13    1    4    4    0    0  0.60738550993E+00  0.22596964986E+02 -0.77633608153E+02  0.80857707478E+02  0.00000000000E+00 0.  1.
        -13    1    3    3    0    0 -0.36398549377E+02  0.26332952934E+02  0.29799887187E+02  0.53910222438E+02  0.00000000000E+00 0. -1.
         13    1    3    3    0    0 -0.93721042798E+01 -0.62069499124E+02  0.63071103995E+02  0.88985522527E+02  0.00000000000E+00 0.  1.
          1    1    1    2  501    0 -0.23688270909E+02  0.16611411332E+02 -0.17683248283E+01  0.28986205992E+02  0.00000000000E+00 0. -1.
<scales pt_clust_5="13000.00000" pt_clust_6="13000.00000" pt_clust_7="13000.00000" pt_clust_8="13000.00000" pt_clust_9="28.93222"></scales>
<clustering>
<clus scale="   28.932">  2  9  1 -1</clus>
<clus scale="   89.845">  5  6 -1 -1</clus>
<clus scale="   91.772">  7  8 -1 -1</clus>
<clus scale="  107.827">  2  5  1 -1</clus>
<clus scale="   28.932">  2  5  1 -1</clus>
</clustering>
</event>
<event>
 9    1  0.1671478E-005  0.1011071E+03  0.7546771E-02  0.1279729E+00
          1   -1    0    0  502    0 -0.00000000000E+00  0.00000000000E+00  0.41135203294E+02  0.41135203294E+02  0.00000000000E+00 0. -1.
         21   -1    0    0  501  502  0.00000000000E+00 -0.00000000000E+00 -0.54410138867E+03  0.54410138867E+03  0.00000000000E+00 0.  1.
         23    2    1    2    0    0 -0.39036681405E+02 -0.45140558826E+01 -0.52036651195E+02  0.11223048756E+03  0.91343473081E+02 0.  0.
         23    2    1    2    0    0  0.59869267812E+02 -0.20157730033E+02 -0.30587413080E+03  0.32440003546E+03  0.87668328411E+02 0.  0.
        -13    1    4    4    0    0  0.23939159441E+02  0.34498135902E+02 -0.10253904730E+03  0.11080370462E+03  0.00000000000E+00 0.  1.
         13    1    4    4    0    0  0.35930108371E+02 -0.54655865936E+02 -0.20333508350E+03  0.21359633084E+03  0.00000000000E+00 0. -1.
        -13    1    3    3    0    0 -0.18834601949E+02  0.43455062117E+02 -0.26097011109E+02  0.54075305298E+02  0.00000000000E+00 0.  1.
         13    1    3    3    0    0 -0.20202079456E+02 -0.47969118000E+02 -0.25939640086E+02  0.58155182261E+02  0.00000000000E+00 0. -1.
          1    1    1    2  501    0 -0.20832586408E+02  0.24671785916E+02 -0.14505540339E+03  0.14860606895E+03  0.00000000000E+00 0. -1.
<scales pt_clust_5="13000.00000" pt_clust_6="13000.00000" pt_clust_7="13000.00000" pt_clust_8="13000.00000" pt_clust_9="32.29077"></scales>
<clustering>
<clus scale="   32.291">  2  9  1 -1</clus>
<clus scale="   87.668">  5  6 -1 -1</clus>
<clus scale="   91.343">  7  8 -1 -1</clus>
<clus scale="   97.800">  2  5  1 -1</clus>
<clus scale="   32.291">  2  5  1 -1</clus>
</clustering>
</event>
<event>
 9    1  0.1671478E-005  0.1542521E+03  0.7546771E-02  0.1195425E+00
          1   -1    0    0  502    0 -0.00000000000E+00  0.00000000000E+00  0.39047592283E+03  0.39047592283E+03  0.00000000000E+00 0. -1.
         21   -1    0    0  501  502  0.00000000000E+00 -0.00000000000E+00 -0.10499830765E+03  0.10499830765E+03  0.00000000000E+00 0. -1.
         23    2    1    2    0    0  0.33658891529E+01 -0.12246024524E+03  0.17087455615E+03  0.22961802690E+03  0.92295630784E+02 0.  0.
         23    2    1    2    0    0  0.28628920578E+02  0.12370973321E+03  0.15083410396E+03  0.21750418514E+03  0.91833710865E+02 0.  0.
        -13    1    3    3    0    0  0.16676778067E+01 -0.94475037853E+02  0.52760259060E+02  0.10822180401E+03  0.00000000000E+00 0. -1.
         13    1    3    3    0    0  0.16982113462E+01 -0.27985207386E+02  0.11811429709E+03  0.12139622289E+03  0.00000000000E+00 0.  1.
        -13    1    4    4    0    0  0.17351836758E+02  0.32529079482E+02 -0.43897400241E+01  0.37128116951E+02  0.00000000000E+00 0.  1.
         13    1    4    4    0    0  0.11277083820E+02  0.91180653731E+02  0.15522384399E+03  0.18037606819E+03  0.00000000000E+00 0. -1.
          1    1    1    2  501    0 -0.31994809730E+02 -0.12494879746E+01 -0.36231044941E+02  0.48352018442E+02  0.00000000000E+00 0. -1.
<scales pt_clust_5="13000.00000" pt_clust_6="13000.00000" pt_clust_7="13000.00000" pt_clust_8="13000.00000" pt_clust_9="32.01920"></scales>
<clustering>
<clus scale="   32.019">  2  9  1 -1</clus>
<clus scale="   91.834">  7  8 -1 -1</clus>
<clus scale="   92.296">  5  6 -1 -1</clus>
<clus scale="  153.976">  2  7  1 -1</clus>
<clus scale="   32.019">  2  5  1 -1</clus>
</clustering>
</event>
<event>
 9    1  0.1671478E-005  0.1245902E+03  0.7546771E-02  0.1235864E+00
          3   -1    0    0  502    0 -0.00000000000E+00  0.00000000000E+00  0.19653580097E+03  0.19653580097E+03  0.00000000000E+00 0. -1.
         21   -1    0    0  501  502  0.00000000000E+00 -0.00000000000E+00 -0.17166445989E+03  0.17166445989E+03  0.00000000000E+00 0. -1.
         23    2    1    2    0    0  0.80778801937E+02  0.42031391408E+02  0.12256260872E+03  0.17800412415E+03  0.91498756550E+02 0.  0.
         23    2    1    2    0    0 -0.56805547417E+02 -0.36881979081E+02 -0.28714240763E+02  0.11699051113E+03  0.90967694666E+02 0.  0.
        -13    1    3    3    0    0  0.43619607103E+02  0.61700037714E+02  0.11121568402E+03  0.13445628713E+03  0.00000000000E+00 0. -1.
         13    1    3    3    0    0  0.37159194834E+02 -0.19668646306E+02  0.11346924701E+02  0.43547837012E+02  0.00000000000E+00 0.  1.
        -13    1    4    4    0    0 -0.74292948525E+02 -0.51340441064E+02 -0.26898895397E+02  0.94227563180E+02  0.00000000000E+00 0.  1.
         13    1    4    4    0    0  0.17487401108E+02  0.14458461983E+02 -0.18153453658E+01  0.22762947947E+02  0.00000000000E+00 0. -1.
          3    1    1    2  501    0 -0.23973254520E+02 -0.51494123274E+01 -0.68977026883E+02  0.73205625584E+02  0.00000000000E+00 0. -1.
<scales pt_clust_5="13000.00000" pt_clust_6="13000.00000" pt_clust_7="13000.00000" pt_clust_8="13000.00000" pt_clust_9="24.52006"></scales>
<clustering>
<clus scale="   24.520">  2  9  1 -1</clus>
<clus scale="   90.968">  7  8 -1 -1</clus>
<clus scale="   91.499">  5  6 -1 -1</clus>
<clus scale="  124.201">  2  7  1 -1</clus>
<clus scale="   24.520">  2  5  1 -1</clus>
</clustering>
</event>
<event>
 9    1  0.1671478E-005  0.1670471E+03  0.7546771E-02  0.1203963E+00
         21   -1    0    0  501  502  0.00000000000E+00  0.00000000000E+00  0.12329361518E+04  0.12329361518E+04  0.00000000000E+00 0.  1.
         -1   -1    0    0    0  501 -0.00000000000E+00 -0.00000000000E+00 -0.33849207592E+03  0.33849207592E+03  0.00000000000E+00 0.  1.
         23    2    1    2    0    0 -0.20550977987E+00 -0.49345888212E+02 -0.29198031426E+03  0.30885910677E+03  0.87786018254E+02 0.  0.
         23    2    1    2    0    0 -0.11524194831E+03 -0.23529287610E+02  0.14419861399E+03  0.21143950227E+03  0.10039466528E+03 0.  0.
        -11    1    3    3    0    0 -0.23428527162E+02 -0.51925413546E+02 -0.27263904581E+03  0.27852682771E+03  0.00000000000E+00 0.  1.
         11    1    3    3    0    0  0.23223017382E+02  0.25795253345E+01 -0.19341268448E+02  0.30332279052E+02  0.00000000000E+00 0. -1.
        -11    1    4    4    0    0  0.17588313245E+02 -0.11836636813E+02  0.17289082933E+02  0.27356299503E+02  0.00000000000E+00 0.  1.
         11    1    4    4    0    0 -0.13283026156E+03 -0.11692650797E+02  0.12690953106E+03  0.18408320277E+03  0.00000000000E+00 0. -1.
         -1    1    1    2    0  502  0.11544745809E+03  0.72875175822E+02  0.10422257761E+04  0.10511296186E+04  0.00000000000E+00 0.  1.
<scales pt_clust_5="13000.00000" pt_clust_6="13000.00000" pt_clust_7="13000.00000" pt_clust_8="13000.00000" pt_clust_9="133.51273"></scales>
<clustering>
<clus scale="   87.786">  5  6 -1 -1</clus>
<clus scale="  100.395">  7  8 -1 -1</clus>
<clus scale="  100.705">  2  5  1 -1</clus>
<clus scale="  133.513">  1  9  2 -1</clus>
<clus scale="  133.513">  1  5  2 -1</clus>
</clustering>
</event>
<event>
 9    1  0.1671478E-005  0.1004558E+03  0.7546771E-02  0.1279650E+00
         21   -1    0    0  501  502  0.00000000000E+00  0.00000000000E+00  0.11142603280E+03  0.11142603280E+03  0.00000000000E+00 0.  1.
         -1   -1    0    0    0  501 -0.00000000000E+00 -0.00000000000E+00 -0.30560283010E+03  0.30560283010E+03  0.00000000000E+00 0.  1.
         23    2    1    2    0    0 -0.43784399629E+02  0.32213705333E+02 -0.13539777451E+03  0.17032947492E+03  0.87890706114E+02 0.  0.
         23    2    1    2    0    0  0.37658656317E+01 -0.49802583748E+02 -0.12883591942E+03  0.16412323844E+03  0.88562205105E+02 0.  0.
        -11    1    3    3    0    0  0.23132658043E+02  0.85319755957E+01 -0.68450413800E+02  0.72755574530E+02  0.00000000000E+00 0. -1.
         11    1    3    3    0    0 -0.66917057673E+02  0.23681729738E+02 -0.66947360712E+02  0.97573900389E+02  0.00000000000E+00 0.  1.
        -11    1    4    4    0    0 -0.21408418822E+02 -0.66529495274E+02 -0.75973691745E+02  0.10323030551E+03  0.00000000000E+00 0.  1.
         11    1    4    4    0    0  0.25174284453E+02  0.16726911526E+02 -0.52862227673E+02  0.60892932936E+02  0.00000000000E+00 0. -1.
         -1    1    1    2    0  502  0.40018533998E+02  0.17588878415E+02  0.70056896629E+02  0.82576149538E+02  0.00000000000E+00 0.  1.
<scales pt_clust_5="13000.00000" pt_clust_6="13000.00000" pt_clust_7="13000.00000" pt_clust_8="13000.00000" pt_clust_9="43.71329"></scales>
<clustering>
<clus scale="   43.713">  1  9  2 -1</clus>
<clus scale="   87.891">  5  6 -1 -1</clus>
<clus scale="   88.562">  7  8 -1 -1</clus>
<clus scale="   99.864">  2  5  1 -1</clus>
<clus scale="   43.713">  1  5  2 -1</clus>
</clustering>
</event>
<event>
 9    1  0.1671478E-005  0.2675336E+03  0.7546771E-02  0.1102740E+00
          1   -1    0    0  502    0 -0.00000000000E+00  0.00000000000E+00  0.78061109937E+03  0.78061109937E+03  0.00000000000E+00 0. -1.
         21   -1    0    0  501  502  0.00000000000E+00 -0.00000000000E+00 -0.17307521194E+03  0.17307521194E+03  0.00000000000E+00 0. -1.
         23    2    1    2    0    0 -0.12197497202E+03  0.22959040355E+03  0.42164216891E+03  0.50372221995E+03  0.91456596606E+02 0.  0.
         23    2    1    2    0    0  0.13110526690E+03 -0.20140662852E+03  0.26260334989E+03  0.36773237603E+03  0.92267870805E+02 0.  0.
        -13    1    4    4    0    0  0.10349699737E+03 -0.16519828377E+03  0.14906070893E+03  0.24540007411E+03  0.00000000000E+00 0. -1.
         13    1    4    4    0    0  0.27608269531E+02 -0.36208344745E+02  0.11354264096E+03  0.12233230192E+03  0.00000000000E+00 0.  1.
        -13    1    3    3    0    0 -0.87288557984E+01  0.45401225447E+02  0.26492861227E+02  0.53285419128E+02  0.00000000000E+00 0.  1.
         13    1    3    3    0    0 -0.11324611622E+03  0.18418917811E+03  0.39514930768E+03  0.45043680082E+03  0.00000000000E+00 0. -1.
          1    1    1    2  501    0 -0.91302948864E+01 -0.28183775037E+02 -0.76709631381E+02  0.82231715333E+02  0.00000000000E+00 0. -1.
<scales pt_clust_5="13000.00000" pt_clust_6="13000.00000" pt_clust_7="13000.00000" pt_clust_8="13000.00000" pt_clust_9="29.62579"></scales>
<clustering>
<clus scale="   29.626">  2  9  1 -1</clus>
<clus scale="   91.457">  7  8 -1 -1</clus>
<clus scale="   92.268">  5  6 -1 -1</clus>
<clus scale="  267.255">  1  7  2 -1</clus>
<clus scale="   29.626">  2  5  1 -1</clus>
</clustering>
</event>
<event>
 9    1  0.1671478E-005  0.1618832E+03  0.7546771E-02  0.1193146E+00
         21   -1    0    0  501  502  0.00000000000E+00  0.00000000000E+00  0.33443104514E+03  0.33443104514E+03  0.00000000000E+00 0.  1.
         -1   -1    0    0    0  501 -0.00000000000E+00 -0.00000000000E+00 -0.28514602277E+03  0.28514602277E+03  0.00000000000E+00 0.  1.
         23    2    1    2    0    0  0.62540154558E+02 -0.69316071683E+02 -0.14479345478E+03  0.20868380096E+03  0.11776160458E+03 0.  0.
         23    2    1    2    0    0 -0.10019846333E+03  0.11264811265E+03 -0.33297273506E+02  0.17638197515E+03  0.85279325729E+02 0.  0.
        -11    1    4    4    0    0 -0.62635657416E+02  0.10367585671E+02 -0.43201056066E+01  0.63634705350E+02  0.00000000000E+00 0. -1.
         11    1    4    4    0    0 -0.37562805914E+02  0.10228052698E+03 -0.28977167899E+02  0.11274726980E+03  0.00000000000E+00 0.  1.
        -11    1    3    3    0    0  0.47337038679E+02 -0.10278602627E+03 -0.10293978186E+03  0.15297830277E+03  0.00000000000E+00 0. -1.
         11    1    3    3    0    0  0.15203115879E+02  0.33469954590E+02 -0.41853672912E+02  0.55705498193E+02  0.00000000000E+00 0.  1.
         -1    1    1    2    0  502  0.37658308772E+02 -0.43332040969E+02  0.22737575066E+03  0.23451129180E+03  0.00000000000E+00 0.  1.
<scales pt_clust_5="13000.00000" pt_clust_6="13000.00000" pt_clust_7="13000.00000" pt_clust_8="13000.00000" pt_clust_9="57.40918"></scales>
<clustering>
<clus scale="   57.409">  1  9  2 -1</clus>
<clus scale="   85.279">  5  6 -1 -1</clus>
<clus scale="  117.762">  7  8 -1 -1</clus>
<clus scale="  140.039">  1  5  2 -1</clus>
<clus scale="   57.409">  1  5  2 -1</clus>
</clustering>
</event>
<event>
 9    1  0.1671478E-005  0.1771170E+03  0.7546771E-02  0.1170686E+00
         21   -1    0    0  501  502  0.00000000000E+00  0.00000000000E+00  0.60994575666E+02  0.60994575666E+02  0.00000000000E+00 0.  1.
          2   -1    0    0  502    0 -0.00000000000E+00 -0.00000000000E+00 -0.73470603153E+03  0.73470603153E+03  0.00000000000E+00 0. -1.
         23    2    1    2    0    0  0.12671462067E+03  0.44097282059E+02 -0.33505647586E+03  0.37220949321E+03  0.90971970669E+02 0.  0.
         23    2    1    2    0    0 -0.17141460154E+03 -0.62560052523E+02 -0.29406044355E+03  0.35770635234E+03  0.90474108190E+02 0.  0.
        -11    1    3    3    0    0  0.45026260442E+02  0.54592585441E+02 -0.21712524774E+03  0.22836612648E+03  0.00000000000E+00 0. -1.
         11    1    3    3    0    0  0.81688360224E+02 -0.10495303382E+02 -0.11793122812E+03  0.14384336674E+03  0.00000000000E+00 0.  1.
        -13    1    4    4    0    0 -0.15025017496E+03 -0.83856391839E+02 -0.23283588078E+03  0.28951607366E+03  0.00000000000E+00 0.  1.
         13    1    4    4    0    0 -0.21164426576E+02  0.21296339315E+02 -0.61224562768E+02  0.68190278681E+02  0.00000000000E+00 0. -1.
          2    1    1    2  501    0  0.44699980869E+02  0.18462770464E+02 -0.44594536461E+02  0.65784761648E+02  0.00000000000E+00 0. -1.
<scales pt_clust_5="13000.00000" pt_clust_6="13000.00000" pt_clust_7="13000.00000" pt_clust_8="13000.00000" pt_clust_9="48.36282"></scales>
<clustering>
<clus scale="   48.363">  1  9  2 -1</clus>
<clus scale="   90.474">  7  8 -1 -1</clus>
<clus scale="   90.972">  5  6 -1 -1</clus>
<clus scale="  176.862">  1  7  2 -1</clus>
<clus scale="   48.363">  1  5  2 -1</clus>
</clustering>
</event>
<event>
 9    1  0.1671478E-005  0.9752263E+02  0.7546771E-02  0.1287494E+00
          2   -1    0    0  502    0 -0.00000000000E+00  0.00000000000E+00  0.65443417542E+03  0.65443417542E+03  0.00000000000E+00 0. -1.
         21   -1    0    0  501  502  0.00000000000E+00 -0.00000000000E+00 -0.24063412116E+02  0.24063412116E+02  0.00000000000E+00 0.  1.
         23    2    1    2    0    0 -0.14635095252E+02  0.75865474472E+01  0.31954470007E+03  0.33248402824E+03  0.90360787812E+02 0.  0.
         23    2    1    2    0    0  0.24912652628E+02 -0.31526791587E+02  0.30150603198E+03  0.31834360343E+03  0.93926480182E+02 0.  0.
        -11    1    3    3    0    0  0.24695312561E+02 -0.16020422967E+02  0.42690916816E+02  0.51855826993E+02  0.00000000000E+00 0.  1.
         11    1    3    3    0    0 -0.39330407813E+02  0.23606970414E+02  0.27685378325E+03  0.28062820124E+03  0.00000000000E+00 0. -1.
        -13    1    4    4    0    0 -0.28564280245E+02 -0.28961500476E+01  0.36261985305E+02  0.46251890440E+02  0.00000000000E+00 0. -1.
         13    1    4    4    0    0  0.53476932873E+02 -0.28630641539E+02  0.26524404667E+03  0.27209171299E+03  0.00000000000E+00 0.  1.
          2    1    1    2  501    0 -0.10277557376E+02  0.23940244140E+02  0.93200312593E+01  0.27669955869E+02  0.00000000000E+00 0. -1.
<scales pt_clust_5="13000.00000" pt_clust_6="13000.00000" pt_clust_7="13000.00000" pt_clust_8="13000.00000" pt_clust_9="26.05309"></scales>
<clustering>
<clus scale="   26.053">  2  9  1 -1</clus>
<clus scale="   90.361">  5  6 -1 -1</clus>
<clus scale="   93.926">  7  8 -1 -1</clus>
<clus scale="   94.093">  1  5  2 -1</clus>
<clus scale="   26.053">  2  5  1 -1</clus>
</clustering>
</event>
<event>
 9    1  0.1671478E-005  0.1249266E+03  0.7546771E-02  0.1235477E+00
         21   -1    0    0  501  502  0.00000000000E+00  0.00000000000E+00  0.11274054957E+03  0.11274054957E+03  0.00000000000E+00 0. -1.
         -3   -1    0    0    0  501 -0.00000000000E+00 -0.00000000000E+00 -0.30997364398E+03  0.30997364398E+03  0.00000000000E+00 0.  1.
         23    2    1    2    0    0 -0.82379562746E+02  0.28957750785E+02 -0.22316693017E+03  0.25587752768E+03  0.89693292733E+02 0.  0.
         23    2    1    2    0    0  0.71718460514E+02 -0.50589704656E+02  0.48468174867E+02  0.13383065175E+03  0.88648878042E+02 0.  0.
        -11    1    3    3    0    0 -0.30268888844E+02 -0.70301080508E+01 -0.17108035884E+03  0.17387960556E+03  0.00000000000E+00 0.  1.
         11    1    3    3    0    0 -0.52110673902E+02  0.35987858836E+02 -0.52086571331E+02  0.81997922115E+02  0.00000000000E+00 0. -1.
        -13    1    4    4    0    0  0.42082551238E+02  0.14459947836E+02 -0.46971354417E+01  0.44744768314E+02  0.00000000000E+00 0.  1.
         13    1    4    4    0    0  0.29635909275E+02 -0.65049652492E+02  0.53165310309E+02  0.89085883439E+02  0.00000000000E+00 0. -1.
         -3    1    1    2    0  502  0.10661102232E+02  0.21631953871E+02 -0.22534339113E+02  0.33006014124E+02  0.00000000000E+00 0.  1.
<scales pt_clust_5="13000.00000" pt_clust_6="13000.00000" pt_clust_7="13000.00000" pt_clust_8="13000.00000" pt_clust_9="24.11641"></scales>
<clustering>
<clus scale="   24.116">  1  9  2 -1</clus>
<clus scale="   88.649">  7  8 -1 -1</clus>
<clus scale="   89.693">  5  6 -1 -1</clus>
<clus scale="  124.179">  1  7  2 -1</clus>
<clus scale="   24.116">  1  5  2 -1</clus>
</clustering>
</event>
<event>
 9    1  0.1671478E-005  0.1061619E+03  0.7546771E-02  0.1269928E+00
         21   -1    0    0  501  502  0.00000000000E+00  0.00000000000E+00  0.36125151911E+02  0.36125151911E+02  0.00000000000E+00 0.  1.
         -4   -1    0    0    0  501 -0.00000000000E+00 -0.00000000000E+00 -0.46027020696E+03  0.46027020696E+03  0.00000000000E+00 0.  1.
         23    2    1    2    0    0 -0.51198502677E+02  0.37900439487E+02 -0.27641631737E+03  0.29875618412E+03  0.93763250008E+02 0.  0.
         23    2    1    2    0    0  0.23873864188E+02 -0.19256472552E+02 -0.12880344406E+03  0.15952880726E+03  0.88985055018E+02 0.  0.
        -11    1    3    3    0    0 -0.15774503277E+02  0.65554817834E+02 -0.14609283816E+03  0.16090179134E+03  0.00000000000E+00 0.  1.
         11    1    3    3    0    0 -0.35423999401E+02 -0.27654378347E+02 -0.13032347922E+03  0.13785439279E+03  0.00000000000E+00 0. -1.
        -11    1    4    4    0    0 -0.26348130540E+02 -0.83936479286E+01 -0.88518929390E+01  0.29035036027E+02  0.00000000000E+00 0. -1.
         11    1    4    4    0    0  0.50221994728E+02 -0.10862824623E+02 -0.11995155112E+03  0.13049377123E+03  0.00000000000E+00 0.  1.
         -4    1    1    2    0  502  0.27324638489E+02 -0.18643966936E+02 -0.18925293611E+02  0.38110367487E+02  0.00000000000E+00 0.  1.
<scales pt_clust_5="13000.00000" pt_clust_6="13000.00000" pt_clust_7="13000.00000" pt_clust_8="13000.00000" pt_clust_9="33.07920"></scales>
<clustering>
<clus scale="   33.079">  1  9  2 -1</clus>
<clus scale="   88.985">  7  8 -1 -1</clus>
<clus scale="   93.763">  5  6 -1 -1</clus>
<clus scale="  101.966">  1  7  2 -1</clus>
<clus scale="   33.079">  1  5  2 -1</clus>
</clustering>
</event>
<event>
 9    1  0.1671478E-005  0.9433453E+02  0.7546771E-02  0.1293033E+00
          2   -1    0    0  502    0 -0.00000000000E+00  0.00000000000E+00  0.28656868889E+03  0.28656868889E+03  0.00000000000E+00 0. -1.
         21   -1    0    0  501  502  0.00000000000E+00 -0.00000000000E+00 -0.10185962623E+03  0.10185962623E+03  0.00000000000E+00 0.  1.
         23    2    1    2    0    0  0.43070060701E+00  0.18319236390E+02  0.19948715104E+03  0.22005073684E+03  0.91057253570E+02 0.  0.
         23    2    1    2    0    0  0.75618316005E+01 -0.46371802497E+02  0.37445380980E+02  0.10856020799E+03  0.90419228260E+02 0.  0.
        -11    1    3    3    0    0 -0.14835342615E+02 -0.33263761964E+02  0.10733361696E+03  0.11334491864E+03  0.00000000000E+00 0.  1.
         11    1    3    3    0    0  0.15266043222E+02  0.51582998354E+02  0.92153534081E+02  0.10670581820E+03  0.00000000000E+00 0. -1.
        -13    1    4    4    0    0 -0.24081321849E+02 -0.57257899715E+02  0.56032867914E+01  0.62368052436E+02  0.00000000000E+00 0.  1.
         13    1    4    4    0    0  0.31643153450E+02  0.10886097218E+02  0.31842094189E+02  0.46192155559E+02  0.00000000000E+00 0. -1.
          2    1    1    2  501    0 -0.79925322075E+01  0.28052566107E+02 -0.52223469356E+02  0.59817370286E+02  0.00000000000E+00 0. -1.
<scales pt_clust_5="13000.00000" pt_clust_6="13000.00000" pt_clust_7="13000.00000" pt_clust_8="13000.00000" pt_clust_9="29.16894"></scales>
<clustering>
<clus scale="   29.169">  2  9  1 -1</clus>
<clus scale="   90.419">  7  8 -1 -1</clus>
<clus scale="   91.057">  5  6 -1 -1</clus>
<clus scale="   93.719">  2  7  1 -1</clus>
<clus scale="   29.169">  2  5  1 -1</clus>
</clustering>
</event>
<event>
 9    1  0.1671478E-005  0.1672735E+03  0.7546771E-02  0.1180845E+00
         21   -1    0    0  501  502  0.00000000000E+00  0.00000000000E+00  0.31645929026E+03  0.31645929026E+03  0.00000000000E+00 0.  1.
          3   -1    0    0  502    0 -0.00000000000E+00 -0.00000000000E+00 -0.12070642686E+03  0.12070642686E+03  0.00000000000E+00 0. -1.
         23    2    1    2    0    0 -0.50852652517E+02 -0.11832501133E+03  0.47959646744E+02  0.16545516133E+03  0.92132958922E+02 0.  0.
         23    2    1    2    0    0  0.79881418307E+02  0.13206420329E+03  0.79319670379E+02  0.19607946973E+03  0.91288299135E+02 0.  0.
        -13    1    4    4    0    0  0.51286191907E+02  0.95019385882E+02  0.97878198656E+02  0.14573640227E+03  0.00000000000E+00 0.  1.
         13    1    4    4    0    0  0.28595226400E+02  0.37044817405E+02 -0.18558528277E+02  0.50343067460E+02  0.00000000000E+00 0. -1.
        -13    1    3    3    0    0 -0.57771567087E+02 -0.83263383893E+02 -0.51129981204E+01  0.10147161086E+03  0.00000000000E+00 0.  1.
         13    1    3    3    0    0  0.69189145696E+01 -0.35061627436E+02  0.53072644864E+02  0.63983550466E+02  0.00000000000E+00 0. -1.
          3    1    1    2  501    0 -0.29028765790E+02 -0.13739191958E+02  0.68473546277E+02  0.75631086060E+02  0.00000000000E+00 0. -1.
<scales pt_clust_5="13000.00000" pt_clust_6="13000.00000" pt_clust_7="13000.00000" pt_clust_8="13000.00000" pt_clust_9="32.11596"></scales>
<clustering>
<clus scale="   32.116">  1  9  2 -1</clus>
<clus scale="   91.288">  5  6 -1 -1</clus>
<clus scale="   92.133">  7  8 -1 -1</clus>
<clus scale="  166.810">  1  5  2 -1</clus>
<clus scale="   32.116">  1  5  2 -1</clus>
</clustering>
</event>
<event>
 9    1  0.1671478E-005  0.1312519E+03  0.7546771E-02  0.1227704E+00
         21   -1    0    0  501  502  0.00000000000E+00  0.00000000000E+00  0.60721671334E+02  0.60721671334E+02  0.00000000000E+00 0. -1.
          3   -1    0    0  502    0 -0.00000000000E+00 -0.00000000000E+00 -0.40273019345E+03  0.40273019345E+03  0.00000000000E+00 0. -1.
         23    2    1    2    0    0 -0.74375789948E+00 -0.75555096499E+02 -0.15461340656E+03  0.19413927044E+03  0.89864481619E+02 0.  0.
         23    2    1    2    0    0  0.32792092468E+02  0.10119818930E+03 -0.17417013612E+03  0.22618993165E+03  0.97520531261E+02 0.  0.
        -11    1    3    3    0    0  0.34036876727E+02  0.18547508622E+00 -0.46718599603E+02  0.57802862621E+02  0.00000000000E+00 0.  1.
         11    1    3    3    0    0 -0.34780634626E+02 -0.75740571585E+02 -0.10789480696E+03  0.13633640782E+03  0.00000000000E+00 0. -1.
        -11    1    4    4    0    0  0.65501705919E+02  0.69306884216E+02 -0.93911851432E+02  0.13384077674E+03  0.00000000000E+00 0.  1.
         11    1    4    4    0    0 -0.32709613451E+02  0.31891305082E+02 -0.80258284684E+02  0.92349154909E+02  0.00000000000E+00 0. -1.
          3    1    1    2  501    0 -0.32048334568E+02 -0.25643092800E+02 -0.13224979438E+02  0.43122662697E+02  0.00000000000E+00 0. -1.
<scales pt_clust_5="13000.00000" pt_clust_6="13000.00000" pt_clust_7="13000.00000" pt_clust_8="13000.00000" pt_clust_9="41.04466"></scales>
<clustering>
<clus scale="   41.045">  1  9  2 -1</clus>
<clus scale="   89.864">  5  6 -1 -1</clus>
<clus scale="   97.521">  7  8 -1 -1</clus>
<clus scale="  125.668">  2  5  1 -1</clus>
<clus scale="   41.045">  1  5  2 -1</clus>
</clustering>
</event>
<event>
 9    1  0.1671478E-005  0.2048747E+03  0.7546771E-02  0.1178927E+00
          2   -1    0    0  502    0 -0.00000000000E+00  0.00000000000E+00  0.14428820171E+03  0.14428820171E+03  0.00000000000E+00 0. -1.
         21   -1    0    0  501  502  0.00000000000E+00 -0.00000000000E+00 -0.49828593842E+03  0.49828593842E+03  0.00000000000E+00 0. -1.
         23    2    1    2    0    0  0.24066057148E+02 -0.13268597700E+02  0.24240841763E+02  0.97842069390E+02  0.90720567357E+02 0.  0.
         23    2    1    2    0    0 -0.51786029315E+02  0.18533566718E+03 -0.25021845346E+03  0.32848076863E+03  0.90880352953E+02 0.  0.
        -11    1    4    4    0    0 -0.39860465810E+02  0.17236346935E+02 -0.39894132634E+02  0.58970248507E+02  0.00000000000E+00 0.  1.
         11    1    4    4    0    0 -0.11925563505E+02  0.16809932024E+03 -0.21032432082E+03  0.26951052013E+03  0.00000000000E+00 0. -1.
        -13    1    3    3    0    0  0.52420763168E+02 -0.29218391013E+02  0.25680495066E+02  0.65277397400E+02  0.00000000000E+00 0. -1.
         13    1    3    3    0    0 -0.28354706019E+02  0.15949793314E+02 -0.14396533027E+01  0.32564671990E+02  0.00000000000E+00 0.  1.
          2    1    1    2  501    0  0.27719972167E+02 -0.17206706948E+03 -0.12802012501E+03  0.21625130211E+03  0.00000000000E+00 0. -1.
<scales pt_clust_5="13000.00000" pt_clust_6="13000.00000" pt_clust_7="13000.00000" pt_clust_8="13000.00000" pt_clust_9="183.61494"></scales>
<clustering>
<clus scale="   90.721">  7  8 -1 -1</clus>
<clus scale="   90.880">  5  6 -1 -1</clus>
<clus scale="   94.792">  1  7  2 -1</clus>
<clus scale="  183.615">  2  9  1 -1</clus>
<clus scale="  183.615">  2  5  1 -1</clus>
</clustering>
</event>
<event>
 9    1  0.1671478E-005  0.1177233E+03  0.7546771E-02  0.1247667E+00
         -1   -1    0    0    0  501 -0.00000000000E+00  0.00000000000E+00  0.11202130060E+03  0.11202130060E+03  0.00000000000E+00 0.  1.
         21   -1    0    0  501  502  0.00000000000E+00 -0.00000000000E+00 -0.17028550212E+03  0.17028550212E+03  0.00000000000E+00 0.  1.
         23    2    1    2    0    0  0.58957518514E+02  0.62061416397E+02 -0.24431278386E+02  0.12943978117E+03  0.93968937372E+02 0.  0.
         23    2    1    2    0    0 -0.47879716676E+02 -0.29986894958E+02 -0.45577228868E+02  0.11695850813E+03  0.91707838786E+02 0.  0.
        -11    1    3    3    0    0  0.84683394770E+02  0.52374625174E+02 -0.17599603534E+02  0.10111441419E+03  0.00000000000E+00 0.  1.
         11    1    3    3    0    0 -0.25725876256E+02  0.96867912229E+01 -0.68316748518E+01  0.28325366981E+02  0.00000000000E+00 0. -1.
        -11    1    4    4    0    0  0.21229435021E+02  0.12893247504E+02 -0.19406085647E+02  0.31520166602E+02  0.00000000000E+00 0.  1.
         11    1    4    4    0    0 -0.69109151697E+02 -0.42880142461E+02 -0.26171143221E+02  0.85438341529E+02  0.00000000000E+00 0. -1.
         -1    1    1    2    0  502 -0.11077801838E+02 -0.32074521439E+02  0.11744305732E+02  0.35908513423E+02  0.00000000000E+00 0.  1.
<scales pt_clust_5="13000.00000" pt_clust_6="13000.00000" pt_clust_7="13000.00000" pt_clust_8="13000.00000" pt_clust_9="33.93367"></scales>
<clustering>
<clus scale="   33.934">  2  9  1 -1</clus>
<clus scale="   91.708">  7  8 -1 -1</clus>
<clus scale="   93.969">  5  6 -1 -1</clus>
<clus scale="  115.926">  2  7  1 -1</clus>
<clus scale="   33.934">  2  5  1 -1</clus>
</clustering>
</event>
<event>
 9    1  0.1671478E-005  0.1424446E+03  0.7546771E-02  0.1210863E+00
          2   -1    0    0  502    0 -0.00000000000E+00  0.00000000000E+00  0.33135676689E+03  0.33135676689E+03  0.00000000000E+00 0. -1.
         21   -1    0    0  501  502  0.00000000000E+00 -0.00000000000E+00 -0.16892029412E+03  0.16892029412E+03  0.00000000000E+00 0. -1.
         23    2    1    2    0    0  0.82572079290E+02  0.42585015719E+01  0.99989187536E+02  0.15610701037E+03  0.86805978769E+02 0.  0.
         23    2    1    2    0    0 -0.15596345366E+03  0.64074386548E+02  0.12253692359E+03  0.22726649181E+03  0.90579438980E+02 0.  0.
        -13    1    4    4    0    0 -0.96912079784E+02  0.82222518262E+01  0.25231497429E+02  0.10047977456E+03  0.00000000000E+00 0. -1.
         13    1    4    4    0    0 -0.59051373877E+02  0.55852134721E+02  0.97305426162E+02  0.12678671725E+03  0.00000000000E+00 0.  1.
        -13    1    3    3    0    0  0.33140130933E+02 -0.20726178513E+02 -0.29647788064E+01  0.39199906472E+02  0.00000000000E+00 0.  1.
         13    1    3    3    0    0  0.49431948357E+02  0.24984680085E+02  0.10295396634E+03  0.11690710390E+03  0.00000000000E+00 0. -1.
          2    1    1    2  501    0  0.73391374370E+02 -0.68332888119E+02 -0.60089638355E+02  0.11690355884E+03  0.00000000000E+00 0. -1.
<scales pt_clust_5="13000.00000" pt_clust_6="13000.00000" pt_clust_7="13000.00000" pt_clust_8="13000.00000" pt_clust_9="100.27800"></scales>
<clustering>
<clus scale="   86.806">  7  8 -1 -1</clus>
<clus scale="   90.579">  5  6 -1 -1</clus>
<clus scale="  100.278">  2  9  1 -1</clus>
<clus scale="  140.075">  1  7  2 -1</clus>
<clus scale="  100.278">  2  5  1 -1</clus>
</clustering>
</event>
<event>
 9    1  0.1671478E-005  0.1681653E+03  0.7546771E-02  0.1179783E+00
          1   -1    0    0  502    0 -0.00000000000E+00  0.00000000000E+00  0.10276279032E+04  0.10276279032E+04  0.00000000000E+00 0. -1.
         21   -1    0    0  501  502  0.00000000000E+00 -0.00000000000E+00 -0.60617013474E+02  0.60617013474E+02  0.00000000000E+00 0. -1.
         23    2    1    2    0    0 -0.65794680542E+01  0.12570538121E+03  0.58962098368E+03  0.61011635761E+03  0.93509000436E+02 0.  0.
         23    2    1    2    0    0 -0.13082050928E+02 -0.17258155888E+03  0.37926628292E+03  0.42726135796E+03  0.93561851845E+02 0.  0.
        -11    1    3    3    0    0 -0.39002502953E+02  0.98916926246E+02  0.49912038285E+03  0.51032039946E+03  0.00000000000E+00 0. -1.
         11    1    3    3    0    0  0.32423034899E+02  0.26788454964E+02  0.90500600834E+02  0.99795958148E+02  0.00000000000E+00 0.  1.
        -11    1    4    4    0    0 -0.33872415026E+02 -0.36957986329E+02  0.16824561084E+03  0.17555574277E+03  0.00000000000E+00 0.  1.
         11    1    4    4    0    0  0.20790364098E+02 -0.13562357255E+03  0.21102067209E+03  0.25170561519E+03  0.00000000000E+00 0. -1.
          1    1    1    2  501    0  0.19661518982E+02  0.46876177668E+02 -0.18763768450E+01  0.50867201137E+02  0.00000000000E+00 0. -1.
<scales pt_clust_5="13000.00000" pt_clust_6="13000.00000" pt_clust_7="13000.00000" pt_clust_8="13000.00000" pt_clust_9="50.83258"></scales>
<clustering>
<clus scale="   50.833">  2  9  1 -1</clus>
<clus scale="   93.509">  5  6 -1 -1</clus>
<clus scale="   93.562">  7  8 -1 -1</clus>
<clus scale="  168.136">  1  5  2 -1</clus>
<clus scale="   50.833">  2  5  1 -1</clus>
</clustering>
</event>
<event>
 9    1  0.1671478E-005  0.1203901E+03  0.7546771E-02  0.1242597E+00
          3   -1    0    0  502    0 -0.00000000000E+00  0.00000000000E+00  0.35063890388E+02  0.35063890388E+02  0.00000000000E+00 0. -1.
         21   -1    0    0  501  502  0.00000000000E+00 -0.00000000000E+00 -0.86979686779E+03  0.86979686779E+03  0.00000000000E+00 0.  1.
         23    2    1    2    0    0  0.10135804726E+02 -0.72263356571E+02 -0.10628281271E+03  0.15803506063E+03  0.91401952221E+02 0.  0.
         23    2    1    2    0    0 -0.41104008369E+01  0.98234798794E+02 -0.54061391923E+03  0.55710675697E+03  0.91856180589E+02 0.  0.
        -11    1    3    3    0    0 -0.30838219377E+02 -0.45236935364E+02 -0.19099985128E+02  0.57984355885E+02  0.00000000000E+00 0. -1.
         11    1    3    3    0    0  0.40974024104E+02 -0.27026421207E+02 -0.87182827580E+02  0.10005070474E+03  0.00000000000E+00 0.  1.
        -13    1    4    4    0    0  0.38753256742E+02  0.50697697872E+02 -0.35693887014E+03  0.36259816394E+03  0.00000000000E+00 0.  1.
         13    1    4    4    0    0 -0.42863657579E+02  0.47537100922E+02 -0.18367504909E+03  0.19450859303E+03  0.00000000000E+00 0. -1.
          3    1    1    2  501    0 -0.60254038896E+01 -0.25971442223E+02 -0.18783624546E+03  0.18971894058E+03  0.00000000000E+00 0. -1.
<scales pt_clust_5="13000.00000" pt_clust_6="13000.00000" pt_clust_7="13000.00000" pt_clust_8="13000.00000" pt_clust_9="26.66123"></scales>
<clustering>
<clus scale="   26.661">  2  9  1 -1</clus>
<clus scale="   91.402">  5  6 -1 -1</clus>
<clus scale="   91.856">  7  8 -1 -1</clus>
<clus scale="  120.044">  1  5  2 -1</clus>
<clus scale="   26.661">  2  5  1 -1</clus>
</clustering>
</event>
<event>
 9    1  0.1671478E-005  0.1475412E+03  0.7546771E-02  0.1204239E+00
         -4   -1    0    0    0  501 -0.00000000000E+00  0.00000000000E+00  0.50328245938E+03  0.50328245938E+03  0.00000000000E+00 0.  1.
         21   -1    0    0  501  502  0.00000000000E+00 -0.00000000000E+00 -0.12474995731E+03  0.12474995731E+03  0.00000000000E+00 0.  1.
         23    2    1    2    0    0 -0.10626670068E+03  0.50596197207E+02  0.35366224069E+03  0.38393041151E+03  0.92048865001E+02 0.  0.
         23    2    1    2    0    0  0.95877442301E+02 -0.30098154229E+02  0.96455021595E+02  0.16891899945E+03  0.95559794658E+02 0.  0.
        -13    1    4    4    0    0  0.14631139313E+02 -0.52205139298E+02  0.42823201947E+02  0.69088880667E+02  0.00000000000E+00 0.  1.
         13    1    4    4    0    0  0.81246302988E+02  0.22106985070E+02  0.53631819648E+02  0.99830118786E+02  0.00000000000E+00 0. -1.
        -13    1    3    3    0    0 -0.19437459688E+00 -0.21098864767E+02  0.42201576310E+02  0.47182336938E+02  0.00000000000E+00 0. -1.
         13    1    3    3    0    0 -0.10607232609E+03  0.71695061974E+02  0.31146066438E+03  0.33674807457E+03  0.00000000000E+00 0.  1.
         -4    1    1    2    0  502  0.10389258383E+02 -0.20498042978E+02 -0.71584760211E+02  0.75183005727E+02  0.00000000000E+00 0.  1.
<scales pt_clust_5="13000.00000" pt_clust_6="13000.00000" pt_clust_7="13000.00000" pt_clust_8="13000.00000" pt_clust_9="22.98057"></scales>
<clustering>
<clus scale="   22.981">  2  9  1 -1</clus>
<clus scale="   92.049">  7  8 -1 -1</clus>
<clus scale="   95.560">  5  6 -1 -1</clus>
<clus scale="  145.292">  1  7  2 -1</clus>
<clus scale="   22.981">  2  5  1 -1</clus>
</clustering>
</event>
<event>
 9    1  0.1671478E-005  0.1271867E+03  0.7546771E-02  0.1232649E+00
         21   -1    0    0  501  502  0.00000000000E+00  0.00000000000E+00  0.54445104288E+03  0.54445104288E+03  0.00000000000E+00 0.  1.
         -2   -1    0    0    0  501 -0.00000000000E+00 -0.00000000000E+00 -0.74284108987E+02  0.74284108987E+02  0.00000000000E+00 0.  1.
         23    2    1    2    0    0  0.17729362542E+02 -0.93087752570E+02  0.20765649600E+02  0.13281905867E+03  0.90719513706E+02 0.  0.
         23    2    1    2    0    0  0.37109674083E+02  0.59534189443E+02  0.24541639347E+03  0.27203996732E+03  0.94101487838E+02 0.  0.
        -11    1    4    4    0    0  0.30050658895E+02 -0.48916007039E+01  0.17563881941E+02  0.35149108187E+02  0.00000000000E+00 0. -1.
         11    1    4    4    0    0  0.70590151876E+01  0.64425790147E+02  0.22785251153E+03  0.23689085914E+03  0.00000000000E+00 0.  1.
        -13    1    3    3    0    0 -0.22270900971E+02  0.64348753642E+01  0.91856753221E+01  0.24935462340E+02  0.00000000000E+00 0. -1.
         13    1    3    3    0    0  0.40000263513E+02 -0.99522627935E+02  0.11579974278E+02  0.10788359633E+03  0.00000000000E+00 0.  1.
         -2    1    1    2    0  502 -0.54839036625E+02  0.33553563128E+02  0.20398489082E+03  0.21387612587E+03  0.00000000000E+00 0.  1.
<scales pt_clust_5="13000.00000" pt_clust_6="13000.00000" pt_clust_7="13000.00000" pt_clust_8="13000.00000" pt_clust_9="64.28967"></scales>
<clustering>
<clus scale="   64.290">  1  9  2 -1</clus>
<clus scale="   90.720">  7  8 -1 -1</clus>
<clus scale="   94.101">  5  6 -1 -1</clus>
<clus scale="  124.705">  2  7  1 -1</clus>
<clus scale="   64.290">  1  5  2 -1</clus>
</clustering>
</event>
<event>
 9    1  0.1671478E-005  0.9490419E+02  0.7546771E-02  0.1293069E+00
         21   -1    0    0  501  502  0.00000000000E+00  0.00000000000E+00  0.69199828110E+03  0.69199828110E+03  0.00000000000E+00 0.  1.
         -1   -1    0    0    0  501 -0.00000000000E+00 -0.00000000000E+00 -0.75259906923E+02  0.75259906923E+02  0.00000000000E+00 0.  1.
         23    2    1    2    0    0 -0.27368914569E+01 -0.18232491818E+02 -0.17866597394E+02  0.96127944172E+02  0.92636126946E+02 0.  0.
         23    2    1    2    0    0 -0.88352801403E+02  0.30994236329E+02  0.33127367481E+03  0.35416010352E+03  0.83188166825E+02 0.  0.
        -11    1    4    4    0    0 -0.44293304415E+02 -0.15283988646E+02  0.22762979139E+03  0.23240227851E+03  0.00000000000E+00 0. -1.
         11    1    4    4    0    0 -0.44059496988E+02  0.46278224975E+02  0.10364388341E+03  0.12175782501E+03  0.00000000000E+00 0.  1.
        -13    1    3    3    0    0 -0.62279505274E+01  0.35617770368E+02  0.68038206363E+01  0.36792729023E+02  0.00000000000E+00 0.  1.
         13    1    3    3    0    0  0.34910590705E+01 -0.53850262186E+02 -0.24670418031E+02  0.59335215149E+02  0.00000000000E+00 0. -1.
         -1    1    1    2    0  502  0.91089692860E+02 -0.12761744511E+02  0.30333129676E+03  0.31697014034E+03  0.00000000000E+00 0.  1.
<scales pt_clust_5="13000.00000" pt_clust_6="13000.00000" pt_clust_7="13000.00000" pt_clust_8="13000.00000" pt_clust_9="91.97931"></scales>
<clustering>
<clus scale="   83.188">  5  6 -1 -1</clus>
<clus scale="   91.979">  1  9  2 -1</clus>
<clus scale="   91.979">  1  5  2 -1</clus>
<clus scale="   92.636">  7  8 -1 -1</clus>
<clus scale="   91.979">  1  5  2 -1</clus>
</clustering>
</event>
<event>
 9    1  0.1671478E-005  0.9524560E+02  0.7546771E-02  0.1309412E+00
         21   -1    0    0  501  502  0.00000000000E+00  0.00000000000E+00  0.99673182572E+02  0.99673182572E+02  0.00000000000E+00 0. -1.
          1   -1    0    0  502    0 -0.00000000000E+00 -0.00000000000E+00 -0.29312111978E+03  0.29312111978E+03  0.00000000000E+00 0. -1.
         23    2    1    2    0    0 -0.46705528269E+01  0.25990884737E+02 -0.14451754041E+03  0.15913712729E+03  0.61171608145E+02 0.  0.
         23    2    1    2    0    0 -0.17744223980E+02 -0.33244367391E+02 -0.12205945713E+03  0.15682687704E+03  0.90973143519E+02 0.  0.
        -11    1    4    4    0    0  0.23738274971E+02 -0.40528482085E+02 -0.30384335681E+02  0.55939891075E+02  0.00000000000E+00 0. -1.
         11    1    4    4    0    0 -0.41482498951E+02  0.72841146939E+01 -0.91675121445E+02  0.10088698597E+03  0.00000000000E+00 0.  1.
        -13    1    3    3    0    0 -0.29798142776E+02  0.26561168550E+02 -0.71135858380E+02  0.81570431745E+02  0.00000000000E+00 0.  1.
         13    1    3    3    0    0  0.25127589950E+02 -0.57028381257E+00 -0.73381682028E+02  0.77566695544E+02  0.00000000000E+00 0. -1.
          1    1    1    2  501    0  0.22414776807E+02  0.72534826540E+01  0.73129060324E+02  0.76830298020E+02  0.00000000000E+00 0. -1.
<scales pt_clust_5="13000.00000" pt_clust_6="13000.00000" pt_clust_7="13000.00000" pt_clust_8="13000.00000" pt_clust_9="23.55919"></scales>
<clustering>
<clus scale="   23.559">  1  9  2 -1</clus>
<clus scale="   61.172">  7  8 -1 -1</clus>
<clus scale="   67.362">  2  7  1 -1</clus>
<clus scale="   90.973">  5  6 -1 -1</clus>
<clus scale="   23.559">  1  5  2 -1</clus>
</clustering>
</event>
<event>
 9    1  0.1671478E-005  0.1671240E+03  0.7546771E-02  0.1204911E+00
          2   -1    0    0  502    0 -0.00000000000E+00  0.00000000000E+00  0.16431118002E+04  0.16431118002E+04  0.00000000000E+00 0. -1.
         21   -1    0    0  501  502  0.00000000000E+00 -0.00000000000E+00 -0.31945043013E+02  0.31945043013E+02  0.00000000000E+00 0. -1.
         23    2    1    2    0    0 -0.33678092187E+02 -0.17713133028E+02  0.36955904823E+03  0.38246919653E+03  0.90889092802E+02 0.  0.
         23    2    1    2    0    0  0.16286714673E+03  0.61218984714E+02  0.96656607506E+03  0.98561782517E+03  0.83180816690E+02 0.  0.
        -11    1    3    3    0    0 -0.21028279266E+02 -0.48570834548E+02  0.30745272940E+03  0.31197515175E+03  0.00000000000E+00 0.  1.
         11    1    3    3    0    0 -0.12649812920E+02  0.30857701520E+02  0.62106318835E+02  0.70494044779E+02  0.00000000000E+00 0. -1.
        -13    1    4    4    0    0  0.11766000023E+03  0.18183254410E+01  0.62649761316E+03  0.63745308945E+03  0.00000000000E+00 0. -1.
         13    1    4    4    0    0  0.45207146495E+02  0.59400659273E+02  0.34006846191E+03  0.34816473572E+03  0.00000000000E+00 0.  1.
          2    1    1    2  501    0 -0.12918905454E+03 -0.43505851686E+02  0.27504163391E+03  0.30696982153E+03  0.00000000000E+00 0. -1.
<scales pt_clust_5="13000.00000" pt_clust_6="13000.00000" pt_clust_7="13000.00000" pt_clust_8="13000.00000" pt_clust_9="144.95299"></scales>
<clustering>
<clus scale="   83.181">  7  8 -1 -1</clus>
<clus scale="   90.889">  5  6 -1 -1</clus>
<clus scale="   98.533">  1  5  2 -1</clus>
<clus scale="  144.953">  2  9  1 -1</clus>
<clus scale="  144.953">  2  5  1 -1</clus>
</clustering>
</event>
<event>
 9    1  0.1671478E-005  0.2074378E+03  0.7546771E-02  0.1143755E+00
         -1   -1    0    0    0  501 -0.00000000000E+00  0.00000000000E+00  0.57387717781E+02  0.57387717781E+02  0.00000000000E+00 0.  1.
         21   -1    0    0  501  502  0.00000000000E+00 -0.00000000000E+00 -0.11193068838E+04  0.11193068838E+04  0.00000000000E+00 0. -1.
         23    2    1    2    0    0  0.14780612489E+03 -0.86584236750E+01 -0.40008325728E+03  0.43626537713E+03  0.91319481307E+02 0.  0.
         23    2    1    2    0    0 -0.22798945703E+03 -0.45668800609E+01 -0.44061618686E+03  0.50475478639E+03  0.92923201352E+02 0.  0.
        -11    1    3    3    0    0  0.80732328966E+02 -0.41797215318E+02 -0.28370183840E+03  0.29791181457E+03  0.00000000000E+00 0.  1.
         11    1    3    3    0    0  0.67073795924E+02  0.33138791643E+02 -0.11638141888E+03  0.13835356256E+03  0.00000000000E+00 0. -1.
        -13    1    4    4    0    0 -0.13131858530E+03 -0.89742421036E+01 -0.34260731333E+03  0.36702163289E+03  0.00000000000E+00 0. -1.
         13    1    4    4    0    0 -0.96670871726E+02  0.44073620427E+01 -0.98008873536E+02  0.13773315350E+03  0.00000000000E+00 0.  1.
         -1    1    1    2    0  502  0.80183332141E+02  0.13225303736E+02 -0.22121972192E+03  0.23567443811E+03  0.00000000000E+00 0.  1.
<scales pt_clust_5="13000.00000" pt_clust_6="13000.00000" pt_clust_7="13000.00000" pt_clust_8="13000.00000" pt_clust_9="81.26669"></scales>
<clustering>
<clus scale="   81.267">  2  9  1 -1</clus>
<clus scale="   91.319">  5  6 -1 -1</clus>
<clus scale="   92.923">  7  8 -1 -1</clus>
<clus scale="  206.724">  1  5  2 -1</clus>
<clus scale="   81.267">  2  5  1 -1</clus>
</clustering>
</event>
<event>
 9    1  0.1671478E-005  0.1348182E+03  0.7546771E-02  0.1221406E+00
         21   -1    0    0  501  502  0.00000000000E+00  0.00000000000E+00  0.86955157822E+02  0.86955157822E+02  0.00000000000E+00 0. -1.
          2   -1    0    0  502    0 -0.00000000000E+00 -0.00000000000E+00 -0.40279505972E+03  0.40279505972E+03  0.00000000000E+00 0. -1.
         23    2    1    2    0    0 -0.79768759267E+02 -0.76452742438E+02 -0.27636079420E+03  0.30996655531E+03  0.86578866111E+02 0.  0.
         23    2    1    2    0    0  0.62697543399E+02  0.46682383577E+02 -0.65838757642E+02  0.13651090148E+03  0.90500040503E+02 0.  0.
        -11    1    3    3    0    0 -0.39062452313E+02  0.13693002842E+02 -0.85974178425E+02  0.95419771868E+02  0.00000000000E+00 0.  1.
         11    1    3    3    0    0 -0.40706306954E+02 -0.90145745280E+02 -0.19038661577E+03  0.21454678344E+03  0.00000000000E+00 0. -1.
        -13    1    4    4    0    0  0.81633515479E+02  0.55038744815E+02 -0.58652213053E+02  0.11460094405E+03  0.00000000000E+00 0.  1.
         13    1    4    4    0    0 -0.18935972080E+02 -0.83563612380E+01 -0.71865445895E+01  0.21909957437E+02  0.00000000000E+00 0. -1.
          2    1    1    2  501    0  0.17071215868E+02  0.29770358861E+02  0.26359649945E+02  0.43272760752E+02  0.00000000000E+00 0. -1.
<scales pt_clust_5="13000.00000" pt_clust_6="13000.00000" pt_clust_7="13000.00000" pt_clust_8="13000.00000" pt_clust_9="34.31764"></scales>
<clustering>
<clus scale="   34.318">  1  9  2 -1</clus>
<clus scale="   86.579">  5  6 -1 -1</clus>
<clus scale="   90.500">  7  8 -1 -1</clus>
<clus scale="  132.218">  2  5  1 -1</clus>
<clus scale="   34.318">  1  5  2 -1</clus>
</clustering>
</event>
<event>
 9    1  0.1671478E-005  0.1112071E+03  0.7546771E-02  0.1259414E+00
         21   -1    0    0  501  502  0.00000000000E+00  0.00000000000E+00  0.78729525869E+02  0.78729525869E+02  0.00000000000E+00 0. -1.
         -4   -1    0    0    0  501 -0.00000000000E+00 -0.00000000000E+00 -0.22296467350E+03  0.22296467350E+03  0.00000000000E+00 0.  1.
         23    2    1    2    0    0  0.34095329105E+01  0.55758900283E+02 -0.82300992598E+02  0.13755241776E+03  0.95008075307E+02 0.  0.
         23    2    1    2    0    0 -0.34152981430E+02 -0.54079142217E+02 -0.69983989720E+02  0.13231756045E+03  0.92299502834E+02 0.  0.
        -13    1    4    4    0    0 -0.61875019094E+02 -0.16950967656E+02 -0.28793064618E+02  0.70319939295E+02  0.00000000000E+00 0.  1.
         13    1    4    4    0    0  0.27722037663E+02 -0.37128174561E+02 -0.41190925102E+02  0.61997621158E+02  0.00000000000E+00 0. -1.
        -13    1    3    3    0    0 -0.25678889926E+02  0.70495765226E+02 -0.70269210390E+02  0.10279503992E+03  0.00000000000E+00 0.  1.
         13    1    3    3    0    0  0.29088422836E+02 -0.14736864943E+02 -0.12031782208E+02  0.34757377843E+02  0.00000000000E+00 0. -1.
         -4    1    1    2    0  502  0.30743448520E+02 -0.16797580657E+01  0.80498346832E+01  0.31824221161E+02  0.00000000000E+00 0.  1.
<scales pt_clust_5="13000.00000" pt_clust_6="13000.00000" pt_clust_7="13000.00000" pt_clust_8="13000.00000" pt_clust_9="30.78930"></scales>
<clustering>
<clus scale="   30.789">  1  9  2 -1</clus>
<clus scale="   92.300">  5  6 -1 -1</clus>
<clus scale="   95.008">  7  8 -1 -1</clus>
<clus scale="  108.902">  1  5  2 -1</clus>
<clus scale="   30.789">  1  5  2 -1</clus>
</clustering>
</event>
<event>
 9    1  0.1671478E-005  0.1230842E+03  0.7546771E-02  0.1246811E+00
          1   -1    0    0  502    0 -0.00000000000E+00  0.00000000000E+00  0.43835456230E+02  0.43835456230E+02  0.00000000000E+00 0. -1.
         21   -1    0    0  501  502  0.00000000000E+00 -0.00000000000E+00 -0.42651017120E+03  0.42651017120E+03  0.00000000000E+00 0.  1.
         23    2    1    2    0    0 -0.24557340833E+02  0.42019019884E+02 -0.89327110397E+02  0.13839325706E+03  0.93833362550E+02 0.  0.
         23    2    1    2    0    0  0.32916150027E+01 -0.35050432120E+02 -0.18170355540E+03  0.21808759958E+03  0.11535446036E+03 0.  0.
        -11    1    3    3    0    0  0.30404117466E+01  0.67768316358E+02 -0.60561833689E+02  0.90936925973E+02  0.00000000000E+00 0.  1.
         11    1    3    3    0    0 -0.27597752579E+02 -0.25749296474E+02 -0.28765276709E+02  0.47456331089E+02  0.00000000000E+00 0. -1.
        -11    1    4    4    0    0  0.28226726591E+02  0.33341146596E+02 -0.97117019341E+02  0.10648988495E+03  0.00000000000E+00 0.  1.
         11    1    4    4    0    0 -0.24935111588E+02 -0.68391578717E+02 -0.84586536061E+02  0.11159771464E+03  0.00000000000E+00 0. -1.
          1    1    1    2  501    0  0.21265725830E+02 -0.69685877639E+01 -0.11164404917E+03  0.11386477078E+03  0.00000000000E+00 0. -1.
<scales pt_clust_5="13000.00000" pt_clust_6="13000.00000" pt_clust_7="13000.00000" pt_clust_8="13000.00000" pt_clust_9="22.37839"></scales>
<clustering>
<clus scale="   22.378">  2  9  1 -1</clus>
<clus scale="   93.833">  5  6 -1 -1</clus>
<clus scale="  103.188">  1  5  2 -1</clus>
<clus scale="  115.354">  7  8 -1 -1</clus>
<clus scale="   22.378">  2  5  1 -1</clus>
</clustering>
</event>
<event>
 9    1  0.1671478E-005  0.1412334E+03  0.7546771E-02  0.1219611E+00
         21   -1    0    0  501  502  0.00000000000E+00  0.00000000000E+00  0.14460347901E+03  0.14460347901E+03  0.00000000000E+00 0. -1.
         -2   -1    0    0    0  501 -0.00000000000E+00 -0.00000000000E+00 -0.17349161169E+03  0.17349161169E+03  0.00000000000E+00 0.  1.
         23    2    1    2    0    0  0.40578066502E+02 -0.67793007174E+02 -0.60704387525E+02  0.15602036849E+03  0.12006190660E+03 0.  0.
         23    2    1    2    0    0 -0.21124252804E+02  0.62905337336E+02  0.58522680081E+02  0.12867452262E+03  0.93428652804E+02 0.  0.
        -11    1    3    3    0    0  0.42799267375E+01 -0.86060429012E+02 -0.73669802331E+02  0.11336646325E+03  0.00000000000E+00 0. -1.
         11    1    3    3    0    0  0.36298139764E+02  0.18267421838E+02  0.12965414806E+02  0.42653905238E+02  0.00000000000E+00 0.  1.
        -13    1    4    4    0    0  0.10000854618E+02  0.78876932170E+02  0.43142235589E+02  0.90459051583E+02  0.00000000000E+00 0.  1.
         13    1    4    4    0    0 -0.31125107422E+02 -0.15971594834E+02  0.15380444492E+02  0.38215471034E+02  0.00000000000E+00 0. -1.
         -2    1    1    2    0  502 -0.19453813698E+02  0.48876698382E+01 -0.26706425242E+02  0.33400199596E+02  0.00000000000E+00 0.  1.
<scales pt_clust_5="13000.00000" pt_clust_6="13000.00000" pt_clust_7="13000.00000" pt_clust_8="13000.00000" pt_clust_9="20.05843"></scales>
<clustering>
<clus scale="   20.058">  1  9  2 -1</clus>
<clus scale="   93.429">  7  8 -1 -1</clus>
<clus scale="  119.419">  1  7  2 -1</clus>
<clus scale="  120.062">  5  6 -1 -1</clus>
<clus scale="   20.058">  1  5  2 -1</clus>
</clustering>
</event>
<event>
 9    1  0.1671478E-005  0.1081885E+03  0.7546771E-02  0.1265834E+00
         21   -1    0    0  501  502  0.00000000000E+00  0.00000000000E+00  0.12338102788E+03  0.12338102788E+03  0.00000000000E+00 0. -1.
          1   -1    0    0  502    0 -0.00000000000E+00 -0.00000000000E+00 -0.33485983229E+03  0.33485983229E+03  0.00000000000E+00 0. -1.
         23    2    1    2    0    0 -0.37175296969E+02 -0.25570092160E+02 -0.25746907396E+03  0.27847654460E+03  0.96036605145E+02 0.  0.
         23    2    1    2    0    0  0.61421218680E+02  0.42195929293E+02 -0.78951690337E+01  0.11838090030E+03  0.91644101326E+02 0.  0.
        -11    1    3    3    0    0 -0.30730532639E+02  0.30712894397E+02 -0.15945874132E+03  0.16527170872E+03  0.00000000000E+00 0.  1.
         11    1    3    3    0    0 -0.64447643304E+01 -0.56282986556E+02 -0.98010332642E+02  0.11320483588E+03  0.00000000000E+00 0. -1.
        -13    1    4    4    0    0 -0.22618164493E+01  0.36442881457E+02  0.27116371348E+02  0.45480732378E+02  0.00000000000E+00 0.  1.
         13    1    4    4    0    0  0.63683035129E+02  0.57530478362E+01 -0.35011540381E+02  0.72900167918E+02  0.00000000000E+00 0. -1.
          1    1    1    2  501    0 -0.24245921711E+02 -0.16625837133E+02  0.53885438580E+02  0.61383415276E+02  0.00000000000E+00 0. -1.
<scales pt_clust_5="13000.00000" pt_clust_6="13000.00000" pt_clust_7="13000.00000" pt_clust_8="13000.00000" pt_clust_9="29.39869"></scales>
<clustering>
<clus scale="   29.399">  1  9  2 -1</clus>
<clus scale="   91.644">  7  8 -1 -1</clus>
<clus scale="   96.037">  5  6 -1 -1</clus>
<clus scale="  104.309">  1  7  2 -1</clus>
<clus scale="   29.399">  1  5  2 -1</clus>
</clustering>
</event>
<event>
 9    1  0.1671478E-005  0.1001051E+03  0.7546771E-02  0.1280307E+00
          1   -1    0    0  502    0 -0.00000000000E+00  0.00000000000E+00  0.13297740593E+03  0.13297740593E+03  0.00000000000E+00 0. -1.
         21   -1    0    0  501  502  0.00000000000E+00 -0.00000000000E+00 -0.15628489484E+03  0.15628489484E+03  0.00000000000E+00 0. -1.
         23    2    1    2    0    0  0.17667964048E+02 -0.48131126772E+02  0.67813313475E+02  0.12458460645E+03  0.91070941375E+02 0.  0.
         23    2    1    2    0    0  0.11977689867E+02  0.19675054130E+02 -0.47857104060E+02  0.10500893818E+03  0.90586985157E+02 0.  0.
        -11    1    3    3    0    0  0.34390487648E+02  0.14232195937E+02  0.38907960918E+02  0.53843202586E+02  0.00000000000E+00 0.  1.
         11    1    3    3    0    0 -0.16722523599E+02 -0.62363322710E+02  0.28905352557E+02  0.70741403869E+02  0.00000000000E+00 0. -1.
        -13    1    4    4    0    0 -0.96485044125E+01  0.39087737974E+02 -0.61020446669E+02  0.73105675628E+02  0.00000000000E+00 0.  1.
         13    1    4    4    0    0  0.21626194279E+02 -0.19412683844E+02  0.13163342609E+02  0.31903262555E+02  0.00000000000E+00 0. -1.
          1    1    1    2  501    0 -0.29645653915E+02  0.28456072642E+02 -0.43263698324E+02  0.59668756137E+02  0.00000000000E+00 0. -1.
<scales pt_clust_5="13000.00000" pt_clust_6="13000.00000" pt_clust_7="13000.00000" pt_clust_8="13000.00000" pt_clust_9="41.09273"></scales>
<clustering>
<clus scale="   41.093">  2  9  1 -1</clus>
<clus scale="   90.587">  7  8 -1 -1</clus>
<clus scale="   91.071">  5  6 -1 -1</clus>
<clus scale="   99.665">  2  7  1 -1</clus>
<clus scale="   41.093">  2  5  1 -1</clus>
</clustering>
</event>
<event>
 9    1  0.1671478E-005  0.1121158E+03  0.7546771E-02  0.1257484E+00
         21   -1    0    0  501  502  0.00000000000E+00  0.00000000000E+00  0.11295863879E+03  0.11295863879E+03  0.00000000000E+00 0.  1.
          1   -1    0    0  502    0 -0.00000000000E+00 -0.00000000000E+00 -0.16874374815E+03  0.16874374815E+03  0.00000000000E+00 0. -1.
         23    2    1    2    0    0  0.62541818066E+02  0.28569867812E+02 -0.56749247121E+02  0.12931849686E+03  0.93675398191E+02 0.  0.
         23    2    1    2    0    0 -0.57672305357E+02  0.85393217185E+01 -0.18570382172E+02  0.11016539213E+03  0.91610805626E+02 0.  0.
        -11    1    3    3    0    0  0.18458163395E+01 -0.30246145636E+02 -0.24083893161E+02  0.38707496349E+02  0.00000000000E+00 0. -1.
         11    1    3    3    0    0  0.60696001726E+02  0.58816013448E+02 -0.32665353960E+02  0.90611000506E+02  0.00000000000E+00 0.  1.
        -13    1    4    4    0    0 -0.55578748839E+02  0.33328619036E+02  0.16776049837E+02  0.66941989943E+02  0.00000000000E+00 0.  1.
         13    1    4    4    0    0 -0.20935565179E+01 -0.24789297318E+02 -0.35346432009E+02  0.43223402182E+02  0.00000000000E+00 0. -1.
          1    1    1    2  501    0 -0.48695127086E+01 -0.37109189531E+02  0.19534519933E+02  0.42218497968E+02  0.00000000000E+00 0. -1.
<scales pt_clust_5="13000.00000" pt_clust_6="13000.00000" pt_clust_7="13000.00000" pt_clust_8="13000.00000" pt_clust_9="37.42732"></scales>
<clustering>
<clus scale="   37.427">  1  9  2 -1</clus>
<clus scale="   91.611">  7  8 -1 -1</clus>
<clus scale="   93.675">  5  6 -1 -1</clus>
<clus scale="  110.397">  1  7  2 -1</clus>
<clus scale="   37.427">  1  5  2 -1</clus>
</clustering>
</event>
<event>
 9    1  0.1671478E-005  0.1505668E+03  0.7546771E-02  0.1200666E+00
         -3   -1    0    0    0  501 -0.00000000000E+00  0.00000000000E+00  0.42919330958E+03  0.42919330958E+03  0.00000000000E+00 0.  1.
         21   -1    0    0  501  502  0.00000000000E+00 -0.00000000000E+00 -0.64760483404E+02  0.64760483404E+02  0.00000000000E+00 0. -1.
         23    2    1    2    0    0 -0.96138818016E+02  0.58304214630E+02  0.20069587653E+03  0.24572857172E+03  0.86380798399E+02 0.  0.
         23    2    1    2    0    0  0.10675220321E+03 -0.78980731532E+02  0.12877011739E+03  0.20623901335E+03  0.91207448453E+02 0.  0.
        -13    1    3    3    0    0 -0.70949115144E+02  0.37029292221E+02  0.19689490804E+03  0.21253835004E+03  0.00000000000E+00 0.  1.
         13    1    3    3    0    0 -0.25189702872E+02  0.21274922409E+02  0.38009684864E+01  0.33190221689E+02  0.00000000000E+00 0. -1.
        -13    1    4    4    0    0  0.88288503089E+02 -0.11120588332E+02  0.56552722907E+02  0.10543594136E+03  0.00000000000E+00 0.  1.
         13    1    4    4    0    0  0.18463700118E+02 -0.67860143200E+02  0.72217394479E+02  0.10080307199E+03  0.00000000000E+00 0. -1.
         -3    1    1    2    0  502 -0.10613385191E+02  0.20676516902E+02  0.34966832263E+02  0.41986207913E+02  0.00000000000E+00 0.  1.
<scales pt_clust_5="13000.00000" pt_clust_6="13000.00000" pt_clust_7="13000.00000" pt_clust_8="13000.00000" pt_clust_9="23.24140"></scales>
<clustering>
<clus scale="   23.241">  2  9  1 -1</clus>
<clus scale="   86.381">  5  6 -1 -1</clus>
<clus scale="   91.207">  7  8 -1 -1</clus>
<clus scale="  147.693">  1  5  2 -1</clus>
<clus scale="   23.241">  2  5  1 -1</clus>
</clustering>
</event>
<event>
 9    1  0.1671478E-005  0.9606429E+02  0.7546771E-02  0.1289255E+00
         -1   -1    0    0    0  501 -0.00000000000E+00  0.00000000000E+00  0.84776473906E+02  0.84776473906E+02  0.00000000000E+00 0.  1.
         21   -1    0    0  501  502  0.00000000000E+00 -0.00000000000E+00 -0.44148525540E+03  0.44148525540E+03  0.00000000000E+00 0. -1.
         23    2    1    2    0    0  0.17047733814E+02 -0.14997061736E+02  0.34109834528E+02  0.10121094733E+03  0.92545329217E+02 0.  0.
         23    2    1    2    0    0 -0.66713491058E+02 -0.49985412317E+01 -0.27150704268E+03  0.29427707241E+03  0.91691034535E+02 0.  0.
        -11    1    3    3    0    0  0.37427157368E+01  0.37435170427E+02  0.69423097510E+00  0.37628205679E+02  0.00000000000E+00 0.  1.
         11    1    3    3    0    0  0.13305018078E+02 -0.52432232163E+02  0.33415603553E+02  0.63582741656E+02  0.00000000000E+00 0. -1.
        -13    1    4    4    0    0  0.15426953202E+02 -0.14954062896E+02 -0.19430327386E+02  0.28968129116E+02  0.00000000000E+00 0.  1.
         13    1    4    4    0    0 -0.82140444259E+02  0.99555216640E+01 -0.25207671530E+03  0.26530894329E+03  0.00000000000E+00 0. -1.
         -1    1    1    2    0  502  0.49665757243E+02  0.19995602968E+02 -0.11931157334E+03  0.13077370956E+03  0.00000000000E+00 0.  1.
<scales pt_clust_5="13000.00000" pt_clust_6="13000.00000" pt_clust_7="13000.00000" pt_clust_8="13000.00000" pt_clust_9="53.53981"></scales>
<clustering>
<clus scale="   53.540">  2  9  1 -1</clus>
<clus scale="   91.691">  7  8 -1 -1</clus>
<clus scale="   92.545">  5  6 -1 -1</clus>
<clus scale="   95.242">  2  7  1 -1</clus>
<clus scale="   53.540">  2  5  1 -1</clus>
</clustering>
</event>
<event>
 9    1  0.1671478E-005  0.2821152E+03  0.7546771E-02  0.1094578E+00
         21   -1    0    0  501  502  0.00000000000E+00  0.00000000000E+00  0.17829140147E+03  0.17829140147E+03  0.00000000000E+00 0. -1.
          2   -1    0    0  502    0 -0.00000000000E+00 -0.00000000000E+00 -0.51890103184E+03  0.51890103184E+03  0.00000000000E+00 0. -1.
         23    2    1    2    0    0  0.33789138880E+02  0.27581678984E+03 -0.22166856593E+03  0.36697532384E+03  0.91199384420E+02 0.  0.
         23    2    1    2    0    0 -0.50998978319E+02 -0.24863405349E+03 -0.12491694652E+03  0.29749416804E+03  0.92080118068E+02 0.  0.
        -11    1    3    3    0    0  0.22730178193E+02  0.25815711512E+03 -0.22802420190E+03  0.34519095258E+03  0.00000000000E+00 0. -1.
         11    1    3    3    0    0  0.11058960686E+02  0.17659674725E+02  0.63556359675E+01  0.21784371265E+02  0.00000000000E+00 0.  1.
        -11    1    4    4    0    0 -0.54210582019E+02 -0.58210807093E+02 -0.36193200478E+02  0.87391264015E+02  0.00000000000E+00 0. -1.
         11    1    4    4    0    0  0.32116036990E+01 -0.19042324640E+03 -0.88723746038E+02  0.21010290402E+03  0.00000000000E+00 0.  1.
          2    1    1    2  501    0  0.17209839440E+02 -0.27182736351E+02  0.59758820875E+01  0.32722941429E+02  0.00000000000E+00 0. -1.
<scales pt_clust_5="13000.00000" pt_clust_6="13000.00000" pt_clust_7="13000.00000" pt_clust_8="13000.00000" pt_clust_9="32.17265"></scales>
<clustering>
<clus scale="   32.173">  1  9  2 -1</clus>
<clus scale="   91.199">  5  6 -1 -1</clus>
<clus scale="   92.080">  7  8 -1 -1</clus>
<clus scale="  281.829">  2  5  1 -1</clus>
<clus scale="   32.173">  1  5  2 -1</clus>
</clustering>
</event>
<event>
 9    1  0.1671478E-005  0.1906505E+03  0.7546771E-02  0.1180467E+00
          1   -1    0    0  502    0 -0.00000000000E+00  0.00000000000E+00  0.64943125158E+03  0.64943125158E+03  0.00000000000E+00 0. -1.
         21   -1    0    0  501  502  0.00000000000E+00 -0.00000000000E+00 -0.11281938932E+03  0.11281938932E+03  0.00000000000E+00 0. -1.
         23    2    1    2    0    0 -0.63272623127E+02  0.22894880766E+02  0.52940592923E+02  0.12535310265E+03  0.91559235266E+02 0.  0.
         23    2    1    2    0    0 -0.85262465327E+02  0.84172648742E+02  0.41509176367E+03  0.44137445273E+03  0.90307875957E+02 0.  0.
        -11    1    4    4    0    0 -0.52821841454E+01  0.40054450272E+02  0.46343025961E+02  0.61481188271E+02  0.00000000000E+00 0.  1.
         11    1    4    4    0    0 -0.79980281181E+02  0.44118198469E+02  0.36874873771E+03  0.37989326446E+03  0.00000000000E+00 0. -1.
        -13    1    3    3    0    0  0.18137177648E+02  0.23821706032E+02  0.36058096602E+01  0.30156802792E+02  0.00000000000E+00 0.  1.
         13    1    3    3    0    0 -0.81409800775E+02 -0.92682526541E+00  0.49334783262E+02  0.95196299859E+02  0.00000000000E+00 0. -1.
          1    1    1    2  501    0  0.14853508845E+03 -0.10706752951E+03  0.68579505655E+02  0.19552308552E+03  0.00000000000E+00 0. -1.
<scales pt_clust_5="13000.00000" pt_clust_6="13000.00000" pt_clust_7="13000.00000" pt_clust_8="13000.00000" pt_clust_9="167.90503"></scales>
<clustering>
<clus scale="   90.308">  5  6 -1 -1</clus>
<clus scale="   91.559">  7  8 -1 -1</clus>
<clus scale="  113.625">  1  7  2 -1</clus>
<clus scale="  167.905">  2  9  1 -1</clus>
<clus scale="  167.905">  2  5  1 -1</clus>
</clustering>
</event>
<event>
 9    1  0.1671478E-005  0.1843570E+03  0.7546771E-02  0.1163679E+00
         21   -1    0    0  501  502  0.00000000000E+00  0.00000000000E+00  0.43839959152E+02  0.43839959152E+02  0.00000000000E+00 0.  1.
          1   -1    0    0  502    0 -0.00000000000E+00 -0.00000000000E+00 -0.10324264022E+04  0.10324264022E+04  0.00000000000E+00 0. -1.
         23    2    1    2    0    0  0.26335874978E+02  0.17731951763E+03 -0.58639945212E+03  0.61987486266E+03  0.90800541154E+02 0.  0.
         23    2    1    2    0    0 -0.13936213442E+01 -0.13962981820E+03 -0.34775028753E+03  0.38563851900E+03  0.91040521452E+02 0.  0.
        -13    1    3    3    0    0  0.15297921982E+02  0.14256303361E+03 -0.54987827077E+03  0.56826433781E+03  0.00000000000E+00 0. -1.
         13    1    3    3    0    0  0.11037952996E+02  0.34756484026E+02 -0.36521181353E+02  0.51610524853E+02  0.00000000000E+00 0.  1.
        -13    1    4    4    0    0  0.33811517014E+02 -0.26742029476E+02 -0.54808454379E+02  0.69730348448E+02  0.00000000000E+00 0.  1.
         13    1    4    4    0    0 -0.35205138358E+02 -0.11288778873E+03 -0.29294183315E+03  0.31590817055E+03  0.00000000000E+00 0. -1.
          1    1    1    2  501    0 -0.24942253634E+02 -0.37689699427E+02 -0.54436703445E+02  0.70752979734E+02  0.00000000000E+00 0. -1.
<scales pt_clust_5="13000.00000" pt_clust_6="13000.00000" pt_clust_7="13000.00000" pt_clust_8="13000.00000" pt_clust_9="45.19546"></scales>
<clustering>
<clus scale="   45.195">  1  9  2 -1</clus>
<clus scale="   90.801">  5  6 -1 -1</clus>
<clus scale="   91.041">  7  8 -1 -1</clus>
<clus scale="  184.239">  2  5  1 -1</clus>
<clus scale="   45.195">  1  5  2 -1</clus>
</clustering>
</event>
<event>
 9    1  0.1671478E-005  0.1207446E+03  0.7546771E-02  0.1242689E+00
         -3   -1    0    0    0  501 -0.00000000000E+00  0.00000000000E+00  0.66856432674E+03  0.66856432674E+03  0.00000000000E+00 0.  1.
         21   -1    0    0  501  502  0.00000000000E+00 -0.00000000000E+00 -0.32759008382E+02  0.32759008382E+02  0.00000000000E+00 0. -1.
         23    2    1    2    0    0  0.95252587588E+01 -0.70565551277E+02  0.41515110323E+03  0.43169303001E+03  0.94542086208E+02 0.  0.
         23    2    1    2    0    0  0.12308347710E+02  0.86466997969E+02  0.16870512388E+03  0.21107887081E+03  0.92004530946E+02 0.  0.
        -11    1    3    3    0    0  0.44907491176E+02 -0.58263509442E+02  0.19572399185E+03  0.20909136827E+03  0.00000000000E+00 0.  1.
         11    1    3    3    0    0 -0.35382232417E+02 -0.12302041835E+02  0.21942711137E+03  0.22260166174E+03  0.00000000000E+00 0. -1.
        -13    1    4    4    0    0  0.22896905006E+02  0.10379550888E+03  0.13645176222E+03  0.17296490781E+03  0.00000000000E+00 0. -1.
         13    1    4    4    0    0 -0.10588557296E+02 -0.17328510913E+02  0.32253361668E+02  0.38113962992E+02  0.00000000000E+00 0.  1.
         -3    1    1    2    0  502 -0.21833606469E+02 -0.15901446693E+02  0.51949091241E+02  0.58551434305E+02  0.00000000000E+00 0.  1.
<scales pt_clust_5="13000.00000" pt_clust_6="13000.00000" pt_clust_7="13000.00000" pt_clust_8="13000.00000" pt_clust_9="27.01041"></scales>
<clustering>
<clus scale="   27.010">  2  9  1 -1</clus>
<clus scale="   92.005">  7  8 -1 -1</clus>
<clus scale="   94.542">  5  6 -1 -1</clus>
<clus scale="  118.768">  2  7  1 -1</clus>
<clus scale="   27.010">  2  5  1 -1</clus>
</clustering>
</event>
<event>
 9    1  0.2023381E-005  0.9369122E+02  0.7546771E-02  0.1295763E+00
         21   -1    0    0  501  502  0.00000000000E+00  0.00000000000E+00  0.11647198801E+03  0.11647198801E+03  0.00000000000E+00 0. -1.
          1   -1    0    0  502    0 -0.00000000000E+00 -0.00000000000E+00 -0.42731489972E+03  0.42731489972E+03  0.00000000000E+00 0. -1.
         23    2    1    2    0    0  0.10170653312E+02 -0.36173350184E+02 -0.29510701401E+03  0.31090998479E+03  0.90359921834E+02 0.  0.
         23    2    1    2    0    0  0.22379182183E+02 -0.24230976298E+00 -0.10045880060E+03  0.13508343508E+03  0.87491012709E+02 0.  0.
        -13    1    3    3    0    0 -0.11019211376E+02  0.19778380949E+02 -0.22890171211E+02  0.32195765411E+02  0.00000000000E+00 0.  1.
         13    1    3    3    0    0  0.21189864688E+02 -0.55951731133E+02 -0.27221684280E+03  0.27871421938E+03  0.00000000000E+00 0. -1.
        -13    1    4    4    0    0  0.23080744865E+02  0.35288855016E+02 -0.19078439382E+02  0.46281863847E+02  0.00000000000E+00 0.  1.
         13    1    4    4    0    0 -0.70156268192E+00 -0.35531164779E+02 -0.81380361222E+02  0.88801571233E+02  0.00000000000E+00 0. -1.
          1    1    1    2  501    0 -0.32549835495E+02  0.36415659947E+02  0.84722902903E+02  0.97793467862E+02  0.00000000000E+00 0. -1.
<scales pt_clust_5="13000.00000" pt_clust_6="13000.00000" pt_clust_7="13000.00000" pt_clust_8="13000.00000" pt_clust_9="48.84252"></scales>
<clustering>
<clus scale="   48.843">  1  9  2 -1</clus>
<clus scale="   87.491">  7  8 -1 -1</clus>
<clus scale="   90.360">  5  6 -1 -1</clus>
<clus scale="   90.927">  1  7  2 -1</clus>
<clus scale="   48.843">  1  5  2 -1</clus>
</clustering>
</event>
<event>
 9    1  0.1671478E-005  0.9944130E+02  0.7546771E-02  0.1283948E+00
         21   -1    0    0  501  502  0.00000000000E+00  0.00000000000E+00  0.27382430430E+02  0.27382430430E+02  0.00000000000E+00 0. -1.
          1   -1    0    0  502    0 -0.00000000000E+00 -0.00000000000E+00 -0.63103564609E+03  0.63103564609E+03  0.00000000000E+00 0. -1.
         23    2    1    2    0    0  0.91678302657E+01  0.27902464106E+02 -0.30833916426E+03  0.32164557541E+03  0.86719313561E+02 0.  0.
         23    2    1    2    0    0 -0.35946796609E+02 -0.39789124125E+02 -0.28744029868E+03  0.30643437813E+03  0.91677457465E+02 0.  0.
        -11    1    3    3    0    0 -0.29298701883E+02  0.33077555631E+02 -0.23014376674E+03  0.23434737462E+03  0.00000000000E+00 0. -1.
         11    1    3    3    0    0  0.38466532149E+02 -0.51750915254E+01 -0.78195397522E+02  0.87298200791E+02  0.00000000000E+00 0.  1.
        -13    1    4    4    0    0  0.29164787873E+02 -0.25271680574E+02 -0.12525884860E+03  0.13106876761E+03  0.00000000000E+00 0.  1.
         13    1    4    4    0    0 -0.65111584482E+02 -0.14517443551E+02 -0.16218145008E+03  0.17536561052E+03  0.00000000000E+00 0. -1.
          1    1    1    2  501    0  0.26778966343E+02  0.11886660019E+02 -0.78737527206E+01  0.30338122993E+02  0.00000000000E+00 0. -1.
<scales pt_clust_5="13000.00000" pt_clust_6="13000.00000" pt_clust_7="13000.00000" pt_clust_8="13000.00000" pt_clust_9="29.29856"></scales>
<clustering>
<clus scale="   29.299">  1  9  2 -1</clus>
<clus scale="   86.719">  5  6 -1 -1</clus>
<clus scale="   91.677">  7  8 -1 -1</clus>
<clus scale="   94.890">  2  5  1 -1</clus>
<clus scale="   29.299">  1  5  2 -1</clus>
</clustering>
</event>
<event>
 9    1  0.1671478E-005  0.1112847E+03  0.7546771E-02  0.1262631E+00
         21   -1    0    0  501  502  0.00000000000E+00  0.00000000000E+00  0.37260295523E+03  0.37260295523E+03  0.00000000000E+00 0.  1.
         -2   -1    0    0    0  501 -0.00000000000E+00 -0.00000000000E+00 -0.11125803727E+03  0.11125803727E+03  0.00000000000E+00 0.  1.
         23    2    1    2    0    0 -0.58184367616E+02  0.33461748379E+02 -0.16331362885E+02  0.11724306455E+03  0.94731797893E+02 0.  0.
         23    2    1    2    0    0 -0.38062637768E+01  0.58958247796E+02  0.72363197817E+02  0.13308472660E+03  0.94786863163E+02 0.  0.
        -13    1    3    3    0    0 -0.27978597172E+02  0.47105063156E+02 -0.46926015822E+02  0.72136951943E+02  0.00000000000E+00 0. -1.
         13    1    3    3    0    0 -0.30205770444E+02 -0.13643314777E+02  0.30594652937E+02  0.45106112608E+02  0.00000000000E+00 0.  1.
        -13    1    4    4    0    0  0.33583665436E+02  0.24998363236E+02  0.71157539546E+02  0.82560136766E+02  0.00000000000E+00 0. -1.
         13    1    4    4    0    0 -0.37389929213E+02  0.33959884560E+02  0.12056582709E+01  0.50524589832E+02  0.00000000000E+00 0.  1.
         -2    1    1    2    0  502  0.61990631393E+02 -0.92419996175E+02  0.20531308302E+03  0.23353320135E+03  0.00000000000E+00 0.  1.
<scales pt_clust_5="13000.00000" pt_clust_6="13000.00000" pt_clust_7="13000.00000" pt_clust_8="13000.00000" pt_clust_9="111.28474"></scales>
<clustering>
<clus scale="   94.732">  5  6 -1 -1</clus>
<clus scale="   94.787">  7  8 -1 -1</clus>
<clus scale="  111.285">  1  9  2 -1</clus>
<clus scale="  102.027">  2  5  1 -1</clus>
<clus scale="  111.285">  1  5  2 -1</clus>
</clustering>
</event>
<event>
 9    1  0.1671478E-005  0.1343505E+03  0.7546771E-02  0.1239638E+00
          3   -1    0    0  502    0 -0.00000000000E+00  0.00000000000E+00  0.37251098599E+03  0.37251098599E+03  0.00000000000E+00 0. -1.
         21   -1    0    0  501  502  0.00000000000E+00 -0.00000000000E+00 -0.16950853020E+03  0.16950853020E+03  0.00000000000E+00 0. -1.
         23    2    1    2    0    0  0.11002482668E+02 -0.20804596008E+02  0.26912391428E+03  0.28432316380E+03  0.88645893269E+02 0.  0.
         23    2    1    2    0    0  0.91399682533E+02 -0.10288764914E+02 -0.74803566686E+02  0.15032606072E+03  0.92426134243E+02 0.  0.
        -11    1    4    4    0    0  0.46506806487E+01 -0.38789974557E+02 -0.21400386325E+02  0.44545117482E+02  0.00000000000E+00 0.  1.
         11    1    4    4    0    0  0.86749001884E+02  0.28501209643E+02 -0.53403180361E+02  0.10578094323E+03  0.00000000000E+00 0. -1.
        -13    1    3    3    0    0 -0.26959172922E+02  0.21694900731E+02  0.94508150541E+02  0.10064420620E+03  0.00000000000E+00 0.  1.
         13    1    3    3    0    0  0.37961655591E+02 -0.42499496739E+02  0.17461576374E+03  0.18367895760E+03  0.00000000000E+00 0. -1.
          3    1    1    2  501    0 -0.10240216520E+03  0.31093360922E+02  0.86821081877E+01  0.10737029167E+03  0.00000000000E+00 0. -1.
<scales pt_clust_5="13000.00000" pt_clust_6="13000.00000" pt_clust_7="13000.00000" pt_clust_8="13000.00000" pt_clust_9="97.50635"></scales>
<clustering>
<clus scale="   88.646">  7  8 -1 -1</clus>
<clus scale="   91.717">  1  7  2 -1</clus>
<clus scale="   92.426">  5  6 -1 -1</clus>
<clus scale="   97.506">  2  9  1 -1</clus>
<clus scale="   97.506">  2  5  1 -1</clus>
</clustering>
</event>
<event>
 9    1  0.1671478E-005  0.1041887E+03  0.7546771E-02  0.1275893E+00
          1   -1    0    0  502    0 -0.00000000000E+00  0.00000000000E+00  0.11827674136E+03  0.11827674136E+03  0.00000000000E+00 0. -1.
         21   -1    0    0  501  502  0.00000000000E+00 -0.00000000000E+00 -0.27367834367E+03  0.27367834367E+03  0.00000000000E+00 0. -1.
         23    2    1    2    0    0  0.99136280115E+01  0.39237495848E+02  0.65533414486E+02  0.11783528141E+03  0.89177710393E+02 0.  0.
         23    2    1    2    0    0 -0.30264200387E+02 -0.81230671788E+01 -0.85298650113E+02  0.13348027349E+03  0.97771251682E+02 0.  0.
        -11    1    4    4    0    0  0.10809306974E+02  0.30949065676E+02 -0.21596659028E+01  0.32853461618E+02  0.00000000000E+00 0.  1.
         11    1    4    4    0    0 -0.41073507361E+02 -0.39072132855E+02 -0.83138984210E+02  0.10062681188E+03  0.00000000000E+00 0. -1.
        -13    1    3    3    0    0 -0.33398993366E+02  0.32764245788E+02  0.11307741804E+02  0.48133705286E+02  0.00000000000E+00 0. -1.
         13    1    3    3    0    0  0.43312621377E+02  0.64732500608E+01  0.54225672682E+02  0.69701576128E+02  0.00000000000E+00 0.  1.
          1    1    1    2  501    0  0.20350572376E+02 -0.31114428670E+02 -0.13563636668E+03  0.14063953013E+03  0.00000000000E+00 0. -1.
<scales pt_clust_5="13000.00000" pt_clust_6="13000.00000" pt_clust_7="13000.00000" pt_clust_8="13000.00000" pt_clust_9="37.17867"></scales>
<clustering>
<clus scale="   37.179">  2  9  1 -1</clus>
<clus scale="   89.178">  7  8 -1 -1</clus>
<clus scale="   96.170">  1  7  2 -1</clus>
<clus scale="   97.771">  5  6 -1 -1</clus>
<clus scale="   37.179">  2  5  1 -1</clus>
</clustering>
</event>
<event>
 9    1  0.1671478E-005  0.1860868E+03  0.7546771E-02  0.1162267E+00
         21   -1    0    0  501  502  0.00000000000E+00  0.00000000000E+00  0.31187535359E+03  0.31187535359E+03  0.00000000000E+00 0. -1.
         -1   -1    0    0    0  501 -0.00000000000E+00 -0.00000000000E+00 -0.37155437633E+03  0.37155437633E+03  0.00000000000E+00 0.  1.
         23    2    1    2    0    0  0.10252968218E+03 -0.11756050870E+03 -0.26554471476E+03  0.32067101217E+03  0.89348159317E+02 0.  0.
         23    2    1    2    0    0 -0.16536327171E+03  0.13640960199E+03  0.16365037088E+03  0.28474922070E+03  0.91367848016E+02 0.  0.
        -11    1    3    3    0    0  0.39053741214E+02  0.66607588918E+01 -0.70585431150E+02  0.80943582219E+02  0.00000000000E+00 0. -1.
         11    1    3    3    0    0  0.63475940966E+02 -0.12422126759E+03 -0.19495928361E+03  0.23972742995E+03  0.00000000000E+00 0.  1.
        -13    1    4    4    0    0 -0.61143199560E+02  0.10481072572E+03  0.64251082345E+02  0.13730251513E+03  0.00000000000E+00 0.  1.
         13    1    4    4    0    0 -0.10422007215E+03  0.31598876270E+02  0.99399288537E+02  0.14744670557E+03  0.00000000000E+00 0. -1.
         -1    1    1    2    0  502  0.62833589530E+02 -0.18849093290E+02  0.42215321143E+02  0.78009497052E+02  0.00000000000E+00 0.  1.
<scales pt_clust_5="13000.00000" pt_clust_6="13000.00000" pt_clust_7="13000.00000" pt_clust_8="13000.00000" pt_clust_9="65.59991"></scales>
<clustering>
<clus scale="   65.600">  1  9  2 -1</clus>
<clus scale="   89.348">  5  6 -1 -1</clus>
<clus scale="   91.368">  7  8 -1 -1</clus>
<clus scale="  185.103">  2  5  1 -1</clus>
<clus scale="   65.600">  1  5  2 -1</clus>
</clustering>
</event>
<event>
 9    1  0.1671478E-005  0.1274285E+03  0.7546771E-02  0.1238095E+00
         21   -1    0    0  501  502  0.00000000000E+00  0.00000000000E+00  0.45314123699E+02  0.45314123699E+02  0.00000000000E+00 0. -1.
          1   -1    0    0  502    0 -0.00000000000E+00 -0.00000000000E+00 -0.78536193551E+03  0.78536193551E+03  0.00000000000E+00 0. -1.
         23    2    1    2    0    0 -0.58388023940E+02  0.14451138258E+02 -0.26006811597E+03  0.28273354660E+03  0.93192471198E+02 0.  0.
         23    2    1    2    0    0 -0.59118922865E+02 -0.47737301956E+02 -0.12710782941E+03  0.17453334648E+03  0.92366615697E+02 0.  0.
        -11    1    4    4    0    0 -0.41144534547E+02 -0.74540543125E+02 -0.76216771937E+02  0.11427231343E+03  0.00000000000E+00 0. -1.
         11    1    4    4    0    0 -0.17974388318E+02  0.26803241169E+02 -0.50891057475E+02  0.60261033044E+02  0.00000000000E+00 0.  1.
        -13    1    3    3    0    0 -0.83049168557E+02  0.66399065027E+01 -0.17501887579E+03  0.19383719880E+03  0.00000000000E+00 0. -1.
         13    1    3    3    0    0  0.24661144617E+02  0.78112317557E+01 -0.85049240185E+02  0.88896347796E+02  0.00000000000E+00 0.  1.
          1    1    1    2  501    0  0.11750694681E+03  0.33286163697E+02 -0.35287186642E+03  0.37340916614E+03  0.00000000000E+00 0. -1.
<scales pt_clust_5="13000.00000" pt_clust_6="13000.00000" pt_clust_7="13000.00000" pt_clust_8="13000.00000" pt_clust_9="87.78637"></scales>
<clustering>
<clus scale="   92.367">  5  6 -1 -1</clus>
<clus scale="   93.192">  7  8 -1 -1</clus>
<clus scale="  110.918">  2  7  1 -1</clus>
<clus scale="   87.786">  1  9  2 -1</clus>
<clus scale="   87.786">  1  5  2 -1</clus>
</clustering>
</event>
<event>
 9    1  0.1671478E-005  0.1482624E+03  0.7546771E-02  0.1203059E+00
         21   -1    0    0  501  502  0.00000000000E+00  0.00000000000E+00  0.28154164848E+03  0.28154164848E+03  0.00000000000E+00 0. -1.
         -1   -1    0    0    0  501 -0.00000000000E+00 -0.00000000000E+00 -0.52041037253E+03  0.52041037253E+03  0.00000000000E+00 0.  1.
         23    2    1    2    0    0  0.11374639225E+03  0.43861673172E+02 -0.46734272560E+03  0.49133034648E+03  0.90189789233E+02 0.  0.
         23    2    1    2    0    0 -0.16094241493E+02 -0.57603446777E+02  0.14029001182E+03  0.17832959263E+03  0.92428212688E+02 0.  0.
        -11    1    3    3    0    0  0.62924103947E+02 -0.18497823139E+02 -0.14572497450E+03  0.15980419428E+03  0.00000000000E+00 0. -1.
         11    1    3    3    0    0  0.50822288299E+02  0.62359496311E+02 -0.32161775111E+03  0.33152615220E+03  0.00000000000E+00 0.  1.
        -13    1    4    4    0    0 -0.19672990900E+02  0.16866839531E+02  0.91575552758E+01  0.27484134794E+02  0.00000000000E+00 0.  1.
         13    1    4    4    0    0  0.35787494069E+01 -0.74470286308E+02  0.13113245654E+03  0.15084545783E+03  0.00000000000E+00 0. -1.
         -1    1    1    2    0  502 -0.97652150753E+02  0.13741773605E+02  0.88183989730E+02  0.13229208190E+03  0.00000000000E+00 0.  1.
<scales pt_clust_5="13000.00000" pt_clust_6="13000.00000" pt_clust_7="13000.00000" pt_clust_8="13000.00000" pt_clust_9="98.61429"></scales>
<clustering>
<clus scale="   90.190">  5  6 -1 -1</clus>
<clus scale="   92.428">  7  8 -1 -1</clus>
<clus scale="   98.614">  1  9  2 -1</clus>
<clus scale="  146.877">  2  5  1 -1</clus>
<clus scale="   98.614">  1  5  2 -1</clus>
</clustering>
</event>
<event>
 9    1  0.1671478E-005  0.1034486E+03  0.7546771E-02  0.1275291E+00
         21   -1    0    0  501  502  0.00000000000E+00  0.00000000000E+00  0.10040965069E+03  0.10040965069E+03  0.00000000000E+00 0.  1.
         -1   -1    0    0    0  501 -0.00000000000E+00 -0.00000000000E+00 -0.20732133985E+03  0.20732133985E+03  0.00000000000E+00 0.  1.
         23    2    1    2    0    0 -0.22964559413E+02  0.43387013588E+02 -0.14453365433E+03  0.17799159455E+03  0.91549039090E+02 0.  0.
         23    2    1    2    0    0  0.23841464107E+01 -0.48428670346E+02  0.18602879116E+02  0.10126664873E+03  0.86935877339E+02 0.  0.
        -11    1    4    4    0    0  0.35025738303E+02 -0.35777326899E+02 -0.15481375151E+02  0.52406988468E+02  0.00000000000E+00 0. -1.
         11    1    4    4    0    0 -0.32641591892E+02 -0.12651343448E+02  0.34084254267E+02  0.48859660266E+02  0.00000000000E+00 0.  1.
        -11    1    3    3    0    0  0.17547584526E+02  0.53916705172E+02 -0.10989346612E+03  0.12365881576E+03  0.00000000000E+00 0.  1.
         11    1    3    3    0    0 -0.40512143939E+02 -0.10529691584E+02 -0.34640188208E+02  0.54332778785E+02  0.00000000000E+00 0. -1.
         -1    1    1    2    0  502  0.20580413002E+02  0.50416567590E+01  0.19019086054E+02  0.28472747260E+02  0.00000000000E+00 0.  1.
<scales pt_clust_5="13000.00000" pt_clust_6="13000.00000" pt_clust_7="13000.00000" pt_clust_8="13000.00000" pt_clust_9="21.18895"></scales>
<clustering>
<clus scale="   21.189">  1  9  2 -1</clus>
<clus scale="   86.936">  5  6 -1 -1</clus>
<clus scale="   91.549">  7  8 -1 -1</clus>
<clus scale="   99.389">  1  5  2 -1</clus>
<clus scale="   21.189">  1  5  2 -1</clus>
</clustering>
</event>
<event>
 9    1  0.1671478E-005  0.1321117E+03  0.7546771E-02  0.1224378E+00
         21   -1    0    0  501  502  0.00000000000E+00  0.00000000000E+00  0.96272997420E+02  0.96272997420E+02  0.00000000000E+00 0.  1.
         -2   -1    0    0    0  501 -0.00000000000E+00 -0.00000000000E+00 -0.48677985895E+03  0.48677985895E+03  0.00000000000E+00 0.  1.
         23    2    1    2    0    0 -0.81827016459E+02 -0.47011922797E+02 -0.30101452120E+03  0.32878645198E+03  0.92655315684E+02 0.  0.
         23    2    1    2    0    0  0.10469943861E+03 -0.44705858001E+01 -0.12510218502E+03  0.18762064365E+03  0.92568842721E+02 0.  0.
        -11    1    3    3    0    0 -0.41915177025E+02 -0.69277160766E+02 -0.23448734337E+03  0.24807362067E+03  0.00000000000E+00 0.  1.
         11    1    3    3    0    0 -0.39911839434E+02  0.22265237968E+02 -0.66527177822E+02  0.80712831308E+02  0.00000000000E+00 0. -1.
        -11    1    4    4    0    0  0.10139540291E+03 -0.34586247591E+02 -0.81885859223E+02  0.13484261268E+03  0.00000000000E+00 0.  1.
         11    1    4    4    0    0  0.33040356982E+01  0.30115661791E+02 -0.43216325801E+02  0.52778030967E+02  0.00000000000E+00 0. -1.
         -2    1    1    2    0  502 -0.22872422154E+02  0.51482508597E+02  0.35609844688E+02  0.66645760746E+02  0.00000000000E+00 0.  1.
<scales pt_clust_5="13000.00000" pt_clust_6="13000.00000" pt_clust_7="13000.00000" pt_clust_8="13000.00000" pt_clust_9="56.33468"></scales>
<clustering>
<clus scale="   56.335">  1  9  2 -1</clus>
<clus scale="   92.569">  7  8 -1 -1</clus>
<clus scale="   92.655">  5  6 -1 -1</clus>
<clus scale="  132.051">  1  7  2 -1</clus>
<clus scale="   56.335">  1  5  2 -1</clus>
</clustering>
</event>
<event>
 9    1  0.1671478E-005  0.9189199E+02  0.7546771E-02  0.1299578E+00
         21   -1    0    0  501  502  0.00000000000E+00  0.00000000000E+00  0.38399774699E+03  0.38399774699E+03  0.00000000000E+00 0. -1.
         -1   -1    0    0    0  501 -0.00000000000E+00 -0.00000000000E+00 -0.65765823771E+02  0.65765823771E+02  0.00000000000E+00 0.  1.
         23    2    1    2    0    0  0.15970586287E+02  0.65776850209E+01 -0.41341333768E+01  0.88769013061E+02  0.86974255125E+02 0.  0.
         23    2    1    2    0    0 -0.23804830214E+02 -0.35254468045E+02  0.11533513027E+03  0.15184021824E+03  0.89127504959E+02 0.  0.
        -11    1    3    3    0    0  0.21174183372E+02  0.44430994296E+02  0.50337960448E+01  0.49475230148E+02  0.00000000000E+00 0.  1.
         11    1    3    3    0    0 -0.52035970851E+01 -0.37853309275E+02 -0.91679294216E+01  0.39293782913E+02  0.00000000000E+00 0. -1.
        -13    1    4    4    0    0  0.69259856417E+01  0.27769460050E+02  0.32006917116E+02  0.42936638572E+02  0.00000000000E+00 0.  1.
         13    1    4    4    0    0 -0.30730815856E+02 -0.63023928095E+02  0.83328213157E+02  0.10890357966E+03  0.00000000000E+00 0. -1.
         -1    1    1    2    0  502  0.78342439265E+01  0.28676783024E+02  0.20703092633E+03  0.20915433947E+03  0.00000000000E+00 0.  1.
<scales pt_clust_5="13000.00000" pt_clust_6="13000.00000" pt_clust_7="13000.00000" pt_clust_8="13000.00000" pt_clust_9="29.72765"></scales>
<clustering>
<clus scale="   29.728">  1  9  2 -1</clus>
<clus scale="   86.974">  5  6 -1 -1</clus>
<clus scale="   89.128">  7  8 -1 -1</clus>
<clus scale="   89.805">  2  5  1 -1</clus>
<clus scale="   29.728">  1  5  2 -1</clus>
</clustering>
</event>
<event>
 9    1  0.1721490E-005  0.1000377E+03  0.7546771E-02  0.1280446E+00
         21   -1    0    0  501  502  0.00000000000E+00  0.00000000000E+00  0.46412083466E+03  0.46412083466E+03  0.00000000000E+00 0. -1.
          2   -1    0    0  502    0 -0.00000000000E+00 -0.00000000000E+00 -0.22709991054E+03  0.22709991054E+03  0.00000000000E+00 0. -1.
         23    2    1    2    0    0  0.14920054498E+02 -0.25744860215E+02 -0.15057948768E+03  0.17897454239E+03  0.92045091441E+02 0.  0.
         23    2    1    2    0    0 -0.96490893970E+02  0.49781362283E+02  0.30648207114E+02  0.14530420233E+03  0.91571403651E+02 0.  0.
        -11    1    3    3    0    0  0.41231817165E+02 -0.47193344464E+02 -0.93342859210E+02  0.11242848337E+03  0.00000000000E+00 0. -1.
         11    1    3    3    0    0 -0.26311762668E+02  0.21448484249E+02 -0.57236628472E+02  0.66546059012E+02  0.00000000000E+00 0.  1.
        -11    1    4    4    0    0 -0.52845314271E+02  0.63006476900E+02  0.49470326934E+02  0.95967476880E+02  0.00000000000E+00 0.  1.
         11    1    4    4    0    0 -0.43645579699E+02 -0.13225114617E+02 -0.18822119821E+02  0.49336725453E+02  0.00000000000E+00 0. -1.
          2    1    1    2  501    0  0.81570839472E+02 -0.24036502068E+02  0.35695220469E+03  0.36694200048E+03  0.00000000000E+00 0. -1.
<scales pt_clust_5="13000.00000" pt_clust_6="13000.00000" pt_clust_7="13000.00000" pt_clust_8="13000.00000" pt_clust_9="85.03855"></scales>
<clustering>
<clus scale="   85.039">  1  9  2 -1</clus>
<clus scale="   91.571">  7  8 -1 -1</clus>
<clus scale="   92.045">  5  6 -1 -1</clus>
<clus scale="   99.602">  1  7  2 -1</clus>
<clus scale="   85.039">  1  5  2 -1</clus>
</clustering>
</event>
<event>
 9    1  0.1671478E-005  0.1041062E+03  0.7546771E-02  0.1272752E+00
         -3   -1    0    0    0  501 -0.00000000000E+00  0.00000000000E+00  0.61608148344E+02  0.61608148344E+02  0.00000000000E+00 0.  1.
         21   -1    0    0  501  502  0.00000000000E+00 -0.00000000000E+00 -0.33751752523E+03  0.33751752523E+03  0.00000000000E+00 0. -1.
         23    2    1    2    0    0 -0.20628813945E+02 -0.55321701303E+02 -0.35123040011E+02  0.11513813937E+03  0.92396561611E+02 0.  0.
         23    2    1    2    0    0 -0.24817435005E+02  0.29695332921E+02 -0.15659905958E+03  0.18494426105E+03  0.90462126632E+02 0.  0.
        -11    1    4    4    0    0 -0.25382014550E+02 -0.98215812919E+01 -0.42417027399E+01  0.27544548713E+02  0.00000000000E+00 0.  1.
         11    1    4    4    0    0  0.56457954533E+00  0.39516914213E+02 -0.15235735684E+03  0.15739971233E+03  0.00000000000E+00 0. -1.
        -11    1    3    3    0    0  0.16683295844E+02 -0.34805387452E+02 -0.55763756026E+02  0.67818462398E+02  0.00000000000E+00 0. -1.
         11    1    3    3    0    0 -0.37312109789E+02 -0.20516313850E+02  0.20640716015E+02  0.47319676969E+02  0.00000000000E+00 0.  1.
         -3    1    1    2    0  502  0.45446248949E+02  0.25626368382E+02 -0.84187277294E+02  0.99043273159E+02  0.00000000000E+00 0.  1.
<scales pt_clust_5="13000.00000" pt_clust_6="13000.00000" pt_clust_7="13000.00000" pt_clust_8="13000.00000" pt_clust_9="52.17348"></scales>
<clustering>
<clus scale="   52.173">  2  9  1 -1</clus>
<clus scale="   90.462">  5  6 -1 -1</clus>
<clus scale="   92.397">  7  8 -1 -1</clus>
<clus scale="  102.393">  2  5  1 -1</clus>
<clus scale="   52.173">  2  5  1 -1</clus>
</clustering>
</event>
<event>
 9    1  0.1671478E-005  0.1010473E+03  0.7546771E-02  0.1278193E+00
         21   -1    0    0  501  502  0.00000000000E+00  0.00000000000E+00  0.28840700861E+03  0.28840700861E+03  0.00000000000E+00 0. -1.
         -2   -1    0    0    0  501 -0.00000000000E+00 -0.00000000000E+00 -0.11269295067E+03  0.11269295067E+03  0.00000000000E+00 0.  1.
         23    2    1    2    0    0  0.35262168509E+02  0.31296917060E+02 -0.52273908296E+02  0.11404033026E+03  0.89720220079E+02 0.  0.
         23    2    1    2    0    0 -0.66860169740E+02  0.19408386178E+02  0.16522042621E+03  0.20040384135E+03  0.89537381230E+02 0.  0.
        -11    1    4    4    0    0  0.19379682885E+02  0.11369712116E+02  0.15042956801E+02  0.27039471364E+02  0.00000000000E+00 0.  1.
         11    1    4    4    0    0 -0.86239852624E+02  0.80386740626E+01  0.15017746941E+03  0.17336436998E+03  0.00000000000E+00 0. -1.
        -13    1    3    3    0    0 -0.20348616542E+02 -0.12605260011E+01 -0.44733558986E+02  0.49160415179E+02  0.00000000000E+00 0. -1.
         13    1    3    3    0    0  0.55610785052E+02  0.32557443061E+02 -0.75403493093E+01  0.64879915077E+02  0.00000000000E+00 0.  1.
         -2    1    1    2    0  502  0.31598001230E+02 -0.50705303238E+02  0.62767540024E+02  0.86655787683E+02  0.00000000000E+00 0.  1.
<scales pt_clust_5="13000.00000" pt_clust_6="13000.00000" pt_clust_7="13000.00000" pt_clust_8="13000.00000" pt_clust_9="59.74497"></scales>
<clustering>
<clus scale="   59.745">  1  9  2 -1</clus>
<clus scale="   89.537">  5  6 -1 -1</clus>
<clus scale="   89.720">  7  8 -1 -1</clus>
<clus scale="  100.885">  1  5  2 -1</clus>
<clus scale="   59.745">  1  5  2 -1</clus>
</clustering>
</event>
<event>
 9    1  0.1671478E-005  0.1079755E+03  0.7546771E-02  0.1267474E+00
         21   -1    0    0  501  502  0.00000000000E+00  0.00000000000E+00  0.80067699826E+02  0.80067699826E+02  0.00000000000E+00 0.  1.
          3   -1    0    0  502    0 -0.00000000000E+00 -0.00000000000E+00 -0.36432583208E+03  0.36432583208E+03  0.00000000000E+00 0. -1.
         23    2    1    2    0    0  0.23670535457E+01 -0.43673659387E+02 -0.18142523878E+03  0.20678747332E+03  0.89067111713E+02 0.  0.
         23    2    1    2    0    0 -0.23156246255E+02  0.96468623212E+02 -0.12270076542E+03  0.17748758327E+03  0.81264736354E+02 0.  0.
        -11    1    4    4    0    0 -0.42543863071E+02  0.80928464447E+02 -0.12222245477E+03  0.15263592333E+03  0.00000000000E+00 0.  1.
         11    1    4    4    0    0  0.19387616816E+02  0.15540158766E+02 -0.47831064819E+00  0.24851659932E+02  0.00000000000E+00 0. -1.
        -11    1    3    3    0    0 -0.23763969939E+02 -0.42940292516E+02 -0.41000566454E+02  0.63950304442E+02  0.00000000000E+00 0.  1.
         11    1    3    3    0    0  0.26131023485E+02 -0.73336687047E+00 -0.14042467233E+03  0.14283716888E+03  0.00000000000E+00 0. -1.
          3    1    1    2  501    0  0.20789192709E+02 -0.52794963826E+02  0.19867871945E+02  0.60118475317E+02  0.00000000000E+00 0. -1.
<scales pt_clust_5="13000.00000" pt_clust_6="13000.00000" pt_clust_7="13000.00000" pt_clust_8="13000.00000" pt_clust_9="56.74063"></scales>
<clustering>
<clus scale="   56.741">  1  9  2 -1</clus>
<clus scale="   81.265">  5  6 -1 -1</clus>
<clus scale="   89.067">  7  8 -1 -1</clus>
<clus scale="  101.635">  1  5  2 -1</clus>
<clus scale="   56.741">  1  5  2 -1</clus>
</clustering>
</event>
<event>
 9    1  0.1671478E-005  0.1016180E+03  0.7546771E-02  0.1277683E+00
          1   -1    0    0  502    0 -0.00000000000E+00  0.00000000000E+00  0.58533623469E+02  0.58533623469E+02  0.00000000000E+00 0. -1.
         21   -1    0    0  501  502  0.00000000000E+00 -0.00000000000E+00 -0.32523359620E+03  0.32523359620E+03  0.00000000000E+00 0.  1.
         23    2    1    2    0    0 -0.39749122729E+02  0.19631420018E+02 -0.44935610795E+02  0.11122977265E+03  0.91583119603E+02 0.  0.
         23    2    1    2    0    0  0.20438289134E+02 -0.45989437550E+02 -0.90210128771E+02  0.13698609275E+03  0.89969829631E+02 0.  0.
        -11    1    3    3    0    0 -0.61731403666E+02 -0.97412469160E+01 -0.40028605346E+02  0.74215546457E+02  0.00000000000E+00 0.  1.
         11    1    3    3    0    0  0.21982280937E+02  0.29372666934E+02 -0.49070054495E+01  0.37014226191E+02  0.00000000000E+00 0. -1.
        -11    1    4    4    0    0  0.52878238293E+02 -0.15964670203E+02 -0.67724684581E+02  0.87393430424E+02  0.00000000000E+00 0. -1.
         11    1    4    4    0    0 -0.32439949159E+02 -0.30024767347E+02 -0.22485444191E+02  0.49592662321E+02  0.00000000000E+00 0.  1.
          1    1    1    2  501    0  0.19310833595E+02  0.26358017532E+02 -0.13155423316E+03  0.13555135427E+03  0.00000000000E+00 0. -1.
<scales pt_clust_5="13000.00000" pt_clust_6="13000.00000" pt_clust_7="13000.00000" pt_clust_8="13000.00000" pt_clust_9="32.67497"></scales>
<clustering>
<clus scale="   32.675">  2  9  1 -1</clus>
<clus scale="   89.970">  7  8 -1 -1</clus>
<clus scale="   91.583">  5  6 -1 -1</clus>
<clus scale="  100.166">  2  7  1 -1</clus>
<clus scale="   32.675">  2  5  1 -1</clus>
</clustering>
</event>
<event>
 9    1  0.1671478E-005  0.2069395E+03  0.7546771E-02  0.1162941E+00
         21   -1    0    0  501  502  0.00000000000E+00  0.00000000000E+00  0.30549755032E+03  0.30549755032E+03  0.00000000000E+00 0. -1.
          2   -1    0    0  502    0 -0.00000000000E+00 -0.00000000000E+00 -0.44932348386E+03  0.44932348386E+03  0.00000000000E+00 0. -1.
         23    2    1    2    0    0 -0.79029945717E+02 -0.47942961038E+02 -0.29300576462E+03  0.32157729746E+03  0.94949040575E+02 0.  0.
         23    2    1    2    0    0 -0.60570450117E+02 -0.12611418126E+03  0.15174457403E+01  0.16568376336E+03  0.88742552681E+02 0.  0.
        -11    1    4    4    0    0  0.22611431811E+02 -0.39639451319E+02 -0.14676850336E+01  0.45658701786E+02  0.00000000000E+00 0.  1.
         11    1    4    4    0    0 -0.83181881928E+02 -0.86474729944E+02  0.29851307739E+01  0.12002506157E+03  0.00000000000E+00 0. -1.
        -13    1    3    3    0    0 -0.26134904021E+01 -0.46076826398E+02 -0.17495523033E+03  0.18093987090E+03  0.00000000000E+00 0.  1.
         13    1    3    3    0    0 -0.76416455315E+02 -0.18661346408E+01 -0.11805053429E+03  0.14063742656E+03  0.00000000000E+00 0. -1.
          2    1    1    2  501    0  0.13960039583E+03  0.17405714230E+03  0.14766238534E+03  0.26755997337E+03  0.00000000000E+00 0. -1.
<scales pt_clust_5="13000.00000" pt_clust_6="13000.00000" pt_clust_7="13000.00000" pt_clust_8="13000.00000" pt_clust_9="186.94570"></scales>
<clustering>
<clus scale="   88.743">  5  6 -1 -1</clus>
<clus scale="   94.949">  7  8 -1 -1</clus>
<clus scale="  132.513">  2  7  1 -1</clus>
<clus scale="  186.946">  1  9  2 -1</clus>
<clus scale="  186.946">  1  5  2 -1</clus>
</clustering>
</event>
<event>
 9    1  0.1671478E-005  0.9655351E+02  0.7546771E-02  0.1288917E+00
         21   -1    0    0  501  502  0.00000000000E+00  0.00000000000E+00  0.31382840935E+03  0.31382840935E+03  0.00000000000E+00 0.  1.
         -2   -1    0    0    0  501 -0.00000000000E+00 -0.00000000000E+00 -0.97590257531E+02  0.97590257531E+02  0.00000000000E+00 0.  1.
         23    2    1    2    0    0  0.10375735679E+02 -0.13790134395E+02 -0.42062824776E+02  0.10452219469E+03  0.94115802380E+02 0.  0.
         23    2    1    2    0    0 -0.43362877537E+02  0.86561336575E+01  0.92238392778E+02  0.13751143378E+03  0.91903239992E+02 0.  0.
        -11    1    3    3    0    0  0.46516464792E+02 -0.30647067610E+02 -0.22133219363E+02  0.59940834572E+02  0.00000000000E+00 0. -1.
         11    1    3    3    0    0 -0.36140729113E+02  0.16856933215E+02 -0.19929605413E+02  0.44581360120E+02  0.00000000000E+00 0.  1.
        -11    1    4    4    0    0 -0.29230229902E+02  0.49131063496E+02  0.39220824919E+02  0.69329220735E+02  0.00000000000E+00 0.  1.
         11    1    4    4    0    0 -0.14132647635E+02 -0.40474929839E+02  0.53017567859E+02  0.68182213049E+02  0.00000000000E+00 0. -1.
         -2    1    1    2    0  502  0.32987141858E+02  0.51340007371E+01  0.16606258381E+03  0.16938503840E+03  0.00000000000E+00 0.  1.
<scales pt_clust_5="13000.00000" pt_clust_6="13000.00000" pt_clust_7="13000.00000" pt_clust_8="13000.00000" pt_clust_9="33.38427"></scales>
<clustering>
<clus scale="   33.384">  1  9  2 -1</clus>
<clus scale="   91.903">  7  8 -1 -1</clus>
<clus scale="   94.116">  5  6 -1 -1</clus>
<clus scale="   94.398">  1  7  2 -1</clus>
<clus scale="   33.384">  1  5  2 -1</clus>
</clustering>
</event>
<event>
 9    1  0.1838296E-005  0.1742256E+03  0.7546771E-02  0.1174400E+00
          2   -1    0    0  502    0 -0.00000000000E+00  0.00000000000E+00  0.67808463922E+03  0.67808463922E+03  0.00000000000E+00 0. -1.
         21   -1    0    0  501  502  0.00000000000E+00 -0.00000000000E+00 -0.26478374609E+03  0.26478374609E+03  0.00000000000E+00 0.  1.
         23    2    1    2    0    0  0.66271402299E+02 -0.13355889307E+03  0.61710765575E+03  0.64089882181E+03  0.87747161326E+02 0.  0.
         23    2    1    2    0    0 -0.74916953476E+02  0.15766112175E+03 -0.15544273739E+03  0.24724532829E+03  0.80611590503E+02 0.  0.
        -11    1    4    4    0    0 -0.16699773307E+02  0.11468931347E+03 -0.70483094415E+02  0.13564802855E+03  0.00000000000E+00 0.  1.
         11    1    4    4    0    0 -0.58217180169E+02  0.42971808287E+02 -0.84959642979E+02  0.11159729974E+03  0.00000000000E+00 0. -1.
        -13    1    3    3    0    0  0.21102374730E+02 -0.10401962374E+03  0.51039944256E+03  0.52131850466E+03  0.00000000000E+00 0. -1.
         13    1    3    3    0    0  0.45169027569E+02 -0.29539269334E+02  0.10670821320E+03  0.11958031714E+03  0.00000000000E+00 0.  1.
          2    1    1    2  501    0  0.86455511763E+01 -0.24102228679E+02 -0.48364025234E+02  0.54724235209E+02  0.00000000000E+00 0. -1.
<scales pt_clust_5="13000.00000" pt_clust_6="13000.00000" pt_clust_7="13000.00000" pt_clust_8="13000.00000" pt_clust_9="25.60592"></scales>
<clustering>
<clus scale="   25.606">  2  9  1 -1</clus>
<clus scale="   80.612">  5  6 -1 -1</clus>
<clus scale="   87.747">  7  8 -1 -1</clus>
<clus scale="  170.743">  2  5  1 -1</clus>
<clus scale="   25.606">  2  5  1 -1</clus>
</clustering>
</event>
<event>
 9    1  0.1671478E-005  0.2041048E+03  0.7546771E-02  0.1147508E+00
          1   -1    0    0  502    0 -0.00000000000E+00  0.00000000000E+00  0.96435674764E+03  0.96435674764E+03  0.00000000000E+00 0. -1.
         21   -1    0    0  501  502  0.00000000000E+00 -0.00000000000E+00 -0.57505849745E+02  0.57505849745E+02  0.00000000000E+00 0. -1.
         23    2    1    2    0    0 -0.47202433060E+02  0.16513526890E+03  0.51746090539E+03  0.55505142487E+03  0.10401234988E+03 0.  0.
         23    2    1    2    0    0  0.48790768759E+01 -0.18483767814E+03  0.34626375906E+03  0.40325550070E+03  0.92345196668E+02 0.  0.
        -11    1    3    3    0    0 -0.20035660359E+02 -0.10669655650E+02  0.51132279250E+02  0.55944429740E+02  0.00000000000E+00 0.  1.
         11    1    3    3    0    0 -0.27166772701E+02  0.17580492455E+03  0.46632862614E+03  0.49910699513E+03  0.00000000000E+00 0. -1.
        -13    1    4    4    0    0 -0.35330344041E+02 -0.33399129508E+02  0.63412654194E+02  0.79905567852E+02  0.00000000000E+00 0.  1.
         13    1    4    4    0    0  0.40209420917E+02 -0.15143854864E+03  0.28285110487E+03  0.32334993284E+03  0.00000000000E+00 0. -1.
          1    1    1    2  501    0  0.42323356184E+02  0.19702409244E+02  0.43126233441E+02  0.63555671813E+02  0.00000000000E+00 0. -1.
<scales pt_clust_5="13000.00000" pt_clust_6="13000.00000" pt_clust_7="13000.00000" pt_clust_8="13000.00000" pt_clust_9="46.68459"></scales>
<clustering>
<clus scale="   46.685">  2  9  1 -1</clus>
<clus scale="   92.345">  7  8 -1 -1</clus>
<clus scale="  104.012">  5  6 -1 -1</clus>
<clus scale="  198.413">  2  7  1 -1</clus>
<clus scale="   46.685">  2  5  1 -1</clus>
</clustering>
</event>
<event>
 9    1  0.1671478E-005  0.1541408E+03  0.7546771E-02  0.1196502E+00
         21   -1    0    0  501  502  0.00000000000E+00  0.00000000000E+00  0.25274509519E+02  0.25274509519E+02  0.00000000000E+00 0. -1.
          1   -1    0    0  502    0 -0.00000000000E+00 -0.00000000000E+00 -0.14555401987E+04  0.14555401987E+04  0.00000000000E+00 0. -1.
         23    2    1    2    0    0  0.42539136226E+02  0.12515847833E+03 -0.66217451565E+03  0.68171666348E+03  0.93745918735E+02 0.  0.
         23    2    1    2    0    0 -0.87257881457E+02 -0.79981505867E+02 -0.41744956832E+03  0.44274111648E+03  0.88003266824E+02 0.  0.
        -11    1    4    4    0    0 -0.68288206927E+02 -0.36225033654E+01 -0.17728162730E+03  0.19001362350E+03  0.00000000000E+00 0. -1.
         11    1    4    4    0    0 -0.18969674530E+02 -0.76359002502E+02 -0.24016794102E+03  0.25272749298E+03  0.00000000000E+00 0.  1.
        -11    1    3    3    0    0 -0.22960161215E+01  0.11627968291E+03 -0.46773293110E+03  0.48197544666E+03  0.00000000000E+00 0. -1.
         11    1    3    3    0    0  0.44835152347E+02  0.88787954219E+01 -0.19444158455E+03  0.19974121682E+03  0.00000000000E+00 0.  1.
          1    1    1    2  501    0  0.44718745231E+02 -0.45176972461E+02 -0.35064160517E+03  0.35635692822E+03  0.00000000000E+00 0. -1.
<scales pt_clust_5="13000.00000" pt_clust_6="13000.00000" pt_clust_7="13000.00000" pt_clust_8="13000.00000" pt_clust_9="63.56673"></scales>
<clustering>
<clus scale="   63.567">  1  9  2 -1</clus>
<clus scale="   88.003">  5  6 -1 -1</clus>
<clus scale="   93.746">  7  8 -1 -1</clus>
<clus scale="  150.717">  1  5  2 -1</clus>
<clus scale="   63.567">  1  5  2 -1</clus>
</clustering>
</event>
<event>
 9    1  0.1671478E-005  0.1141558E+03  0.7546771E-02  0.1256754E+00
         21   -1    0    0  501  502  0.00000000000E+00  0.00000000000E+00  0.28398629329E+03  0.28398629329E+03  0.00000000000E+00 0. -1.
          2   -1    0    0  502    0 -0.00000000000E+00 -0.00000000000E+00 -0.45460996638E+03  0.45460996638E+03  0.00000000000E+00 0. -1.
         23    2    1    2    0    0  0.28500489899E+02  0.15577933315E+02 -0.20652820046E+03  0.22891170627E+03  0.93229403902E+02 0.  0.
         23    2    1    2    0    0 -0.50982037350E+02 -0.66637611241E+02 -0.21511101278E+03  0.25254390689E+03  0.10230316576E+03 0.  0.
        -11    1    3    3    0    0 -0.10196528211E+02  0.39986441667E+02 -0.15313496198E+03  0.15859760807E+03  0.00000000000E+00 0. -1.
         11    1    3    3    0    0  0.38697018110E+02 -0.24408508353E+02 -0.53393238485E+02  0.70314098206E+02  0.00000000000E+00 0.  1.
        -11    1    4    4    0    0 -0.36829380779E+02 -0.11810567558E+02 -0.18382841496E+03  0.18785307807E+03  0.00000000000E+00 0. -1.
         11    1    4    4    0    0 -0.14152656571E+02 -0.54827043683E+02 -0.31282597819E+02  0.64690828819E+02  0.00000000000E+00 0.  1.
          2    1    1    2  501    0  0.22481547451E+02  0.51059677926E+02  0.25101554015E+03  0.25714064650E+03  0.00000000000E+00 0. -1.
<scales pt_clust_5="13000.00000" pt_clust_6="13000.00000" pt_clust_7="13000.00000" pt_clust_8="13000.00000" pt_clust_9="55.78988"></scales>
<clustering>
<clus scale="   55.790">  1  9  2 -1</clus>
<clus scale="   93.229">  5  6 -1 -1</clus>
<clus scale="  102.303">  7  8 -1 -1</clus>
<clus scale="  106.101">  2  5  1 -1</clus>
<clus scale="   55.790">  1  5  2 -1</clus>
</clustering>
</event>
<event>
 9    1  0.1671478E-005  0.9314255E+02  0.7546771E-02  0.1296401E+00
         21   -1    0    0  501  502  0.00000000000E+00  0.00000000000E+00  0.73741596419E+02  0.73741596419E+02  0.00000000000E+00 0. -1.
          2   -1    0    0  502    0 -0.00000000000E+00 -0.00000000000E+00 -0.66914101988E+03  0.66914101988E+03  0.00000000000E+00 0. -1.
         23    2    1    2    0    0 -0.17867153085E+02 -0.33261882060E+02 -0.38810414638E+03  0.40078862386E+03  0.92634251861E+02 0.  0.
         23    2    1    2    0    0 -0.30033691351E+02 -0.27381987798E+02 -0.23872177272E+03  0.25866860976E+03  0.90937170802E+02 0.  0.
        -11    1    3    3    0    0 -0.51349415282E+02 -0.28335378946E+02 -0.31249599055E+03  0.31795188357E+03  0.00000000000E+00 0. -1.
         11    1    3    3    0    0  0.33482262198E+02 -0.49265031141E+01 -0.75608155826E+02  0.82836740292E+02  0.00000000000E+00 0.  1.
        -11    1    4    4    0    0  0.29283445669E+02 -0.20622994597E+02 -0.56309816966E+02  0.66735474698E+02  0.00000000000E+00 0.  1.
         11    1    4    4    0    0 -0.59317137020E+02 -0.67589932010E+01 -0.18241195575E+03  0.19193313506E+03  0.00000000000E+00 0. -1.
          2    1    1    2  501    0  0.47900844436E+02  0.60643869858E+02  0.31426495632E+02  0.83425382688E+02  0.00000000000E+00 0. -1.
<scales pt_clust_5="13000.00000" pt_clust_6="13000.00000" pt_clust_7="13000.00000" pt_clust_8="13000.00000" pt_clust_9="77.27982"></scales>
<clustering>
<clus scale="   77.280">  1  9  2 -1</clus>
<clus scale="   90.937">  7  8 -1 -1</clus>
<clus scale="   91.455">  1  7  2 -1</clus>
<clus scale="   92.634">  5  6 -1 -1</clus>
<clus scale="   77.280">  1  5  2 -1</clus>
</clustering>
</event>
<event>
 9    1  0.1671478E-005  0.2370547E+03  0.7546771E-02  0.1121796E+00
          2   -1    0    0  502    0 -0.00000000000E+00  0.00000000000E+00  0.82702537702E+02  0.82702537702E+02  0.00000000000E+00 0. -1.
         21   -1    0    0  501  502  0.00000000000E+00 -0.00000000000E+00 -0.98740545213E+03  0.98740545213E+03  0.00000000000E+00 0. -1.
         23    2    1    2    0    0 -0.18385264176E+03  0.61296433122E+02 -0.27846229059E+03  0.35115818168E+03  0.90618842866E+02 0.  0.
         23    2    1    2    0    0  0.23303936695E+03 -0.10129631520E+03 -0.38854467316E+03  0.47294434182E+03  0.90228029983E+02 0.  0.
        -11    1    4    4    0    0  0.19070112939E+03 -0.48909740905E+02 -0.24434538558E+03  0.31378934169E+03  0.00000000000E+00 0. -1.
         11    1    4    4    0    0  0.42338237562E+02 -0.52386574294E+02 -0.14419928758E+03  0.15915500013E+03  0.00000000000E+00 0.  1.
        -13    1    3    3    0    0 -0.88817510962E+01  0.23000767615E+02 -0.64751342409E+01  0.25492119897E+02  0.00000000000E+00 0. -1.
         13    1    3    3    0    0 -0.17497089066E+03  0.38295665507E+02 -0.27198715635E+03  0.32566606178E+03  0.00000000000E+00 0.  1.
          2    1    1    2  501    0 -0.49186725194E+02  0.39999882077E+02 -0.23769595068E+03  0.24600546634E+03  0.00000000000E+00 0. -1.
<scales pt_clust_5="13000.00000" pt_clust_6="13000.00000" pt_clust_7="13000.00000" pt_clust_8="13000.00000" pt_clust_9="63.39814"></scales>
<clustering>
<clus scale="   63.398">  2  9  1 -1</clus>
<clus scale="   90.228">  5  6 -1 -1</clus>
<clus scale="   90.619">  7  8 -1 -1</clus>
<clus scale="  236.906">  2  5  1 -1</clus>
<clus scale="   63.398">  2  5  1 -1</clus>
</clustering>
</event>
<event>
 9    1  0.1671478E-005  0.9790893E+02  0.7546771E-02  0.1285657E+00
          3   -1    0    0  502    0 -0.00000000000E+00  0.00000000000E+00  0.17474384058E+03  0.17474384058E+03  0.00000000000E+00 0. -1.
         21   -1    0    0  501  502  0.00000000000E+00 -0.00000000000E+00 -0.27025868309E+03  0.27025868309E+03  0.00000000000E+00 0. -1.
         23    2    1    2    0    0 -0.31827181929E+01 -0.17479536571E+02  0.90480819967E+02  0.13106927295E+03  0.93148868134E+02 0.  0.
         23    2    1    2    0    0  0.86357894025E+02  0.52883823155E+02 -0.39904953257E+02  0.14213665965E+03  0.91411378456E+02 0.  0.
        -11    1    4    4    0    0  0.72452189120E+02  0.76725463960E+02 -0.18338286134E+02  0.10710933324E+03  0.00000000000E+00 0. -1.
         11    1    4    4    0    0  0.13905704905E+02 -0.23841640804E+02 -0.21566667122E+02  0.35027326417E+02  0.00000000000E+00 0.  1.
        -13    1    3    3    0    0  0.74914908838E+01 -0.42913604716E+02  0.82517940092E+01  0.44337253069E+02  0.00000000000E+00 0.  1.
         13    1    3    3    0    0 -0.10674209077E+02  0.25434068144E+02  0.82229025958E+02  0.86732019876E+02  0.00000000000E+00 0. -1.
          3    1    1    2  501    0 -0.83175175832E+02 -0.35404286584E+02 -0.14609070922E+03  0.17179659107E+03  0.00000000000E+00 0. -1.
<scales pt_clust_5="13000.00000" pt_clust_6="13000.00000" pt_clust_7="13000.00000" pt_clust_8="13000.00000" pt_clust_9="90.39676"></scales>
<clustering>
<clus scale="   90.397">  2  9  1 -1</clus>
<clus scale="   91.411">  5  6 -1 -1</clus>
<clus scale="   93.149">  7  8 -1 -1</clus>
<clus scale="   96.257">  2  5  1 -1</clus>
<clus scale="   90.397">  2  5  1 -1</clus>
</clustering>
</event>
<event>
 9    1  0.1671478E-005  0.9174446E+02  0.7546771E-02  0.1311342E+00
         -2   -1    0    0    0  501 -0.00000000000E+00  0.00000000000E+00  0.21908364537E+02  0.21908364537E+02  0.00000000000E+00 0.  1.
         21   -1    0    0  501  502  0.00000000000E+00 -0.00000000000E+00 -0.11471413809E+04  0.11471413809E+04  0.00000000000E+00 0.  1.
         23    2    1    2    0    0  0.26064034797E+02  0.65205172280E+01 -0.10168134816E+03  0.12750284861E+03  0.72083484837E+02 0.  0.
         23    2    1    2    0    0  0.47905476130E+02  0.14601749318E+02 -0.40167905945E+03  0.41493443269E+03  0.91194138537E+02 0.  0.
        -11    1    3    3    0    0  0.41092169260E+02 -0.15376259142E+02 -0.36338417453E+02  0.56969081990E+02  0.00000000000E+00 0.  1.
         11    1    3    3    0    0 -0.15028134463E+02  0.21896776370E+02 -0.65342930707E+02  0.70533766625E+02  0.00000000000E+00 0. -1.
        -13    1    4    4    0    0  0.42162354182E+02  0.51268203323E+02 -0.27746022294E+03  0.28528979669E+03  0.00000000000E+00 0.  1.
         13    1    4    4    0    0  0.57431219480E+01 -0.36666454005E+02 -0.12421883651E+03  0.12964463600E+03  0.00000000000E+00 0. -1.
         -2    1    1    2    0  502 -0.73969510927E+02 -0.21122266546E+02 -0.62187260874E+03  0.62661246412E+03  0.00000000000E+00 0.  1.
<scales pt_clust_5="13000.00000" pt_clust_6="13000.00000" pt_clust_7="13000.00000" pt_clust_8="13000.00000" pt_clust_9="76.92619"></scales>
<clustering>
<clus scale="   72.083">  5  6 -1 -1</clus>
<clus scale="   76.926">  2  9  1 -1</clus>
<clus scale="   72.778">  1  5  2 -1</clus>
<clus scale="   91.194">  7  8 -1 -1</clus>
<clus scale="   76.926">  2  5  1 -1</clus>
</clustering>
</event>
<event>
 9    1  0.1671478E-005  0.1176122E+03  0.7546771E-02  0.1247922E+00
         21   -1    0    0  501  502  0.00000000000E+00  0.00000000000E+00  0.28786300654E+03  0.28786300654E+03  0.00000000000E+00 0.  1.
         -3   -1    0    0    0  501 -0.00000000000E+00 -0.00000000000E+00 -0.16548909940E+03  0.16548909940E+03  0.00000000000E+00 0.  1.
         23    2    1    2    0    0 -0.49931800002E+02  0.50810791481E+02 -0.18807484299E+02  0.11881367445E+03  0.93209691490E+02 0.  0.
         23    2    1    2    0    0  0.94784472471E+02  0.37134447426E+02 -0.27479170407E+02  0.13910938453E+03  0.90737272670E+02 0.  0.
        -11    1    3    3    0    0  0.17713683441E+02  0.33707737191E+02  0.15437394236E+02  0.41088919046E+02  0.00000000000E+00 0. -1.
         11    1    3    3    0    0 -0.67645483443E+02  0.17103054291E+02 -0.34244878535E+02  0.77724755402E+02  0.00000000000E+00 0.  1.
        -13    1    4    4    0    0  0.10485399395E+03  0.80179630811E+01 -0.25669672612E+02  0.10824777074E+03  0.00000000000E+00 0.  1.
         13    1    4    4    0    0 -0.10069521478E+02  0.29116484345E+02 -0.18094977949E+01  0.30861613790E+02  0.00000000000E+00 0. -1.
         -3    1    1    2    0  502 -0.44852672468E+02 -0.87945238908E+02  0.16866056185E+03  0.19542904696E+03  0.00000000000E+00 0.  1.
<scales pt_clust_5="13000.00000" pt_clust_6="13000.00000" pt_clust_7="13000.00000" pt_clust_8="13000.00000" pt_clust_9="98.72248"></scales>
<clustering>
<clus scale="   90.737">  7  8 -1 -1</clus>
<clus scale="   93.210">  5  6 -1 -1</clus>
<clus scale="   98.722">  1  9  2 -1</clus>
<clus scale="  115.663">  1  7  2 -1</clus>
<clus scale="   98.722">  1  5  2 -1</clus>
</clustering>
</event>
<event>
 9    1  0.1671478E-005  0.1160341E+03  0.7546771E-02  0.1253120E+00
         21   -1    0    0  501  502  0.00000000000E+00  0.00000000000E+00  0.19773521258E+02  0.19773521258E+02  0.00000000000E+00 0. -1.
          1   -1    0    0  502    0 -0.00000000000E+00 -0.00000000000E+00 -0.11485711024E+04  0.11485711024E+04  0.00000000000E+00 0. -1.
         23    2    1    2    0    0 -0.60244283892E+02 -0.16649864540E+02 -0.52871547350E+03  0.53862695933E+03  0.81684500784E+02 0.  0.
         23    2    1    2    0    0  0.79636480497E+02  0.23588615393E+02 -0.59608241580E+03  0.60873669470E+03  0.91365886696E+02 0.  0.
        -13    1    3    3    0    0 -0.46638509039E+02  0.29074287013E+02 -0.26665471913E+03  0.27225944230E+03  0.00000000000E+00 0. -1.
         13    1    3    3    0    0 -0.13605774853E+02 -0.45724151553E+02 -0.26206075438E+03  0.26636751703E+03  0.00000000000E+00 0.  1.
        -13    1    4    4    0    0  0.40833816755E+02 -0.34586246956E+02 -0.25132814285E+03  0.25696195138E+03  0.00000000000E+00 0.  1.
         13    1    4    4    0    0  0.38802663742E+02  0.58174862349E+02 -0.34475427295E+03  0.35177474332E+03  0.00000000000E+00 0. -1.
          1    1    1    2  501    0 -0.19392196605E+02 -0.69387508527E+01 -0.39996918729E+01  0.20980969655E+02  0.00000000000E+00 0. -1.
<scales pt_clust_5="13000.00000" pt_clust_6="13000.00000" pt_clust_7="13000.00000" pt_clust_8="13000.00000" pt_clust_9="20.59620"></scales>
<clustering>
<clus scale="   20.596">  1  9  2 -1</clus>
<clus scale="   81.685">  5  6 -1 -1</clus>
<clus scale="   91.366">  7  8 -1 -1</clus>
<clus scale="  108.575">  2  5  1 -1</clus>
<clus scale="   20.596">  1  5  2 -1</clus>
</clustering>
</event>
<event>
 9    1  0.1671478E-005  0.1388116E+03  0.7546771E-02  0.1215202E+00
         -1   -1    0    0    0  501 -0.00000000000E+00  0.00000000000E+00  0.79189450078E+03  0.79189450078E+03  0.00000000000E+00 0.  1.
         21   -1    0    0  501  502  0.00000000000E+00 -0.00000000000E+00 -0.59810701495E+02  0.59810701495E+02  0.00000000000E+00 0.  1.
         23    2    1    2    0    0 -0.10006026246E+03  0.11886141896E+02  0.63027806688E+03  0.64485875840E+03  0.91864248775E+02 0.  0.
         23    2    1    2    0    0  0.12301806821E+03 -0.47306947998E+01  0.10006134443E+03  0.18273619383E+03  0.90688584219E+02 0.  0.
        -11    1    3    3    0    0 -0.92004178569E+02 -0.27337135933E+02  0.46461916048E+03  0.47442918561E+03  0.00000000000E+00 0.  1.
         11    1    3    3    0    0 -0.80560838925E+01  0.39223277829E+02  0.16565890640E+03  0.17042957279E+03  0.00000000000E+00 0. -1.
        -13    1    4    4    0    0  0.10680584065E+03 -0.18030509235E+02  0.11423666434E+03  0.15742491016E+03  0.00000000000E+00 0.  1.
         13    1    4    4    0    0  0.16212227558E+02  0.13299814435E+02 -0.14175319910E+02  0.25311283668E+02  0.00000000000E+00 0. -1.
         -1    1    1    2    0  502 -0.22957805748E+02 -0.71554470960E+01  0.17443879791E+01  0.24110250047E+02  0.00000000000E+00 0.  1.
<scales pt_clust_5="13000.00000" pt_clust_6="13000.00000" pt_clust_7="13000.00000" pt_clust_8="13000.00000" pt_clust_9="24.04706"></scales>
<clustering>
<clus scale="   24.047">  2  9  1 -1</clus>
<clus scale="   90.689">  7  8 -1 -1</clus>
<clus scale="   91.864">  5  6 -1 -1</clus>
<clus scale="  138.036">  2  7  1 -1</clus>
<clus scale="   24.047">  2  5  1 -1</clus>
</clustering>
</event>
<event>
 9    1  0.1671478E-005  0.1393813E+03  0.7546771E-02  0.1231872E+00
         -3   -1    0    0    0  501 -0.00000000000E+00  0.00000000000E+00  0.49797062364E+02  0.49797062364E+02  0.00000000000E+00 0.  1.
         21   -1    0    0  501  502  0.00000000000E+00 -0.00000000000E+00 -0.95577831605E+03  0.95577831605E+03  0.00000000000E+00 0.  1.
         23    2    1    2    0    0 -0.29181304411E+02 -0.16578421103E+02 -0.16802342565E+03  0.19365300934E+03  0.90239813186E+02 0.  0.
         23    2    1    2    0    0 -0.43343892095E+02 -0.60608159132E+02 -0.78066207154E+02  0.14358516107E+03  0.94711793593E+02 0.  0.
        -11    1    3    3    0    0  0.27234478538E+02 -0.21154079079E+02 -0.35223474457E+02  0.49294066943E+02  0.00000000000E+00 0. -1.
         11    1    3    3    0    0 -0.56415782949E+02  0.45756579761E+01 -0.13279995120E+03  0.14435894240E+03  0.00000000000E+00 0.  1.
        -13    1    4    4    0    0 -0.14324286358E+02 -0.25731085971E+02 -0.91616808107E+02  0.96233640130E+02  0.00000000000E+00 0. -1.
         13    1    4    4    0    0 -0.29019605736E+02 -0.34877073161E+02  0.13550600954E+02  0.47351520942E+02  0.00000000000E+00 0.  1.
         -3    1    1    2    0  502  0.72525196506E+02  0.77186580234E+02 -0.65989162088E+03  0.66833720800E+03  0.00000000000E+00 0.  1.
<scales pt_clust_5="13000.00000" pt_clust_6="13000.00000" pt_clust_7="13000.00000" pt_clust_8="13000.00000" pt_clust_9="102.25857"></scales>
<clustering>
<clus scale="   90.240">  5  6 -1 -1</clus>
<clus scale="   94.712">  7  8 -1 -1</clus>
<clus scale="   96.279">  1  5  2 -1</clus>
<clus scale="  102.259">  2  9  1 -1</clus>
<clus scale="  102.259">  2  5  1 -1</clus>
</clustering>
</event>
<event>
 9    1  0.1671478E-005  0.1032362E+03  0.7546771E-02  0.1277796E+00
          1   -1    0    0  502    0 -0.00000000000E+00  0.00000000000E+00  0.31513529280E+03  0.31513529280E+03  0.00000000000E+00 0. -1.
         21   -1    0    0  501  502  0.00000000000E+00 -0.00000000000E+00 -0.85146435251E+02  0.85146435251E+02  0.00000000000E+00 0.  1.
         23    2    1    2    0    0 -0.29260029782E+02 -0.13983704836E+02  0.68041936208E+02  0.11854543630E+03  0.91496568463E+02 0.  0.
         23    2    1    2    0    0 -0.24275119457E+02  0.44752916505E+02  0.38696703269E+01  0.11202720573E+03  0.99714670510E+02 0.  0.
        -11    1    4    4    0    0  0.14127648187E-01  0.21028678298E+02  0.50293157325E+02  0.54512449810E+02  0.00000000000E+00 0. -1.
         11    1    4    4    0    0 -0.24289247105E+02  0.23724238207E+02 -0.46423486998E+02  0.57514755920E+02  0.00000000000E+00 0.  1.
        -13    1    3    3    0    0 -0.20742750498E+02  0.38483296307E+02  0.26913704559E+02  0.51337834839E+02  0.00000000000E+00 0.  1.
         13    1    3    3    0    0 -0.85172792834E+01 -0.52467001143E+02  0.41128231649E+02  0.67207601460E+02  0.00000000000E+00 0. -1.
          1    1    1    2  501    0  0.53535149239E+02 -0.30769211669E+02  0.15807725101E+03  0.16970908602E+03  0.00000000000E+00 0. -1.
<scales pt_clust_5="13000.00000" pt_clust_6="13000.00000" pt_clust_7="13000.00000" pt_clust_8="13000.00000" pt_clust_9="61.74755"></scales>
<clustering>
<clus scale="   61.748">  2  9  1 -1</clus>
<clus scale="   91.497">  7  8 -1 -1</clus>
<clus scale="   95.322">  1  7  2 -1</clus>
<clus scale="   99.715">  5  6 -1 -1</clus>
<clus scale="   61.748">  2  5  1 -1</clus>
</clustering>
</event>
<event>
 9    1  0.1671478E-005  0.1099270E+03  0.7546771E-02  0.1263326E+00
          1   -1    0    0  502    0 -0.00000000000E+00  0.00000000000E+00  0.76489196239E+03  0.76489196239E+03  0.00000000000E+00 0. -1.
         21   -1    0    0  501  502  0.00000000000E+00 -0.00000000000E+00 -0.69595718441E+02  0.69595718441E+02  0.00000000000E+00 0. -1.
         23    2    1    2    0    0  0.49566093924E+02  0.45156657420E+02  0.51210875629E+03  0.52442527018E+03  0.90942643231E+02 0.  0.
         23    2    1    2    0    0 -0.53828671571E+02 -0.16532738177E+02  0.23209210932E+03  0.25323670923E+03  0.84209419772E+02 0.  0.
        -11    1    4    4    0    0  0.21495277284E+02 -0.16229553890E+01  0.80099473784E+02  0.82949422121E+02  0.00000000000E+00 0. -1.
         11    1    4    4    0    0 -0.75323948855E+02 -0.14909782788E+02  0.15199263554E+03  0.17028728711E+03  0.00000000000E+00 0.  1.
        -11    1    3    3    0    0 -0.21782937911E+02 -0.84782302823E+01  0.12406105836E+03  0.12624390272E+03  0.00000000000E+00 0.  1.
         11    1    3    3    0    0  0.71349031835E+02  0.53634887702E+02  0.38804769793E+03  0.39818136746E+03  0.00000000000E+00 0. -1.
          1    1    1    2  501    0  0.42625776473E+01 -0.28623919243E+02 -0.48904621667E+02  0.56825701416E+02  0.00000000000E+00 0. -1.
<scales pt_clust_5="13000.00000" pt_clust_6="13000.00000" pt_clust_7="13000.00000" pt_clust_8="13000.00000" pt_clust_9="28.93956"></scales>
<clustering>
<clus scale="   28.940">  2  9  1 -1</clus>
<clus scale="   84.209">  5  6 -1 -1</clus>
<clus scale="   90.943">  7  8 -1 -1</clus>
<clus scale="  104.425">  2  5  1 -1</clus>
<clus scale="   28.940">  2  5  1 -1</clus>
</clustering>
</event>
<event>
 9    1  0.1671478E-005  0.1733482E+03  0.7546771E-02  0.1174418E+00
          2   -1    0    0  502    0 -0.00000000000E+00  0.00000000000E+00  0.65634319510E+03  0.65634319510E+03  0.00000000000E+00 0. -1.
         21   -1    0    0  501  502  0.00000000000E+00 -0.00000000000E+00 -0.71599650855E+02  0.71599650855E+02  0.00000000000E+00 0.  1.
         23    2    1    2    0    0  0.13501773677E+03 -0.40717365342E+02  0.42318496717E+03  0.45516525156E+03  0.90565979856E+02 0.  0.
         23    2    1    2    0    0 -0.16355931997E+03  0.39763615798E+02  0.13909230755E+03  0.23644214509E+03  0.90694110410E+02 0.  0.
        -11    1    3    3    0    0  0.40201528176E+02 -0.58641025372E+02  0.17749005244E+03  0.19120055293E+03  0.00000000000E+00 0.  1.
         11    1    3    3    0    0  0.94816208595E+02  0.17923660029E+02  0.24569491473E+03  0.26396469863E+03  0.00000000000E+00 0. -1.
        -13    1    4    4    0    0 -0.85268532658E+02  0.58864962521E+02  0.10908223228E+03  0.15044846251E+03  0.00000000000E+00 0. -1.
         13    1    4    4    0    0 -0.78290787315E+02 -0.19101346723E+02  0.30010075277E+02  0.85993682577E+02  0.00000000000E+00 0.  1.
          2    1    1    2  501    0  0.28541583203E+02  0.95374954396E+00  0.22466269522E+02  0.36335449304E+02  0.00000000000E+00 0. -1.
<scales pt_clust_5="13000.00000" pt_clust_6="13000.00000" pt_clust_7="13000.00000" pt_clust_8="13000.00000" pt_clust_9="28.55751"></scales>
<clustering>
<clus scale="   28.558">  2  9  1 -1</clus>
<clus scale="   90.566">  5  6 -1 -1</clus>
<clus scale="   90.694">  7  8 -1 -1</clus>
<clus scale="  173.281">  1  5  2 -1</clus>
<clus scale="   28.558">  2  5  1 -1</clus>
</clustering>
</event>
<event>
 9    1  0.1671478E-005  0.9527879E+02  0.7546771E-02  0.1291476E+00
          1   -1    0    0  502    0 -0.00000000000E+00  0.00000000000E+00  0.79962564299E+02  0.79962564299E+02  0.00000000000E+00 0. -1.
         21   -1    0    0  501  502  0.00000000000E+00 -0.00000000000E+00 -0.21269004761E+03  0.21269004761E+03  0.00000000000E+00 0.  1.
         23    2    1    2    0    0 -0.10036751384E+02  0.27427631928E+02  0.16362331524E+02  0.96771056742E+02  0.90795925891E+02 0.  0.
         23    2    1    2    0    0 -0.85680690685E+00  0.36019918114E-02 -0.13376473745E+03  0.16262497381E+03  0.92483203824E+02 0.  0.
        -13    1    4    4    0    0  0.19580564766E+02  0.41642016818E+02 -0.63076640957E+02  0.78077645428E+02  0.00000000000E+00 0.  1.
         13    1    4    4    0    0 -0.20437371673E+02 -0.41638414826E+02 -0.70688096497E+02  0.84547328382E+02  0.00000000000E+00 0. -1.
        -13    1    3    3    0    0 -0.23352533829E+02 -0.27985106720E+02 -0.30236670771E+01  0.36573892286E+02  0.00000000000E+00 0. -1.
         13    1    3    3    0    0  0.13315782445E+02  0.55412738649E+02  0.19385998601E+02  0.60197164455E+02  0.00000000000E+00 0.  1.
          1    1    1    2  501    0  0.10893558291E+02 -0.27431233920E+02 -0.15325077376E+02  0.33256581352E+02  0.00000000000E+00 0. -1.
<scales pt_clust_5="13000.00000" pt_clust_6="13000.00000" pt_clust_7="13000.00000" pt_clust_8="13000.00000" pt_clust_9="29.51512"></scales>
<clustering>
<clus scale="   29.515">  2  9  1 -1</clus>
<clus scale="   90.796">  7  8 -1 -1</clus>
<clus scale="   92.483">  5  6 -1 -1</clus>
<clus scale="   93.642">  1  7  2 -1</clus>
<clus scale="   29.515">  2  5  1 -1</clus>
</clustering>
</event>
<event>
 9    1  0.1671478E-005  0.1802518E+03  0.7546771E-02  0.1167698E+00
         21   -1    0    0  501  502  0.00000000000E+00  0.00000000000E+00  0.55895846802E+02  0.55895846802E+02  0.00000000000E+00 0.  1.
          1   -1    0    0  502    0 -0.00000000000E+00 -0.00000000000E+00 -0.11566223394E+04  0.11566223394E+04  0.00000000000E+00 0. -1.
         23    2    1    2    0    0 -0.93831064219E+02  0.11578578194E+03 -0.46935496935E+03  0.50056136635E+03  0.89760672394E+02 0.  0.
         23    2    1    2    0    0  0.16139943048E+03 -0.63087508866E+02 -0.57983210915E+03  0.61196230344E+03  0.90899813506E+02 0.  0.
        -11    1    4    4    0    0 -0.18591072300E+01 -0.28126148275E+02 -0.68906185221E+02  0.74448632347E+02  0.00000000000E+00 0. -1.
         11    1    4    4    0    0  0.16325853771E+03 -0.34961360590E+02 -0.51092592392E+03  0.53751367109E+03  0.00000000000E+00 0.  1.
        -11    1    3    3    0    0 -0.77303884750E+02  0.27379077523E+02 -0.26217395852E+03  0.27470109030E+03  0.00000000000E+00 0.  1.
         11    1    3    3    0    0 -0.16527179469E+02  0.88406704420E+02 -0.20718101083E+03  0.22586027605E+03  0.00000000000E+00 0. -1.
          1    1    1    2  501    0 -0.67568366259E+02 -0.52698273077E+02 -0.51539414055E+02  0.99994516376E+02  0.00000000000E+00 0. -1.
<scales pt_clust_5="13000.00000" pt_clust_6="13000.00000" pt_clust_7="13000.00000" pt_clust_8="13000.00000" pt_clust_9="85.68893"></scales>
<clustering>
<clus scale="   85.689">  1  9  2 -1</clus>
<clus scale="   89.761">  7  8 -1 -1</clus>
<clus scale="   90.900">  5  6 -1 -1</clus>
<clus scale="  179.680">  2  7  1 -1</clus>
<clus scale="   85.689">  1  5  2 -1</clus>
</clustering>
</event>
<event>
 9    1  0.1671478E-005  0.9457862E+02  0.7546771E-02  0.1292801E+00
         21   -1    0    0  501  502  0.00000000000E+00  0.00000000000E+00  0.24099979317E+03  0.24099979317E+03  0.00000000000E+00 0. -1.
         -4   -1    0    0    0  501 -0.00000000000E+00 -0.00000000000E+00 -0.98638838352E+02  0.98638838352E+02  0.00000000000E+00 0.  1.
         23    2    1    2    0    0  0.24442233641E+02  0.16455720721E+02 -0.43138238718E+02  0.10449508309E+03  0.90499178009E+02 0.  0.
         23    2    1    2    0    0  0.75375517413E+01 -0.14334667879E+02  0.73488069961E+02  0.11863733683E+03  0.91717086049E+02 0.  0.
        -11    1    4    4    0    0  0.10964020651E+02 -0.35609306961E+02 -0.46815417148E+01  0.37551954995E+02  0.00000000000E+00 0.  1.
         11    1    4    4    0    0 -0.34264689095E+01  0.21274639083E+02  0.78169611676E+02  0.81085381832E+02  0.00000000000E+00 0. -1.
        -11    1    3    3    0    0  0.26756694642E+02 -0.18656887141E+02 -0.57803983127E+02  0.66372438642E+02  0.00000000000E+00 0. -1.
         11    1    3    3    0    0 -0.23144610010E+01  0.35112607862E+02  0.14665744409E+02  0.38122644447E+02  0.00000000000E+00 0.  1.
         -4    1    1    2    0  502 -0.31979785382E+02 -0.21210528425E+01  0.11201112357E+03  0.11650621160E+03  0.00000000000E+00 0.  1.
<scales pt_clust_5="13000.00000" pt_clust_6="13000.00000" pt_clust_7="13000.00000" pt_clust_8="13000.00000" pt_clust_9="32.05005"></scales>
<clustering>
<clus scale="   32.050">  1  9  2 -1</clus>
<clus scale="   90.499">  7  8 -1 -1</clus>
<clus scale="   91.717">  5  6 -1 -1</clus>
<clus scale="   93.398">  2  7  1 -1</clus>
<clus scale="   32.050">  1  5  2 -1</clus>
</clustering>
</event>
<event>
 9    1  0.1671478E-005  0.9651612E+02  0.7546771E-02  0.1288583E+00
          4   -1    0    0  502    0 -0.00000000000E+00  0.00000000000E+00  0.17417159530E+03  0.17417159530E+03  0.00000000000E+00 0. -1.
         21   -1    0    0  501  502  0.00000000000E+00 -0.00000000000E+00 -0.15263999116E+03  0.15263999116E+03  0.00000000000E+00 0. -1.
         23    2    1    2    0    0 -0.66715607352E+01 -0.29340441577E+02  0.10194161504E+03  0.13957567797E+03  0.90464942213E+02 0.  0.
         23    2    1    2    0    0 -0.33563729386E+02  0.28377518066E+02 -0.53365838183E+01  0.10205477650E+03  0.91950480251E+02 0.  0.
        -11    1    4    4    0    0 -0.34033903019E+02 -0.26887088510E+02 -0.15111958348E+02  0.45930309910E+02  0.00000000000E+00 0.  1.
         11    1    4    4    0    0  0.47017363300E+00  0.55264606576E+02  0.97753745293E+01  0.56124466594E+02  0.00000000000E+00 0. -1.
        -13    1    3    3    0    0  0.36314686703E+02 -0.29384077848E+02  0.29221435272E+02  0.55100569695E+02  0.00000000000E+00 0.  1.
         13    1    3    3    0    0 -0.42986247438E+02  0.43636270326E-01  0.72720179766E+02  0.84475108276E+02  0.00000000000E+00 0. -1.
          4    1    1    2  501    0  0.40235290122E+02  0.96292351157E+00 -0.75073427076E+02  0.85181131982E+02  0.00000000000E+00 0. -1.
<scales pt_clust_5="13000.00000" pt_clust_6="13000.00000" pt_clust_7="13000.00000" pt_clust_8="13000.00000" pt_clust_9="40.24681"></scales>
<clustering>
<clus scale="   40.247">  2  9  1 -1</clus>
<clus scale="   90.465">  7  8 -1 -1</clus>
<clus scale="   91.950">  5  6 -1 -1</clus>
<clus scale="   95.102">  1  7  2 -1</clus>
<clus scale="   40.247">  2  5  1 -1</clus>
</clustering>
</event>
<event>
 9    1  0.1671478E-005  0.1563332E+03  0.7546771E-02  0.1193074E+00
          1   -1    0    0  502    0 -0.00000000000E+00  0.00000000000E+00  0.43945949537E+03  0.43945949537E+03  0.00000000000E+00 0. -1.
         21   -1    0    0  501  502  0.00000000000E+00 -0.00000000000E+00 -0.13815900800E+03  0.13815900800E+03  0.00000000000E+00 0.  1.
         23    2    1    2    0    0 -0.13622812986E+02  0.12489141186E+03  0.33734458122E+03  0.37093752130E+03  0.89497667207E+02 0.  0.
         23    2    1    2    0    0  0.36840208863E+02 -0.13299711692E+03 -0.24751863779E+01  0.16506822592E+03  0.90531533514E+02 0.  0.
        -13    1    4    4    0    0 -0.48324461870E+01 -0.69879644042E+02  0.37571721464E+02  0.79486800422E+02  0.00000000000E+00 0. -1.
         13    1    4    4    0    0  0.41672655050E+02 -0.63117472882E+02 -0.40046907842E+02  0.85581425495E+02  0.00000000000E+00 0.  1.
        -13    1    3    3    0    0  0.33805069064E+02  0.84715621348E+02  0.21971511646E+03  0.23789546359E+03  0.00000000000E+00 0. -1.
         13    1    3    3    0    0 -0.47427882049E+02  0.40175790510E+02  0.11762946476E+03  0.13304205771E+03  0.00000000000E+00 0.  1.
          1    1    1    2  501    0 -0.23217395878E+02  0.81057050665E+01 -0.33568907470E+02  0.41612756154E+02  0.00000000000E+00 0. -1.
<scales pt_clust_5="13000.00000" pt_clust_6="13000.00000" pt_clust_7="13000.00000" pt_clust_8="13000.00000" pt_clust_9="24.59166"></scales>
<clustering>
<clus scale="   24.592">  2  9  1 -1</clus>
<clus scale="   89.498">  7  8 -1 -1</clus>
<clus scale="   90.532">  5  6 -1 -1</clus>
<clus scale="  155.737">  1  7  2 -1</clus>
<clus scale="   24.592">  2  5  1 -1</clus>
</clustering>
</event>
<event>
 9    1  0.1671478E-005  0.1249312E+03  0.7546771E-02  0.1235588E+00
         -1   -1    0    0    0  501 -0.00000000000E+00  0.00000000000E+00  0.85201548922E+02  0.85201548922E+02  0.00000000000E+00 0.  1.
         21   -1    0    0  501  502  0.00000000000E+00 -0.00000000000E+00 -0.40182931305E+03  0.40182931305E+03  0.00000000000E+00 0.  1.
         23    2    1    2    0    0  0.82071548093E+02  0.22995893293E+02 -0.73898315052E+01  0.12594195612E+03  0.92424112580E+02 0.  0.
         23    2    1    2    0    0 -0.60373041998E+02 -0.69073171988E+02 -0.17518901872E+03  0.21769067680E+03  0.91005665728E+02 0.  0.
        -13    1    3    3    0    0  0.87858534490E+02  0.47777397084E+02 -0.91886240527E+01  0.10043023731E+03  0.00000000000E+00 0.  1.
         13    1    3    3    0    0 -0.57869863969E+01 -0.24781503791E+02  0.17987925475E+01  0.25511718804E+02  0.00000000000E+00 0. -1.
        -13    1    4    4    0    0 -0.28449458529E+02 -0.87684072115E+02 -0.12144952209E+03  0.15247247164E+03  0.00000000000E+00 0.  1.
         13    1    4    4    0    0 -0.31923583470E+02  0.18610900126E+02 -0.53739496634E+02  0.65218205154E+02  0.00000000000E+00 0. -1.
         -1    1    1    2    0  502 -0.21698506095E+02  0.46077278696E+02 -0.13404891390E+03  0.14339822906E+03  0.00000000000E+00 0.  1.
<scales pt_clust_5="13000.00000" pt_clust_6="13000.00000" pt_clust_7="13000.00000" pt_clust_8="13000.00000" pt_clust_9="50.93074"></scales>
<clustering>
<clus scale="   50.931">  2  9  1 -1</clus>
<clus scale="   91.006">  7  8 -1 -1</clus>
<clus scale="   92.424">  5  6 -1 -1</clus>
<clus scale="  123.886">  2  7  1 -1</clus>
<clus scale="   50.931">  2  5  1 -1</clus>
</clustering>
</event>
<event>
 9    1  0.1671478E-005  0.9287732E+02  0.7546771E-02  0.1297219E+00
         21   -1    0    0  501  502  0.00000000000E+00  0.00000000000E+00  0.15390676072E+02  0.15390676072E+02  0.00000000000E+00 0.  1.
          2   -1    0    0  502    0 -0.00000000000E+00 -0.00000000000E+00 -0.10000014621E+04  0.10000014621E+04  0.00000000000E+00 0. -1.
         23    2    1    2    0    0  0.10005415104E+02  0.70174001225E+01 -0.52256088060E+03  0.53004871338E+03  0.87934136648E+02 0.  0.
         23    2    1    2    0    0 -0.30883023782E+01 -0.50835000645E+02 -0.34492592649E+03  0.36010024132E+03  0.90025297178E+02 0.  0.
        -11    1    3    3    0    0  0.47451570759E+02  0.16325065973E+02 -0.29980326755E+03  0.30397394392E+03  0.00000000000E+00 0.  1.
         11    1    3    3    0    0 -0.37446155655E+02 -0.93076658503E+01 -0.22275761305E+03  0.22607476946E+03  0.00000000000E+00 0. -1.
        -13    1    4    4    0    0  0.23290266759E+02 -0.67993044735E+02 -0.23273216050E+03  0.24357698822E+03  0.00000000000E+00 0.  1.
         13    1    4    4    0    0 -0.26378569137E+02  0.17158044090E+02 -0.11219376599E+03  0.11652325310E+03  0.00000000000E+00 0. -1.
          2    1    1    2  501    0 -0.69171127257E+01  0.43817600523E+02 -0.11712397899E+03  0.12524318352E+03  0.00000000000E+00 0. -1.
<scales pt_clust_5="13000.00000" pt_clust_6="13000.00000" pt_clust_7="13000.00000" pt_clust_8="13000.00000" pt_clust_9="44.36021"></scales>
<clustering>
<clus scale="   44.360">  1  9  2 -1</clus>
<clus scale="   87.934">  5  6 -1 -1</clus>
<clus scale="   90.025">  7  8 -1 -1</clus>
<clus scale="   90.852">  2  5  1 -1</clus>
<clus scale="   44.360">  1  5  2 -1</clus>
</clustering>
</event>
<event>
 9    1  0.1671478E-005  0.1377818E+03  0.7546771E-02  0.1217231E+00
          2   -1    0    0  502    0 -0.00000000000E+00  0.00000000000E+00  0.32202228561E+03  0.32202228561E+03  0.00000000000E+00 0. -1.
         21   -1    0    0  501  502  0.00000000000E+00 -0.00000000000E+00 -0.14556533934E+03  0.14556533934E+03  0.00000000000E+00 0.  1.
         23    2    1    2    0    0 -0.60407524979E+02  0.71703425041E+02  0.11093508508E+03  0.17122199180E+03  0.90663813815E+02 0.  0.
         23    2    1    2    0    0  0.11689575727E+03 -0.60010953475E+02 -0.48209944707E+02  0.16884089849E+03  0.94430490995E+02 0.  0.
        -11    1    3    3    0    0  0.22744227466E+02  0.84972386533E+01  0.10959359775E+02  0.26638515620E+02  0.00000000000E+00 0. -1.
         11    1    3    3    0    0 -0.83151752445E+02  0.63206186388E+02  0.99975725307E+02  0.14458347618E+03  0.00000000000E+00 0.  1.
        -13    1    4    4    0    0  0.25808860932E+02 -0.22002540134E+02 -0.60522428911E+02  0.69377038537E+02  0.00000000000E+00 0.  1.
         13    1    4    4    0    0  0.91086896343E+02 -0.38008413340E+02  0.12312484204E+02  0.99463859955E+02  0.00000000000E+00 0. -1.
          2    1    1    2  501    0 -0.56488232296E+02 -0.11692471567E+02  0.11373180590E+03  0.12752473467E+03  0.00000000000E+00 0. -1.
<scales pt_clust_5="13000.00000" pt_clust_6="13000.00000" pt_clust_7="13000.00000" pt_clust_8="13000.00000" pt_clust_9="57.68568"></scales>
<clustering>
<clus scale="   57.686">  2  9  1 -1</clus>
<clus scale="   90.664">  5  6 -1 -1</clus>
<clus scale="   94.430">  7  8 -1 -1</clus>
<clus scale="  135.228">  1  5  2 -1</clus>
<clus scale="   57.686">  2  5  1 -1</clus>
</clustering>
</event>
<event>
 9    1  0.1671478E-005  0.1068766E+03  0.7546771E-02  0.1267088E+00
          3   -1    0    0  502    0 -0.00000000000E+00  0.00000000000E+00  0.41669801710E+03  0.41669801710E+03  0.00000000000E+00 0. -1.
         21   -1    0    0  501  502  0.00000000000E+00 -0.00000000000E+00 -0.88259071876E+02  0.88259071876E+02  0.00000000000E+00 0. -1.
         23    2    1    2    0    0  0.26722166586E+02  0.40715082141E+02  0.19655826621E+03  0.22248634328E+03  0.92158715434E+02 0.  0.
         23    2    1    2    0    0 -0.11557422024E+02 -0.61556260170E+02  0.18957799808E+03  0.21927814480E+03  0.90666092141E+02 0.  0.
        -11    1    4    4    0    0  0.17888410357E+02 -0.41629241142E+02  0.26757502008E+02  0.52620840519E+02  0.00000000000E+00 0.  1.
         11    1    4    4    0    0 -0.29445832380E+02 -0.19927019028E+02  0.16282049607E+03  0.16665730429E+03  0.00000000000E+00 0. -1.
        -13    1    3    3    0    0  0.38502739251E+02  0.63942538229E+02  0.16800715519E+03  0.18384100011E+03  0.00000000000E+00 0.  1.
         13    1    3    3    0    0 -0.11780572665E+02 -0.23227456088E+02  0.28551111017E+02  0.38645343173E+02  0.00000000000E+00 0. -1.
          3    1    1    2  501    0 -0.15164744563E+02  0.20841178029E+02 -0.57697319067E+02  0.63192600886E+02  0.00000000000E+00 0. -1.
<scales pt_clust_5="13000.00000" pt_clust_6="13000.00000" pt_clust_7="13000.00000" pt_clust_8="13000.00000" pt_clust_9="25.77449"></scales>
<clustering>
<clus scale="   25.774">  2  9  1 -1</clus>
<clus scale="   90.666">  5  6 -1 -1</clus>
<clus scale="   92.159">  7  8 -1 -1</clus>
<clus scale="  105.592">  2  5  1 -1</clus>
<clus scale="   25.774">  2  5  1 -1</clus>
</clustering>
</event>
<event>
 9    1  0.1671478E-005  0.1306167E+03  0.7546771E-02  0.1228805E+00
         21   -1    0    0  501  502  0.00000000000E+00  0.00000000000E+00  0.84717966233E+03  0.84717966233E+03  0.00000000000E+00 0.  1.
          2   -1    0    0  502    0 -0.00000000000E+00 -0.00000000000E+00 -0.65477147329E+02  0.65477147329E+02  0.00000000000E+00 0. -1.
         23    2    1    2    0    0  0.44600067732E+02  0.67032987978E+02  0.42665058030E+02  0.12896697641E+03  0.91266567310E+02 0.  0.
         23    2    1    2    0    0 -0.10041735244E+03 -0.76583719237E+02  0.69101294764E+03  0.70943931651E+03  0.99280105128E+02 0.  0.
        -11    1    4    4    0    0 -0.87820339988E+02 -0.97625989288E+02  0.63263005813E+03  0.64611456906E+03  0.00000000000E+00 0.  1.
         11    1    4    4    0    0 -0.12597012456E+02  0.21042270051E+02  0.58382889508E+02  0.63324747446E+02  0.00000000000E+00 0. -1.
        -13    1    3    3    0    0  0.32274668061E+02  0.41239315999E+01  0.54792296716E+02  0.63724852214E+02  0.00000000000E+00 0.  1.
         13    1    3    3    0    0  0.12325399672E+02  0.62909056379E+02 -0.12127238685E+02  0.65242124196E+02  0.00000000000E+00 0. -1.
          2    1    1    2  501    0  0.55817284712E+02  0.95507312585E+01  0.48024509332E+02  0.74250516744E+02  0.00000000000E+00 0. -1.
<scales pt_clust_5="13000.00000" pt_clust_6="13000.00000" pt_clust_7="13000.00000" pt_clust_8="13000.00000" pt_clust_9="56.62852"></scales>
<clustering>
<clus scale="   56.629">  1  9  2 -1</clus>
<clus scale="   91.267">  7  8 -1 -1</clus>
<clus scale="   99.280">  5  6 -1 -1</clus>
<clus scale="  124.634">  2  7  1 -1</clus>
<clus scale="   56.629">  1  5  2 -1</clus>
</clustering>
</event>
<event>
 9    1  0.1671478E-005  0.2478729E+03  0.7546771E-02  0.1114825E+00
         21   -1    0    0  501  502  0.00000000000E+00  0.00000000000E+00  0.23304052141E+03  0.23304052141E+03  0.00000000000E+00 0. -1.
          2   -1    0    0  502    0 -0.00000000000E+00 -0.00000000000E+00 -0.32038694647E+03  0.32038694647E+03  0.00000000000E+00 0. -1.
         23    2    1    2    0    0  0.18082922600E+03 -0.14473042515E+03 -0.68881613030E+02  0.25902835742E+03  0.93300098573E+02 0.  0.
         23    2    1    2    0    0 -0.14815480120E+03  0.17553952273E+03 -0.28082074333E+02  0.24847188255E+03  0.90474882465E+02 0.  0.
        -11    1    4    4    0    0 -0.13280989219E+02  0.78665566986E+02  0.15303843655E+01  0.79793472040E+02  0.00000000000E+00 0.  1.
         11    1    4    4    0    0 -0.13487381199E+03  0.96873955748E+02 -0.29612458699E+02  0.16867841051E+03  0.00000000000E+00 0. -1.
        -13    1    3    3    0    0  0.18053097736E+03 -0.10339482258E+03 -0.62300511671E+02  0.21717107744E+03  0.00000000000E+00 0. -1.
         13    1    3    3    0    0  0.29824864101E+00 -0.41335602570E+02 -0.65811013587E+01  0.41857279978E+02  0.00000000000E+00 0.  1.
          2    1    1    2  501    0 -0.32674424792E+02 -0.30809097582E+02  0.96172623050E+01  0.45927227911E+02  0.00000000000E+00 0. -1.
<scales pt_clust_5="13000.00000" pt_clust_6="13000.00000" pt_clust_7="13000.00000" pt_clust_8="13000.00000" pt_clust_9="44.90900"></scales>
<clustering>
<clus scale="   44.909">  1  9  2 -1</clus>
<clus scale="   90.475">  5  6 -1 -1</clus>
<clus scale="   93.300">  7  8 -1 -1</clus>
<clus scale="  246.823">  1  5  2 -1</clus>
<clus scale="   44.909">  1  5  2 -1</clus>
</clustering>
</event>
<event>
 9    1  0.1671478E-005  0.1097797E+03  0.7546771E-02  0.1261200E+00
         21   -1    0    0  501  502  0.00000000000E+00  0.00000000000E+00  0.95830240752E+02  0.95830240752E+02  0.00000000000E+00 0. -1.
          2   -1    0    0  502    0 -0.00000000000E+00 -0.00000000000E+00 -0.40799622718E+03  0.40799622718E+03  0.00000000000E+00 0. -1.
         23    2    1    2    0    0  0.25905127643E+02  0.47622864566E+02 -0.20075202241E+03  0.22742319221E+03  0.92091915966E+02 0.  0.
         23    2    1    2    0    0 -0.95721971317E+01 -0.66293972693E+02 -0.17449780073E+03  0.20861724951E+03  0.92656119936E+02 0.  0.
        -11    1    3    3    0    0  0.57715955799E+02  0.19589591766E+02 -0.14570719893E+03  0.15794135456E+03  0.00000000000E+00 0. -1.
         11    1    3    3    0    0 -0.31810828156E+02  0.28033272800E+02 -0.55044823475E+02  0.69481837650E+02  0.00000000000E+00 0.  1.
        -11    1    4    4    0    0 -0.16612144550E+02 -0.40407506312E+02 -0.17639376915E+03  0.18172366854E+03  0.00000000000E+00 0. -1.
         11    1    4    4    0    0  0.70399474179E+01 -0.25886466381E+02  0.18959684200E+01  0.26893580973E+02  0.00000000000E+00 0.  1.
          2    1    1    2  501    0 -0.16332930512E+02  0.18671108127E+02  0.63083836700E+02  0.67786026219E+02  0.00000000000E+00 0. -1.
<scales pt_clust_5="13000.00000" pt_clust_6="13000.00000" pt_clust_7="13000.00000" pt_clust_8="13000.00000" pt_clust_9="24.80675"></scales>
<clustering>
<clus scale="   24.807">  1  9  2 -1</clus>
<clus scale="   92.092">  5  6 -1 -1</clus>
<clus scale="   92.656">  7  8 -1 -1</clus>
<clus scale="  109.304">  2  5  1 -1</clus>
<clus scale="   24.807">  1  5  2 -1</clus>
</clustering>
</event>
<event>
 9    1  0.1671478E-005  0.1134861E+03  0.7546771E-02  0.1255224E+00
         -1   -1    0    0    0  501 -0.00000000000E+00  0.00000000000E+00  0.23291606614E+03  0.23291606614E+03  0.00000000000E+00 0.  1.
         21   -1    0    0  501  502  0.00000000000E+00 -0.00000000000E+00 -0.18148149640E+03  0.18148149640E+03  0.00000000000E+00 0.  1.
         23    2    1    2    0    0 -0.65176432699E+02 -0.12971707499E+01  0.18444575827E+03  0.21499919452E+03  0.89189494170E+02 0.  0.
         23    2    1    2    0    0  0.79858026329E+02 -0.18751111236E+02 -0.11664230424E+03  0.16964230686E+03  0.91892200961E+02 0.  0.
        -11    1    4    4    0    0  0.31953969144E+02 -0.10335764677E+02 -0.11624916713E+03  0.12100311167E+03  0.00000000000E+00 0.  1.
         11    1    4    4    0    0  0.47904057185E+02 -0.84153465589E+01 -0.39313711319E+00  0.48639195195E+02  0.00000000000E+00 0. -1.
        -13    1    3    3    0    0 -0.45297937008E+02  0.41116389183E+02  0.12627906932E+03  0.14031701217E+03  0.00000000000E+00 0.  1.
         13    1    3    3    0    0 -0.19878495691E+02 -0.42413559933E+02  0.58166688948E+02  0.74682182348E+02  0.00000000000E+00 0. -1.
         -1    1    1    2    0  502 -0.14681593631E+02  0.20048281986E+02 -0.16368884295E+02  0.29756061150E+02  0.00000000000E+00 0.  1.
<scales pt_clust_5="13000.00000" pt_clust_6="13000.00000" pt_clust_7="13000.00000" pt_clust_8="13000.00000" pt_clust_9="24.84920"></scales>
<clustering>
<clus scale="   24.849">  2  9  1 -1</clus>
<clus scale="   89.189">  7  8 -1 -1</clus>
<clus scale="   91.892">  5  6 -1 -1</clus>
<clus scale="  111.309">  1  7  2 -1</clus>
<clus scale="   24.849">  2  5  1 -1</clus>
</clustering>
</event>
<event>
 9    1  0.1671478E-005  0.9981432E+02  0.7546771E-02  0.1281205E+00
         21   -1    0    0  501  502  0.00000000000E+00  0.00000000000E+00  0.67583294834E+02  0.67583294834E+02  0.00000000000E+00 0. -1.
          2   -1    0    0  502    0 -0.00000000000E+00 -0.00000000000E+00 -0.41620246470E+03  0.41620246470E+03  0.00000000000E+00 0. -1.
         23    2    1    2    0    0  0.15695943316E+02  0.45746469923E+02 -0.22561069793E+03  0.24824395223E+03  0.91573853516E+02 0.  0.
         23    2    1    2    0    0 -0.44340750979E+02  0.49271477870E+01 -0.14110187463E+03  0.17458516896E+03  0.92627551048E+02 0.  0.
        -11    1    3    3    0    0 -0.63370157189E+01 -0.23066307004E+02 -0.23199220406E+02  0.33322906754E+02  0.00000000000E+00 0.  1.
         11    1    3    3    0    0  0.22032959035E+02  0.68812776927E+02 -0.20241147753E+03  0.21492104547E+03  0.00000000000E+00 0. -1.
        -11    1    4    4    0    0 -0.28694652992E+02 -0.15379002231E+02 -0.14375689657E+01  0.32587780294E+02  0.00000000000E+00 0.  1.
         11    1    4    4    0    0 -0.15646097988E+02  0.20306150018E+02 -0.13966430566E+03  0.14199738866E+03  0.00000000000E+00 0. -1.
          2    1    1    2  501    0  0.28644807664E+02 -0.50673617710E+02  0.18093402697E+02  0.60956638351E+02  0.00000000000E+00 0. -1.
<scales pt_clust_5="13000.00000" pt_clust_6="13000.00000" pt_clust_7="13000.00000" pt_clust_8="13000.00000" pt_clust_9="58.20945"></scales>
<clustering>
<clus scale="   58.209">  1  9  2 -1</clus>
<clus scale="   91.574">  5  6 -1 -1</clus>
<clus scale="   92.628">  7  8 -1 -1</clus>
<clus scale="   98.837">  2  5  1 -1</clus>
<clus scale="   58.209">  1  5  2 -1</clus>
</clustering>
</event>
<event>
 9    1  0.1671478E-005  0.1061944E+03  0.7546771E-02  0.1269288E+00
         21   -1    0    0  501  502  0.00000000000E+00  0.00000000000E+00  0.17664134477E+03  0.17664134477E+03  0.00000000000E+00 0. -1.
          1   -1    0    0  502    0 -0.00000000000E+00 -0.00000000000E+00 -0.37657310975E+03  0.37657310975E+03  0.00000000000E+00 0. -1.
         23    2    1    2    0    0 -0.40714496402E+02 -0.56534084252E+02 -0.19385000516E+03  0.22385427272E+03  0.87630691060E+02 0.  0.
         23    2    1    2    0    0 -0.45751854934E+00  0.43992221912E+02 -0.14897213423E+03  0.18012850881E+03  0.91203388070E+02 0.  0.
        -11    1    3    3    0    0 -0.33509095357E+01 -0.49175752463E+02 -0.17412669423E+03  0.18096847479E+03  0.00000000000E+00 0. -1.
         11    1    3    3    0    0 -0.37363586866E+02 -0.73583317891E+01 -0.19723310935E+02  0.42885797934E+02  0.00000000000E+00 0.  1.
        -13    1    4    4    0    0 -0.41663006676E+02  0.14812838265E+02 -0.10197796948E+03  0.11115184462E+03  0.00000000000E+00 0.  1.
         13    1    4    4    0    0  0.41205488126E+02  0.29179383647E+02 -0.46994164748E+02  0.68976664185E+02  0.00000000000E+00 0. -1.
          1    1    1    2  501    0  0.41172014951E+02  0.12541862340E+02  0.14289037441E+03  0.14923167299E+03  0.00000000000E+00 0. -1.
<scales pt_clust_5="13000.00000" pt_clust_6="13000.00000" pt_clust_7="13000.00000" pt_clust_8="13000.00000" pt_clust_9="43.03990"></scales>
<clustering>
<clus scale="   43.040">  1  9  2 -1</clus>
<clus scale="   87.631">  5  6 -1 -1</clus>
<clus scale="   91.203">  7  8 -1 -1</clus>
<clus scale="  103.142">  2  5  1 -1</clus>
<clus scale="   43.040">  1  5  2 -1</clus>
</clustering>
</event>
<event>
 9    1  0.1671478E-005  0.1118699E+03  0.7546771E-02  0.1258713E+00
          3   -1    0    0  502    0 -0.00000000000E+00  0.00000000000E+00  0.24858731043E+03  0.24858731043E+03  0.00000000000E+00 0. -1.
         21   -1    0    0  501  502  0.00000000000E+00 -0.00000000000E+00 -0.17692974247E+03  0.17692974247E+03  0.00000000000E+00 0.  1.
         23    2    1    2    0    0  0.45583950391E+02 -0.18500311706E+02  0.16033749577E+03  0.19146000476E+03  0.92350759632E+02 0.  0.
         23    2    1    2    0    0 -0.91900338207E+02  0.94846837798E+01  0.15144016050E+00  0.13347125758E+03  0.96327162713E+02 0.  0.
        -13    1    4    4    0    0 -0.95237464814E+02  0.33686885436E+02 -0.18543942940E+02  0.10270763737E+03  0.00000000000E+00 0.  1.
         13    1    4    4    0    0  0.33371266071E+01 -0.24202201656E+02  0.18695383100E+02  0.30763620207E+02  0.00000000000E+00 0. -1.
        -13    1    3    3    0    0 -0.16023819755E+02 -0.19314471931E+02  0.10719887948E+03  0.11009728147E+03  0.00000000000E+00 0.  1.
         13    1    3    3    0    0  0.61607770146E+02  0.81416022468E+00  0.53138616295E+02  0.81362723289E+02  0.00000000000E+00 0. -1.
          3    1    1    2  501    0  0.46316387816E+02  0.90156279263E+01 -0.88831367969E+02  0.10058579056E+03  0.00000000000E+00 0. -1.
<scales pt_clust_5="13000.00000" pt_clust_6="13000.00000" pt_clust_7="13000.00000" pt_clust_8="13000.00000" pt_clust_9="47.18569"></scales>
<clustering>
<clus scale="   47.186">  2  9  1 -1</clus>
<clus scale="   92.351">  7  8 -1 -1</clus>
<clus scale="   96.327">  5  6 -1 -1</clus>
<clus scale="  108.465">  1  7  2 -1</clus>
<clus scale="   47.186">  2  5  1 -1</clus>
</clustering>
</event>
<event>
 9    1  0.1671478E-005  0.1099571E+03  0.7546771E-02  0.1261134E+00
         21   -1    0    0  501  502  0.00000000000E+00  0.00000000000E+00  0.16670919815E+03  0.16670919815E+03  0.00000000000E+00 0.  1.
         -3   -1    0    0    0  501 -0.00000000000E+00 -0.00000000000E+00 -0.10690594499E+03  0.10690594499E+03  0.00000000000E+00 0.  1.
         23    2    1    2    0    0 -0.13293841909E+02  0.57402334206E+02 -0.25672448905E+02  0.11061571758E+03  0.90027818687E+02 0.  0.
         23    2    1    2    0    0  0.37206324453E+02 -0.58874216223E+02  0.69857176868E+02  0.13440027195E+03  0.91284851011E+02 0.  0.
        -11    1    4    4    0    0  0.60808240705E+02 -0.22969671017E+02  0.18793226759E+02  0.67664121189E+02  0.00000000000E+00 0.  1.
         11    1    4    4    0    0 -0.23601916252E+02 -0.35904545206E+02  0.51063950109E+02  0.66736150758E+02  0.00000000000E+00 0. -1.
        -13    1    3    3    0    0 -0.49325927038E+02  0.14966805744E+02 -0.77093627129E+01  0.52119925420E+02  0.00000000000E+00 0. -1.
         13    1    3    3    0    0  0.36032085129E+02  0.42435528463E+02 -0.17963086192E+02  0.58495792158E+02  0.00000000000E+00 0.  1.
         -3    1    1    2    0  502 -0.23912482544E+02  0.14718820168E+01  0.15618525200E+02  0.28599153615E+02  0.00000000000E+00 0.  1.
<scales pt_clust_5="13000.00000" pt_clust_6="13000.00000" pt_clust_7="13000.00000" pt_clust_8="13000.00000" pt_clust_9="23.95774"></scales>
<clustering>
<clus scale="   23.958">  1  9  2 -1</clus>
<clus scale="   90.028">  7  8 -1 -1</clus>
<clus scale="   91.285">  5  6 -1 -1</clus>
<clus scale="  108.916">  2  7  1 -1</clus>
<clus scale="   23.958">  1  5  2 -1</clus>
</clustering>
</event>
<event>
 9    1  0.1671478E-005  0.2162018E+03  0.7546771E-02  0.1136893E+00
          4   -1    0    0  502    0 -0.00000000000E+00  0.00000000000E+00  0.12766916978E+03  0.12766916978E+03  0.00000000000E+00 0. -1.
         21   -1    0    0  501  502  0.00000000000E+00 -0.00000000000E+00 -0.63019973100E+03  0.63019973100E+03  0.00000000000E+00 0. -1.
         23    2    1    2    0    0 -0.23473947014E+03  0.38322815429E+02 -0.11729192072E+03  0.28003859061E+03  0.89960883384E+02 0.  0.
         23    2    1    2    0    0  0.12394263289E+03 -0.58490313729E+02 -0.27215240486E+03  0.31823343106E+03  0.91775226118E+02 0.  0.
        -11    1    4    4    0    0  0.38918678008E+02  0.20835578630E+02 -0.44946260138E+02  0.62999612182E+02  0.00000000000E+00 0.  1.
         11    1    4    4    0    0  0.85023954884E+02 -0.79325892360E+02 -0.22720614472E+03  0.25523381888E+03  0.00000000000E+00 0. -1.
        -13    1    3    3    0    0 -0.14129088900E+03  0.39159622547E+02 -0.11537103747E+03  0.18656652336E+03  0.00000000000E+00 0.  1.
         13    1    3    3    0    0 -0.93448581139E+02 -0.83680711740E+00 -0.19208832547E+01  0.93472067248E+02  0.00000000000E+00 0. -1.
          4    1    1    2  501    0  0.11079683725E+03  0.20167498300E+02 -0.11308623564E+03  0.15959687911E+03  0.00000000000E+00 0. -1.
<scales pt_clust_5="13000.00000" pt_clust_6="13000.00000" pt_clust_7="13000.00000" pt_clust_8="13000.00000" pt_clust_9="112.61735"></scales>
<clustering>
<clus scale="   89.961">  7  8 -1 -1</clus>
<clus scale="   91.775">  5  6 -1 -1</clus>
<clus scale="  112.617">  2  9  1 -1</clus>
<clus scale="  215.438">  1  7  2 -1</clus>
<clus scale="  112.617">  2  5  1 -1</clus>
</clustering>
</event>
<event>
 9    1  0.1671478E-005  0.1306682E+03  0.7546771E-02  0.1227272E+00
         21   -1    0    0  501  502  0.00000000000E+00  0.00000000000E+00  0.83353381167E+02  0.83353381167E+02  0.00000000000E+00 0.  1.
         -1   -1    0    0    0  501 -0.00000000000E+00 -0.00000000000E+00 -0.40602953744E+03  0.40602953744E+03  0.00000000000E+00 0.  1.
         23    2    1    2    0    0 -0.88437059105E+02 -0.71177446213E+02 -0.26160440692E+03  0.29884303411E+03  0.89347361705E+02 0.  0.
         23    2    1    2    0    0  0.28378968427E+02  0.64500799113E+02 -0.66855041650E+02  0.12983569731E+03  0.86150988200E+02 0.  0.
        -11    1    4    4    0    0  0.55472865956E+02  0.33385626699E+02 -0.59489641562E+02  0.87925288630E+02  0.00000000000E+00 0. -1.
         11    1    4    4    0    0 -0.27093897529E+02  0.31115172413E+02 -0.73654000880E+01  0.41910408684E+02  0.00000000000E+00 0.  1.
        -11    1    3    3    0    0 -0.67333011920E+02 -0.89830030199E+02 -0.17630154432E+03  0.20901053406E+03  0.00000000000E+00 0.  1.
         11    1    3    3    0    0 -0.21104047186E+02  0.18652583986E+02 -0.85302862599E+02  0.89832500046E+02  0.00000000000E+00 0. -1.
         -1    1    1    2    0  502  0.60058090679E+02  0.66766471001E+01  0.57832922900E+01  0.60704187188E+02  0.00000000000E+00 0.  1.
<scales pt_clust_5="13000.00000" pt_clust_6="13000.00000" pt_clust_7="13000.00000" pt_clust_8="13000.00000" pt_clust_9="60.42807"></scales>
<clustering>
<clus scale="   60.428">  1  9  2 -1</clus>
<clus scale="   86.151">  5  6 -1 -1</clus>
<clus scale="   89.347">  7  8 -1 -1</clus>
<clus scale="  128.504">  1  5  2 -1</clus>
<clus scale="   60.428">  1  5  2 -1</clus>
</clustering>
</event>
<event>
 9    1  0.1671478E-005  0.9428777E+02  0.7546771E-02  0.1292938E+00
          1   -1    0    0  502    0 -0.00000000000E+00  0.00000000000E+00  0.97164398819E+02  0.97164398819E+02  0.00000000000E+00 0. -1.
         21   -1    0    0  501  502  0.00000000000E+00 -0.00000000000E+00 -0.15712264502E+03  0.15712264502E+03  0.00000000000E+00 0. -1.
         23    2    1    2    0    0 -0.38675207439E+02 -0.72357665598E+01  0.88894040030E+01  0.10009004130E+03  0.91601675068E+02 0.  0.
         23    2    1    2    0    0 -0.13482069815E+01  0.54300258710E+01 -0.25114987891E+02  0.94886968364E+02  0.91331655550E+02 0.  0.
        -11    1    4    4    0    0  0.15746255836E+02  0.30283237376E+02 -0.46664825626E+02  0.57815439024E+02  0.00000000000E+00 0.  1.
         11    1    4    4    0    0 -0.17094462818E+02 -0.24853211505E+02  0.21549837735E+02  0.37071529339E+02  0.00000000000E+00 0. -1.
        -11    1    3    3    0    0  0.16333328256E+02  0.16978554507E+02  0.28400348228E+02  0.36900253448E+02  0.00000000000E+00 0.  1.
         11    1    3    3    0    0 -0.55008535695E+02 -0.24214321067E+02 -0.19510944224E+02  0.63189787850E+02  0.00000000000E+00 0. -1.
          1    1    1    2  501    0  0.40023414421E+02  0.18057406888E+01 -0.43732662315E+02  0.59310034180E+02  0.00000000000E+00 0. -1.
<scales pt_clust_5="13000.00000" pt_clust_6="13000.00000" pt_clust_7="13000.00000" pt_clust_8="13000.00000" pt_clust_9="40.06413"></scales>
<clustering>
<clus scale="   40.064">  2  9  1 -1</clus>
<clus scale="   91.332">  5  6 -1 -1</clus>
<clus scale="   91.602">  7  8 -1 -1</clus>
<clus scale="   94.025">  2  5  1 -1</clus>
<clus scale="   40.064">  2  5  1 -1</clus>
</clustering>
</event>
<event>
 9    1  0.1671478E-005  0.1288235E+03  0.7546771E-02  0.1229571E+00
          1   -1    0    0  502    0 -0.00000000000E+00  0.00000000000E+00  0.55464365512E+02  0.55464365512E+02  0.00000000000E+00 0. -1.
         21   -1    0    0  501  502  0.00000000000E+00 -0.00000000000E+00 -0.58953491145E+03  0.58953491145E+03  0.00000000000E+00 0.  1.
         23    2    1    2    0    0 -0.52060036881E+02 -0.53634164389E+02 -0.87312127249E+02  0.14739378752E+03  0.92274861172E+02 0.  0.
         23    2    1    2    0    0  0.75551644126E+02  0.10201093285E+03 -0.26029778637E+03  0.30354432706E+03  0.90939208021E+02 0.  0.
        -13    1    4    4    0    0  0.35704752335E+02  0.83440693509E+02 -0.23701515059E+03  0.25379787289E+03  0.00000000000E+00 0.  1.
         13    1    4    4    0    0  0.39846891791E+02  0.18570239341E+02 -0.23282635774E+02  0.49746454177E+02  0.00000000000E+00 0. -1.
        -13    1    3    3    0    0 -0.73970874887E+02 -0.20710858386E+02 -0.71039283693E+02  0.10462891481E+03  0.00000000000E+00 0.  1.
         13    1    3    3    0    0  0.21910838006E+02 -0.32923306003E+02 -0.16272843556E+02  0.42764872708E+02  0.00000000000E+00 0. -1.
          1    1    1    2  501    0 -0.23491607245E+02 -0.48376768461E+02 -0.18646063232E+03  0.19406116238E+03  0.00000000000E+00 0. -1.
<scales pt_clust_5="13000.00000" pt_clust_6="13000.00000" pt_clust_7="13000.00000" pt_clust_8="13000.00000" pt_clust_9="53.77887"></scales>
<clustering>
<clus scale="   53.779">  2  9  1 -1</clus>
<clus scale="   90.939">  5  6 -1 -1</clus>
<clus scale="   92.275">  7  8 -1 -1</clus>
<clus scale="  127.870">  2  5  1 -1</clus>
<clus scale="   53.779">  2  5  1 -1</clus>
</clustering>
</event>
<event>
 9    1  0.1671478E-005  0.1508492E+03  0.7546771E-02  0.1199726E+00
          2   -1    0    0  502    0 -0.00000000000E+00  0.00000000000E+00  0.21119188135E+03  0.21119188135E+03  0.00000000000E+00 0. -1.
         21   -1    0    0  501  502  0.00000000000E+00 -0.00000000000E+00 -0.19922373398E+03  0.19922373398E+03  0.00000000000E+00 0.  1.
         23    2    1    2    0    0 -0.88508525545E+02 -0.50868792163E+02  0.63669866329E+02  0.15133752444E+03  0.91803057213E+02 0.  0.
         23    2    1    2    0    0  0.12725650955E+03  0.87052446619E+02  0.85228876366E+01  0.17884302153E+03  0.90221056593E+02 0.  0.
        -13    1    3    3    0    0 -0.46363665532E+02 -0.31042728687E+02 -0.16878042956E+02  0.58293299957E+02  0.00000000000E+00 0.  1.
         13    1    3    3    0    0 -0.42144860013E+02 -0.19826063476E+02  0.80547909285E+02  0.93044224478E+02  0.00000000000E+00 0. -1.
        -13    1    4    4    0    0  0.99235513968E+02  0.98003609477E+02  0.28994262740E+02  0.14245371871E+03  0.00000000000E+00 0.  1.
         13    1    4    4    0    0  0.28020995581E+02 -0.10951162858E+02 -0.20471375103E+02  0.36389302823E+02  0.00000000000E+00 0. -1.
          2    1    1    2  501    0 -0.38747984004E+02 -0.36183654456E+02 -0.60224606597E+02  0.80235069352E+02  0.00000000000E+00 0. -1.
<scales pt_clust_5="13000.00000" pt_clust_6="13000.00000" pt_clust_7="13000.00000" pt_clust_8="13000.00000" pt_clust_9="53.01569"></scales>
<clustering>
<clus scale="   53.016">  2  9  1 -1</clus>
<clus scale="   90.221">  7  8 -1 -1</clus>
<clus scale="   91.803">  5  6 -1 -1</clus>
<clus scale="  149.892">  2  7  1 -1</clus>
<clus scale="   53.016">  2  5  1 -1</clus>
</clustering>
</event>
<event>
 9    1  0.1671478E-005  0.9675266E+02  0.7546771E-02  0.1288124E+00
         21   -1    0    0  501  502  0.00000000000E+00  0.00000000000E+00  0.20059368520E+03  0.20059368520E+03  0.00000000000E+00 0. -1.
          1   -1    0    0  502    0 -0.00000000000E+00 -0.00000000000E+00 -0.12022356285E+03  0.12022356285E+03  0.00000000000E+00 0. -1.
         23    2    1    2    0    0  0.20589812512E+02  0.30292229073E+02 -0.59717871149E+02  0.11345382289E+03  0.89241169153E+02 0.  0.
         23    2    1    2    0    0 -0.39835672618E+02 -0.22897498963E+02  0.15361827543E+03  0.18270265280E+03  0.87581439380E+02 0.  0.
        -11    1    4    4    0    0  0.78631110649E+01 -0.38243725282E+02  0.29758445177E+02  0.49091507396E+02  0.00000000000E+00 0.  1.
         11    1    4    4    0    0 -0.47698783683E+02  0.15346226319E+02  0.12385983025E+03  0.13361114541E+03  0.00000000000E+00 0. -1.
        -13    1    3    3    0    0 -0.21732735300E+02  0.40876290972E+02 -0.10098053193E+02  0.47383052092E+02  0.00000000000E+00 0.  1.
         13    1    3    3    0    0  0.42322547811E+02 -0.10584061900E+02 -0.49619817956E+02  0.66070770795E+02  0.00000000000E+00 0. -1.
          1    1    1    2  501    0  0.19245860106E+02 -0.73947301103E+01 -0.13530281921E+02  0.24660772362E+02  0.00000000000E+00 0. -1.
<scales pt_clust_5="13000.00000" pt_clust_6="13000.00000" pt_clust_7="13000.00000" pt_clust_8="13000.00000" pt_clust_9="20.61760"></scales>
<clustering>
<clus scale="   20.618">  1  9  2 -1</clus>
<clus scale="   87.581">  5  6 -1 -1</clus>
<clus scale="   89.241">  7  8 -1 -1</clus>
<clus scale="   95.224">  1  5  2 -1</clus>
<clus scale="   20.618">  1  5  2 -1</clus>
</clustering>
</event>
<event>
 9    1  0.1671478E-005  0.1004620E+03  0.7546771E-02  0.1279598E+00
         21   -1    0    0  501  502  0.00000000000E+00  0.00000000000E+00  0.11072840550E+03  0.11072840550E+03  0.00000000000E+00 0.  1.
         -3   -1    0    0    0  501 -0.00000000000E+00 -0.00000000000E+00 -0.46507323892E+03  0.46507323892E+03  0.00000000000E+00 0.  1.
         23    2    1    2    0    0 -0.33770673027E+02 -0.15379351277E+02 -0.36746490355E+03  0.38059589525E+03  0.91901019227E+02 0.  0.
         23    2    1    2    0    0  0.46759577745E+02  0.36998959790E+02 -0.55293897141E+02  0.12229079848E+03  0.91335881202E+02 0.  0.
        -11    1    3    3    0    0 -0.57355148855E+02 -0.10566497700E+02 -0.33576835117E+03  0.34079561268E+03  0.00000000000E+00 0.  1.
         11    1    3    3    0    0  0.23584475828E+02 -0.48128535769E+01 -0.31696552378E+02  0.39800282566E+02  0.00000000000E+00 0. -1.
        -13    1    4    4    0    0 -0.27457749568E+02  0.63703087281E+01 -0.20141168668E+02  0.34643549471E+02  0.00000000000E+00 0.  1.
         13    1    4    4    0    0  0.74217327314E+02  0.30628651062E+02 -0.35152728473E+02  0.87647249007E+02  0.00000000000E+00 0. -1.
         -3    1    1    2    0  502 -0.12988904718E+02 -0.21619608513E+02  0.68413967269E+02  0.72914950700E+02  0.00000000000E+00 0.  1.
<scales pt_clust_5="13000.00000" pt_clust_6="13000.00000" pt_clust_7="13000.00000" pt_clust_8="13000.00000" pt_clust_9="25.22140"></scales>
<clustering>
<clus scale="   25.221">  1  9  2 -1</clus>
<clus scale="   91.336">  7  8 -1 -1</clus>
<clus scale="   91.901">  5  6 -1 -1</clus>
<clus scale="   99.945">  1  7  2 -1</clus>
<clus scale="   25.221">  1  5  2 -1</clus>
</clustering>
</event>
<event>
 9    1  0.1671478E-005  0.1606065E+03  0.7546771E-02  0.1189404E+00
         21   -1    0    0  501  502  0.00000000000E+00  0.00000000000E+00  0.14007674135E+03  0.14007674135E+03  0.00000000000E+00 0. -1.
          2   -1    0    0  502    0 -0.00000000000E+00 -0.00000000000E+00 -0.70914550630E+03  0.70914550630E+03  0.00000000000E+00 0. -1.
         23    2    1    2    0    0  0.14471014719E+02 -0.13830834567E+03 -0.50534294937E+03  0.53094170287E+03  0.84787891922E+02 0.  0.
         23    2    1    2    0    0  0.20344612351E+02  0.11284205242E+03 -0.15688910474E+03  0.21561575809E+03  0.93427682748E+02 0.  0.
        -11    1    3    3    0    0 -0.27066118877E+02 -0.10758901359E+03 -0.33027124311E+03  0.34840646473E+03  0.00000000000E+00 0. -1.
         11    1    3    3    0    0  0.41537133596E+02 -0.30719332074E+02 -0.17507170626E+03  0.18253523814E+03  0.00000000000E+00 0.  1.
        -13    1    4    4    0    0  0.76121925770E+01  0.22576503089E+02 -0.11105640051E+03  0.11358330890E+03  0.00000000000E+00 0. -1.
         13    1    4    4    0    0  0.12732419774E+02  0.90265549335E+02 -0.45832704233E+02  0.10203244919E+03  0.00000000000E+00 0.  1.
          2    1    1    2  501    0 -0.34815627070E+02  0.25466293243E+02  0.93163289156E+02  0.10266478669E+03  0.00000000000E+00 0. -1.
<scales pt_clust_5="13000.00000" pt_clust_6="13000.00000" pt_clust_7="13000.00000" pt_clust_8="13000.00000" pt_clust_9="43.13537"></scales>
<clustering>
<clus scale="   43.135">  1  9  2 -1</clus>
<clus scale="   84.788">  5  6 -1 -1</clus>
<clus scale="   93.428">  7  8 -1 -1</clus>
<clus scale="  155.739">  2  5  1 -1</clus>
<clus scale="   43.135">  1  5  2 -1</clus>
</clustering>
</event>
<event>
 9    1  0.1671478E-005  0.2184937E+03  0.7546771E-02  0.1135060E+00
         21   -1    0    0  501  502  0.00000000000E+00  0.00000000000E+00  0.52014981162E+03  0.52014981162E+03  0.00000000000E+00 0. -1.
          1   -1    0    0  502    0 -0.00000000000E+00 -0.00000000000E+00 -0.35121758840E+03  0.35121758840E+03  0.00000000000E+00 0. -1.
         23    2    1    2    0    0 -0.20436509390E+03  0.60009248587E+02 -0.18926729748E+03  0.29933747167E+03  0.91731186241E+02 0.  0.
         23    2    1    2    0    0  0.15190264543E+03 -0.90457839681E+02 -0.97364771413E+01  0.19912736238E+03  0.91103638852E+02 0.  0.
        -11    1    3    3    0    0 -0.13023385196E+03  0.11540567228E+01 -0.72617115506E+02  0.14911550392E+03  0.00000000000E+00 0. -1.
         11    1    3    3    0    0 -0.74131241937E+02  0.58855191865E+02 -0.11665018198E+03  0.15022196775E+03  0.00000000000E+00 0.  1.
        -11    1    4    4    0    0  0.89266432735E+02 -0.16490067029E+02  0.28179132528E+02  0.95049891288E+02  0.00000000000E+00 0.  1.
         11    1    4    4    0    0  0.62636212694E+02 -0.73967772652E+02 -0.37915609669E+02  0.10407747109E+03  0.00000000000E+00 0. -1.
          1    1    1    2  501    0  0.52462448472E+02  0.30448591093E+02  0.36793599784E+03  0.37290256597E+03  0.00000000000E+00 0. -1.
<scales pt_clust_5="13000.00000" pt_clust_6="13000.00000" pt_clust_7="13000.00000" pt_clust_8="13000.00000" pt_clust_9="60.65827"></scales>
<clustering>
<clus scale="   60.658">  1  9  2 -1</clus>
<clus scale="   91.104">  7  8 -1 -1</clus>
<clus scale="   91.731">  5  6 -1 -1</clus>
<clus scale="  218.231">  1  7  2 -1</clus>
<clus scale="   60.658">  1  5  2 -1</clus>
</clustering>
</event>
<event>
 9    1  0.1671478E-005  0.1203948E+03  0.7546771E-02  0.1245524E+00
         21   -1    0    0  501  502  0.00000000000E+00  0.00000000000E+00  0.52468202887E+02  0.52468202887E+02  0.00000000000E+00 0.  1.
         -1   -1    0    0    0  501 -0.00000000000E+00 -0.00000000000E+00 -0.82639057119E+03  0.82639057119E+03  0.00000000000E+00 0.  1.
         23    2    1    2    0    0  0.19336202489E+02  0.91306476544E+02 -0.61897049039E+03  0.63232100063E+03  0.89412630432E+02 0.  0.
         23    2    1    2    0    0  0.18075014964E+02 -0.18382197097E+02 -0.15664573839E+02  0.84925574647E+02  0.79387423560E+02 0.  0.
        -11    1    4    4    0    0  0.49129893073E+02 -0.76209406348E+01 -0.15434808756E+02  0.52058221741E+02  0.00000000000E+00 0.  1.
         11    1    4    4    0    0 -0.31054878109E+02 -0.10761256462E+02 -0.22976508278E+00  0.32867352905E+02  0.00000000000E+00 0. -1.
        -13    1    3    3    0    0  0.36702844578E+02  0.10123798925E+03 -0.55285698378E+03  0.56324690304E+03  0.00000000000E+00 0.  1.
         13    1    3    3    0    0 -0.17366642089E+02 -0.99315127070E+01 -0.66113506604E+02  0.69074097588E+02  0.00000000000E+00 0. -1.
         -1    1    1    2    0  502 -0.37411217453E+02 -0.72924279447E+02 -0.13928730408E+03  0.16161219880E+03  0.00000000000E+00 0.  1.
<scales pt_clust_5="13000.00000" pt_clust_6="13000.00000" pt_clust_7="13000.00000" pt_clust_8="13000.00000" pt_clust_9="81.96066"></scales>
<clustering>
<clus scale="   79.387">  5  6 -1 -1</clus>
<clus scale="   81.961">  1  9  2 -1</clus>
<clus scale="   89.413">  7  8 -1 -1</clus>
<clus scale="  113.149">  1  5  2 -1</clus>
<clus scale="   81.961">  1  5  2 -1</clus>
</clustering>
</event>
<event>
 9    1  0.1671478E-005  0.1202865E+03  0.7546771E-02  0.1243672E+00
          4   -1    0    0  502    0 -0.00000000000E+00  0.00000000000E+00  0.44283916736E+02  0.44283916736E+02  0.00000000000E+00 0. -1.
         21   -1    0    0  501  502  0.00000000000E+00 -0.00000000000E+00 -0.62478314896E+03  0.62478314896E+03  0.00000000000E+00 0.  1.
         23    2    1    2    0    0 -0.83368906920E+02 -0.60726319402E+01 -0.88349190612E+02  0.15392423844E+03  0.94338964371E+02 0.  0.
         23    2    1    2    0    0  0.44516908497E+02 -0.12107698086E+02 -0.40929027868E+03  0.42183825880E+03  0.91107809050E+02 0.  0.
        -11    1    4    4    0    0  0.19282581153E+02  0.39897464940E+02 -0.17543500974E+03  0.18094493164E+03  0.00000000000E+00 0.  1.
         11    1    4    4    0    0  0.25234327344E+02 -0.52005163026E+02 -0.23385526894E+03  0.24089332716E+03  0.00000000000E+00 0. -1.
        -13    1    3    3    0    0 -0.26623335160E+02 -0.48087475417E+02 -0.45314642325E+02  0.71236395727E+02  0.00000000000E+00 0. -1.
         13    1    3    3    0    0 -0.56745571760E+02  0.42014843477E+02 -0.43034548286E+02  0.82687842716E+02  0.00000000000E+00 0.  1.
          4    1    1    2  501    0  0.38851998423E+02  0.18180330026E+02 -0.82859762933E+02  0.93304568455E+02  0.00000000000E+00 0. -1.
<scales pt_clust_5="13000.00000" pt_clust_6="13000.00000" pt_clust_7="13000.00000" pt_clust_8="13000.00000" pt_clust_9="42.89525"></scales>
<clustering>
<clus scale="   42.895">  2  9  1 -1</clus>
<clus scale="   91.108">  5  6 -1 -1</clus>
<clus scale="   94.339">  7  8 -1 -1</clus>
<clus scale="  117.769">  2  5  1 -1</clus>
<clus scale="   42.895">  2  5  1 -1</clus>
</clustering>
</event>
<event>
 9    1  0.1671478E-005  0.1221945E+03  0.7546771E-02  0.1239656E+00
         21   -1    0    0  501  502  0.00000000000E+00  0.00000000000E+00  0.17921596649E+02  0.17921596649E+02  0.00000000000E+00 0. -1.
          1   -1    0    0  502    0 -0.00000000000E+00 -0.00000000000E+00 -0.12678122227E+04  0.12678122227E+04  0.00000000000E+00 0. -1.
         23    2    1    2    0    0 -0.58517090327E+02  0.43500997767E+02 -0.56399491334E+03  0.57599369033E+03  0.91443328687E+02 0.  0.
         23    2    1    2    0    0  0.93765526093E+02 -0.16068147292E+02 -0.57847675244E+03  0.59340506751E+03  0.91891576318E+02 0.  0.
        -13    1    3    3    0    0 -0.14720196019E+02  0.65653743203E+02 -0.35422035551E+03  0.36055396049E+03  0.00000000000E+00 0. -1.
         13    1    3    3    0    0 -0.43796894309E+02 -0.22152745436E+02 -0.20977455783E+03  0.21543972984E+03  0.00000000000E+00 0.  1.
        -13    1    4    4    0    0  0.33045117430E+02  0.35280241111E+02 -0.14952382441E+03  0.15714340350E+03  0.00000000000E+00 0.  1.
         13    1    4    4    0    0  0.60720408663E+02 -0.51348388403E+02 -0.42895292803E+03  0.43626166401E+03  0.00000000000E+00 0. -1.
          1    1    1    2  501    0 -0.35248435765E+02 -0.27432850475E+02 -0.10741896028E+03  0.11633506151E+03  0.00000000000E+00 0. -1.
<scales pt_clust_5="13000.00000" pt_clust_6="13000.00000" pt_clust_7="13000.00000" pt_clust_8="13000.00000" pt_clust_9="44.66557"></scales>
<clustering>
<clus scale="   44.666">  1  9  2 -1</clus>
<clus scale="   91.443">  5  6 -1 -1</clus>
<clus scale="   91.892">  7  8 -1 -1</clus>
<clus scale="  121.858">  2  5  1 -1</clus>
<clus scale="   44.666">  1  5  2 -1</clus>
</clustering>
</event>
<event>
 9    1  0.1671478E-005  0.1154454E+03  0.7546771E-02  0.1251256E+00
         21   -1    0    0  501  502  0.00000000000E+00  0.00000000000E+00  0.10215559525E+03  0.10215559525E+03  0.00000000000E+00 0.  1.
         -2   -1    0    0    0  501 -0.00000000000E+00 -0.00000000000E+00 -0.27936920493E+03  0.27936920493E+03  0.00000000000E+00 0.  1.
         23    2    1    2    0    0 -0.51973911584E+02 -0.50841435525E+02 -0.16916071229E+03  0.20766718530E+03  0.96042564603E+02 0.  0.
         23    2    1    2    0    0  0.51236008777E+02  0.13962147311E+02 -0.48608724309E+02  0.11903607262E+03  0.94798250788E+02 0.  0.
        -11    1    3    3    0    0  0.21405967286E+02 -0.40292213944E+02 -0.53826093073E+02  0.70561506754E+02  0.00000000000E+00 0.  1.
         11    1    3    3    0    0 -0.73379878870E+02 -0.10549221581E+02 -0.11533461922E+03  0.13710567854E+03  0.00000000000E+00 0. -1.
        -11    1    4    4    0    0  0.40286130848E+02 -0.30840872266E+02 -0.52175752971E+02  0.72776651056E+02  0.00000000000E+00 0.  1.
         11    1    4    4    0    0  0.10949877928E+02  0.44803019577E+02  0.35670286611E+01  0.46259421562E+02  0.00000000000E+00 0. -1.
         -2    1    1    2    0  502  0.73790280776E+00  0.36879288214E+02  0.40555826921E+02  0.54821542271E+02  0.00000000000E+00 0.  1.
<scales pt_clust_5="13000.00000" pt_clust_6="13000.00000" pt_clust_7="13000.00000" pt_clust_8="13000.00000" pt_clust_9="36.88667"></scales>
<clustering>
<clus scale="   36.887">  1  9  2 -1</clus>
<clus scale="   94.798">  7  8 -1 -1</clus>
<clus scale="   96.043">  5  6 -1 -1</clus>
<clus scale="  114.412">  1  7  2 -1</clus>
<clus scale="   36.887">  1  5  2 -1</clus>
</clustering>
</event>
<event>
 9    1  0.1671478E-005  0.1029968E+03  0.7546771E-02  0.1278958E+00
         21   -1    0    0  501  502  0.00000000000E+00  0.00000000000E+00  0.55818012947E+03  0.55818012947E+03  0.00000000000E+00 0.  1.
         -3   -1    0    0    0  501 -0.00000000000E+00 -0.00000000000E+00 -0.36694244530E+02  0.36694244530E+02  0.00000000000E+00 0.  1.
         23    2    1    2    0    0  0.85823224827E+01 -0.11730775991E+02  0.74179055745E+02  0.12664282427E+03  0.10161006477E+03 0.  0.
         23    2    1    2    0    0  0.14410905794E+02  0.29351656504E+02  0.24505755293E+03  0.26391817835E+03  0.92360200673E+02 0.  0.
        -11    1    3    3    0    0 -0.15300513856E+02  0.39435521031E+02  0.49242192580E+02  0.64915788321E+02  0.00000000000E+00 0.  1.
         11    1    3    3    0    0  0.23882836339E+02 -0.51166297022E+02  0.24936863165E+02  0.61727035949E+02  0.00000000000E+00 0. -1.
        -13    1    4    4    0    0  0.31188656641E+02 -0.25244115710E+02  0.85528122265E+02  0.94472521821E+02  0.00000000000E+00 0.  1.
         13    1    4    4    0    0 -0.16777750846E+02  0.54595772213E+02  0.15952943067E+03  0.16944565653E+03  0.00000000000E+00 0. -1.
         -3    1    1    2    0  502 -0.22993228277E+02 -0.17620880512E+02  0.20224927626E+03  0.20431337138E+03  0.00000000000E+00 0.  1.
<scales pt_clust_5="13000.00000" pt_clust_6="13000.00000" pt_clust_7="13000.00000" pt_clust_8="13000.00000" pt_clust_9="28.96867"></scales>
<clustering>
<clus scale="   28.969">  1  9  2 -1</clus>
<clus scale="   92.360">  7  8 -1 -1</clus>
<clus scale="   93.884">  1  7  2 -1</clus>
<clus scale="  101.610">  5  6 -1 -1</clus>
<clus scale="   28.969">  1  5  2 -1</clus>
</clustering>
</event>
<event>
 9    1  0.1671478E-005  0.1453390E+03  0.7546771E-02  0.1219239E+00
          1   -1    0    0  502    0 -0.00000000000E+00  0.00000000000E+00  0.13121823583E+03  0.13121823583E+03  0.00000000000E+00 0. -1.
         21   -1    0    0  501  502  0.00000000000E+00 -0.00000000000E+00 -0.56530480273E+03  0.56530480273E+03  0.00000000000E+00 0.  1.
         23    2    1    2    0    0 -0.54538760439E+02  0.12099103842E+02  0.57113393958E+02  0.12433662085E+03  0.95272193267E+02 0.  0.
         23    2    1    2    0    0  0.12197149349E+03 -0.10608115995E+03 -0.25133996503E+03  0.30589218579E+03  0.65329882778E+02 0.  0.
        -11    1    3    3    0    0 -0.22997273328E+02  0.53583038050E+02  0.28972429099E+02  0.65110814732E+02  0.00000000000E+00 0.  1.
         11    1    3    3    0    0 -0.31541487111E+02 -0.41483934208E+02  0.28140964860E+02  0.59225806114E+02  0.00000000000E+00 0. -1.
        -13    1    4    4    0    0  0.88871420168E+02 -0.53495824669E+02 -0.19996366777E+03  0.22526739890E+03  0.00000000000E+00 0.  1.
         13    1    4    4    0    0  0.33100073320E+02 -0.52585335279E+02 -0.51376297266E+02  0.80624786890E+02  0.00000000000E+00 0. -1.
          1    1    1    2  501    0 -0.67432733049E+02  0.93982056106E+02 -0.23985999583E+03  0.26629423192E+03  0.00000000000E+00 0. -1.
<scales pt_clust_5="13000.00000" pt_clust_6="13000.00000" pt_clust_7="13000.00000" pt_clust_8="13000.00000" pt_clust_9="129.82844"></scales>
<clustering>
<clus scale="   65.330">  7  8 -1 -1</clus>
<clus scale="   95.272">  5  6 -1 -1</clus>
<clus scale="  110.443">  1  5  2 -1</clus>
<clus scale="  129.828">  2  9  1 -1</clus>
<clus scale="  129.828">  2  5  1 -1</clus>
</clustering>
</event>
<event>
 9    1  0.1671478E-005  0.1205174E+03  0.7546771E-02  0.1243835E+00
          4   -1    0    0  502    0 -0.00000000000E+00  0.00000000000E+00  0.24730043760E+03  0.24730043760E+03  0.00000000000E+00 0. -1.
         21   -1    0    0  501  502  0.00000000000E+00 -0.00000000000E+00 -0.98302476395E+02  0.98302476395E+02  0.00000000000E+00 0.  1.
         23    2    1    2    0    0 -0.65979734589E+02 -0.58847722106E+02  0.10908539880E+03  0.16759372039E+03  0.91496727313E+02 0.  0.
         23    2    1    2    0    0  0.58723475298E+02  0.88246457980E+01  0.54236878956E+02  0.12547208761E+03  0.96308280048E+02 0.  0.
        -11    1    4    4    0    0  0.68136399864E+02 -0.27484392682E+02  0.23994758180E+02  0.77289774535E+02  0.00000000000E+00 0.  1.
         11    1    4    4    0    0 -0.94129245662E+01  0.36309038480E+02  0.30242120777E+02  0.48182313076E+02  0.00000000000E+00 0. -1.
        -13    1    3    3    0    0 -0.21497167003E+02  0.24291268113E+02  0.34641261323E+02  0.47457463920E+02  0.00000000000E+00 0. -1.
         13    1    3    3    0    0 -0.44482567587E+02 -0.83138990219E+02  0.74444137473E+02  0.12013625647E+03  0.00000000000E+00 0.  1.
          4    1    1    2  501    0  0.72562592913E+01  0.50023076308E+02 -0.14324316546E+02  0.52537105999E+02  0.00000000000E+00 0. -1.
<scales pt_clust_5="13000.00000" pt_clust_6="13000.00000" pt_clust_7="13000.00000" pt_clust_8="13000.00000" pt_clust_9="50.54663"></scales>
<clustering>
<clus scale="   50.547">  2  9  1 -1</clus>
<clus scale="   91.497">  7  8 -1 -1</clus>
<clus scale="   96.308">  5  6 -1 -1</clus>
<clus scale="  116.708">  1  7  2 -1</clus>
<clus scale="   50.547">  2  5  1 -1</clus>
</clustering>
</event>
<event>
 9    1  0.1671478E-005  0.9950730E+02  0.7546771E-02  0.1281970E+00
         21   -1    0    0  501  502  0.00000000000E+00  0.00000000000E+00  0.58104118923E+03  0.58104118923E+03  0.00000000000E+00 0. -1.
          1   -1    0    0  502    0 -0.00000000000E+00 -0.00000000000E+00 -0.40590278784E+02  0.40590278784E+02  0.00000000000E+00 0. -1.
         23    2    1    2    0    0 -0.40466639711E+02  0.36443490059E+02  0.93072444597E+02  0.14237384282E+03  0.92963187767E+02 0.  0.
         23    2    1    2    0    0  0.16893230733E+02  0.50187306572E+01  0.14048792628E+03  0.16868295682E+03  0.91687041552E+02 0.  0.
        -11    1    3    3    0    0  0.20654611049E+01  0.37311386690E+02 -0.28138447740E+01  0.37474303579E+02  0.00000000000E+00 0.  1.
         11    1    3    3    0    0 -0.42532100816E+02 -0.86789663122E+00  0.95886289371E+02  0.10489953924E+03  0.00000000000E+00 0. -1.
        -13    1    4    4    0    0  0.15420914620E+02 -0.42618213339E+02  0.76124515232E+02  0.88594912581E+02  0.00000000000E+00 0.  1.
         13    1    4    4    0    0  0.14723161134E+01  0.47636943996E+02  0.64363411049E+02  0.80088044239E+02  0.00000000000E+00 0. -1.
          1    1    1    2  501    0  0.23573408978E+02 -0.41462220716E+02  0.30689053957E+03  0.31057466837E+03  0.00000000000E+00 0. -1.
<scales pt_clust_5="13000.00000" pt_clust_6="13000.00000" pt_clust_7="13000.00000" pt_clust_8="13000.00000" pt_clust_9="47.69509"></scales>
<clustering>
<clus scale="   47.695">  1  9  2 -1</clus>
<clus scale="   91.687">  7  8 -1 -1</clus>
<clus scale="   92.963">  5  6 -1 -1</clus>
<clus scale="   98.316">  1  7  2 -1</clus>
<clus scale="   47.695">  1  5  2 -1</clus>
</clustering>
</event>
<event>
 9    1  0.1671478E-005  0.1044063E+03  0.7546771E-02  0.1271922E+00
          2   -1    0    0  502    0 -0.00000000000E+00  0.00000000000E+00  0.31212624948E+03  0.31212624948E+03  0.00000000000E+00 0. -1.
         21   -1    0    0  501  502  0.00000000000E+00 -0.00000000000E+00 -0.92063033460E+02  0.92063033460E+02  0.00000000000E+00 0.  1.
         23    2    1    2    0    0 -0.98965891478E+01 -0.47028291488E+02  0.18416315202E+03  0.21095273168E+03  0.90969147313E+02 0.  0.
         23    2    1    2    0    0 -0.57267068670E+02  0.54411655989E+02  0.14831470076E+02  0.12245974254E+03  0.92391940002E+02 0.  0.
        -11    1    3    3    0    0 -0.13277349171E+02  0.26073987807E+02  0.44098954775E+02  0.52923139112E+02  0.00000000000E+00 0.  1.
         11    1    3    3    0    0  0.33807600232E+01 -0.73102279295E+02  0.14006419725E+03  0.15802959257E+03  0.00000000000E+00 0. -1.
        -11    1    4    4    0    0 -0.18113139173E+02  0.58364291695E+02 -0.25402566648E+02  0.66179806195E+02  0.00000000000E+00 0.  1.
         11    1    4    4    0    0 -0.39153929496E+02 -0.39526357053E+01  0.40234036725E+02  0.56279936347E+02  0.00000000000E+00 0. -1.
          2    1    1    2  501    0  0.67163657817E+02 -0.73833645009E+01  0.21068593922E+02  0.70776808720E+02  0.00000000000E+00 0. -1.
<scales pt_clust_5="13000.00000" pt_clust_6="13000.00000" pt_clust_7="13000.00000" pt_clust_8="13000.00000" pt_clust_9="67.56827"></scales>
<clustering>
<clus scale="   67.568">  2  9  1 -1</clus>
<clus scale="   90.969">  5  6 -1 -1</clus>
<clus scale="   92.392">  7  8 -1 -1</clus>
<clus scale="  103.149">  1  5  2 -1</clus>
<clus scale="   67.568">  2  5  1 -1</clus>
</clustering>
</event>
<event>
 9    1  0.1671478E-005  0.1589779E+03  0.7546771E-02  0.1216452E+00
         21   -1    0    0  501  502  0.00000000000E+00  0.00000000000E+00  0.59366305752E+02  0.59366305752E+02  0.00000000000E+00 0. -1.
         -1   -1    0    0    0  501 -0.00000000000E+00 -0.00000000000E+00 -0.54678412507E+03  0.54678412507E+03  0.00000000000E+00 0.  1.
         23    2    1    2    0    0 -0.24263496654E+01  0.14436883847E+02 -0.16487091022E+03  0.18759262083E+03  0.88285126517E+02 0.  0.
         23    2    1    2    0    0  0.93592513163E+01  0.96842167519E+02 -0.21270779134E+03  0.26204671074E+03  0.11814344299E+03 0.  0.
        -13    1    3    3    0    0 -0.11426634498E+02 -0.35792315791E+02 -0.83203606254E+02  0.91293471504E+02  0.00000000000E+00 0.  1.
         13    1    3    3    0    0  0.90002848330E+01  0.50229199637E+02 -0.81667303971E+02  0.96299149327E+02  0.00000000000E+00 0. -1.
        -13    1    4    4    0    0 -0.49201493515E+02  0.54571773759E+02 -0.67072485925E+02  0.99486601226E+02  0.00000000000E+00 0.  1.
         13    1    4    4    0    0  0.58560744831E+02  0.42270393760E+02 -0.14563530541E+03  0.16256010952E+03  0.00000000000E+00 0. -1.
         -1    1    1    2    0  502 -0.69329016509E+01 -0.11127905137E+03 -0.10983911776E+03  0.15651109925E+03  0.00000000000E+00 0.  1.
<scales pt_clust_5="13000.00000" pt_clust_6="13000.00000" pt_clust_7="13000.00000" pt_clust_8="13000.00000" pt_clust_9="106.37720"></scales>
<clustering>
<clus scale="   88.285">  5  6 -1 -1</clus>
<clus scale="   89.491">  2  5  1 -1</clus>
<clus scale="  106.377">  1  9  2 -1</clus>
<clus scale="  118.143">  7  8 -1 -1</clus>
<clus scale="  106.377">  1  5  2 -1</clus>
</clustering>
</event>
<event>
 9    1  0.1671478E-005  0.1580645E+03  0.7546771E-02  0.1192203E+00
          1   -1    0    0  502    0 -0.00000000000E+00  0.00000000000E+00  0.92302123645E+03  0.92302123645E+03  0.00000000000E+00 0. -1.
         21   -1    0    0  501  502  0.00000000000E+00 -0.00000000000E+00 -0.87022762205E+02  0.87022762205E+02  0.00000000000E+00 0. -1.
         23    2    1    2    0    0 -0.32303581935E+02  0.10846595059E+03  0.43274058222E+03  0.45665202339E+03  0.91968881255E+02 0.  0.
         23    2    1    2    0    0  0.70346402632E+02 -0.13284570919E+03  0.45392907989E+03  0.48550089989E+03  0.84041153116E+02 0.  0.
        -11    1    3    3    0    0 -0.56683298094E+02  0.45889414823E+02  0.28799058644E+03  0.29708149143E+03  0.00000000000E+00 0.  1.
         11    1    3    3    0    0  0.24379716159E+02  0.62576535771E+02  0.14474999579E+03  0.15957053196E+03  0.00000000000E+00 0. -1.
        -13    1    4    4    0    0  0.53047639918E+02 -0.44821716312E+02  0.11019359739E+03  0.13025232152E+03  0.00000000000E+00 0.  1.
         13    1    4    4    0    0  0.17298762715E+02 -0.88023992874E+02  0.34373548249E+03  0.35524857838E+03  0.00000000000E+00 0. -1.
          1    1    1    2  501    0 -0.38042820698E+02  0.24379758591E+02 -0.50671187865E+02  0.67891075373E+02  0.00000000000E+00 0. -1.
<scales pt_clust_5="13000.00000" pt_clust_6="13000.00000" pt_clust_7="13000.00000" pt_clust_8="13000.00000" pt_clust_9="45.18439"></scales>
<clustering>
<clus scale="   45.184">  2  9  1 -1</clus>
<clus scale="   84.041">  7  8 -1 -1</clus>
<clus scale="   91.969">  5  6 -1 -1</clus>
<clus scale="  153.587">  2  7  1 -1</clus>
<clus scale="   45.184">  2  5  1 -1</clus>
</clustering>
</event>
<event>
 9    1  0.1671478E-005  0.9299683E+02  0.7546771E-02  0.1296063E+00
          2   -1    0    0  502    0 -0.00000000000E+00  0.00000000000E+00  0.45138748358E+02  0.45138748358E+02  0.00000000000E+00 0. -1.
         21   -1    0    0  501  502  0.00000000000E+00 -0.00000000000E+00 -0.27825606886E+03  0.27825606886E+03  0.00000000000E+00 0. -1.
         23    2    1    2    0    0  0.14683308870E+02  0.31297241870E+01 -0.76164716261E+02  0.11940463629E+03  0.90724905239E+02 0.  0.
         23    2    1    2    0    0 -0.29194409810E+00 -0.31540053668E+02 -0.10188085037E+03  0.14037291696E+03  0.91268767529E+02 0.  0.
        -13    1    4    4    0    0 -0.44633501584E+02 -0.51287238717E+01 -0.49061699176E+02  0.66524458647E+02  0.00000000000E+00 0.  1.
         13    1    4    4    0    0  0.44341557486E+02 -0.26411329797E+02 -0.52819151196E+02  0.73848458312E+02  0.00000000000E+00 0. -1.
        -13    1    3    3    0    0  0.30853048941E+02 -0.32381073267E+02 -0.15619043948E+02  0.47375089116E+02  0.00000000000E+00 0. -1.
         13    1    3    3    0    0 -0.16169740071E+02  0.35510797454E+02 -0.60545672312E+02  0.72029547170E+02  0.00000000000E+00 0.  1.
          2    1    1    2  501    0 -0.14391364771E+02  0.28410329481E+02 -0.55071753868E+02  0.63617263972E+02  0.00000000000E+00 0. -1.
<scales pt_clust_5="13000.00000" pt_clust_6="13000.00000" pt_clust_7="13000.00000" pt_clust_8="13000.00000" pt_clust_9="31.84742"></scales>
<clustering>
<clus scale="   31.847">  2  9  1 -1</clus>
<clus scale="   90.725">  7  8 -1 -1</clus>
<clus scale="   91.269">  5  6 -1 -1</clus>
<clus scale="   92.463">  1  7  2 -1</clus>
<clus scale="   31.847">  2  5  1 -1</clus>
</clustering>
</event>
<event>
 9    1  0.1671478E-005  0.1864565E+03  0.7546771E-02  0.1161775E+00
          1   -1    0    0  502    0 -0.00000000000E+00  0.00000000000E+00  0.75655162568E+03  0.75655162568E+03  0.00000000000E+00 0. -1.
         21   -1    0    0  501  502  0.00000000000E+00 -0.00000000000E+00 -0.70341572046E+02  0.70341572046E+02  0.00000000000E+00 0.  1.
         23    2    1    2    0    0 -0.12960827216E+03  0.10280351752E+03  0.55729500895E+03  0.58947183133E+03  0.97634243483E+02 0.  0.
         23    2    1    2    0    0  0.10165585156E+03 -0.93648945883E+02  0.10460529558E+03  0.19926238448E+03  0.98281192425E+02 0.  0.
        -11    1    3    3    0    0 -0.28329629396E+01  0.57335614622E+02  0.16832119388E+03  0.17784100397E+03  0.00000000000E+00 0.  1.
         11    1    3    3    0    0 -0.12677530922E+03  0.45467902896E+02  0.38897381507E+03  0.41163082736E+03  0.00000000000E+00 0. -1.
        -13    1    4    4    0    0  0.17177650106E+01 -0.64436918494E+02  0.50740177155E+02  0.82034338904E+02  0.00000000000E+00 0. -1.
         13    1    4    4    0    0  0.99938086545E+02 -0.29212027389E+02  0.53865118423E+02  0.11722804557E+03  0.00000000000E+00 0.  1.
          1    1    1    2  501    0  0.27952420608E+02 -0.91545716348E+01  0.24309749107E+02  0.38158981921E+02  0.00000000000E+00 0. -1.
<scales pt_clust_5="13000.00000" pt_clust_6="13000.00000" pt_clust_7="13000.00000" pt_clust_8="13000.00000" pt_clust_9="29.41333"></scales>
<clustering>
<clus scale="   29.413">  2  9  1 -1</clus>
<clus scale="   97.634">  5  6 -1 -1</clus>
<clus scale="   98.281">  7  8 -1 -1</clus>
<clus scale="  186.116">  1  5  2 -1</clus>
<clus scale="   29.413">  2  5  1 -1</clus>
</clustering>
</event>
<event>
 9    1  0.1671478E-005  0.1583163E+03  0.7546771E-02  0.1190665E+00
          1   -1    0    0  502    0 -0.00000000000E+00  0.00000000000E+00  0.29185166177E+03  0.29185166177E+03  0.00000000000E+00 0. -1.
         21   -1    0    0  501  502  0.00000000000E+00 -0.00000000000E+00 -0.19003509197E+03  0.19003509197E+03  0.00000000000E+00 0. -1.
         23    2    1    2    0    0 -0.62082688786E+01 -0.13487101447E+03  0.21722432010E+03  0.27132661067E+03  0.90570366390E+02 0.  0.
         23    2    1    2    0    0  0.54648047728E+01  0.10695751844E+03 -0.69254444145E+02  0.15661717627E+03  0.90900973746E+02 0.  0.
        -11    1    3    3    0    0  0.27745086162E+02 -0.69345731052E+02  0.16439549795E+03  0.18056716193E+03  0.00000000000E+00 0. -1.
         11    1    3    3    0    0 -0.33953355040E+02 -0.65525283416E+02  0.52828822142E+02  0.90759448733E+02  0.00000000000E+00 0.  1.
        -13    1    4    4    0    0 -0.23301056279E+02  0.10622323099E+03 -0.40804312640E+02  0.11615208115E+03  0.00000000000E+00 0.  1.
         13    1    4    4    0    0  0.28765861052E+02  0.73428744324E+00 -0.28450131505E+02  0.40465095117E+02  0.00000000000E+00 0. -1.
          1    1    1    2  501    0  0.74346410579E+00  0.27913496031E+02 -0.46153306149E+02  0.53942966808E+02  0.00000000000E+00 0. -1.
<scales pt_clust_5="13000.00000" pt_clust_6="13000.00000" pt_clust_7="13000.00000" pt_clust_8="13000.00000" pt_clust_9="27.92340"></scales>
<clustering>
<clus scale="   27.923">  2  9  1 -1</clus>
<clus scale="   90.570">  5  6 -1 -1</clus>
<clus scale="   90.901">  7  8 -1 -1</clus>
<clus scale="  158.127">  1  5  2 -1</clus>
<clus scale="   27.923">  2  5  1 -1</clus>
</clustering>
</event>
<event>
 9    1  0.1671478E-005  0.3518746E+03  0.7546771E-02  0.1061854E+00
          1   -1    0    0  502    0 -0.00000000000E+00  0.00000000000E+00  0.17946575240E+04  0.17946575240E+04  0.00000000000E+00 0. -1.
         21   -1    0    0  501  502  0.00000000000E+00 -0.00000000000E+00 -0.97130189536E+02  0.97130189536E+02  0.00000000000E+00 0.  1.
         23    2    1    2    0    0  0.47364244142E+02  0.36020758475E+03  0.95492889299E+03  0.10258541818E+04  0.92166891607E+02 0.  0.
         23    2    1    2    0    0  0.13623088155E+02 -0.31746131236E+03  0.71261319306E+03  0.78564770715E+03  0.91964577173E+02 0.  0.
        -11    1    3    3    0    0  0.48037271372E+02  0.17840670855E+03  0.37410367022E+03  0.41724104444E+03  0.00000000000E+00 0.  1.
         11    1    3    3    0    0 -0.67302723033E+00  0.18180087620E+03  0.58082522277E+03  0.60861313736E+03  0.00000000000E+00 0. -1.
        -13    1    4    4    0    0 -0.11861434966E+02 -0.22846222333E+03  0.58376263994E+03  0.62698843763E+03  0.00000000000E+00 0.  1.
         13    1    4    4    0    0  0.25484523122E+02 -0.88999089031E+02  0.12885055312E+03  0.15865926953E+03  0.00000000000E+00 0. -1.
          1    1    1    2  501    0 -0.60987332297E+02 -0.42746272396E+02  0.29985248386E+02  0.80285824559E+02  0.00000000000E+00 0. -1.
<scales pt_clust_5="13000.00000" pt_clust_6="13000.00000" pt_clust_7="13000.00000" pt_clust_8="13000.00000" pt_clust_9="74.47616"></scales>
<clustering>
<clus scale="   74.476">  2  9  1 -1</clus>
<clus scale="   91.965">  7  8 -1 -1</clus>
<clus scale="   92.167">  5  6 -1 -1</clus>
<clus scale="  351.822">  2  7  1 -1</clus>
<clus scale="   74.476">  2  5  1 -1</clus>
</clustering>
</event>
<event>
 9    1  0.1671478E-005  0.1025547E+03  0.7546771E-02  0.1275075E+00
          1   -1    0    0  502    0 -0.00000000000E+00  0.00000000000E+00  0.90347440606E+02  0.90347440606E+02  0.00000000000E+00 0. -1.
         21   -1    0    0  501  502  0.00000000000E+00 -0.00000000000E+00 -0.38499234715E+03  0.38499234715E+03  0.00000000000E+00 0. -1.
         23    2    1    2    0    0 -0.26002769904E+02  0.51814398345E+02  0.93064382794E+01  0.10755547005E+03  0.90114890140E+02 0.  0.
         23    2    1    2    0    0 -0.23748174785E+02 -0.41097631595E+02 -0.59438060611E+02  0.11803093586E+03  0.90252022932E+02 0.  0.
        -11    1    3    3    0    0 -0.29106816888E+02 -0.19956767286E+02  0.20310428804E+01  0.35349745191E+02  0.00000000000E+00 0.  1.
         11    1    3    3    0    0  0.31040469843E+01  0.71771165631E+02  0.72753953990E+01  0.72205724856E+02  0.00000000000E+00 0. -1.
        -13    1    4    4    0    0  0.29261148301E+01 -0.40679596394E+02 -0.76268091868E+02  0.86488227800E+02  0.00000000000E+00 0.  1.
         13    1    4    4    0    0 -0.26674289615E+02 -0.41803520112E+00  0.16830031257E+02  0.31542708064E+02  0.00000000000E+00 0. -1.
          1    1    1    2  501    0  0.49750944688E+02 -0.10716766750E+02 -0.24451328421E+03  0.24975338184E+03  0.00000000000E+00 0. -1.
<scales pt_clust_5="13000.00000" pt_clust_6="13000.00000" pt_clust_7="13000.00000" pt_clust_8="13000.00000" pt_clust_9="50.89210"></scales>
<clustering>
<clus scale="   50.892">  2  9  1 -1</clus>
<clus scale="   90.115">  5  6 -1 -1</clus>
<clus scale="   90.252">  7  8 -1 -1</clus>
<clus scale="  102.434">  1  5  2 -1</clus>
<clus scale="   50.892">  2  5  1 -1</clus>
</clustering>
</event>
<event>
 9    1  0.1671478E-005  0.9367825E+02  0.7546771E-02  0.1294463E+00
         21   -1    0    0  501  502  0.00000000000E+00  0.00000000000E+00  0.21849553128E+03  0.21849553128E+03  0.00000000000E+00 0.  1.
         -3   -1    0    0    0  501 -0.00000000000E+00 -0.00000000000E+00 -0.96631980075E+02  0.96631980075E+02  0.00000000000E+00 0.  1.
         23    2    1    2    0    0 -0.25578566888E+02  0.21788542266E+02 -0.34426019800E+02  0.10115126970E+03  0.88979912699E+02 0.  0.
         23    2    1    2    0    0 -0.10369078010E+02 -0.32388771889E+02  0.63981807851E+02  0.11435033549E+03  0.88463422763E+02 0.  0.
        -11    1    3    3    0    0  0.29281279438E+01  0.41511057497E+02 -0.48352392976E+02  0.63794166930E+02  0.00000000000E+00 0.  1.
         11    1    3    3    0    0 -0.28506694832E+02 -0.19722515231E+02  0.13926373176E+02  0.37357102767E+02  0.00000000000E+00 0. -1.
        -11    1    4    4    0    0 -0.23919498494E+02 -0.52383278361E+02  0.14645995054E+02  0.59419318670E+02  0.00000000000E+00 0.  1.
         11    1    4    4    0    0  0.13550420484E+02  0.19994506472E+02  0.49335812797E+02  0.54931016818E+02  0.00000000000E+00 0. -1.
         -3    1    1    2    0  502  0.35947644898E+02  0.10600229623E+02  0.92307763151E+02  0.99625906167E+02  0.00000000000E+00 0.  1.
<scales pt_clust_5="13000.00000" pt_clust_6="13000.00000" pt_clust_7="13000.00000" pt_clust_8="13000.00000" pt_clust_9="37.47797"></scales>
<clustering>
<clus scale="   37.478">  1  9  2 -1</clus>
<clus scale="   88.463">  7  8 -1 -1</clus>
<clus scale="   88.980">  5  6 -1 -1</clus>
<clus scale="   93.188">  1  7  2 -1</clus>
<clus scale="   37.478">  1  5  2 -1</clus>
</clustering>
</event>
<event>
 9    1  0.1671478E-005  0.1491817E+03  0.7546771E-02  0.1217140E+00
          3   -1    0    0  502    0 -0.00000000000E+00  0.00000000000E+00  0.66568353588E+02  0.66568353588E+02  0.00000000000E+00 0. -1.
         21   -1    0    0  501  502  0.00000000000E+00 -0.00000000000E+00 -0.12205931920E+04  0.12205931920E+04  0.00000000000E+00 0. -1.
         23    2    1    2    0    0 -0.21849826100E+02  0.52865650538E+02 -0.13059337363E+03  0.16866701382E+03  0.90120699112E+02 0.  0.
         23    2    1    2    0    0  0.13547525363E+03 -0.52852722429E+02 -0.12728513478E+03  0.21517344670E+03  0.94610528036E+02 0.  0.
        -11    1    4    4    0    0  0.54616466678E+02 -0.65993301670E+02 -0.92795074166E+02  0.12628935065E+03  0.00000000000E+00 0.  1.
         11    1    4    4    0    0  0.80858786948E+02  0.13140579242E+02 -0.34490060612E+02  0.88884096049E+02  0.00000000000E+00 0. -1.
        -13    1    3    3    0    0  0.14170026038E+02  0.63405525113E+02 -0.58666238180E+02  0.87537293510E+02  0.00000000000E+00 0.  1.
         13    1    3    3    0    0 -0.36019852138E+02 -0.10539874575E+02 -0.71927135451E+02  0.81129720315E+02  0.00000000000E+00 0. -1.
          3    1    1    2  501    0 -0.11362542753E+03 -0.12928109328E-01 -0.89614632999E+03  0.90332108505E+03  0.00000000000E+00 0. -1.
<scales pt_clust_5="13000.00000" pt_clust_6="13000.00000" pt_clust_7="13000.00000" pt_clust_8="13000.00000" pt_clust_9="115.34310"></scales>
<clustering>
<clus scale="   90.121">  7  8 -1 -1</clus>
<clus scale="   94.611">  5  6 -1 -1</clus>
<clus scale="  106.742">  1  7  2 -1</clus>
<clus scale="  115.343">  2  9  1 -1</clus>
<clus scale="  115.343">  2  5  1 -1</clus>
</clustering>
</event>
<event>
 9    1  0.1671478E-005  0.2089582E+03  0.7546771E-02  0.1167953E+00
          2   -1    0    0  502    0 -0.00000000000E+00  0.00000000000E+00  0.37471285606E+03  0.37471285606E+03  0.00000000000E+00 0. -1.
         21   -1    0    0  501  502  0.00000000000E+00 -0.00000000000E+00 -0.41952703745E+03  0.41952703745E+03  0.00000000000E+00 0. -1.
         23    2    1    2    0    0  0.70777727964E+02  0.52573163043E+01  0.18897396394E+03  0.22103948967E+03  0.90056486688E+02 0.  0.
         23    2    1    2    0    0  0.74250764868E+02 -0.13813872644E+03  0.84288246392E+02  0.19921735093E+03  0.89373153708E+02 0.  0.
        -11    1    4    4    0    0 -0.60830096888E+01 -0.51283070745E+02 -0.36995293087E+01  0.51774925099E+02  0.00000000000E+00 0.  1.
         11    1    4    4    0    0  0.80333774557E+02 -0.86855655699E+02  0.87987775701E+02  0.14744242583E+03  0.00000000000E+00 0. -1.
        -13    1    3    3    0    0  0.60226504602E+02 -0.37258682865E+02  0.11943940054E+03  0.13885680288E+03  0.00000000000E+00 0. -1.
         13    1    3    3    0    0  0.10551223361E+02  0.42515999169E+02  0.69534563403E+02  0.82182686787E+02  0.00000000000E+00 0.  1.
          2    1    1    2  501    0 -0.14502849283E+03  0.13288141014E+03 -0.31807639172E+03  0.37398305291E+03  0.00000000000E+00 0. -1.
<scales pt_clust_5="13000.00000" pt_clust_6="13000.00000" pt_clust_7="13000.00000" pt_clust_8="13000.00000" pt_clust_9="188.88088"></scales>
<clustering>
<clus scale="   89.373">  5  6 -1 -1</clus>
<clus scale="   90.056">  7  8 -1 -1</clus>
<clus scale="  114.662">  1  7  2 -1</clus>
<clus scale="  188.881">  2  9  1 -1</clus>
<clus scale="  188.881">  2  5  1 -1</clus>
</clustering>
</event>
<event>
 9    1  0.1671478E-005  0.9696111E+02  0.7546771E-02  0.1287314E+00
         21   -1    0    0  501  502  0.00000000000E+00  0.00000000000E+00  0.23708490534E+03  0.23708490534E+03  0.00000000000E+00 0.  1.
         -2   -1    0    0    0  501 -0.00000000000E+00 -0.00000000000E+00 -0.28038644659E+03  0.28038644659E+03  0.00000000000E+00 0.  1.
         23    2    1    2    0    0 -0.48012720618E+02 -0.23003938162E+02 -0.18904623570E+03  0.21597547225E+03  0.89847219604E+02 0.  0.
         23    2    1    2    0    0 -0.64126101191E+01 -0.42936263709E+02 -0.30866957912E+02  0.10527686276E+03  0.90806411849E+02 0.  0.
        -13    1    4    4    0    0 -0.45803292158E+02 -0.35620356679E+02 -0.65053625605E+01  0.58387251386E+02  0.00000000000E+00 0.  1.
         13    1    4    4    0    0  0.39390682038E+02 -0.73159070299E+01 -0.24361595351E+02  0.46889611378E+02  0.00000000000E+00 0. -1.
        -13    1    3    3    0    0 -0.11248375210E+02 -0.53833604293E+02 -0.82831823528E+02  0.99426826788E+02  0.00000000000E+00 0.  1.
         13    1    3    3    0    0 -0.36764345408E+02  0.30829666130E+02 -0.10621441217E+03  0.11654864547E+03  0.00000000000E+00 0. -1.
         -2    1    1    2    0  502  0.54425330737E+02  0.65940201871E+02  0.17661165236E+03  0.19621901691E+03  0.00000000000E+00 0.  1.
<scales pt_clust_5="13000.00000" pt_clust_6="13000.00000" pt_clust_7="13000.00000" pt_clust_8="13000.00000" pt_clust_9="85.49986"></scales>
<clustering>
<clus scale="   85.500">  1  9  2 -1</clus>
<clus scale="   89.847">  7  8 -1 -1</clus>
<clus scale="   90.806">  5  6 -1 -1</clus>
<clus scale="   96.063">  2  7  1 -1</clus>
<clus scale="   85.500">  1  5  2 -1</clus>
</clustering>
</event>
<event>
 9    1  0.1671478E-005  0.1525452E+03  0.7546771E-02  0.1201842E+00
         21   -1    0    0  501  502  0.00000000000E+00  0.00000000000E+00  0.48080999894E+03  0.48080999894E+03  0.00000000000E+00 0.  1.
         -1   -1    0    0    0  501 -0.00000000000E+00 -0.00000000000E+00 -0.10935763364E+03  0.10935763364E+03  0.00000000000E+00 0.  1.
         23    2    1    2    0    0 -0.19113805401E+02 -0.79979360421E+02  0.32912427058E+02  0.12770316584E+03  0.91993668588E+02 0.  0.
         23    2    1    2    0    0 -0.15837436359E+02  0.17796614946E+03  0.22104414424E+03  0.30553052608E+03  0.11209644918E+03 0.  0.
        -13    1    4    4    0    0 -0.47331258568E+02  0.17135423271E+03  0.17586333089E+03  0.25006085711E+03  0.00000000000E+00 0.  1.
         13    1    4    4    0    0  0.31493822209E+02  0.66119167411E+01  0.45180813351E+02  0.55469668968E+02  0.00000000000E+00 0. -1.
        -13    1    3    3    0    0 -0.53520637607E+02 -0.51879550116E+02  0.36767046912E+02  0.83112947901E+02  0.00000000000E+00 0.  1.
         13    1    3    3    0    0  0.34406832206E+02 -0.28099810305E+02 -0.38546198541E+01  0.44590217939E+02  0.00000000000E+00 0. -1.
         -1    1    1    2    0  502  0.34951241760E+02 -0.97986789034E+02  0.11749579400E+03  0.15693394067E+03  0.00000000000E+00 0.  1.
<scales pt_clust_5="13000.00000" pt_clust_6="13000.00000" pt_clust_7="13000.00000" pt_clust_8="13000.00000" pt_clust_9="104.03365"></scales>
<clustering>
<clus scale="   91.994">  7  8 -1 -1</clus>
<clus scale="  104.034">  1  9  2 -1</clus>
<clus scale="  112.096">  5  6 -1 -1</clus>
<clus scale="  138.446">  2  7  1 -1</clus>
<clus scale="  104.034">  1  5  2 -1</clus>
</clustering>
</event>
<event>
 9    1  0.1671478E-005  0.1066926E+03  0.7546771E-02  0.1268231E+00
         21   -1    0    0  501  502  0.00000000000E+00  0.00000000000E+00  0.10090481306E+03  0.10090481306E+03  0.00000000000E+00 0. -1.
          2   -1    0    0  502    0 -0.00000000000E+00 -0.00000000000E+00 -0.32014086109E+03  0.32014086109E+03  0.00000000000E+00 0. -1.
         23    2    1    2    0    0  0.46466157091E+02 -0.34549492103E+02 -0.22900500446E+03  0.25450779912E+03  0.94753134963E+02 0.  0.
         23    2    1    2    0    0  0.11943994216E+02  0.17762479417E+02  0.35623904408E+02  0.10049222487E+03  0.91495683075E+02 0.  0.
        -11    1    4    4    0    0  0.45235836358E+02 -0.46590284735E+01  0.39410050384E+02  0.60175904718E+02  0.00000000000E+00 0. -1.
         11    1    4    4    0    0 -0.33291842142E+02  0.22421507890E+02 -0.37861459766E+01  0.40316320153E+02  0.00000000000E+00 0.  1.
        -13    1    3    3    0    0  0.20920858860E+02  0.32757545080E+02 -0.87409298281E+02  0.95661510134E+02  0.00000000000E+00 0. -1.
         13    1    3    3    0    0  0.25545298231E+02 -0.67307037183E+02 -0.14159570618E+03  0.15884628898E+03  0.00000000000E+00 0.  1.
          2    1    1    2  501    0 -0.58410151307E+02  0.16787012686E+02 -0.25854947982E+02  0.66045650166E+02  0.00000000000E+00 0. -1.
<scales pt_clust_5="13000.00000" pt_clust_6="13000.00000" pt_clust_7="13000.00000" pt_clust_8="13000.00000" pt_clust_9="60.77458"></scales>
<clustering>
<clus scale="   60.775">  1  9  2 -1</clus>
<clus scale="   91.496">  5  6 -1 -1</clus>
<clus scale="   94.753">  7  8 -1 -1</clus>
<clus scale="  103.810">  1  5  2 -1</clus>
<clus scale="   60.775">  1  5  2 -1</clus>
</clustering>
</event>
<event>
 9    1  0.1671478E-005  0.1282430E+03  0.7546771E-02  0.1230331E+00
         21   -1    0    0  501  502  0.00000000000E+00  0.00000000000E+00  0.70622102050E+02  0.70622102050E+02  0.00000000000E+00 0.  1.
          1   -1    0    0  502    0 -0.00000000000E+00 -0.00000000000E+00 -0.55230770094E+03  0.55230770094E+03  0.00000000000E+00 0. -1.
         23    2    1    2    0    0  0.83639144002E+02 -0.19813849772E+02 -0.37185512746E+03  0.39250862978E+03  0.91644386543E+02 0.  0.
         23    2    1    2    0    0 -0.11379906629E+03 -0.15171714468E+02 -0.49587787453E+02  0.15450812037E+03  0.90738096673E+02 0.  0.
        -13    1    3    3    0    0  0.95456960591E+02 -0.38524244198E+02 -0.31935112285E+03  0.33553135231E+03  0.00000000000E+00 0. -1.
         13    1    3    3    0    0 -0.11817816589E+02  0.18710394426E+02 -0.52504004606E+02  0.56977277473E+02  0.00000000000E+00 0.  1.
        -13    1    4    4    0    0 -0.30895350152E+02  0.25266823593E+02  0.14197404174E+02  0.42361554749E+02  0.00000000000E+00 0.  1.
         13    1    4    4    0    0 -0.82903716140E+02 -0.40438538061E+02 -0.63785191627E+02  0.11214656562E+03  0.00000000000E+00 0. -1.
          1    1    1    2  501    0  0.30159922290E+02  0.34985564240E+02 -0.60242683985E+02  0.75913052840E+02  0.00000000000E+00 0. -1.
<scales pt_clust_5="13000.00000" pt_clust_6="13000.00000" pt_clust_7="13000.00000" pt_clust_8="13000.00000" pt_clust_9="46.19105"></scales>
<clustering>
<clus scale="   46.191">  1  9  2 -1</clus>
<clus scale="   90.738">  7  8 -1 -1</clus>
<clus scale="   91.644">  5  6 -1 -1</clus>
<clus scale="  127.597">  1  7  2 -1</clus>
<clus scale="   46.191">  1  5  2 -1</clus>
</clustering>
</event>
<event>
 9    1  0.1671478E-005  0.1260766E+03  0.7546771E-02  0.1234503E+00
         21   -1    0    0  501  502  0.00000000000E+00  0.00000000000E+00  0.14065412163E+03  0.14065412163E+03  0.00000000000E+00 0. -1.
          2   -1    0    0  502    0 -0.00000000000E+00 -0.00000000000E+00 -0.48322679009E+03  0.48322679009E+03  0.00000000000E+00 0. -1.
         23    2    1    2    0    0 -0.73981455684E+02  0.50196672211E+02 -0.37002101645E+03  0.39042608437E+03  0.86741069039E+02 0.  0.
         23    2    1    2    0    0  0.53312644774E+02 -0.64116509940E+02 -0.63877062297E+02  0.13879072544E+03  0.90716158657E+02 0.  0.
        -11    1    4    4    0    0  0.33222736906E+02 -0.86722850422E+02 -0.50632326583E+02  0.10577445593E+03  0.00000000000E+00 0.  1.
         11    1    4    4    0    0  0.20089907868E+02  0.22606340482E+02 -0.13244735714E+02  0.33016269509E+02  0.00000000000E+00 0. -1.
        -13    1    3    3    0    0 -0.96813090619E+01  0.26665645510E+02 -0.22455985900E+02  0.36180874759E+02  0.00000000000E+00 0.  1.
         13    1    3    3    0    0 -0.64300146622E+02  0.23531026702E+02 -0.34756503055E+03  0.35424520961E+03  0.00000000000E+00 0. -1.
          2    1    1    2  501    0  0.20668810910E+02  0.13919837729E+02  0.91325410286E+02  0.94664101911E+02  0.00000000000E+00 0. -1.
<scales pt_clust_5="13000.00000" pt_clust_6="13000.00000" pt_clust_7="13000.00000" pt_clust_8="13000.00000" pt_clust_9="24.91910"></scales>
<clustering>
<clus scale="   24.919">  1  9  2 -1</clus>
<clus scale="   86.741">  7  8 -1 -1</clus>
<clus scale="   90.716">  5  6 -1 -1</clus>
<clus scale="  123.247">  2  7  1 -1</clus>
<clus scale="   24.919">  1  5  2 -1</clus>
</clustering>
</event>
<event>
 9    1  0.1671478E-005  0.1054642E+03  0.7546771E-02  0.1270099E+00
         21   -1    0    0  501  502  0.00000000000E+00  0.00000000000E+00  0.17829917791E+03  0.17829917791E+03  0.00000000000E+00 0. -1.
         -3   -1    0    0    0  501 -0.00000000000E+00 -0.00000000000E+00 -0.43372931404E+03  0.43372931404E+03  0.00000000000E+00 0.  1.
         23    2    1    2    0    0  0.50795482774E+02  0.18662075798E+02 -0.39908114809E+03  0.41232362761E+03  0.88411294410E+02 0.  0.
         23    2    1    2    0    0 -0.40883359241E+02 -0.45080802849E+02  0.12491175521E+03  0.16583217512E+03  0.90518704516E+02 0.  0.
        -11    1    3    3    0    0  0.62226965627E+02 -0.14722841407E+02 -0.30962245023E+03  0.31615663680E+03  0.00000000000E+00 0.  1.
         11    1    3    3    0    0 -0.11431482852E+02  0.33384917205E+02 -0.89458697863E+02  0.96166990804E+02  0.00000000000E+00 0. -1.
        -13    1    4    4    0    0 -0.61105153798E+02 -0.41912592458E+02  0.53098730450E+02  0.91159093910E+02  0.00000000000E+00 0. -1.
         13    1    4    4    0    0  0.20221794556E+02 -0.31682103907E+01  0.71813024763E+02  0.74673081213E+02  0.00000000000E+00 0.  1.
         -3    1    1    2    0  502 -0.99121235329E+01  0.26418727050E+02  0.18739256747E+02  0.33872689225E+02  0.00000000000E+00 0.  1.
<scales pt_clust_5="13000.00000" pt_clust_6="13000.00000" pt_clust_7="13000.00000" pt_clust_8="13000.00000" pt_clust_9="28.21700"></scales>
<clustering>
<clus scale="   28.217">  1  9  2 -1</clus>
<clus scale="   88.411">  5  6 -1 -1</clus>
<clus scale="   90.519">  7  8 -1 -1</clus>
<clus scale="  103.661">  2  5  1 -1</clus>
<clus scale="   28.217">  1  5  2 -1</clus>
</clustering>
</event>
<event>
 9    1  0.1671478E-005  0.1078179E+03  0.7546771E-02  0.1267421E+00
          1   -1    0    0  502    0 -0.00000000000E+00  0.00000000000E+00  0.59313191780E+03  0.59313191780E+03  0.00000000000E+00 0. -1.
         21   -1    0    0  501  502  0.00000000000E+00 -0.00000000000E+00 -0.29482147853E+02  0.29482147853E+02  0.00000000000E+00 0. -1.
         23    2    1    2    0    0 -0.64559893256E+02  0.76394525290E+01  0.40147039667E+03  0.41706143418E+03  0.92387333689E+02 0.  0.
         23    2    1    2    0    0  0.39092509881E+02  0.37533848252E+01  0.14439149605E+03  0.17246497614E+03  0.85749353563E+02 0.  0.
        -11    1    4    4    0    0 -0.12581885129E+02 -0.16038282807E+02  0.29656386775E+01  0.20599159244E+02  0.00000000000E+00 0. -1.
         11    1    4    4    0    0  0.51674395010E+02  0.19791667632E+02  0.14142585737E+03  0.15186581690E+03  0.00000000000E+00 0.  1.
        -13    1    3    3    0    0  0.32666637372E+01  0.34862410266E+02  0.78993443802E+02  0.86406150853E+02  0.00000000000E+00 0.  1.
         13    1    3    3    0    0 -0.67826556993E+02 -0.27222957737E+02  0.32247695287E+03  0.33065528333E+03  0.00000000000E+00 0. -1.
          1    1    1    2  501    0  0.25467383375E+02 -0.11392837354E+02  0.17787877216E+02  0.33087655324E+02  0.00000000000E+00 0. -1.
<scales pt_clust_5="13000.00000" pt_clust_6="13000.00000" pt_clust_7="13000.00000" pt_clust_8="13000.00000" pt_clust_9="27.89954"></scales>
<clustering>
<clus scale="   27.900">  2  9  1 -1</clus>
<clus scale="   85.749">  5  6 -1 -1</clus>
<clus scale="   92.387">  7  8 -1 -1</clus>
<clus scale="  102.187">  2  5  1 -1</clus>
<clus scale="   27.900">  2  5  1 -1</clus>
</clustering>
</event>
<event>
 9    1  0.1671478E-005  0.1053495E+03  0.7546771E-02  0.1270133E+00
          1   -1    0    0  502    0 -0.00000000000E+00  0.00000000000E+00  0.76333077146E+03  0.76333077146E+03  0.00000000000E+00 0. -1.
         21   -1    0    0  501  502  0.00000000000E+00 -0.00000000000E+00 -0.32047704407E+02  0.32047704407E+02  0.00000000000E+00 0. -1.
         23    2    1    2    0    0 -0.55442871076E+02  0.15644513938E+01  0.49691676483E+03  0.50863806344E+03  0.93327643016E+02 0.  0.
         23    2    1    2    0    0  0.36777051673E+02 -0.13957767692E+02  0.24302529567E+03  0.26271989473E+03  0.91722832172E+02 0.  0.
        -11    1    4    4    0    0 -0.14892580075E+01 -0.36894115231E+02  0.18938624132E+03  0.19295217549E+03  0.00000000000E+00 0. -1.
         11    1    4    4    0    0  0.38266309681E+02  0.22936347540E+02  0.53639054351E+02  0.69767719231E+02  0.00000000000E+00 0.  1.
        -11    1    3    3    0    0 -0.63819604461E+02  0.31522904681E+02  0.41407164355E+03  0.42014516709E+03  0.00000000000E+00 0. -1.
         11    1    3    3    0    0  0.83767333855E+01 -0.29958453287E+02  0.82845121281E+02  0.88492896357E+02  0.00000000000E+00 0.  1.
          1    1    1    2  501    0  0.18665819402E+02  0.12393316298E+02 -0.86589934491E+01  0.24020517696E+02  0.00000000000E+00 0. -1.
<scales pt_clust_5="13000.00000" pt_clust_6="13000.00000" pt_clust_7="13000.00000" pt_clust_8="13000.00000" pt_clust_9="22.40552"></scales>
<clustering>
<clus scale="   22.406">  2  9  1 -1</clus>
<clus scale="   91.723">  5  6 -1 -1</clus>
<clus scale="   93.328">  7  8 -1 -1</clus>
<clus scale="  103.931">  2  5  1 -1</clus>
<clus scale="   22.406">  2  5  1 -1</clus>
</clustering>
</event>
<event>
 9    1  0.1671478E-005  0.1971920E+03  0.7546771E-02  0.1161986E+00
         -4   -1    0    0    0  501 -0.00000000000E+00  0.00000000000E+00  0.62046434506E+03  0.62046434506E+03  0.00000000000E+00 0.  1.
         21   -1    0    0  501  502  0.00000000000E+00 -0.00000000000E+00 -0.19268693674E+03  0.19268693674E+03  0.00000000000E+00 0.  1.
         23    2    1    2    0    0  0.11675066293E+03  0.54657510871E+02  0.10353407630E+03  0.18771004970E+03  0.88868425285E+02 0.  0.
         23    2    1    2    0    0  0.27338055418E+02 -0.16952812776E+03  0.38581722534E+03  0.43115237056E+03  0.86892346593E+02 0.  0.
        -11    1    4    4    0    0  0.57891877097E+02 -0.89822303063E+02  0.22485236206E+03  0.24895401239E+03  0.00000000000E+00 0.  1.
         11    1    4    4    0    0 -0.30553821679E+02 -0.79705824695E+02  0.16096486329E+03  0.18219835818E+03  0.00000000000E+00 0. -1.
        -13    1    3    3    0    0 -0.16091363393E+01  0.35978194154E+02  0.16508928871E+02  0.39617729703E+02  0.00000000000E+00 0. -1.
         13    1    3    3    0    0  0.11835979927E+03  0.18679316717E+02  0.87025147427E+02  0.14809232000E+03  0.00000000000E+00 0.  1.
         -4    1    1    2    0  502 -0.14408871835E+03  0.11487061689E+03 -0.61573893313E+02  0.19428886154E+03  0.00000000000E+00 0.  1.
<scales pt_clust_5="13000.00000" pt_clust_6="13000.00000" pt_clust_7="13000.00000" pt_clust_8="13000.00000" pt_clust_9="177.01528"></scales>
<clustering>
<clus scale="   86.892">  5  6 -1 -1</clus>
<clus scale="   88.868">  7  8 -1 -1</clus>
<clus scale="  156.575">  1  7  2 -1</clus>
<clus scale="  177.015">  2  9  1 -1</clus>
<clus scale="  177.015">  2  5  1 -1</clus>
</clustering>
</event>
<event>
 9    1  0.1671478E-005  0.3512288E+03  0.7546771E-02  0.1062203E+00
          2   -1    0    0  502    0 -0.00000000000E+00  0.00000000000E+00  0.57631179782E+03  0.57631179782E+03  0.00000000000E+00 0. -1.
         21   -1    0    0  501  502  0.00000000000E+00 -0.00000000000E+00 -0.31363616614E+03  0.31363616614E+03  0.00000000000E+00 0. -1.
         23    2    1    2    0    0  0.22347824002E+03  0.24466852467E+03  0.28372494473E+03  0.44605103011E+03  0.93040133672E+02 0.  0.
         23    2    1    2    0    0 -0.19866600503E+03 -0.30144032293E+03 -0.50331093587E+02  0.37536878814E+03  0.89632908473E+02 0.  0.
        -11    1    4    4    0    0 -0.97063979124E+02 -0.20293180824E+03  0.64419300059E+00  0.22495143882E+03  0.00000000000E+00 0. -1.
         11    1    4    4    0    0 -0.10160202590E+03 -0.98508514691E+02 -0.50975286588E+02  0.15041734932E+03  0.00000000000E+00 0.  1.
        -13    1    3    3    0    0  0.11097206780E+03  0.14738433997E+03  0.10060627381E+03  0.21013939619E+03  0.00000000000E+00 0.  1.
         13    1    3    3    0    0  0.11250617222E+03  0.97284184695E+02  0.18311867092E+03  0.23591163392E+03  0.00000000000E+00 0. -1.
          2    1    1    2  501    0 -0.24812234992E+02  0.56771798268E+02  0.29281780535E+02  0.68528145715E+02  0.00000000000E+00 0. -1.
<scales pt_clust_5="13000.00000" pt_clust_6="13000.00000" pt_clust_7="13000.00000" pt_clust_8="13000.00000" pt_clust_9="61.95715"></scales>
<clustering>
<clus scale="   61.957">  2  9  1 -1</clus>
<clus scale="   89.633">  5  6 -1 -1</clus>
<clus scale="   93.040">  7  8 -1 -1</clus>
<clus scale="  350.342">  2  5  1 -1</clus>
<clus scale="   61.957">  2  5  1 -1</clus>
</clustering>
</event>
<event>
 9    1  0.1671478E-005  0.1179262E+03  0.7546771E-02  0.1249114E+00
          2   -1    0    0  502    0 -0.00000000000E+00  0.00000000000E+00  0.49794864998E+03  0.49794864998E+03  0.00000000000E+00 0. -1.
         21   -1    0    0  501  502  0.00000000000E+00 -0.00000000000E+00 -0.40294153872E+02  0.40294153872E+02  0.00000000000E+00 0.  1.
         23    2    1    2    0    0 -0.46570252920E+02 -0.82964214110E+01  0.17501048986E+03  0.20238178480E+03  0.89956079249E+02 0.  0.
         23    2    1    2    0    0  0.91591485585E+02  0.12302195925E+02  0.23203727073E+03  0.26800824239E+03  0.97194540622E+02 0.  0.
        -11    1    4    4    0    0  0.74504004516E+02 -0.11527891878E+02  0.68499218653E+02  0.10186207310E+03  0.00000000000E+00 0.  1.
         11    1    4    4    0    0  0.17087481069E+02  0.23830087802E+02  0.16353805208E+03  0.16614616929E+03  0.00000000000E+00 0. -1.
        -11    1    3    3    0    0  0.11836932723E+02  0.24948961160E+02  0.22151974076E+02  0.35401604408E+02  0.00000000000E+00 0.  1.
         11    1    3    3    0    0 -0.58407185643E+02 -0.33245382571E+02  0.15285851578E+03  0.16698018039E+03  0.00000000000E+00 0. -1.
          2    1    1    2  501    0 -0.45021232665E+02 -0.40057745136E+01  0.50606735521E+02  0.67852776658E+02  0.00000000000E+00 0. -1.
<scales pt_clust_5="13000.00000" pt_clust_6="13000.00000" pt_clust_7="13000.00000" pt_clust_8="13000.00000" pt_clust_9="45.19909"></scales>
<clustering>
<clus scale="   45.199">  2  9  1 -1</clus>
<clus scale="   89.956">  7  8 -1 -1</clus>
<clus scale="   97.195">  5  6 -1 -1</clus>
<clus scale="  112.035">  1  7  2 -1</clus>
<clus scale="   45.199">  2  5  1 -1</clus>
</clustering>
</event>
<event>
 9    1  0.1671478E-005  0.1882921E+03  0.7546771E-02  0.1160372E+00
         21   -1    0    0  501  502  0.00000000000E+00  0.00000000000E+00  0.58111505453E+02  0.58111505453E+02  0.00000000000E+00 0. -1.
          1   -1    0    0  502    0 -0.00000000000E+00 -0.00000000000E+00 -0.90913565323E+03  0.90913565323E+03  0.00000000000E+00 0. -1.
         23    2    1    2    0    0  0.10510141617E+03  0.11183168988E+03 -0.46287642245E+03  0.49575206090E+03  0.89235020498E+02 0.  0.
         23    2    1    2    0    0 -0.14708745413E+03 -0.10801028057E+03 -0.37526952292E+03  0.42741246345E+03  0.92483832167E+02 0.  0.
        -11    1    3    3    0    0  0.26937077575E+02 -0.10926135505E+02 -0.48280309344E+02  0.56355788130E+02  0.00000000000E+00 0.  1.
         11    1    3    3    0    0  0.78164338597E+02  0.12275782538E+03 -0.41459611310E+03  0.43939627277E+03  0.00000000000E+00 0. -1.
        -13    1    4    4    0    0 -0.78709009289E+02 -0.57049042699E+02 -0.10095912280E+03  0.14015151049E+03  0.00000000000E+00 0. -1.
         13    1    4    4    0    0 -0.68378444842E+02 -0.50961237870E+02 -0.27431040012E+03  0.28726095296E+03  0.00000000000E+00 0.  1.
          1    1    1    2  501    0  0.41986037959E+02 -0.38214093071E+01 -0.12878202412E+02  0.44082634335E+02  0.00000000000E+00 0. -1.
<scales pt_clust_5="13000.00000" pt_clust_6="13000.00000" pt_clust_7="13000.00000" pt_clust_8="13000.00000" pt_clust_9="42.15958"></scales>
<clustering>
<clus scale="   42.160">  1  9  2 -1</clus>
<clus scale="   89.235">  5  6 -1 -1</clus>
<clus scale="   92.484">  7  8 -1 -1</clus>
<clus scale="  186.718">  2  5  1 -1</clus>
<clus scale="   42.160">  1  5  2 -1</clus>
</clustering>
</event>
<event>
 9    1  0.1671478E-005  0.1498273E+03  0.7546771E-02  0.1208685E+00
         -1   -1    0    0    0  501 -0.00000000000E+00  0.00000000000E+00  0.41523412249E+03  0.41523412249E+03  0.00000000000E+00 0.  1.
         21   -1    0    0  501  502  0.00000000000E+00 -0.00000000000E+00 -0.92365352945E+02  0.92365352945E+02  0.00000000000E+00 0. -1.
         23    2    1    2    0    0 -0.16649056350E+02  0.80900052288E+02  0.29526999266E+03  0.32986611799E+03  0.12167693987E+03 0.  0.
         23    2    1    2    0    0  0.29151435140E+02 -0.10313752580E+03  0.51066771763E+00  0.14052340767E+03  0.90881306788E+02 0.  0.
        -13    1    4    4    0    0 -0.19023852553E+02 -0.78089055869E+02 -0.19415097292E+02  0.82684663725E+02  0.00000000000E+00 0. -1.
         13    1    4    4    0    0  0.48175287694E+02 -0.25048469933E+02  0.19925765010E+02  0.57838743949E+02  0.00000000000E+00 0.  1.
        -13    1    3    3    0    0 -0.46618820125E+02  0.31245254171E+02  0.42151168301E+02  0.70187614913E+02  0.00000000000E+00 0. -1.
         13    1    3    3    0    0  0.29969763774E+02  0.49654798117E+02  0.25311882436E+03  0.25967850308E+03  0.00000000000E+00 0.  1.
         -1    1    1    2    0  502 -0.12502378790E+02  0.22237473514E+02  0.27088109174E+02  0.37209949775E+02  0.00000000000E+00 0.  1.
<scales pt_clust_5="13000.00000" pt_clust_6="13000.00000" pt_clust_7="13000.00000" pt_clust_8="13000.00000" pt_clust_9="25.51108"></scales>
<clustering>
<clus scale="   25.511">  2  9  1 -1</clus>
<clus scale="   90.881">  5  6 -1 -1</clus>
<clus scale="  121.677">  7  8 -1 -1</clus>
<clus scale="  126.105">  2  5  1 -1</clus>
<clus scale="   25.511">  2  5  1 -1</clus>
</clustering>
</event>
<event>
 9    1  0.2059980E-005  0.1188352E+03  0.7546771E-02  0.1248439E+00
         21   -1    0    0  501  502  0.00000000000E+00  0.00000000000E+00  0.35616297078E+03  0.35616297078E+03  0.00000000000E+00 0. -1.
          1   -1    0    0  502    0 -0.00000000000E+00 -0.00000000000E+00 -0.27598291494E+03  0.27598291494E+03  0.00000000000E+00 0. -1.
         23    2    1    2    0    0 -0.34605987834E+02 -0.68777627862E+02 -0.19135840447E+03  0.22374443402E+03  0.86692538920E+02 0.  0.
         23    2    1    2    0    0  0.49116324753E+02  0.25865045318E+02 -0.20181559673E+02  0.11318524334E+03  0.96551489020E+02 0.  0.
        -11    1    4    4    0    0  0.36434035336E+02 -0.25533395463E+02 -0.36757886848E+02  0.57710791541E+02  0.00000000000E+00 0. -1.
         11    1    4    4    0    0  0.12682289416E+02  0.51398440781E+02  0.16576327175E+02  0.55474451797E+02  0.00000000000E+00 0.  1.
        -13    1    3    3    0    0 -0.76566102028E+01 -0.74857328289E+02 -0.17759585350E+03  0.19287957502E+03  0.00000000000E+00 0. -1.
         13    1    3    3    0    0 -0.26949377631E+02  0.60797004263E+01 -0.13762550971E+02  0.30864859002E+02  0.00000000000E+00 0.  1.
          1    1    1    2  501    0 -0.14510336919E+02  0.42912582544E+02  0.29172001998E+03  0.29521620836E+03  0.00000000000E+00 0. -1.
<scales pt_clust_5="13000.00000" pt_clust_6="13000.00000" pt_clust_7="13000.00000" pt_clust_8="13000.00000" pt_clust_9="45.29944"></scales>
<clustering>
<clus scale="   45.299">  1  9  2 -1</clus>
<clus scale="   86.693">  7  8 -1 -1</clus>
<clus scale="   96.551">  5  6 -1 -1</clus>
<clus scale="  110.974">  2  7  1 -1</clus>
<clus scale="   45.299">  1  5  2 -1</clus>
</clustering>
</event>
<event>
 9    1  0.1671478E-005  0.1812443E+03  0.7546771E-02  0.1181062E+00
          3   -1    0    0  502    0 -0.00000000000E+00  0.00000000000E+00  0.16731037249E+04  0.16731037249E+04  0.00000000000E+00 0. -1.
         21   -1    0    0  501  502  0.00000000000E+00 -0.00000000000E+00 -0.56000739299E+02  0.56000739299E+02  0.00000000000E+00 0. -1.
         23    2    1    2    0    0 -0.57954765062E+02 -0.73766626418E+02  0.34801769558E+03  0.37167937086E+03  0.90713661171E+02 0.  0.
         23    2    1    2    0    0  0.59786453002E+02  0.21976463708E+03  0.11277423088E+04  0.11542094135E+04  0.92334930745E+02 0.  0.
        -11    1    3    3    0    0 -0.66347723445E+02 -0.11273174122E+02  0.17096965223E+03  0.18373820192E+03  0.00000000000E+00 0. -1.
         11    1    3    3    0    0  0.83929583833E+01 -0.62493452295E+02  0.17704804335E+03  0.18794116895E+03  0.00000000000E+00 0.  1.
        -13    1    4    4    0    0  0.90284828578E+01  0.41387919952E+02  0.83548759692E+02  0.93674268968E+02  0.00000000000E+00 0.  1.
         13    1    4    4    0    0  0.50757970144E+02  0.17837671713E+03  0.10441935491E+04  0.10605351445E+04  0.00000000000E+00 0. -1.
          3    1    1    2  501    0 -0.18316879403E+01 -0.14599801066E+03  0.14134298122E+03  0.20321567985E+03  0.00000000000E+00 0. -1.
<scales pt_clust_5="13000.00000" pt_clust_6="13000.00000" pt_clust_7="13000.00000" pt_clust_8="13000.00000" pt_clust_9="155.96070"></scales>
<clustering>
<clus scale="   90.714">  5  6 -1 -1</clus>
<clus scale="   92.335">  7  8 -1 -1</clus>
<clus scale="  130.496">  1  5  2 -1</clus>
<clus scale="  155.961">  2  9  1 -1</clus>
<clus scale="  155.961">  2  5  1 -1</clus>
</clustering>
</event>
<event>
 9    1  0.1671478E-005  0.1131770E+03  0.7546771E-02  0.1255441E+00
         21   -1    0    0  501  502  0.00000000000E+00  0.00000000000E+00  0.24471895861E+02  0.24471895861E+02  0.00000000000E+00 0.  1.
          1   -1    0    0  502    0 -0.00000000000E+00 -0.00000000000E+00 -0.73101737695E+03  0.73101737695E+03  0.00000000000E+00 0. -1.
         23    2    1    2    0    0 -0.52528508880E+02  0.47236482498E+02 -0.41633310394E+03  0.43128275567E+03  0.87641499175E+02 0.  0.
         23    2    1    2    0    0  0.62603203128E+02 -0.29389135544E+02 -0.27854835832E+03  0.30062524083E+03  0.89462087894E+02 0.  0.
        -13    1    4    4    0    0 -0.75498772515E+01  0.22966335349E+02 -0.42888518077E+02  0.49232897423E+02  0.00000000000E+00 0.  1.
         13    1    4    4    0    0  0.70153080379E+02 -0.52355470893E+02 -0.23565984024E+03  0.25139234340E+03  0.00000000000E+00 0. -1.
        -13    1    3    3    0    0 -0.63481072085E+02  0.75471725709E+01 -0.32309197701E+03  0.32935578321E+03  0.00000000000E+00 0. -1.
         13    1    3    3    0    0  0.10952563205E+02  0.39689309927E+02 -0.93241126934E+02  0.10192697246E+03  0.00000000000E+00 0.  1.
          1    1    1    2  501    0 -0.10074694248E+02 -0.17847346953E+02 -0.11664018833E+02  0.23581276318E+02  0.00000000000E+00 0. -1.
<scales pt_clust_5="13000.00000" pt_clust_6="13000.00000" pt_clust_7="13000.00000" pt_clust_8="13000.00000" pt_clust_9="20.49457"></scales>
<clustering>
<clus scale="   20.495">  1  9  2 -1</clus>
<clus scale="   87.641">  7  8 -1 -1</clus>
<clus scale="   89.462">  5  6 -1 -1</clus>
<clus scale="  111.743">  2  7  1 -1</clus>
<clus scale="   20.495">  1  5  2 -1</clus>
</clustering>
</event>
<event>
 9    1  0.1671478E-005  0.1368551E+03  0.7546771E-02  0.1220536E+00
         21   -1    0    0  501  502  0.00000000000E+00  0.00000000000E+00  0.16841388807E+03  0.16841388807E+03  0.00000000000E+00 0.  1.
          1   -1    0    0  502    0 -0.00000000000E+00 -0.00000000000E+00 -0.30902034053E+03  0.30902034053E+03  0.00000000000E+00 0. -1.
         23    2    1    2    0    0 -0.10401675824E+03  0.42812202293E+02 -0.23130385259E+03  0.26924659359E+03  0.79623396558E+02 0.  0.
         23    2    1    2    0    0  0.29622959257E+02 -0.55646890210E+02  0.49141738145E+02  0.12201316324E+03  0.92185711862E+02 0.  0.
        -11    1    3    3    0    0 -0.95800050473E+02  0.62762319437E+02 -0.20829033986E+03  0.23770070276E+03  0.00000000000E+00 0.  1.
         11    1    3    3    0    0 -0.82167077651E+01 -0.19950117144E+02 -0.23013512726E+02  0.31545890834E+02  0.00000000000E+00 0. -1.
        -11    1    4    4    0    0  0.12068137649E+02 -0.42516085586E+02  0.75650334960E+02  0.87614100802E+02  0.00000000000E+00 0.  1.
         11    1    4    4    0    0  0.17554821607E+02 -0.13130804624E+02 -0.26508596814E+02  0.34399062441E+02  0.00000000000E+00 0. -1.
          1    1    1    2  501    0  0.74393798982E+02  0.12834687917E+02  0.41555661988E+02  0.86174471766E+02  0.00000000000E+00 0. -1.
<scales pt_clust_5="13000.00000" pt_clust_6="13000.00000" pt_clust_7="13000.00000" pt_clust_8="13000.00000" pt_clust_9="75.49282"></scales>
<clustering>
<clus scale="   75.493">  1  9  2 -1</clus>
<clus scale="   79.623">  5  6 -1 -1</clus>
<clus scale="   92.186">  7  8 -1 -1</clus>
<clus scale="  128.728">  2  5  1 -1</clus>
<clus scale="   75.493">  1  5  2 -1</clus>
</clustering>
</event>
<event>
 9    1  0.1671478E-005  0.1967430E+03  0.7546771E-02  0.1180303E+00
         21   -1    0    0  501  502  0.00000000000E+00  0.00000000000E+00  0.48071908221E+02  0.48071908221E+02  0.00000000000E+00 0. -1.
         -1   -1    0    0    0  501 -0.00000000000E+00 -0.00000000000E+00 -0.12426618551E+04  0.12426618551E+04  0.00000000000E+00 0.  1.
         23    2    1    2    0    0  0.11778571798E+02  0.52544976446E+02 -0.36178639280E+03  0.37637569556E+03  0.88710545565E+02 0.  0.
         23    2    1    2    0    0 -0.49634498057E+02 -0.19991789971E+03 -0.48862335774E+03  0.53804455854E+03  0.91150486667E+02 0.  0.
        -11    1    4    4    0    0 -0.66162266206E+01 -0.12748971651E+03 -0.19908135612E+03  0.23649691039E+03  0.00000000000E+00 0. -1.
         11    1    4    4    0    0 -0.43018271436E+02 -0.72428183203E+02 -0.28954200162E+03  0.30154764815E+03  0.00000000000E+00 0.  1.
        -13    1    3    3    0    0 -0.30764822790E+02 -0.42873065360E+01 -0.80941299306E+02  0.86696881443E+02  0.00000000000E+00 0.  1.
         13    1    3    3    0    0  0.42543394588E+02  0.56832282982E+02 -0.28084509349E+03  0.28967881412E+03  0.00000000000E+00 0. -1.
         -1    1    1    2    0  502  0.37855926259E+02  0.14737292327E+03 -0.34418019631E+03  0.37631350919E+03  0.00000000000E+00 0.  1.
<scales pt_clust_5="13000.00000" pt_clust_6="13000.00000" pt_clust_7="13000.00000" pt_clust_8="13000.00000" pt_clust_9="174.35426"></scales>
<clustering>
<clus scale="   88.711">  7  8 -1 -1</clus>
<clus scale="   91.150">  5  6 -1 -1</clus>
<clus scale="  103.775">  2  7  1 -1</clus>
<clus scale="  174.354">  1  9  2 -1</clus>
<clus scale="  174.354">  1  5  2 -1</clus>
</clustering>
</event>
<event>
 9    1  0.1671478E-005  0.1165167E+03  0.7546771E-02  0.1250774E+00
          1   -1    0    0  502    0 -0.00000000000E+00  0.00000000000E+00  0.42081091596E+03  0.42081091596E+03  0.00000000000E+00 0. -1.
         21   -1    0    0  501  502  0.00000000000E+00 -0.00000000000E+00 -0.12604143182E+03  0.12604143182E+03  0.00000000000E+00 0. -1.
         23    2    1    2    0    0  0.67869456197E+02 -0.29334909318E+02  0.35460954947E+03  0.37431664737E+03  0.94330376504E+02 0.  0.
         23    2    1    2    0    0 -0.17021402120E+02  0.45976996748E+02 -0.15223373722E+02  0.10287127013E+03  0.89146703534E+02 0.  0.
        -11    1    4    4    0    0  0.36354470558E+02  0.24501123053E+02 -0.10899695928E+02  0.45174726693E+02  0.00000000000E+00 0. -1.
         11    1    4    4    0    0 -0.53375872679E+02  0.21475873695E+02 -0.43236777938E+01  0.57696543439E+02  0.00000000000E+00 0.  1.
        -13    1    3    3    0    0  0.38861349018E+02 -0.57349374006E+02  0.14297520415E+03  0.15887436593E+03  0.00000000000E+00 0.  1.
         13    1    3    3    0    0  0.29008107178E+02  0.28014464688E+02  0.21163434532E+03  0.21544228144E+03  0.00000000000E+00 0. -1.
          1    1    1    2  501    0 -0.50848054076E+02 -0.16642087430E+02 -0.44616691606E+02  0.69664430287E+02  0.00000000000E+00 0. -1.
<scales pt_clust_5="13000.00000" pt_clust_6="13000.00000" pt_clust_7="13000.00000" pt_clust_8="13000.00000" pt_clust_9="53.50218"></scales>
<clustering>
<clus scale="   53.502">  2  9  1 -1</clus>
<clus scale="   89.147">  5  6 -1 -1</clus>
<clus scale="   94.330">  7  8 -1 -1</clus>
<clus scale="  112.361">  2  5  1 -1</clus>
<clus scale="   53.502">  2  5  1 -1</clus>
</clustering>
</event>
<event>
 9    1  0.1671478E-005  0.1004881E+03  0.7546771E-02  0.1281866E+00
          1   -1    0    0  502    0 -0.00000000000E+00  0.00000000000E+00  0.37506010164E+03  0.37506010164E+03  0.00000000000E+00 0. -1.
         21   -1    0    0  501  502  0.00000000000E+00 -0.00000000000E+00 -0.32676653831E+03  0.32676653831E+03  0.00000000000E+00 0.  1.
         23    2    1    2    0    0 -0.30592499662E+02 -0.23844273291E+02  0.35626833034E+03  0.37013760912E+03  0.92575785567E+02 0.  0.
         23    2    1    2    0    0  0.29967653285E+02  0.44219777525E+02 -0.26642129785E+03  0.28540466625E+03  0.87304447766E+02 0.  0.
        -11    1    3    3    0    0 -0.40126251723E+01  0.30996407920E+02  0.59853153602E+02  0.67522429317E+02  0.00000000000E+00 0.  1.
         11    1    3    3    0    0 -0.26579874490E+02 -0.54840681211E+02  0.29641517674E+03  0.30261517980E+03  0.00000000000E+00 0. -1.
        -11    1    4    4    0    0  0.53191754583E+01  0.45672261582E+02 -0.25330765000E+03  0.25744711040E+03  0.00000000000E+00 0.  1.
         11    1    4    4    0    0  0.24648477827E+02 -0.14524840570E+01 -0.13113647856E+02  0.27957555852E+02  0.00000000000E+00 0. -1.
          1    1    1    2  501    0  0.62484637737E+00 -0.20375504234E+02 -0.41553469157E+02  0.46284364582E+02  0.00000000000E+00 0. -1.
<scales pt_clust_5="13000.00000" pt_clust_6="13000.00000" pt_clust_7="13000.00000" pt_clust_8="13000.00000" pt_clust_9="20.38508"></scales>
<clustering>
<clus scale="   20.385">  2  9  1 -1</clus>
<clus scale="   87.304">  7  8 -1 -1</clus>
<clus scale="   92.576">  5  6 -1 -1</clus>
<clus scale="   95.654">  2  7  1 -1</clus>
<clus scale="   20.385">  2  5  1 -1</clus>
</clustering>
</event>
<event>
 9    1  0.1671478E-005  0.9846318E+02  0.7546771E-02  0.1285476E+00
          1   -1    0    0  502    0 -0.00000000000E+00  0.00000000000E+00  0.11517747674E+03  0.11517747674E+03  0.00000000000E+00 0. -1.
         21   -1    0    0  501  502  0.00000000000E+00 -0.00000000000E+00 -0.16400102293E+03  0.16400102293E+03  0.00000000000E+00 0. -1.
         23    2    1    2    0    0  0.25904459943E+01  0.14384621328E+02  0.53299634540E+02  0.11112502851E+03  0.96406914581E+02 0.  0.
         23    2    1    2    0    0  0.12186113557E+02 -0.36711729667E+02 -0.57034914723E+02  0.11561495278E+03  0.92830939613E+02 0.  0.
        -11    1    3    3    0    0  0.41592462143E+02  0.25634091591E+02  0.50761138876E+02  0.70453763411E+02  0.00000000000E+00 0.  1.
         11    1    3    3    0    0 -0.39002016149E+02 -0.11249470263E+02  0.25384956648E+01  0.40671265103E+02  0.00000000000E+00 0. -1.
        -11    1    4    4    0    0  0.25024963739E+02  0.25874882626E+02 -0.27114003949E+02  0.45065813775E+02  0.00000000000E+00 0.  1.
         11    1    4    4    0    0 -0.12838850182E+02 -0.62586612293E+02 -0.29920910773E+02  0.70549139001E+02  0.00000000000E+00 0. -1.
          1    1    1    2  501    0 -0.14776559551E+02  0.22327108339E+02 -0.45088266002E+02  0.52438518381E+02  0.00000000000E+00 0. -1.
<scales pt_clust_5="13000.00000" pt_clust_6="13000.00000" pt_clust_7="13000.00000" pt_clust_8="13000.00000" pt_clust_9="26.77399"></scales>
<clustering>
<clus scale="   26.774">  2  9  1 -1</clus>
<clus scale="   92.831">  7  8 -1 -1</clus>
<clus scale="   94.965">  2  7  1 -1</clus>
<clus scale="   96.407">  5  6 -1 -1</clus>
<clus scale="   26.774">  2  5  1 -1</clus>
</clustering>
</event>
<event>
 9    1  0.1671478E-005  0.9711242E+02  0.7546771E-02  0.1287513E+00
         21   -1    0    0  501  502  0.00000000000E+00  0.00000000000E+00  0.75092451050E+02  0.75092451050E+02  0.00000000000E+00 0. -1.
          2   -1    0    0  502    0 -0.00000000000E+00 -0.00000000000E+00 -0.26959971370E+03  0.26959971370E+03  0.00000000000E+00 0. -1.
         23    2    1    2    0    0 -0.35572289985E+02  0.20442650918E+02 -0.18246152344E+03  0.20804935949E+03  0.91153928367E+02 0.  0.
         23    2    1    2    0    0  0.19859002557E+02  0.70871240724E+01 -0.34374163630E+02  0.97869690215E+02  0.89175589862E+02 0.  0.
        -11    1    3    3    0    0 -0.69604107940E+00  0.49101508606E+02 -0.12928372644E+03  0.13829578642E+03  0.00000000000E+00 0. -1.
         11    1    3    3    0    0 -0.34876248906E+02 -0.28658857688E+02 -0.53177797004E+02  0.69753573069E+02  0.00000000000E+00 0.  1.
        -13    1    4    4    0    0 -0.43401588027E+01  0.40679884347E+02  0.43998908617E+01  0.41146676762E+02  0.00000000000E+00 0. -1.
         13    1    4    4    0    0  0.24199161360E+02 -0.33592760275E+02 -0.38774054492E+02  0.56723013453E+02  0.00000000000E+00 0.  1.
          2    1    1    2  501    0  0.15713287428E+02 -0.27529774991E+02  0.22328424424E+02  0.38773115042E+02  0.00000000000E+00 0. -1.
<scales pt_clust_5="13000.00000" pt_clust_6="13000.00000" pt_clust_7="13000.00000" pt_clust_8="13000.00000" pt_clust_9="31.69852"></scales>
<clustering>
<clus scale="   31.699">  1  9  2 -1</clus>
<clus scale="   89.176">  7  8 -1 -1</clus>
<clus scale="   91.154">  5  6 -1 -1</clus>
<clus scale="   95.258">  1  7  2 -1</clus>
<clus scale="   31.699">  1  5  2 -1</clus>
</clustering>
</event>
<event>
 9    1  0.1671478E-005  0.1603917E+03  0.7546771E-02  0.1192533E+00
         21   -1    0    0  501  502  0.00000000000E+00  0.00000000000E+00  0.80626799890E+02  0.80626799890E+02  0.00000000000E+00 0.  1.
          1   -1    0    0  502    0 -0.00000000000E+00 -0.00000000000E+00 -0.58240177803E+03  0.58240177803E+03  0.00000000000E+00 0. -1.
         23    2    1    2    0    0 -0.11250358895E+03  0.33907992786E+02 -0.47242381385E+03  0.49972412306E+03  0.11284117059E+03 0.  0.
         23    2    1    2    0    0  0.98703578518E+02 -0.13813498663E+02 -0.17433555874E+02  0.13617037347E+03  0.91133048801E+02 0.  0.
        -11    1    3    3    0    0 -0.54730906153E+02  0.72331903323E+02 -0.31250103427E+03  0.32539863667E+03  0.00000000000E+00 0.  1.
         11    1    3    3    0    0 -0.57772682799E+02 -0.38423910537E+02 -0.15992277957E+03  0.17432548639E+03  0.00000000000E+00 0. -1.
        -13    1    4    4    0    0  0.10913993280E+03  0.70973628583E+01 -0.23838107886E+02  0.11193816543E+03  0.00000000000E+00 0.  1.
         13    1    4    4    0    0 -0.10436354284E+02 -0.20910861521E+02  0.64045520119E+01  0.24232208046E+02  0.00000000000E+00 0. -1.
          1    1    1    2  501    0  0.13800010434E+02 -0.20094494123E+02 -0.11917608415E+02  0.27134081380E+02  0.00000000000E+00 0. -1.
<scales pt_clust_5="13000.00000" pt_clust_6="13000.00000" pt_clust_7="13000.00000" pt_clust_8="13000.00000" pt_clust_9="24.37681"></scales>
<clustering>
<clus scale="   24.377">  1  9  2 -1</clus>
<clus scale="   91.133">  7  8 -1 -1</clus>
<clus scale="  112.841">  5  6 -1 -1</clus>
<clus scale="  145.937">  1  7  2 -1</clus>
<clus scale="   24.377">  1  5  2 -1</clus>
</clustering>
</event>
<event>
 9    1  0.1671478E-005  0.9568942E+02  0.7546771E-02  0.1289998E+00
         -4   -1    0    0    0  501 -0.00000000000E+00  0.00000000000E+00  0.37890818615E+03  0.37890818615E+03  0.00000000000E+00 0.  1.
         21   -1    0    0  501  502  0.00000000000E+00 -0.00000000000E+00 -0.45405454627E+02  0.45405454627E+02  0.00000000000E+00 0. -1.
         23    2    1    2    0    0 -0.48910652067E+01  0.30254595936E+02  0.17374156330E+03  0.19781688057E+03  0.89476948583E+02 0.  0.
         23    2    1    2    0    0 -0.18149497432E+02 -0.36613209999E+02  0.17335095227E+03  0.19900163827E+03  0.88775942559E+02 0.  0.
        -11    1    4    4    0    0 -0.92435386316E+01  0.29273604237E+02  0.45344661653E+02  0.54758791549E+02  0.00000000000E+00 0. -1.
         11    1    4    4    0    0 -0.89059588000E+01 -0.65886814236E+02  0.12800629062E+03  0.14424284672E+03  0.00000000000E+00 0.  1.
        -13    1    3    3    0    0 -0.15792333098E+02 -0.27173940518E+02  0.92778674878E+02  0.97957660957E+02  0.00000000000E+00 0.  1.
         13    1    3    3    0    0  0.10901267891E+02  0.57428536454E+02  0.80962888421E+02  0.99859219616E+02  0.00000000000E+00 0. -1.
         -4    1    1    2    0  502  0.23040562638E+02  0.63586140634E+01 -0.13589784051E+02  0.27495121932E+02  0.00000000000E+00 0.  1.
<scales pt_clust_5="13000.00000" pt_clust_6="13000.00000" pt_clust_7="13000.00000" pt_clust_8="13000.00000" pt_clust_9="23.90187"></scales>
<clustering>
<clus scale="   23.902">  2  9  1 -1</clus>
<clus scale="   88.776">  5  6 -1 -1</clus>
<clus scale="   89.477">  7  8 -1 -1</clus>
<clus scale="   95.034">  2  5  1 -1</clus>
<clus scale="   23.902">  2  5  1 -1</clus>
</clustering>
</event>
<event>
 9    1  0.1671478E-005  0.2183838E+03  0.7546771E-02  0.1135094E+00
          2   -1    0    0  502    0 -0.00000000000E+00  0.00000000000E+00  0.80288894817E+03  0.80288894817E+03  0.00000000000E+00 0. -1.
         21   -1    0    0  501  502  0.00000000000E+00 -0.00000000000E+00 -0.14527047334E+03  0.14527047334E+03  0.00000000000E+00 0.  1.
         23    2    1    2    0    0 -0.35774699827E+01  0.19847273545E+03  0.66395687629E+03  0.69895933025E+03  0.91110848819E+02 0.  0.
         23    2    1    2    0    0  0.32011684688E+02 -0.19741985477E+03  0.11502988558E+01  0.21977741707E+03  0.91112254128E+02 0.  0.
        -11    1    3    3    0    0  0.39803209889E+02  0.93785175689E+02  0.37449940345E+03  0.38811049700E+03  0.00000000000E+00 0.  1.
         11    1    3    3    0    0 -0.43380679872E+02  0.10468755976E+03  0.28945747283E+03  0.31084883325E+03  0.00000000000E+00 0. -1.
        -13    1    4    4    0    0 -0.78897083706E+00 -0.18430075772E+03 -0.19695273223E+01  0.18431296972E+03  0.00000000000E+00 0.  1.
         13    1    4    4    0    0  0.32800655525E+02 -0.13119097056E+02  0.31198261781E+01  0.35464447349E+02  0.00000000000E+00 0. -1.
          2    1    1    2  501    0 -0.28434214705E+02 -0.10528806773E+01 -0.74887003167E+01  0.29422674182E+02  0.00000000000E+00 0. -1.
<scales pt_clust_5="13000.00000" pt_clust_6="13000.00000" pt_clust_7="13000.00000" pt_clust_8="13000.00000" pt_clust_9="28.45370"></scales>
<clustering>
<clus scale="   28.454">  2  9  1 -1</clus>
<clus scale="   91.111">  5  6 -1 -1</clus>
<clus scale="   91.112">  7  8 -1 -1</clus>
<clus scale="  218.383">  1  5  2 -1</clus>
<clus scale="   28.454">  2  5  1 -1</clus>
</clustering>
</event>
<event>
 9    1  0.1671478E-005  0.1042477E+03  0.7546771E-02  0.1272150E+00
         21   -1    0    0  501  502  0.00000000000E+00  0.00000000000E+00  0.24130558822E+03  0.24130558822E+03  0.00000000000E+00 0.  1.
          4   -1    0    0  502    0 -0.00000000000E+00 -0.00000000000E+00 -0.13110385366E+03  0.13110385366E+03  0.00000000000E+00 0. -1.
         23    2    1    2    0    0  0.40368935436E+02 -0.24678336121E+02 -0.65005032119E+02  0.12338235470E+03  0.93588888382E+02 0.  0.
         23    2    1    2    0    0 -0.45453061287E+01  0.60024039731E+02  0.65307257558E+02  0.12815296553E+03  0.92382896317E+02 0.  0.
        -11    1    3    3    0    0  0.52355611329E+02  0.14028976039E+02 -0.62578668675E+02  0.82788960493E+02  0.00000000000E+00 0. -1.
         11    1    3    3    0    0 -0.11986675894E+02 -0.38707312160E+02 -0.24263634436E+01  0.40593394207E+02  0.00000000000E+00 0.  1.
        -13    1    4    4    0    0 -0.17568118106E+02  0.78238100829E+02  0.68593843137E+02  0.10552229391E+03  0.00000000000E+00 0.  1.
         13    1    4    4    0    0  0.13022811977E+02 -0.18214061098E+02 -0.32865855790E+01  0.22630671626E+02  0.00000000000E+00 0. -1.
          4    1    1    2  501    0 -0.35823629307E+02 -0.35345703609E+02  0.10989950911E+03  0.12087412165E+03  0.00000000000E+00 0. -1.
<scales pt_clust_5="13000.00000" pt_clust_6="13000.00000" pt_clust_7="13000.00000" pt_clust_8="13000.00000" pt_clust_9="50.32545"></scales>
<clustering>
<clus scale="   50.325">  1  9  2 -1</clus>
<clus scale="   92.383">  7  8 -1 -1</clus>
<clus scale="   93.589">  5  6 -1 -1</clus>
<clus scale="  103.166">  1  7  2 -1</clus>
<clus scale="   50.325">  1  5  2 -1</clus>
</clustering>
</event>
<event>
 9    1  0.1671478E-005  0.1078798E+03  0.7546771E-02  0.1265077E+00
          3   -1    0    0  502    0 -0.00000000000E+00  0.00000000000E+00  0.49363884661E+02  0.49363884661E+02  0.00000000000E+00 0. -1.
         21   -1    0    0  501  502  0.00000000000E+00 -0.00000000000E+00 -0.93497347373E+03  0.93497347373E+03  0.00000000000E+00 0. -1.
         23    2    1    2    0    0 -0.73457986645E+02 -0.17146699112E+02 -0.52106955092E+02  0.13015525886E+03  0.92385992167E+02 0.  0.
         23    2    1    2    0    0 -0.49683995272E+01 -0.81023468585E+01 -0.28041396984E+03  0.29499046621E+03  0.91088131260E+02 0.  0.
        -11    1    4    4    0    0  0.36327835064E+01 -0.49041817717E+02 -0.16780158218E+03  0.17485899458E+03  0.00000000000E+00 0.  1.
         11    1    4    4    0    0 -0.86011830337E+01  0.40939470858E+02 -0.11261238765E+03  0.12013147163E+03  0.00000000000E+00 0. -1.
        -13    1    3    3    0    0 -0.22963932471E+02  0.31513960408E+02 -0.45193653096E+02  0.59690352447E+02  0.00000000000E+00 0.  1.
         13    1    3    3    0    0 -0.50494054174E+02 -0.48660659520E+02 -0.69133019958E+01  0.70464906417E+02  0.00000000000E+00 0. -1.
          3    1    1    2  501    0  0.78426386173E+02  0.25249045971E+02 -0.55308866414E+03  0.55919163332E+03  0.00000000000E+00 0. -1.
<scales pt_clust_5="13000.00000" pt_clust_6="13000.00000" pt_clust_7="13000.00000" pt_clust_8="13000.00000" pt_clust_9="82.39061"></scales>
<clustering>
<clus scale="   82.391">  2  9  1 -1</clus>
<clus scale="   91.088">  5  6 -1 -1</clus>
<clus scale="   92.386">  7  8 -1 -1</clus>
<clus scale="  106.770">  2  5  1 -1</clus>
<clus scale="   82.391">  2  5  1 -1</clus>
</clustering>
</event>
<event>
 9    1  0.1671478E-005  0.1420367E+03  0.7546771E-02  0.1210799E+00
          2   -1    0    0  502    0 -0.00000000000E+00  0.00000000000E+00  0.78042043988E+03  0.78042043988E+03  0.00000000000E+00 0. -1.
         21   -1    0    0  501  502  0.00000000000E+00 -0.00000000000E+00 -0.57738460198E+02  0.57738460198E+02  0.00000000000E+00 0.  1.
         23    2    1    2    0    0  0.15006878644E+02  0.13728835916E+03  0.49762951329E+03  0.52405166072E+03  0.89003992274E+02 0.  0.
         23    2    1    2    0    0 -0.24632426373E+02 -0.74883223475E+02  0.22046647851E+03  0.25079781340E+03  0.89887827178E+02 0.  0.
        -13    1    3    3    0    0  0.47180218078E+02  0.11627115490E+03  0.36496502199E+03  0.38593318297E+03  0.00000000000E+00 0.  1.
         13    1    3    3    0    0 -0.32173339434E+02  0.21017204262E+02  0.13266449130E+03  0.13811847775E+03  0.00000000000E+00 0. -1.
        -13    1    4    4    0    0 -0.43147257762E+02 -0.54201028851E+01  0.11690216551E+03  0.12472842366E+03  0.00000000000E+00 0. -1.
         13    1    4    4    0    0  0.18514831389E+02 -0.69463120590E+02  0.10356431300E+03  0.12606938975E+03  0.00000000000E+00 0.  1.
          2    1    1    2  501    0  0.96255477289E+01 -0.62405135687E+02  0.45859878822E+01  0.63309425950E+02  0.00000000000E+00 0. -1.
<scales pt_clust_5="13000.00000" pt_clust_6="13000.00000" pt_clust_7="13000.00000" pt_clust_8="13000.00000" pt_clust_9="63.14311"></scales>
<clustering>
<clus scale="   63.143">  2  9  1 -1</clus>
<clus scale="   89.004">  5  6 -1 -1</clus>
<clus scale="   89.888">  7  8 -1 -1</clus>
<clus scale="  141.479">  1  5  2 -1</clus>
<clus scale="   63.143">  2  5  1 -1</clus>
</clustering>
</event>
<event>
 9    1  0.1671478E-005  0.1038654E+03  0.7546771E-02  0.1273371E+00
          1   -1    0    0  502    0 -0.00000000000E+00  0.00000000000E+00  0.17359391246E+03  0.17359391246E+03  0.00000000000E+00 0. -1.
         21   -1    0    0  501  502  0.00000000000E+00 -0.00000000000E+00 -0.11743538371E+03  0.11743538371E+03  0.00000000000E+00 0.  1.
         23    2    1    2    0    0 -0.28238962617E+02 -0.33303267636E+02 -0.51886854460E+01  0.10061921523E+03  0.90502803121E+02 0.  0.
         23    2    1    2    0    0  0.53219858991E+02  0.14535737566E+02 -0.14038338014E+02  0.10880587240E+03  0.92725411174E+02 0.  0.
        -11    1    3    3    0    0 -0.20887339632E+02 -0.11757353584E+02  0.41925280415E+02  0.48293327262E+02  0.00000000000E+00 0. -1.
         11    1    3    3    0    0 -0.73516229849E+01 -0.21545914053E+02 -0.47113965861E+02  0.52325887972E+02  0.00000000000E+00 0.  1.
        -11    1    4    4    0    0  0.34404820634E+02  0.53212925749E+02 -0.17258505792E+02  0.65674676793E+02  0.00000000000E+00 0. -1.
         11    1    4    4    0    0  0.18815038357E+02 -0.38677188183E+02  0.32201677780E+01  0.43131195609E+02  0.00000000000E+00 0.  1.
          1    1    1    2  501    0 -0.24980896374E+02  0.18767530070E+02  0.75385552213E+02  0.81604208538E+02  0.00000000000E+00 0. -1.
<scales pt_clust_5="13000.00000" pt_clust_6="13000.00000" pt_clust_7="13000.00000" pt_clust_8="13000.00000" pt_clust_9="31.24526"></scales>
<clustering>
<clus scale="   31.245">  2  9  1 -1</clus>
<clus scale="   90.503">  5  6 -1 -1</clus>
<clus scale="   92.725">  7  8 -1 -1</clus>
<clus scale="  101.886">  1  5  2 -1</clus>
<clus scale="   31.245">  2  5  1 -1</clus>
</clustering>
</event>
<event>
 9    1  0.1671478E-005  0.1492154E+03  0.7546771E-02  0.1206810E+00
          3   -1    0    0  502    0 -0.00000000000E+00  0.00000000000E+00  0.59425721459E+03  0.59425721459E+03  0.00000000000E+00 0. -1.
         21   -1    0    0  501  502  0.00000000000E+00 -0.00000000000E+00 -0.42712703418E+02  0.42712703418E+02  0.00000000000E+00 0.  1.
         23    2    1    2    0    0  0.34664894301E+02  0.10221745150E+03  0.27052871566E+03  0.30480053708E+03  0.89819369408E+02 0.  0.
         23    2    1    2    0    0 -0.61110001481E+02 -0.11866435096E+03  0.23548446308E+03  0.27700647284E+03  0.58855697873E+02 0.  0.
        -13    1    3    3    0    0  0.61143607504E+02  0.94270241460E+02  0.20734288100E+03  0.23583148532E+03  0.00000000000E+00 0. -1.
         13    1    3    3    0    0 -0.26478713202E+02  0.79472100401E+01  0.63185834659E+02  0.68969051768E+02  0.00000000000E+00 0.  1.
        -13    1    4    4    0    0 -0.32509025774E+02 -0.10601048454E+03  0.15432621924E+03  0.19003063315E+03  0.00000000000E+00 0.  1.
         13    1    4    4    0    0 -0.28600975707E+02 -0.12653866419E+02  0.81158243836E+02  0.86975839687E+02  0.00000000000E+00 0. -1.
          3    1    1    2  501    0  0.26445107180E+02  0.16446899461E+02  0.45531332428E+02  0.55162908084E+02  0.00000000000E+00 0. -1.
<scales pt_clust_5="13000.00000" pt_clust_6="13000.00000" pt_clust_7="13000.00000" pt_clust_8="13000.00000" pt_clust_9="31.14232"></scales>
<clustering>
<clus scale="   31.142">  2  9  1 -1</clus>
<clus scale="   58.856">  7  8 -1 -1</clus>
<clus scale="   89.819">  5  6 -1 -1</clus>
<clus scale="  132.897">  2  7  1 -1</clus>
<clus scale="   31.142">  2  5  1 -1</clus>
</clustering>
</event>
<event>
 9    1  0.1671478E-005  0.9273516E+02  0.7546771E-02  0.1299200E+00
         21   -1    0    0  501  502  0.00000000000E+00  0.00000000000E+00  0.57555243005E+02  0.57555243005E+02  0.00000000000E+00 0. -1.
          1   -1    0    0  502    0 -0.00000000000E+00 -0.00000000000E+00 -0.37101891304E+03  0.37101891304E+03  0.00000000000E+00 0. -1.
         23    2    1    2    0    0  0.26430446862E+02  0.25273771419E+02 -0.21265216354E+03  0.23243452635E+03  0.86414896514E+02 0.  0.
         23    2    1    2    0    0  0.27507259475E+02  0.18049004300E+02 -0.73776061788E+02  0.12186275354E+03  0.91242575187E+02 0.  0.
        -13    1    3    3    0    0 -0.83572200581E+01 -0.28408128731E+02 -0.75456006538E+02  0.81058459323E+02  0.00000000000E+00 0.  1.
         13    1    3    3    0    0  0.34787666920E+02  0.53681900149E+02 -0.13719615700E+03  0.15137606703E+03  0.00000000000E+00 0. -1.
        -13    1    4    4    0    0  0.13793852055E+02 -0.33317257292E+02 -0.54421466234E+02  0.65284040738E+02  0.00000000000E+00 0.  1.
         13    1    4    4    0    0  0.13713407420E+02  0.51366261592E+02 -0.19354595554E+02  0.56578712800E+02  0.00000000000E+00 0. -1.
          1    1    1    2  501    0 -0.53937706338E+02 -0.43322775719E+02 -0.27035444709E+02  0.74276876156E+02  0.00000000000E+00 0. -1.
<scales pt_clust_5="13000.00000" pt_clust_6="13000.00000" pt_clust_7="13000.00000" pt_clust_8="13000.00000" pt_clust_9="69.18193"></scales>
<clustering>
<clus scale="   69.182">  1  9  2 -1</clus>
<clus scale="   86.415">  5  6 -1 -1</clus>
<clus scale="   87.989">  2  5  1 -1</clus>
<clus scale="   91.243">  7  8 -1 -1</clus>
<clus scale="   69.182">  1  5  2 -1</clus>
</clustering>
</event>
<event>
 9    1  0.1671478E-005  0.1017624E+03  0.7546771E-02  0.1290636E+00
          1   -1    0    0  502    0 -0.00000000000E+00  0.00000000000E+00  0.22213102821E+03  0.22213102821E+03  0.00000000000E+00 0. -1.
         21   -1    0    0  501  502  0.00000000000E+00 -0.00000000000E+00 -0.58108802158E+02  0.58108802158E+02  0.00000000000E+00 0.  1.
         23    2    1    2    0    0  0.47318880115E+02  0.14294226261E+01  0.10867289402E+03  0.15097456844E+03  0.93500816883E+02 0.  0.
         23    2    1    2    0    0 -0.30815655447E+02  0.22683182279E+02  0.62408406109E+02  0.99205244190E+02  0.66953266856E+02 0.  0.
        -11    1    4    4    0    0  0.25941884104E-01  0.30517708629E+02  0.59972953109E+02  0.67291056743E+02  0.00000000000E+00 0. -1.
         11    1    4    4    0    0 -0.30841597331E+02 -0.78345263501E+01  0.24354529997E+01  0.31914187447E+02  0.00000000000E+00 0.  1.
        -13    1    3    3    0    0  0.18693485047E+02  0.41198889629E+02  0.85586117379E+02  0.96807945840E+02  0.00000000000E+00 0. -1.
         13    1    3    3    0    0  0.28625395068E+02 -0.39769467003E+02  0.23086776638E+02  0.54166622601E+02  0.00000000000E+00 0.  1.
          1    1    1    2  501    0 -0.16503224668E+02 -0.24112604905E+02 -0.70590740713E+01  0.30060017739E+02  0.00000000000E+00 0. -1.
<scales pt_clust_5="13000.00000" pt_clust_6="13000.00000" pt_clust_7="13000.00000" pt_clust_8="13000.00000" pt_clust_9="29.21941"></scales>
<clustering>
<clus scale="   29.219">  2  9  1 -1</clus>
<clus scale="   66.953">  5  6 -1 -1</clus>
<clus scale="   78.076">  2  5  1 -1</clus>
<clus scale="   93.501">  7  8 -1 -1</clus>
<clus scale="   29.219">  2  5  1 -1</clus>
</clustering>
</event>
<event>
 9    1  0.1671478E-005  0.1055659E+03  0.7546771E-02  0.1272119E+00
          1   -1    0    0  502    0 -0.00000000000E+00  0.00000000000E+00  0.44547210523E+03  0.44547210523E+03  0.00000000000E+00 0. -1.
         21   -1    0    0  501  502  0.00000000000E+00 -0.00000000000E+00 -0.48528368621E+02  0.48528368621E+02  0.00000000000E+00 0.  1.
         23    2    1    2    0    0  0.25980770792E+01 -0.32467488913E+02  0.27499019032E+03  0.29152160767E+03  0.91128234522E+02 0.  0.
         23    2    1    2    0    0 -0.34490350238E+02  0.57513510398E+02  0.10546708553E+03  0.15870417408E+03  0.97807569257E+02 0.  0.
        -13    1    4    4    0    0 -0.26159645960E+02  0.85485492160E+02  0.80183782182E+02  0.12008969719E+03  0.00000000000E+00 0.  1.
         13    1    4    4    0    0 -0.83307042785E+01 -0.27971981763E+02  0.25283303346E+02  0.38614476892E+02  0.00000000000E+00 0. -1.
        -13    1    3    3    0    0  0.34502696405E+02 -0.24769616585E+02  0.23927969943E+03  0.24302004963E+03  0.00000000000E+00 0. -1.
         13    1    3    3    0    0 -0.31904619325E+02 -0.76978723276E+01  0.35710490895E+02  0.48501558043E+02  0.00000000000E+00 0.  1.
          1    1    1    2  501    0  0.31892273159E+02 -0.25046021485E+02  0.16486460758E+02  0.43774692093E+02  0.00000000000E+00 0. -1.
<scales pt_clust_5="13000.00000" pt_clust_6="13000.00000" pt_clust_7="13000.00000" pt_clust_8="13000.00000" pt_clust_9="40.55145"></scales>
<clustering>
<clus scale="   40.551">  2  9  1 -1</clus>
<clus scale="   91.128">  7  8 -1 -1</clus>
<clus scale="   97.808">  5  6 -1 -1</clus>
<clus scale="   99.409">  1  7  2 -1</clus>
<clus scale="   40.551">  2  5  1 -1</clus>
</clustering>
</event>
<event>
 9    1  0.1671478E-005  0.1111769E+03  0.7546771E-02  0.1259177E+00
          4   -1    0    0  502    0 -0.00000000000E+00  0.00000000000E+00  0.62886862304E+03  0.62886862304E+03  0.00000000000E+00 0. -1.
         21   -1    0    0  501  502  0.00000000000E+00 -0.00000000000E+00 -0.32934393796E+02  0.32934393796E+02  0.00000000000E+00 0.  1.
         23    2    1    2    0    0 -0.39647906807E+02 -0.36618117955E+02  0.28847718197E+03  0.30653557579E+03  0.88499331251E+02 0.  0.
         23    2    1    2    0    0  0.64985030959E+02  0.43191821367E+02  0.30659613895E+03  0.32907727877E+03  0.90565309601E+02 0.  0.
        -11    1    4    4    0    0  0.17846716159E+02  0.63700646546E+02  0.20151653293E+03  0.21209712561E+03  0.00000000000E+00 0.  1.
         11    1    4    4    0    0  0.47138314801E+02 -0.20508825179E+02  0.10507960602E+03  0.11698015317E+03  0.00000000000E+00 0. -1.
        -13    1    3    3    0    0 -0.14967324411E+02  0.24319370508E+02  0.15655722957E+03  0.15914024857E+03  0.00000000000E+00 0.  1.
         13    1    3    3    0    0 -0.24680582395E+02 -0.60937488463E+02  0.13191995239E+03  0.14739532722E+03  0.00000000000E+00 0. -1.
          4    1    1    2  501    0 -0.25337124153E+02 -0.65737034120E+01  0.86090832749E+00  0.26190162276E+02  0.00000000000E+00 0. -1.
<scales pt_clust_5="13000.00000" pt_clust_6="13000.00000" pt_clust_7="13000.00000" pt_clust_8="13000.00000" pt_clust_9="26.17601"></scales>
<clustering>
<clus scale="   26.176">  2  9  1 -1</clus>
<clus scale="   88.499">  7  8 -1 -1</clus>
<clus scale="   90.565">  5  6 -1 -1</clus>
<clus scale="  109.500">  1  7  2 -1</clus>
<clus scale="   26.176">  2  5  1 -1</clus>
</clustering>
</event>
<event>
 9    1  0.1671478E-005  0.9974084E+02  0.7546771E-02  0.1284328E+00
         21   -1    0    0  501  502  0.00000000000E+00  0.00000000000E+00  0.28060925094E+03  0.28060925094E+03  0.00000000000E+00 0. -1.
          3   -1    0    0  502    0 -0.00000000000E+00 -0.00000000000E+00 -0.52707581111E+02  0.52707581111E+02  0.00000000000E+00 0. -1.
         23    2    1    2    0    0  0.93453854427E+01  0.24414647284E+02  0.30367112429E+02  0.99829955463E+02  0.91435481403E+02 0.  0.
         23    2    1    2    0    0 -0.26874290161E+01  0.12329358859E+01  0.15616712606E+03  0.18436059766E+03  0.97938329064E+02 0.  0.
        -11    1    4    4    0    0 -0.37888143524E+02 -0.49042921036E+01  0.14004058006E+03  0.14515828452E+03  0.00000000000E+00 0. -1.
         11    1    4    4    0    0  0.35200714508E+02  0.61372279895E+01  0.16126546000E+02  0.39202313135E+02  0.00000000000E+00 0.  1.
        -13    1    3    3    0    0 -0.19776131554E+02  0.34265290062E+02  0.49692308826E+02  0.63517958395E+02  0.00000000000E+00 0.  1.
         13    1    3    3    0    0  0.29121516996E+02 -0.98506427789E+01 -0.19325196396E+02  0.36311997068E+02  0.00000000000E+00 0. -1.
          3    1    1    2  501    0 -0.66579564266E+01 -0.25647583169E+02  0.41367431338E+02  0.49126278933E+02  0.00000000000E+00 0. -1.
<scales pt_clust_5="13000.00000" pt_clust_6="13000.00000" pt_clust_7="13000.00000" pt_clust_8="13000.00000" pt_clust_9="26.49768"></scales>
<clustering>
<clus scale="   26.498">  1  9  2 -1</clus>
<clus scale="   91.435">  7  8 -1 -1</clus>
<clus scale="   93.364">  2  7  1 -1</clus>
<clus scale="   97.938">  5  6 -1 -1</clus>
<clus scale="   26.498">  1  5  2 -1</clus>
</clustering>
</event>
<event>
 9    1  0.1671478E-005  0.9252517E+02  0.7546771E-02  0.1297360E+00
         -3   -1    0    0    0  501 -0.00000000000E+00  0.00000000000E+00  0.11011353065E+03  0.11011353065E+03  0.00000000000E+00 0.  1.
         21   -1    0    0  501  502  0.00000000000E+00 -0.00000000000E+00 -0.13724990317E+03  0.13724990317E+03  0.00000000000E+00 0.  1.
         23    2    1    2    0    0 -0.13764569919E+02  0.11289038883E+02  0.39951205369E+02  0.10084506826E+03  0.90866513068E+02 0.  0.
         23    2    1    2    0    0  0.70816539294E+01  0.11542910881E+02 -0.21654884550E+02  0.95233972997E+02  0.91745228616E+02 0.  0.
        -11    1    3    3    0    0 -0.52192556150E+02  0.55585316259E+01  0.31055046520E+02  0.60986687939E+02  0.00000000000E+00 0.  1.
         11    1    3    3    0    0  0.38427986232E+02  0.57305072568E+01  0.88961588490E+01  0.39858380317E+02  0.00000000000E+00 0. -1.
        -13    1    4    4    0    0 -0.22581530394E+02  0.48547254799E+01 -0.49106802146E+02  0.54267595224E+02  0.00000000000E+00 0. -1.
         13    1    4    4    0    0  0.29663184323E+02  0.66881854015E+01  0.27451917595E+02  0.40966377773E+02  0.00000000000E+00 0.  1.
         -3    1    1    2    0  502  0.66829159893E+01 -0.22831949764E+02 -0.45432693342E+02  0.51284392562E+02  0.00000000000E+00 0.  1.
<scales pt_clust_5="13000.00000" pt_clust_6="13000.00000" pt_clust_7="13000.00000" pt_clust_8="13000.00000" pt_clust_9="23.78990"></scales>
<clustering>
<clus scale="   23.790">  2  9  1 -1</clus>
<clus scale="   90.867">  5  6 -1 -1</clus>
<clus scale="   91.654">  1  5  2 -1</clus>
<clus scale="   91.745">  7  8 -1 -1</clus>
<clus scale="   23.790">  2  5  1 -1</clus>
</clustering>
</event>
<event>
 9    1  0.1671478E-005  0.1557898E+03  0.7546771E-02  0.1195825E+00
         21   -1    0    0  501  502  0.00000000000E+00  0.00000000000E+00  0.54679814094E+03  0.54679814094E+03  0.00000000000E+00 0.  1.
          2   -1    0    0  502    0 -0.00000000000E+00 -0.00000000000E+00 -0.79070846273E+02  0.79070846273E+02  0.00000000000E+00 0. -1.
         23    2    1    2    0    0 -0.68182709467E+02 -0.85695971955E+02  0.75591157771E+02  0.16016667274E+03  0.89144032013E+02 0.  0.
         23    2    1    2    0    0  0.11401980854E+03  0.97205017451E+02  0.37333006752E+03  0.41483812251E+03  0.10132125349E+03 0.  0.
        -11    1    3    3    0    0 -0.41041438659E+02 -0.42687657365E+02  0.89614584799E+02  0.10741233443E+03  0.00000000000E+00 0.  1.
         11    1    3    3    0    0 -0.27141270808E+02 -0.43008314590E+02 -0.14023427029E+02  0.52754338311E+02  0.00000000000E+00 0. -1.
        -13    1    4    4    0    0  0.33153702585E+02  0.93261024262E+02  0.18422834718E+03  0.20913361888E+03  0.00000000000E+00 0. -1.
         13    1    4    4    0    0  0.80866105952E+02  0.39439931890E+01  0.18910172034E+03  0.20570450362E+03  0.00000000000E+00 0.  1.
          2    1    1    2  501    0 -0.45837099070E+02 -0.11509045496E+02  0.18806069371E+02  0.50864191969E+02  0.00000000000E+00 0. -1.
<scales pt_clust_5="13000.00000" pt_clust_6="13000.00000" pt_clust_7="13000.00000" pt_clust_8="13000.00000" pt_clust_9="47.25992"></scales>
<clustering>
<clus scale="   47.260">  1  9  2 -1</clus>
<clus scale="   89.144">  5  6 -1 -1</clus>
<clus scale="  101.321">  7  8 -1 -1</clus>
<clus scale="  148.159">  2  5  1 -1</clus>
<clus scale="   47.260">  1  5  2 -1</clus>
</clustering>
</event>
<event>
 9    1  0.1671478E-005  0.1016288E+03  0.7546771E-02  0.1277279E+00
         -1   -1    0    0    0  501 -0.00000000000E+00  0.00000000000E+00  0.16283836391E+03  0.16283836391E+03  0.00000000000E+00 0.  1.
         21   -1    0    0  501  502  0.00000000000E+00 -0.00000000000E+00 -0.17452368406E+03  0.17452368406E+03  0.00000000000E+00 0. -1.
         23    2    1    2    0    0 -0.32474898273E+02  0.35634160030E+02  0.90266054377E+02  0.13811325526E+03  0.92751810370E+02 0.  0.
         23    2    1    2    0    0  0.28561110177E+02 -0.10288070043E+02 -0.28532788792E+01  0.96885837622E+02  0.91962725773E+02 0.  0.
        -11    1    3    3    0    0 -0.18397868649E+02 -0.10659160324E+02  0.87062184304E+02  0.89620997570E+02  0.00000000000E+00 0.  1.
         11    1    3    3    0    0 -0.14077029625E+02  0.46293320354E+02  0.32038700732E+01  0.48492257690E+02  0.00000000000E+00 0. -1.
        -11    1    4    4    0    0  0.88533286657E-01  0.29167099910E+02  0.27046354475E+02  0.39777290578E+02  0.00000000000E+00 0.  1.
         11    1    4    4    0    0  0.28472576890E+02 -0.39455169953E+02 -0.29899633354E+02  0.57108547044E+02  0.00000000000E+00 0. -1.
         -1    1    1    2    0  502  0.39137880967E+01 -0.25346089987E+02 -0.99098095641E+02  0.10236295509E+03  0.00000000000E+00 0.  1.
<scales pt_clust_5="13000.00000" pt_clust_6="13000.00000" pt_clust_7="13000.00000" pt_clust_8="13000.00000" pt_clust_9="25.64648"></scales>
<clustering>
<clus scale="   25.646">  2  9  1 -1</clus>
<clus scale="   91.963">  7  8 -1 -1</clus>
<clus scale="   92.752">  5  6 -1 -1</clus>
<clus scale="  100.909">  2  7  1 -1</clus>
<clus scale="   25.646">  2  5  1 -1</clus>
</clustering>
</event>
<event>
 9    1  0.1671478E-005  0.2806435E+03  0.7546771E-02  0.1112593E+00
          1   -1    0    0  502    0 -0.00000000000E+00  0.00000000000E+00  0.37160696914E+03  0.37160696914E+03  0.00000000000E+00 0. -1.
         21   -1    0    0  501  502  0.00000000000E+00 -0.00000000000E+00 -0.86106551335E+03  0.86106551335E+03  0.00000000000E+00 0. -1.
         23    2    1    2    0    0  0.63748604280E+02 -0.14091888101E+03  0.73972538478E+02  0.19455009773E+03  0.91955361496E+02 0.  0.
         23    2    1    2    0    0 -0.28087426923E+03 -0.16626864640E+02  0.10814493484E+03  0.31494981637E+03  0.91275693123E+02 0.  0.
        -11    1    4    4    0    0 -0.33197341505E+02 -0.33993923504E+02  0.17657501747E+02  0.50689621089E+02  0.00000000000E+00 0.  1.
         11    1    4    4    0    0 -0.24767692772E+03  0.17367058864E+02  0.90487433089E+02  0.26426019528E+03  0.00000000000E+00 0. -1.
        -13    1    3    3    0    0  0.59393932483E+02 -0.42804905387E+02  0.28055296574E+01  0.73265067649E+02  0.00000000000E+00 0.  1.
         13    1    3    3    0    0  0.43546717970E+01 -0.98113975619E+02  0.71167008821E+02  0.12128503008E+03  0.00000000000E+00 0. -1.
          1    1    1    2  501    0  0.21712566495E+03  0.15754574565E+03 -0.67157601753E+03  0.72317256839E+03  0.00000000000E+00 0. -1.
<scales pt_clust_5="13000.00000" pt_clust_6="13000.00000" pt_clust_7="13000.00000" pt_clust_8="13000.00000" pt_clust_9="265.38562"></scales>
<clustering>
<clus scale="   91.276">  5  6 -1 -1</clus>
<clus scale="   91.955">  7  8 -1 -1</clus>
<clus scale="  179.938">  1  7  2 -1</clus>
<clus scale="  265.386">  2  9  1 -1</clus>
<clus scale="  265.386">  2  5  1 -1</clus>
</clustering>
</event>
<event>
 9    1  0.1671478E-005  0.1231780E+03  0.7546771E-02  0.1250407E+00
         21   -1    0    0  501  502  0.00000000000E+00  0.00000000000E+00  0.25749955496E+03  0.25749955496E+03  0.00000000000E+00 0. -1.
          1   -1    0    0  502    0 -0.00000000000E+00 -0.00000000000E+00 -0.12854687952E+03  0.12854687952E+03  0.00000000000E+00 0. -1.
         23    2    1    2    0    0 -0.19074010734E+01  0.29920806540E+02  0.27612164788E+02  0.99699800858E+02  0.90987503559E+02 0.  0.
         23    2    1    2    0    0  0.49079682485E+02  0.59443918778E+02  0.13454387144E+03  0.17998056088E+03  0.91370423223E+02 0.  0.
        -13    1    4    4    0    0 -0.17937685603E+02  0.45907497509E+02  0.72422334932E+02  0.87602816674E+02  0.00000000000E+00 0.  1.
         13    1    4    4    0    0  0.67017368088E+02  0.13536421269E+02  0.62121536504E+02  0.92377744202E+02  0.00000000000E+00 0. -1.
        -13    1    3    3    0    0 -0.15647639314E+02 -0.24727898602E+02  0.31774766722E+02  0.43196682577E+02  0.00000000000E+00 0.  1.
         13    1    3    3    0    0  0.13740238241E+02  0.54648705142E+02 -0.41626019342E+01  0.56503118281E+02  0.00000000000E+00 0. -1.
          1    1    1    2  501    0 -0.47172281412E+02 -0.89364725318E+02 -0.33203360780E+02  0.10636607275E+03  0.00000000000E+00 0. -1.
<scales pt_clust_5="13000.00000" pt_clust_6="13000.00000" pt_clust_7="13000.00000" pt_clust_8="13000.00000" pt_clust_9="82.60917"></scales>
<clustering>
<clus scale="   90.988">  7  8 -1 -1</clus>
<clus scale="   91.370">  5  6 -1 -1</clus>
<clus scale="   95.800">  2  7  1 -1</clus>
<clus scale="   82.609">  1  9  2 -1</clus>
<clus scale="   82.609">  1  5  2 -1</clus>
</clustering>
</event>
<event>
 9    1  0.1671478E-005  0.1436745E+03  0.7546771E-02  0.1227337E+00
          1   -1    0    0  502    0 -0.00000000000E+00  0.00000000000E+00  0.31835394761E+03  0.31835394761E+03  0.00000000000E+00 0. -1.
         21   -1    0    0  501  502  0.00000000000E+00 -0.00000000000E+00 -0.24586893216E+03  0.24586893216E+03  0.00000000000E+00 0. -1.
         23    2    1    2    0    0  0.12067486814E+02 -0.22182136575E+02  0.20849658992E+03  0.22976192300E+03  0.93177474923E+02 0.  0.
         23    2    1    2    0    0 -0.10523455232E+03  0.77156695007E+02  0.29513600908E+01  0.15835587067E+03  0.89668303549E+02 0.  0.
        -13    1    3    3    0    0 -0.27581042230E+02  0.22988487536E+02  0.89902023831E+02  0.96806809361E+02  0.00000000000E+00 0.  1.
         13    1    3    3    0    0  0.39648529044E+02 -0.45170624111E+02  0.11859456608E+03  0.13295511364E+03  0.00000000000E+00 0. -1.
        -13    1    4    4    0    0 -0.25506328275E+02 -0.13877382010E+02  0.21231710032E+02  0.35971377850E+02  0.00000000000E+00 0.  1.
         13    1    4    4    0    0 -0.79728224046E+02  0.91034077017E+02 -0.18280349941E+02  0.12238449282E+03  0.00000000000E+00 0. -1.
          1    1    1    2  501    0  0.93167065508E+02 -0.54974558432E+02 -0.13896293456E+03  0.17610508610E+03  0.00000000000E+00 0. -1.
<scales pt_clust_5="13000.00000" pt_clust_6="13000.00000" pt_clust_7="13000.00000" pt_clust_8="13000.00000" pt_clust_9="112.25846"></scales>
<clustering>
<clus scale="   89.668">  7  8 -1 -1</clus>
<clus scale="   93.177">  5  6 -1 -1</clus>
<clus scale="   96.539">  1  5  2 -1</clus>
<clus scale="  112.258">  2  9  1 -1</clus>
<clus scale="  112.258">  2  5  1 -1</clus>
</clustering>
</event>
<event>
 9    1  0.1671478E-005  0.9963666E+02  0.7546771E-02  0.1282529E+00
          1   -1    0    0  502    0 -0.00000000000E+00  0.00000000000E+00  0.35991955637E+03  0.35991955637E+03  0.00000000000E+00 0. -1.
         21   -1    0    0  501  502  0.00000000000E+00 -0.00000000000E+00 -0.39261338490E+02  0.39261338490E+02  0.00000000000E+00 0.  1.
         23    2    1    2    0    0  0.27987044310E+02 -0.43233043375E+02  0.21369943012E+03  0.23619572561E+03  0.86421083514E+02 0.  0.
         23    2    1    2    0    0 -0.26560389414E+02  0.18650269028E+02  0.98437708675E+02  0.13692836730E+03  0.89476859928E+02 0.  0.
        -13    1    4    4    0    0 -0.19022130087E+02 -0.14653837727E+02 -0.78719015391E+01  0.25269412874E+02  0.00000000000E+00 0. -1.
         13    1    4    4    0    0 -0.75382593271E+01  0.33304106754E+02  0.10630961021E+03  0.11165895443E+03  0.00000000000E+00 0.  1.
        -13    1    3    3    0    0  0.46519266200E+02 -0.31656237713E+02  0.20515827454E+03  0.21273475769E+03  0.00000000000E+00 0. -1.
         13    1    3    3    0    0 -0.18532221889E+02 -0.11576805661E+02  0.85411555748E+01  0.23460967926E+02  0.00000000000E+00 0.  1.
          1    1    1    2  501    0 -0.14266548967E+01  0.24582774347E+02  0.85210790877E+01  0.26056801945E+02  0.00000000000E+00 0. -1.
<scales pt_clust_5="13000.00000" pt_clust_6="13000.00000" pt_clust_7="13000.00000" pt_clust_8="13000.00000" pt_clust_9="24.62414"></scales>
<clustering>
<clus scale="   24.624">  2  9  1 -1</clus>
<clus scale="   86.421">  7  8 -1 -1</clus>
<clus scale="   89.477">  5  6 -1 -1</clus>
<clus scale="   96.902">  1  7  2 -1</clus>
<clus scale="   24.624">  2  5  1 -1</clus>
</clustering>
</event>
<event>
 9    1  0.1671478E-005  0.2217985E+03  0.7546771E-02  0.1132568E+00
         21   -1    0    0  501  502  0.00000000000E+00  0.00000000000E+00  0.16079739791E+03  0.16079739791E+03  0.00000000000E+00 0. -1.
          1   -1    0    0  502    0 -0.00000000000E+00 -0.00000000000E+00 -0.15221311781E+04  0.15221311781E+04  0.00000000000E+00 0. -1.
         23    2    1    2    0    0 -0.19057773369E+03  0.56701319296E+01 -0.70896781279E+03  0.73997411765E+03  0.92597582307E+02 0.  0.
         23    2    1    2    0    0  0.21311265320E+03  0.29642315545E+02 -0.77697708383E+03  0.81149069201E+03  0.92347629073E+02 0.  0.
        -11    1    4    4    0    0  0.16616282631E+03 -0.15409937491E+02 -0.50585008632E+03  0.53266486730E+03  0.00000000000E+00 0. -1.
         11    1    4    4    0    0  0.46949826892E+02  0.45052253035E+02 -0.27112699751E+03  0.27882582471E+03  0.00000000000E+00 0.  1.
        -13    1    3    3    0    0 -0.18877764124E+03  0.25849059862E+02 -0.66072537695E+03  0.68765048933E+03  0.00000000000E+00 0.  1.
         13    1    3    3    0    0 -0.18000924529E+01 -0.20178927932E+02 -0.48242435838E+02  0.52323628323E+02  0.00000000000E+00 0. -1.
          1    1    1    2  501    0 -0.22534919511E+02 -0.35312447474E+02  0.12461111639E+03  0.13146376638E+03  0.00000000000E+00 0. -1.
<scales pt_clust_5="13000.00000" pt_clust_6="13000.00000" pt_clust_7="13000.00000" pt_clust_8="13000.00000" pt_clust_9="41.89023"></scales>
<clustering>
<clus scale="   41.890">  1  9  2 -1</clus>
<clus scale="   92.348">  5  6 -1 -1</clus>
<clus scale="   92.598">  7  8 -1 -1</clus>
<clus scale="  221.694">  1  5  2 -1</clus>
<clus scale="   41.890">  1  5  2 -1</clus>
</clustering>
</event>
<event>
 9    1  0.1671478E-005  0.1004695E+03  0.7546771E-02  0.1281467E+00
         -4   -1    0    0    0  501 -0.00000000000E+00  0.00000000000E+00  0.21825006455E+03  0.21825006455E+03  0.00000000000E+00 0.  1.
         21   -1    0    0  501  502  0.00000000000E+00 -0.00000000000E+00 -0.85842775199E+02  0.85842775199E+02  0.00000000000E+00 0.  1.
         23    2    1    2    0    0 -0.73401421029E+01 -0.50073326487E+02  0.89142015662E+02  0.13574997301E+03  0.88997418523E+02 0.  0.
         23    2    1    2    0    0 -0.33089900504E+02  0.17254029732E+02  0.55516430641E+02  0.11484720868E+03  0.93355043860E+02 0.  0.
        -11    1    3    3    0    0  0.32614329687E+02 -0.29333967717E+02  0.10451971393E+02  0.45093457053E+02  0.00000000000E+00 0. -1.
         11    1    3    3    0    0 -0.39954471789E+02 -0.20739358769E+02  0.78690044268E+02  0.90656515955E+02  0.00000000000E+00 0.  1.
        -13    1    4    4    0    0 -0.50375378251E+02 -0.19416392502E+02  0.11868961500E+02  0.55277004973E+02  0.00000000000E+00 0.  1.
         13    1    4    4    0    0  0.17285477747E+02  0.36670422234E+02  0.43647469140E+02  0.59570203711E+02  0.00000000000E+00 0. -1.
         -4    1    1    2    0  502  0.40430042607E+02  0.32819296754E+02 -0.12251156948E+02  0.53495658060E+02  0.00000000000E+00 0.  1.
<scales pt_clust_5="13000.00000" pt_clust_6="13000.00000" pt_clust_7="13000.00000" pt_clust_8="13000.00000" pt_clust_9="52.07393"></scales>
<clustering>
<clus scale="   52.074">  2  9  1 -1</clus>
<clus scale="   88.997">  5  6 -1 -1</clus>
<clus scale="   93.355">  7  8 -1 -1</clus>
<clus scale="   96.434">  1  5  2 -1</clus>
<clus scale="   52.074">  2  5  1 -1</clus>
</clustering>
</event>
<event>
 9    1  0.1671478E-005  0.1187689E+03  0.7546771E-02  0.1245851E+00
         21   -1    0    0  501  502  0.00000000000E+00  0.00000000000E+00  0.42258856647E+03  0.42258856647E+03  0.00000000000E+00 0. -1.
         -1   -1    0    0    0  501 -0.00000000000E+00 -0.00000000000E+00 -0.64770459340E+02  0.64770459340E+02  0.00000000000E+00 0.  1.
         23    2    1    2    0    0 -0.70403057674E+01  0.67036851081E+02  0.59272698981E+02  0.12601862479E+03  0.88453013750E+02 0.  0.
         23    2    1    2    0    0 -0.21874654635E+02 -0.91566688313E+02  0.11554885270E+03  0.17445667472E+03  0.90667717903E+02 0.  0.
        -11    1    3    3    0    0 -0.25276104776E+02  0.18456185925E+02  0.66625027578E+02  0.73609826595E+02  0.00000000000E+00 0.  1.
         11    1    3    3    0    0  0.18235799009E+02  0.48580665156E+02 -0.73523285978E+01  0.52408798196E+02  0.00000000000E+00 0. -1.
        -13    1    4    4    0    0 -0.33526551155E+02 -0.54151380465E+02  0.11914977922E+03  0.13510392862E+03  0.00000000000E+00 0. -1.
         13    1    4    4    0    0  0.11651896520E+02 -0.37415307848E+02 -0.36009265249E+01  0.39352746102E+02  0.00000000000E+00 0.  1.
         -1    1    1    2    0  502  0.28914960403E+02  0.24529837232E+02  0.18299655545E+03  0.18688372631E+03  0.00000000000E+00 0.  1.
<scales pt_clust_5="13000.00000" pt_clust_6="13000.00000" pt_clust_7="13000.00000" pt_clust_8="13000.00000" pt_clust_9="37.91817"></scales>
<clustering>
<clus scale="   37.918">  1  9  2 -1</clus>
<clus scale="   88.453">  5  6 -1 -1</clus>
<clus scale="   90.668">  7  8 -1 -1</clus>
<clus scale="  117.087">  2  5  1 -1</clus>
<clus scale="   37.918">  1  5  2 -1</clus>
</clustering>
</event>
<event>
 9    1  0.1671478E-005  0.1060800E+03  0.7546771E-02  0.1268266E+00
          3   -1    0    0  502    0 -0.00000000000E+00  0.00000000000E+00  0.96619375332E+03  0.96619375332E+03  0.00000000000E+00 0. -1.
         21   -1    0    0  501  502  0.00000000000E+00 -0.00000000000E+00 -0.19077355513E+02  0.19077355513E+02  0.00000000000E+00 0. -1.
         23    2    1    2    0    0  0.50819188771E+02 -0.32754721765E+02  0.57706245000E+03  0.58708904280E+03  0.89537764276E+02 0.  0.
         23    2    1    2    0    0 -0.16836404239E+02  0.53583832286E+02  0.28781267743E+03  0.30679110344E+03  0.90166247972E+02 0.  0.
        -11    1    4    4    0    0 -0.52830201832E+02  0.30886248318E+02  0.20101434964E+03  0.21012320034E+03  0.00000000000E+00 0.  1.
         11    1    4    4    0    0  0.35993797593E+02  0.22697583967E+02  0.86798327784E+02  0.96667903097E+02  0.00000000000E+00 0. -1.
        -13    1    3    3    0    0  0.43483092164E+02  0.24316098881E+02  0.23527731010E+03  0.24049420911E+03  0.00000000000E+00 0. -1.
         13    1    3    3    0    0  0.73360966067E+01 -0.57070820646E+02  0.34178513990E+03  0.34659483369E+03  0.00000000000E+00 0.  1.
          3    1    1    2  501    0 -0.33982784532E+02 -0.20829110521E+02  0.82241270385E+02  0.91390962596E+02  0.00000000000E+00 0. -1.
<scales pt_clust_5="13000.00000" pt_clust_6="13000.00000" pt_clust_7="13000.00000" pt_clust_8="13000.00000" pt_clust_9="39.85827"></scales>
<clustering>
<clus scale="   39.858">  2  9  1 -1</clus>
<clus scale="   89.538">  7  8 -1 -1</clus>
<clus scale="   90.166">  5  6 -1 -1</clus>
<clus scale="  105.546">  1  7  2 -1</clus>
<clus scale="   39.858">  2  5  1 -1</clus>
</clustering>
</event>
<event>
 9    1  0.1671478E-005  0.1219264E+03  0.7546771E-02  0.1248816E+00
         21   -1    0    0  501  502  0.00000000000E+00  0.00000000000E+00  0.70382228121E+02  0.70382228121E+02  0.00000000000E+00 0.  1.
          2   -1    0    0  502    0 -0.00000000000E+00 -0.00000000000E+00 -0.35709973134E+03  0.35709973134E+03  0.00000000000E+00 0. -1.
         23    2    1    2    0    0  0.40805723630E+02 -0.48771040229E+02 -0.23365490731E+03  0.25677205621E+03  0.85402293261E+02 0.  0.
         23    2    1    2    0    0 -0.19801399512E+02  0.28435361167E+02 -0.73071279516E+02  0.13528295173E+03  0.10844998825E+03 0.  0.
        -11    1    4    4    0    0 -0.45019954619E+02 -0.19692700251E+02 -0.63205544341E+02  0.80059600253E+02  0.00000000000E+00 0. -1.
         11    1    4    4    0    0  0.25218555107E+02  0.48128061418E+02 -0.98657351744E+01  0.55223351475E+02  0.00000000000E+00 0.  1.
        -11    1    3    3    0    0 -0.63849889024E+01 -0.53357819875E+02 -0.16344282427E+03  0.17205052116E+03  0.00000000000E+00 0. -1.
         11    1    3    3    0    0  0.47190712533E+02  0.45867796459E+01 -0.70212083038E+02  0.84721535051E+02  0.00000000000E+00 0.  1.
          2    1    1    2  501    0 -0.21004324118E+02  0.20335679062E+02  0.20008683607E+02  0.35426951523E+02  0.00000000000E+00 0. -1.
<scales pt_clust_5="13000.00000" pt_clust_6="13000.00000" pt_clust_7="13000.00000" pt_clust_8="13000.00000" pt_clust_9="29.23562"></scales>
<clustering>
<clus scale="   29.236">  1  9  2 -1</clus>
<clus scale="   85.402">  7  8 -1 -1</clus>
<clus scale="  101.972">  2  7  1 -1</clus>
<clus scale="  108.450">  5  6 -1 -1</clus>
<clus scale="   29.236">  1  5  2 -1</clus>
</clustering>
</event>
<event>
 9    1  0.1671478E-005  0.1742912E+03  0.7546771E-02  0.1192151E+00
          1   -1    0    0  502    0 -0.00000000000E+00  0.00000000000E+00  0.16825446084E+03  0.16825446084E+03  0.00000000000E+00 0. -1.
         21   -1    0    0  501  502  0.00000000000E+00 -0.00000000000E+00 -0.32403752756E+03  0.32403752756E+03  0.00000000000E+00 0. -1.
         23    2    1    2    0    0  0.55495692606E+02  0.46916618006E+02  0.13330241703E+02  0.11546473305E+03  0.88732566130E+02 0.  0.
         23    2    1    2    0    0 -0.14124039380E+03 -0.13298146555E+03 -0.10611530676E+03  0.23997675305E+03  0.93249475352E+02 0.  0.
        -11    1    3    3    0    0  0.76867018633E+02  0.47842515821E+02  0.54024668523E+00  0.90541353757E+02  0.00000000000E+00 0. -1.
         11    1    3    3    0    0 -0.21371326027E+02 -0.92589781558E+00  0.12789995017E+02  0.24923379295E+02  0.00000000000E+00 0.  1.
        -13    1    4    4    0    0 -0.12653268778E+03 -0.10463910716E+03 -0.43767492736E+02  0.16992780010E+03  0.00000000000E+00 0. -1.
         13    1    4    4    0    0 -0.14707706011E+02 -0.28342358390E+02 -0.62347814028E+02  0.70048952949E+02  0.00000000000E+00 0.  1.
          1    1    1    2  501    0  0.85744701189E+02  0.86064847548E+02 -0.62998001662E+02  0.13685050230E+03  0.00000000000E+00 0. -1.
<scales pt_clust_5="13000.00000" pt_clust_6="13000.00000" pt_clust_7="13000.00000" pt_clust_8="13000.00000" pt_clust_9="147.24795"></scales>
<clustering>
<clus scale="   88.733">  5  6 -1 -1</clus>
<clus scale="   93.249">  7  8 -1 -1</clus>
<clus scale="  114.693">  1  5  2 -1</clus>
<clus scale="  147.248">  2  9  1 -1</clus>
<clus scale="  147.248">  2  5  1 -1</clus>
</clustering>
</event>
<event>
 9    1  0.1671478E-005  0.1839437E+03  0.7546771E-02  0.1164089E+00
         -1   -1    0    0    0  501 -0.00000000000E+00  0.00000000000E+00  0.19747182136E+03  0.19747182136E+03  0.00000000000E+00 0.  1.
         21   -1    0    0  501  502  0.00000000000E+00 -0.00000000000E+00 -0.52700561492E+03  0.52700561492E+03  0.00000000000E+00 0.  1.
         23    2    1    2    0    0 -0.15949023125E+03  0.94379592232E+02  0.85575331548E+02  0.22369810675E+03  0.91504449628E+02 0.  0.
         23    2    1    2    0    0  0.40968647804E+02 -0.10547787079E+03 -0.14506952051E+03  0.20566591815E+03  0.91920034699E+02 0.  0.
        -11    1    4    4    0    0  0.58993794563E+02 -0.29427299371E+02 -0.82130716117E+02  0.10531708444E+03  0.00000000000E+00 0. -1.
         11    1    4    4    0    0 -0.18025146759E+02 -0.76050571418E+02 -0.62938804396E+02  0.10034883371E+03  0.00000000000E+00 0.  1.
        -13    1    3    3    0    0 -0.11380033179E+03  0.11012040545E+03  0.65534642185E+02  0.17138205431E+03  0.00000000000E+00 0.  1.
         13    1    3    3    0    0 -0.45689899452E+02 -0.15740813221E+02  0.20040689363E+02  0.52316052440E+02  0.00000000000E+00 0. -1.
         -1    1    1    2    0  502  0.11852158344E+03  0.11098278558E+02 -0.27003960459E+03  0.29511341138E+03  0.00000000000E+00 0.  1.
<scales pt_clust_5="13000.00000" pt_clust_6="13000.00000" pt_clust_7="13000.00000" pt_clust_8="13000.00000" pt_clust_9="119.04007"></scales>
<clustering>
<clus scale="   91.504">  7  8 -1 -1</clus>
<clus scale="   91.920">  5  6 -1 -1</clus>
<clus scale="  119.040">  2  9  1 -1</clus>
<clus scale="  183.736">  1  7  2 -1</clus>
<clus scale="  119.040">  2  5  1 -1</clus>
</clustering>
</event>
<event>
 9    1  0.1671478E-005  0.9857506E+02  0.7546771E-02  0.1283849E+00
          2   -1    0    0  502    0 -0.00000000000E+00  0.00000000000E+00  0.15619440655E+03  0.15619440655E+03  0.00000000000E+00 0. -1.
         21   -1    0    0  501  502  0.00000000000E+00 -0.00000000000E+00 -0.95733250956E+02  0.95733250956E+02  0.00000000000E+00 0.  1.
         23    2    1    2    0    0  0.14084896690E+02  0.24128645512E+02  0.63618506934E+02  0.11489926570E+03  0.91509294528E+02 0.  0.
         23    2    1    2    0    0  0.26496072438E+01 -0.50172005571E+02  0.34806436798E+01  0.10536827173E+03  0.92553267071E+02 0.  0.
        -11    1    4    4    0    0 -0.39321389287E+02 -0.49641953788E+02  0.14591543221E+01  0.63345278930E+02  0.00000000000E+00 0.  1.
         11    1    4    4    0    0  0.41970996531E+02 -0.53005178260E+00  0.20214893578E+01  0.42022992801E+02  0.00000000000E+00 0. -1.
        -11    1    3    3    0    0 -0.19544424136E+02 -0.27291844640E+02  0.29100158954E+02  0.44425764482E+02  0.00000000000E+00 0.  1.
         11    1    3    3    0    0  0.33629320826E+02  0.51420490153E+02  0.34518347980E+02  0.70473501219E+02  0.00000000000E+00 0. -1.
          2    1    1    2  501    0 -0.16734503934E+02  0.26043360058E+02 -0.66379950223E+01  0.31660120072E+02  0.00000000000E+00 0. -1.
<scales pt_clust_5="13000.00000" pt_clust_6="13000.00000" pt_clust_7="13000.00000" pt_clust_8="13000.00000" pt_clust_9="30.95642"></scales>
<clustering>
<clus scale="   30.956">  2  9  1 -1</clus>
<clus scale="   91.509">  7  8 -1 -1</clus>
<clus scale="   92.553">  5  6 -1 -1</clus>
<clus scale="   97.596">  1  7  2 -1</clus>
<clus scale="   30.956">  2  5  1 -1</clus>
</clustering>
</event>
<event>
 9    1  0.1671478E-005  0.9445395E+02  0.7546771E-02  0.1293470E+00
         -1   -1    0    0    0  501 -0.00000000000E+00  0.00000000000E+00  0.26007257239E+02  0.26007257239E+02  0.00000000000E+00 0.  1.
         21   -1    0    0  501  502  0.00000000000E+00 -0.00000000000E+00 -0.48082822764E+03  0.48082822764E+03  0.00000000000E+00 0. -1.
         23    2    1    2    0    0  0.68773837330E+01 -0.11017818827E+02 -0.16731534010E+03  0.19085506912E+03  0.90898534852E+02 0.  0.
         23    2    1    2    0    0 -0.14777883301E+02  0.35955872917E+02 -0.17166871794E+03  0.19722640655E+03  0.88976941351E+02 0.  0.
        -11    1    3    3    0    0 -0.85679894373E+00  0.38321753210E+02 -0.99549114789E+02  0.10667388213E+03  0.00000000000E+00 0. -1.
         11    1    3    3    0    0  0.77341826768E+01 -0.49339572037E+02 -0.67766225307E+02  0.84181186988E+02  0.00000000000E+00 0.  1.
        -11    1    4    4    0    0  0.19178291765E+02  0.64406306910E+01 -0.49302452662E+00  0.20236888889E+02  0.00000000000E+00 0.  1.
         11    1    4    4    0    0 -0.33956175067E+02  0.29515242226E+02 -0.17117569341E+03  0.17698951767E+03  0.00000000000E+00 0. -1.
         -1    1    1    2    0  502  0.79004995683E+01 -0.24938054090E+02 -0.11583691237E+03  0.11875400920E+03  0.00000000000E+00 0.  1.
<scales pt_clust_5="13000.00000" pt_clust_6="13000.00000" pt_clust_7="13000.00000" pt_clust_8="13000.00000" pt_clust_9="26.15960"></scales>
<clustering>
<clus scale="   26.160">  2  9  1 -1</clus>
<clus scale="   88.977">  7  8 -1 -1</clus>
<clus scale="   90.899">  5  6 -1 -1</clus>
<clus scale="   92.606">  2  7  1 -1</clus>
<clus scale="   26.160">  2  5  1 -1</clus>
</clustering>
</event>
<event>
 9    1  0.1671478E-005  0.1077486E+03  0.7546771E-02  0.1265485E+00
          1   -1    0    0  502    0 -0.00000000000E+00  0.00000000000E+00  0.33463133393E+03  0.33463133393E+03  0.00000000000E+00 0. -1.
         21   -1    0    0  501  502  0.00000000000E+00 -0.00000000000E+00 -0.97052568066E+02  0.97052568066E+02  0.00000000000E+00 0.  1.
         23    2    1    2    0    0  0.79233071236E+02  0.31681271670E+02  0.20122243946E+03  0.23653131852E+03  0.90415772684E+02 0.  0.
         23    2    1    2    0    0 -0.11415948141E+02  0.26675887543E+02  0.42440022411E+02  0.10547688122E+03  0.92099349194E+02 0.  0.
        -11    1    4    4    0    0 -0.17357594339E+02 -0.32591972921E+02  0.18216139382E+02  0.41174634353E+02  0.00000000000E+00 0. -1.
         11    1    4    4    0    0  0.59416461981E+01  0.59267860463E+02  0.24223883029E+02  0.64302246869E+02  0.00000000000E+00 0.  1.
        -13    1    3    3    0    0  0.97152942806E+02  0.12786482744E+02  0.16531551457E+03  0.19217546095E+03  0.00000000000E+00 0. -1.
         13    1    3    3    0    0 -0.17919871571E+02  0.18894788926E+02  0.35906924890E+02  0.44355857570E+02  0.00000000000E+00 0.  1.
          1    1    1    2  501    0 -0.67817123095E+02 -0.58357159213E+02 -0.60836960072E+01  0.89675702246E+02  0.00000000000E+00 0. -1.
<scales pt_clust_5="13000.00000" pt_clust_6="13000.00000" pt_clust_7="13000.00000" pt_clust_8="13000.00000" pt_clust_9="89.46910"></scales>
<clustering>
<clus scale="   89.469">  2  9  1 -1</clus>
<clus scale="   90.416">  7  8 -1 -1</clus>
<clus scale="   92.099">  5  6 -1 -1</clus>
<clus scale="  106.313">  1  7  2 -1</clus>
<clus scale="   89.469">  2  5  1 -1</clus>
</clustering>
</event>
<event>
 9    1  0.1671478E-005  0.1220279E+03  0.7546771E-02  0.1240238E+00
          3   -1    0    0  502    0 -0.00000000000E+00  0.00000000000E+00  0.18157054866E+03  0.18157054866E+03  0.00000000000E+00 0. -1.
         21   -1    0    0  501  502  0.00000000000E+00 -0.00000000000E+00 -0.22722709375E+03  0.22722709375E+03  0.00000000000E+00 0.  1.
         23    2    1    2    0    0 -0.86142302699E+02  0.50300807733E+02  0.85773307801E+02  0.16021276449E+03  0.91435233925E+02 0.  0.
         23    2    1    2    0    0  0.35222142001E+02 -0.37601474098E+02  0.89834600445E+00  0.10623008150E+03  0.92895387660E+02 0.  0.
        -11    1    3    3    0    0 -0.57346889007E+02  0.72400507265E+02  0.37190122064E+02  0.99567084471E+02  0.00000000000E+00 0. -1.
         11    1    3    3    0    0 -0.28795413692E+02 -0.22099699532E+02  0.48583185737E+02  0.60645680023E+02  0.00000000000E+00 0.  1.
        -13    1    4    4    0    0  0.47741676460E+02  0.88060858566E+01 -0.21627946710E+02  0.53146805155E+02  0.00000000000E+00 0.  1.
         13    1    4    4    0    0 -0.12519534459E+02 -0.46407559955E+02  0.22526292714E+02  0.53083276345E+02  0.00000000000E+00 0. -1.
          3    1    1    2  501    0  0.50920160698E+02 -0.12699333634E+02 -0.13232819890E+03  0.14235479642E+03  0.00000000000E+00 0. -1.
<scales pt_clust_5="13000.00000" pt_clust_6="13000.00000" pt_clust_7="13000.00000" pt_clust_8="13000.00000" pt_clust_9="52.47986"></scales>
<clustering>
<clus scale="   52.480">  2  9  1 -1</clus>
<clus scale="   91.435">  5  6 -1 -1</clus>
<clus scale="   92.895">  7  8 -1 -1</clus>
<clus scale="  120.920">  1  5  2 -1</clus>
<clus scale="   52.480">  2  5  1 -1</clus>
</clustering>
</event>
<event>
 9    1  0.1671478E-005  0.1360888E+03  0.7546771E-02  0.1218814E+00
         21   -1    0    0  501  502  0.00000000000E+00  0.00000000000E+00  0.11803738874E+03  0.11803738874E+03  0.00000000000E+00 0.  1.
          1   -1    0    0  502    0 -0.00000000000E+00 -0.00000000000E+00 -0.18777896771E+03  0.18777896771E+03  0.00000000000E+00 0. -1.
         23    2    1    2    0    0 -0.93801351886E+02  0.37164435543E+02 -0.48742008350E+02  0.14641830571E+03  0.94247800958E+02 0.  0.
         23    2    1    2    0    0  0.79081175822E+02 -0.53078467939E+02 -0.26717528644E+02  0.13697852678E+03  0.94753017542E+02 0.  0.
        -11    1    3    3    0    0  0.92860119376E+01  0.22720149839E+02 -0.33020312602E+02  0.41143362414E+02  0.00000000000E+00 0. -1.
         11    1    3    3    0    0 -0.10308736382E+03  0.14444285704E+02 -0.15721695748E+02  0.10527494330E+03  0.00000000000E+00 0.  1.
        -13    1    4    4    0    0  0.83930636344E+01 -0.60694566090E+02 -0.71736301772E+00  0.61276328869E+02  0.00000000000E+00 0. -1.
         13    1    4    4    0    0  0.70688112187E+02  0.76160981511E+01 -0.26000165626E+02  0.75702197909E+02  0.00000000000E+00 0.  1.
          1    1    1    2  501    0  0.14720176065E+02  0.15914032395E+02  0.57179580261E+01  0.22419523957E+02  0.00000000000E+00 0. -1.
<scales pt_clust_5="13000.00000" pt_clust_6="13000.00000" pt_clust_7="13000.00000" pt_clust_8="13000.00000" pt_clust_9="21.67810"></scales>
<clustering>
<clus scale="   21.678">  1  9  2 -1</clus>
<clus scale="   94.248">  5  6 -1 -1</clus>
<clus scale="   94.753">  7  8 -1 -1</clus>
<clus scale="  135.737">  2  5  1 -1</clus>
<clus scale="   21.678">  1  5  2 -1</clus>
</clustering>
</event>
<event>
 9    1  0.1671478E-005  0.1044737E+03  0.7546771E-02  0.1272639E+00
         -3   -1    0    0    0  501 -0.00000000000E+00  0.00000000000E+00  0.29063007952E+03  0.29063007952E+03  0.00000000000E+00 0.  1.
         21   -1    0    0  501  502  0.00000000000E+00 -0.00000000000E+00 -0.60877073687E+02  0.60877073687E+02  0.00000000000E+00 0. -1.
         23    2    1    2    0    0  0.26310569047E+02  0.26352075994E+02  0.12482643548E+03  0.16106755825E+03  0.94733528246E+02 0.  0.
         23    2    1    2    0    0 -0.63262309929E+02 -0.10787594461E+02  0.49976807982E+02  0.12241635904E+03  0.91485471923E+02 0.  0.
        -11    1    4    4    0    0 -0.80386335948E+02  0.12720576994E+02  0.28387397658E+02  0.86195245994E+02  0.00000000000E+00 0.  1.
         11    1    4    4    0    0  0.17124026019E+02 -0.23508171455E+02  0.21589410324E+02  0.36221113047E+02  0.00000000000E+00 0. -1.
        -13    1    3    3    0    0 -0.28784534358E+02  0.24647914639E+02  0.84996560770E+02  0.93061723909E+02  0.00000000000E+00 0.  1.
         13    1    3    3    0    0  0.55095103405E+02  0.17041613549E+01  0.39829874706E+02  0.68005834340E+02  0.00000000000E+00 0. -1.
         -3    1    1    2    0  502  0.36951740882E+02 -0.15564481533E+02  0.54949762380E+02  0.68023235921E+02  0.00000000000E+00 0.  1.
<scales pt_clust_5="13000.00000" pt_clust_6="13000.00000" pt_clust_7="13000.00000" pt_clust_8="13000.00000" pt_clust_9="40.09596"></scales>
<clustering>
<clus scale="   40.096">  2  9  1 -1</clus>
<clus scale="   91.485">  5  6 -1 -1</clus>
<clus scale="   94.734">  7  8 -1 -1</clus>
<clus scale="  101.538">  2  5  1 -1</clus>
<clus scale="   40.096">  2  5  1 -1</clus>
</clustering>
</event>
<event>
 9    1  0.1671478E-005  0.1017653E+03  0.7546771E-02  0.1277199E+00
         21   -1    0    0  501  502  0.00000000000E+00  0.00000000000E+00  0.25787895073E+03  0.25787895073E+03  0.00000000000E+00 0.  1.
          3   -1    0    0  502    0 -0.00000000000E+00 -0.00000000000E+00 -0.18002492970E+03  0.18002492970E+03  0.00000000000E+00 0. -1.
         23    2    1    2    0    0  0.19037697733E+02 -0.44391804592E+02 -0.14115982202E+03  0.17511127092E+03  0.91677672315E+02 0.  0.
         23    2    1    2    0    0 -0.17480250481E+02 -0.61472034517E+01  0.16301336302E+03  0.18734281999E+03  0.90446826433E+02 0.  0.
        -11    1    3    3    0    0  0.10657502925E+02  0.27556069690E+02 -0.27688929586E+02  0.40491927183E+02  0.00000000000E+00 0.  1.
         11    1    3    3    0    0  0.83801948083E+01 -0.71947874282E+02 -0.11347089243E+03  0.13461934374E+03  0.00000000000E+00 0. -1.
        -11    1    4    4    0    0 -0.34157376903E+02 -0.39546989869E+02  0.11663432633E+03  0.12780554324E+03  0.00000000000E+00 0.  1.
         11    1    4    4    0    0  0.16677126423E+02  0.33399786417E+02  0.46379036683E+02  0.59537276744E+02  0.00000000000E+00 0. -1.
          3    1    1    2  501    0 -0.15574472523E+01  0.50539008043E+02  0.56000480030E+02  0.75449789526E+02  0.00000000000E+00 0. -1.
<scales pt_clust_5="13000.00000" pt_clust_6="13000.00000" pt_clust_7="13000.00000" pt_clust_8="13000.00000" pt_clust_9="50.56300"></scales>
<clustering>
<clus scale="   50.563">  1  9  2 -1</clus>
<clus scale="   90.447">  7  8 -1 -1</clus>
<clus scale="   91.678">  5  6 -1 -1</clus>
<clus scale="  100.658">  1  7  2 -1</clus>
<clus scale="   50.563">  1  5  2 -1</clus>
</clustering>
</event>
<event>
 9    1  0.1671478E-005  0.2144528E+03  0.7546771E-02  0.1152922E+00
         21   -1    0    0  501  502  0.00000000000E+00  0.00000000000E+00  0.19085555996E+03  0.19085555996E+03  0.00000000000E+00 0. -1.
          2   -1    0    0  502    0 -0.00000000000E+00 -0.00000000000E+00 -0.53369382620E+03  0.53369382620E+03  0.00000000000E+00 0. -1.
         23    2    1    2    0    0 -0.28008344711E+02  0.11606616582E+03 -0.17880779920E+03  0.23369596965E+03  0.91573767838E+02 0.  0.
         23    2    1    2    0    0 -0.10797141538E+03 -0.22946589907E+03 -0.16043131901E+03  0.31375754269E+03  0.91614202509E+02 0.  0.
        -13    1    4    4    0    0  0.15159691063E+02 -0.30936860303E+02 -0.32727381854E+02  0.47518281551E+02  0.00000000000E+00 0.  1.
         13    1    4    4    0    0 -0.12313110644E+03 -0.19852903877E+03 -0.12770393715E+03  0.26623926114E+03  0.00000000000E+00 0. -1.
        -13    1    3    3    0    0 -0.53869543662E+02  0.94095752775E+02 -0.16416293974E+03  0.19673690352E+03  0.00000000000E+00 0. -1.
         13    1    3    3    0    0  0.25861198951E+02  0.21970413045E+02 -0.14644859462E+02  0.36959066130E+02  0.00000000000E+00 0.  1.
          2    1    1    2  501    0  0.13597976009E+03  0.11339973325E+03 -0.35991480298E+01  0.17709587382E+03  0.00000000000E+00 0. -1.
<scales pt_clust_5="13000.00000" pt_clust_6="13000.00000" pt_clust_7="13000.00000" pt_clust_8="13000.00000" pt_clust_9="193.89900"></scales>
<clustering>
<clus scale="   91.574">  7  8 -1 -1</clus>
<clus scale="   91.614">  5  6 -1 -1</clus>
<clus scale="  150.471">  2  7  1 -1</clus>
<clus scale="  193.899">  1  9  2 -1</clus>
<clus scale="  193.899">  1  5  2 -1</clus>
</clustering>
</event>
<event>
 9    1  0.1671478E-005  0.9928720E+02  0.7546771E-02  0.1283782E+00
          2   -1    0    0  502    0 -0.00000000000E+00  0.00000000000E+00  0.73480633611E+03  0.73480633611E+03  0.00000000000E+00 0. -1.
         21   -1    0    0  501  502  0.00000000000E+00 -0.00000000000E+00 -0.30742209457E+02  0.30742209457E+02  0.00000000000E+00 0. -1.
         23    2    1    2    0    0 -0.20572888205E+02  0.31461029411E+02  0.47120826662E+03  0.48210300916E+03  0.94726135836E+02 0.  0.
         23    2    1    2    0    0  0.93576084504E+00 -0.19335910038E+02  0.24153057205E+03  0.25879019379E+03  0.90887810512E+02 0.  0.
        -11    1    3    3    0    0 -0.58710693957E+02  0.20970840254E+02  0.28434272342E+03  0.29109707331E+03  0.00000000000E+00 0. -1.
         11    1    3    3    0    0  0.38137805752E+02  0.10490189157E+02  0.18686554320E+03  0.19100593586E+03  0.00000000000E+00 0.  1.
        -11    1    4    4    0    0  0.45536448470E+02 -0.49691242639E+01  0.12911812104E+03  0.13700273544E+03  0.00000000000E+00 0.  1.
         11    1    4    4    0    0 -0.44600687625E+02 -0.14366785774E+02  0.11241245101E+03  0.12178745835E+03  0.00000000000E+00 0. -1.
          2    1    1    2  501    0  0.19637127360E+02 -0.12125119373E+02 -0.86747120226E+01  0.24655342615E+02  0.00000000000E+00 0. -1.
<scales pt_clust_5="13000.00000" pt_clust_6="13000.00000" pt_clust_7="13000.00000" pt_clust_8="13000.00000" pt_clust_9="23.07889"></scales>
<clustering>
<clus scale="   23.079">  2  9  1 -1</clus>
<clus scale="   90.888">  7  8 -1 -1</clus>
<clus scale="   94.726">  5  6 -1 -1</clus>
<clus scale="   95.632">  2  7  1 -1</clus>
<clus scale="   23.079">  2  5  1 -1</clus>
</clustering>
</event>
<event>
 9    1  0.1671478E-005  0.9683557E+02  0.7546771E-02  0.1287344E+00
          2   -1    0    0  502    0 -0.00000000000E+00  0.00000000000E+00  0.42409479252E+02  0.42409479252E+02  0.00000000000E+00 0. -1.
         21   -1    0    0  501  502  0.00000000000E+00 -0.00000000000E+00 -0.62912069048E+03  0.62912069048E+03  0.00000000000E+00 0.  1.
         23    2    1    2    0    0  0.14083587378E+02  0.20597284951E+02 -0.42318033935E+02  0.10433574240E+03  0.92046377254E+02 0.  0.
         23    2    1    2    0    0  0.24838962571E+01 -0.59718708624E+02 -0.30384370395E+03  0.32292200475E+03  0.91570359974E+02 0.  0.
        -11    1    4    4    0    0  0.41393830294E+02 -0.14215779858E+02 -0.18166347716E+03  0.18686132964E+03  0.00000000000E+00 0.  1.
         11    1    4    4    0    0 -0.38909934037E+02 -0.45502928766E+02 -0.12218022679E+03  0.13606067511E+03  0.00000000000E+00 0. -1.
        -13    1    3    3    0    0  0.30483232517E+01 -0.29295481759E+02 -0.44301056837E+02  0.53198695125E+02  0.00000000000E+00 0.  1.
         13    1    3    3    0    0  0.11035264126E+02  0.49892766710E+02  0.19830229027E+01  0.51137047276E+02  0.00000000000E+00 0. -1.
          2    1    1    2  501    0 -0.16567483635E+02  0.39121423673E+02 -0.24054947334E+03  0.24427242257E+03  0.00000000000E+00 0. -1.
<scales pt_clust_5="13000.00000" pt_clust_6="13000.00000" pt_clust_7="13000.00000" pt_clust_8="13000.00000" pt_clust_9="42.48491"></scales>
<clustering>
<clus scale="   42.485">  2  9  1 -1</clus>
<clus scale="   91.570">  5  6 -1 -1</clus>
<clus scale="   92.046">  7  8 -1 -1</clus>
<clus scale="   96.383">  2  5  1 -1</clus>
<clus scale="   42.485">  2  5  1 -1</clus>
</clustering>
</event>
<event>
 9    1  0.1671478E-005  0.9665245E+02  0.7546771E-02  0.1287534E+00
         21   -1    0    0  501  502  0.00000000000E+00  0.00000000000E+00  0.56226623728E+02  0.56226623728E+02  0.00000000000E+00 0. -1.
          1   -1    0    0  502    0 -0.00000000000E+00 -0.00000000000E+00 -0.22932864867E+03  0.22932864867E+03  0.00000000000E+00 0. -1.
         23    2    1    2    0    0 -0.14858716536E+02  0.42025593211E+02 -0.10703508118E+03  0.14715840326E+03  0.90620941862E+02 0.  0.
         23    2    1    2    0    0  0.59310949180E+01 -0.15999277997E+02 -0.39851087208E+02  0.10039236091E+03  0.90550329616E+02 0.  0.
        -11    1    3    3    0    0  0.21108457118E+02  0.20973697977E+02  0.25994776916E+01  0.29870056126E+02  0.00000000000E+00 0.  1.
         11    1    3    3    0    0 -0.35967173653E+02  0.21051895235E+02 -0.10963455887E+03  0.11728834713E+03  0.00000000000E+00 0. -1.
        -11    1    4    4    0    0 -0.29957050872E+02  0.23878790669E+02 -0.19753503250E+02  0.43102464331E+02  0.00000000000E+00 0. -1.
         11    1    4    4    0    0  0.35888145790E+02 -0.39878068667E+02 -0.20097583958E+02  0.57289896576E+02  0.00000000000E+00 0.  1.
          1    1    1    2  501    0  0.89276216179E+01 -0.26026315214E+02 -0.26215856557E+02  0.38004508238E+02  0.00000000000E+00 0. -1.
<scales pt_clust_5="13000.00000" pt_clust_6="13000.00000" pt_clust_7="13000.00000" pt_clust_8="13000.00000" pt_clust_9="27.51495"></scales>
<clustering>
<clus scale="   27.515">  1  9  2 -1</clus>
<clus scale="   90.550">  7  8 -1 -1</clus>
<clus scale="   90.621">  5  6 -1 -1</clus>
<clus scale="   96.586">  1  7  2 -1</clus>
<clus scale="   27.515">  1  5  2 -1</clus>
</clustering>
</event>
<event>
 9    1  0.1671478E-005  0.2521423E+03  0.7546771E-02  0.1111963E+00
         21   -1    0    0  501  502  0.00000000000E+00  0.00000000000E+00  0.13944905188E+03  0.13944905188E+03  0.00000000000E+00 0. -1.
          1   -1    0    0  502    0 -0.00000000000E+00 -0.00000000000E+00 -0.70079178706E+03  0.70079178706E+03  0.00000000000E+00 0. -1.
         23    2    1    2    0    0 -0.13363058325E+03  0.22769086870E+03 -0.38538220748E+03  0.47590460771E+03  0.90914714620E+02 0.  0.
         23    2    1    2    0    0  0.56231720314E+02 -0.19590080442E+03 -0.16977948032E+03  0.28043511374E+03  0.90992579571E+02 0.  0.
        -13    1    4    4    0    0  0.18381064725E+02 -0.99510396036E+02 -0.28244791449E+02  0.10506165192E+03  0.00000000000E+00 0.  1.
         13    1    4    4    0    0  0.37850655589E+02 -0.96390408387E+02 -0.14153468887E+03  0.17537346182E+03  0.00000000000E+00 0. -1.
        -13    1    3    3    0    0 -0.89230069950E+02  0.21257601226E+03 -0.29842629972E+03  0.37710585084E+03  0.00000000000E+00 0. -1.
         13    1    3    3    0    0 -0.44400513297E+02  0.15114856441E+02 -0.86955907759E+02  0.98798756877E+02  0.00000000000E+00 0.  1.
          1    1    1    2  501    0  0.77398862932E+02 -0.31790064279E+02 -0.61810473873E+01  0.83901117495E+02  0.00000000000E+00 0. -1.
<scales pt_clust_5="13000.00000" pt_clust_6="13000.00000" pt_clust_7="13000.00000" pt_clust_8="13000.00000" pt_clust_9="83.67313"></scales>
<clustering>
<clus scale="   83.673">  1  9  2 -1</clus>
<clus scale="   90.915">  7  8 -1 -1</clus>
<clus scale="   90.993">  5  6 -1 -1</clus>
<clus scale="  252.114">  2  7  1 -1</clus>
<clus scale="   83.673">  1  5  2 -1</clus>
</clustering>
</event>
<event>
 9    1  0.1671478E-005  0.1498311E+03  0.7546771E-02  0.1214733E+00
         21   -1    0    0  501  502  0.00000000000E+00  0.00000000000E+00  0.53516887918E+02  0.53516887918E+02  0.00000000000E+00 0. -1.
          2   -1    0    0  502    0 -0.00000000000E+00 -0.00000000000E+00 -0.77751272951E+03  0.77751272951E+03  0.00000000000E+00 0. -1.
         23    2    1    2    0    0  0.47585778643E+02 -0.13490837630E+02 -0.17460139191E+03  0.20682289516E+03  0.99215194781E+02 0.  0.
         23    2    1    2    0    0 -0.45281234685E+02  0.13078121975E+03 -0.41278179802E+03  0.44413628812E+03  0.87830017624E+02 0.  0.
        -13    1    4    4    0    0 -0.28824356898E+02  0.63135023381E+01 -0.15034621844E+03  0.15321452040E+03  0.00000000000E+00 0.  1.
         13    1    4    4    0    0 -0.16456877786E+02  0.12446771741E+03 -0.26243557958E+03  0.29092176772E+03  0.00000000000E+00 0. -1.
        -13    1    3    3    0    0  0.77340076858E+02 -0.18170443155E+02 -0.13980232312E+03  0.16079907352E+03  0.00000000000E+00 0.  1.
         13    1    3    3    0    0 -0.29754298215E+02  0.46796055249E+01 -0.34799068790E+02  0.46023821645E+02  0.00000000000E+00 0. -1.
          2    1    1    2  501    0 -0.23045439579E+01 -0.11729038212E+03 -0.13661265166E+03  0.18007043415E+03  0.00000000000E+00 0. -1.
<scales pt_clust_5="13000.00000" pt_clust_6="13000.00000" pt_clust_7="13000.00000" pt_clust_8="13000.00000" pt_clust_9="121.38883"></scales>
<clustering>
<clus scale="   87.830">  5  6 -1 -1</clus>
<clus scale="   99.215">  7  8 -1 -1</clus>
<clus scale="  110.861">  2  7  1 -1</clus>
<clus scale="  121.389">  1  9  2 -1</clus>
<clus scale="  121.389">  1  5  2 -1</clus>
</clustering>
</event>
<event>
 9    1  0.1671478E-005  0.1285156E+03  0.7546771E-02  0.1231828E+00
         21   -1    0    0  501  502  0.00000000000E+00  0.00000000000E+00  0.52088784228E+03  0.52088784228E+03  0.00000000000E+00 0. -1.
         -1   -1    0    0    0  501 -0.00000000000E+00 -0.00000000000E+00 -0.39037415021E+03  0.39037415021E+03  0.00000000000E+00 0.  1.
         23    2    1    2    0    0  0.32128117420E+02  0.79107354978E+02 -0.36978348349E+03  0.38983836605E+03  0.89128768895E+02 0.  0.
         23    2    1    2    0    0 -0.37369075853E+02 -0.46016095749E+02  0.38398434775E+03  0.40038159656E+03  0.96682545725E+02 0.  0.
        -11    1    3    3    0    0  0.58703554090E+02  0.26420036467E+02 -0.18787632736E+03  0.19859919429E+03  0.00000000000E+00 0. -1.
         11    1    3    3    0    0 -0.26575436670E+02  0.52687318512E+02 -0.18190715613E+03  0.19123917177E+03  0.00000000000E+00 0.  1.
        -11    1    4    4    0    0 -0.35443628561E+02  0.24194595454E+02  0.15891443993E+03  0.16460689072E+03  0.00000000000E+00 0.  1.
         11    1    4    4    0    0 -0.19254472925E+01 -0.70210691204E+02  0.22506990782E+03  0.23577470584E+03  0.00000000000E+00 0. -1.
         -1    1    1    2    0  502  0.52409584333E+01 -0.33091259229E+02  0.11631282782E+03  0.12104202988E+03  0.00000000000E+00 0.  1.
<scales pt_clust_5="13000.00000" pt_clust_6="13000.00000" pt_clust_7="13000.00000" pt_clust_8="13000.00000" pt_clust_9="33.50372"></scales>
<clustering>
<clus scale="   33.504">  1  9  2 -1</clus>
<clus scale="   89.129">  5  6 -1 -1</clus>
<clus scale="   96.683">  7  8 -1 -1</clus>
<clus scale="  122.934">  2  5  1 -1</clus>
<clus scale="   33.504">  1  5  2 -1</clus>
</clustering>
</event>
<event>
 9    1  0.1671478E-005  0.1067694E+03  0.7546771E-02  0.1268558E+00
         21   -1    0    0  501  502  0.00000000000E+00  0.00000000000E+00  0.61280176657E+02  0.61280176657E+02  0.00000000000E+00 0.  1.
         -2   -1    0    0    0  501 -0.00000000000E+00 -0.00000000000E+00 -0.66855706764E+03  0.66855706764E+03  0.00000000000E+00 0.  1.
         23    2    1    2    0    0 -0.60395316423E+02 -0.28639188315E+02 -0.41279118066E+03  0.42791915140E+03  0.90831954477E+02 0.  0.
         23    2    1    2    0    0  0.28483667934E+02 -0.20037490806E+02 -0.21701372227E+03  0.23950588477E+03  0.95159302274E+02 0.  0.
        -11    1    3    3    0    0 -0.63590548796E+02  0.12522306525E+02 -0.31784063369E+03  0.32438131032E+03  0.00000000000E+00 0. -1.
         11    1    3    3    0    0  0.31952323732E+01 -0.41161494840E+02 -0.94950546967E+02  0.10353784109E+03  0.00000000000E+00 0.  1.
        -13    1    4    4    0    0  0.57709159251E+02  0.38605371010E+01 -0.16774409314E+03  0.17743542936E+03  0.00000000000E+00 0.  1.
         13    1    4    4    0    0 -0.29225491316E+02 -0.23898027907E+02 -0.49269629134E+02  0.62070455415E+02  0.00000000000E+00 0. -1.
         -2    1    1    2    0  502  0.31911648489E+02  0.48676679121E+02  0.22528011953E+02  0.62412208117E+02  0.00000000000E+00 0.  1.
<scales pt_clust_5="13000.00000" pt_clust_6="13000.00000" pt_clust_7="13000.00000" pt_clust_8="13000.00000" pt_clust_9="58.20457"></scales>
<clustering>
<clus scale="   58.205">  1  9  2 -1</clus>
<clus scale="   90.832">  5  6 -1 -1</clus>
<clus scale="   95.159">  7  8 -1 -1</clus>
<clus scale="  102.931">  2  5  1 -1</clus>
<clus scale="   58.205">  1  5  2 -1</clus>
</clustering>
</event>
<event>
 9    1  0.1671478E-005  0.1241999E+03  0.7546771E-02  0.1236442E+00
         21   -1    0    0  501  502  0.00000000000E+00  0.00000000000E+00  0.39301641150E+02  0.39301641150E+02  0.00000000000E+00 0. -1.
          2   -1    0    0  502    0 -0.00000000000E+00 -0.00000000000E+00 -0.95584746589E+03  0.95584746589E+03  0.00000000000E+00 0. -1.
         23    2    1    2    0    0  0.70496289372E+02 -0.28343244148E+02 -0.40368362617E+03  0.42042730235E+03  0.89585602727E+02 0.  0.
         23    2    1    2    0    0 -0.99384778273E+02 -0.46048275179E+01 -0.51366522572E+03  0.53089527083E+03  0.89996032647E+02 0.  0.
        -11    1    4    4    0    0 -0.18945292030E+02 -0.23830861410E+02 -0.41099467293E+02  0.51146849927E+02  0.00000000000E+00 0.  1.
         11    1    4    4    0    0 -0.80439486243E+02  0.19226033892E+02 -0.47256575842E+03  0.47974842091E+03  0.00000000000E+00 0. -1.
        -11    1    3    3    0    0  0.82240205424E+02  0.46853857076E+01 -0.27812059198E+03  0.29006286890E+03  0.00000000000E+00 0.  1.
         11    1    3    3    0    0 -0.11743916052E+02 -0.33028629856E+02 -0.12556303419E+03  0.13036443345E+03  0.00000000000E+00 0. -1.
          2    1    1    2  501    0  0.28888488901E+02  0.32948071666E+02  0.80302714986E+00  0.43826533859E+02  0.00000000000E+00 0. -1.
<scales pt_clust_5="13000.00000" pt_clust_6="13000.00000" pt_clust_7="13000.00000" pt_clust_8="13000.00000" pt_clust_9="43.81918"></scales>
<clustering>
<clus scale="   43.819">  1  9  2 -1</clus>
<clus scale="   89.586">  7  8 -1 -1</clus>
<clus scale="   89.996">  5  6 -1 -1</clus>
<clus scale="  123.903">  2  7  1 -1</clus>
<clus scale="   43.819">  1  5  2 -1</clus>
</clustering>
</event>
<event>
 9    1  0.1671478E-005  0.1353387E+03  0.7546771E-02  0.1220087E+00
          2   -1    0    0  502    0 -0.00000000000E+00  0.00000000000E+00  0.14993529409E+03  0.14993529409E+03  0.00000000000E+00 0. -1.
         21   -1    0    0  501  502  0.00000000000E+00 -0.00000000000E+00 -0.25255091331E+03  0.25255091331E+03  0.00000000000E+00 0.  1.
         23    2    1    2    0    0 -0.57335064462E+02 -0.10090477938E+03  0.43198335128E+02  0.15254664907E+03  0.89080300103E+02 0.  0.
         23    2    1    2    0    0  0.48247794055E+02  0.63836443734E+02 -0.25204759982E+02  0.12343573325E+03  0.90543686350E+02 0.  0.
        -11    1    3    3    0    0 -0.81623700468E+02 -0.76559811481E+02  0.33475687000E+02  0.11680948092E+03  0.00000000000E+00 0.  1.
         11    1    3    3    0    0  0.24288636006E+02 -0.24344967903E+02  0.97226481279E+01  0.35737168156E+02  0.00000000000E+00 0. -1.
        -11    1    4    4    0    0  0.51328868767E+02  0.23863058499E+02  0.22683412879E+02  0.60980616180E+02  0.00000000000E+00 0. -1.
         11    1    4    4    0    0 -0.30810747121E+01  0.39973385235E+02 -0.47888172860E+02  0.62455117072E+02  0.00000000000E+00 0.  1.
          2    1    1    2  501    0  0.90872704075E+01  0.37068335649E+02 -0.12060919437E+03  0.12650382507E+03  0.00000000000E+00 0. -1.
<scales pt_clust_5="13000.00000" pt_clust_6="13000.00000" pt_clust_7="13000.00000" pt_clust_8="13000.00000" pt_clust_9="38.16595"></scales>
<clustering>
<clus scale="   38.166">  2  9  1 -1</clus>
<clus scale="   89.080">  5  6 -1 -1</clus>
<clus scale="   90.544">  7  8 -1 -1</clus>
<clus scale="  134.364">  1  5  2 -1</clus>
<clus scale="   38.166">  2  5  1 -1</clus>
</clustering>
</event>
<event>
 9    1  0.1671478E-005  0.1265241E+03  0.7546771E-02  0.1236731E+00
         21   -1    0    0  501  502  0.00000000000E+00  0.00000000000E+00  0.77339844508E+02  0.77339844508E+02  0.00000000000E+00 0. -1.
          1   -1    0    0  502    0 -0.00000000000E+00 -0.00000000000E+00 -0.27218810880E+03  0.27218810880E+03  0.00000000000E+00 0. -1.
         23    2    1    2    0    0 -0.21791884005E+02 -0.60735700563E+02 -0.13552869519E+03  0.18280346241E+03  0.10433296276E+03 0.  0.
         23    2    1    2    0    0  0.46876568053E+02  0.70240932289E+02 -0.62690223474E+02  0.13968836479E+03  0.91932442248E+02 0.  0.
        -11    1    4    4    0    0  0.11293547089E+02  0.76426164473E+02 -0.13129152178E+02  0.78363750923E+02  0.00000000000E+00 0.  1.
         11    1    4    4    0    0  0.35583020964E+02 -0.61852321840E+01 -0.49561071296E+02  0.61324613869E+02  0.00000000000E+00 0. -1.
        -13    1    3    3    0    0  0.39719665019E+02 -0.32500184064E+02 -0.80990380822E+02  0.95881987563E+02  0.00000000000E+00 0. -1.
         13    1    3    3    0    0 -0.61511549024E+02 -0.28235516500E+02 -0.54538314372E+02  0.86921474849E+02  0.00000000000E+00 0.  1.
          1    1    1    2  501    0 -0.25084684048E+02 -0.95052317254E+01  0.33706543743E+01  0.27036126106E+02  0.00000000000E+00 0. -1.
<scales pt_clust_5="13000.00000" pt_clust_6="13000.00000" pt_clust_7="13000.00000" pt_clust_8="13000.00000" pt_clust_9="26.82519"></scales>
<clustering>
<clus scale="   26.825">  1  9  2 -1</clus>
<clus scale="   91.932">  5  6 -1 -1</clus>
<clus scale="  104.333">  7  8 -1 -1</clus>
<clus scale="  116.510">  1  5  2 -1</clus>
<clus scale="   26.825">  1  5  2 -1</clus>
</clustering>
</event>
<event>
 9    1  0.1671478E-005  0.9348712E+02  0.7546771E-02  0.1294696E+00
         21   -1    0    0  501  502  0.00000000000E+00  0.00000000000E+00  0.50137293632E+02  0.50137293632E+02  0.00000000000E+00 0.  1.
         -3   -1    0    0    0  501 -0.00000000000E+00 -0.00000000000E+00 -0.49829358796E+03  0.49829358796E+03  0.00000000000E+00 0.  1.
         23    2    1    2    0    0 -0.19135734196E+02  0.17181983028E+02 -0.37337683537E+03  0.38485645741E+03  0.89681852983E+02 0.  0.
         23    2    1    2    0    0  0.32946907950E+02 -0.12299575958E+00 -0.94203097043E+02  0.13426512048E+03  0.89818623974E+02 0.  0.
        -11    1    4    4    0    0  0.13165153635E+02 -0.40936637740E+02 -0.71768042984E+02  0.83664697295E+02  0.00000000000E+00 0.  1.
         11    1    4    4    0    0  0.19781754314E+02  0.40813641981E+02 -0.22435054059E+02  0.50600423181E+02  0.00000000000E+00 0. -1.
        -13    1    3    3    0    0  0.32224588054E+02 -0.49476702148E+01 -0.83595865746E+02  0.89728324879E+02  0.00000000000E+00 0. -1.
         13    1    3    3    0    0 -0.51360322250E+02  0.22129653243E+02 -0.28978096962E+03  0.29512813253E+03  0.00000000000E+00 0.  1.
         -3    1    1    2    0  502 -0.13811173754E+02 -0.17058987269E+02  0.19423638087E+02  0.29309303704E+02  0.00000000000E+00 0.  1.
<scales pt_clust_5="13000.00000" pt_clust_6="13000.00000" pt_clust_7="13000.00000" pt_clust_8="13000.00000" pt_clust_9="21.94898"></scales>
<clustering>
<clus scale="   21.949">  1  9  2 -1</clus>
<clus scale="   89.682">  7  8 -1 -1</clus>
<clus scale="   89.819">  5  6 -1 -1</clus>
<clus scale="   93.356">  2  7  1 -1</clus>
<clus scale="   21.949">  1  5  2 -1</clus>
</clustering>
</event>
<event>
 9    1  0.1671478E-005  0.2433703E+03  0.7546771E-02  0.1118015E+00
          1   -1    0    0  502    0 -0.00000000000E+00  0.00000000000E+00  0.12589905256E+04  0.12589905256E+04  0.00000000000E+00 0. -1.
         21   -1    0    0  501  502  0.00000000000E+00 -0.00000000000E+00 -0.70282677191E+02  0.70282677191E+02  0.00000000000E+00 0. -1.
         23    2    1    2    0    0  0.13005160505E+03 -0.17893555902E+03  0.80327889436E+03  0.83819613526E+03  0.91566504719E+02 0.  0.
         23    2    1    2    0    0 -0.17343060448E+03  0.16580308661E+03  0.29157440344E+03  0.38685194535E+03  0.84083035015E+02 0.  0.
        -11    1    4    4    0    0 -0.77891858701E+02  0.40180401781E+02  0.58519705091E+02  0.10538577809E+03  0.00000000000E+00 0.  1.
         11    1    4    4    0    0 -0.95538745778E+02  0.12562268483E+03  0.23305469835E+03  0.28146616726E+03  0.00000000000E+00 0. -1.
        -11    1    3    3    0    0  0.97776461043E+02 -0.88908204466E+02  0.58737283253E+03  0.60205626776E+03  0.00000000000E+00 0.  1.
         11    1    3    3    0    0  0.32275144003E+02 -0.90027354553E+02  0.21590606182E+03  0.23613986750E+03  0.00000000000E+00 0. -1.
          1    1    1    2  501    0  0.43378999432E+02  0.13132472407E+02  0.93854550583E+02  0.10422512216E+03  0.00000000000E+00 0. -1.
<scales pt_clust_5="13000.00000" pt_clust_6="13000.00000" pt_clust_7="13000.00000" pt_clust_8="13000.00000" pt_clust_9="45.32330"></scales>
<clustering>
<clus scale="   45.323">  2  9  1 -1</clus>
<clus scale="   84.083">  5  6 -1 -1</clus>
<clus scale="   91.567">  7  8 -1 -1</clus>
<clus scale="  240.655">  2  5  1 -1</clus>
<clus scale="   45.323">  2  5  1 -1</clus>
</clustering>
</event>
<event>
 9    1  0.1671478E-005  0.9972006E+02  0.7546771E-02  0.1281890E+00
          3   -1    0    0  502    0 -0.00000000000E+00  0.00000000000E+00  0.17760716864E+03  0.17760716864E+03  0.00000000000E+00 0. -1.
         21   -1    0    0  501  502  0.00000000000E+00 -0.00000000000E+00 -0.11126561467E+03  0.11126561467E+03  0.00000000000E+00 0. -1.
         23    2    1    2    0    0 -0.36226707370E+02 -0.12788287169E+02  0.83898113256E+02  0.12957104408E+03  0.90960691739E+02 0.  0.
         23    2    1    2    0    0  0.49969109242E+02 -0.25082998344E+02  0.16806917647E+02  0.10634953037E+03  0.88891402537E+02 0.  0.
        -13    1    3    3    0    0 -0.32655287898E+02  0.12659265671E+02 -0.64739910826E+01  0.35616532616E+02  0.00000000000E+00 0.  1.
         13    1    3    3    0    0 -0.35714194712E+01 -0.25447552840E+02  0.90372104339E+02  0.93954511468E+02  0.00000000000E+00 0. -1.
        -13    1    4    4    0    0  0.62040477591E+02 -0.47511504005E+02  0.20046701917E+02  0.80673627229E+02  0.00000000000E+00 0. -1.
         13    1    4    4    0    0 -0.12071368349E+02  0.22428505661E+02 -0.32397842709E+01  0.25675903142E+02  0.00000000000E+00 0.  1.
          3    1    1    2  501    0 -0.13742401873E+02  0.37871285513E+02 -0.34363476932E+02  0.52952208853E+02  0.00000000000E+00 0. -1.
<scales pt_clust_5="13000.00000" pt_clust_6="13000.00000" pt_clust_7="13000.00000" pt_clust_8="13000.00000" pt_clust_9="40.28756"></scales>
<clustering>
<clus scale="   40.288">  2  9  1 -1</clus>
<clus scale="   88.891">  7  8 -1 -1</clus>
<clus scale="   90.961">  5  6 -1 -1</clus>
<clus scale="   97.836">  2  7  1 -1</clus>
<clus scale="   40.288">  2  5  1 -1</clus>
</clustering>
</event>
<event>
 9    1  0.1671478E-005  0.9600664E+02  0.7546771E-02  0.1289223E+00
         21   -1    0    0  501  502  0.00000000000E+00  0.00000000000E+00  0.42850703984E+02  0.42850703984E+02  0.00000000000E+00 0. -1.
          2   -1    0    0  502    0 -0.00000000000E+00 -0.00000000000E+00 -0.48146053956E+03  0.48146053956E+03  0.00000000000E+00 0. -1.
         23    2    1    2    0    0  0.94494510531E+01  0.35688938523E+02 -0.31889220002E+03  0.33363104942E+03  0.90854000714E+02 0.  0.
         23    2    1    2    0    0  0.96519207524E+01 -0.15971180776E+02 -0.13114194699E+03  0.16094524386E+03  0.91416207915E+02 0.  0.
        -13    1    3    3    0    0 -0.13680384444E+02 -0.27528981237E+02 -0.10234238172E+03  0.10685953782E+03  0.00000000000E+00 0.  1.
         13    1    3    3    0    0  0.23129835497E+02  0.63217919759E+02 -0.21654981830E+03  0.22677151160E+03  0.00000000000E+00 0. -1.
        -13    1    4    4    0    0  0.16173910228E+02 -0.40780999393E+02 -0.12774520892E+03  0.13506858882E+03  0.00000000000E+00 0. -1.
         13    1    4    4    0    0 -0.65219894755E+01  0.24809818617E+02 -0.33967380751E+01  0.25876655040E+02  0.00000000000E+00 0.  1.
          2    1    1    2  501    0 -0.19101371805E+02 -0.19717757746E+02  0.11424311439E+02  0.29734950265E+02  0.00000000000E+00 0. -1.
<scales pt_clust_5="13000.00000" pt_clust_6="13000.00000" pt_clust_7="13000.00000" pt_clust_8="13000.00000" pt_clust_9="27.45273"></scales>
<clustering>
<clus scale="   27.453">  1  9  2 -1</clus>
<clus scale="   90.854">  5  6 -1 -1</clus>
<clus scale="   91.416">  7  8 -1 -1</clus>
<clus scale="   95.471">  2  5  1 -1</clus>
<clus scale="   27.453">  1  5  2 -1</clus>
</clustering>
</event>
<event>
 9    1  0.1671478E-005  0.1213131E+03  0.7546771E-02  0.1241464E+00
          1   -1    0    0  502    0 -0.00000000000E+00  0.00000000000E+00  0.28982740031E+03  0.28982740031E+03  0.00000000000E+00 0. -1.
         21   -1    0    0  501  502  0.00000000000E+00 -0.00000000000E+00 -0.65696354152E+02  0.65696354152E+02  0.00000000000E+00 0.  1.
         23    2    1    2    0    0 -0.72361394861E+01 -0.86484435148E+02  0.14439573066E+03  0.19193363322E+03  0.91959084868E+02 0.  0.
         23    2    1    2    0    0  0.23708508993E+02  0.66540219125E+02  0.75795805815E+02  0.13742467749E+03  0.90282022823E+02 0.  0.
        -11    1    3    3    0    0  0.20609984822E+02 -0.17272020917E+02 -0.26747178612E+01  0.27023106716E+02  0.00000000000E+00 0.  1.
         11    1    3    3    0    0 -0.27846124308E+02 -0.69212414231E+02  0.14707044853E+03  0.16491052651E+03  0.00000000000E+00 0. -1.
        -13    1    4    4    0    0  0.56577416451E+02  0.29258479107E+02  0.32490130394E+02  0.71502945569E+02  0.00000000000E+00 0.  1.
         13    1    4    4    0    0 -0.32868907458E+02  0.37281740018E+02  0.43305675420E+02  0.65921731924E+02  0.00000000000E+00 0. -1.
          1    1    1    2  501    0 -0.16472369507E+02  0.19944216023E+02  0.39395096785E+01  0.26165443747E+02  0.00000000000E+00 0. -1.
<scales pt_clust_5="13000.00000" pt_clust_6="13000.00000" pt_clust_7="13000.00000" pt_clust_8="13000.00000" pt_clust_9="25.86717"></scales>
<clustering>
<clus scale="   25.867">  2  9  1 -1</clus>
<clus scale="   90.282">  7  8 -1 -1</clus>
<clus scale="   91.959">  5  6 -1 -1</clus>
<clus scale="  120.047">  2  7  1 -1</clus>
<clus scale="   25.867">  2  5  1 -1</clus>
</clustering>
</event>
<event>
 9    1  0.1671478E-005  0.9175770E+02  0.7546771E-02  0.1299944E+00
         -3   -1    0    0    0  501 -0.00000000000E+00  0.00000000000E+00  0.43214363261E+02  0.43214363261E+02  0.00000000000E+00 0.  1.
         21   -1    0    0  501  502  0.00000000000E+00 -0.00000000000E+00 -0.32633117332E+03  0.32633117332E+03  0.00000000000E+00 0. -1.
         23    2    1    2    0    0 -0.78439321497E+01 -0.17262111241E+01 -0.42404232261E+02  0.10136060435E+03  0.91713391188E+02 0.  0.
         23    2    1    2    0    0 -0.15719914807E+02  0.50374000329E+01 -0.16064811202E+03  0.18465926232E+03  0.89547396070E+02 0.  0.
        -13    1    3    3    0    0  0.39289262440E+02  0.14292301575E+02 -0.24500341808E+02  0.48458051716E+02  0.00000000000E+00 0.  1.
         13    1    3    3    0    0 -0.47133194590E+02 -0.16018512699E+02 -0.17903890452E+02  0.52902552629E+02  0.00000000000E+00 0. -1.
        -13    1    4    4    0    0 -0.50261391570E+02 -0.10802915206E+02 -0.74650192095E+02  0.90639735433E+02  0.00000000000E+00 0. -1.
         13    1    4    4    0    0  0.34541476763E+02  0.15840315239E+02 -0.85997919929E+02  0.94019526886E+02  0.00000000000E+00 0.  1.
         -3    1    1    2    0  502  0.23563846957E+02 -0.33111889088E+01 -0.80064465776E+02  0.83525669919E+02  0.00000000000E+00 0.  1.
<scales pt_clust_5="13000.00000" pt_clust_6="13000.00000" pt_clust_7="13000.00000" pt_clust_8="13000.00000" pt_clust_9="23.79535"></scales>
<clustering>
<clus scale="   23.795">  2  9  1 -1</clus>
<clus scale="   89.547">  7  8 -1 -1</clus>
<clus scale="   89.593">  2  7  1 -1</clus>
<clus scale="   91.713">  5  6 -1 -1</clus>
<clus scale="   23.795">  2  5  1 -1</clus>
</clustering>
</event>
<event>
 9    1  0.1671478E-005  0.1112754E+03  0.7546771E-02  0.1258280E+00
         -1   -1    0    0    0  501 -0.00000000000E+00  0.00000000000E+00  0.28632534011E+03  0.28632534011E+03  0.00000000000E+00 0.  1.
         21   -1    0    0  501  502  0.00000000000E+00 -0.00000000000E+00 -0.60845090460E+02  0.60845090460E+02  0.00000000000E+00 0. -1.
         23    2    1    2    0    0 -0.14451502825E+02 -0.63252762715E+02  0.13003558409E+03  0.17236444627E+03  0.92684903212E+02 0.  0.
         23    2    1    2    0    0 -0.60417718215E+01  0.59317618530E+02  0.10474713649E+03  0.15195876059E+03  0.92544148613E+02 0.  0.
        -13    1    4    4    0    0  0.22176915231E+02  0.55256563682E+02  0.10793844443E+03  0.12327129100E+03  0.00000000000E+00 0.  1.
         13    1    4    4    0    0 -0.28218687053E+02  0.40610548472E+01 -0.31913079320E+01  0.28687469595E+02  0.00000000000E+00 0. -1.
        -13    1    3    3    0    0  0.23892490149E+02  0.13016176902E+02  0.39142320458E+02  0.47669625523E+02  0.00000000000E+00 0.  1.
         13    1    3    3    0    0 -0.38343992974E+02 -0.76268939617E+02  0.90893263637E+02  0.12469482075E+03  0.00000000000E+00 0. -1.
         -1    1    1    2    0  502  0.20493274646E+02  0.39351441857E+01 -0.93024709375E+01  0.22847223705E+02  0.00000000000E+00 0.  1.
<scales pt_clust_5="13000.00000" pt_clust_6="13000.00000" pt_clust_7="13000.00000" pt_clust_8="13000.00000" pt_clust_9="20.86767"></scales>
<clustering>
<clus scale="   20.868">  2  9  1 -1</clus>
<clus scale="   92.544">  5  6 -1 -1</clus>
<clus scale="   92.685">  7  8 -1 -1</clus>
<clus scale="  111.158">  2  5  1 -1</clus>
<clus scale="   20.868">  2  5  1 -1</clus>
</clustering>
</event>
<event>
 9    1  0.1671478E-005  0.1008835E+03  0.7546771E-02  0.1278982E+00
         21   -1    0    0  501  502  0.00000000000E+00  0.00000000000E+00  0.32011428671E+02  0.32011428671E+02  0.00000000000E+00 0.  1.
         -3   -1    0    0    0  501 -0.00000000000E+00 -0.00000000000E+00 -0.61476174814E+03  0.61476174814E+03  0.00000000000E+00 0.  1.
         23    2    1    2    0    0  0.13623288316E+02  0.35694946774E+02 -0.35427673382E+03  0.36780125559E+03  0.91137458150E+02 0.  0.
         23    2    1    2    0    0 -0.43079787801E+02 -0.35893567056E+02 -0.22571678001E+03  0.24938603288E+03  0.90006179467E+02 0.  0.
        -11    1    3    3    0    0  0.42740801723E+02  0.50334417835E+02 -0.24792657388E+03  0.25656951453E+03  0.00000000000E+00 0.  1.
         11    1    3    3    0    0 -0.29117513407E+02 -0.14639471060E+02 -0.10635015994E+03  0.11123174106E+03  0.00000000000E+00 0. -1.
        -11    1    4    4    0    0  0.24128250706E+02 -0.28712635084E+02 -0.65165587514E+02  0.75187377209E+02  0.00000000000E+00 0. -1.
         11    1    4    4    0    0 -0.67208038507E+02 -0.71809319718E+01 -0.16055119250E+03  0.17419865567E+03  0.00000000000E+00 0.  1.
         -3    1    1    2    0  502  0.29456499485E+02  0.19862028166E+00 -0.27568056407E+01  0.29585888347E+02  0.00000000000E+00 0.  1.
<scales pt_clust_5="13000.00000" pt_clust_6="13000.00000" pt_clust_7="13000.00000" pt_clust_8="13000.00000" pt_clust_9="29.45717"></scales>
<clustering>
<clus scale="   29.457">  1  9  2 -1</clus>
<clus scale="   90.006">  7  8 -1 -1</clus>
<clus scale="   91.137">  5  6 -1 -1</clus>
<clus scale="   99.863">  1  7  2 -1</clus>
<clus scale="   29.457">  1  5  2 -1</clus>
</clustering>
</event>
<event>
 9    1  0.1671478E-005  0.9504179E+02  0.7546771E-02  0.1299553E+00
         21   -1    0    0  501  502  0.00000000000E+00  0.00000000000E+00  0.12186879734E+03  0.12186879734E+03  0.00000000000E+00 0.  1.
          1   -1    0    0  502    0 -0.00000000000E+00 -0.00000000000E+00 -0.44757752118E+03  0.44757752118E+03  0.00000000000E+00 0. -1.
         23    2    1    2    0    0 -0.68584127484E+01 -0.18233025628E+02 -0.41694774328E+03  0.42762567400E+03  0.92945227855E+02 0.  0.
         23    2    1    2    0    0  0.29551311046E+02  0.16017184891E+02  0.68854646797E+02  0.10986852845E+03  0.78741989827E+02 0.  0.
        -11    1    3    3    0    0 -0.64478931978E+01 -0.55970002943E+02 -0.27749069885E+03  0.28315244040E+03  0.00000000000E+00 0.  1.
         11    1    3    3    0    0 -0.41051955062E+00  0.37736977314E+02 -0.13945704443E+03  0.14447323360E+03  0.00000000000E+00 0. -1.
        -13    1    4    4    0    0 -0.39940610309E+01  0.38299589143E+02  0.12267365602E+02  0.40414097922E+02  0.00000000000E+00 0.  1.
         13    1    4    4    0    0  0.33545372076E+02 -0.22282404252E+02  0.56587281195E+02  0.69454430528E+02  0.00000000000E+00 0. -1.
          1    1    1    2  501    0 -0.22692898297E+02  0.22158407371E+01  0.22384372646E+02  0.31952116081E+02  0.00000000000E+00 0. -1.
<scales pt_clust_5="13000.00000" pt_clust_6="13000.00000" pt_clust_7="13000.00000" pt_clust_8="13000.00000" pt_clust_9="22.80082"></scales>
<clustering>
<clus scale="   22.801">  1  9  2 -1</clus>
<clus scale="   78.742">  7  8 -1 -1</clus>
<clus scale="   81.206">  1  7  2 -1</clus>
<clus scale="   92.945">  5  6 -1 -1</clus>
<clus scale="   22.801">  1  5  2 -1</clus>
</clustering>
</event>
<event>
 9    1  0.1671478E-005  0.9629645E+02  0.7546771E-02  0.1288441E+00
          1   -1    0    0  502    0 -0.00000000000E+00  0.00000000000E+00  0.31598045964E+02  0.31598045964E+02  0.00000000000E+00 0. -1.
         21   -1    0    0  501  502  0.00000000000E+00 -0.00000000000E+00 -0.43101595870E+03  0.43101595870E+03  0.00000000000E+00 0.  1.
         23    2    1    2    0    0  0.32977254403E+02  0.18051400673E+02 -0.95053272526E+02  0.13682740294E+03  0.90957469195E+02 0.  0.
         23    2    1    2    0    0 -0.15585145855E+02 -0.77702423149E+01 -0.21584475193E+03  0.23499035578E+03  0.91259174537E+02 0.  0.
        -11    1    3    3    0    0  0.41710251621E+02 -0.21158321291E+02 -0.18348080372E+02  0.50240140361E+02  0.00000000000E+00 0.  1.
         11    1    3    3    0    0 -0.87329972182E+01  0.39209721965E+02 -0.76705192154E+02  0.86587262576E+02  0.00000000000E+00 0. -1.
        -13    1    4    4    0    0 -0.37384715985E+02 -0.38516108263E+02 -0.10519750678E+03  0.11810005511E+03  0.00000000000E+00 0. -1.
         13    1    4    4    0    0  0.21799570130E+02  0.30745865948E+02 -0.11064724515E+03  0.11689030067E+03  0.00000000000E+00 0.  1.
          1    1    1    2  501    0 -0.17392108548E+02 -0.10281158359E+02 -0.88519888279E+02  0.90796245946E+02  0.00000000000E+00 0. -1.
<scales pt_clust_5="13000.00000" pt_clust_6="13000.00000" pt_clust_7="13000.00000" pt_clust_8="13000.00000" pt_clust_9="20.20365"></scales>
<clustering>
<clus scale="   20.204">  2  9  1 -1</clus>
<clus scale="   90.957">  5  6 -1 -1</clus>
<clus scale="   91.259">  7  8 -1 -1</clus>
<clus scale="   96.011">  1  5  2 -1</clus>
<clus scale="   20.204">  2  5  1 -1</clus>
</clustering>
</event>
<event>
 9    1  0.1671478E-005  0.1008858E+03  0.7546771E-02  0.1279765E+00
          2   -1    0    0  502    0 -0.00000000000E+00  0.00000000000E+00  0.13115011579E+03  0.13115011579E+03  0.00000000000E+00 0. -1.
         21   -1    0    0  501  502  0.00000000000E+00 -0.00000000000E+00 -0.11577841231E+03  0.11577841231E+03  0.00000000000E+00 0.  1.
         23    2    1    2    0    0  0.13736094837E+01 -0.41503728674E+02  0.55436743070E+02  0.11658256104E+03  0.93775341962E+02 0.  0.
         23    2    1    2    0    0 -0.17612091263E+02  0.27262029245E+02 -0.15978310447E+02  0.97993458433E+02  0.91071441702E+02 0.  0.
        -11    1    3    3    0    0  0.32145962827E+02  0.16997158548E+02  0.22088991873E+02  0.42546326360E+02  0.00000000000E+00 0. -1.
         11    1    3    3    0    0 -0.30772353343E+02 -0.58500887222E+02  0.33347751197E+02  0.74036234682E+02  0.00000000000E+00 0.  1.
        -11    1    4    4    0    0  0.35482892409E+01 -0.32804328243E+02 -0.51748811459E+01  0.33399007513E+02  0.00000000000E+00 0.  1.
         11    1    4    4    0    0 -0.21160380504E+02  0.60066357488E+02 -0.10803429301E+02  0.64594450919E+02  0.00000000000E+00 0. -1.
          2    1    1    2  501    0  0.16238481779E+02  0.14241699429E+02 -0.24086729152E+02  0.32352508625E+02  0.00000000000E+00 0. -1.
<scales pt_clust_5="13000.00000" pt_clust_6="13000.00000" pt_clust_7="13000.00000" pt_clust_8="13000.00000" pt_clust_9="21.59894"></scales>
<clustering>
<clus scale="   21.599">  2  9  1 -1</clus>
<clus scale="   91.071">  7  8 -1 -1</clus>
<clus scale="   93.775">  5  6 -1 -1</clus>
<clus scale="   98.377">  2  7  1 -1</clus>
<clus scale="   21.599">  2  5  1 -1</clus>
</clustering>
</event>
<event>
 9    1  0.1671478E-005  0.1169057E+03  0.7546771E-02  0.1257108E+00
         21   -1    0    0  501  502  0.00000000000E+00  0.00000000000E+00  0.16872457934E+03  0.16872457934E+03  0.00000000000E+00 0.  1.
          2   -1    0    0  502    0 -0.00000000000E+00 -0.00000000000E+00 -0.14777088733E+03  0.14777088733E+03  0.00000000000E+00 0. -1.
         23    2    1    2    0    0  0.25432967810E+02  0.35026737270E+02 -0.90906314877E+02  0.13423067422E+03  0.88770533630E+02 0.  0.
         23    2    1    2    0    0 -0.37445563979E+02 -0.12033597593E+02  0.10199355835E+03  0.15450990558E+03  0.10919545432E+03 0.  0.
        -11    1    3    3    0    0 -0.22452138362E+02  0.88119297297E+00  0.37610083197E+01  0.22782014873E+02  0.00000000000E+00 0.  1.
         11    1    3    3    0    0  0.47885106172E+02  0.34145544297E+02 -0.94667323197E+02  0.11144865934E+03  0.00000000000E+00 0. -1.
        -11    1    4    4    0    0  0.36893501913E+02  0.87641745827E+01  0.24602781027E+02  0.45202191028E+02  0.00000000000E+00 0. -1.
         11    1    4    4    0    0 -0.74339065892E+02 -0.20797772176E+02  0.77390777325E+02  0.10930771455E+03  0.00000000000E+00 0.  1.
          2    1    1    2  501    0  0.12012596169E+02 -0.22993139677E+02  0.98664485344E+01  0.27754886878E+02  0.00000000000E+00 0. -1.
<scales pt_clust_5="13000.00000" pt_clust_6="13000.00000" pt_clust_7="13000.00000" pt_clust_8="13000.00000" pt_clust_9="25.94199"></scales>
<clustering>
<clus scale="   25.942">  1  9  2 -1</clus>
<clus scale="   88.771">  5  6 -1 -1</clus>
<clus scale="   98.099">  2  5  1 -1</clus>
<clus scale="  109.195">  7  8 -1 -1</clus>
<clus scale="   25.942">  1  5  2 -1</clus>
</clustering>
</event>
<event>
 9    1  0.1671478E-005  0.1111343E+03  0.7546771E-02  0.1259105E+00
         21   -1    0    0  501  502  0.00000000000E+00  0.00000000000E+00  0.28105819027E+03  0.28105819027E+03  0.00000000000E+00 0.  1.
          3   -1    0    0  502    0 -0.00000000000E+00 -0.00000000000E+00 -0.86591970087E+02  0.86591970087E+02  0.00000000000E+00 0. -1.
         23    2    1    2    0    0  0.41873634437E+02 -0.47006474951E+02  0.23210923435E+02  0.11246265404E+03  0.90255701419E+02 0.  0.
         23    2    1    2    0    0  0.93648923162E+01  0.76616973063E+02  0.72946620293E+02  0.14044098529E+03  0.91894500198E+02 0.  0.
        -11    1    3    3    0    0 -0.39642360801E+01 -0.61364464829E+02  0.18411366258E+02  0.64189493836E+02  0.00000000000E+00 0. -1.
         11    1    3    3    0    0  0.45837870518E+02  0.14357989878E+02  0.47995571774E+01  0.48273160204E+02  0.00000000000E+00 0.  1.
        -11    1    4    4    0    0  0.44570295013E+02  0.55418598306E+02  0.69112031869E+02  0.99167561152E+02  0.00000000000E+00 0.  1.
         11    1    4    4    0    0 -0.35205402697E+02  0.21198374757E+02  0.38345884240E+01  0.41273424135E+02  0.00000000000E+00 0. -1.
          3    1    1    2  501    0 -0.51238526754E+02 -0.29610498112E+02  0.98308676456E+02  0.11474652103E+03  0.00000000000E+00 0. -1.
<scales pt_clust_5="13000.00000" pt_clust_6="13000.00000" pt_clust_7="13000.00000" pt_clust_8="13000.00000" pt_clust_9="59.17912"></scales>
<clustering>
<clus scale="   59.179">  1  9  2 -1</clus>
<clus scale="   90.256">  5  6 -1 -1</clus>
<clus scale="   91.895">  7  8 -1 -1</clus>
<clus scale="  109.783">  2  5  1 -1</clus>
<clus scale="   59.179">  1  5  2 -1</clus>
</clustering>
</event>
<event>
 9    1  0.1671478E-005  0.9229345E+02  0.7546771E-02  0.1298031E+00
         21   -1    0    0  501  502  0.00000000000E+00  0.00000000000E+00  0.61270265435E+02  0.61270265435E+02  0.00000000000E+00 0. -1.
         -2   -1    0    0    0  501 -0.00000000000E+00 -0.00000000000E+00 -0.32581742925E+03  0.32581742925E+03  0.00000000000E+00 0.  1.
         23    2    1    2    0    0  0.55789571018E+01  0.70995953843E+01 -0.18712194119E+03  0.20827289510E+03  0.91002466680E+02 0.  0.
         23    2    1    2    0    0  0.28523463602E+02  0.36035437680E+02 -0.67107364006E+02  0.12286782127E+03  0.92092141117E+02 0.  0.
        -11    1    4    4    0    0 -0.14461894189E+02 -0.20086755882E+02 -0.40237971206E+02  0.47241067644E+02  0.00000000000E+00 0.  1.
         11    1    4    4    0    0  0.42985357791E+02  0.56122193563E+02 -0.26869392800E+02  0.75626753627E+02  0.00000000000E+00 0. -1.
        -13    1    3    3    0    0  0.41307164940E+02  0.10012864395E+02 -0.45833624680E+02  0.62508083318E+02  0.00000000000E+00 0.  1.
         13    1    3    3    0    0 -0.35728207839E+02 -0.29132690104E+01 -0.14128831651E+03  0.14576481178E+03  0.00000000000E+00 0. -1.
         -2    1    1    2    0  502 -0.34102420704E+02 -0.43135033065E+02 -0.10317858612E+02  0.55946978307E+02  0.00000000000E+00 0.  1.
<scales pt_clust_5="13000.00000" pt_clust_6="13000.00000" pt_clust_7="13000.00000" pt_clust_8="13000.00000" pt_clust_9="54.98733"></scales>
<clustering>
<clus scale="   54.987">  1  9  2 -1</clus>
<clus scale="   91.002">  7  8 -1 -1</clus>
<clus scale="   91.206">  2  7  1 -1</clus>
<clus scale="   92.092">  5  6 -1 -1</clus>
<clus scale="   54.987">  1  5  2 -1</clus>
</clustering>
</event>
<event>
 9    1  0.1671478E-005  0.9954160E+02  0.7546771E-02  0.1282731E+00
          1   -1    0    0  502    0 -0.00000000000E+00  0.00000000000E+00  0.16098177059E+03  0.16098177059E+03  0.00000000000E+00 0. -1.
         21   -1    0    0  501  502  0.00000000000E+00 -0.00000000000E+00 -0.24617199543E+03  0.24617199543E+03  0.00000000000E+00 0. -1.
         23    2    1    2    0    0 -0.34277164885E+02  0.13670724134E+02  0.11507113458E+03  0.15150847347E+03  0.91387301030E+02 0.  0.
         23    2    1    2    0    0  0.46218717823E+01 -0.10639758936E+02 -0.60227183521E+02  0.11247339035E+03  0.94278225123E+02 0.  0.
        -13    1    4    4    0    0  0.16454746290E+02  0.12106571720E+02  0.19793755071E+02  0.28445043401E+02  0.00000000000E+00 0. -1.
         13    1    4    4    0    0 -0.11832874507E+02 -0.22746330656E+02 -0.80020938591E+02  0.84028346946E+02  0.00000000000E+00 0.  1.
        -13    1    3    3    0    0 -0.63166245479E+01 -0.26041415483E+02  0.95427477402E+02  0.99118406511E+02  0.00000000000E+00 0.  1.
         13    1    3    3    0    0 -0.27960540337E+02  0.39712139617E+02  0.19643657180E+02  0.52390066963E+02  0.00000000000E+00 0. -1.
          1    1    1    2  501    0  0.29655293103E+02 -0.30309651985E+01 -0.14003417590E+03  0.14317190220E+03  0.00000000000E+00 0. -1.
<scales pt_clust_5="13000.00000" pt_clust_6="13000.00000" pt_clust_7="13000.00000" pt_clust_8="13000.00000" pt_clust_9="29.80978"></scales>
<clustering>
<clus scale="   29.810">  2  9  1 -1</clus>
<clus scale="   91.387">  7  8 -1 -1</clus>
<clus scale="   94.278">  5  6 -1 -1</clus>
<clus scale="   96.808">  1  7  2 -1</clus>
<clus scale="   29.810">  2  5  1 -1</clus>
</clustering>
</event>
<event>
 9    1  0.1671478E-005  0.1068548E+03  0.7546771E-02  0.1267559E+00
         21   -1    0    0  501  502  0.00000000000E+00  0.00000000000E+00  0.50479926525E+03  0.50479926525E+03  0.00000000000E+00 0. -1.
         -1   -1    0    0    0  501 -0.00000000000E+00 -0.00000000000E+00 -0.35214640776E+02  0.35214640776E+02  0.00000000000E+00 0.  1.
         23    2    1    2    0    0 -0.14705632404E+02 -0.55827792863E+02  0.12997217332E+03  0.17011119107E+03  0.93338381216E+02 0.  0.
         23    2    1    2    0    0 -0.88489108469E+01  0.46937170231E+02  0.17116864036E+03  0.19958777999E+03  0.90858006286E+02 0.  0.
        -11    1    3    3    0    0 -0.53028966981E+02 -0.26388180134E+02  0.88147450033E+02  0.10619971910E+03  0.00000000000E+00 0. -1.
         11    1    3    3    0    0  0.38323334577E+02 -0.29439612729E+02  0.41824723287E+02  0.63911471965E+02  0.00000000000E+00 0.  1.
        -11    1    4    4    0    0 -0.24513659207E+02 -0.10929188627E+02  0.11268304053E+03  0.11583537575E+03  0.00000000000E+00 0. -1.
         11    1    4    4    0    0  0.15664748360E+02  0.57866358858E+02  0.58485599827E+02  0.83752404239E+02  0.00000000000E+00 0.  1.
         -1    1    1    2    0  502  0.23554543251E+02  0.88906226316E+01  0.16844381079E+03  0.17031493497E+03  0.00000000000E+00 0.  1.
<scales pt_clust_5="13000.00000" pt_clust_6="13000.00000" pt_clust_7="13000.00000" pt_clust_8="13000.00000" pt_clust_9="25.17657"></scales>
<clustering>
<clus scale="   25.177">  1  9  2 -1</clus>
<clus scale="   90.858">  7  8 -1 -1</clus>
<clus scale="   93.338">  5  6 -1 -1</clus>
<clus scale="  104.695">  1  7  2 -1</clus>
<clus scale="   25.177">  1  5  2 -1</clus>
</clustering>
</event>
<event>
 9    1  0.1671478E-005  0.1313586E+03  0.7546771E-02  0.1225527E+00
          2   -1    0    0  502    0 -0.00000000000E+00  0.00000000000E+00  0.69226459020E+02  0.69226459020E+02  0.00000000000E+00 0. -1.
         21   -1    0    0  501  502  0.00000000000E+00 -0.00000000000E+00 -0.37127759439E+03  0.37127759439E+03  0.00000000000E+00 0.  1.
         23    2    1    2    0    0  0.89253143849E+02  0.42159975002E+02 -0.40940553595E+02  0.13946229799E+03  0.89610359077E+02 0.  0.
         23    2    1    2    0    0 -0.87619285667E+02 -0.19580602498E+02 -0.21694467109E+03  0.25141187307E+03  0.89902171221E+02 0.  0.
        -11    1    4    4    0    0 -0.96221503348E+02  0.94823043993E+01 -0.16187771286E+03  0.18855472873E+03  0.00000000000E+00 0. -1.
         11    1    4    4    0    0  0.86022176818E+01 -0.29062906898E+02 -0.55066958226E+02  0.62857144340E+02  0.00000000000E+00 0.  1.
        -11    1    3    3    0    0  0.91891738780E+02  0.58637766318E+01 -0.45638351360E+02  0.10276835431E+03  0.00000000000E+00 0.  1.
         11    1    3    3    0    0 -0.26385949307E+01  0.36296198370E+02  0.46977977652E+01  0.36693943685E+02  0.00000000000E+00 0. -1.
          2    1    1    2  501    0 -0.16338581826E+01 -0.22579372504E+02 -0.44165910685E+02  0.49629882348E+02  0.00000000000E+00 0. -1.
<scales pt_clust_5="13000.00000" pt_clust_6="13000.00000" pt_clust_7="13000.00000" pt_clust_8="13000.00000" pt_clust_9="22.63841"></scales>
<clustering>
<clus scale="   22.638">  2  9  1 -1</clus>
<clus scale="   89.610">  7  8 -1 -1</clus>
<clus scale="   89.902">  5  6 -1 -1</clus>
<clus scale="  131.159">  1  7  2 -1</clus>
<clus scale="   22.638">  2  5  1 -1</clus>
</clustering>
</event>
<event>
 9    1  0.1671478E-005  0.9315976E+02  0.7546771E-02  0.1295377E+00
         -1   -1    0    0    0  501 -0.00000000000E+00  0.00000000000E+00  0.15226262539E+03  0.15226262539E+03  0.00000000000E+00 0.  1.
         21   -1    0    0  501  502  0.00000000000E+00 -0.00000000000E+00 -0.14070193614E+03  0.14070193614E+03  0.00000000000E+00 0.  1.
         23    2    1    2    0    0 -0.10347300214E+02 -0.17408148289E+02  0.90503345685E+02  0.12999026146E+03  0.91085137346E+02 0.  0.
         23    2    1    2    0    0 -0.25423702370E+02  0.26304351282E+02 -0.31894994851E+02  0.10320650344E+03  0.91082424854E+02 0.  0.
        -11    1    3    3    0    0  0.26192588582E+02  0.22079296861E+02  0.15285823551E+02  0.37512710487E+02  0.00000000000E+00 0. -1.
         11    1    3    3    0    0 -0.36539888796E+02 -0.39487445150E+02  0.75217522134E+02  0.92477550971E+02  0.00000000000E+00 0.  1.
        -13    1    4    4    0    0 -0.54495931448E+02  0.29614233913E+02 -0.38778523397E+02  0.73147681244E+02  0.00000000000E+00 0.  1.
         13    1    4    4    0    0  0.29072229078E+02 -0.33098826314E+01  0.68835285459E+01  0.30058822196E+02  0.00000000000E+00 0. -1.
         -1    1    1    2    0  502  0.35771002584E+02 -0.88962029928E+01 -0.47047661589E+02  0.59767796635E+02  0.00000000000E+00 0.  1.
<scales pt_clust_5="13000.00000" pt_clust_6="13000.00000" pt_clust_7="13000.00000" pt_clust_8="13000.00000" pt_clust_9="36.86064"></scales>
<clustering>
<clus scale="   36.861">  2  9  1 -1</clus>
<clus scale="   91.082">  7  8 -1 -1</clus>
<clus scale="   91.085">  5  6 -1 -1</clus>
<clus scale="   93.157">  2  7  1 -1</clus>
<clus scale="   36.861">  2  5  1 -1</clus>
</clustering>
</event>
<event>
 9    1  0.1671478E-005  0.1073147E+03  0.7546771E-02  0.1266377E+00
         21   -1    0    0  501  502  0.00000000000E+00  0.00000000000E+00  0.35241711201E+03  0.35241711201E+03  0.00000000000E+00 0.  1.
         -3   -1    0    0    0  501 -0.00000000000E+00 -0.00000000000E+00 -0.13686014622E+03  0.13686014622E+03  0.00000000000E+00 0.  1.
         23    2    1    2    0    0  0.47021775796E+02  0.32721188224E+02 -0.86637493750E+02  0.13990932208E+03  0.93738143379E+02 0.  0.
         23    2    1    2    0    0 -0.13844601081E+02 -0.33906383759E+02  0.87452110299E+02  0.13207457185E+03  0.91948382777E+02 0.  0.
        -11    1    3    3    0    0 -0.19681030582E+02  0.73679160156E+01  0.70274556295E+01  0.22158842114E+02  0.00000000000E+00 0. -1.
         11    1    3    3    0    0  0.66702806378E+02  0.25353272208E+02 -0.93664949379E+02  0.11775047997E+03  0.00000000000E+00 0.  1.
        -11    1    4    4    0    0 -0.11044172936E+02  0.26296647405E+02  0.35089062440E+01  0.28736733350E+02  0.00000000000E+00 0.  1.
         11    1    4    4    0    0 -0.28004281447E+01 -0.60203031165E+02  0.83943204055E+02  0.10333783850E+03  0.00000000000E+00 0. -1.
         -3    1    1    2    0  502 -0.33177174715E+02  0.11851955356E+01  0.21474234925E+03  0.21729336430E+03  0.00000000000E+00 0.  1.
<scales pt_clust_5="13000.00000" pt_clust_6="13000.00000" pt_clust_7="13000.00000" pt_clust_8="13000.00000" pt_clust_9="33.19834"></scales>
<clustering>
<clus scale="   33.198">  1  9  2 -1</clus>
<clus scale="   91.948">  7  8 -1 -1</clus>
<clus scale="   93.738">  5  6 -1 -1</clus>
<clus scale="  105.755">  1  7  2 -1</clus>
<clus scale="   33.198">  1  5  2 -1</clus>
</clustering>
</event>
<event>
 9    1  0.1671478E-005  0.1019136E+03  0.7546771E-02  0.1281295E+00
         21   -1    0    0  501  502  0.00000000000E+00  0.00000000000E+00  0.59364833230E+02  0.59364833230E+02  0.00000000000E+00 0.  1.
         -1   -1    0    0    0  501 -0.00000000000E+00 -0.00000000000E+00 -0.27306963858E+03  0.27306963858E+03  0.00000000000E+00 0.  1.
         23    2    1    2    0    0  0.44508177335E+02 -0.24717329460E+02 -0.19102981665E+03  0.21739483428E+03  0.90422336265E+02 0.  0.
         23    2    1    2    0    0 -0.38713890416E+02  0.21071506178E+01 -0.12888439789E+02  0.89730143507E+02  0.79888555993E+02 0.  0.
        -11    1    3    3    0    0 -0.21432645306E+02 -0.13564381021E+02 -0.10718355825E+03  0.11014384175E+03  0.00000000000E+00 0. -1.
         11    1    3    3    0    0  0.65940822641E+02 -0.11152948439E+02 -0.83846258404E+02  0.10725099253E+03  0.00000000000E+00 0.  1.
        -11    1    4    4    0    0 -0.44068764211E+02 -0.24540244458E+02  0.13111311508E+02  0.52117041997E+02  0.00000000000E+00 0.  1.
         11    1    4    4    0    0  0.53548737943E+01  0.26647395076E+02 -0.25999751297E+02  0.37613101510E+02  0.00000000000E+00 0. -1.
         -1    1    1    2    0  502 -0.57942869184E+01  0.22610178842E+02 -0.97865489082E+01  0.25309494023E+02  0.00000000000E+00 0.  1.
<scales pt_clust_5="13000.00000" pt_clust_6="13000.00000" pt_clust_7="13000.00000" pt_clust_8="13000.00000" pt_clust_9="23.34082"></scales>
<clustering>
<clus scale="   23.341">  1  9  2 -1</clus>
<clus scale="   79.889">  7  8 -1 -1</clus>
<clus scale="   90.422">  5  6 -1 -1</clus>
<clus scale="   92.695">  1  7  2 -1</clus>
<clus scale="   23.341">  1  5  2 -1</clus>
</clustering>
</event>
<event>
 9    1  0.1671478E-005  0.1230364E+03  0.7546771E-02  0.1238209E+00
         21   -1    0    0  501  502  0.00000000000E+00  0.00000000000E+00  0.55184336055E+02  0.55184336055E+02  0.00000000000E+00 0. -1.
          2   -1    0    0  502    0 -0.00000000000E+00 -0.00000000000E+00 -0.55728797680E+03  0.55728797680E+03  0.00000000000E+00 0. -1.
         23    2    1    2    0    0  0.32852017363E+02 -0.75873234600E+02 -0.43419181425E+03  0.45127525052E+03  0.91053925736E+02 0.  0.
         23    2    1    2    0    0 -0.13654853975E+02  0.84122139911E+02 -0.52469912535E+02  0.13521575699E+03  0.90924252853E+02 0.  0.
        -11    1    4    4    0    0 -0.23011610947E+02  0.88471791075E+01  0.18899649338E+02  0.31064506461E+02  0.00000000000E+00 0.  1.
         11    1    4    4    0    0  0.93567569724E+01  0.75274960803E+02 -0.71369561873E+02  0.10415125053E+03  0.00000000000E+00 0. -1.
        -11    1    3    3    0    0  0.73868424269E+01  0.21255092605E+02 -0.85878317438E+02  0.88777417222E+02  0.00000000000E+00 0.  1.
         11    1    3    3    0    0  0.25465174936E+02 -0.97128327205E+02 -0.34831349681E+03  0.36249783329E+03  0.00000000000E+00 0. -1.
          2    1    1    2  501    0 -0.19197163388E+02 -0.82489053102E+01 -0.15441913962E+02  0.25981305352E+02  0.00000000000E+00 0. -1.
<scales pt_clust_5="13000.00000" pt_clust_6="13000.00000" pt_clust_7="13000.00000" pt_clust_8="13000.00000" pt_clust_9="20.89439"></scales>
<clustering>
<clus scale="   20.894">  1  9  2 -1</clus>
<clus scale="   90.924">  5  6 -1 -1</clus>
<clus scale="   91.054">  7  8 -1 -1</clus>
<clus scale="  122.940">  1  5  2 -1</clus>
<clus scale="   20.894">  1  5  2 -1</clus>
</clustering>
</event>
<event>
 9    1  0.1671478E-005  0.9087254E+02  0.7546771E-02  0.1301728E+00
         21   -1    0    0  501  502  0.00000000000E+00  0.00000000000E+00  0.64256405136E+02  0.64256405136E+02  0.00000000000E+00 0.  1.
          1   -1    0    0  502    0 -0.00000000000E+00 -0.00000000000E+00 -0.19461541085E+03  0.19461541085E+03  0.00000000000E+00 0. -1.
         23    2    1    2    0    0  0.14912529633E+02  0.15347438478E+02 -0.11119900922E+03  0.14433746192E+03  0.89499474039E+02 0.  0.
         23    2    1    2    0    0  0.73587591179E+01 -0.83697511581E+01 -0.87922199778E+01  0.88996358595E+02  0.87856955563E+02 0.  0.
        -13    1    4    4    0    0 -0.38176262453E+02 -0.17687093297E+02 -0.47758602427E+01  0.42344646949E+02  0.00000000000E+00 0. -1.
         13    1    4    4    0    0  0.45535021571E+02  0.93173421392E+01 -0.40163597351E+01  0.46651711646E+02  0.00000000000E+00 0.  1.
        -13    1    3    3    0    0  0.49595704815E+02  0.12907220844E+02 -0.90135900398E+02  0.10368611685E+03  0.00000000000E+00 0.  1.
         13    1    3    3    0    0 -0.34683175182E+02  0.24402176334E+01 -0.21063108822E+02  0.40651345071E+02  0.00000000000E+00 0. -1.
          1    1    1    2  501    0 -0.22271288751E+02 -0.69776873195E+01 -0.10367776518E+02  0.25537995475E+02  0.00000000000E+00 0. -1.
<scales pt_clust_5="13000.00000" pt_clust_6="13000.00000" pt_clust_7="13000.00000" pt_clust_8="13000.00000" pt_clust_9="23.33878"></scales>
<clustering>
<clus scale="   23.339">  1  9  2 -1</clus>
<clus scale="   87.857">  5  6 -1 -1</clus>
<clus scale="   89.255">  1  5  2 -1</clus>
<clus scale="   89.499">  7  8 -1 -1</clus>
<clus scale="   23.339">  1  5  2 -1</clus>
</clustering>
</event>
<event>
 9    1  0.1671478E-005  0.1254664E+03  0.7546771E-02  0.1241646E+00
         21   -1    0    0  501  502  0.00000000000E+00  0.00000000000E+00  0.69232041342E+02  0.69232041342E+02  0.00000000000E+00 0.  1.
          2   -1    0    0  502    0 -0.00000000000E+00 -0.00000000000E+00 -0.27389931609E+03  0.27389931609E+03  0.00000000000E+00 0. -1.
         23    2    1    2    0    0 -0.50547271471E+02  0.41417281669E+02 -0.15261230485E+03  0.19933671302E+03  0.11033671961E+03 0.  0.
         23    2    1    2    0    0  0.25259522212E+02 -0.48442864467E+02 -0.52073357109E+02  0.11754908451E+03  0.90118800310E+02 0.  0.
        -13    1    3    3    0    0  0.25479399761E+02  0.45448088749E+02 -0.62074765011E+02  0.81043229417E+02  0.00000000000E+00 0. -1.
         13    1    3    3    0    0 -0.76026671232E+02 -0.40308070805E+01 -0.90537539834E+02  0.11829348361E+03  0.00000000000E+00 0.  1.
        -13    1    4    4    0    0 -0.16746019414E+01 -0.26375362273E+02 -0.72509080274E+02  0.77175324741E+02  0.00000000000E+00 0. -1.
         13    1    4    4    0    0  0.26934124153E+02 -0.22067502194E+02  0.20435723164E+02  0.40373759773E+02  0.00000000000E+00 0.  1.
          2    1    1    2  501    0  0.25287749259E+02  0.70255827976E+01  0.18387205059E-01  0.26245559897E+02  0.00000000000E+00 0. -1.
<scales pt_clust_5="13000.00000" pt_clust_6="13000.00000" pt_clust_7="13000.00000" pt_clust_8="13000.00000" pt_clust_9="26.24555"></scales>
<clustering>
<clus scale="   26.246">  1  9  2 -1</clus>
<clus scale="   90.119">  7  8 -1 -1</clus>
<clus scale="  108.116">  1  7  2 -1</clus>
<clus scale="  110.337">  5  6 -1 -1</clus>
<clus scale="   26.246">  1  5  2 -1</clus>
</clustering>
</event>
<event>
 9    1  0.1671478E-005  0.9648985E+02  0.7546771E-02  0.1290909E+00
          1   -1    0    0  502    0 -0.00000000000E+00  0.00000000000E+00  0.25510719981E+03  0.25510719981E+03  0.00000000000E+00 0. -1.
         21   -1    0    0  501  502  0.00000000000E+00 -0.00000000000E+00 -0.89433333419E+02  0.89433333419E+02  0.00000000000E+00 0. -1.
         23    2    1    2    0    0 -0.53365317891E+01 -0.12119748896E+02  0.13523711045E+03  0.16358044441E+03  0.91072053153E+02 0.  0.
         23    2    1    2    0    0 -0.10483628954E+02 -0.12410664310E+02  0.78038385342E+02  0.12512162735E+03  0.96444289507E+02 0.  0.
        -13    1    3    3    0    0 -0.37989913519E+02 -0.35322011159E+02  0.72533281405E+02  0.89173734434E+02  0.00000000000E+00 0. -1.
         13    1    3    3    0    0  0.32653381729E+02  0.23202262263E+02  0.62703829044E+02  0.74406709975E+02  0.00000000000E+00 0.  1.
        -13    1    4    4    0    0  0.39419064736E+02 -0.53338929856E+01  0.11040472124E+02  0.41282019133E+02  0.00000000000E+00 0.  1.
         13    1    4    4    0    0 -0.49902693690E+02 -0.70767713246E+01  0.66997913218E+02  0.83839608214E+02  0.00000000000E+00 0. -1.
          1    1    1    2  501    0  0.15820160743E+02  0.24530413206E+02 -0.47601629401E+02  0.55838461473E+02  0.00000000000E+00 0. -1.
<scales pt_clust_5="13000.00000" pt_clust_6="13000.00000" pt_clust_7="13000.00000" pt_clust_8="13000.00000" pt_clust_9="29.18936"></scales>
<clustering>
<clus scale="   29.189">  2  9  1 -1</clus>
<clus scale="   91.072">  5  6 -1 -1</clus>
<clus scale="   91.120">  1  5  2 -1</clus>
<clus scale="   96.444">  7  8 -1 -1</clus>
<clus scale="   29.189">  2  5  1 -1</clus>
</clustering>
</event>
<event>
 9    1  0.1671478E-005  0.1171064E+03  0.7546771E-02  0.1248689E+00
          2   -1    0    0  502    0 -0.00000000000E+00  0.00000000000E+00  0.59605627913E+03  0.59605627913E+03  0.00000000000E+00 0. -1.
         21   -1    0    0  501  502  0.00000000000E+00 -0.00000000000E+00 -0.68071025302E+02  0.68071025302E+02  0.00000000000E+00 0.  1.
         23    2    1    2    0    0  0.41126738328E+02  0.54215224663E+02  0.46118300381E+03  0.47532684900E+03  0.92817838738E+02 0.  0.
         23    2    1    2    0    0 -0.81957095218E+02 -0.50141855297E+02  0.66246183020E+02  0.14776364766E+03  0.90633148984E+02 0.  0.
        -13    1    3    3    0    0  0.39260320240E+02  0.78306926818E+02  0.40135983391E+03  0.41080781859E+03  0.00000000000E+00 0. -1.
         13    1    3    3    0    0  0.18664180877E+01 -0.24091702155E+02  0.59823169896E+02  0.64519030414E+02  0.00000000000E+00 0.  1.
        -13    1    4    4    0    0 -0.45680037607E+02 -0.12203209907E+02 -0.16238778744E+02  0.49992820514E+02  0.00000000000E+00 0.  1.
         13    1    4    4    0    0 -0.36277057611E+02 -0.37938645390E+02  0.82484961764E+02  0.97770827143E+02  0.00000000000E+00 0. -1.
          2    1    1    2  501    0  0.40830356890E+02 -0.40733693659E+01  0.55606699899E+00  0.41036807774E+02  0.00000000000E+00 0. -1.
<scales pt_clust_5="13000.00000" pt_clust_6="13000.00000" pt_clust_7="13000.00000" pt_clust_8="13000.00000" pt_clust_9="41.03304"></scales>
<clustering>
<clus scale="   41.033">  2  9  1 -1</clus>
<clus scale="   90.633">  7  8 -1 -1</clus>
<clus scale="   92.818">  5  6 -1 -1</clus>
<clus scale="  115.383">  2  7  1 -1</clus>
<clus scale="   41.033">  2  5  1 -1</clus>
</clustering>
</event>
<event>
 9    1  0.1671478E-005  0.1368283E+03  0.7546771E-02  0.1219157E+00
         21   -1    0    0  501  502  0.00000000000E+00  0.00000000000E+00  0.46217426202E+03  0.46217426202E+03  0.00000000000E+00 0. -1.
          3   -1    0    0  502    0 -0.00000000000E+00 -0.00000000000E+00 -0.16644734323E+03  0.16644734323E+03  0.00000000000E+00 0. -1.
         23    2    1    2    0    0 -0.71858092911E+02 -0.35328936436E+02 -0.90150484974E+01  0.12017578408E+03  0.89158447240E+02 0.  0.
         23    2    1    2    0    0  0.59259428987E+02  0.11834696153E+03 -0.27791532134E+02  0.16547461674E+03  0.95350911368E+02 0.  0.
        -13    1    4    4    0    0 -0.29774795838E+01  0.80132734709E+02 -0.42830473818E+02  0.90909680696E+02  0.00000000000E+00 0.  1.
         13    1    4    4    0    0  0.62236908571E+02  0.38214226824E+02  0.15038941684E+02  0.74564936044E+02  0.00000000000E+00 0. -1.
        -13    1    3    3    0    0  0.10824190387E+02 -0.21169330868E+02  0.20352832304E+02  0.31297626902E+02  0.00000000000E+00 0.  1.
         13    1    3    3    0    0 -0.82682283298E+02 -0.14159605568E+02 -0.29367880802E+02  0.88878157182E+02  0.00000000000E+00 0. -1.
          3    1    1    2  501    0  0.12598663924E+02 -0.83018025098E+02  0.33253349942E+03  0.34297120442E+03  0.00000000000E+00 0. -1.
<scales pt_clust_5="13000.00000" pt_clust_6="13000.00000" pt_clust_7="13000.00000" pt_clust_8="13000.00000" pt_clust_9="83.96856"></scales>
<clustering>
<clus scale="   83.969">  1  9  2 -1</clus>
<clus scale="   89.158">  7  8 -1 -1</clus>
<clus scale="   95.351">  5  6 -1 -1</clus>
<clus scale="  132.587">  2  7  1 -1</clus>
<clus scale="   83.969">  1  5  2 -1</clus>
</clustering>
</event>
<event>
 9    1  0.1671478E-005  0.3379325E+03  0.7546771E-02  0.1067729E+00
         21   -1    0    0  501  502  0.00000000000E+00  0.00000000000E+00  0.19724805710E+03  0.19724805710E+03  0.00000000000E+00 0. -1.
          1   -1    0    0  502    0 -0.00000000000E+00 -0.00000000000E+00 -0.12874571582E+04  0.12874571582E+04  0.00000000000E+00 0. -1.
         23    2    1    2    0    0  0.28967279619E+03  0.11373879252E+03 -0.69186979051E+03  0.76439690489E+03  0.93658845843E+02 0.  0.
         23    2    1    2    0    0 -0.32563742685E+03 -0.11764167180E+03 -0.49846404566E+03  0.61384869503E+03  0.92002819898E+02 0.  0.
        -11    1    4    4    0    0 -0.21482429218E+03 -0.11098529391E+03 -0.38843658663E+03  0.45754802350E+03  0.00000000000E+00 0. -1.
         11    1    4    4    0    0 -0.11081313467E+03 -0.66563778934E+01 -0.11002745903E+03  0.15630067154E+03  0.00000000000E+00 0.  1.
        -13    1    3    3    0    0  0.34084423484E+02 -0.15601821440E+02 -0.62018484305E+02  0.72466938337E+02  0.00000000000E+00 0.  1.
         13    1    3    3    0    0  0.25558837271E+03  0.12934061396E+03 -0.62985130621E+03  0.69192996655E+03  0.00000000000E+00 0. -1.
          1    1    1    2  501    0  0.35964630661E+02  0.39028792829E+01  0.10012473509E+03  0.10645961535E+03  0.00000000000E+00 0. -1.
<scales pt_clust_5="13000.00000" pt_clust_6="13000.00000" pt_clust_7="13000.00000" pt_clust_8="13000.00000" pt_clust_9="36.17578"></scales>
<clustering>
<clus scale="   36.176">  1  9  2 -1</clus>
<clus scale="   92.003">  5  6 -1 -1</clus>
<clus scale="   93.659">  7  8 -1 -1</clus>
<clus scale="  337.477">  1  5  2 -1</clus>
<clus scale="   36.176">  1  5  2 -1</clus>
</clustering>
</event>
<event>
 9    1  0.1671478E-005  0.1238377E+03  0.7546771E-02  0.1245985E+00
         21   -1    0    0  501  502  0.00000000000E+00  0.00000000000E+00  0.88576821129E+02  0.88576821129E+02  0.00000000000E+00 0.  1.
          2   -1    0    0  502    0 -0.00000000000E+00 -0.00000000000E+00 -0.28353388960E+03  0.28353388960E+03  0.00000000000E+00 0. -1.
         23    2    1    2    0    0 -0.23844654689E+02 -0.16205810156E+02 -0.87690077484E+02  0.12924976720E+03  0.90469645701E+02 0.  0.
         23    2    1    2    0    0  0.68771850554E+02  0.39194328626E+02 -0.12774409704E+03  0.18839777448E+03  0.11361955939E+03 0.  0.
        -11    1    4    4    0    0  0.59109381418E+02  0.78345161097E+02 -0.89696537001E+02  0.13295620327E+03  0.00000000000E+00 0. -1.
         11    1    4    4    0    0  0.96624691362E+01 -0.39150832471E+02 -0.38047560042E+02  0.55441571210E+02  0.00000000000E+00 0.  1.
        -11    1    3    3    0    0 -0.30032645702E+02  0.13237241734E+02 -0.93068950611E+02  0.98686442557E+02  0.00000000000E+00 0. -1.
         11    1    3    3    0    0  0.61879910135E+01 -0.29443051890E+02  0.53788731273E+01  0.30563324648E+02  0.00000000000E+00 0.  1.
          2    1    1    2  501    0 -0.44927195866E+02 -0.22988518470E+02  0.20477106055E+02  0.54463169043E+02  0.00000000000E+00 0. -1.
<scales pt_clust_5="13000.00000" pt_clust_6="13000.00000" pt_clust_7="13000.00000" pt_clust_8="13000.00000" pt_clust_9="50.46707"></scales>
<clustering>
<clus scale="   50.467">  1  9  2 -1</clus>
<clus scale="   90.470">  7  8 -1 -1</clus>
<clus scale="  103.010">  2  7  1 -1</clus>
<clus scale="  113.620">  5  6 -1 -1</clus>
<clus scale="   50.467">  1  5  2 -1</clus>
</clustering>
</event>
<event>
 9    1  0.1892000E-005  0.9322392E+02  0.7546771E-02  0.1300478E+00
         -1   -1    0    0    0  501 -0.00000000000E+00  0.00000000000E+00  0.18388682762E+03  0.18388682762E+03  0.00000000000E+00 0.  1.
         21   -1    0    0  501  502  0.00000000000E+00 -0.00000000000E+00 -0.23668269431E+03  0.23668269431E+03  0.00000000000E+00 0.  1.
         23    2    1    2    0    0  0.16057344875E+02  0.11919704752E+02  0.15260101840E+03  0.17466625504E+03  0.82591235283E+02 0.  0.
         23    2    1    2    0    0  0.15261328811E+02 -0.17046559557E+02 -0.10730942695E+03  0.14280965212E+03  0.91410011903E+02 0.  0.
        -13    1    4    4    0    0  0.25578747180E+02 -0.44701736003E+02 -0.28964055510E+02  0.59088357742E+02  0.00000000000E+00 0.  1.
         13    1    4    4    0    0 -0.10317418368E+02  0.27655176447E+02 -0.78345371440E+02  0.83721294377E+02  0.00000000000E+00 0. -1.
        -13    1    3    3    0    0  0.60728534928E+01 -0.31343142594E+02  0.10421727735E+03  0.10899776619E+03  0.00000000000E+00 0. -1.
         13    1    3    3    0    0  0.99844913826E+01  0.43262847346E+02  0.48383741052E+02  0.65668488842E+02  0.00000000000E+00 0.  1.
         -1    1    1    2    0  502 -0.31318673687E+02  0.51268548045E+01 -0.98087458142E+02  0.10309361477E+03  0.00000000000E+00 0.  1.
<scales pt_clust_5="13000.00000" pt_clust_6="13000.00000" pt_clust_7="13000.00000" pt_clust_8="13000.00000" pt_clust_9="31.73553"></scales>
<clustering>
<clus scale="   31.736">  2  9  1 -1</clus>
<clus scale="   82.591">  7  8 -1 -1</clus>
<clus scale="   84.594">  1  7  2 -1</clus>
<clus scale="   91.410">  5  6 -1 -1</clus>
<clus scale="   31.736">  2  5  1 -1</clus>
</clustering>
</event>
<event>
 9    1  0.1671478E-005  0.2951198E+03  0.7546771E-02  0.1106289E+00
         21   -1    0    0  501  502  0.00000000000E+00  0.00000000000E+00  0.11234292583E+03  0.11234292583E+03  0.00000000000E+00 0. -1.
          1   -1    0    0  502    0 -0.00000000000E+00 -0.00000000000E+00 -0.15040475794E+04  0.15040475794E+04  0.00000000000E+00 0. -1.
         23    2    1    2    0    0 -0.32876114001E+02 -0.15382752318E+03 -0.24797566496E+03  0.30743178804E+03  0.90986966808E+02 0.  0.
         23    2    1    2    0    0  0.26609117619E+03  0.24567464753E+03 -0.80598021977E+03  0.88836462504E+03  0.91798942732E+02 0.  0.
        -11    1    3    3    0    0 -0.54648579128E+00 -0.22573477519E+02  0.25903211995E+01  0.22728182900E+02  0.00000000000E+00 0.  1.
         11    1    3    3    0    0 -0.32329628210E+02 -0.13125404566E+03 -0.25056598616E+03  0.28470360514E+03  0.00000000000E+00 0. -1.
        -13    1    4    4    0    0  0.91350790852E+02  0.44725163881E+02 -0.15931988519E+03  0.18901886967E+03  0.00000000000E+00 0.  1.
         13    1    4    4    0    0  0.17474038534E+03  0.20094948364E+03 -0.64666033457E+03  0.69934575537E+03  0.00000000000E+00 0. -1.
          1    1    1    2  501    0 -0.23321506219E+03 -0.91847124350E+02 -0.33774876884E+03  0.42059409213E+03  0.00000000000E+00 0. -1.
<scales pt_clust_5="13000.00000" pt_clust_6="13000.00000" pt_clust_7="13000.00000" pt_clust_8="13000.00000" pt_clust_9="280.47930"></scales>
<clustering>
<clus scale="   90.987">  5  6 -1 -1</clus>
<clus scale="   91.799">  7  8 -1 -1</clus>
<clus scale="  181.721">  2  5  1 -1</clus>
<clus scale="  280.479">  1  9  2 -1</clus>
<clus scale="  280.479">  1  5  2 -1</clus>
</clustering>
</event>
<event>
 9    1  0.1671478E-005  0.1175109E+03  0.7546771E-02  0.1247971E+00
          2   -1    0    0  502    0 -0.00000000000E+00  0.00000000000E+00  0.27969585016E+03  0.27969585016E+03  0.00000000000E+00 0. -1.
         21   -1    0    0  501  502  0.00000000000E+00 -0.00000000000E+00 -0.85020199333E+02  0.85020199333E+02  0.00000000000E+00 0. -1.
         23    2    1    2    0    0  0.76201696115E+02 -0.33014570370E+02  0.17928344173E+03  0.21632217044E+03  0.88068544888E+02 0.  0.
         23    2    1    2    0    0 -0.60414075538E+02 -0.15886934400E+01  0.18727642861E+02  0.11021325637E+03  0.90243297824E+02 0.  0.
        -11    1    3    3    0    0  0.50210553785E+02 -0.60844993062E+02  0.92623542845E+02  0.12166484119E+03  0.00000000000E+00 0. -1.
         11    1    3    3    0    0  0.25991142330E+02  0.27830422692E+02  0.86659898883E+02  0.94657329253E+02  0.00000000000E+00 0.  1.
        -13    1    4    4    0    0 -0.54400867981E+02  0.28034984444E+02 -0.16899790963E+02  0.63490296301E+02  0.00000000000E+00 0.  1.
         13    1    4    4    0    0 -0.60132075575E+01 -0.29623677884E+02  0.35627433825E+02  0.46722960067E+02  0.00000000000E+00 0. -1.
          2    1    1    2  501    0 -0.15787620576E+02  0.34603263810E+02 -0.33354337666E+01  0.38180622680E+02  0.00000000000E+00 0. -1.
<scales pt_clust_5="13000.00000" pt_clust_6="13000.00000" pt_clust_7="13000.00000" pt_clust_8="13000.00000" pt_clust_9="38.03465"></scales>
<clustering>
<clus scale="   38.035">  2  9  1 -1</clus>
<clus scale="   88.069">  5  6 -1 -1</clus>
<clus scale="   90.243">  7  8 -1 -1</clus>
<clus scale="  115.849">  1  5  2 -1</clus>
<clus scale="   38.035">  2  5  1 -1</clus>
</clustering>
</event>
<event>
 9    1  0.1671478E-005  0.1047588E+03  0.7546771E-02  0.1272323E+00
          1   -1    0    0  502    0 -0.00000000000E+00  0.00000000000E+00  0.20973688875E+03  0.20973688875E+03  0.00000000000E+00 0. -1.
         21   -1    0    0  501  502  0.00000000000E+00 -0.00000000000E+00 -0.77078897532E+02  0.77078897532E+02  0.00000000000E+00 0.  1.
         23    2    1    2    0    0 -0.26096556028E+02 -0.15225367191E+02  0.96412643858E+02  0.14024290909E+03  0.97261675960E+02 0.  0.
         23    2    1    2    0    0  0.55743811691E+02  0.77656221154E+01  0.38863422098E+02  0.11588962639E+03  0.93554061902E+02 0.  0.
        -11    1    4    4    0    0 -0.95044219338E+00  0.36549915419E+02 -0.73407673066E+01  0.37291909607E+02  0.00000000000E+00 0.  1.
         11    1    4    4    0    0  0.56694253884E+02 -0.28784293304E+02  0.46204189405E+02  0.78597716780E+02  0.00000000000E+00 0. -1.
        -11    1    3    3    0    0  0.31568673313E+02  0.15266488125E+02  0.22507940289E+02  0.41668383344E+02  0.00000000000E+00 0.  1.
         11    1    3    3    0    0 -0.57665229342E+02 -0.30491855317E+02  0.73904703569E+02  0.98574525742E+02  0.00000000000E+00 0. -1.
          1    1    1    2  501    0 -0.29647255663E+02  0.74597450761E+01 -0.26180747366E+01  0.30683250810E+02  0.00000000000E+00 0. -1.
<scales pt_clust_5="13000.00000" pt_clust_6="13000.00000" pt_clust_7="13000.00000" pt_clust_8="13000.00000" pt_clust_9="30.57135"></scales>
<clustering>
<clus scale="   30.571">  2  9  1 -1</clus>
<clus scale="   93.554">  5  6 -1 -1</clus>
<clus scale="   97.262">  7  8 -1 -1</clus>
<clus scale="  101.326">  2  5  1 -1</clus>
<clus scale="   30.571">  2  5  1 -1</clus>
</clustering>
</event>
<event>
 9    1  0.1671478E-005  0.3777580E+03  0.7546771E-02  0.1056414E+00
         21   -1    0    0  501  502  0.00000000000E+00  0.00000000000E+00  0.62707550135E+03  0.62707550135E+03  0.00000000000E+00 0.  1.
          2   -1    0    0  502    0 -0.00000000000E+00 -0.00000000000E+00 -0.66128350643E+03  0.66128350643E+03  0.00000000000E+00 0. -1.
         23    2    1    2    0    0  0.29451297444E+03  0.12044539465E+03 -0.27865874955E+03  0.43282326831E+03  0.91871092753E+02 0.  0.
         23    2    1    2    0    0 -0.19513699356E+03 -0.43736093653E+03  0.14573325785E+03  0.50904448645E+03  0.92331314792E+02 0.  0.
        -11    1    4    4    0    0 -0.17565273447E+03 -0.42882123104E+03  0.12648139205E+03  0.48035307208E+03  0.00000000000E+00 0.  1.
         11    1    4    4    0    0 -0.19484259091E+02 -0.85397054828E+01  0.19251865802E+02  0.28691414376E+02  0.00000000000E+00 0. -1.
        -11    1    3    3    0    0  0.10726637800E+03  0.50786897345E+02 -0.16411714614E+03  0.20253350945E+03  0.00000000000E+00 0.  1.
         11    1    3    3    0    0  0.18724659644E+03  0.69658497309E+02 -0.11454160341E+03  0.23028975886E+03  0.00000000000E+00 0. -1.
          2    1    1    2  501    0 -0.99375980883E+02  0.31691554187E+03  0.98717486622E+02  0.34649125302E+03  0.00000000000E+00 0. -1.
<scales pt_clust_5="13000.00000" pt_clust_6="13000.00000" pt_clust_7="13000.00000" pt_clust_8="13000.00000" pt_clust_9="366.30050"></scales>
<clustering>
<clus scale="   91.871">  7  8 -1 -1</clus>
<clus scale="   92.331">  5  6 -1 -1</clus>
<clus scale="  331.188">  2  7  1 -1</clus>
<clus scale="  366.301">  1  9  2 -1</clus>
<clus scale="  366.301">  1  5  2 -1</clus>
</clustering>
</event>
<event>
 9    1  0.1671478E-005  0.1093384E+03  0.7546771E-02  0.1263051E+00
         21   -1    0    0  501  502  0.00000000000E+00  0.00000000000E+00  0.51370095447E+03  0.51370095447E+03  0.00000000000E+00 0. -1.
         -1   -1    0    0    0  501 -0.00000000000E+00 -0.00000000000E+00 -0.35058527922E+02  0.35058527922E+02  0.00000000000E+00 0.  1.
         23    2    1    2    0    0  0.59127601247E+01 -0.64343432449E+02  0.17841952700E+03  0.21207894012E+03  0.94704335688E+02 0.  0.
         23    2    1    2    0    0  0.31270769838E+02  0.42075748732E+02  0.17743466453E+03  0.20646758094E+03  0.91638267797E+02 0.  0.
        -11    1    4    4    0    0  0.60740800672E+02  0.27567261069E+02  0.82992482294E+02  0.10647605771E+03  0.00000000000E+00 0.  1.
         11    1    4    4    0    0 -0.29470030834E+02  0.14508487663E+02  0.94442182232E+02  0.99991523223E+02  0.00000000000E+00 0. -1.
        -11    1    3    3    0    0  0.19831086098E+02  0.20538165161E+02  0.47999866373E+02  0.55848682848E+02  0.00000000000E+00 0.  1.
         11    1    3    3    0    0 -0.13918325973E+02 -0.84881597611E+02  0.13041966063E+03  0.15623025728E+03  0.00000000000E+00 0. -1.
         -1    1    1    2    0  502 -0.37183529963E+02  0.22267683717E+02  0.12278823503E+03  0.13021296134E+03  0.00000000000E+00 0.  1.
<scales pt_clust_5="13000.00000" pt_clust_6="13000.00000" pt_clust_7="13000.00000" pt_clust_8="13000.00000" pt_clust_9="43.34126"></scales>
<clustering>
<clus scale="   43.341">  1  9  2 -1</clus>
<clus scale="   91.638">  5  6 -1 -1</clus>
<clus scale="   94.704">  7  8 -1 -1</clus>
<clus scale="  106.694">  1  5  2 -1</clus>
<clus scale="   43.341">  1  5  2 -1</clus>
</clustering>
</event>
<event>
 9    1  0.1671478E-005  0.1459990E+03  0.7546771E-02  0.1205818E+00
          4   -1    0    0  502    0 -0.00000000000E+00  0.00000000000E+00  0.12499761255E+03  0.12499761255E+03  0.00000000000E+00 0. -1.
         21   -1    0    0  501  502  0.00000000000E+00 -0.00000000000E+00 -0.26694779573E+03  0.26694779573E+03  0.00000000000E+00 0. -1.
         23    2    1    2    0    0 -0.12567172089E+03 -0.40152915358E+02  0.77593331246E+01  0.15998073740E+03  0.90155371693E+02 0.  0.
         23    2    1    2    0    0  0.80821534070E+02  0.27405959465E+02 -0.82235570668E+02  0.14994785869E+03  0.91861113970E+02 0.  0.
        -11    1    4    4    0    0  0.10094018972E+02  0.50040910970E+02 -0.36076832497E+02  0.62510157837E+02  0.00000000000E+00 0.  1.
         11    1    4    4    0    0  0.70727515097E+02 -0.22634951505E+02 -0.46158738170E+02  0.87437700856E+02  0.00000000000E+00 0. -1.
        -13    1    3    3    0    0  0.33430704468E+00 -0.27502284975E+02  0.18090720546E+02  0.32920534775E+02  0.00000000000E+00 0.  1.
         13    1    3    3    0    0 -0.12600602793E+03 -0.12650630384E+02 -0.10331387421E+02  0.12706020262E+03  0.00000000000E+00 0. -1.
          4    1    1    2  501    0  0.44850186817E+02  0.12746955894E+02 -0.67473945633E+02  0.82016812187E+02  0.00000000000E+00 0. -1.
<scales pt_clust_5="13000.00000" pt_clust_6="13000.00000" pt_clust_7="13000.00000" pt_clust_8="13000.00000" pt_clust_9="46.62643"></scales>
<clustering>
<clus scale="   46.626">  2  9  1 -1</clus>
<clus scale="   90.155">  7  8 -1 -1</clus>
<clus scale="   91.861">  5  6 -1 -1</clus>
<clus scale="  144.932">  1  7  2 -1</clus>
<clus scale="   46.626">  2  5  1 -1</clus>
</clustering>
</event>
<event>
 9    1  0.1671478E-005  0.9574533E+02  0.7546771E-02  0.1289836E+00
         21   -1    0    0  501  502  0.00000000000E+00  0.00000000000E+00  0.77052107633E+02  0.77052107633E+02  0.00000000000E+00 0.  1.
          1   -1    0    0  502    0 -0.00000000000E+00 -0.00000000000E+00 -0.20689273548E+03  0.20689273548E+03  0.00000000000E+00 0. -1.
         23    2    1    2    0    0 -0.24604933122E+02 -0.59860899691E+01 -0.12149740107E+03  0.15418920140E+03  0.91495657577E+02 0.  0.
         23    2    1    2    0    0  0.37689159676E+02 -0.18527473095E+02 -0.14872410962E+02  0.10121195581E+03  0.90878662922E+02 0.  0.
        -11    1    4    4    0    0  0.67071159561E+02 -0.66390861264E+01 -0.16787467239E+02  0.69458167019E+02  0.00000000000E+00 0.  1.
         11    1    4    4    0    0 -0.29381999884E+02 -0.11888386969E+02  0.19150562771E+01  0.31753788789E+02  0.00000000000E+00 0. -1.
        -13    1    3    3    0    0 -0.58216255593E+00 -0.39416762336E+02 -0.19055258237E+02  0.43784962405E+02  0.00000000000E+00 0.  1.
         13    1    3    3    0    0 -0.24022770566E+02  0.33430672367E+02 -0.10244214284E+03  0.11040423900E+03  0.00000000000E+00 0. -1.
          1    1    1    2  501    0 -0.13084226555E+02  0.24513563064E+02  0.65291841862E+01  0.28543685900E+02  0.00000000000E+00 0. -1.
<scales pt_clust_5="13000.00000" pt_clust_6="13000.00000" pt_clust_7="13000.00000" pt_clust_8="13000.00000" pt_clust_9="27.78690"></scales>
<clustering>
<clus scale="   27.787">  1  9  2 -1</clus>
<clus scale="   90.879">  5  6 -1 -1</clus>
<clus scale="   91.496">  7  8 -1 -1</clus>
<clus scale="   95.156">  1  5  2 -1</clus>
<clus scale="   27.787">  1  5  2 -1</clus>
</clustering>
</event>
<event>
 9    1  0.1671478E-005  0.2427775E+03  0.7546771E-02  0.1118260E+00
          2   -1    0    0  502    0 -0.00000000000E+00  0.00000000000E+00  0.10432420740E+04  0.10432420740E+04  0.00000000000E+00 0. -1.
         21   -1    0    0  501  502  0.00000000000E+00 -0.00000000000E+00 -0.97753833149E+02  0.97753833149E+02  0.00000000000E+00 0.  1.
         23    2    1    2    0    0 -0.50125799793E+02 -0.21448244528E+03  0.67836647260E+03  0.71907131432E+03  0.91472229624E+02 0.  0.
         23    2    1    2    0    0  0.47833998482E+02  0.23755412121E+03  0.14040445955E+03  0.29310366709E+03  0.86465574005E+02 0.  0.
        -13    1    3    3    0    0  0.81707136500E+01 -0.66821471669E+02  0.32172755858E+03  0.32869513472E+03  0.00000000000E+00 0.  1.
         13    1    3    3    0    0 -0.58296513443E+02 -0.14766097361E+03  0.35663891402E+03  0.39037617960E+03  0.00000000000E+00 0. -1.
        -13    1    4    4    0    0  0.99863823073E+01  0.19468772701E+03  0.82374567019E+02  0.21163319251E+03  0.00000000000E+00 0.  1.
         13    1    4    4    0    0  0.37847616174E+02  0.42866394197E+02  0.58029892533E+02  0.81470474584E+02  0.00000000000E+00 0. -1.
          2    1    1    2  501    0  0.22918013114E+01 -0.23071675928E+02  0.12671730874E+03  0.12882092577E+03  0.00000000000E+00 0. -1.
<scales pt_clust_5="13000.00000" pt_clust_6="13000.00000" pt_clust_7="13000.00000" pt_clust_8="13000.00000" pt_clust_9="23.18523"></scales>
<clustering>
<clus scale="   23.185">  2  9  1 -1</clus>
<clus scale="   86.466">  7  8 -1 -1</clus>
<clus scale="   91.472">  5  6 -1 -1</clus>
<clus scale="  240.936">  2  7  1 -1</clus>
<clus scale="   23.185">  2  5  1 -1</clus>
</clustering>
</event>
<event>
 9    1  0.1671478E-005  0.1091543E+03  0.7546771E-02  0.1270882E+00
         21   -1    0    0  501  502  0.00000000000E+00  0.00000000000E+00  0.31681631168E+02  0.31681631168E+02  0.00000000000E+00 0.  1.
          2   -1    0    0  502    0 -0.00000000000E+00 -0.00000000000E+00 -0.51349397295E+03  0.51349397295E+03  0.00000000000E+00 0. -1.
         23    2    1    2    0    0  0.13342667405E+01  0.56790844604E+01 -0.31065342085E+03  0.32386237576E+03  0.91363331135E+02 0.  0.
         23    2    1    2    0    0 -0.17550097822E+02 -0.21652538046E+02 -0.16154069978E+03  0.19660261171E+03  0.10853732496E+03 0.  0.
        -11    1    3    3    0    0  0.23376393509E+02  0.42574004045E+02 -0.16589384616E+03  0.17285765759E+03  0.00000000000E+00 0. -1.
         11    1    3    3    0    0 -0.22042126769E+02 -0.36894919584E+02 -0.14475957470E+03  0.15100471817E+03  0.00000000000E+00 0.  1.
        -11    1    4    4    0    0 -0.36846277539E+02  0.11848370205E+02 -0.15190620729E+03  0.15675945859E+03  0.00000000000E+00 0. -1.
         11    1    4    4    0    0  0.19296179717E+02 -0.33500908251E+02 -0.96344924985E+01  0.39843153126E+02  0.00000000000E+00 0.  1.
          2    1    1    2  501    0  0.16215831082E+02  0.15973453586E+02 -0.96182211477E+01  0.24710616649E+02  0.00000000000E+00 0. -1.
<scales pt_clust_5="13000.00000" pt_clust_6="13000.00000" pt_clust_7="13000.00000" pt_clust_8="13000.00000" pt_clust_9="22.76191"></scales>
<clustering>
<clus scale="   22.762">  1  9  2 -1</clus>
<clus scale="   91.363">  5  6 -1 -1</clus>
<clus scale="   92.095">  2  5  1 -1</clus>
<clus scale="  108.537">  7  8 -1 -1</clus>
<clus scale="   22.762">  1  5  2 -1</clus>
</clustering>
</event>
<event>
 9    1  0.1671478E-005  0.1023056E+03  0.7546771E-02  0.1276772E+00
         -3   -1    0    0    0  501 -0.00000000000E+00  0.00000000000E+00  0.60768936451E+02  0.60768936451E+02  0.00000000000E+00 0.  1.
         21   -1    0    0  501  502  0.00000000000E+00 -0.00000000000E+00 -0.44874353237E+03  0.44874353237E+03  0.00000000000E+00 0.  1.
         23    2    1    2    0    0  0.40798202437E+02 -0.41650489111E+02 -0.44048094276E+02  0.11988307797E+03  0.95039261412E+02 0.  0.
         23    2    1    2    0    0  0.22003334220E+02  0.22042524597E+02 -0.11182307220E+03  0.14838157792E+03  0.92426584836E+02 0.  0.
        -11    1    4    4    0    0  0.51945484036E+02 -0.10624507268E+02 -0.56176573081E+02  0.77246493963E+02  0.00000000000E+00 0.  1.
         11    1    4    4    0    0 -0.29942149816E+02  0.32667031864E+02 -0.55646499115E+02  0.71135083961E+02  0.00000000000E+00 0. -1.
        -11    1    3    3    0    0  0.20721566503E+02 -0.64315154143E+02 -0.14068353926E+01  0.67585512920E+02  0.00000000000E+00 0.  1.
         11    1    3    3    0    0  0.20076635934E+02  0.22664665032E+02 -0.42641258883E+02  0.52297565054E+02  0.00000000000E+00 0. -1.
         -3    1    1    2    0  502 -0.62801536657E+02  0.19607964514E+02 -0.23210342945E+03  0.24124781293E+03  0.00000000000E+00 0.  1.
<scales pt_clust_5="13000.00000" pt_clust_6="13000.00000" pt_clust_7="13000.00000" pt_clust_8="13000.00000" pt_clust_9="65.79138"></scales>
<clustering>
<clus scale="   65.791">  2  9  1 -1</clus>
<clus scale="   92.427">  5  6 -1 -1</clus>
<clus scale="   95.039">  7  8 -1 -1</clus>
<clus scale="   99.883">  2  5  1 -1</clus>
<clus scale="   65.791">  2  5  1 -1</clus>
</clustering>
</event>
<event>
 9    1  0.1671478E-005  0.1635792E+03  0.7546771E-02  0.1184796E+00
         21   -1    0    0  501  502  0.00000000000E+00  0.00000000000E+00  0.21904441151E+03  0.21904441151E+03  0.00000000000E+00 0.  1.
         -3   -1    0    0    0  501 -0.00000000000E+00 -0.00000000000E+00 -0.15135951159E+03  0.15135951159E+03  0.00000000000E+00 0.  1.
         23    2    1    2    0    0 -0.59143823477E+02 -0.11222155123E+03  0.21930066793E+02  0.15581635740E+03  0.87784628425E+02 0.  0.
         23    2    1    2    0    0  0.76213994461E+02  0.13303922289E+03  0.57047551696E+02  0.18539353063E+03  0.87225743129E+02 0.  0.
        -13    1    3    3    0    0 -0.20216885784E+02 -0.65838062773E+02 -0.30871793773E+02  0.75474768177E+02  0.00000000000E+00 0.  1.
         13    1    3    3    0    0 -0.38926937693E+02 -0.46383488454E+02  0.52801860566E+02  0.80341589221E+02  0.00000000000E+00 0. -1.
        -13    1    4    4    0    0  0.50734034557E+02  0.14086477973E+03  0.49449521453E+02  0.15767714991E+03  0.00000000000E+00 0.  1.
         13    1    4    4    0    0  0.25479959904E+02 -0.78255568401E+01  0.75980302430E+01  0.27716380718E+02  0.00000000000E+00 0. -1.
         -3    1    1    2    0  502 -0.17070170984E+02 -0.20817671664E+02 -0.11292718573E+02  0.29194035070E+02  0.00000000000E+00 0.  1.
<scales pt_clust_5="13000.00000" pt_clust_6="13000.00000" pt_clust_7="13000.00000" pt_clust_8="13000.00000" pt_clust_9="26.92150"></scales>
<clustering>
<clus scale="   26.921">  1  9  2 -1</clus>
<clus scale="   87.226">  7  8 -1 -1</clus>
<clus scale="   87.785">  5  6 -1 -1</clus>
<clus scale="  163.280">  1  7  2 -1</clus>
<clus scale="   26.921">  1  5  2 -1</clus>
</clustering>
</event>
<event>
 9    1  0.1671478E-005  0.1068216E+03  0.7546771E-02  0.1269547E+00
         21   -1    0    0  501  502  0.00000000000E+00  0.00000000000E+00  0.42292416559E+02  0.42292416559E+02  0.00000000000E+00 0.  1.
         -3   -1    0    0    0  501 -0.00000000000E+00 -0.00000000000E+00 -0.41848435791E+03  0.41848435791E+03  0.00000000000E+00 0.  1.
         23    2    1    2    0    0 -0.27365888465E+02  0.25526740444E+02 -0.20456157195E+03  0.22815965835E+03  0.93866323324E+02 0.  0.
         23    2    1    2    0    0  0.57936356689E+02 -0.42305737651E+02 -0.16023519763E+03  0.19593008551E+03  0.86987832382E+02 0.  0.
        -13    1    4    4    0    0 -0.22578449746E+02 -0.11804298665E+02 -0.25590829181E+02  0.36111194913E+02  0.00000000000E+00 0. -1.
         13    1    4    4    0    0  0.80514806435E+02 -0.30501438986E+02 -0.13464436845E+03  0.15981889060E+03  0.00000000000E+00 0.  1.
        -13    1    3    3    0    0 -0.10005140318E+02  0.46286527814E+02 -0.19301106234E+03  0.19873554205E+03  0.00000000000E+00 0. -1.
         13    1    3    3    0    0 -0.17360748148E+02 -0.20759787370E+02 -0.11550509605E+02  0.29424116300E+02  0.00000000000E+00 0.  1.
         -3    1    1    2    0  502 -0.30570468224E+02  0.16778997207E+02 -0.11395171769E+02  0.36687030602E+02  0.00000000000E+00 0.  1.
<scales pt_clust_5="13000.00000" pt_clust_6="13000.00000" pt_clust_7="13000.00000" pt_clust_8="13000.00000" pt_clust_9="34.87246"></scales>
<clustering>
<clus scale="   34.872">  1  9  2 -1</clus>
<clus scale="   86.988">  5  6 -1 -1</clus>
<clus scale="   93.866">  7  8 -1 -1</clus>
<clus scale="  100.831">  1  5  2 -1</clus>
<clus scale="   34.872">  1  5  2 -1</clus>
</clustering>
</event>
<event>
 9    1  0.1671478E-005  0.1170738E+03  0.7546771E-02  0.1250102E+00
         21   -1    0    0  501  502  0.00000000000E+00  0.00000000000E+00  0.52494371247E+03  0.52494371247E+03  0.00000000000E+00 0. -1.
          1   -1    0    0  502    0 -0.00000000000E+00 -0.00000000000E+00 -0.17310401969E+03  0.17310401969E+03  0.00000000000E+00 0. -1.
         23    2    1    2    0    0 -0.42155397068E+02 -0.53494750559E+02 -0.12287436002E+03  0.16977677553E+03  0.95327222337E+02 0.  0.
         23    2    1    2    0    0  0.95068249568E+02  0.57812997495E+01  0.41577979305E+03  0.43580696192E+03  0.89350300727E+02 0.  0.
        -13    1    3    3    0    0 -0.53740430679E+02  0.29921012211E+01 -0.33442689575E+02  0.63367184294E+02  0.00000000000E+00 0.  1.
         13    1    3    3    0    0  0.11585033611E+02 -0.56486851780E+02 -0.89431670446E+02  0.10640959123E+03  0.00000000000E+00 0. -1.
        -13    1    4    4    0    0 -0.10931069390E+01 -0.20748101053E+02  0.25052658311E+02  0.32547108451E+02  0.00000000000E+00 0.  1.
         13    1    4    4    0    0  0.96161356507E+02  0.26529400803E+02  0.39072713474E+03  0.40325985346E+03  0.00000000000E+00 0. -1.
          1    1    1    2  501    0 -0.52912852500E+02  0.47713450809E+02  0.58934259747E+02  0.92463994720E+02  0.00000000000E+00 0. -1.
<scales pt_clust_5="13000.00000" pt_clust_6="13000.00000" pt_clust_7="13000.00000" pt_clust_8="13000.00000" pt_clust_9="71.24846"></scales>
<clustering>
<clus scale="   71.248">  1  9  2 -1</clus>
<clus scale="   89.350">  7  8 -1 -1</clus>
<clus scale="   95.327">  5  6 -1 -1</clus>
<clus scale="  112.261">  1  7  2 -1</clus>
<clus scale="   71.248">  1  5  2 -1</clus>
</clustering>
</event>
<event>
 9    1  0.1671478E-005  0.1323441E+03  0.7546771E-02  0.1224703E+00
          1   -1    0    0  502    0 -0.00000000000E+00  0.00000000000E+00  0.30019200181E+03  0.30019200181E+03  0.00000000000E+00 0. -1.
         21   -1    0    0  501  502  0.00000000000E+00 -0.00000000000E+00 -0.79431796751E+02  0.79431796751E+02  0.00000000000E+00 0. -1.
         23    2    1    2    0    0  0.51389486720E+02 -0.61024257188E+02  0.94972859826E+02  0.15366175084E+03  0.90704190948E+02 0.  0.
         23    2    1    2    0    0 -0.70696162024E+02  0.95729365947E+02  0.97650536174E+02  0.17729098539E+03  0.87945480010E+02 0.  0.
        -11    1    3    3    0    0  0.28881063076E+02 -0.63892152951E+02  0.10704127292E+03  0.12796154548E+03  0.00000000000E+00 0. -1.
         11    1    3    3    0    0  0.22508423644E+02  0.28678957628E+01 -0.12068413089E+02  0.25700205360E+02  0.00000000000E+00 0.  1.
        -11    1    4    4    0    0 -0.10759559464E+02  0.26993379402E+02  0.79041705246E+02  0.84214023889E+02  0.00000000000E+00 0.  1.
         11    1    4    4    0    0 -0.59936602560E+02  0.68735986546E+02  0.18608830928E+02  0.93076961496E+02  0.00000000000E+00 0. -1.
          1    1    1    2  501    0  0.19306675304E+02 -0.34705108759E+02  0.28136809059E+02  0.48671062340E+02  0.00000000000E+00 0. -1.
<scales pt_clust_5="13000.00000" pt_clust_6="13000.00000" pt_clust_7="13000.00000" pt_clust_8="13000.00000" pt_clust_9="39.71388"></scales>
<clustering>
<clus scale="   39.714">  2  9  1 -1</clus>
<clus scale="   87.945">  7  8 -1 -1</clus>
<clus scale="   90.704">  5  6 -1 -1</clus>
<clus scale="  130.469">  2  7  1 -1</clus>
<clus scale="   39.714">  2  5  1 -1</clus>
</clustering>
</event>
<event>
 9    1  0.1671478E-005  0.1761284E+03  0.7546771E-02  0.1192950E+00
          2   -1    0    0  502    0 -0.00000000000E+00  0.00000000000E+00  0.10850933762E+04  0.10850933762E+04  0.00000000000E+00 0. -1.
         21   -1    0    0  501  502  0.00000000000E+00 -0.00000000000E+00 -0.82627699528E+02  0.82627699528E+02  0.00000000000E+00 0. -1.
         23    2    1    2    0    0  0.69284243428E+02 -0.33823545333E+02  0.25680837821E+03  0.27906314455E+03  0.77339232737E+02 0.  0.
         23    2    1    2    0    0 -0.21215416135E+03  0.28471170657E+02  0.70154224486E+03  0.73903641093E+03  0.90516847141E+02 0.  0.
        -11    1    3    3    0    0  0.55327528376E+02  0.37428488884E+01  0.21115666174E+03  0.21831692585E+03  0.00000000000E+00 0. -1.
         11    1    3    3    0    0  0.13956715051E+02 -0.37566394221E+02  0.45651716466E+02  0.60746218698E+02  0.00000000000E+00 0.  1.
        -11    1    4    4    0    0 -0.88218586195E+02  0.10196474002E+02  0.44210814103E+03  0.45093912604E+03  0.00000000000E+00 0. -1.
         11    1    4    4    0    0 -0.12393557516E+03  0.18274696655E+02  0.25943410383E+03  0.28809728489E+03  0.00000000000E+00 0.  1.
          2    1    1    2  501    0  0.14286991793E+03  0.53523746759E+01  0.44115053577E+02  0.14962152023E+03  0.00000000000E+00 0. -1.
<scales pt_clust_5="13000.00000" pt_clust_6="13000.00000" pt_clust_7="13000.00000" pt_clust_8="13000.00000" pt_clust_9="151.08905"></scales>
<clustering>
<clus scale="   77.339">  5  6 -1 -1</clus>
<clus scale="   90.517">  7  8 -1 -1</clus>
<clus scale="  109.205">  1  5  2 -1</clus>
<clus scale="  151.089">  2  9  1 -1</clus>
<clus scale="  151.089">  2  5  1 -1</clus>
</clustering>
</event>
<event>
 9    1  0.1671478E-005  0.1149827E+03  0.7546771E-02  0.1252456E+00
          1   -1    0    0  502    0 -0.00000000000E+00  0.00000000000E+00  0.47383640229E+03  0.47383640229E+03  0.00000000000E+00 0. -1.
         21   -1    0    0  501  502  0.00000000000E+00 -0.00000000000E+00 -0.64607029847E+02  0.64607029847E+02  0.00000000000E+00 0.  1.
         23    2    1    2    0    0  0.31239316369E+02 -0.73325489452E+02  0.34763900684E+03  0.36863829119E+03  0.93213670482E+02 0.  0.
         23    2    1    2    0    0  0.13585689760E+02  0.32863679187E+02  0.32879508116E+02  0.10294145423E+03  0.90836603682E+02 0.  0.
        -11    1    3    3    0    0 -0.13088884407E+02 -0.27075382538E+02  0.23327674330E+02  0.38060157964E+02  0.00000000000E+00 0.  1.
         11    1    3    3    0    0  0.44328200776E+02 -0.46250106915E+02  0.32431133251E+03  0.33057813322E+03  0.00000000000E+00 0. -1.
        -13    1    4    4    0    0  0.48475731072E+02  0.14161744274E+02  0.37756872553E+02  0.63055792191E+02  0.00000000000E+00 0. -1.
         13    1    4    4    0    0 -0.34890041312E+02  0.18701934913E+02 -0.48773644366E+01  0.39885662037E+02  0.00000000000E+00 0.  1.
          1    1    1    2  501    0 -0.44825006129E+02  0.40461810266E+02  0.28710857492E+02  0.66863686725E+02  0.00000000000E+00 0. -1.
<scales pt_clust_5="13000.00000" pt_clust_6="13000.00000" pt_clust_7="13000.00000" pt_clust_8="13000.00000" pt_clust_9="60.38575"></scales>
<clustering>
<clus scale="   60.386">  2  9  1 -1</clus>
<clus scale="   90.837">  7  8 -1 -1</clus>
<clus scale="   93.214">  5  6 -1 -1</clus>
<clus scale="  113.064">  2  7  1 -1</clus>
<clus scale="   60.386">  2  5  1 -1</clus>
</clustering>
</event>
<event>
 9    1  0.1671478E-005  0.9323615E+02  0.7546771E-02  0.1295263E+00
         21   -1    0    0  501  502  0.00000000000E+00  0.00000000000E+00  0.23900479752E+03  0.23900479752E+03  0.00000000000E+00 0. -1.
          2   -1    0    0  502    0 -0.00000000000E+00 -0.00000000000E+00 -0.22515864812E+03  0.22515864812E+03  0.00000000000E+00 0. -1.
         23    2    1    2    0    0  0.27493969083E+02  0.36920105594E+02 -0.11692165158E+03  0.15491663232E+03  0.90606168818E+02 0.  0.
         23    2    1    2    0    0 -0.26112868187E+01  0.17866783016E+02 -0.59304122898E+02  0.10987758979E+03  0.90719705638E+02 0.  0.
        -11    1    3    3    0    0 -0.17616068670E+02  0.40669519406E+02 -0.94554343200E+02  0.10442633529E+03  0.00000000000E+00 0.  1.
         11    1    3    3    0    0  0.45110037753E+02 -0.37494138119E+01 -0.22367308382E+02  0.50490297031E+02  0.00000000000E+00 0. -1.
        -11    1    4    4    0    0 -0.34876312388E+02 -0.21954562584E+02 -0.27958509810E+02  0.49799982478E+02  0.00000000000E+00 0.  1.
         11    1    4    4    0    0  0.32265025569E+02  0.39821345600E+02 -0.31345613088E+02  0.60077607311E+02  0.00000000000E+00 0. -1.
          2    1    1    2  501    0 -0.24882682265E+02 -0.54786888610E+02  0.19007192388E+03  0.19936922352E+03  0.00000000000E+00 0. -1.
<scales pt_clust_5="13000.00000" pt_clust_6="13000.00000" pt_clust_7="13000.00000" pt_clust_8="13000.00000" pt_clust_9="60.17268"></scales>
<clustering>
<clus scale="   60.173">  1  9  2 -1</clus>
<clus scale="   90.606">  5  6 -1 -1</clus>
<clus scale="   90.720">  7  8 -1 -1</clus>
<clus scale="   93.126">  2  5  1 -1</clus>
<clus scale="   60.173">  1  5  2 -1</clus>
</clustering>
</event>
<event>
 9    1  0.1671478E-005  0.1274744E+03  0.7546771E-02  0.1231933E+00
         21   -1    0    0  501  502  0.00000000000E+00  0.00000000000E+00  0.10796433601E+03  0.10796433601E+03  0.00000000000E+00 0. -1.
         -3   -1    0    0    0  501 -0.00000000000E+00 -0.00000000000E+00 -0.33905805622E+03  0.33905805622E+03  0.00000000000E+00 0.  1.
         23    2    1    2    0    0  0.90599014407E+02 -0.79572798779E+02 -0.13982088795E+03  0.20731910147E+03  0.94293782448E+02 0.  0.
         23    2    1    2    0    0 -0.62625963298E+02 -0.22702774456E+02 -0.30601954309E+02  0.11754053089E+03  0.91879647080E+02 0.  0.
        -11    1    3    3    0    0  0.46446184458E+02  0.12899444044E+02 -0.62597102195E+02  0.79006587767E+02  0.00000000000E+00 0. -1.
         11    1    3    3    0    0  0.44152829948E+02 -0.92472242824E+02 -0.77223785754E+02  0.12831251370E+03  0.00000000000E+00 0.  1.
        -13    1    4    4    0    0 -0.36622772225E+01  0.28529232901E+02 -0.26835745125E+02  0.39338106472E+02  0.00000000000E+00 0.  1.
         13    1    4    4    0    0 -0.58963686075E+02 -0.51232007357E+02 -0.37662091849E+01  0.78202424419E+02  0.00000000000E+00 0. -1.
         -3    1    1    2    0  502 -0.27973051109E+02  0.10227557324E+03 -0.60670877950E+02  0.12216275987E+03  0.00000000000E+00 0.  1.
<scales pt_clust_5="13000.00000" pt_clust_6="13000.00000" pt_clust_7="13000.00000" pt_clust_8="13000.00000" pt_clust_9="106.03200"></scales>
<clustering>
<clus scale="   91.880">  7  8 -1 -1</clus>
<clus scale="   94.294">  5  6 -1 -1</clus>
<clus scale="  106.032">  1  9  2 -1</clus>
<clus scale="  125.699">  1  7  2 -1</clus>
<clus scale="  106.032">  1  5  2 -1</clus>
</clustering>
</event>
<event>
 9    1  0.1671478E-005  0.1024058E+03  0.7546771E-02  0.1277470E+00
          1   -1    0    0  502    0 -0.00000000000E+00  0.00000000000E+00  0.21107209666E+03  0.21107209666E+03  0.00000000000E+00 0. -1.
         21   -1    0    0  501  502  0.00000000000E+00 -0.00000000000E+00 -0.72200164964E+02  0.72200164964E+02  0.00000000000E+00 0.  1.
         23    2    1    2    0    0  0.25181969617E+02 -0.40114421198E+02  0.98187349445E+02  0.14322513604E+03  0.92894486501E+02 0.  0.
         23    2    1    2    0    0 -0.34605617672E+02  0.20922019095E+02  0.57472636463E+02  0.11286271450E+03  0.88315393476E+02 0.  0.
        -13    1    4    4    0    0 -0.94910940338E+01  0.22579977800E+02  0.77130710179E+02  0.80926403084E+02  0.00000000000E+00 0. -1.
         13    1    4    4    0    0 -0.25114523639E+02 -0.16579587049E+01 -0.19658073716E+02  0.31936311416E+02  0.00000000000E+00 0.  1.
        -13    1    3    3    0    0  0.48771362954E+02 -0.53133749056E+02  0.49167557605E+02  0.87288543658E+02  0.00000000000E+00 0.  1.
         13    1    3    3    0    0 -0.23589393336E+02  0.13019327858E+02  0.49019791839E+02  0.55936592387E+02  0.00000000000E+00 0. -1.
          1    1    1    2  501    0  0.94236480551E+01  0.19192402103E+02 -0.16788054216E+02  0.27184411075E+02  0.00000000000E+00 0. -1.
<scales pt_clust_5="13000.00000" pt_clust_6="13000.00000" pt_clust_7="13000.00000" pt_clust_8="13000.00000" pt_clust_9="21.38115"></scales>
<clustering>
<clus scale="   21.381">  2  9  1 -1</clus>
<clus scale="   88.315">  5  6 -1 -1</clus>
<clus scale="   92.894">  7  8 -1 -1</clus>
<clus scale="   98.271">  2  5  1 -1</clus>
<clus scale="   21.381">  2  5  1 -1</clus>
</clustering>
</event>
<event>
 9    1  0.1671478E-005  0.1386257E+03  0.7546771E-02  0.1216839E+00
         21   -1    0    0  501  502  0.00000000000E+00  0.00000000000E+00  0.28727152175E+03  0.28727152175E+03  0.00000000000E+00 0. -1.
         -2   -1    0    0    0  501 -0.00000000000E+00 -0.00000000000E+00 -0.17073867128E+03  0.17073867128E+03  0.00000000000E+00 0.  1.
         23    2    1    2    0    0 -0.88756065588E+02 -0.43255209591E+02 -0.60943175413E+02  0.14706886955E+03  0.90368852076E+02 0.  0.
         23    2    1    2    0    0  0.97833900080E+02  0.22757376705E+02  0.80628287829E+01  0.14005130158E+03  0.97262467931E+02 0.  0.
        -11    1    3    3    0    0 -0.47129239231E+01 -0.49168370712E+02 -0.26456527671E+02  0.56032920563E+02  0.00000000000E+00 0. -1.
         11    1    3    3    0    0 -0.84043141665E+02  0.59131611205E+01 -0.34486647742E+02  0.91035948986E+02  0.00000000000E+00 0.  1.
        -11    1    4    4    0    0  0.56618342040E+02  0.29992600117E+02 -0.40614367695E+02  0.75859868049E+02  0.00000000000E+00 0.  1.
         11    1    4    4    0    0  0.41215558040E+02 -0.72352234127E+01  0.48677196478E+02  0.64191433535E+02  0.00000000000E+00 0. -1.
         -2    1    1    2    0  502 -0.90778344923E+01  0.20497832887E+02  0.16941319710E+03  0.17089002189E+03  0.00000000000E+00 0.  1.
<scales pt_clust_5="13000.00000" pt_clust_6="13000.00000" pt_clust_7="13000.00000" pt_clust_8="13000.00000" pt_clust_9="22.41803"></scales>
<clustering>
<clus scale="   22.418">  1  9  2 -1</clus>
<clus scale="   90.369">  5  6 -1 -1</clus>
<clus scale="   97.262">  7  8 -1 -1</clus>
<clus scale="  133.879">  2  5  1 -1</clus>
<clus scale="   22.418">  1  5  2 -1</clus>
</clustering>
</event>
<event>
 9    1  0.1671478E-005  0.2900241E+03  0.7546771E-02  0.1132555E+00
          2   -1    0    0  502    0 -0.00000000000E+00  0.00000000000E+00  0.11844029825E+04  0.11844029825E+04  0.00000000000E+00 0. -1.
         21   -1    0    0  501  502  0.00000000000E+00 -0.00000000000E+00 -0.94546838879E+02  0.94546838879E+02  0.00000000000E+00 0. -1.
         23    2    1    2    0    0  0.17292514936E+02  0.35975041104E+02  0.21183151887E+03  0.23390506691E+03  0.90806130198E+02 0.  0.
         23    2    1    2    0    0 -0.13489455287E+03  0.22634209654E+03  0.45267974650E+03  0.53166498716E+03  0.91221820978E+02 0.  0.
        -11    1    4    4    0    0 -0.98642126645E+02  0.22104415248E+03  0.39873038144E+03  0.46645118027E+03  0.00000000000E+00 0. -1.
         11    1    4    4    0    0 -0.36252426228E+02  0.52979440590E+01  0.53949365060E+02  0.65213806890E+02  0.00000000000E+00 0.  1.
        -13    1    3    3    0    0  0.53733003196E+02  0.30633517748E+02  0.12103567571E+03  0.13592381262E+03  0.00000000000E+00 0.  1.
         13    1    3    3    0    0 -0.36440488260E+02  0.53415233564E+01  0.90795843159E+02  0.97981254285E+02  0.00000000000E+00 0. -1.
          2    1    1    2  501    0  0.11760203794E+03 -0.26231713764E+03  0.42534487822E+03  0.51337976728E+03  0.00000000000E+00 0. -1.
<scales pt_clust_5="13000.00000" pt_clust_6="13000.00000" pt_clust_7="13000.00000" pt_clust_8="13000.00000" pt_clust_9="275.30459"></scales>
<clustering>
<clus scale="   90.806">  7  8 -1 -1</clus>
<clus scale="   91.222">  5  6 -1 -1</clus>
<clus scale="   99.192">  1  7  2 -1</clus>
<clus scale="  275.305">  2  9  1 -1</clus>
<clus scale="  275.305">  2  5  1 -1</clus>
</clustering>
</event>
<event>
 9    1  0.1671478E-005  0.9235991E+02  0.7546771E-02  0.1297653E+00
         21   -1    0    0  501  502  0.00000000000E+00  0.00000000000E+00  0.17978405514E+03  0.17978405514E+03  0.00000000000E+00 0.  1.
          3   -1    0    0  502    0 -0.00000000000E+00 -0.00000000000E+00 -0.63001965754E+02  0.63001965754E+02  0.00000000000E+00 0. -1.
         23    2    1    2    0    0 -0.69137528897E+00  0.21796545416E+02  0.29126427167E+02  0.98409212166E+02  0.91435534054E+02 0.  0.
         23    2    1    2    0    0 -0.47915053959E+01 -0.14696577891E+01  0.57229826102E+02  0.10737713515E+03  0.90716468957E+02 0.  0.
        -11    1    3    3    0    0 -0.37897833055E+02  0.17227752093E+02 -0.11441820206E+02  0.43173561841E+02  0.00000000000E+00 0.  1.
         11    1    3    3    0    0  0.37206457766E+02  0.45687933237E+01  0.40568247373E+02  0.55235650325E+02  0.00000000000E+00 0. -1.
        -11    1    4    4    0    0 -0.17692643834E+02  0.41474938264E+02  0.36327205902E+02  0.57903938022E+02  0.00000000000E+00 0.  1.
         11    1    4    4    0    0  0.12901138438E+02 -0.42944596053E+02  0.20902620200E+02  0.49473197131E+02  0.00000000000E+00 0. -1.
          3    1    1    2  501    0  0.54828806848E+01 -0.20326887627E+02  0.30425836114E+02  0.36999673572E+02  0.00000000000E+00 0. -1.
<scales pt_clust_5="13000.00000" pt_clust_6="13000.00000" pt_clust_7="13000.00000" pt_clust_8="13000.00000" pt_clust_9="21.05337"></scales>
<clustering>
<clus scale="   21.053">  1  9  2 -1</clus>
<clus scale="   90.716">  7  8 -1 -1</clus>
<clus scale="   91.436">  5  6 -1 -1</clus>
<clus scale="   91.648">  1  7  2 -1</clus>
<clus scale="   21.053">  1  5  2 -1</clus>
</clustering>
</event>
<event>
 9    1  0.1671478E-005  0.9298429E+02  0.7546771E-02  0.1297003E+00
          2   -1    0    0  502    0 -0.00000000000E+00  0.00000000000E+00  0.20201049591E+03  0.20201049591E+03  0.00000000000E+00 0. -1.
         21   -1    0    0  501  502  0.00000000000E+00 -0.00000000000E+00 -0.22919194867E+03  0.22919194867E+03  0.00000000000E+00 0.  1.
         23    2    1    2    0    0  0.85573307499E+00  0.55214764821E+01  0.14931541187E+03  0.17463085792E+03  0.90385979746E+02 0.  0.
         23    2    1    2    0    0  0.18746186453E+01 -0.66248429659E+02 -0.15461456269E+03  0.19196467681E+03  0.92479216690E+02 0.  0.
        -11    1    3    3    0    0 -0.25802582550E+02  0.22461796115E+02  0.13620013233E+03  0.14043070034E+03  0.00000000000E+00 0. -1.
         11    1    3    3    0    0  0.26658315625E+02 -0.16940319633E+02  0.13115279540E+02  0.34200157582E+02  0.00000000000E+00 0.  1.
        -11    1    4    4    0    0 -0.45203251785E+02 -0.36348572924E+02 -0.78755698348E+02  0.97811107487E+02  0.00000000000E+00 0.  1.
         11    1    4    4    0    0  0.47077870430E+02 -0.29899856734E+02 -0.75858864344E+02  0.94153569325E+02  0.00000000000E+00 0. -1.
          2    1    1    2  501    0 -0.27303517202E+01  0.60726953177E+02 -0.21882301927E+02  0.64606909849E+02  0.00000000000E+00 0. -1.
<scales pt_clust_5="13000.00000" pt_clust_6="13000.00000" pt_clust_7="13000.00000" pt_clust_8="13000.00000" pt_clust_9="60.78830"></scales>
<clustering>
<clus scale="   60.788">  2  9  1 -1</clus>
<clus scale="   90.386">  5  6 -1 -1</clus>
<clus scale="   90.903">  1  5  2 -1</clus>
<clus scale="   92.479">  7  8 -1 -1</clus>
<clus scale="   60.788">  2  5  1 -1</clus>
</clustering>
</event>
<event>
 9    1  0.1671478E-005  0.1148203E+03  0.7546771E-02  0.1258102E+00
         21   -1    0    0  501  502  0.00000000000E+00  0.00000000000E+00  0.25503720227E+03  0.25503720227E+03  0.00000000000E+00 0. -1.
         -3   -1    0    0    0  501 -0.00000000000E+00 -0.00000000000E+00 -0.72190695757E+02  0.72190695757E+02  0.00000000000E+00 0.  1.
         23    2    1    2    0    0  0.60756990045E+01  0.44727937012E+02  0.14618126618E+02  0.99048669814E+02  0.86945079783E+02 0.  0.
         23    2    1    2    0    0 -0.16684491750E+02 -0.71168957629E+02  0.13463594150E+03  0.18413236712E+03  0.10214939590E+03 0.  0.
        -13    1    3    3    0    0 -0.24595855173E+02  0.55812601339E+02 -0.46501801045E+01  0.61168837940E+02  0.00000000000E+00 0.  1.
         13    1    3    3    0    0  0.30671554177E+02 -0.11084664327E+02  0.19268306722E+02  0.37879831874E+02  0.00000000000E+00 0. -1.
        -13    1    4    4    0    0  0.11089870110E+02 -0.85864094489E+02  0.66731939450E+02  0.10931047381E+03  0.00000000000E+00 0. -1.
         13    1    4    4    0    0 -0.27774361860E+02  0.14695136861E+02  0.67904002051E+02  0.74821893311E+02  0.00000000000E+00 0.  1.
         -3    1    1    2    0  502  0.10608792745E+02  0.26441020617E+02  0.33592438393E+02  0.44046861091E+02  0.00000000000E+00 0.  1.
<scales pt_clust_5="13000.00000" pt_clust_6="13000.00000" pt_clust_7="13000.00000" pt_clust_8="13000.00000" pt_clust_9="28.48989"></scales>
<clustering>
<clus scale="   28.490">  1  9  2 -1</clus>
<clus scale="   86.945">  5  6 -1 -1</clus>
<clus scale="  101.531">  2  5  1 -1</clus>
<clus scale="  102.149">  7  8 -1 -1</clus>
<clus scale="   28.490">  1  5  2 -1</clus>
</clustering>
</event>
<event>
 9    1  0.1671478E-005  0.1853078E+03  0.7546771E-02  0.1175048E+00
         21   -1    0    0  501  502  0.00000000000E+00  0.00000000000E+00  0.12052556726E+03  0.12052556726E+03  0.00000000000E+00 0.  1.
          2   -1    0    0  502    0 -0.00000000000E+00 -0.00000000000E+00 -0.71918889264E+03  0.71918889264E+03  0.00000000000E+00 0. -1.
         23    2    1    2    0    0  0.10282371501E+03 -0.61354661727E+01 -0.31159916219E+03  0.34153793206E+03  0.94571458952E+02 0.  0.
         23    2    1    2    0    0  0.29094053251E+01 -0.15530485912E+03 -0.41082682346E+02  0.18552758687E+03  0.92761170743E+02 0.  0.
        -11    1    4    4    0    0 -0.10769893188E+01 -0.22993923623E+02  0.27973031633E+02  0.36226660463E+02  0.00000000000E+00 0.  1.
         11    1    4    4    0    0  0.39863946440E+01 -0.13231093549E+03 -0.69055713980E+02  0.14930092641E+03  0.00000000000E+00 0. -1.
        -13    1    3    3    0    0  0.93743414824E+02 -0.41511716889E+02 -0.21294269844E+03  0.23633798527E+03  0.00000000000E+00 0.  1.
         13    1    3    3    0    0  0.90803001829E+01  0.35376250717E+02 -0.98656463742E+02  0.10519994679E+03  0.00000000000E+00 0. -1.
          2    1    1    2  501    0 -0.10573312033E+03  0.16144032529E+03 -0.24598148085E+03  0.31264894097E+03  0.00000000000E+00 0. -1.
<scales pt_clust_5="13000.00000" pt_clust_6="13000.00000" pt_clust_7="13000.00000" pt_clust_8="13000.00000" pt_clust_9="160.41939"></scales>
<clustering>
<clus scale="   92.761">  5  6 -1 -1</clus>
<clus scale="   94.571">  7  8 -1 -1</clus>
<clus scale="  139.836">  2  7  1 -1</clus>
<clus scale="  160.419">  1  9  2 -1</clus>
<clus scale="  160.419">  1  5  2 -1</clus>
</clustering>
</event>
<event>
 9    1  0.1671478E-005  0.1474119E+03  0.7546771E-02  0.1228655E+00
         21   -1    0    0  501  502  0.00000000000E+00  0.00000000000E+00  0.34060181827E+03  0.34060181827E+03  0.00000000000E+00 0. -1.
          4   -1    0    0  502    0 -0.00000000000E+00 -0.00000000000E+00 -0.14030586070E+03  0.14030586070E+03  0.00000000000E+00 0. -1.
         23    2    1    2    0    0  0.91176216944E+01  0.30136127231E+01 -0.21430805713E+02  0.89575352407E+02  0.86442185525E+02 0.  0.
         23    2    1    2    0    0  0.67818376656E+02 -0.90391876740E+02  0.50137367021E+01  0.14532695110E+03  0.91240131340E+02 0.  0.
        -11    1    3    3    0    0 -0.38261094278E+01 -0.38046413430E+02 -0.26061777233E+02  0.46275100441E+02  0.00000000000E+00 0.  1.
         11    1    3    3    0    0  0.12943731122E+02  0.41060026153E+02  0.46309715204E+01  0.43300251966E+02  0.00000000000E+00 0. -1.
        -13    1    4    4    0    0  0.19015898720E+02 -0.38995974812E+02  0.46180944120E+02  0.63363791360E+02  0.00000000000E+00 0.  1.
         13    1    4    4    0    0  0.48802477936E+02 -0.51395901928E+02 -0.41167207418E+02  0.81963159738E+02  0.00000000000E+00 0. -1.
          4    1    1    2  501    0 -0.76935998350E+02  0.87378264017E+02  0.21671302659E+03  0.24600537546E+03  0.00000000000E+00 0. -1.
<scales pt_clust_5="13000.00000" pt_clust_6="13000.00000" pt_clust_7="13000.00000" pt_clust_8="13000.00000" pt_clust_9="115.78219"></scales>
<clustering>
<clus scale="   86.442">  5  6 -1 -1</clus>
<clus scale="   86.974">  2  5  1 -1</clus>
<clus scale="   91.240">  7  8 -1 -1</clus>
<clus scale="  115.782">  1  9  2 -1</clus>
<clus scale="  115.782">  1  5  2 -1</clus>
</clustering>
</event>
<event>
 9    1  0.1671478E-005  0.1894357E+03  0.7546771E-02  0.1185040E+00
          1   -1    0    0  502    0 -0.00000000000E+00  0.00000000000E+00  0.59129324979E+03  0.59129324979E+03  0.00000000000E+00 0. -1.
         21   -1    0    0  501  502  0.00000000000E+00 -0.00000000000E+00 -0.39262717062E+03  0.39262717062E+03  0.00000000000E+00 0. -1.
         23    2    1    2    0    0  0.60750965603E+01  0.50498130555E+02  0.15583376458E+03  0.18766325850E+03  0.91358461119E+02 0.  0.
         23    2    1    2    0    0  0.31820822699E+02 -0.20951232612E+03  0.36675783754E+03  0.43342199340E+03  0.91844071225E+02 0.  0.
        -13    1    3    3    0    0  0.18816128961E+02  0.16094950284E+02  0.14811880730E+03  0.15017414961E+03  0.00000000000E+00 0. -1.
         13    1    3    3    0    0 -0.12741032401E+02  0.34403180271E+02  0.77149572787E+01  0.37489108888E+02  0.00000000000E+00 0.  1.
        -13    1    4    4    0    0 -0.28287971594E+02 -0.52296240943E+02  0.12979739728E+03  0.14276718984E+03  0.00000000000E+00 0.  1.
         13    1    4    4    0    0  0.60108794293E+02 -0.15721608518E+03  0.23696044026E+03  0.29065480357E+03  0.00000000000E+00 0. -1.
          1    1    1    2  501    0 -0.37895919259E+02  0.15901419557E+03 -0.32392552295E+03  0.36283516851E+03  0.00000000000E+00 0. -1.
<scales pt_clust_5="13000.00000" pt_clust_6="13000.00000" pt_clust_7="13000.00000" pt_clust_8="13000.00000" pt_clust_9="165.68205"></scales>
<clustering>
<clus scale="   91.358">  5  6 -1 -1</clus>
<clus scale="   91.844">  7  8 -1 -1</clus>
<clus scale="  104.563">  1  5  2 -1</clus>
<clus scale="  165.682">  2  9  1 -1</clus>
<clus scale="  165.682">  2  5  1 -1</clus>
</clustering>
</event>
<event>
 9    1  0.1671478E-005  0.1095388E+03  0.7546771E-02  0.1262526E+00
         21   -1    0    0  501  502  0.00000000000E+00  0.00000000000E+00  0.76096371434E+02  0.76096371434E+02  0.00000000000E+00 0. -1.
          1   -1    0    0  502    0 -0.00000000000E+00 -0.00000000000E+00 -0.46122566429E+03  0.46122566429E+03  0.00000000000E+00 0. -1.
         23    2    1    2    0    0 -0.47171634207E+02  0.45063788273E+02 -0.25050882491E+03  0.27424954916E+03  0.90566195510E+02 0.  0.
         23    2    1    2    0    0  0.69081684269E+02  0.36281840263E+02 -0.13097405993E+03  0.17874895565E+03  0.93318453360E+02 0.  0.
        -11    1    4    4    0    0  0.14413941896E+02  0.56694546474E+02 -0.90395346787E+02  0.10767242935E+03  0.00000000000E+00 0. -1.
         11    1    4    4    0    0  0.54667742372E+02 -0.20412706211E+02 -0.40578713140E+02  0.71076526301E+02  0.00000000000E+00 0.  1.
        -13    1    3    3    0    0  0.82943740392E+01  0.49885862337E+02 -0.16177938539E+03  0.16949916058E+03  0.00000000000E+00 0.  1.
         13    1    3    3    0    0 -0.55466008246E+02 -0.48220740644E+01 -0.88729439522E+02  0.10475038858E+03  0.00000000000E+00 0. -1.
          1    1    1    2  501    0 -0.21910050062E+02 -0.81345628535E+02 -0.36464080238E+01  0.84323530921E+02  0.00000000000E+00 0. -1.
<scales pt_clust_5="13000.00000" pt_clust_6="13000.00000" pt_clust_7="13000.00000" pt_clust_8="13000.00000" pt_clust_9="84.24465"></scales>
<clustering>
<clus scale="   84.245">  1  9  2 -1</clus>
<clus scale="   90.566">  7  8 -1 -1</clus>
<clus scale="   93.318">  5  6 -1 -1</clus>
<clus scale="  107.204">  2  7  1 -1</clus>
<clus scale="   84.245">  1  5  2 -1</clus>
</clustering>
</event>
<event>
 9    1  0.1671478E-005  0.1760721E+03  0.7546771E-02  0.1171720E+00
         21   -1    0    0  501  502  0.00000000000E+00  0.00000000000E+00  0.22157299088E+03  0.22157299088E+03  0.00000000000E+00 0. -1.
          1   -1    0    0  502    0 -0.00000000000E+00 -0.00000000000E+00 -0.93934746048E+03  0.93934746048E+03  0.00000000000E+00 0. -1.
         23    2    1    2    0    0  0.14204225386E+03  0.14388761034E+02 -0.62025222993E+03  0.64294360446E+03  0.90997865118E+02 0.  0.
         23    2    1    2    0    0 -0.17457686968E+03  0.14775030009E+02 -0.27320339881E+03  0.33694398356E+03  0.90530470012E+02 0.  0.
        -11    1    4    4    0    0 -0.12133743952E+03 -0.19945468360E+02 -0.22767546372E+03  0.25875995192E+03  0.00000000000E+00 0. -1.
         11    1    4    4    0    0 -0.53239430152E+02  0.34720498369E+02 -0.45527935082E+02  0.78184031635E+02  0.00000000000E+00 0.  1.
        -11    1    3    3    0    0  0.50071449054E+02  0.39133308899E+02 -0.14613654592E+03  0.15935638026E+03  0.00000000000E+00 0.  1.
         11    1    3    3    0    0  0.91970804809E+02 -0.24744547866E+02 -0.47411568401E+03  0.48358722420E+03  0.00000000000E+00 0. -1.
          1    1    1    2  501    0  0.32534615815E+02 -0.29163791042E+02  0.17568115914E+03  0.18103286335E+03  0.00000000000E+00 0. -1.
<scales pt_clust_5="13000.00000" pt_clust_6="13000.00000" pt_clust_7="13000.00000" pt_clust_8="13000.00000" pt_clust_9="43.69242"></scales>
<clustering>
<clus scale="   43.692">  1  9  2 -1</clus>
<clus scale="   90.530">  5  6 -1 -1</clus>
<clus scale="   90.998">  7  8 -1 -1</clus>
<clus scale="  175.831">  1  5  2 -1</clus>
<clus scale="   43.692">  1  5  2 -1</clus>
</clustering>
</event>
<event>
 9    1  0.1671478E-005  0.1311166E+03  0.7546771E-02  0.1225875E+00
         21   -1    0    0  501  502  0.00000000000E+00  0.00000000000E+00  0.87776115729E+02  0.87776115729E+02  0.00000000000E+00 0.  1.
          1   -1    0    0  502    0 -0.00000000000E+00 -0.00000000000E+00 -0.24315272459E+03  0.24315272459E+03  0.00000000000E+00 0. -1.
         23    2    1    2    0    0 -0.73390287599E+02  0.41196619244E+02 -0.84812739464E+02  0.15029742162E+03  0.91174658860E+02 0.  0.
         23    2    1    2    0    0  0.91809868156E+02 -0.57159269729E+02 -0.65538939529E+02  0.15574493485E+03  0.90911485139E+02 0.  0.
        -11    1    3    3    0    0 -0.35221452551E+02  0.67923563951E+02 -0.61664082236E+02  0.98268104172E+02  0.00000000000E+00 0. -1.
         11    1    3    3    0    0 -0.38168835048E+02 -0.26726944707E+02 -0.23148657228E+02  0.52029317445E+02  0.00000000000E+00 0.  1.
        -11    1    4    4    0    0  0.50034385616E+02  0.12244080939E+02 -0.52761889583E+02  0.73737197224E+02  0.00000000000E+00 0. -1.
         11    1    4    4    0    0  0.41775482540E+02 -0.69403350668E+02 -0.12777049946E+02  0.82007737627E+02  0.00000000000E+00 0.  1.
          1    1    1    2  501    0 -0.18419580557E+02  0.15962650485E+02 -0.50249298686E+01  0.24886483853E+02  0.00000000000E+00 0. -1.
<scales pt_clust_5="13000.00000" pt_clust_6="13000.00000" pt_clust_7="13000.00000" pt_clust_8="13000.00000" pt_clust_9="24.37390"></scales>
<clustering>
<clus scale="   24.374">  1  9  2 -1</clus>
<clus scale="   90.911">  7  8 -1 -1</clus>
<clus scale="   91.175">  5  6 -1 -1</clus>
<clus scale="  130.934">  1  7  2 -1</clus>
<clus scale="   24.374">  1  5  2 -1</clus>
</clustering>
</event>
<event>
 9    1  0.1671478E-005  0.1469851E+03  0.7546771E-02  0.1218742E+00
         21   -1    0    0  501  502  0.00000000000E+00  0.00000000000E+00  0.10807589024E+03  0.10807589024E+03  0.00000000000E+00 0. -1.
          1   -1    0    0  502    0 -0.00000000000E+00 -0.00000000000E+00 -0.64307711397E+03  0.64307711397E+03  0.00000000000E+00 0. -1.
         23    2    1    2    0    0 -0.40449910304E+02  0.40809504466E+02 -0.25479971637E+03  0.27670244629E+03  0.91322162804E+02 0.  0.
         23    2    1    2    0    0  0.69247875770E+01  0.75645403827E+02 -0.32449751383E+03  0.34542414315E+03  0.90824128873E+02 0.  0.
        -11    1    4    4    0    0 -0.34111247359E+02  0.67427098104E+02 -0.22939822728E+03  0.24152336830E+03  0.00000000000E+00 0. -1.
         11    1    4    4    0    0  0.41036034936E+02  0.82183057224E+01 -0.95099286551E+02  0.10390077485E+03  0.00000000000E+00 0.  1.
        -13    1    3    3    0    0 -0.17708488924E+02 -0.26211165747E+02 -0.12413094193E+03  0.12809803486E+03  0.00000000000E+00 0. -1.
         13    1    3    3    0    0 -0.22741421380E+02  0.67020670212E+02 -0.13066877444E+03  0.14860441143E+03  0.00000000000E+00 0.  1.
          1    1    1    2  501    0  0.33525122727E+02 -0.11645490829E+03  0.44296006472E+02  0.12902641477E+03  0.00000000000E+00 0. -1.
<scales pt_clust_5="13000.00000" pt_clust_6="13000.00000" pt_clust_7="13000.00000" pt_clust_8="13000.00000" pt_clust_9="115.56641"></scales>
<clustering>
<clus scale="   90.824">  5  6 -1 -1</clus>
<clus scale="   91.322">  7  8 -1 -1</clus>
<clus scale="  107.895">  2  7  1 -1</clus>
<clus scale="  115.566">  1  9  2 -1</clus>
<clus scale="  115.566">  1  5  2 -1</clus>
</clustering>
</event>
<event>
 9    1  0.1671478E-005  0.2013231E+03  0.7546771E-02  0.1169315E+00
         21   -1    0    0  501  502  0.00000000000E+00  0.00000000000E+00  0.71537388409E+02  0.71537388409E+02  0.00000000000E+00 0.  1.
          1   -1    0    0  502    0 -0.00000000000E+00 -0.00000000000E+00 -0.11621285682E+04  0.11621285682E+04  0.00000000000E+00 0. -1.
         23    2    1    2    0    0  0.37306819660E+02  0.77302706777E+02 -0.27074587631E+03  0.29790112705E+03  0.89856801046E+02 0.  0.
         23    2    1    2    0    0  0.45639309572E+02  0.10643497774E+03 -0.66781541607E+03  0.68327189158E+03  0.86438977480E+02 0.  0.
        -11    1    3    3    0    0 -0.25191746152E+01  0.81130290485E+02 -0.21022507594E+03  0.22535095480E+03  0.00000000000E+00 0.  1.
         11    1    3    3    0    0  0.39825994275E+02 -0.38275837076E+01 -0.60520800368E+02  0.72550172255E+02  0.00000000000E+00 0. -1.
        -13    1    4    4    0    0  0.38823849437E+02  0.13763344384E+01 -0.20286033212E+03  0.20654660474E+03  0.00000000000E+00 0.  1.
         13    1    4    4    0    0  0.68154601345E+01  0.10505864330E+03 -0.46495508395E+03  0.47672528684E+03  0.00000000000E+00 0. -1.
          1    1    1    2  501    0 -0.82946129232E+02 -0.18373768451E+03 -0.15202988745E+03  0.25249293801E+03  0.00000000000E+00 0. -1.
<scales pt_clust_5="13000.00000" pt_clust_6="13000.00000" pt_clust_7="13000.00000" pt_clust_8="13000.00000" pt_clust_9="181.82215"></scales>
<clustering>
<clus scale="   86.439">  7  8 -1 -1</clus>
<clus scale="   89.857">  5  6 -1 -1</clus>
<clus scale="  124.265">  2  5  1 -1</clus>
<clus scale="  181.822">  1  9  2 -1</clus>
<clus scale="  181.822">  1  5  2 -1</clus>
</clustering>
</event>
<event>
 9    1  0.1671478E-005  0.1371132E+03  0.7546771E-02  0.1218060E+00
          1   -1    0    0  502    0 -0.00000000000E+00  0.00000000000E+00  0.86367703248E+03  0.86367703248E+03  0.00000000000E+00 0. -1.
         21   -1    0    0  501  502  0.00000000000E+00 -0.00000000000E+00 -0.57846543657E+02  0.57846543657E+02  0.00000000000E+00 0. -1.
         23    2    1    2    0    0 -0.39546697646E+02 -0.92871171205E+02  0.53079816645E+03  0.54799827115E+03  0.91468114344E+02 0.  0.
         23    2    1    2    0    0  0.69917279748E+02  0.81547172639E+02  0.30132544164E+03  0.33178883028E+03  0.88025216545E+02 0.  0.
        -13    1    4    4    0    0  0.67531396053E+02  0.36622302942E+02  0.10339919720E+03  0.12881411610E+03  0.00000000000E+00 0.  1.
         13    1    4    4    0    0  0.23858836943E+01  0.44924869697E+02  0.19792624444E+03  0.20297471418E+03  0.00000000000E+00 0. -1.
        -13    1    3    3    0    0  0.20226953236E+02 -0.44877572183E+02  0.11345820533E+03  0.12367655590E+03  0.00000000000E+00 0. -1.
         13    1    3    3    0    0 -0.59773650881E+02 -0.47993599023E+02  0.41733996112E+03  0.42432171525E+03  0.00000000000E+00 0.  1.
          1    1    1    2  501    0 -0.30370582102E+02  0.11323998567E+02 -0.26293119261E+02  0.41736474710E+02  0.00000000000E+00 0. -1.
<scales pt_clust_5="13000.00000" pt_clust_6="13000.00000" pt_clust_7="13000.00000" pt_clust_8="13000.00000" pt_clust_9="32.41304"></scales>
<clustering>
<clus scale="   32.413">  2  9  1 -1</clus>
<clus scale="   88.025">  5  6 -1 -1</clus>
<clus scale="   91.468">  7  8 -1 -1</clus>
<clus scale="  134.841">  2  5  1 -1</clus>
<clus scale="   32.413">  2  5  1 -1</clus>
</clustering>
</event>
<event>
 9    1  0.1671478E-005  0.1046190E+03  0.7546771E-02  0.1280074E+00
          1   -1    0    0  502    0 -0.00000000000E+00  0.00000000000E+00  0.56107342014E+03  0.56107342014E+03  0.00000000000E+00 0. -1.
         21   -1    0    0  501  502  0.00000000000E+00 -0.00000000000E+00 -0.21883383991E+02  0.21883383991E+02  0.00000000000E+00 0.  1.
         23    2    1    2    0    0 -0.77230557642E+01  0.19926374026E+02  0.25544180163E+03  0.27543511263E+03  0.10078333829E+03 0.  0.
         23    2    1    2    0    0 -0.15008873692E+02 -0.34859163903E+02  0.22081075145E+03  0.23895890563E+03  0.83087562427E+02 0.  0.
        -11    1    4    4    0    0  0.31449230009E+02 -0.10793498664E+02  0.47927073584E+02  0.58331450041E+02  0.00000000000E+00 0. -1.
         11    1    4    4    0    0 -0.46458103701E+02 -0.24065665240E+02  0.17288367786E+03  0.18062745559E+03  0.00000000000E+00 0.  1.
        -11    1    3    3    0    0 -0.51735905449E+02  0.87974537687E+01  0.17894605653E+03  0.18648241271E+03  0.00000000000E+00 0.  1.
         11    1    3    3    0    0  0.44012849685E+02  0.11128920257E+02  0.76495745109E+02  0.88952699921E+02  0.00000000000E+00 0. -1.
          1    1    1    2  501    0  0.22731929456E+02  0.14932789877E+02  0.62937483070E+02  0.68562785864E+02  0.00000000000E+00 0. -1.
<scales pt_clust_5="13000.00000" pt_clust_6="13000.00000" pt_clust_7="13000.00000" pt_clust_8="13000.00000" pt_clust_9="27.19796"></scales>
<clustering>
<clus scale="   27.198">  2  9  1 -1</clus>
<clus scale="   83.088">  5  6 -1 -1</clus>
<clus scale="   87.701">  2  5  1 -1</clus>
<clus scale="  100.783">  7  8 -1 -1</clus>
<clus scale="   27.198">  2  5  1 -1</clus>
</clustering>
</event>
<event>
 9    1  0.1671478E-005  0.1008224E+03  0.7546771E-02  0.1279511E+00
          2   -1    0    0  502    0 -0.00000000000E+00  0.00000000000E+00  0.63153902538E+03  0.63153902538E+03  0.00000000000E+00 0. -1.
         21   -1    0    0  501  502  0.00000000000E+00 -0.00000000000E+00 -0.26611765314E+02  0.26611765314E+02  0.00000000000E+00 0. -1.
         23    2    1    2    0    0 -0.23216002563E+02  0.22336253008E+02  0.31409918993E+03  0.32884165895E+03  0.91872980652E+02 0.  0.
         23    2    1    2    0    0  0.42762090039E+02 -0.31767756510E+02  0.28924674546E+03  0.30754899890E+03  0.89916184684E+02 0.  0.
        -11    1    4    4    0    0 -0.17549912069E+02  0.14568482175E+02  0.11782440936E+03  0.12001179745E+03  0.00000000000E+00 0.  1.
         11    1    4    4    0    0  0.60312002108E+02 -0.46336238685E+02  0.17142233610E+03  0.18753720145E+03  0.00000000000E+00 0. -1.
        -13    1    3    3    0    0  0.28859657627E+02  0.22524986105E+02  0.67348218709E+02  0.76655315541E+02  0.00000000000E+00 0. -1.
         13    1    3    3    0    0 -0.52075660191E+02 -0.18873309660E+00  0.24675097122E+03  0.25218634341E+03  0.00000000000E+00 0.  1.
          2    1    1    2  501    0 -0.19546087475E+02  0.94315035024E+01  0.15813246869E+01  0.21760132851E+02  0.00000000000E+00 0. -1.
<scales pt_clust_5="13000.00000" pt_clust_6="13000.00000" pt_clust_7="13000.00000" pt_clust_8="13000.00000" pt_clust_9="21.70260"></scales>
<clustering>
<clus scale="   21.703">  2  9  1 -1</clus>
<clus scale="   89.916">  5  6 -1 -1</clus>
<clus scale="   91.873">  7  8 -1 -1</clus>
<clus scale="   99.043">  2  5  1 -1</clus>
<clus scale="   21.703">  2  5  1 -1</clus>
</clustering>
</event>
<event>
 9    1  0.1671478E-005  0.1058968E+03  0.7546771E-02  0.1268921E+00
          1   -1    0    0  502    0 -0.00000000000E+00  0.00000000000E+00  0.99093074176E+03  0.99093074176E+03  0.00000000000E+00 0. -1.
         21   -1    0    0  501  502  0.00000000000E+00 -0.00000000000E+00 -0.18614965670E+02  0.18614965670E+02  0.00000000000E+00 0.  1.
         23    2    1    2    0    0  0.54213380457E+02 -0.16959668504E+02  0.47657985689E+03  0.48841955960E+03  0.90546039243E+02 0.  0.
         23    2    1    2    0    0 -0.55644908101E+02 -0.18608233614E+02  0.45345037645E+03  0.46585235606E+03  0.89210714508E+02 0.  0.
        -11    1    4    4    0    0 -0.79587816840E+02 -0.18498158153E+02  0.31974531891E+03  0.33002041060E+03  0.00000000000E+00 0. -1.
         11    1    4    4    0    0  0.23942908739E+02 -0.11007546062E+00  0.13370505754E+03  0.13583194546E+03  0.00000000000E+00 0.  1.
        -13    1    3    3    0    0  0.15478896577E+02  0.36772889156E+02  0.15194223298E+03  0.15709323276E+03  0.00000000000E+00 0. -1.
         13    1    3    3    0    0  0.38734483880E+02 -0.53732557659E+02  0.32463762391E+03  0.33132632684E+03  0.00000000000E+00 0.  1.
          1    1    1    2  501    0  0.14315276443E+01  0.35567902117E+02  0.42285542749E+02  0.55273791783E+02  0.00000000000E+00 0. -1.
<scales pt_clust_5="13000.00000" pt_clust_6="13000.00000" pt_clust_7="13000.00000" pt_clust_8="13000.00000" pt_clust_9="35.59670"></scales>
<clustering>
<clus scale="   35.597">  2  9  1 -1</clus>
<clus scale="   89.211">  5  6 -1 -1</clus>
<clus scale="   90.546">  7  8 -1 -1</clus>
<clus scale="  104.757">  2  5  1 -1</clus>
<clus scale="   35.597">  2  5  1 -1</clus>
</clustering>
</event>
<event>
 9    1  0.1671478E-005  0.1034136E+03  0.7546771E-02  0.1274274E+00
         21   -1    0    0  501  502  0.00000000000E+00  0.00000000000E+00  0.16956836664E+03  0.16956836664E+03  0.00000000000E+00 0.  1.
          2   -1    0    0  502    0 -0.00000000000E+00 -0.00000000000E+00 -0.79453464986E+02  0.79453464986E+02  0.00000000000E+00 0. -1.
         23    2    1    2    0    0 -0.38772170758E+02 -0.13220502287E+02  0.28967917328E+02  0.10610832113E+03  0.93497447415E+02 0.  0.
         23    2    1    2    0    0  0.50511950351E+02 -0.82634607684E+01  0.49815175455E+02  0.11593587187E+03  0.91322684849E+02 0.  0.
        -11    1    4    4    0    0 -0.25299204201E+02  0.16045343543E+01  0.24884981976E+02  0.35523043108E+02  0.00000000000E+00 0.  1.
         11    1    4    4    0    0  0.75811154552E+02 -0.98679951226E+01  0.24930193479E+02  0.80412828760E+02  0.00000000000E+00 0. -1.
        -13    1    3    3    0    0 -0.51757852222E+02  0.15458125301E+02 -0.11106633612E+02  0.55146951091E+02  0.00000000000E+00 0. -1.
         13    1    3    3    0    0  0.12985681463E+02 -0.28678627588E+02  0.40074550941E+02  0.50961370041E+02  0.00000000000E+00 0.  1.
          2    1    1    2  501    0 -0.11739779593E+02  0.21483963056E+02  0.11331808868E+02  0.26977638623E+02  0.00000000000E+00 0. -1.
<scales pt_clust_5="13000.00000" pt_clust_6="13000.00000" pt_clust_7="13000.00000" pt_clust_8="13000.00000" pt_clust_9="24.48230"></scales>
<clustering>
<clus scale="   24.482">  1  9  2 -1</clus>
<clus scale="   91.323">  5  6 -1 -1</clus>
<clus scale="   93.497">  7  8 -1 -1</clus>
<clus scale="  101.452">  1  5  2 -1</clus>
<clus scale="   24.482">  1  5  2 -1</clus>
</clustering>
</event>
<event>
 9    1  0.1671478E-005  0.1127647E+03  0.7546771E-02  0.1258050E+00
          3   -1    0    0  502    0 -0.00000000000E+00  0.00000000000E+00  0.88125302992E+02  0.88125302992E+02  0.00000000000E+00 0. -1.
         21   -1    0    0  501  502  0.00000000000E+00 -0.00000000000E+00 -0.41055985203E+03  0.41055985203E+03  0.00000000000E+00 0.  1.
         23    2    1    2    0    0  0.49399525003E+02 -0.26647835487E+02  0.23196654630E+02  0.11410903112E+03  0.96604171701E+02 0.  0.
         23    2    1    2    0    0 -0.74483269814E+02 -0.15237970558E+01 -0.17968391566E+03  0.21439581502E+03  0.90161946032E+02 0.  0.
        -11    1    3    3    0    0 -0.12538949896E+01 -0.37765344527E+02  0.44207035621E+02  0.58155442551E+02  0.00000000000E+00 0. -1.
         11    1    3    3    0    0  0.50653419993E+02  0.11117509040E+02 -0.21010380991E+02  0.55953588568E+02  0.00000000000E+00 0.  1.
        -13    1    4    4    0    0 -0.57331582413E+02  0.16320517587E+02 -0.18003071164E+03  0.18964262910E+03  0.00000000000E+00 0.  1.
         13    1    4    4    0    0 -0.17151687401E+02 -0.17844314643E+02  0.34679598665E+00  0.24753185921E+02  0.00000000000E+00 0. -1.
          3    1    1    2  501    0  0.25083744811E+02  0.28171632543E+02 -0.16594728801E+03  0.17018030888E+03  0.00000000000E+00 0. -1.
<scales pt_clust_5="13000.00000" pt_clust_6="13000.00000" pt_clust_7="13000.00000" pt_clust_8="13000.00000" pt_clust_9="37.72049"></scales>
<clustering>
<clus scale="   37.720">  2  9  1 -1</clus>
<clus scale="   90.162">  7  8 -1 -1</clus>
<clus scale="   96.604">  5  6 -1 -1</clus>
<clus scale="  107.297">  2  7  1 -1</clus>
<clus scale="   37.720">  2  5  1 -1</clus>
</clustering>
</event>
<event>
 9    1  0.1671478E-005  0.1032185E+03  0.7546771E-02  0.1276551E+00
          2   -1    0    0  502    0 -0.00000000000E+00  0.00000000000E+00  0.27865313652E+03  0.27865313652E+03  0.00000000000E+00 0. -1.
         21   -1    0    0  501  502  0.00000000000E+00 -0.00000000000E+00 -0.17179438166E+03  0.17179438166E+03  0.00000000000E+00 0. -1.
         23    2    1    2    0    0  0.16224115240E+02 -0.26868877151E+02  0.15886618999E+03  0.18629735383E+03  0.92103633196E+02 0.  0.
         23    2    1    2    0    0 -0.44234151675E+02  0.66655689132E+01  0.75839022877E+02  0.13172111683E+03  0.97968389012E+02 0.  0.
        -13    1    3    3    0    0  0.48732940904E+02 -0.10775450118E+02  0.46476401098E+02  0.68198722227E+02  0.00000000000E+00 0.  1.
         13    1    3    3    0    0 -0.32508825664E+02 -0.16093427033E+02  0.11238978889E+03  0.11809863160E+03  0.00000000000E+00 0. -1.
        -13    1    4    4    0    0 -0.68043463381E+02  0.28775139917E+02  0.42789999870E+02  0.85375088140E+02  0.00000000000E+00 0.  1.
         13    1    4    4    0    0  0.23809311706E+02 -0.22109571004E+02  0.33049023007E+02  0.46346028693E+02  0.00000000000E+00 0. -1.
          2    1    1    2  501    0  0.28010036435E+02  0.20203308238E+02 -0.12784645800E+03  0.13242904752E+03  0.00000000000E+00 0. -1.
<scales pt_clust_5="13000.00000" pt_clust_6="13000.00000" pt_clust_7="13000.00000" pt_clust_8="13000.00000" pt_clust_9="34.53601"></scales>
<clustering>
<clus scale="   34.536">  2  9  1 -1</clus>
<clus scale="   92.104">  5  6 -1 -1</clus>
<clus scale="   97.669">  1  5  2 -1</clus>
<clus scale="   97.968">  7  8 -1 -1</clus>
<clus scale="   34.536">  2  5  1 -1</clus>
</clustering>
</event>
<event>
 9    1  0.1671478E-005  0.1283433E+03  0.7546771E-02  0.1233192E+00
         21   -1    0    0  501  502  0.00000000000E+00  0.00000000000E+00  0.34248870472E+03  0.34248870472E+03  0.00000000000E+00 0.  1.
         -3   -1    0    0    0  501 -0.00000000000E+00 -0.00000000000E+00 -0.16540977976E+03  0.16540977976E+03  0.00000000000E+00 0.  1.
         23    2    1    2    0    0 -0.72257996032E+02 -0.79661641978E+01 -0.77884261406E+02  0.14478777552E+03  0.98045214066E+02 0.  0.
         23    2    1    2    0    0  0.55811697157E+02  0.35818300988E+02  0.22959708407E+02  0.12886332678E+03  0.10807734524E+03 0.  0.
        -11    1    4    4    0    0  0.31064276919E+02  0.73670773429E+02  0.24471903695E+02  0.83613672498E+02  0.00000000000E+00 0.  1.
         11    1    4    4    0    0  0.24747420239E+02 -0.37852472440E+02 -0.15121952877E+01  0.45249654285E+02  0.00000000000E+00 0. -1.
        -11    1    3    3    0    0 -0.66065775486E+02 -0.46663431874E+02 -0.64241264001E+02  0.10329134797E+03  0.00000000000E+00 0.  1.
         11    1    3    3    0    0 -0.61922205465E+01  0.38697267676E+02 -0.13642997405E+02  0.41496427546E+02  0.00000000000E+00 0. -1.
         -3    1    1    2    0  502  0.16446298875E+02 -0.27852136791E+02  0.23200347796E+03  0.23424738218E+03  0.00000000000E+00 0.  1.
<scales pt_clust_5="13000.00000" pt_clust_6="13000.00000" pt_clust_7="13000.00000" pt_clust_8="13000.00000" pt_clust_9="32.34536"></scales>
<clustering>
<clus scale="   32.345">  1  9  2 -1</clus>
<clus scale="   98.045">  7  8 -1 -1</clus>
<clus scale="  108.077">  5  6 -1 -1</clus>
<clus scale="  120.017">  2  7  1 -1</clus>
<clus scale="   32.345">  1  5  2 -1</clus>
</clustering>
</event>
<event>
 9    1  0.1671478E-005  0.1793695E+03  0.7546771E-02  0.1186697E+00
         21   -1    0    0  501  502  0.00000000000E+00  0.00000000000E+00  0.70453694890E+03  0.70453694890E+03  0.00000000000E+00 0. -1.
          1   -1    0    0  502    0 -0.00000000000E+00 -0.00000000000E+00 -0.11575087922E+03  0.11575087922E+03  0.00000000000E+00 0. -1.
         23    2    1    2    0    0  0.17858125615E+02 -0.65660698210E+02 -0.11940410163E+02  0.11931198157E+03  0.97275565334E+02 0.  0.
         23    2    1    2    0    0 -0.27277095282E+02 -0.10835604637E+03  0.11218453753E+03  0.18228154950E+03  0.90311240261E+02 0.  0.
        -11    1    3    3    0    0  0.11698089370E+02 -0.91451449710E+02 -0.93636905946E+01  0.92670878115E+02  0.00000000000E+00 0. -1.
         11    1    3    3    0    0  0.61600362457E+01  0.25790751500E+02 -0.25767195683E+01  0.26641103454E+02  0.00000000000E+00 0.  1.
        -11    1    4    4    0    0  0.30632723358E+02 -0.19391607002E+02  0.18503855834E+02  0.40703695694E+02  0.00000000000E+00 0.  1.
         11    1    4    4    0    0 -0.57909818639E+02 -0.88964439367E+02  0.93680681696E+02  0.14157785381E+03  0.00000000000E+00 0. -1.
          1    1    1    2  501    0  0.94189696663E+01  0.17401674458E+03  0.48854194232E+03  0.51869429704E+03  0.00000000000E+00 0. -1.
<scales pt_clust_5="13000.00000" pt_clust_6="13000.00000" pt_clust_7="13000.00000" pt_clust_8="13000.00000" pt_clust_9="154.97512"></scales>
<clustering>
<clus scale="   90.311">  7  8 -1 -1</clus>
<clus scale="   97.276">  5  6 -1 -1</clus>
<clus scale="  118.713">  2  5  1 -1</clus>
<clus scale="  154.975">  1  9  2 -1</clus>
<clus scale="  154.975">  1  5  2 -1</clus>
</clustering>
</event>
<event>
 9    1  0.1671478E-005  0.1430165E+03  0.7546771E-02  0.1209469E+00
         21   -1    0    0  501  502  0.00000000000E+00  0.00000000000E+00  0.24510992968E+03  0.24510992968E+03  0.00000000000E+00 0. -1.
         -1   -1    0    0    0  501 -0.00000000000E+00 -0.00000000000E+00 -0.33674097929E+03  0.33674097929E+03  0.00000000000E+00 0.  1.
         23    2    1    2    0    0 -0.79855087070E+02  0.83365719721E+02 -0.26436021915E+03  0.30230949591E+03  0.90432448228E+02 0.  0.
         23    2    1    2    0    0  0.64710012288E+02 -0.61106209904E+02  0.25535395564E+02  0.12990563470E+03  0.91115656842E+02 0.  0.
        -11    1    4    4    0    0  0.27276498678E+02 -0.39214993949E+02 -0.32266712445E+02  0.57645154719E+02  0.00000000000E+00 0.  1.
         11    1    4    4    0    0  0.37433513609E+02 -0.21891215955E+02  0.57802108009E+02  0.72260479983E+02  0.00000000000E+00 0. -1.
        -13    1    3    3    0    0 -0.84148729438E+02  0.26034442344E+02 -0.14173715832E+03  0.16687786822E+03  0.00000000000E+00 0.  1.
         13    1    3    3    0    0  0.42936423672E+01  0.57331277377E+02 -0.12262306083E+03  0.13543162769E+03  0.00000000000E+00 0. -1.
         -1    1    1    2    0  502  0.15145074783E+02 -0.22259509817E+02  0.14719377398E+03  0.14963577836E+03  0.00000000000E+00 0.  1.
<scales pt_clust_5="13000.00000" pt_clust_6="13000.00000" pt_clust_7="13000.00000" pt_clust_8="13000.00000" pt_clust_9="26.92321"></scales>
<clustering>
<clus scale="   26.923">  1  9  2 -1</clus>
<clus scale="   90.432">  7  8 -1 -1</clus>
<clus scale="   91.116">  5  6 -1 -1</clus>
<clus scale="  142.582">  2  7  1 -1</clus>
<clus scale="   26.923">  1  5  2 -1</clus>
</clustering>
</event>
<event>
 9    1  0.1671478E-005  0.1022347E+03  0.7546771E-02  0.1279513E+00
          2   -1    0    0  502    0 -0.00000000000E+00  0.00000000000E+00  0.55580361372E+03  0.55580361372E+03  0.00000000000E+00 0. -1.
         21   -1    0    0  501  502  0.00000000000E+00 -0.00000000000E+00 -0.26721288395E+02  0.26721288395E+02  0.00000000000E+00 0.  1.
         23    2    1    2    0    0  0.16544780532E+00 -0.39926623460E+02  0.29614803893E+03  0.31103195852E+03  0.86273145442E+02 0.  0.
         23    2    1    2    0    0  0.31103175128E+02  0.35564784907E+02  0.15521190932E+03  0.18760301384E+03  0.94190724488E+02 0.  0.
        -11    1    4    4    0    0  0.31591956812E+02 -0.26040427799E+02  0.41627457650E+02  0.58386649549E+02  0.00000000000E+00 0. -1.
         11    1    4    4    0    0 -0.48878168423E+00  0.61605212706E+02  0.11358445167E+03  0.12921636429E+03  0.00000000000E+00 0.  1.
        -11    1    3    3    0    0 -0.42316086107E+02 -0.23675285607E+02  0.17618776298E+03  0.18273833236E+03  0.00000000000E+00 0.  1.
         11    1    3    3    0    0  0.42481533913E+02 -0.16251337853E+02  0.11996027595E+03  0.12829362615E+03  0.00000000000E+00 0. -1.
          2    1    1    2  501    0 -0.31268622933E+02  0.43618385530E+01  0.77722377083E+02  0.83889929759E+02  0.00000000000E+00 0. -1.
<scales pt_clust_5="13000.00000" pt_clust_6="13000.00000" pt_clust_7="13000.00000" pt_clust_8="13000.00000" pt_clust_9="31.57140"></scales>
<clustering>
<clus scale="   31.571">  2  9  1 -1</clus>
<clus scale="   86.273">  7  8 -1 -1</clus>
<clus scale="   94.191">  5  6 -1 -1</clus>
<clus scale="   94.990">  1  7  2 -1</clus>
<clus scale="   31.571">  2  5  1 -1</clus>
</clustering>
</event>
<event>
 9    1  0.1671478E-005  0.2269744E+03  0.7546771E-02  0.1129213E+00
          2   -1    0    0  502    0 -0.00000000000E+00  0.00000000000E+00  0.15013099624E+04  0.15013099624E+04  0.00000000000E+00 0. -1.
         21   -1    0    0  501  502  0.00000000000E+00 -0.00000000000E+00 -0.70999722057E+02  0.70999722057E+02  0.00000000000E+00 0. -1.
         23    2    1    2    0    0  0.19426725990E+03 -0.97628787057E+02  0.12060478822E+04  0.12291075248E+04  0.94247892484E+02 0.  0.
         23    2    1    2    0    0 -0.16451942456E+03  0.35078644963E+02  0.15477066639E+03  0.24508718005E+03  0.88411618368E+02 0.  0.
        -11    1    3    3    0    0  0.71328928540E+02 -0.88268651063E+02  0.55367166988E+03  0.56518270394E+03  0.00000000000E+00 0.  1.
         11    1    3    3    0    0  0.12293833136E+03 -0.93601359943E+01  0.65237621229E+03  0.66392482091E+03  0.00000000000E+00 0. -1.
        -13    1    4    4    0    0 -0.96637152049E+02  0.34415560591E+01  0.33085449250E+02  0.10220191004E+03  0.00000000000E+00 0. -1.
         13    1    4    4    0    0 -0.67882272506E+02  0.31637088904E+02  0.12168521714E+03  0.14288527001E+03  0.00000000000E+00 0.  1.
          2    1    1    2  501    0 -0.29747835340E+02  0.62550142095E+02  0.69491691745E+02  0.98114979514E+02  0.00000000000E+00 0. -1.
<scales pt_clust_5="13000.00000" pt_clust_6="13000.00000" pt_clust_7="13000.00000" pt_clust_8="13000.00000" pt_clust_9="69.26366"></scales>
<clustering>
<clus scale="   69.264">  2  9  1 -1</clus>
<clus scale="   88.412">  7  8 -1 -1</clus>
<clus scale="   94.248">  5  6 -1 -1</clus>
<clus scale="  224.614">  2  7  1 -1</clus>
<clus scale="   69.264">  2  5  1 -1</clus>
</clustering>
</event>
<event>
 9    1  0.1671478E-005  0.1045894E+03  0.7546771E-02  0.1272733E+00
         21   -1    0    0  501  502  0.00000000000E+00  0.00000000000E+00  0.11012906733E+03  0.11012906733E+03  0.00000000000E+00 0. -1.
         -3   -1    0    0    0  501 -0.00000000000E+00 -0.00000000000E+00 -0.17202653372E+03  0.17202653372E+03  0.00000000000E+00 0.  1.
         23    2    1    2    0    0 -0.21615401750E+02  0.38300657911E+02 -0.46530277738E+02  0.11218542736E+03  0.92121318798E+02 0.  0.
         23    2    1    2    0    0  0.47151481675E+02 -0.81681573088E+01 -0.49135680735E+02  0.11800508898E+03  0.96025542888E+02 0.  0.
        -11    1    4    4    0    0  0.63559555707E+02  0.25065856151E+02 -0.42178223539E+02  0.80293940040E+02  0.00000000000E+00 0.  1.
         11    1    4    4    0    0 -0.16408074032E+02 -0.33234013459E+02 -0.69574571960E+01  0.37711148944E+02  0.00000000000E+00 0. -1.
        -13    1    3    3    0    0 -0.48233886631E+02 -0.41623553887E+01 -0.82257175890E+01  0.49106979665E+02  0.00000000000E+00 0. -1.
         13    1    3    3    0    0  0.26618484881E+02  0.42463013299E+02 -0.38304560149E+02  0.63078447698E+02  0.00000000000E+00 0.  1.
         -3    1    1    2    0  502 -0.25536079925E+02 -0.30132500602E+02  0.33768492086E+02  0.51965084703E+02  0.00000000000E+00 0.  1.
<scales pt_clust_5="13000.00000" pt_clust_6="13000.00000" pt_clust_7="13000.00000" pt_clust_8="13000.00000" pt_clust_9="39.49758"></scales>
<clustering>
<clus scale="   39.498">  1  9  2 -1</clus>
<clus scale="   92.121">  7  8 -1 -1</clus>
<clus scale="   96.026">  5  6 -1 -1</clus>
<clus scale="  101.017">  2  7  1 -1</clus>
<clus scale="   39.498">  1  5  2 -1</clus>
</clustering>
</event>
<event>
 9    1  0.1671478E-005  0.1239162E+03  0.7546771E-02  0.1237614E+00
         21   -1    0    0  501  502  0.00000000000E+00  0.00000000000E+00  0.29931266846E+02  0.29931266846E+02  0.00000000000E+00 0.  1.
          1   -1    0    0  502    0 -0.00000000000E+00 -0.00000000000E+00 -0.74049491736E+03  0.74049491736E+03  0.00000000000E+00 0. -1.
         23    2    1    2    0    0  0.63984618427E+02 -0.67126557474E+02 -0.47209757133E+03  0.48965160221E+03  0.91008618129E+02 0.  0.
         23    2    1    2    0    0 -0.42325038820E+02  0.57490862181E+02 -0.22842943229E+03  0.25503126649E+03  0.88115453837E+02 0.  0.
        -11    1    3    3    0    0  0.52220100744E+02 -0.89674414633E+02 -0.39823481560E+03  0.41153299736E+03  0.00000000000E+00 0.  1.
         11    1    3    3    0    0  0.11764517683E+02  0.22547857160E+02 -0.73862755730E+02  0.78118604844E+02  0.00000000000E+00 0. -1.
        -11    1    4    4    0    0 -0.66955721754E+02  0.35775323297E+02 -0.18926917387E+03  0.20392587528E+03  0.00000000000E+00 0.  1.
         11    1    4    4    0    0  0.24630682934E+02  0.21715538884E+02 -0.39160258427E+02  0.51105391212E+02  0.00000000000E+00 0. -1.
          1    1    1    2  501    0 -0.21659579607E+02  0.96356952925E+01 -0.10036646889E+02  0.25743315507E+02  0.00000000000E+00 0. -1.
<scales pt_clust_5="13000.00000" pt_clust_6="13000.00000" pt_clust_7="13000.00000" pt_clust_8="13000.00000" pt_clust_9="23.70620"></scales>
<clustering>
<clus scale="   23.706">  1  9  2 -1</clus>
<clus scale="   88.115">  7  8 -1 -1</clus>
<clus scale="   91.009">  5  6 -1 -1</clus>
<clus scale="  121.807">  1  7  2 -1</clus>
<clus scale="   23.706">  1  5  2 -1</clus>
</clustering>
</event>
<event>
 9    1  0.1671478E-005  0.1055512E+03  0.7546771E-02  0.1269520E+00
         21   -1    0    0  501  502  0.00000000000E+00  0.00000000000E+00  0.39448476016E+03  0.39448476016E+03  0.00000000000E+00 0. -1.
          1   -1    0    0  502    0 -0.00000000000E+00 -0.00000000000E+00 -0.17753432513E+03  0.17753432513E+03  0.00000000000E+00 0. -1.
         23    2    1    2    0    0 -0.54236693308E+02  0.26688695770E+02 -0.13026362966E+03  0.17005404012E+03  0.91081600584E+02 0.  0.
         23    2    1    2    0    0  0.30269771166E+02  0.25152324991E+02  0.74253962327E+02  0.12309388806E+03  0.89941958266E+02 0.  0.
        -11    1    3    3    0    0  0.18995976913E+02  0.71587140052E+01 -0.11428739533E+01  0.20332252358E+02  0.00000000000E+00 0.  1.
         11    1    3    3    0    0 -0.73232670220E+02  0.19529981764E+02 -0.12912075571E+03  0.14972178776E+03  0.00000000000E+00 0. -1.
        -13    1    4    4    0    0  0.75119288412E+01  0.28225067552E+02 -0.13649975866E+02  0.32239810086E+02  0.00000000000E+00 0. -1.
         13    1    4    4    0    0  0.22757842324E+02 -0.30727425606E+01  0.87903938193E+02  0.90854077971E+02  0.00000000000E+00 0.  1.
          1    1    1    2  501    0  0.23966922142E+02 -0.51841020761E+02  0.27296010237E+03  0.27887115712E+03  0.00000000000E+00 0. -1.
<scales pt_clust_5="13000.00000" pt_clust_6="13000.00000" pt_clust_7="13000.00000" pt_clust_8="13000.00000" pt_clust_9="57.11309"></scales>
<clustering>
<clus scale="   57.113">  1  9  2 -1</clus>
<clus scale="   89.942">  7  8 -1 -1</clus>
<clus scale="   91.082">  5  6 -1 -1</clus>
<clus scale="  104.569">  1  7  2 -1</clus>
<clus scale="   57.113">  1  5  2 -1</clus>
</clustering>
</event>
<event>
 9    1  0.1671478E-005  0.1771816E+03  0.7546771E-02  0.1170589E+00
          1   -1    0    0  502    0 -0.00000000000E+00  0.00000000000E+00  0.60561651059E+03  0.60561651059E+03  0.00000000000E+00 0. -1.
         21   -1    0    0  501  502  0.00000000000E+00 -0.00000000000E+00 -0.13439634405E+03  0.13439634405E+03  0.00000000000E+00 0. -1.
         23    2    1    2    0    0  0.69837562053E+02  0.11624136517E+03  0.26398339174E+03  0.31045336555E+03  0.91130242055E+02 0.  0.
         23    2    1    2    0    0 -0.16043490067E+03 -0.10164812894E+03  0.25122793887E+03  0.32779474654E+03  0.90896749796E+02 0.  0.
        -13    1    3    3    0    0  0.28024868316E+02  0.88159929816E+01  0.91680369473E+01  0.30776092635E+02  0.00000000000E+00 0.  1.
         13    1    3    3    0    0  0.41812693737E+02  0.10742537218E+03  0.25481535480E+03  0.27967727292E+03  0.00000000000E+00 0. -1.
        -13    1    4    4    0    0 -0.46215586020E+02 -0.77674927496E+02  0.13954346033E+03  0.16625778801E+03  0.00000000000E+00 0.  1.
         13    1    4    4    0    0 -0.11421931465E+03 -0.23973201449E+02  0.11168447853E+03  0.16153695853E+03  0.00000000000E+00 0. -1.
          1    1    1    2  501    0  0.90597338616E+02 -0.14593236221E+02 -0.43991164071E+02  0.10176474254E+03  0.00000000000E+00 0. -1.
<scales pt_clust_5="13000.00000" pt_clust_6="13000.00000" pt_clust_7="13000.00000" pt_clust_8="13000.00000" pt_clust_9="91.76514"></scales>
<clustering>
<clus scale="   90.897">  7  8 -1 -1</clus>
<clus scale="   91.130">  5  6 -1 -1</clus>
<clus scale="   91.765">  2  9  1 -1</clus>
<clus scale="  177.062">  2  7  1 -1</clus>
<clus scale="   91.765">  2  5  1 -1</clus>
</clustering>
</event>
<event>
 9    1  0.1671478E-005  0.1204951E+03  0.7546771E-02  0.1242791E+00
         21   -1    0    0  501  502  0.00000000000E+00  0.00000000000E+00  0.29311587238E+02  0.29311587238E+02  0.00000000000E+00 0.  1.
          2   -1    0    0  502    0 -0.00000000000E+00 -0.00000000000E+00 -0.65945167482E+03  0.65945167482E+03  0.00000000000E+00 0. -1.
         23    2    1    2    0    0 -0.46966509994E+02  0.70447412042E+02 -0.36392362835E+03  0.38465293835E+03  0.91371684845E+02 0.  0.
         23    2    1    2    0    0  0.25274027885E+02 -0.67771353396E+02 -0.25433265550E+03  0.27923162074E+03  0.89741102849E+02 0.  0.
        -11    1    3    3    0    0  0.19198357608E+02  0.24095885976E+02 -0.38278287618E+02  0.49136706837E+02  0.00000000000E+00 0.  1.
         11    1    3    3    0    0 -0.66164867602E+02  0.46351526066E+02 -0.32564534073E+03  0.33551623152E+03  0.00000000000E+00 0. -1.
        -13    1    4    4    0    0  0.47842315978E+02 -0.51858069693E+01 -0.92819966876E+02  0.10455298199E+03  0.00000000000E+00 0. -1.
         13    1    4    4    0    0 -0.22568288094E+02 -0.62585546427E+02 -0.16151268862E+03  0.17467863875E+03  0.00000000000E+00 0.  1.
          2    1    1    2  501    0  0.21692482110E+02 -0.26760586462E+01 -0.11883803737E+02  0.24878702965E+02  0.00000000000E+00 0. -1.
<scales pt_clust_5="13000.00000" pt_clust_6="13000.00000" pt_clust_7="13000.00000" pt_clust_8="13000.00000" pt_clust_9="21.85692"></scales>
<clustering>
<clus scale="   21.857">  1  9  2 -1</clus>
<clus scale="   89.741">  7  8 -1 -1</clus>
<clus scale="   91.372">  5  6 -1 -1</clus>
<clus scale="  119.263">  1  7  2 -1</clus>
<clus scale="   21.857">  1  5  2 -1</clus>
</clustering>
</event>
<event>
 9    1  0.1671478E-005  0.9876105E+02  0.7546771E-02  0.1284970E+00
         21   -1    0    0  501  502  0.00000000000E+00  0.00000000000E+00  0.96831441690E+02  0.96831441690E+02  0.00000000000E+00 0. -1.
          1   -1    0    0  502    0 -0.00000000000E+00 -0.00000000000E+00 -0.15385718157E+03  0.15385718157E+03  0.00000000000E+00 0. -1.
         23    2    1    2    0    0  0.12607190115E+02  0.27538900550E+02 -0.74062661487E+02  0.12358183351E+03  0.94179931312E+02 0.  0.
         23    2    1    2    0    0 -0.34466571252E+02 -0.11581280033E+02  0.21603654793E+02  0.99659872826E+02  0.90240244737E+02 0.  0.
        -13    1    3    3    0    0 -0.24895448966E+02 -0.22850167228E+02 -0.39154387566E+02  0.51720204825E+02  0.00000000000E+00 0.  1.
         13    1    3    3    0    0  0.37502639080E+02  0.50389067778E+02 -0.34908273921E+02  0.71861628688E+02  0.00000000000E+00 0. -1.
        -13    1    4    4    0    0 -0.28350943241E+02  0.32712159607E+02 -0.10587136775E+02  0.44563985839E+02  0.00000000000E+00 0.  1.
         13    1    4    4    0    0 -0.61156280106E+01 -0.44293439640E+02  0.32190791568E+02  0.55095886987E+02  0.00000000000E+00 0. -1.
          1    1    1    2  501    0  0.21859381137E+02 -0.15957620517E+02 -0.45667331816E+01  0.27446916916E+02  0.00000000000E+00 0. -1.
<scales pt_clust_5="13000.00000" pt_clust_6="13000.00000" pt_clust_7="13000.00000" pt_clust_8="13000.00000" pt_clust_9="27.06433"></scales>
<clustering>
<clus scale="   27.064">  1  9  2 -1</clus>
<clus scale="   90.240">  7  8 -1 -1</clus>
<clus scale="   94.180">  5  6 -1 -1</clus>
<clus scale="   95.012">  1  7  2 -1</clus>
<clus scale="   27.064">  1  5  2 -1</clus>
</clustering>
</event>
<event>
 9    1  0.1825910E-005  0.1094421E+03  0.7546771E-02  0.1262963E+00
         21   -1    0    0  501  502  0.00000000000E+00  0.00000000000E+00  0.22004299824E+03  0.22004299824E+03  0.00000000000E+00 0.  1.
         -3   -1    0    0    0  501 -0.00000000000E+00 -0.00000000000E+00 -0.26617103546E+03  0.26617103546E+03  0.00000000000E+00 0.  1.
         23    2    1    2    0    0  0.59865863269E+02  0.36848877199E+02 -0.14742370326E+03  0.18751484109E+03  0.92121148541E+02 0.  0.
         23    2    1    2    0    0 -0.40623017795E+02  0.29607921130E+02 -0.59836219131E+02  0.12334162202E+03  0.95424965461E+02 0.  0.
        -11    1    3    3    0    0  0.72393106133E+02  0.17736611964E+02 -0.55862132935E+02  0.93144656935E+02  0.00000000000E+00 0. -1.
         11    1    3    3    0    0 -0.12527242864E+02  0.19112265235E+02 -0.91561570325E+02  0.94370184150E+02  0.00000000000E+00 0.  1.
        -13    1    4    4    0    0 -0.56946513577E+02  0.43796699792E+02 -0.69223172734E+02  0.99764241914E+02  0.00000000000E+00 0.  1.
         13    1    4    4    0    0  0.16323495783E+02 -0.14188778662E+02  0.93869536036E+01  0.23577380102E+02  0.00000000000E+00 0. -1.
         -3    1    1    2    0  502 -0.19242845474E+02 -0.66456798329E+02  0.16113188517E+03  0.17535757060E+03  0.00000000000E+00 0.  1.
<scales pt_clust_5="13000.00000" pt_clust_6="13000.00000" pt_clust_7="13000.00000" pt_clust_8="13000.00000" pt_clust_9="69.18665"></scales>
<clustering>
<clus scale="   69.187">  1  9  2 -1</clus>
<clus scale="   92.121">  5  6 -1 -1</clus>
<clus scale="   95.425">  7  8 -1 -1</clus>
<clus scale="  106.574">  2  5  1 -1</clus>
<clus scale="   69.187">  1  5  2 -1</clus>
</clustering>
</event>
<event>
 9    1  0.1671478E-005  0.1210857E+03  0.7546771E-02  0.1242223E+00
          3   -1    0    0  502    0 -0.00000000000E+00  0.00000000000E+00  0.21134069507E+03  0.21134069507E+03  0.00000000000E+00 0. -1.
         21   -1    0    0  501  502  0.00000000000E+00 -0.00000000000E+00 -0.16818843613E+03  0.16818843613E+03  0.00000000000E+00 0. -1.
         23    2    1    2    0    0  0.23465740689E+02 -0.39776968473E+02  0.29550012199E+02  0.10596882916E+03  0.90682640707E+02 0.  0.
         23    2    1    2    0    0 -0.16444708970E+01  0.11979111675E+03  0.75838416108E+02  0.16986954779E+03  0.93549890294E+02 0.  0.
        -11    1    3    3    0    0 -0.17776390286E+02 -0.54523193621E+02  0.10950033455E+02  0.58383918393E+02  0.00000000000E+00 0.  1.
         11    1    3    3    0    0  0.41242130975E+02  0.14746225148E+02  0.18599978743E+02  0.47584910767E+02  0.00000000000E+00 0. -1.
        -11    1    4    4    0    0  0.17191236712E+02 -0.10533074685E+02  0.12783522987E+02  0.23872635840E+02  0.00000000000E+00 0.  1.
         11    1    4    4    0    0 -0.18835707609E+02  0.13032419143E+03  0.63054893122E+02  0.14599691195E+03  0.00000000000E+00 0. -1.
          3    1    1    2  501    0 -0.21821269792E+02 -0.80014148274E+02 -0.62236169361E+02  0.10369075425E+03  0.00000000000E+00 0. -1.
<scales pt_clust_5="13000.00000" pt_clust_6="13000.00000" pt_clust_7="13000.00000" pt_clust_8="13000.00000" pt_clust_9="82.93631"></scales>
<clustering>
<clus scale="   82.936">  2  9  1 -1</clus>
<clus scale="   90.683">  5  6 -1 -1</clus>
<clus scale="   93.550">  7  8 -1 -1</clus>
<clus scale="  118.884">  1  5  2 -1</clus>
<clus scale="   82.936">  2  5  1 -1</clus>
</clustering>
</event>
<event>
 9    1  0.1671478E-005  0.9962752E+02  0.7546771E-02  0.1282300E+00
         -1   -1    0    0    0  501 -0.00000000000E+00  0.00000000000E+00  0.64313855536E+03  0.64313855536E+03  0.00000000000E+00 0.  1.
         21   -1    0    0  501  502  0.00000000000E+00 -0.00000000000E+00 -0.38550276181E+02  0.38550276181E+02  0.00000000000E+00 0. -1.
         23    2    1    2    0    0 -0.85200171841E+01  0.46987966308E+02  0.37666760422E+03  0.39045473927E+03  0.91082158977E+02 0.  0.
         23    2    1    2    0    0 -0.36310394653E+02 -0.10348701779E+02  0.20593472969E+03  0.22930200591E+03  0.93513403503E+02 0.  0.
        -11    1    4    4    0    0 -0.17957170658E+02 -0.51811006498E+02  0.99454175742E+02  0.11356924515E+03  0.00000000000E+00 0.  1.
         11    1    4    4    0    0 -0.18353223995E+02  0.41462304719E+02  0.10648055394E+03  0.11573276075E+03  0.00000000000E+00 0. -1.
        -13    1    3    3    0    0 -0.29698758475E+02 -0.15310626369E+02  0.82330247193E+02  0.88852130743E+02  0.00000000000E+00 0.  1.
         13    1    3    3    0    0  0.21178741291E+02  0.62298592677E+02  0.29433735702E+03  0.30160260853E+03  0.00000000000E+00 0. -1.
         -1    1    1    2    0  502  0.44830411837E+02 -0.36639264529E+02  0.21985945271E+02  0.61932086354E+02  0.00000000000E+00 0.  1.
<scales pt_clust_5="13000.00000" pt_clust_6="13000.00000" pt_clust_7="13000.00000" pt_clust_8="13000.00000" pt_clust_9="57.89820"></scales>
<clustering>
<clus scale="   57.898">  2  9  1 -1</clus>
<clus scale="   91.082">  7  8 -1 -1</clus>
<clus scale="   93.513">  5  6 -1 -1</clus>
<clus scale="   97.349">  1  7  2 -1</clus>
<clus scale="   57.898">  2  5  1 -1</clus>
</clustering>
</event>
<event>
 9    1  0.1671478E-005  0.9145188E+02  0.7546771E-02  0.1303315E+00
         -2   -1    0    0    0  501 -0.00000000000E+00  0.00000000000E+00  0.10283982153E+03  0.10283982153E+03  0.00000000000E+00 0.  1.
         21   -1    0    0  501  502  0.00000000000E+00 -0.00000000000E+00 -0.22454642729E+03  0.22454642729E+03  0.00000000000E+00 0. -1.
         23    2    1    2    0    0  0.21149529051E+01  0.42597250769E+01  0.59942422838E+02  0.10916719231E+03  0.91114013951E+02 0.  0.
         23    2    1    2    0    0  0.10917777550E+02 -0.25713418971E+02 -0.10605626979E+03  0.13856745120E+03  0.84691371385E+02 0.  0.
        -11    1    3    3    0    0 -0.12525103548E+02  0.42065679005E+02  0.51661137288E+02  0.67788440570E+02  0.00000000000E+00 0. -1.
         11    1    3    3    0    0  0.14640056453E+02 -0.37805953928E+02  0.82812855494E+01  0.41378751742E+02  0.00000000000E+00 0.  1.
        -11    1    4    4    0    0  0.46384877016E+02 -0.62478390160E+01 -0.42464144194E+02  0.63196486060E+02  0.00000000000E+00 0.  1.
         11    1    4    4    0    0 -0.35467099467E+02 -0.19465579955E+02 -0.63592125596E+02  0.75370965135E+02  0.00000000000E+00 0. -1.
         -2    1    1    2    0  502 -0.13032730455E+02  0.21453693894E+02 -0.75592758811E+02  0.79651605316E+02  0.00000000000E+00 0.  1.
<scales pt_clust_5="13000.00000" pt_clust_6="13000.00000" pt_clust_7="13000.00000" pt_clust_8="13000.00000" pt_clust_9="25.10205"></scales>
<clustering>
<clus scale="   25.102">  2  9  1 -1</clus>
<clus scale="   84.691">  7  8 -1 -1</clus>
<clus scale="   85.055">  2  7  1 -1</clus>
<clus scale="   91.114">  5  6 -1 -1</clus>
<clus scale="   25.102">  2  5  1 -1</clus>
</clustering>
</event>
<event>
 9    1  0.1671478E-005  0.9969638E+02  0.7546771E-02  0.1284964E+00
          2   -1    0    0  502    0 -0.00000000000E+00  0.00000000000E+00  0.73813203882E+03  0.73813203882E+03  0.00000000000E+00 0. -1.
         21   -1    0    0  501  502  0.00000000000E+00 -0.00000000000E+00 -0.40720588678E+02  0.40720588678E+02  0.00000000000E+00 0. -1.
         23    2    1    2    0    0 -0.44173604495E+02  0.16828624639E+02  0.44719707081E+03  0.45931788086E+03  0.93558460854E+02 0.  0.
         23    2    1    2    0    0  0.21101041564E+02  0.22944480063E+01  0.26970174470E+03  0.28378852339E+03  0.85711005514E+02 0.  0.
        -11    1    4    4    0    0 -0.77685549965E+01 -0.35206596212E+02  0.72272493617E+02  0.80766132736E+02  0.00000000000E+00 0.  1.
         11    1    4    4    0    0  0.28869596561E+02  0.37501044218E+02  0.19742925108E+03  0.20302239065E+03  0.00000000000E+00 0. -1.
        -13    1    3    3    0    0 -0.59408389812E+02  0.40450858025E+02  0.37532682743E+03  0.38214638044E+03  0.00000000000E+00 0. -1.
         13    1    3    3    0    0  0.15234785317E+02 -0.23622233387E+02  0.71870243381E+02  0.77171500423E+02  0.00000000000E+00 0.  1.
          2    1    1    2  501    0  0.23072562931E+02 -0.19123072645E+02 -0.19487365366E+02  0.35746223248E+02  0.00000000000E+00 0. -1.
<scales pt_clust_5="13000.00000" pt_clust_6="13000.00000" pt_clust_7="13000.00000" pt_clust_8="13000.00000" pt_clust_9="29.96723"></scales>
<clustering>
<clus scale="   29.967">  2  9  1 -1</clus>
<clus scale="   85.711">  5  6 -1 -1</clus>
<clus scale="   92.372">  2  5  1 -1</clus>
<clus scale="   93.558">  7  8 -1 -1</clus>
<clus scale="   29.967">  2  5  1 -1</clus>
</clustering>
</event>
<event>
 9    1  0.1671478E-005  0.1053869E+03  0.7546771E-02  0.1270593E+00
          2   -1    0    0  502    0 -0.00000000000E+00  0.00000000000E+00  0.35579640452E+03  0.35579640452E+03  0.00000000000E+00 0. -1.
         21   -1    0    0  501  502  0.00000000000E+00 -0.00000000000E+00 -0.77541409932E+02  0.77541409932E+02  0.00000000000E+00 0.  1.
         23    2    1    2    0    0 -0.50963198723E+02  0.14546495803E+02  0.29361329865E+03  0.31246342025E+03  0.92821181234E+02 0.  0.
         23    2    1    2    0    0  0.34467907034E+02  0.91362169849E-01 -0.49599297970E+01  0.96492275320E+02  0.89989517893E+02 0.  0.
        -13    1    3    3    0    0 -0.74165976216E+02  0.11214727934E+02  0.26533125921E+03  0.27573001154E+03  0.00000000000E+00 0. -1.
         13    1    3    3    0    0  0.23202777493E+02  0.33317678684E+01  0.28282039447E+02  0.36733408714E+02  0.00000000000E+00 0.  1.
        -13    1    4    4    0    0  0.56413438443E+02  0.26200220832E+02 -0.47915375314E+01  0.62384985698E+02  0.00000000000E+00 0.  1.
         13    1    4    4    0    0 -0.21945531409E+02 -0.26108858662E+02 -0.16839226562E+00  0.34107289623E+02  0.00000000000E+00 0. -1.
          2    1    1    2  501    0  0.16495291690E+02 -0.14637857972E+02 -0.10398374264E+02  0.24382118884E+02  0.00000000000E+00 0. -1.
<scales pt_clust_5="13000.00000" pt_clust_6="13000.00000" pt_clust_7="13000.00000" pt_clust_8="13000.00000" pt_clust_9="22.05361"></scales>
<clustering>
<clus scale="   22.054">  2  9  1 -1</clus>
<clus scale="   89.990">  7  8 -1 -1</clus>
<clus scale="   92.821">  5  6 -1 -1</clus>
<clus scale="  102.902">  2  7  1 -1</clus>
<clus scale="   22.054">  2  5  1 -1</clus>
</clustering>
</event>
<event>
 9    1  0.1671478E-005  0.1267273E+03  0.7546771E-02  0.1232689E+00
         21   -1    0    0  501  502  0.00000000000E+00  0.00000000000E+00  0.23601557704E+03  0.23601557704E+03  0.00000000000E+00 0. -1.
          1   -1    0    0  502    0 -0.00000000000E+00 -0.00000000000E+00 -0.33018348802E+03  0.33018348802E+03  0.00000000000E+00 0. -1.
         23    2    1    2    0    0 -0.36462863596E+02  0.85090070668E+02 -0.28409410527E+03  0.31210906365E+03  0.90181741006E+02 0.  0.
         23    2    1    2    0    0 -0.92498175772E+01 -0.57496381929E+02  0.89926598402E+02  0.14072783817E+03  0.91247675452E+02 0.  0.
        -11    1    3    3    0    0  0.34514307852E+01  0.79184438235E+02 -0.12525944910E+03  0.14822960980E+03  0.00000000000E+00 0.  1.
         11    1    3    3    0    0 -0.39914294382E+02  0.59056324327E+01 -0.15883465618E+03  0.16387945385E+03  0.00000000000E+00 0. -1.
        -11    1    4    4    0    0 -0.35552680685E+02  0.38775992803E+01  0.11154031512E+02  0.37462531936E+02  0.00000000000E+00 0. -1.
         11    1    4    4    0    0  0.26302863107E+02 -0.61373981209E+02  0.78772566890E+02  0.10326530623E+03  0.00000000000E+00 0.  1.
          1    1    1    2  501    0  0.45712681174E+02 -0.27593688739E+02  0.99999595888E+02  0.11336216325E+03  0.00000000000E+00 0. -1.
<scales pt_clust_5="13000.00000" pt_clust_6="13000.00000" pt_clust_7="13000.00000" pt_clust_8="13000.00000" pt_clust_9="53.39533"></scales>
<clustering>
<clus scale="   53.395">  1  9  2 -1</clus>
<clus scale="   90.182">  5  6 -1 -1</clus>
<clus scale="   91.248">  7  8 -1 -1</clus>
<clus scale="  125.962">  2  5  1 -1</clus>
<clus scale="   53.395">  1  5  2 -1</clus>
</clustering>
</event>
<event>
 9    1  0.1671478E-005  0.1259959E+03  0.7546771E-02  0.1234241E+00
         21   -1    0    0  501  502  0.00000000000E+00  0.00000000000E+00  0.79220797514E+02  0.79220797514E+02  0.00000000000E+00 0.  1.
          4   -1    0    0  502    0 -0.00000000000E+00 -0.00000000000E+00 -0.24700530406E+03  0.24700530406E+03  0.00000000000E+00 0. -1.
         23    2    1    2    0    0  0.36940312245E+01 -0.77878386989E+02 -0.81844023446E+02  0.14392853710E+03  0.89097085198E+02 0.  0.
         23    2    1    2    0    0 -0.14210482631E+02  0.95187612241E+02 -0.91427368102E+02  0.16131397718E+03  0.91654875779E+02 0.  0.
        -11    1    4    4    0    0  0.18664546602E+02  0.95797686222E+02 -0.80960317634E+02  0.12680747224E+03  0.00000000000E+00 0. -1.
         11    1    4    4    0    0 -0.32875029232E+02 -0.61007398082E+00 -0.10467050468E+02  0.34506504934E+02  0.00000000000E+00 0.  1.
        -13    1    3    3    0    0 -0.31508088116E+02 -0.76752809622E+02 -0.61269327774E+02  0.10313914837E+03  0.00000000000E+00 0.  1.
         13    1    3    3    0    0  0.35202119341E+02 -0.11255773679E+01 -0.20574695671E+02  0.40789388724E+02  0.00000000000E+00 0. -1.
          4    1    1    2  501    0  0.10516451406E+02 -0.17309225252E+02  0.54868849986E+01  0.20983587300E+02  0.00000000000E+00 0. -1.
<scales pt_clust_5="13000.00000" pt_clust_6="13000.00000" pt_clust_7="13000.00000" pt_clust_8="13000.00000" pt_clust_9="20.25352"></scales>
<clustering>
<clus scale="   20.254">  1  9  2 -1</clus>
<clus scale="   89.097">  7  8 -1 -1</clus>
<clus scale="   91.655">  5  6 -1 -1</clus>
<clus scale="  124.148">  2  7  1 -1</clus>
<clus scale="   20.254">  1  5  2 -1</clus>
</clustering>
</event>
<event>
 9    1  0.1671478E-005  0.1360683E+03  0.7546771E-02  0.1233660E+00
         21   -1    0    0  501  502  0.00000000000E+00  0.00000000000E+00  0.15715270002E+03  0.15715270002E+03  0.00000000000E+00 0. -1.
          2   -1    0    0  502    0 -0.00000000000E+00 -0.00000000000E+00 -0.20355018397E+03  0.20355018397E+03  0.00000000000E+00 0. -1.
         23    2    1    2    0    0 -0.99496605723E+00 -0.45236116836E+02  0.13481702997E+02  0.10065777790E+03  0.88898457307E+02 0.  0.
         23    2    1    2    0    0 -0.77868831533E+02 -0.45327990946E+02 -0.52413627117E+01  0.12811084965E+03  0.90921593842E+02 0.  0.
        -11    1    3    3    0    0 -0.22336624793E+02  0.13654996277E+02 -0.16776024731E+02  0.31093708950E+02  0.00000000000E+00 0. -1.
         11    1    3    3    0    0  0.21341658736E+02 -0.58891113112E+02  0.30257727728E+02  0.69564068947E+02  0.00000000000E+00 0.  1.
        -13    1    4    4    0    0 -0.81025742412E+02 -0.61673934334E+01  0.16921207953E+02  0.83003222550E+02  0.00000000000E+00 0.  1.
         13    1    4    4    0    0  0.31569108794E+01 -0.39160597512E+02 -0.22162570665E+02  0.45107627097E+02  0.00000000000E+00 0. -1.
          2    1    1    2  501    0  0.78863797590E+02  0.90564107781E+02 -0.54637824238E+02  0.13193425645E+03  0.00000000000E+00 0. -1.
<scales pt_clust_5="13000.00000" pt_clust_6="13000.00000" pt_clust_7="13000.00000" pt_clust_8="13000.00000" pt_clust_9="101.23165"></scales>
<clustering>
<clus scale="   88.898">  5  6 -1 -1</clus>
<clus scale="   90.922">  7  8 -1 -1</clus>
<clus scale="   99.751">  2  5  1 -1</clus>
<clus scale="  101.232">  1  9  2 -1</clus>
<clus scale="  101.232">  1  5  2 -1</clus>
</clustering>
</event>
<event>
 9    1  0.1671478E-005  0.3394743E+03  0.7546771E-02  0.1067052E+00
         21   -1    0    0  501  502  0.00000000000E+00  0.00000000000E+00  0.20706184496E+03  0.20706184496E+03  0.00000000000E+00 0. -1.
          3   -1    0    0  502    0 -0.00000000000E+00 -0.00000000000E+00 -0.67898918280E+03  0.67898918280E+03  0.00000000000E+00 0. -1.
         23    2    1    2    0    0  0.22646973112E+03  0.25251135833E+03 -0.36132565936E+03  0.50398100320E+03  0.91597457775E+02 0.  0.
         23    2    1    2    0    0 -0.22668800794E+03 -0.20804519642E+03 -0.10372849096E+03  0.33707527035E+03  0.90497963226E+02 0.  0.
        -13    1    4    4    0    0 -0.95874607469E+01 -0.25579845110E+02 -0.36552412815E+02  0.45632518691E+02  0.00000000000E+00 0.  1.
         13    1    4    4    0    0 -0.21710054719E+03 -0.18246535131E+03 -0.67176078142E+02  0.29144275166E+03  0.00000000000E+00 0. -1.
        -13    1    3    3    0    0  0.73550372164E+01  0.34228791377E+02 -0.11078004596E+02  0.36720960192E+02  0.00000000000E+00 0.  1.
         13    1    3    3    0    0  0.21911469391E+03  0.21828256695E+03 -0.35024765476E+03  0.46726004301E+03  0.00000000000E+00 0. -1.
          3    1    1    2  501    0  0.21827681910E+00 -0.44466161907E+02 -0.68731875230E+01  0.44994754208E+02  0.00000000000E+00 0. -1.
<scales pt_clust_5="13000.00000" pt_clust_6="13000.00000" pt_clust_7="13000.00000" pt_clust_8="13000.00000" pt_clust_9="44.46670"></scales>
<clustering>
<clus scale="   44.467">  1  9  2 -1</clus>
<clus scale="   90.498">  5  6 -1 -1</clus>
<clus scale="   91.597">  7  8 -1 -1</clus>
<clus scale="  339.179">  1  5  2 -1</clus>
<clus scale="   44.467">  1  5  2 -1</clus>
</clustering>
</event>
<event>
 9    1  0.1671478E-005  0.3959919E+03  0.7546771E-02  0.1045250E+00
          1   -1    0    0  502    0 -0.00000000000E+00  0.00000000000E+00  0.71637891923E+03  0.71637891923E+03  0.00000000000E+00 0. -1.
         21   -1    0    0  501  502  0.00000000000E+00 -0.00000000000E+00 -0.33278902839E+03  0.33278902839E+03  0.00000000000E+00 0. -1.
         23    2    1    2    0    0 -0.16247432291E+03  0.34094219342E+03  0.32915493089E+03  0.50859807804E+03  0.87690088413E+02 0.  0.
         23    2    1    2    0    0  0.13883357627E+03 -0.37334980954E+03  0.15125302418E+03  0.43577065181E+03  0.91398804566E+02 0.  0.
        -11    1    4    4    0    0  0.81987421698E+02 -0.14341167660E+03  0.24111988946E+02  0.16694380585E+03  0.00000000000E+00 0. -1.
         11    1    4    4    0    0  0.56846154574E+02 -0.22993813294E+03  0.12714103523E+03  0.26882684596E+03  0.00000000000E+00 0.  1.
        -13    1    3    3    0    0 -0.23416614865E+02  0.13875507457E+03  0.98006753718E+02  0.17148362122E+03  0.00000000000E+00 0.  1.
         13    1    3    3    0    0 -0.13905770804E+03  0.20218711884E+03  0.23114817717E+03  0.33711445683E+03  0.00000000000E+00 0. -1.
          1    1    1    2  501    0  0.23640746636E+02  0.32407616121E+02 -0.96818064224E+02  0.10479921777E+03  0.00000000000E+00 0. -1.
<scales pt_clust_5="13000.00000" pt_clust_6="13000.00000" pt_clust_7="13000.00000" pt_clust_8="13000.00000" pt_clust_9="40.11407"></scales>
<clustering>
<clus scale="   40.114">  2  9  1 -1</clus>
<clus scale="   87.690">  7  8 -1 -1</clus>
<clus scale="   91.399">  5  6 -1 -1</clus>
<clus scale="  395.152">  1  7  2 -1</clus>
<clus scale="   40.114">  2  5  1 -1</clus>
</clustering>
</event>
<event>
 9    1  0.1671478E-005  0.9465713E+02  0.7546771E-02  0.1294677E+00
         -4   -1    0    0    0  501 -0.00000000000E+00  0.00000000000E+00  0.14994063055E+03  0.14994063055E+03  0.00000000000E+00 0.  1.
         21   -1    0    0  501  502  0.00000000000E+00 -0.00000000000E+00 -0.98803351074E+02  0.98803351074E+02  0.00000000000E+00 0. -1.
         23    2    1    2    0    0 -0.76556767157E+01  0.42689665645E+01  0.83278815694E+02  0.12217300194E+03  0.88960934113E+02 0.  0.
         23    2    1    2    0    0  0.16378933331E+02 -0.26256745266E+02 -0.27814348004E+02  0.10252348135E+03  0.93700267581E+02 0.  0.
        -11    1    4    4    0    0 -0.45630597995E+01 -0.36718487524E+02  0.25066797387E+02  0.44692428576E+02  0.00000000000E+00 0.  1.
         11    1    4    4    0    0  0.20941993131E+02  0.10461742257E+02 -0.52881145391E+02  0.57831052776E+02  0.00000000000E+00 0. -1.
        -11    1    3    3    0    0  0.39925996190E+01 -0.40545352395E+02  0.52995166962E+02  0.66845749109E+02  0.00000000000E+00 0. -1.
         11    1    3    3    0    0 -0.11648276335E+02  0.44814318960E+02  0.30283648732E+02  0.55327252832E+02  0.00000000000E+00 0.  1.
         -4    1    1    2    0  502 -0.87232566156E+01  0.21987778702E+02 -0.43271882132E+01  0.24047498333E+02  0.00000000000E+00 0.  1.
<scales pt_clust_5="13000.00000" pt_clust_6="13000.00000" pt_clust_7="13000.00000" pt_clust_8="13000.00000" pt_clust_9="23.65497"></scales>
<clustering>
<clus scale="   23.655">  2  9  1 -1</clus>
<clus scale="   88.961">  7  8 -1 -1</clus>
<clus scale="   89.968">  1  7  2 -1</clus>
<clus scale="   93.700">  5  6 -1 -1</clus>
<clus scale="   23.655">  2  5  1 -1</clus>
</clustering>
</event>
<event>
 9    1  0.1671478E-005  0.1288026E+03  0.7546771E-02  0.1240109E+00
         21   -1    0    0  501  502  0.00000000000E+00  0.00000000000E+00  0.96208068557E+02  0.96208068557E+02  0.00000000000E+00 0. -1.
          1   -1    0    0  502    0 -0.00000000000E+00 -0.00000000000E+00 -0.29100785220E+03  0.29100785220E+03  0.00000000000E+00 0. -1.
         23    2    1    2    0    0 -0.41604289440E+02  0.11385764702E+02 -0.14728390041E+03  0.17693487921E+03  0.88050278952E+02 0.  0.
         23    2    1    2    0    0  0.85750961821E+02 -0.12465954620E+02 -0.68973343362E+02  0.16118401426E+03  0.11710822722E+03 0.  0.
        -11    1    3    3    0    0  0.73227533834E+00 -0.34563052948E+02 -0.40825730297E+02  0.53496552324E+02  0.00000000000E+00 0. -1.
         11    1    3    3    0    0 -0.42336564778E+02  0.45948817650E+02 -0.10645817012E+03  0.12343832689E+03  0.00000000000E+00 0.  1.
        -13    1    4    4    0    0  0.64310623015E+02 -0.35779990868E+02 -0.95012402133E+02  0.12018078273E+03  0.00000000000E+00 0. -1.
         13    1    4    4    0    0  0.21440338807E+02  0.23314036248E+02  0.26039058771E+02  0.41003231532E+02  0.00000000000E+00 0.  1.
          1    1    1    2  501    0 -0.44146672382E+02  0.10801899182E+01  0.21457460130E+02  0.49097027281E+02  0.00000000000E+00 0. -1.
<scales pt_clust_5="13000.00000" pt_clust_6="13000.00000" pt_clust_7="13000.00000" pt_clust_8="13000.00000" pt_clust_9="44.15989"></scales>
<clustering>
<clus scale="   44.160">  1  9  2 -1</clus>
<clus scale="   88.050">  5  6 -1 -1</clus>
<clus scale="  103.095">  2  5  1 -1</clus>
<clus scale="  117.108">  7  8 -1 -1</clus>
<clus scale="   44.160">  1  5  2 -1</clus>
</clustering>
</event>
<event>
 9    1  0.1671478E-005  0.1530079E+03  0.7546771E-02  0.1212273E+00
         21   -1    0    0  501  502  0.00000000000E+00  0.00000000000E+00  0.26168877203E+02  0.26168877203E+02  0.00000000000E+00 0. -1.
          2   -1    0    0  502    0 -0.00000000000E+00 -0.00000000000E+00 -0.15024955101E+04  0.15024955101E+04  0.00000000000E+00 0. -1.
         23    2    1    2    0    0 -0.57505243781E+02  0.19578246741E+02 -0.50931380800E+03  0.52098896594E+03  0.91316957873E+02 0.  0.
         23    2    1    2    0    0 -0.46695633646E+02 -0.10477312548E+03 -0.56982864593E+03  0.58830534346E+03  0.90777758310E+02 0.  0.
        -11    1    4    4    0    0  0.17953942575E+02 -0.43812985210E+02 -0.10676637358E+03  0.11679460713E+03  0.00000000000E+00 0.  1.
         11    1    4    4    0    0 -0.64649576221E+02 -0.60960140274E+02 -0.46306227234E+03  0.47151073633E+03  0.00000000000E+00 0. -1.
        -13    1    3    3    0    0  0.16049089050E+02  0.29884632269E+02 -0.20191952266E+03  0.20474901254E+03  0.00000000000E+00 0.  1.
         13    1    3    3    0    0 -0.73554332832E+02 -0.10306385528E+02 -0.30739428535E+03  0.31623995340E+03  0.00000000000E+00 0. -1.
          2    1    1    2  501    0  0.10420087743E+03  0.85194878743E+02 -0.39718417899E+03  0.41937007793E+03  0.00000000000E+00 0. -1.
<scales pt_clust_5="13000.00000" pt_clust_6="13000.00000" pt_clust_7="13000.00000" pt_clust_8="13000.00000" pt_clust_9="123.16991"></scales>
<clustering>
<clus scale="   90.778">  5  6 -1 -1</clus>
<clus scale="   91.317">  7  8 -1 -1</clus>
<clus scale="  109.677">  2  7  1 -1</clus>
<clus scale="  123.170">  1  9  2 -1</clus>
<clus scale="  123.170">  1  5  2 -1</clus>
</clustering>
</event>
<event>
 9    1  0.1671478E-005  0.1471405E+03  0.7546771E-02  0.1204539E+00
         21   -1    0    0  501  502  0.00000000000E+00  0.00000000000E+00  0.29606932635E+03  0.29606932635E+03  0.00000000000E+00 0.  1.
         -2   -1    0    0    0  501 -0.00000000000E+00 -0.00000000000E+00 -0.22982494996E+03  0.22982494996E+03  0.00000000000E+00 0.  1.
         23    2    1    2    0    0  0.10590259433E+03 -0.29161361232E+02 -0.15107028163E+03  0.20901469527E+03  0.93803882491E+02 0.  0.
         23    2    1    2    0    0 -0.12199786520E+03  0.42042283623E+02  0.78377076616E+02  0.17642094858E+03  0.91270763309E+02 0.  0.
        -13    1    4    4    0    0 -0.11625785176E+03  0.63851069096E+02  0.77986634024E+02  0.15386605281E+03  0.00000000000E+00 0.  1.
         13    1    4    4    0    0 -0.57400134410E+01 -0.21808785473E+02  0.39044259269E+00  0.22554895777E+02  0.00000000000E+00 0. -1.
        -13    1    3    3    0    0  0.49054651702E+02  0.26849098582E+02 -0.99068884153E+02  0.11376236968E+03  0.00000000000E+00 0.  1.
         13    1    3    3    0    0  0.56847942628E+02 -0.56010459815E+02 -0.52001397481E+02  0.95252325586E+02  0.00000000000E+00 0. -1.
         -2    1    1    2    0  502  0.16095270868E+02 -0.12880922391E+02  0.13893758140E+03  0.14045863246E+03  0.00000000000E+00 0.  1.
<scales pt_clust_5="13000.00000" pt_clust_6="13000.00000" pt_clust_7="13000.00000" pt_clust_8="13000.00000" pt_clust_9="20.61494"></scales>
<clustering>
<clus scale="   20.615">  1  9  2 -1</clus>
<clus scale="   91.271">  5  6 -1 -1</clus>
<clus scale="   93.804">  7  8 -1 -1</clus>
<clus scale="  145.539">  1  5  2 -1</clus>
<clus scale="   20.615">  1  5  2 -1</clus>
</clustering>
</event>
<event>
 9    1  0.1671478E-005  0.1498776E+03  0.7546771E-02  0.1202407E+00
         -1   -1    0    0    0  501 -0.00000000000E+00  0.00000000000E+00  0.35266496750E+03  0.35266496750E+03  0.00000000000E+00 0.  1.
         21   -1    0    0  501  502  0.00000000000E+00 -0.00000000000E+00 -0.18791385788E+03  0.18791385788E+03  0.00000000000E+00 0.  1.
         23    2    1    2    0    0  0.86942686456E+02  0.66529300121E+02  0.18232062981E+03  0.23152055214E+03  0.91519263036E+02 0.  0.
         23    2    1    2    0    0 -0.60260358966E+02 -0.13991517955E+03  0.74516251230E+02  0.18832210136E+03  0.81883904596E+02 0.  0.
        -11    1    4    4    0    0 -0.47003502058E+02 -0.91439663958E+02  0.89040192576E+02  0.13600991598E+03  0.00000000000E+00 0.  1.
         11    1    4    4    0    0 -0.13256856908E+02 -0.48475515596E+02 -0.14523941347E+02  0.52312185384E+02  0.00000000000E+00 0. -1.
        -13    1    3    3    0    0  0.61507330935E+02  0.50899038189E+01  0.13919558243E+03  0.15226447074E+03  0.00000000000E+00 0.  1.
         13    1    3    3    0    0  0.25435355520E+02  0.61439396302E+02  0.43125047377E+02  0.79256081405E+02  0.00000000000E+00 0. -1.
         -1    1    1    2    0  502 -0.26682327490E+02  0.73385879433E+02 -0.92085771425E+02  0.12073617188E+03  0.00000000000E+00 0.  1.
<scales pt_clust_5="13000.00000" pt_clust_6="13000.00000" pt_clust_7="13000.00000" pt_clust_8="13000.00000" pt_clust_9="78.08607"></scales>
<clustering>
<clus scale="   78.086">  2  9  1 -1</clus>
<clus scale="   81.884">  5  6 -1 -1</clus>
<clus scale="   91.519">  7  8 -1 -1</clus>
<clus scale="  144.196">  2  5  1 -1</clus>
<clus scale="   78.086">  2  5  1 -1</clus>
</clustering>
</event>
<event>
 9    1  0.1671478E-005  0.1006036E+03  0.7546771E-02  0.1279928E+00
          3   -1    0    0  502    0 -0.00000000000E+00  0.00000000000E+00  0.68500093800E+02  0.68500093800E+02  0.00000000000E+00 0. -1.
         21   -1    0    0  501  502  0.00000000000E+00 -0.00000000000E+00 -0.54479987155E+03  0.54479987155E+03  0.00000000000E+00 0.  1.
         23    2    1    2    0    0 -0.34012981840E+02 -0.22130673602E+02  0.17967769007E+02  0.10160057656E+03  0.91395770071E+02 0.  0.
         23    2    1    2    0    0  0.75079037929E+01  0.21490300993E+02 -0.28425099898E+03  0.30001594687E+03  0.93234844897E+02 0.  0.
        -11    1    4    4    0    0  0.94604422683E+01  0.58324972515E+02 -0.17503399332E+03  0.18473819638E+03  0.00000000000E+00 0.  1.
         11    1    4    4    0    0 -0.19525384755E+01 -0.36834671522E+02 -0.10921700566E+03  0.11527775049E+03  0.00000000000E+00 0. -1.
        -13    1    3    3    0    0 -0.16614679538E+02 -0.57698913785E+02  0.65968607218E+01  0.60404724976E+02  0.00000000000E+00 0. -1.
         13    1    3    3    0    0 -0.17398302302E+02  0.35568240182E+02  0.11370908285E+02  0.41195851586E+02  0.00000000000E+00 0.  1.
          3    1    1    2  501    0  0.26505078047E+02  0.64037260960E+00 -0.21001654779E+03  0.21168344192E+03  0.00000000000E+00 0. -1.
<scales pt_clust_5="13000.00000" pt_clust_6="13000.00000" pt_clust_7="13000.00000" pt_clust_8="13000.00000" pt_clust_9="26.51281"></scales>
<clustering>
<clus scale="   26.513">  2  9  1 -1</clus>
<clus scale="   91.396">  7  8 -1 -1</clus>
<clus scale="   93.235">  5  6 -1 -1</clus>
<clus scale="   98.902">  1  7  2 -1</clus>
<clus scale="   26.513">  2  5  1 -1</clus>
</clustering>
</event>
<event>
 9    1  0.1671478E-005  0.1276455E+03  0.7546771E-02  0.1232921E+00
         21   -1    0    0  501  502  0.00000000000E+00  0.00000000000E+00  0.32623038834E+02  0.32623038834E+02  0.00000000000E+00 0.  1.
          1   -1    0    0  502    0 -0.00000000000E+00 -0.00000000000E+00 -0.91355417920E+03  0.91355417920E+03  0.00000000000E+00 0. -1.
         23    2    1    2    0    0  0.57600776791E+02 -0.85852031202E+02 -0.48451740392E+03  0.50263818190E+03  0.84850494712E+02 0.  0.
         23    2    1    2    0    0  0.10824150788E+01  0.80131085241E+02 -0.34283455039E+03  0.36386987391E+03  0.91889029566E+02 0.  0.
        -11    1    4    4    0    0 -0.27028788702E+02  0.42309314568E+02 -0.28441739839E+03  0.28881462917E+03  0.00000000000E+00 0. -1.
         11    1    4    4    0    0  0.28111203780E+02  0.37821770672E+02 -0.58417152001E+02  0.75055244738E+02  0.00000000000E+00 0.  1.
        -13    1    3    3    0    0 -0.15111597111E+02 -0.44219988379E+02 -0.22949047548E+03  0.23420001297E+03  0.00000000000E+00 0. -1.
         13    1    3    3    0    0  0.72712373902E+02 -0.41632042823E+02 -0.25502692845E+03  0.26843816894E+03  0.00000000000E+00 0.  1.
          1    1    1    2  501    0 -0.58683191870E+02  0.57209459618E+01 -0.53579186052E+02  0.79669162219E+02  0.00000000000E+00 0. -1.
<scales pt_clust_5="13000.00000" pt_clust_6="13000.00000" pt_clust_7="13000.00000" pt_clust_8="13000.00000" pt_clust_9="58.96140"></scales>
<clustering>
<clus scale="   58.961">  1  9  2 -1</clus>
<clus scale="   84.850">  7  8 -1 -1</clus>
<clus scale="   91.889">  5  6 -1 -1</clus>
<clus scale="  122.676">  2  7  1 -1</clus>
<clus scale="   58.961">  1  5  2 -1</clus>
</clustering>
</event>
<event>
 9    1  0.1671478E-005  0.1965705E+03  0.7546771E-02  0.1153366E+00
         -1   -1    0    0    0  501 -0.00000000000E+00  0.00000000000E+00  0.11692273179E+04  0.11692273179E+04  0.00000000000E+00 0.  1.
         21   -1    0    0  501  502  0.00000000000E+00 -0.00000000000E+00 -0.64756785925E+02  0.64756785925E+02  0.00000000000E+00 0. -1.
         23    2    1    2    0    0 -0.15492771306E+03 -0.55002656783E+02  0.68377589352E+03  0.70910889070E+03  0.90873856400E+02 0.  0.
         23    2    1    2    0    0  0.15746159423E+03  0.97364920548E+02  0.43281009092E+03  0.48074170955E+03  0.97539402707E+02 0.  0.
        -11    1    3    3    0    0 -0.14722640018E+03 -0.23503375197E+02  0.61858735317E+03  0.63630050689E+03  0.00000000000E+00 0.  1.
         11    1    3    3    0    0 -0.77013128726E+01 -0.31499281585E+02  0.65188540347E+02  0.72808383809E+02  0.00000000000E+00 0. -1.
        -13    1    4    4    0    0  0.96910864712E+02  0.10061884649E+03  0.23040159787E+03  0.26944528994E+03  0.00000000000E+00 0. -1.
         13    1    4    4    0    0  0.60550729520E+02 -0.32539259420E+01  0.20240849305E+03  0.21129641960E+03  0.00000000000E+00 0.  1.
         -1    1    1    2    0  502 -0.25338811752E+01 -0.42362263766E+02 -0.12115452513E+02  0.44133503540E+02  0.00000000000E+00 0.  1.
<scales pt_clust_5="13000.00000" pt_clust_6="13000.00000" pt_clust_7="13000.00000" pt_clust_8="13000.00000" pt_clust_9="42.43798"></scales>
<clustering>
<clus scale="   42.438">  2  9  1 -1</clus>
<clus scale="   90.874">  5  6 -1 -1</clus>
<clus scale="   97.539">  7  8 -1 -1</clus>
<clus scale="  193.350">  1  5  2 -1</clus>
<clus scale="   42.438">  2  5  1 -1</clus>
</clustering>
</event>
<event>
 9    1  0.1671478E-005  0.1730331E+03  0.7546771E-02  0.1174878E+00
         21   -1    0    0  501  502  0.00000000000E+00  0.00000000000E+00  0.12261195548E+03  0.12261195548E+03  0.00000000000E+00 0. -1.
          2   -1    0    0  502    0 -0.00000000000E+00 -0.00000000000E+00 -0.29991881989E+03  0.29991881989E+03  0.00000000000E+00 0. -1.
         23    2    1    2    0    0  0.11210091501E+03  0.81261148831E+02 -0.87546470202E+02  0.18823655485E+03  0.92728780224E+02 0.  0.
         23    2    1    2    0    0 -0.10660031995E+03 -0.11411305872E+03 -0.87062367019E+02  0.20087590398E+03  0.91574312265E+02 0.  0.
        -11    1    4    4    0    0 -0.66736388135E+02 -0.30997698403E+02 -0.79588721562E+02  0.10839265384E+03  0.00000000000E+00 0. -1.
         11    1    4    4    0    0 -0.39863931818E+02 -0.83115360313E+02 -0.74736454576E+01  0.92483250139E+02  0.00000000000E+00 0.  1.
        -13    1    3    3    0    0  0.66051537184E+02  0.96773399910E+02 -0.52881541688E+02  0.12854708844E+03  0.00000000000E+00 0.  1.
         13    1    3    3    0    0  0.46049377830E+02 -0.15512251079E+02 -0.34664928514E+02  0.59689466415E+02  0.00000000000E+00 0. -1.
          2    1    1    2  501    0 -0.55005950612E+01  0.32851909884E+02 -0.26980271855E+01  0.33418316531E+02  0.00000000000E+00 0. -1.
<scales pt_clust_5="13000.00000" pt_clust_6="13000.00000" pt_clust_7="13000.00000" pt_clust_8="13000.00000" pt_clust_9="33.30923"></scales>
<clustering>
<clus scale="   33.309">  1  9  2 -1</clus>
<clus scale="   91.574">  5  6 -1 -1</clus>
<clus scale="   92.729">  7  8 -1 -1</clus>
<clus scale="  172.417">  1  5  2 -1</clus>
<clus scale="   33.309">  1  5  2 -1</clus>
</clustering>
</event>
<event>
 9    1  0.1671478E-005  0.1946091E+03  0.7546771E-02  0.1184977E+00
          1   -1    0    0  502    0 -0.00000000000E+00  0.00000000000E+00  0.51974424119E+03  0.51974424119E+03  0.00000000000E+00 0. -1.
         21   -1    0    0  501  502  0.00000000000E+00 -0.00000000000E+00 -0.11234978252E+03  0.11234978252E+03  0.00000000000E+00 0. -1.
         23    2    1    2    0    0 -0.17032188954E+02 -0.33744070092E+02  0.90294676475E+02  0.13221376757E+03  0.88874034496E+02 0.  0.
         23    2    1    2    0    0 -0.16063330603E+03  0.33496625211E+02  0.24452951462E+03  0.30796482405E+03  0.90125281816E+02 0.  0.
        -11    1    3    3    0    0  0.32361694614E+02 -0.17783796941E+02  0.13082792298E+02  0.39175274935E+02  0.00000000000E+00 0.  1.
         11    1    3    3    0    0 -0.49393883568E+02 -0.15960273150E+02  0.77211884177E+02  0.93038492631E+02  0.00000000000E+00 0. -1.
        -11    1    4    4    0    0 -0.15429596420E+03  0.55158675785E+02  0.22337346517E+03  0.27702965369E+03  0.00000000000E+00 0. -1.
         11    1    4    4    0    0 -0.63373418342E+01 -0.21662050574E+02  0.21156049449E+02  0.30935170355E+02  0.00000000000E+00 0.  1.
          1    1    1    2  501    0  0.17766549499E+03  0.24744488107E+00  0.72570267571E+02  0.19191543209E+03  0.00000000000E+00 0. -1.
<scales pt_clust_5="13000.00000" pt_clust_6="13000.00000" pt_clust_7="13000.00000" pt_clust_8="13000.00000" pt_clust_9="172.48233"></scales>
<clustering>
<clus scale="   88.874">  5  6 -1 -1</clus>
<clus scale="   90.125">  7  8 -1 -1</clus>
<clus scale="   96.578">  1  5  2 -1</clus>
<clus scale="  172.482">  2  9  1 -1</clus>
<clus scale="  172.482">  2  5  1 -1</clus>
</clustering>
</event>
<event>
 9    1  0.1671478E-005  0.1077009E+03  0.7546771E-02  0.1265710E+00
         21   -1    0    0  501  502  0.00000000000E+00  0.00000000000E+00  0.19680747601E+03  0.19680747601E+03  0.00000000000E+00 0. -1.
          2   -1    0    0  502    0 -0.00000000000E+00 -0.00000000000E+00 -0.34581438611E+03  0.34581438611E+03  0.00000000000E+00 0. -1.
         23    2    1    2    0    0  0.45447765491E+02  0.22477300614E+02 -0.19292812233E+03  0.21919287111E+03  0.90848918146E+02 0.  0.
         23    2    1    2    0    0 -0.65443004381E+02 -0.12161516195E+00 -0.11503764122E+03  0.16166526412E+03  0.92839631163E+02 0.  0.
        -11    1    3    3    0    0 -0.65108680053E+01 -0.28778712258E+02 -0.73863218242E+02  0.79538548456E+02  0.00000000000E+00 0.  1.
         11    1    3    3    0    0  0.51958633496E+02  0.51256012871E+02 -0.11906490409E+03  0.13965432265E+03  0.00000000000E+00 0. -1.
        -13    1    4    4    0    0  0.65124756694E+01 -0.29515757277E+02 -0.11820950825E+02  0.32455001855E+02  0.00000000000E+00 0.  1.
         13    1    4    4    0    0 -0.71955480050E+02  0.29394142115E+02 -0.10321669039E+03  0.12921026227E+03  0.00000000000E+00 0. -1.
          2    1    1    2  501    0  0.19995238890E+02 -0.22355685452E+02  0.15895885344E+03  0.16176372689E+03  0.00000000000E+00 0. -1.
<scales pt_clust_5="13000.00000" pt_clust_6="13000.00000" pt_clust_7="13000.00000" pt_clust_8="13000.00000" pt_clust_9="29.99310"></scales>
<clustering>
<clus scale="   29.993">  1  9  2 -1</clus>
<clus scale="   90.849">  5  6 -1 -1</clus>
<clus scale="   92.840">  7  8 -1 -1</clus>
<clus scale="  105.990">  2  5  1 -1</clus>
<clus scale="   29.993">  1  5  2 -1</clus>
</clustering>
</event>
<event>
 9    1  0.1671478E-005  0.1440424E+03  0.7546771E-02  0.1224051E+00
         21   -1    0    0  501  502  0.00000000000E+00  0.00000000000E+00  0.20243574369E+03  0.20243574369E+03  0.00000000000E+00 0. -1.
          1   -1    0    0  502    0 -0.00000000000E+00 -0.00000000000E+00 -0.25182650262E+03  0.25182650262E+03  0.00000000000E+00 0. -1.
         23    2    1    2    0    0 -0.45479221484E+02  0.22612036126E+02 -0.11707513828E+03  0.15565614598E+03  0.89121176022E+02 0.  0.
         23    2    1    2    0    0  0.99776846738E+02  0.75408533425E+02 -0.21960072433E+02  0.15510560591E+03  0.89070972521E+02 0.  0.
        -13    1    3    3    0    0 -0.18624545372E+02 -0.33680239192E+02 -0.31328978748E+02  0.49625972149E+02  0.00000000000E+00 0.  1.
         13    1    3    3    0    0 -0.26854676112E+02  0.56292275318E+02 -0.85746159529E+02  0.10603017384E+03  0.00000000000E+00 0. -1.
        -13    1    4    4    0    0  0.55483195317E+02  0.89618585526E+02 -0.25531328635E+02  0.10845148490E+03  0.00000000000E+00 0.  1.
         13    1    4    4    0    0  0.44293651421E+02 -0.14210052101E+02  0.35712562019E+01  0.46654121016E+02  0.00000000000E+00 0. -1.
          1    1    1    2  501    0 -0.54297625254E+02 -0.98020569551E+02  0.89644451774E+02  0.14350049441E+03  0.00000000000E+00 0. -1.
<scales pt_clust_5="13000.00000" pt_clust_6="13000.00000" pt_clust_7="13000.00000" pt_clust_8="13000.00000" pt_clust_9="113.20148"></scales>
<clustering>
<clus scale="   89.071">  7  8 -1 -1</clus>
<clus scale="   89.121">  5  6 -1 -1</clus>
<clus scale="  102.578">  2  5  1 -1</clus>
<clus scale="  113.201">  1  9  2 -1</clus>
<clus scale="  113.201">  1  5  2 -1</clus>
</clustering>
</event>
<event>
 9    1  0.1671478E-005  0.1042952E+03  0.7546771E-02  0.1273754E+00
         21   -1    0    0  501  502  0.00000000000E+00  0.00000000000E+00  0.50355603739E+03  0.50355603739E+03  0.00000000000E+00 0. -1.
          1   -1    0    0  502    0 -0.00000000000E+00 -0.00000000000E+00 -0.68546798701E+02  0.68546798701E+02  0.00000000000E+00 0. -1.
         23    2    1    2    0    0 -0.33801056940E+02 -0.93566403202E+01 -0.44824233626E+01  0.98274516076E+02  0.91693676022E+02 0.  0.
         23    2    1    2    0    0  0.62539002997E+02 -0.70041095314E+01  0.19023679877E+03  0.22238939990E+03  0.96471867066E+02 0.  0.
        -11    1    4    4    0    0 -0.12100216786E+02  0.24757413050E+02  0.86015235605E+02  0.90321456495E+02  0.00000000000E+00 0.  1.
         11    1    4    4    0    0  0.74639219783E+02 -0.31761522581E+02  0.10422156317E+03  0.13206794340E+03  0.00000000000E+00 0. -1.
        -11    1    3    3    0    0 -0.28138469530E+02  0.37427962879E+02 -0.16487556000E+02  0.49643381992E+02  0.00000000000E+00 0.  1.
         11    1    3    3    0    0 -0.56625874101E+01 -0.46784603199E+02  0.12005132638E+02  0.48631134084E+02  0.00000000000E+00 0. -1.
          1    1    1    2  501    0 -0.28737946057E+02  0.16360749852E+02  0.24925486328E+03  0.25143892011E+03  0.00000000000E+00 0. -1.
<scales pt_clust_5="13000.00000" pt_clust_6="13000.00000" pt_clust_7="13000.00000" pt_clust_8="13000.00000" pt_clust_9="33.06877"></scales>
<clustering>
<clus scale="   33.069">  1  9  2 -1</clus>
<clus scale="   91.694">  7  8 -1 -1</clus>
<clus scale="   96.472">  5  6 -1 -1</clus>
<clus scale="   99.892">  2  7  1 -1</clus>
<clus scale="   33.069">  1  5  2 -1</clus>
</clustering>
</event>
<event>
 9    1  0.1671478E-005  0.1606014E+03  0.7546771E-02  0.1189090E+00
         21   -1    0    0  501  502  0.00000000000E+00  0.00000000000E+00  0.94239384820E+02  0.94239384820E+02  0.00000000000E+00 0.  1.
         -3   -1    0    0    0  501 -0.00000000000E+00 -0.00000000000E+00 -0.43384004230E+03  0.43384004230E+03  0.00000000000E+00 0.  1.
         23    2    1    2    0    0  0.11668007289E+03  0.94763918094E+02 -0.25440085401E+03  0.31225586780E+03  0.10094301793E+03 0.  0.
         23    2    1    2    0    0 -0.74488388555E+02 -0.40466074392E+02 -0.39260932889E+02  0.13312667977E+03  0.94843390959E+02 0.  0.
        -11    1    4    4    0    0 -0.34270023825E+02  0.21667619725E+02 -0.42893274484E+02  0.59023328214E+02  0.00000000000E+00 0.  1.
         11    1    4    4    0    0 -0.40218364730E+02 -0.62133694116E+02  0.36323415949E+01  0.74103351554E+02  0.00000000000E+00 0. -1.
        -11    1    3    3    0    0  0.10735363006E+03  0.65143147674E+02 -0.11782899783E+03  0.17219786382E+03  0.00000000000E+00 0.  1.
         11    1    3    3    0    0  0.93264428326E+01  0.29620770420E+02 -0.13657185618E+03  0.14005800398E+03  0.00000000000E+00 0. -1.
         -3    1    1    2    0  502 -0.42191684334E+02 -0.54297843703E+02 -0.45938870576E+02  0.82696879551E+02  0.00000000000E+00 0.  1.
<scales pt_clust_5="13000.00000" pt_clust_6="13000.00000" pt_clust_7="13000.00000" pt_clust_8="13000.00000" pt_clust_9="68.76332"></scales>
<clustering>
<clus scale="   68.763">  1  9  2 -1</clus>
<clus scale="   94.843">  5  6 -1 -1</clus>
<clus scale="  100.943">  7  8 -1 -1</clus>
<clus scale="  156.839">  1  5  2 -1</clus>
<clus scale="   68.763">  1  5  2 -1</clus>
</clustering>
</event>
<event>
 9    1  0.1671478E-005  0.9580860E+02  0.7546771E-02  0.1289717E+00
          2   -1    0    0  502    0 -0.00000000000E+00  0.00000000000E+00  0.15865179316E+03  0.15865179316E+03  0.00000000000E+00 0. -1.
         21   -1    0    0  501  502  0.00000000000E+00 -0.00000000000E+00 -0.83113904817E+02  0.83113904817E+02  0.00000000000E+00 0.  1.
         23    2    1    2    0    0 -0.10094063167E+01  0.15221462730E+02  0.38872133749E+02  0.10002204638E+03  0.90888146376E+02 0.  0.
         23    2    1    2    0    0  0.18966132287E+02 -0.38655165057E+02  0.45498304245E+02  0.11092813041E+03  0.91547902586E+02 0.  0.
        -13    1    3    3    0    0 -0.37424047456E+02  0.29037720079E+02  0.38550986086E+02  0.61073128654E+02  0.00000000000E+00 0. -1.
         13    1    3    3    0    0  0.36414641139E+02 -0.13816257350E+02  0.32114766293E+00  0.38948917729E+02  0.00000000000E+00 0.  1.
        -13    1    4    4    0    0  0.16774063651E+01  0.29255578403E+02  0.23242257118E+02  0.37401939465E+02  0.00000000000E+00 0. -1.
         13    1    4    4    0    0  0.17288725922E+02 -0.67910743460E+02  0.22256047127E+02  0.73526190946E+02  0.00000000000E+00 0.  1.
          2    1    1    2  501    0 -0.17956725970E+02  0.23433702327E+02 -0.88325496532E+01  0.30815521182E+02  0.00000000000E+00 0. -1.
<scales pt_clust_5="13000.00000" pt_clust_6="13000.00000" pt_clust_7="13000.00000" pt_clust_8="13000.00000" pt_clust_9="29.52257"></scales>
<clustering>
<clus scale="   29.523">  2  9  1 -1</clus>
<clus scale="   90.888">  5  6 -1 -1</clus>
<clus scale="   91.548">  7  8 -1 -1</clus>
<clus scale="   95.178">  1  5  2 -1</clus>
<clus scale="   29.523">  2  5  1 -1</clus>
</clustering>
</event>
<event>
 9    1  0.1671478E-005  0.2302097E+03  0.7546771E-02  0.1126576E+00
         -2   -1    0    0    0  501 -0.00000000000E+00  0.00000000000E+00  0.42618919214E+03  0.42618919214E+03  0.00000000000E+00 0.  1.
         21   -1    0    0  501  502  0.00000000000E+00 -0.00000000000E+00 -0.23919573687E+03  0.23919573687E+03  0.00000000000E+00 0.  1.
         23    2    1    2    0    0 -0.16301520160E+03  0.11156640966E+03  0.13006157583E+03  0.25326550982E+03  0.90589101090E+02 0.  0.
         23    2    1    2    0    0  0.25874136226E+03 -0.27469368617E+02  0.92321249704E+01  0.27606400136E+03  0.91784758867E+02 0.  0.
        -11    1    3    3    0    0 -0.16595289678E+03  0.78259314297E+02  0.11541863883E+03  0.21676334195E+03  0.00000000000E+00 0. -1.
         11    1    3    3    0    0  0.29376951807E+01  0.33307095367E+02  0.14642936999E+02  0.36502167864E+02  0.00000000000E+00 0.  1.
        -11    1    4    4    0    0  0.95505654914E+02 -0.42196151536E+02 -0.27767180126E+02  0.10804101822E+03  0.00000000000E+00 0.  1.
         11    1    4    4    0    0  0.16323570734E+03  0.14726782918E+02  0.36999305096E+02  0.16802298314E+03  0.00000000000E+00 0. -1.
         -2    1    1    2    0  502 -0.95726160653E+02 -0.84097041047E+02  0.47699754458E+02  0.13605541783E+03  0.00000000000E+00 0.  1.
<scales pt_clust_5="13000.00000" pt_clust_6="13000.00000" pt_clust_7="13000.00000" pt_clust_8="13000.00000" pt_clust_9="127.41988"></scales>
<clustering>
<clus scale="   90.589">  5  6 -1 -1</clus>
<clus scale="   91.785">  7  8 -1 -1</clus>
<clus scale="  127.420">  2  9  1 -1</clus>
<clus scale="  229.736">  1  5  2 -1</clus>
<clus scale="  127.420">  2  5  1 -1</clus>
</clustering>
</event>
<event>
 9    1  0.1671478E-005  0.2074287E+03  0.7546771E-02  0.1147524E+00
          3   -1    0    0  502    0 -0.00000000000E+00  0.00000000000E+00  0.12183420812E+04  0.12183420812E+04  0.00000000000E+00 0. -1.
         21   -1    0    0  501  502  0.00000000000E+00 -0.00000000000E+00 -0.41807899583E+02  0.41807899583E+02  0.00000000000E+00 0.  1.
         23    2    1    2    0    0  0.16747468251E+03  0.32659657331E+02  0.58649698127E+03  0.61773262931E+03  0.92197992290E+02 0.  0.
         23    2    1    2    0    0 -0.14345102589E+03 -0.73924764000E+02  0.50525781106E+03  0.54511632397E+03  0.12579063340E+03 0.  0.
        -13    1    4    4    0    0 -0.38920905378E+02 -0.65626005934E+02  0.95942269856E+02  0.12258274216E+03  0.00000000000E+00 0.  1.
         13    1    4    4    0    0 -0.10453012051E+03 -0.82987580656E+01  0.40931554121E+03  0.42253358181E+03  0.00000000000E+00 0. -1.
        -13    1    3    3    0    0  0.12933976775E+03  0.51642571613E+02  0.33729419266E+03  0.36491519991E+03  0.00000000000E+00 0.  1.
         13    1    3    3    0    0  0.38134914754E+02 -0.18982914282E+02  0.24920278861E+03  0.25281742940E+03  0.00000000000E+00 0. -1.
          3    1    1    2  501    0 -0.24023656613E+02  0.41265106669E+02  0.84779389277E+02  0.97301027495E+02  0.00000000000E+00 0. -1.
<scales pt_clust_5="13000.00000" pt_clust_6="13000.00000" pt_clust_7="13000.00000" pt_clust_8="13000.00000" pt_clust_9="47.74877"></scales>
<clustering>
<clus scale="   47.749">  2  9  1 -1</clus>
<clus scale="   92.198">  7  8 -1 -1</clus>
<clus scale="  125.791">  5  6 -1 -1</clus>
<clus scale="  188.955">  1  7  2 -1</clus>
<clus scale="   47.749">  2  5  1 -1</clus>
</clustering>
</event>
<event>
 9    1  0.1671478E-005  0.1116353E+03  0.7546771E-02  0.1257671E+00
         21   -1    0    0  501  502  0.00000000000E+00  0.00000000000E+00  0.93129191577E+02  0.93129191577E+02  0.00000000000E+00 0. -1.
          1   -1    0    0  502    0 -0.00000000000E+00 -0.00000000000E+00 -0.71217075929E+03  0.71217075929E+03  0.00000000000E+00 0. -1.
         23    2    1    2    0    0 -0.43014551398E+02  0.43904379906E+02 -0.54258024935E+03  0.55356950827E+03  0.90928693423E+02 0.  0.
         23    2    1    2    0    0  0.28536335640E+02 -0.77576797440E+02 -0.13498531244E+03  0.18267605594E+03  0.91197724124E+02 0.  0.
        -13    1    3    3    0    0 -0.62512140727E+02  0.93972560483E+00 -0.31767864464E+03  0.32377209898E+03  0.00000000000E+00 0. -1.
         13    1    3    3    0    0  0.19497589329E+02  0.42964654301E+02 -0.22490160472E+03  0.22979740928E+03  0.00000000000E+00 0.  1.
        -13    1    4    4    0    0  0.11407048415E+02 -0.53495434203E+02 -0.11748637078E+02  0.55945622771E+02  0.00000000000E+00 0.  1.
         13    1    4    4    0    0  0.17129287225E+02 -0.24081363237E+02 -0.12323667536E+03  0.12673043316E+03  0.00000000000E+00 0. -1.
          1    1    1    2  501    0  0.14478215758E+02  0.33672417534E+02  0.58523994081E+02  0.69054386663E+02  0.00000000000E+00 0. -1.
<scales pt_clust_5="13000.00000" pt_clust_6="13000.00000" pt_clust_7="13000.00000" pt_clust_8="13000.00000" pt_clust_9="36.65311"></scales>
<clustering>
<clus scale="   36.653">  1  9  2 -1</clus>
<clus scale="   90.929">  5  6 -1 -1</clus>
<clus scale="   91.198">  7  8 -1 -1</clus>
<clus scale="  111.416">  2  5  1 -1</clus>
<clus scale="   36.653">  1  5  2 -1</clus>
</clustering>
</event>
<event>
 9    1  0.1671478E-005  0.1578403E+03  0.7546771E-02  0.1208959E+00
         21   -1    0    0  501  502  0.00000000000E+00  0.00000000000E+00  0.26485445700E+03  0.26485445700E+03  0.00000000000E+00 0.  1.
         -1   -1    0    0    0  501 -0.00000000000E+00 -0.00000000000E+00 -0.16608720208E+03  0.16608720208E+03  0.00000000000E+00 0.  1.
         23    2    1    2    0    0 -0.46413086306E+02 -0.41939580117E+02  0.68556989706E+02  0.12727139050E+03  0.87091004372E+02 0.  0.
         23    2    1    2    0    0 -0.34057625477E+02  0.14114766958E+03 -0.83398346150E+01  0.17023904784E+03  0.88482733265E+02 0.  0.
        -11    1    3    3    0    0 -0.71749672717E+02 -0.34506399883E+02  0.42827776290E+02  0.90404234358E+02  0.00000000000E+00 0.  1.
         11    1    3    3    0    0  0.25336586411E+02 -0.74331802349E+01  0.25729213416E+02  0.36867156147E+02  0.00000000000E+00 0. -1.
        -13    1    4    4    0    0  0.27421850747E+02  0.19268342037E+02 -0.82073979302E+00  0.33524625532E+02  0.00000000000E+00 0. -1.
         13    1    4    4    0    0 -0.61479476224E+02  0.12187932754E+03 -0.75190948220E+01  0.13671442231E+03  0.00000000000E+00 0.  1.
         -1    1    1    2    0  502  0.80470711783E+02 -0.99208089464E+02  0.38550099834E+02  0.13343122074E+03  0.00000000000E+00 0.  1.
<scales pt_clust_5="13000.00000" pt_clust_6="13000.00000" pt_clust_7="13000.00000" pt_clust_8="13000.00000" pt_clust_9="130.70719"></scales>
<clustering>
<clus scale="   87.091">  5  6 -1 -1</clus>
<clus scale="   88.483">  7  8 -1 -1</clus>
<clus scale="  107.229">  2  5  1 -1</clus>
<clus scale="  130.707">  1  9  2 -1</clus>
<clus scale="  130.707">  1  5  2 -1</clus>
</clustering>
</event>
<event>
 9    1  0.1671478E-005  0.1650806E+03  0.7546771E-02  0.1183225E+00
          1   -1    0    0  502    0 -0.00000000000E+00  0.00000000000E+00  0.27371769185E+03  0.27371769185E+03  0.00000000000E+00 0. -1.
         21   -1    0    0  501  502  0.00000000000E+00 -0.00000000000E+00 -0.26901361089E+03  0.26901361089E+03  0.00000000000E+00 0. -1.
         23    2    1    2    0    0 -0.17062411338E+02 -0.13217638924E+03  0.18628040334E+03  0.24702479249E+03  0.92515596969E+02 0.  0.
         23    2    1    2    0    0 -0.13851655262E+02  0.15227025437E+03 -0.97766166873E+02  0.20414459079E+03  0.93480970491E+02 0.  0.
        -13    1    4    4    0    0  0.39533265865E+02  0.65334067608E+02 -0.51622928212E+02  0.92175627024E+02  0.00000000000E+00 0.  1.
         13    1    4    4    0    0 -0.53384921127E+02  0.86936186758E+02 -0.46143238661E+02  0.11196896376E+03  0.00000000000E+00 0. -1.
        -13    1    3    3    0    0  0.14052486158E+02 -0.15429025335E+02 -0.43618274970E+01  0.21320242239E+02  0.00000000000E+00 0.  1.
         13    1    3    3    0    0 -0.31114897496E+02 -0.11674736390E+03  0.19064223084E+03  0.22570455025E+03  0.00000000000E+00 0. -1.
          1    1    1    2  501    0  0.30914066600E+02 -0.20093865129E+02 -0.83810155507E+02  0.91561919463E+02  0.00000000000E+00 0. -1.
<scales pt_clust_5="13000.00000" pt_clust_6="13000.00000" pt_clust_7="13000.00000" pt_clust_8="13000.00000" pt_clust_9="36.87062"></scales>
<clustering>
<clus scale="   36.871">  2  9  1 -1</clus>
<clus scale="   92.516">  7  8 -1 -1</clus>
<clus scale="   93.481">  5  6 -1 -1</clus>
<clus scale="  164.536">  1  7  2 -1</clus>
<clus scale="   36.871">  2  5  1 -1</clus>
</clustering>
</event>
<event>
 9    1  0.1671478E-005  0.9378051E+02  0.7546771E-02  0.1294097E+00
         -1   -1    0    0    0  501 -0.00000000000E+00  0.00000000000E+00  0.17146518565E+03  0.17146518565E+03  0.00000000000E+00 0.  1.
         21   -1    0    0  501  502  0.00000000000E+00 -0.00000000000E+00 -0.15925784490E+03  0.15925784490E+03  0.00000000000E+00 0.  1.
         23    2    1    2    0    0  0.68023551323E+00  0.30605888991E+02  0.67884264463E+02  0.11753170234E+03  0.90929888003E+02 0.  0.
         23    2    1    2    0    0  0.29902642775E+02 -0.44718759277E+01  0.44364765831E+02  0.10536443578E+03  0.90660168551E+02 0.  0.
        -11    1    3    3    0    0  0.39952697121E+02 -0.57406201345E+01  0.17361259004E+02  0.43938434667E+02  0.00000000000E+00 0. -1.
         11    1    3    3    0    0 -0.39272461608E+02  0.36346509126E+02  0.50523005459E+02  0.73593267674E+02  0.00000000000E+00 0.  1.
        -13    1    4    4    0    0  0.10074626065E+02 -0.39306947060E+02 -0.59759901372E+01  0.41015200056E+02  0.00000000000E+00 0. -1.
         13    1    4    4    0    0  0.19828016710E+02  0.34835071132E+02  0.50340755968E+02  0.64349235729E+02  0.00000000000E+00 0.  1.
         -1    1    1    2    0  502 -0.30582878288E+02 -0.26134013063E+02 -0.10004168955E+03  0.10782689243E+03  0.00000000000E+00 0.  1.
<scales pt_clust_5="13000.00000" pt_clust_6="13000.00000" pt_clust_7="13000.00000" pt_clust_8="13000.00000" pt_clust_9="40.22809"></scales>
<clustering>
<clus scale="   40.228">  2  9  1 -1</clus>
<clus scale="   90.660">  7  8 -1 -1</clus>
<clus scale="   90.930">  5  6 -1 -1</clus>
<clus scale="   93.519">  2  7  1 -1</clus>
<clus scale="   40.228">  2  5  1 -1</clus>
</clustering>
</event>
<event>
 9    1  0.1671478E-005  0.1235164E+03  0.7546771E-02  0.1237736E+00
         21   -1    0    0  501  502  0.00000000000E+00  0.00000000000E+00  0.67940427930E+03  0.67940427930E+03  0.00000000000E+00 0. -1.
          1   -1    0    0  502    0 -0.00000000000E+00 -0.00000000000E+00 -0.36890709169E+02  0.36890709169E+02  0.00000000000E+00 0. -1.
         23    2    1    2    0    0  0.77441136828E+02  0.23157437475E+02  0.12571466424E+03  0.17373598648E+03  0.88581147040E+02 0.  0.
         23    2    1    2    0    0 -0.10190615097E+03 -0.66100112632E+01  0.39575277528E+03  0.41796157036E+03  0.87424592107E+02 0.  0.
        -13    1    3    3    0    0  0.25287505420E+02  0.23847564525E+02 -0.29674689246E+01  0.34885099054E+02  0.00000000000E+00 0. -1.
         13    1    3    3    0    0  0.52153631407E+02 -0.69012705048E+00  0.12868213316E+03  0.13885088743E+03  0.00000000000E+00 0.  1.
        -13    1    4    4    0    0 -0.22801943884E+01  0.21157002650E+02  0.23928914757E+02  0.32022039426E+02  0.00000000000E+00 0.  1.
         13    1    4    4    0    0 -0.99625956578E+02 -0.27767013913E+02  0.37182386052E+03  0.38593953094E+03  0.00000000000E+00 0. -1.
          1    1    1    2  501    0  0.24465014138E+02 -0.16547426211E+02  0.12104613061E+03  0.12459743162E+03  0.00000000000E+00 0. -1.
<scales pt_clust_5="13000.00000" pt_clust_6="13000.00000" pt_clust_7="13000.00000" pt_clust_8="13000.00000" pt_clust_9="29.53564"></scales>
<clustering>
<clus scale="   29.536">  1  9  2 -1</clus>
<clus scale="   87.425">  7  8 -1 -1</clus>
<clus scale="   88.581">  5  6 -1 -1</clus>
<clus scale="  122.690">  1  7  2 -1</clus>
<clus scale="   29.536">  1  5  2 -1</clus>
</clustering>
</event>
<event>
 9    1  0.1671478E-005  0.1514503E+03  0.7546771E-02  0.1198897E+00
         21   -1    0    0  501  502  0.00000000000E+00  0.00000000000E+00  0.68964299948E+02  0.68964299948E+02  0.00000000000E+00 0. -1.
          1   -1    0    0  502    0 -0.00000000000E+00 -0.00000000000E+00 -0.51280473290E+03  0.51280473290E+03  0.00000000000E+00 0. -1.
         23    2    1    2    0    0 -0.13728698296E+02 -0.11697328548E+03 -0.26493189260E+03  0.30356530710E+03  0.89954217721E+02 0.  0.
         23    2    1    2    0    0 -0.25951970748E+02  0.12743757046E+03 -0.17607323941E+03  0.23706863504E+03  0.91026990158E+02 0.  0.
        -11    1    4    4    0    0 -0.45930913359E+02  0.88547658865E+02 -0.16358306089E+03  0.19159789796E+03  0.00000000000E+00 0. -1.
         11    1    4    4    0    0  0.19978942611E+02  0.38889911591E+02 -0.12490178513E+02  0.45470737081E+02  0.00000000000E+00 0.  1.
        -13    1    3    3    0    0  0.28847050232E+02 -0.17013774998E+02 -0.10505775925E+03  0.11026673853E+03  0.00000000000E+00 0.  1.
         13    1    3    3    0    0 -0.42575748528E+02 -0.99959510480E+02 -0.15987413335E+03  0.19329856858E+03  0.00000000000E+00 0. -1.
          1    1    1    2  501    0  0.39680669044E+02 -0.10464284978E+02 -0.28353009472E+01  0.41135090705E+02  0.00000000000E+00 0. -1.
<scales pt_clust_5="13000.00000" pt_clust_6="13000.00000" pt_clust_7="13000.00000" pt_clust_8="13000.00000" pt_clust_9="41.03726"></scales>
<clustering>
<clus scale="   41.037">  1  9  2 -1</clus>
<clus scale="   89.954">  7  8 -1 -1</clus>
<clus scale="   91.027">  5  6 -1 -1</clus>
<clus scale="  150.808">  2  7  1 -1</clus>
<clus scale="   41.037">  1  5  2 -1</clus>
</clustering>
</event>
<event>
 9    1  0.1671478E-005  0.1001397E+03  0.7546771E-02  0.1280217E+00
         21   -1    0    0  501  502  0.00000000000E+00  0.00000000000E+00  0.21114655556E+03  0.21114655556E+03  0.00000000000E+00 0.  1.
          1   -1    0    0  502    0 -0.00000000000E+00 -0.00000000000E+00 -0.90820517017E+02  0.90820517017E+02  0.00000000000E+00 0. -1.
         23    2    1    2    0    0  0.35162722078E+02  0.26221818033E+02 -0.29743753259E+02  0.10439295305E+03  0.89939963443E+02 0.  0.
         23    2    1    2    0    0 -0.46929993831E+02 -0.97203458333E+01  0.95541567829E+02  0.13940114918E+03  0.89485081245E+02 0.  0.
        -11    1    3    3    0    0  0.28468933828E+02  0.54249290460E+02 -0.40713455814E+02  0.73559847695E+02  0.00000000000E+00 0. -1.
         11    1    3    3    0    0  0.66937882493E+01 -0.28027472427E+02  0.10969702555E+02  0.30833105356E+02  0.00000000000E+00 0.  1.
        -13    1    4    4    0    0 -0.64771333249E+02 -0.32104791063E+02  0.75001864664E+02  0.10416968332E+03  0.00000000000E+00 0.  1.
         13    1    4    4    0    0  0.17841339418E+02  0.22384445230E+02  0.20539703165E+02  0.35231465859E+02  0.00000000000E+00 0. -1.
          1    1    1    2  501    0  0.11767271753E+02 -0.16501472199E+02  0.54528223971E+02  0.58172970344E+02  0.00000000000E+00 0. -1.
<scales pt_clust_5="13000.00000" pt_clust_6="13000.00000" pt_clust_7="13000.00000" pt_clust_8="13000.00000" pt_clust_9="20.26739"></scales>
<clustering>
<clus scale="   20.267">  1  9  2 -1</clus>
<clus scale="   89.485">  7  8 -1 -1</clus>
<clus scale="   89.940">  5  6 -1 -1</clus>
<clus scale="   99.731">  1  7  2 -1</clus>
<clus scale="   20.267">  1  5  2 -1</clus>
</clustering>
</event>
<event>
 9    1  0.1671478E-005  0.1033953E+03  0.7546771E-02  0.1278894E+00
          2   -1    0    0  502    0 -0.00000000000E+00  0.00000000000E+00  0.38803232669E+03  0.38803232669E+03  0.00000000000E+00 0. -1.
         21   -1    0    0  501  502  0.00000000000E+00 -0.00000000000E+00 -0.32342498428E+02  0.32342498428E+02  0.00000000000E+00 0.  1.
         23    2    1    2    0    0 -0.18246652227E-01  0.77582818088E+01  0.17414368315E+03  0.19752984439E+03  0.92907619555E+02 0.  0.
         23    2    1    2    0    0  0.56369756642E+00  0.12488794303E+02  0.17046113351E+03  0.19975560894E+03  0.10338770491E+03 0.  0.
        -11    1    3    3    0    0  0.55952670299E+01  0.48972418645E+02  0.72140631010E+02  0.87372051845E+02  0.00000000000E+00 0. -1.
         11    1    3    3    0    0 -0.56135136821E+01 -0.41214136836E+02  0.10200305214E+03  0.11015779254E+03  0.00000000000E+00 0.  1.
        -13    1    4    4    0    0 -0.43197605081E+01 -0.38635847469E+02  0.26876043457E+02  0.47262149257E+02  0.00000000000E+00 0.  1.
         13    1    4    4    0    0  0.48834580745E+01  0.51124641772E+02  0.14358509006E+03  0.15249345968E+03  0.00000000000E+00 0. -1.
          2    1    1    2  501    0 -0.54545091419E+00 -0.20247076112E+02  0.11085011597E+02  0.23089371795E+02  0.00000000000E+00 0. -1.
<scales pt_clust_5="13000.00000" pt_clust_6="13000.00000" pt_clust_7="13000.00000" pt_clust_8="13000.00000" pt_clust_9="20.25442"></scales>
<clustering>
<clus scale="   20.254">  2  9  1 -1</clus>
<clus scale="   92.908">  5  6 -1 -1</clus>
<clus scale="   92.916">  1  5  2 -1</clus>
<clus scale="  103.388">  7  8 -1 -1</clus>
<clus scale="   20.254">  2  5  1 -1</clus>
</clustering>
</event>
<event>
 9    1  0.1671478E-005  0.1300676E+03  0.7546771E-02  0.1227811E+00
         21   -1    0    0  501  502  0.00000000000E+00  0.00000000000E+00  0.13258640718E+04  0.13258640718E+04  0.00000000000E+00 0. -1.
          1   -1    0    0  502    0 -0.00000000000E+00 -0.00000000000E+00 -0.30800413927E+02  0.30800413927E+02  0.00000000000E+00 0. -1.
         23    2    1    2    0    0  0.71642816789E+02 -0.24984284283E+02  0.24481326870E+03  0.27194315753E+03  0.90899046957E+02 0.  0.
         23    2    1    2    0    0 -0.14806569973E+03 -0.22626027636E+02  0.78816959785E+03  0.80760485446E+03  0.92622337440E+02 0.  0.
        -11    1    4    4    0    0 -0.88760109452E+02  0.33083312275E+02  0.41855313153E+03  0.42913819045E+03  0.00000000000E+00 0. -1.
         11    1    4    4    0    0 -0.59305590281E+02 -0.55709339911E+02  0.36961646632E+03  0.37846666401E+03  0.00000000000E+00 0.  1.
        -13    1    3    3    0    0  0.28636916412E+02  0.30846271542E+02  0.13545806363E+03  0.14184658069E+03  0.00000000000E+00 0.  1.
         13    1    3    3    0    0  0.43005900377E+02 -0.55830555825E+02  0.10935520506E+03  0.13009657684E+03  0.00000000000E+00 0. -1.
          1    1    1    2  501    0  0.76422882945E+02  0.47610311919E+02  0.26208079128E+03  0.27711647370E+03  0.00000000000E+00 0. -1.
<scales pt_clust_5="13000.00000" pt_clust_6="13000.00000" pt_clust_7="13000.00000" pt_clust_8="13000.00000" pt_clust_9="90.04003"></scales>
<clustering>
<clus scale="   90.040">  1  9  2 -1</clus>
<clus scale="   90.899">  7  8 -1 -1</clus>
<clus scale="   92.622">  5  6 -1 -1</clus>
<clus scale="  128.846">  2  7  1 -1</clus>
<clus scale="   90.040">  1  5  2 -1</clus>
</clustering>
</event>
<event>
 9    1  0.1671478E-005  0.9678789E+02  0.7546771E-02  0.1290545E+00
         21   -1    0    0  501  502  0.00000000000E+00  0.00000000000E+00  0.42712958927E+03  0.42712958927E+03  0.00000000000E+00 0. -1.
         -1   -1    0    0    0  501 -0.00000000000E+00 -0.00000000000E+00 -0.83955771879E+02  0.83955771879E+02  0.00000000000E+00 0.  1.
         23    2    1    2    0    0  0.18905960633E+01  0.29962216194E+02 -0.42079595857E+02  0.99719177283E+02  0.85275513354E+02 0.  0.
         23    2    1    2    0    0 -0.13221407934E+02 -0.49601574203E+02  0.36856463056E+03  0.38321290433E+03  0.91526615589E+02 0.  0.
        -11    1    4    4    0    0 -0.95955541725E+00  0.22775863583E+02  0.35757629000E+02  0.42405998871E+02  0.00000000000E+00 0.  1.
         11    1    4    4    0    0 -0.12261852517E+02 -0.72377437786E+02  0.33280700156E+03  0.34080690546E+03  0.00000000000E+00 0. -1.
        -11    1    3    3    0    0  0.13462387626E+02  0.52180881253E+02 -0.49931655495E+02  0.73465981715E+02  0.00000000000E+00 0.  1.
         11    1    3    3    0    0 -0.11571791563E+02 -0.22218665059E+02  0.78520596379E+01  0.26253195568E+02  0.00000000000E+00 0. -1.
         -1    1    1    2    0  502  0.11330811871E+02  0.19639358009E+02  0.16688782695E+02  0.28153279534E+02  0.00000000000E+00 0.  1.
<scales pt_clust_5="13000.00000" pt_clust_6="13000.00000" pt_clust_7="13000.00000" pt_clust_8="13000.00000" pt_clust_9="22.67360"></scales>
<clustering>
<clus scale="   22.674">  1  9  2 -1</clus>
<clus scale="   85.276">  7  8 -1 -1</clus>
<clus scale="   90.899">  2  7  1 -1</clus>
<clus scale="   91.527">  5  6 -1 -1</clus>
<clus scale="   22.674">  1  5  2 -1</clus>
</clustering>
</event>
<event>
 9    1  0.1671478E-005  0.1634348E+03  0.7546771E-02  0.1185837E+00
          1   -1    0    0  502    0 -0.00000000000E+00  0.00000000000E+00  0.17004877374E+03  0.17004877374E+03  0.00000000000E+00 0. -1.
         21   -1    0    0  501  502  0.00000000000E+00 -0.00000000000E+00 -0.35328053084E+03  0.35328053084E+03  0.00000000000E+00 0. -1.
         23    2    1    2    0    0  0.49587287651E+02 -0.13690861786E+03  0.62972705315E+02  0.18132127073E+03  0.87800756619E+02 0.  0.
         23    2    1    2    0    0 -0.79139703916E+02  0.61059687835E+02 -0.21455074379E+03  0.25466753123E+03  0.93979527495E+02 0.  0.
        -13    1    3    3    0    0 -0.16804420219E+01 -0.11365779305E+03  0.44571082943E+02  0.12209627038E+03  0.00000000000E+00 0. -1.
         13    1    3    3    0    0  0.51267729673E+02 -0.23250824812E+02  0.18401622372E+02  0.59225000348E+02  0.00000000000E+00 0.  1.
        -13    1    4    4    0    0 -0.31821100089E+02 -0.22467128050E+02 -0.84273984425E+02  0.92841039980E+02  0.00000000000E+00 0.  1.
         13    1    4    4    0    0 -0.47318603826E+02  0.83526815885E+02 -0.13027675936E+03  0.16182649125E+03  0.00000000000E+00 0. -1.
          1    1    1    2  501    0  0.29552416264E+02  0.75848930029E+02 -0.31653718628E+02  0.87340502612E+02  0.00000000000E+00 0. -1.
<scales pt_clust_5="13000.00000" pt_clust_6="13000.00000" pt_clust_7="13000.00000" pt_clust_8="13000.00000" pt_clust_9="81.40274"></scales>
<clustering>
<clus scale="   81.403">  2  9  1 -1</clus>
<clus scale="   87.801">  5  6 -1 -1</clus>
<clus scale="   93.980">  7  8 -1 -1</clus>
<clus scale="  159.962">  1  5  2 -1</clus>
<clus scale="   81.403">  2  5  1 -1</clus>
</clustering>
</event>
<event>
 9    1  0.1671478E-005  0.1169834E+03  0.7546771E-02  0.1248219E+00
         21   -1    0    0  501  502  0.00000000000E+00  0.00000000000E+00  0.70913478205E+02  0.70913478205E+02  0.00000000000E+00 0. -1.
          2   -1    0    0  502    0 -0.00000000000E+00 -0.00000000000E+00 -0.65108328631E+03  0.65108328631E+03  0.00000000000E+00 0. -1.
         23    2    1    2    0    0  0.44103528984E+02  0.65845557218E+02 -0.50396542555E+03  0.51793515310E+03  0.89414282913E+02 0.  0.
         23    2    1    2    0    0 -0.47801500646E+02 -0.42590640241E+02 -0.11465428086E+03  0.15897435338E+03  0.89600752299E+02 0.  0.
        -13    1    4    4    0    0 -0.25838855342E+02  0.26238564579E+02 -0.49431586436E+02  0.61640818084E+02  0.00000000000E+00 0. -1.
         13    1    4    4    0    0 -0.21962645304E+02 -0.68829204820E+02 -0.65222694420E+02  0.97333535291E+02  0.00000000000E+00 0.  1.
        -13    1    3    3    0    0  0.13803957187E+02 -0.20396844210E+02 -0.64028461468E+02  0.68601926836E+02  0.00000000000E+00 0.  1.
         13    1    3    3    0    0  0.30299571797E+02  0.86242401428E+02 -0.43993696408E+03  0.44933322626E+03  0.00000000000E+00 0. -1.
          2    1    1    2  501    0  0.36979716613E+01 -0.23254916977E+02  0.38449898303E+02  0.45087258040E+02  0.00000000000E+00 0. -1.
<scales pt_clust_5="13000.00000" pt_clust_6="13000.00000" pt_clust_7="13000.00000" pt_clust_8="13000.00000" pt_clust_9="23.54711"></scales>
<clustering>
<clus scale="   23.547">  1  9  2 -1</clus>
<clus scale="   89.414">  7  8 -1 -1</clus>
<clus scale="   89.601">  5  6 -1 -1</clus>
<clus scale="  116.841">  2  7  1 -1</clus>
<clus scale="   23.547">  1  5  2 -1</clus>
</clustering>
</event>
<event>
 9    1  0.1671478E-005  0.1643643E+03  0.7546771E-02  0.1185650E+00
         21   -1    0    0  501  502  0.00000000000E+00  0.00000000000E+00  0.46765363445E+02  0.46765363445E+02  0.00000000000E+00 0. -1.
          1   -1    0    0  502    0 -0.00000000000E+00 -0.00000000000E+00 -0.70207056747E+03  0.70207056747E+03  0.00000000000E+00 0. -1.
         23    2    1    2    0    0  0.19940601064E+02 -0.13464433755E+03 -0.37992397499E+03  0.41499345829E+03  0.96698595882E+02 0.  0.
         23    2    1    2    0    0  0.11537676116E+02  0.12994660412E+03 -0.21454995059E+03  0.26518830253E+03  0.85287259356E+02 0.  0.
        -13    1    4    4    0    0  0.19197571962E+02  0.40588175386E+02 -0.16601648816E+02  0.47870256881E+02  0.00000000000E+00 0.  1.
         13    1    4    4    0    0 -0.76598958460E+01  0.89358428737E+02 -0.19794830177E+03  0.21731804565E+03  0.00000000000E+00 0. -1.
        -13    1    3    3    0    0 -0.38704434351E+02 -0.67246045172E+02 -0.17234006536E+03  0.18900042846E+03  0.00000000000E+00 0.  1.
         13    1    3    3    0    0  0.58645035415E+02 -0.67398292382E+02 -0.20758390963E+03  0.22599302983E+03  0.00000000000E+00 0. -1.
          1    1    1    2  501    0 -0.31478277180E+02  0.46977334309E+01 -0.60831278453E+02  0.68654170098E+02  0.00000000000E+00 0. -1.
<scales pt_clust_5="13000.00000" pt_clust_6="13000.00000" pt_clust_7="13000.00000" pt_clust_8="13000.00000" pt_clust_9="31.82690"></scales>
<clustering>
<clus scale="   31.827">  1  9  2 -1</clus>
<clus scale="   85.287">  5  6 -1 -1</clus>
<clus scale="   96.699">  7  8 -1 -1</clus>
<clus scale="  157.921">  1  5  2 -1</clus>
<clus scale="   31.827">  1  5  2 -1</clus>
</clustering>
</event>
<event>
 9    1  0.1671478E-005  0.9908534E+02  0.7546771E-02  0.1284143E+00
         21   -1    0    0  501  502  0.00000000000E+00  0.00000000000E+00  0.25561977370E+03  0.25561977370E+03  0.00000000000E+00 0.  1.
          2   -1    0    0  502    0 -0.00000000000E+00 -0.00000000000E+00 -0.95368417063E+02  0.95368417063E+02  0.00000000000E+00 0. -1.
         23    2    1    2    0    0  0.27239061980E+02 -0.23726842064E+02 -0.27435888014E+02  0.10374590006E+03  0.93303559938E+02 0.  0.
         23    2    1    2    0    0 -0.34804029366E+02 -0.27851509353E+01  0.53003123532E+02  0.10976528540E+03  0.89554504348E+02 0.  0.
        -11    1    3    3    0    0  0.96383329741E+01 -0.52326755550E+02  0.92561212251E+01  0.54006134735E+02  0.00000000000E+00 0.  1.
         11    1    3    3    0    0  0.17600729006E+02  0.28599913486E+02 -0.36692009239E+02  0.49739765329E+02  0.00000000000E+00 0. -1.
        -11    1    4    4    0    0  0.26986628490E+02  0.26202539623E+01  0.36704645461E+02  0.45633045553E+02  0.00000000000E+00 0.  1.
         11    1    4    4    0    0 -0.61790657856E+02 -0.54054048976E+01  0.16298478071E+02  0.64132239847E+02  0.00000000000E+00 0. -1.
          2    1    1    2  501    0  0.75649673858E+01  0.26511992999E+02  0.13468412112E+03  0.13747700530E+03  0.00000000000E+00 0. -1.
<scales pt_clust_5="13000.00000" pt_clust_6="13000.00000" pt_clust_7="13000.00000" pt_clust_8="13000.00000" pt_clust_9="27.57017"></scales>
<clustering>
<clus scale="   27.570">  1  9  2 -1</clus>
<clus scale="   89.555">  7  8 -1 -1</clus>
<clus scale="   93.304">  5  6 -1 -1</clus>
<clus scale="   95.563">  1  7  2 -1</clus>
<clus scale="   27.570">  1  5  2 -1</clus>
</clustering>
</event>
<event>
 9    1  0.1671478E-005  0.1198457E+03  0.7546771E-02  0.1244079E+00
          1   -1    0    0  502    0 -0.00000000000E+00  0.00000000000E+00  0.12681657449E+03  0.12681657449E+03  0.00000000000E+00 0. -1.
         21   -1    0    0  501  502  0.00000000000E+00 -0.00000000000E+00 -0.21139334692E+03  0.21139334692E+03  0.00000000000E+00 0.  1.
         23    2    1    2    0    0  0.26860120532E+01  0.64317832034E+02  0.29386671029E+02  0.11760093472E+03  0.93927659586E+02 0.  0.
         23    2    1    2    0    0 -0.26542454178E+02 -0.10359972299E+03 -0.99362869659E+02  0.17238685958E+03  0.91688848894E+02 0.  0.
        -11    1    4    4    0    0  0.11222944492E+02 -0.40159640780E+02  0.76325619931E+01  0.42391122104E+02  0.00000000000E+00 0.  1.
         11    1    4    4    0    0 -0.37765398670E+02 -0.63440082212E+02 -0.10699543165E+03  0.12999573748E+03  0.00000000000E+00 0. -1.
        -11    1    3    3    0    0 -0.22507175947E+02  0.49970991299E+02 -0.21631786283E+02  0.58920345538E+02  0.00000000000E+00 0.  1.
         11    1    3    3    0    0  0.25193188000E+02  0.14346840735E+02  0.51018457312E+02  0.58680589185E+02  0.00000000000E+00 0. -1.
          1    1    1    2  501    0  0.23856442125E+02  0.39281890958E+02 -0.14600573798E+02  0.48222127113E+02  0.00000000000E+00 0. -1.
<scales pt_clust_5="13000.00000" pt_clust_6="13000.00000" pt_clust_7="13000.00000" pt_clust_8="13000.00000" pt_clust_9="45.95864"></scales>
<clustering>
<clus scale="   45.959">  2  9  1 -1</clus>
<clus scale="   91.689">  5  6 -1 -1</clus>
<clus scale="   93.928">  7  8 -1 -1</clus>
<clus scale="  118.099">  2  5  1 -1</clus>
<clus scale="   45.959">  2  5  1 -1</clus>
</clustering>
</event>
<event>
 9    1  0.1671478E-005  0.2083960E+03  0.7546771E-02  0.1177795E+00
          1   -1    0    0  502    0 -0.00000000000E+00  0.00000000000E+00  0.38356645772E+03  0.38356645772E+03  0.00000000000E+00 0. -1.
         21   -1    0    0  501  502  0.00000000000E+00 -0.00000000000E+00 -0.16214059516E+03  0.16214059516E+03  0.00000000000E+00 0. -1.
         23    2    1    2    0    0 -0.38777260088E+01 -0.24650821483E+02  0.52623375581E+02  0.10632895163E+03  0.88960252575E+02 0.  0.
         23    2    1    2    0    0 -0.17316056067E+02  0.20203692875E+03  0.12693290485E+03  0.25588949301E+03  0.90822375671E+02 0.  0.
        -13    1    3    3    0    0  0.38858574167E+02 -0.27419305775E+02  0.38643396258E+02  0.61279027324E+02  0.00000000000E+00 0. -1.
         13    1    3    3    0    0 -0.42736300176E+02  0.27684842919E+01  0.13979979323E+02  0.45049924305E+02  0.00000000000E+00 0.  1.
        -13    1    4    4    0    0  0.36745182839E+02  0.10272106004E+03  0.60789952693E+02  0.12488892259E+03  0.00000000000E+00 0. -1.
         13    1    4    4    0    0 -0.54061238906E+02  0.99315868703E+02  0.66142952158E+02  0.13100057041E+03  0.00000000000E+00 0.  1.
          1    1    1    2  501    0  0.21193782076E+02 -0.17738610726E+03  0.41869582119E+02  0.18348860824E+03  0.00000000000E+00 0. -1.
<scales pt_clust_5="13000.00000" pt_clust_6="13000.00000" pt_clust_7="13000.00000" pt_clust_8="13000.00000" pt_clust_9="187.56379"></scales>
<clustering>
<clus scale="   88.960">  5  6 -1 -1</clus>
<clus scale="   90.822">  7  8 -1 -1</clus>
<clus scale="   92.394">  1  5  2 -1</clus>
<clus scale="  187.564">  2  9  1 -1</clus>
<clus scale="  187.564">  2  5  1 -1</clus>
</clustering>
</event>
<event>
 9    1  0.1671478E-005  0.9957366E+02  0.7546771E-02  0.1282298E+00
         21   -1    0    0  501  502  0.00000000000E+00  0.00000000000E+00  0.29452690975E+02  0.29452690975E+02  0.00000000000E+00 0. -1.
          2   -1    0    0  502    0 -0.00000000000E+00 -0.00000000000E+00 -0.63101830653E+03  0.63101830653E+03  0.00000000000E+00 0. -1.
         23    2    1    2    0    0  0.35251269196E+02 -0.21562162081E+02 -0.30830662041E+03  0.32362415414E+03  0.89286293121E+02 0.  0.
         23    2    1    2    0    0 -0.43326676508E+02 -0.14927883916E+02 -0.11182197666E+03  0.15160071699E+03  0.91534585339E+02 0.  0.
        -11    1    3    3    0    0  0.53813560852E+01  0.34404835648E+02 -0.10163890958E+03  0.10743891125E+03  0.00000000000E+00 0.  1.
         11    1    3    3    0    0  0.29869913111E+02 -0.55966997730E+02 -0.20666771083E+03  0.21618524289E+03  0.00000000000E+00 0. -1.
        -13    1    4    4    0    0 -0.69030662630E+02 -0.26184520310E+02 -0.74273698434E+02  0.10472556405E+03  0.00000000000E+00 0.  1.
         13    1    4    4    0    0  0.25703986122E+02  0.11256636393E+02 -0.37548278228E+02  0.46875152942E+02  0.00000000000E+00 0. -1.
          2    1    1    2  501    0  0.80754073114E+01  0.36490045998E+02 -0.18143701849E+03  0.18524612638E+03  0.00000000000E+00 0. -1.
<scales pt_clust_5="13000.00000" pt_clust_6="13000.00000" pt_clust_7="13000.00000" pt_clust_8="13000.00000" pt_clust_9="37.37295"></scales>
<clustering>
<clus scale="   37.373">  1  9  2 -1</clus>
<clus scale="   89.286">  5  6 -1 -1</clus>
<clus scale="   91.535">  7  8 -1 -1</clus>
<clus scale="   97.511">  2  5  1 -1</clus>
<clus scale="   37.373">  1  5  2 -1</clus>
</clustering>
</event>
<event>
 9    1  0.1688168E-005  0.1082766E+03  0.7546771E-02  0.1264688E+00
         21   -1    0    0  501  502  0.00000000000E+00  0.00000000000E+00  0.97049993376E+02  0.97049993376E+02  0.00000000000E+00 0. -1.
          1   -1    0    0  502    0 -0.00000000000E+00 -0.00000000000E+00 -0.51332597306E+03  0.51332597306E+03  0.00000000000E+00 0. -1.
         23    2    1    2    0    0 -0.53295348326E+02 -0.36835172002E+02 -0.43385653620E+03  0.44777460378E+03  0.89851976818E+02 0.  0.
         23    2    1    2    0    0  0.88312583719E+01  0.16659506208E+02 -0.25626572284E+02  0.97401908940E+02  0.92059113545E+02 0.  0.
        -13    1    3    3    0    0 -0.49973659090E+02  0.14109745291E+02 -0.13603553595E+03  0.14560947275E+03  0.00000000000E+00 0.  1.
         13    1    3    3    0    0 -0.33216892358E+01 -0.50944917293E+02 -0.29782100025E+03  0.30216513103E+03  0.00000000000E+00 0. -1.
        -13    1    4    4    0    0 -0.40757752179E+02  0.27121331031E+01 -0.24675262056E+01  0.40922349813E+02  0.00000000000E+00 0. -1.
         13    1    4    4    0    0  0.49589010551E+02  0.13947373105E+02 -0.23159046078E+02  0.56479559127E+02  0.00000000000E+00 0.  1.
          1    1    1    2  501    0  0.44464089954E+02  0.20175665793E+02  0.43207128799E+02  0.65199453715E+02  0.00000000000E+00 0. -1.
<scales pt_clust_5="13000.00000" pt_clust_6="13000.00000" pt_clust_7="13000.00000" pt_clust_8="13000.00000" pt_clust_9="48.82738"></scales>
<clustering>
<clus scale="   48.827">  1  9  2 -1</clus>
<clus scale="   89.852">  5  6 -1 -1</clus>
<clus scale="   92.059">  7  8 -1 -1</clus>
<clus scale="  106.406">  2  5  1 -1</clus>
<clus scale="   48.827">  1  5  2 -1</clus>
</clustering>
</event>
<event>
 9    1  0.1747793E-005  0.9442265E+02  0.7546771E-02  0.1293145E+00
          3   -1    0    0  502    0 -0.00000000000E+00  0.00000000000E+00  0.25648668424E+03  0.25648668424E+03  0.00000000000E+00 0. -1.
         21   -1    0    0  501  502  0.00000000000E+00 -0.00000000000E+00 -0.16233340104E+03  0.16233340104E+03  0.00000000000E+00 0.  1.
         23    2    1    2    0    0  0.53256747675E+01 -0.20255310971E+02  0.21084997023E+03  0.23023234374E+03  0.90058768176E+02 0.  0.
         23    2    1    2    0    0 -0.19178545895E+02  0.54791534271E+02 -0.69819439139E+02  0.12873685076E+03  0.91260581910E+02 0.  0.
        -11    1    4    4    0    0  0.30921584353E+02  0.12533597314E+02 -0.50281760170E+02  0.60344766520E+02  0.00000000000E+00 0. -1.
         11    1    4    4    0    0 -0.50100130248E+02  0.42257936957E+02 -0.19537678968E+02  0.68392084236E+02  0.00000000000E+00 0.  1.
        -13    1    3    3    0    0  0.35178493339E+02 -0.35801913963E+02  0.74792492987E+02  0.90073416968E+02  0.00000000000E+00 0. -1.
         13    1    3    3    0    0 -0.29852818572E+02  0.15546602992E+02  0.13605747724E+03  0.14015892677E+03  0.00000000000E+00 0.  1.
          3    1    1    2  501    0  0.13852871127E+02 -0.34536223300E+02 -0.46877247886E+02  0.59850890784E+02  0.00000000000E+00 0. -1.
<scales pt_clust_5="13000.00000" pt_clust_6="13000.00000" pt_clust_7="13000.00000" pt_clust_8="13000.00000" pt_clust_9="37.21092"></scales>
<clustering>
<clus scale="   37.211">  2  9  1 -1</clus>
<clus scale="   90.059">  7  8 -1 -1</clus>
<clus scale="   91.261">  5  6 -1 -1</clus>
<clus scale="   93.262">  1  7  2 -1</clus>
<clus scale="   37.211">  2  5  1 -1</clus>
</clustering>
</event>
<event>
 9    1  0.1671478E-005  0.1017179E+03  0.7546771E-02  0.1276987E+00
         21   -1    0    0  501  502  0.00000000000E+00  0.00000000000E+00  0.82494947749E+02  0.82494947749E+02  0.00000000000E+00 0. -1.
         -2   -1    0    0    0  501 -0.00000000000E+00 -0.00000000000E+00 -0.23695940533E+03  0.23695940533E+03  0.00000000000E+00 0.  1.
         23    2    1    2    0    0 -0.42955869687E+02 -0.28123083535E+02 -0.13537455969E+03  0.17129351883E+03  0.91537334533E+02 0.  0.
         23    2    1    2    0    0  0.12428868567E+02  0.19567469949E+02  0.21843096864E+02  0.96386261526E+02  0.90971577299E+02 0.  0.
        -11    1    3    3    0    0 -0.17267820576E+02 -0.49417234958E+02 -0.29074113125E+02  0.59879418771E+02  0.00000000000E+00 0. -1.
         11    1    3    3    0    0 -0.25688049111E+02  0.21294151423E+02 -0.10630044656E+03  0.11141410006E+03  0.00000000000E+00 0.  1.
        -11    1    4    4    0    0 -0.64342507018E+01 -0.20579036569E+02  0.42346433837E+02  0.47519646326E+02  0.00000000000E+00 0. -1.
         11    1    4    4    0    0  0.18863119269E+02  0.40146506518E+02 -0.20503336973E+02  0.48866615201E+02  0.00000000000E+00 0.  1.
         -2    1    1    2    0  502  0.30527001120E+02  0.85556135863E+01 -0.40932994761E+02  0.51774572729E+02  0.00000000000E+00 0.  1.
<scales pt_clust_5="13000.00000" pt_clust_6="13000.00000" pt_clust_7="13000.00000" pt_clust_8="13000.00000" pt_clust_9="31.70327"></scales>
<clustering>
<clus scale="   31.703">  1  9  2 -1</clus>
<clus scale="   90.972">  7  8 -1 -1</clus>
<clus scale="   91.537">  5  6 -1 -1</clus>
<clus scale="  101.209">  1  7  2 -1</clus>
<clus scale="   31.703">  1  5  2 -1</clus>
</clustering>
</event>
<event>
 9    1  0.1671478E-005  0.1163195E+03  0.7546771E-02  0.1252286E+00
         21   -1    0    0  501  502  0.00000000000E+00  0.00000000000E+00  0.41290424078E+02  0.41290424078E+02  0.00000000000E+00 0. -1.
         -3   -1    0    0    0  501 -0.00000000000E+00 -0.00000000000E+00 -0.52742957641E+03  0.52742957641E+03  0.00000000000E+00 0.  1.
         23    2    1    2    0    0 -0.57207903366E+02  0.13518210905E+02 -0.35128422688E+03  0.36777011064E+03  0.91644748871E+02 0.  0.
         23    2    1    2    0    0  0.66700180783E+02  0.10384401687E+02 -0.12474055754E+03  0.17331406785E+03  0.99603260506E+02 0.  0.
        -13    1    3    3    0    0 -0.30463939959E+00 -0.23976865357E+02 -0.25775081188E+02  0.35204228265E+02  0.00000000000E+00 0. -1.
         13    1    3    3    0    0 -0.56903263967E+02  0.37495076262E+02 -0.32550914569E+03  0.33256588238E+03  0.00000000000E+00 0.  1.
        -13    1    4    4    0    0  0.16994180978E+02  0.27153701601E+02 -0.11573737541E+03  0.12008857466E+03  0.00000000000E+00 0.  1.
         13    1    4    4    0    0  0.49705999804E+02 -0.16769299915E+02 -0.90031821291E+01  0.53225493183E+02  0.00000000000E+00 0. -1.
         -3    1    1    2    0  502 -0.94922774161E+01 -0.23902612592E+02 -0.10114367915E+02  0.27635821999E+02  0.00000000000E+00 0.  1.
<scales pt_clust_5="13000.00000" pt_clust_6="13000.00000" pt_clust_7="13000.00000" pt_clust_8="13000.00000" pt_clust_9="25.71844"></scales>
<clustering>
<clus scale="   25.718">  1  9  2 -1</clus>
<clus scale="   91.645">  5  6 -1 -1</clus>
<clus scale="   99.603">  7  8 -1 -1</clus>
<clus scale="  109.582">  2  5  1 -1</clus>
<clus scale="   25.718">  1  5  2 -1</clus>
</clustering>
</event>
<event>
 9    1  0.1671478E-005  0.9811822E+02  0.7546771E-02  0.1285442E+00
         21   -1    0    0  501  502  0.00000000000E+00  0.00000000000E+00  0.49147428792E+02  0.49147428792E+02  0.00000000000E+00 0. -1.
          1   -1    0    0  502    0 -0.00000000000E+00 -0.00000000000E+00 -0.47421704675E+03  0.47421704675E+03  0.00000000000E+00 0. -1.
         23    2    1    2    0    0 -0.32262061986E+02 -0.11001008764E+02 -0.28329400708E+03  0.30011997163E+03  0.93030318103E+02 0.  0.
         23    2    1    2    0    0  0.17542063551E+02  0.25006316299E+02 -0.16597214656E+03  0.19164862866E+03  0.90826227407E+02 0.  0.
        -11    1    3    3    0    0  0.29154733506E+02  0.96693903927E+01 -0.13209805063E+03  0.13562223482E+03  0.00000000000E+00 0.  1.
         11    1    3    3    0    0 -0.61416795493E+02 -0.20670399156E+02 -0.15119595645E+03  0.16449773681E+03  0.00000000000E+00 0. -1.
        -11    1    4    4    0    0  0.56964175733E+01 -0.27896953351E+02 -0.17100912920E+02  0.33213406964E+02  0.00000000000E+00 0.  1.
         11    1    4    4    0    0  0.11845645978E+02  0.52903269651E+02 -0.14887123364E+03  0.15843522170E+03  0.00000000000E+00 0. -1.
          1    1    1    2  501    0  0.14719998435E+02 -0.14005307536E+02  0.24196535690E+02  0.31595875245E+02  0.00000000000E+00 0. -1.
<scales pt_clust_5="13000.00000" pt_clust_6="13000.00000" pt_clust_7="13000.00000" pt_clust_8="13000.00000" pt_clust_9="20.31814"></scales>
<clustering>
<clus scale="   20.318">  1  9  2 -1</clus>
<clus scale="   90.826">  7  8 -1 -1</clus>
<clus scale="   93.030">  5  6 -1 -1</clus>
<clus scale="   96.031">  1  7  2 -1</clus>
<clus scale="   20.318">  1  5  2 -1</clus>
</clustering>
</event>
<event>
 9    1  0.1671478E-005  0.1100480E+03  0.7546771E-02  0.1261912E+00
         21   -1    0    0  501  502  0.00000000000E+00  0.00000000000E+00  0.40261504871E+03  0.40261504871E+03  0.00000000000E+00 0. -1.
          1   -1    0    0  502    0 -0.00000000000E+00 -0.00000000000E+00 -0.10113017263E+03  0.10113017263E+03  0.00000000000E+00 0. -1.
         23    2    1    2    0    0 -0.29592197164E+02 -0.36822354316E+02 -0.21250942604E+02  0.10316802361E+03  0.89221379857E+02 0.  0.
         23    2    1    2    0    0  0.33191467433E+02  0.11352561336E+03  0.15424198450E+03  0.21541101061E+03  0.92852438353E+02 0.  0.
        -11    1    4    4    0    0  0.45274093856E+01  0.51181656358E+02  0.13454481723E+03  0.14402210673E+03  0.00000000000E+00 0. -1.
         11    1    4    4    0    0  0.28664058048E+02  0.62343957003E+02  0.19697167275E+02  0.71388903880E+02  0.00000000000E+00 0.  1.
        -11    1    3    3    0    0 -0.58149956390E+02 -0.42138853144E+02 -0.13103527650E+02  0.72998649366E+02  0.00000000000E+00 0. -1.
         11    1    3    3    0    0  0.28557759225E+02  0.53164988289E+01 -0.81474149543E+01  0.30169374243E+02  0.00000000000E+00 0.  1.
          1    1    1    2  501    0 -0.35992702692E+01 -0.76703259045E+02  0.16849383419E+03  0.18516618712E+03  0.00000000000E+00 0. -1.
<scales pt_clust_5="13000.00000" pt_clust_6="13000.00000" pt_clust_7="13000.00000" pt_clust_8="13000.00000" pt_clust_9="76.78766"></scales>
<clustering>
<clus scale="   76.788">  1  9  2 -1</clus>
<clus scale="   89.221">  7  8 -1 -1</clus>
<clus scale="   92.852">  5  6 -1 -1</clus>
<clus scale="  107.002">  2  7  1 -1</clus>
<clus scale="   76.788">  1  5  2 -1</clus>
</clustering>
</event>
<event>
 9    1  0.1671478E-005  0.1189379E+03  0.7546771E-02  0.1246857E+00
         -2   -1    0    0    0  501 -0.00000000000E+00  0.00000000000E+00  0.25642689193E+03  0.25642689193E+03  0.00000000000E+00 0.  1.
         21   -1    0    0  501  502  0.00000000000E+00 -0.00000000000E+00 -0.14446535657E+03  0.14446535657E+03  0.00000000000E+00 0.  1.
         23    2    1    2    0    0  0.15019551673E+02 -0.80925134846E+02  0.17184233606E+03  0.21423757974E+03  0.97946351271E+02 0.  0.
         23    2    1    2    0    0 -0.10203102970E+02  0.35806581599E+02  0.13530796598E+02  0.10035203471E+03  0.92202135652E+02 0.  0.
        -11    1    3    3    0    0 -0.16430868717E+02 -0.82049913569E+02  0.74861020457E+02  0.11227793259E+03  0.00000000000E+00 0.  1.
         11    1    3    3    0    0  0.31450420390E+02  0.11247787239E+01  0.96981315601E+02  0.10195964714E+03  0.00000000000E+00 0. -1.
        -11    1    4    4    0    0  0.38228645819E+02  0.20564216832E+01  0.15463584980E+02  0.41288989957E+02  0.00000000000E+00 0.  1.
         11    1    4    4    0    0 -0.48431748789E+02  0.33750159915E+02 -0.19327883814E+01  0.59063044757E+02  0.00000000000E+00 0. -1.
         -2    1    1    2    0  502 -0.48164487028E+01  0.45118553247E+02 -0.73411597301E+02  0.86302634047E+02  0.00000000000E+00 0.  1.
<scales pt_clust_5="13000.00000" pt_clust_6="13000.00000" pt_clust_7="13000.00000" pt_clust_8="13000.00000" pt_clust_9="45.37491"></scales>
<clustering>
<clus scale="   45.375">  2  9  1 -1</clus>
<clus scale="   92.202">  7  8 -1 -1</clus>
<clus scale="   97.946">  5  6 -1 -1</clus>
<clus scale="  114.254">  2  7  1 -1</clus>
<clus scale="   45.375">  2  5  1 -1</clus>
</clustering>
</event>
<event>
 9    1  0.1671478E-005  0.9907824E+02  0.7546771E-02  0.1282785E+00
         21   -1    0    0  501  502  0.00000000000E+00  0.00000000000E+00  0.90236644121E+02  0.90236644121E+02  0.00000000000E+00 0.  1.
          1   -1    0    0  502    0 -0.00000000000E+00 -0.00000000000E+00 -0.43539769913E+03  0.43539769913E+03  0.00000000000E+00 0. -1.
         23    2    1    2    0    0  0.13390626746E+02  0.29421143624E+02 -0.34299251530E+03  0.35654496796E+03  0.91845174321E+02 0.  0.
         23    2    1    2    0    0 -0.43779025501E+02 -0.53800899613E+02 -0.33559354828E+02  0.11905728005E+03  0.90759383888E+02 0.  0.
        -11    1    4    4    0    0 -0.53741930083E+02 -0.23890255739E+02  0.15427487303E+02  0.60802522421E+02  0.00000000000E+00 0.  1.
         11    1    4    4    0    0  0.99629045813E+01 -0.29910643873E+02 -0.48986842131E+02  0.58254757630E+02  0.00000000000E+00 0. -1.
        -11    1    3    3    0    0 -0.90499276269E+01 -0.25080310004E+02 -0.41372214036E+02  0.49219744353E+02  0.00000000000E+00 0.  1.
         11    1    3    3    0    0  0.22440554373E+02  0.54501453627E+02 -0.30162030126E+03  0.30732522360E+03  0.00000000000E+00 0. -1.
          1    1    1    2  501    0  0.30388398755E+02  0.24379755989E+02  0.31390815116E+02  0.50032095245E+02  0.00000000000E+00 0. -1.
<scales pt_clust_5="13000.00000" pt_clust_6="13000.00000" pt_clust_7="13000.00000" pt_clust_8="13000.00000" pt_clust_9="38.95930"></scales>
<clustering>
<clus scale="   38.959">  1  9  2 -1</clus>
<clus scale="   90.759">  5  6 -1 -1</clus>
<clus scale="   91.845">  7  8 -1 -1</clus>
<clus scale="   98.073">  1  5  2 -1</clus>
<clus scale="   38.959">  1  5  2 -1</clus>
</clustering>
</event>
<event>
 9    1  0.1671478E-005  0.1829927E+03  0.7546771E-02  0.1170306E+00
          3   -1    0    0  502    0 -0.00000000000E+00  0.00000000000E+00  0.10167178806E+03  0.10167178806E+03  0.00000000000E+00 0. -1.
         21   -1    0    0  501  502  0.00000000000E+00 -0.00000000000E+00 -0.46902057545E+03  0.46902057545E+03  0.00000000000E+00 0. -1.
         23    2    1    2    0    0 -0.12308247002E+03 -0.67634354228E+02 -0.42311504837E+02  0.17278051016E+03  0.91318897016E+02 0.  0.
         23    2    1    2    0    0  0.98131306519E+02  0.69732500751E+02 -0.17765275890E+03  0.24841549690E+03  0.12512945847E+03 0.  0.
        -13    1    4    4    0    0  0.31040053069E+02  0.92502612246E+02 -0.13193892337E+03  0.16409782957E+03  0.00000000000E+00 0.  1.
         13    1    4    4    0    0  0.67091253450E+02 -0.22770111495E+02 -0.45713835523E+02  0.84317667337E+02  0.00000000000E+00 0. -1.
        -13    1    3    3    0    0 -0.15650743490E+02  0.22219949579E+02 -0.10655385429E+02  0.29192621837E+02  0.00000000000E+00 0.  1.
         13    1    3    3    0    0 -0.10743172653E+03 -0.89854303807E+02 -0.31656119407E+02  0.14358788833E+03  0.00000000000E+00 0. -1.
          3    1    1    2  501    0  0.24951163504E+02 -0.20981465232E+01 -0.14738452365E+03  0.14949635644E+03  0.00000000000E+00 0. -1.
<scales pt_clust_5="13000.00000" pt_clust_6="13000.00000" pt_clust_7="13000.00000" pt_clust_8="13000.00000" pt_clust_9="25.03922"></scales>
<clustering>
<clus scale="   25.039">  2  9  1 -1</clus>
<clus scale="   91.319">  7  8 -1 -1</clus>
<clus scale="  125.129">  5  6 -1 -1</clus>
<clus scale="  161.766">  1  7  2 -1</clus>
<clus scale="   25.039">  2  5  1 -1</clus>
</clustering>
</event>
<event>
 9    1  0.1671478E-005  0.1065284E+03  0.7546771E-02  0.1273008E+00
         21   -1    0    0  501  502  0.00000000000E+00  0.00000000000E+00  0.26414655564E+03  0.26414655564E+03  0.00000000000E+00 0. -1.
          2   -1    0    0  502    0 -0.00000000000E+00 -0.00000000000E+00 -0.27353970358E+03  0.27353970358E+03  0.00000000000E+00 0. -1.
         23    2    1    2    0    0 -0.26948586575E+02 -0.11063757821E+02 -0.17373157522E+03  0.20241426748E+03  0.99700764260E+02 0.  0.
         23    2    1    2    0    0  0.55358327992E+02  0.12444094259E+02 -0.52437887176E+02  0.11663761831E+03  0.87379643130E+02 0.  0.
        -11    1    3    3    0    0 -0.40311048479E+02 -0.41136248542E+02 -0.15309734389E+03  0.16357251689E+03  0.00000000000E+00 0. -1.
         11    1    3    3    0    0  0.13362461904E+02  0.30072490722E+02 -0.20634231326E+02  0.38841750588E+02  0.00000000000E+00 0.  1.
        -13    1    4    4    0    0  0.76431939992E+02  0.56305430331E+01 -0.55014456585E+02  0.94340526282E+02  0.00000000000E+00 0.  1.
         13    1    4    4    0    0 -0.21073611999E+02  0.68135512259E+01  0.25765694088E+01  0.22297092028E+02  0.00000000000E+00 0. -1.
          2    1    1    2  501    0 -0.28409741417E+02 -0.13803364383E+01  0.21677631446E+03  0.21863437343E+03  0.00000000000E+00 0. -1.
<scales pt_clust_5="13000.00000" pt_clust_6="13000.00000" pt_clust_7="13000.00000" pt_clust_8="13000.00000" pt_clust_9="28.44325"></scales>
<clustering>
<clus scale="   28.443">  1  9  2 -1</clus>
<clus scale="   87.380">  7  8 -1 -1</clus>
<clus scale="   95.096">  1  7  2 -1</clus>
<clus scale="   99.701">  5  6 -1 -1</clus>
<clus scale="   28.443">  1  5  2 -1</clus>
</clustering>
</event>
<event>
 9    1  0.1671478E-005  0.1004119E+03  0.7546771E-02  0.1279584E+00
         21   -1    0    0  501  502  0.00000000000E+00  0.00000000000E+00  0.10956896817E+03  0.10956896817E+03  0.00000000000E+00 0. -1.
          2   -1    0    0  502    0 -0.00000000000E+00 -0.00000000000E+00 -0.22588415128E+03  0.22588415128E+03  0.00000000000E+00 0. -1.
         23    2    1    2    0    0  0.49051405634E+02 -0.13818340209E+02 -0.11290512082E+03  0.15446132311E+03  0.92269968605E+02 0.  0.
         23    2    1    2    0    0 -0.23691595035E+02  0.10407445374E+02 -0.64159729152E+02  0.11507308714E+03  0.91955086565E+02 0.  0.
        -11    1    4    4    0    0 -0.46587423394E+02  0.34365605249E+02 -0.56849233949E+02  0.81137033734E+02  0.00000000000E+00 0.  1.
         11    1    4    4    0    0  0.22895828359E+02 -0.23958159875E+02 -0.73104952036E+01  0.33936053408E+02  0.00000000000E+00 0. -1.
        -13    1    3    3    0    0  0.76260205431E+02 -0.15848619806E+02 -0.88000633494E+02  0.11751982461E+03  0.00000000000E+00 0. -1.
         13    1    3    3    0    0 -0.27208799797E+02  0.20302795966E+01 -0.24904487331E+02  0.36941498492E+02  0.00000000000E+00 0.  1.
          2    1    1    2  501    0 -0.25359810599E+02  0.34108948350E+01  0.60749666876E+02  0.65918709201E+02  0.00000000000E+00 0. -1.
<scales pt_clust_5="13000.00000" pt_clust_6="13000.00000" pt_clust_7="13000.00000" pt_clust_8="13000.00000" pt_clust_9="25.58817"></scales>
<clustering>
<clus scale="   25.588">  1  9  2 -1</clus>
<clus scale="   91.955">  5  6 -1 -1</clus>
<clus scale="   92.270">  7  8 -1 -1</clus>
<clus scale="  100.123">  1  5  2 -1</clus>
<clus scale="   25.588">  1  5  2 -1</clus>
</clustering>
</event>
<event>
 9    1  0.1671478E-005  0.1069147E+03  0.7546771E-02  0.1266793E+00
         -2   -1    0    0    0  501 -0.00000000000E+00  0.00000000000E+00  0.65325613818E+03  0.65325613818E+03  0.00000000000E+00 0.  1.
         21   -1    0    0  501  502  0.00000000000E+00 -0.00000000000E+00 -0.18319417279E+03  0.18319417279E+03  0.00000000000E+00 0.  1.
         23    2    1    2    0    0 -0.33070512992E+02 -0.27961599292E+02  0.38385935904E+03  0.39745656490E+03  0.93531831972E+02 0.  0.
         23    2    1    2    0    0  0.51635745859E+02  0.43375644494E+02  0.24917765813E+03  0.27424202935E+03  0.92582333990E+02 0.  0.
        -11    1    3    3    0    0 -0.57820750438E+02  0.28014748004E+01  0.28842709773E+03  0.29417898999E+03  0.00000000000E+00 0.  1.
         11    1    3    3    0    0  0.24750237446E+02 -0.30763074093E+02  0.95432261304E+02  0.10327757491E+03  0.00000000000E+00 0. -1.
        -13    1    4    4    0    0  0.56325135577E+02 -0.17165349806E+01  0.72409670569E+02  0.91753080505E+02  0.00000000000E+00 0. -1.
         13    1    4    4    0    0 -0.46893897186E+01  0.45092179475E+02  0.17676798756E+03  0.18248894885E+03  0.00000000000E+00 0.  1.
         -2    1    1    2    0  502 -0.18565232867E+02 -0.15414045202E+02 -0.16297505178E+03  0.16475171672E+03  0.00000000000E+00 0.  1.
<scales pt_clust_5="13000.00000" pt_clust_6="13000.00000" pt_clust_7="13000.00000" pt_clust_8="13000.00000" pt_clust_9="24.13008"></scales>
<clustering>
<clus scale="   24.130">  2  9  1 -1</clus>
<clus scale="   92.582">  7  8 -1 -1</clus>
<clus scale="   93.532">  5  6 -1 -1</clus>
<clus scale="  106.085">  2  7  1 -1</clus>
<clus scale="   24.130">  2  5  1 -1</clus>
</clustering>
</event>
<event>
 9    1  0.1671478E-005  0.9751015E+02  0.7546771E-02  0.1288070E+00
          1   -1    0    0  502    0 -0.00000000000E+00  0.00000000000E+00  0.16515210217E+03  0.16515210217E+03  0.00000000000E+00 0. -1.
         21   -1    0    0  501  502  0.00000000000E+00 -0.00000000000E+00 -0.10760486209E+03  0.10760486209E+03  0.00000000000E+00 0.  1.
         23    2    1    2    0    0  0.21428493850E+02 -0.12960158321E+02  0.10413358165E+03  0.14366986075E+03  0.95760534706E+02 0.  0.
         23    2    1    2    0    0  0.14639521115E+01 -0.91819912506E+00 -0.24895352984E+02  0.94631742931E+02  0.91281991238E+02 0.  0.
        -11    1    4    4    0    0 -0.10617221117E+01 -0.40188916121E+02  0.10664483977E+02  0.41593358260E+02  0.00000000000E+00 0.  1.
         11    1    4    4    0    0  0.25256742231E+01  0.39270716996E+02 -0.35559836962E+02  0.53038384670E+02  0.00000000000E+00 0. -1.
        -13    1    3    3    0    0  0.23854911191E+02  0.39657424612E+02  0.50415162765E+02  0.68435785606E+02  0.00000000000E+00 0. -1.
         13    1    3    3    0    0 -0.24264173412E+01 -0.52617582933E+02  0.53718418884E+02  0.75234075140E+02  0.00000000000E+00 0.  1.
          1    1    1    2  501    0 -0.22892445962E+02  0.13878357446E+02 -0.21690988584E+02  0.34455360588E+02  0.00000000000E+00 0. -1.
<scales pt_clust_5="13000.00000" pt_clust_6="13000.00000" pt_clust_7="13000.00000" pt_clust_8="13000.00000" pt_clust_9="26.77075"></scales>
<clustering>
<clus scale="   26.771">  2  9  1 -1</clus>
<clus scale="   91.282">  5  6 -1 -1</clus>
<clus scale="   93.116">  2  5  1 -1</clus>
<clus scale="   95.761">  7  8 -1 -1</clus>
<clus scale="   26.771">  2  5  1 -1</clus>
</clustering>
</event>
<event>
 9    1  0.1671478E-005  0.1455310E+03  0.7546771E-02  0.1206527E+00
         -2   -1    0    0    0  501 -0.00000000000E+00  0.00000000000E+00  0.16412426066E+03  0.16412426066E+03  0.00000000000E+00 0.  1.
         21   -1    0    0  501  502  0.00000000000E+00 -0.00000000000E+00 -0.29533200536E+03  0.29533200536E+03  0.00000000000E+00 0. -1.
         23    2    1    2    0    0 -0.26220508452E+02 -0.12195103635E+03 -0.13774566878E+02  0.15603276439E+03  0.92719547767E+02 0.  0.
         23    2    1    2    0    0 -0.11145971355E+02  0.85542913670E+02 -0.18175590089E+03  0.22060310611E+03  0.90491436959E+02 0.  0.
        -11    1    3    3    0    0 -0.58860432878E+02 -0.54269358525E+02 -0.29401367456E+01  0.80114656820E+02  0.00000000000E+00 0. -1.
         11    1    3    3    0    0  0.32639924426E+02 -0.67681677829E+02 -0.10834430132E+02  0.75918107567E+02  0.00000000000E+00 0.  1.
        -13    1    4    4    0    0  0.39052652817E+02  0.35282377912E+02 -0.93671533379E+02  0.10744446030E+03  0.00000000000E+00 0.  1.
         13    1    4    4    0    0 -0.50198624172E+02  0.50260535757E+02 -0.88084367509E+02  0.11315864582E+03  0.00000000000E+00 0. -1.
         -2    1    1    2    0  502  0.37366479807E+02  0.36408122685E+02  0.64322723072E+02  0.82820395520E+02  0.00000000000E+00 0.  1.
<scales pt_clust_5="13000.00000" pt_clust_6="13000.00000" pt_clust_7="13000.00000" pt_clust_8="13000.00000" pt_clust_9="52.17095"></scales>
<clustering>
<clus scale="   52.171">  2  9  1 -1</clus>
<clus scale="   90.491">  7  8 -1 -1</clus>
<clus scale="   92.720">  5  6 -1 -1</clus>
<clus scale="  144.122">  2  7  1 -1</clus>
<clus scale="   52.171">  2  5  1 -1</clus>
</clustering>
</event>
<event>
 9    1  0.1671478E-005  0.1181906E+03  0.7546771E-02  0.1251602E+00
          2   -1    0    0  502    0 -0.00000000000E+00  0.00000000000E+00  0.18948455769E+03  0.18948455769E+03  0.00000000000E+00 0. -1.
         21   -1    0    0  501  502  0.00000000000E+00 -0.00000000000E+00 -0.17235887716E+03  0.17235887716E+03  0.00000000000E+00 0.  1.
         23    2    1    2    0    0 -0.17330640520E+02  0.48615182988E+02  0.12571562643E+03  0.16383585684E+03  0.91509464754E+02 0.  0.
         23    2    1    2    0    0 -0.90374398817E+00 -0.69396807366E+02 -0.11366177081E+03  0.16989900106E+03  0.10549852507E+03 0.  0.
        -11    1    4    4    0    0 -0.24834663833E+02 -0.89772198240E+02 -0.96371000819E+02  0.13402678055E+03  0.00000000000E+00 0.  1.
         11    1    4    4    0    0  0.23930919844E+02  0.20375390874E+02 -0.17290769986E+02  0.35872220514E+02  0.00000000000E+00 0. -1.
        -11    1    3    3    0    0 -0.42592897619E+02  0.60142405692E+02  0.10850681460E+03  0.13116780361E+03  0.00000000000E+00 0. -1.
         11    1    3    3    0    0  0.25262257099E+02 -0.11527222704E+02  0.17208811833E+02  0.32668053228E+02  0.00000000000E+00 0.  1.
          2    1    1    2  501    0  0.18234384509E+02  0.20781624378E+02  0.50718248964E+01  0.28108576947E+02  0.00000000000E+00 0. -1.
<scales pt_clust_5="13000.00000" pt_clust_6="13000.00000" pt_clust_7="13000.00000" pt_clust_8="13000.00000" pt_clust_9="27.64723"></scales>
<clustering>
<clus scale="   27.647">  2  9  1 -1</clus>
<clus scale="   91.509">  7  8 -1 -1</clus>
<clus scale="  105.499">  5  6 -1 -1</clus>
<clus scale="  105.892">  1  7  2 -1</clus>
<clus scale="   27.647">  2  5  1 -1</clus>
</clustering>
</event>
<event>
 9    1  0.1671478E-005  0.1216513E+03  0.7546771E-02  0.1241642E+00
         -1   -1    0    0    0  501 -0.00000000000E+00  0.00000000000E+00  0.63255138337E+03  0.63255138337E+03  0.00000000000E+00 0.  1.
         21   -1    0    0  501  502  0.00000000000E+00 -0.00000000000E+00 -0.44292561880E+02  0.44292561880E+02  0.00000000000E+00 0.  1.
         23    2    1    2    0    0  0.68818553231E+02  0.14567166919E+02  0.30477300585E+03  0.32459615809E+03  0.86763385890E+02 0.  0.
         23    2    1    2    0    0 -0.97294780555E+02 -0.10619411964E+01  0.29086019974E+03  0.31988008434E+03  0.90863691989E+02 0.  0.
        -13    1    3    3    0    0  0.75728116682E+01 -0.19085802623E+02  0.12398764166E+02  0.23986343847E+02  0.00000000000E+00 0. -1.
         13    1    3    3    0    0  0.61245741563E+02  0.33652969542E+02  0.29237424169E+03  0.30060981425E+03  0.00000000000E+00 0.  1.
        -13    1    4    4    0    0 -0.75466879620E+02 -0.29386334758E+02  0.11645722860E+03  0.14184883744E+03  0.00000000000E+00 0. -1.
         13    1    4    4    0    0 -0.21827900935E+02  0.28324393562E+02  0.17440297114E+03  0.17803124690E+03  0.00000000000E+00 0.  1.
         -1    1    1    2    0  502  0.28476227324E+02 -0.13505225723E+02 -0.73743841075E+01  0.32367702813E+02  0.00000000000E+00 0.  1.
<scales pt_clust_5="13000.00000" pt_clust_6="13000.00000" pt_clust_7="13000.00000" pt_clust_8="13000.00000" pt_clust_9="31.51645"></scales>
<clustering>
<clus scale="   31.516">  2  9  1 -1</clus>
<clus scale="   86.763">  5  6 -1 -1</clus>
<clus scale="   90.864">  7  8 -1 -1</clus>
<clus scale="  118.620">  1  5  2 -1</clus>
<clus scale="   31.516">  2  5  1 -1</clus>
</clustering>
</event>
<event>
 9    1  0.1671478E-005  0.1074592E+03  0.7546771E-02  0.1265993E+00
          2   -1    0    0  502    0 -0.00000000000E+00  0.00000000000E+00  0.13698248202E+03  0.13698248202E+03  0.00000000000E+00 0. -1.
         21   -1    0    0  501  502  0.00000000000E+00 -0.00000000000E+00 -0.17853686311E+03  0.17853686311E+03  0.00000000000E+00 0. -1.
         23    2    1    2    0    0 -0.45938412113E+02  0.76192304084E+01  0.50184373717E+02  0.11358111175E+03  0.90630056833E+02 0.  0.
         23    2    1    2    0    0  0.71329888377E+02 -0.15927997276E+02 -0.12495940964E+02  0.11831296076E+03  0.92196280137E+02 0.  0.
        -13    1    4    4    0    0  0.76439799857E+02  0.20637939102E+02  0.47887717449E+00  0.79178259995E+02  0.00000000000E+00 0. -1.
         13    1    4    4    0    0 -0.51099114803E+01 -0.36565936378E+02 -0.12974818138E+02  0.39134700768E+02  0.00000000000E+00 0.  1.
        -13    1    3    3    0    0  0.21207213076E+02  0.23402044647E+02  0.74781698013E+01  0.32454962697E+02  0.00000000000E+00 0. -1.
         13    1    3    3    0    0 -0.67145625188E+02 -0.15782814239E+02  0.42706203915E+02  0.81126149052E+02  0.00000000000E+00 0.  1.
          2    1    1    2  501    0 -0.25391476264E+02  0.83087668673E+01 -0.79242813843E+02  0.83625272613E+02  0.00000000000E+00 0. -1.
<scales pt_clust_5="13000.00000" pt_clust_6="13000.00000" pt_clust_7="13000.00000" pt_clust_8="13000.00000" pt_clust_9="26.71634"></scales>
<clustering>
<clus scale="   26.716">  2  9  1 -1</clus>
<clus scale="   90.630">  7  8 -1 -1</clus>
<clus scale="   92.196">  5  6 -1 -1</clus>
<clus scale="  106.119">  1  7  2 -1</clus>
<clus scale="   26.716">  2  5  1 -1</clus>
</clustering>
</event>
<event>
 9    1  0.1671478E-005  0.1027990E+03  0.7546771E-02  0.1275102E+00
         21   -1    0    0  501  502  0.00000000000E+00  0.00000000000E+00  0.23097773512E+03  0.23097773512E+03  0.00000000000E+00 0. -1.
         -4   -1    0    0    0  501 -0.00000000000E+00 -0.00000000000E+00 -0.82973454568E+02  0.82973454568E+02  0.00000000000E+00 0.  1.
         23    2    1    2    0    0  0.28482790436E+02 -0.20784241602E+02  0.15521595358E+02  0.98725955853E+02  0.90899067028E+02 0.  0.
         23    2    1    2    0    0 -0.50263687079E+02  0.30996246103E+02  0.35168288365E+02  0.11498160898E+03  0.92177851924E+02 0.  0.
        -11    1    3    3    0    0  0.45905242677E+01 -0.32374085098E+02  0.47181261707E+02  0.57404056958E+02  0.00000000000E+00 0. -1.
         11    1    3    3    0    0  0.23892266169E+02  0.11589843496E+02 -0.31659666349E+02  0.41321898895E+02  0.00000000000E+00 0.  1.
        -11    1    4    4    0    0 -0.35412128218E+02 -0.17937515255E+02 -0.15852669714E+02  0.42744361213E+02  0.00000000000E+00 0. -1.
         11    1    4    4    0    0 -0.14851558861E+02  0.48933761359E+02  0.51020958079E+02  0.72237247765E+02  0.00000000000E+00 0.  1.
         -4    1    1    2    0  502  0.21780896643E+02 -0.10212004502E+02  0.97314396825E+02  0.10024362485E+03  0.00000000000E+00 0.  1.
<scales pt_clust_5="13000.00000" pt_clust_6="13000.00000" pt_clust_7="13000.00000" pt_clust_8="13000.00000" pt_clust_9="24.05603"></scales>
<clustering>
<clus scale="   24.056">  1  9  2 -1</clus>
<clus scale="   90.899">  5  6 -1 -1</clus>
<clus scale="   92.178">  7  8 -1 -1</clus>
<clus scale="  101.654">  2  5  1 -1</clus>
<clus scale="   24.056">  1  5  2 -1</clus>
</clustering>
</event>
<event>
 9    1  0.1671478E-005  0.1520230E+03  0.7546771E-02  0.1198230E+00
         21   -1    0    0  501  502  0.00000000000E+00  0.00000000000E+00  0.16144078125E+03  0.16144078125E+03  0.00000000000E+00 0.  1.
          4   -1    0    0  502    0 -0.00000000000E+00 -0.00000000000E+00 -0.47966927581E+03  0.47966927581E+03  0.00000000000E+00 0. -1.
         23    2    1    2    0    0 -0.11607055374E+03 -0.76346556415E+01 -0.38549993080E+03  0.41320992845E+03  0.92744740614E+02 0.  0.
         23    2    1    2    0    0  0.14138074845E+03  0.86691643622E+00  0.16215536118E+02  0.17051447545E+03  0.93930693337E+02 0.  0.
        -11    1    4    4    0    0  0.12052921058E+03  0.36618416424E+02 -0.25614385016E+00  0.12596930036E+03  0.00000000000E+00 0.  1.
         11    1    4    4    0    0  0.20851537875E+02 -0.35751499988E+02  0.16471679968E+02  0.44545175093E+02  0.00000000000E+00 0. -1.
        -11    1    3    3    0    0 -0.10773327629E+03 -0.36582393802E+02 -0.34093816730E+03  0.35942115168E+03  0.00000000000E+00 0. -1.
         11    1    3    3    0    0 -0.83372774514E+01  0.28947738161E+02 -0.44561763506E+02  0.53788776773E+02  0.00000000000E+00 0.  1.
          4    1    1    2  501    0 -0.25310194713E+02  0.67677392053E+01  0.51055900129E+02  0.57385653158E+02  0.00000000000E+00 0. -1.
<scales pt_clust_5="13000.00000" pt_clust_6="13000.00000" pt_clust_7="13000.00000" pt_clust_8="13000.00000" pt_clust_9="26.19939"></scales>
<clustering>
<clus scale="   26.199">  1  9  2 -1</clus>
<clus scale="   92.745">  7  8 -1 -1</clus>
<clus scale="   93.931">  5  6 -1 -1</clus>
<clus scale="  151.293">  2  7  1 -1</clus>
<clus scale="   26.199">  1  5  2 -1</clus>
</clustering>
</event>
<event>
 9    1  0.1843212E-005  0.9153356E+02  0.7546771E-02  0.1301379E+00
         21   -1    0    0  501  502  0.00000000000E+00  0.00000000000E+00  0.54568284505E+02  0.54568284505E+02  0.00000000000E+00 0.  1.
          3   -1    0    0  502    0 -0.00000000000E+00 -0.00000000000E+00 -0.27817850341E+03  0.27817850341E+03  0.00000000000E+00 0. -1.
         23    2    1    2    0    0  0.36127931408E+01 -0.10495840065E+01 -0.18552830436E+03  0.20688364414E+03  0.91465494005E+02 0.  0.
         23    2    1    2    0    0  0.16470961939E+02  0.12416399263E+02 -0.11958849072E+02  0.91006634241E+02  0.87827864866E+02 0.  0.
        -13    1    4    4    0    0  0.94982920669E+01 -0.19133606302E+02  0.30756596849E+02  0.37447038495E+02  0.00000000000E+00 0.  1.
         13    1    4    4    0    0  0.69726698724E+01  0.31550005565E+02 -0.42715445921E+02  0.53559595746E+02  0.00000000000E+00 0. -1.
        -13    1    3    3    0    0  0.54760773635E+01 -0.46079516012E+02 -0.90054704244E+02  0.10130725036E+03  0.00000000000E+00 0.  1.
         13    1    3    3    0    0 -0.18632842227E+01  0.45029932006E+02 -0.95473600112E+02  0.10557639378E+03  0.00000000000E+00 0. -1.
          3    1    1    2  501    0 -0.20083755080E+02 -0.11366815256E+02 -0.26123065476E+02  0.34856509536E+02  0.00000000000E+00 0. -1.
<scales pt_clust_5="13000.00000" pt_clust_6="13000.00000" pt_clust_7="13000.00000" pt_clust_8="13000.00000" pt_clust_9="23.07731"></scales>
<clustering>
<clus scale="   23.077">  1  9  2 -1</clus>
<clus scale="   87.828">  5  6 -1 -1</clus>
<clus scale="   87.899">  1  5  2 -1</clus>
<clus scale="   91.465">  7  8 -1 -1</clus>
<clus scale="   23.077">  1  5  2 -1</clus>
</clustering>
</event>
<event>
 9    1  0.1671478E-005  0.1143365E+03  0.7546771E-02  0.1254636E+00
         21   -1    0    0  501  502  0.00000000000E+00  0.00000000000E+00  0.21174403274E+03  0.21174403274E+03  0.00000000000E+00 0. -1.
         -2   -1    0    0    0  501 -0.00000000000E+00 -0.00000000000E+00 -0.94459730337E+02  0.94459730337E+02  0.00000000000E+00 0.  1.
         23    2    1    2    0    0 -0.41505998330E+02  0.21491877589E+02  0.23273535948E+02  0.10407420546E+03  0.90028518073E+02 0.  0.
         23    2    1    2    0    0  0.86495505987E+02 -0.23403585514E+02  0.52363890044E+02  0.14079300456E+03  0.95139333519E+02 0.  0.
        -11    1    3    3    0    0 -0.46249217412E+02 -0.16101214464E+02 -0.13989018937E+02  0.50930657459E+02  0.00000000000E+00 0.  1.
         11    1    3    3    0    0  0.47432190814E+01  0.37593092052E+02  0.37262554885E+02  0.53143547999E+02  0.00000000000E+00 0. -1.
        -13    1    4    4    0    0 -0.40817783765E+01 -0.25069158799E+02 -0.13522804853E+02  0.28774813444E+02  0.00000000000E+00 0.  1.
         13    1    4    4    0    0  0.90577284363E+02  0.16655732850E+01  0.65886694898E+02  0.11201819112E+03  0.00000000000E+00 0. -1.
         -2    1    1    2    0  502 -0.44989507656E+02  0.19117079256E+01  0.41646876413E+02  0.61336553060E+02  0.00000000000E+00 0.  1.
<scales pt_clust_5="13000.00000" pt_clust_6="13000.00000" pt_clust_7="13000.00000" pt_clust_8="13000.00000" pt_clust_9="45.03011"></scales>
<clustering>
<clus scale="   45.030">  1  9  2 -1</clus>
<clus scale="   90.029">  5  6 -1 -1</clus>
<clus scale="   95.139">  7  8 -1 -1</clus>
<clus scale="  110.120">  2  5  1 -1</clus>
<clus scale="   45.030">  1  5  2 -1</clus>
</clustering>
</event>
<event>
 9    1  0.1671478E-005  0.9176158E+02  0.7546771E-02  0.1299074E+00
         21   -1    0    0  501  502  0.00000000000E+00  0.00000000000E+00  0.90141870113E+02  0.90141870113E+02  0.00000000000E+00 0. -1.
          2   -1    0    0  502    0 -0.00000000000E+00 -0.00000000000E+00 -0.23828419045E+03  0.23828419045E+03  0.00000000000E+00 0. -1.
         23    2    1    2    0    0  0.12321533163E+01  0.17016440741E+02 -0.17116936718E+03  0.19452563443E+03  0.90830571569E+02 0.  0.
         23    2    1    2    0    0  0.18559783919E+02  0.30779202460E+01 -0.74967372525E+01  0.92340763974E+02  0.90092599305E+02 0.  0.
        -11    1    4    4    0    0 -0.35820962807E+02 -0.32879634699E+01  0.46111618684E+01  0.36265891606E+02  0.00000000000E+00 0.  1.
         11    1    4    4    0    0  0.54380746726E+02  0.63658837160E+01 -0.12107899121E+02  0.56074872368E+02  0.00000000000E+00 0. -1.
        -13    1    3    3    0    0  0.34799165086E+02 -0.21252325028E+02 -0.64076786148E+02  0.75950495277E+02  0.00000000000E+00 0.  1.
         13    1    3    3    0    0 -0.33567011769E+02  0.38268765769E+02 -0.10709258103E+03  0.11857513915E+03  0.00000000000E+00 0. -1.
          2    1    1    2  501    0 -0.19791937236E+02 -0.20094360987E+02  0.30523784098E+02  0.41559662158E+02  0.00000000000E+00 0. -1.
<scales pt_clust_5="13000.00000" pt_clust_6="13000.00000" pt_clust_7="13000.00000" pt_clust_8="13000.00000" pt_clust_9="28.20468"></scales>
<clustering>
<clus scale="   28.205">  1  9  2 -1</clus>
<clus scale="   90.093">  5  6 -1 -1</clus>
<clus scale="   90.831">  7  8 -1 -1</clus>
<clus scale="   91.031">  1  5  2 -1</clus>
<clus scale="   28.205">  1  5  2 -1</clus>
</clustering>
</event>
<event>
 9    1  0.1671478E-005  0.1687282E+03  0.7546771E-02  0.1179452E+00
         21   -1    0    0  501  502  0.00000000000E+00  0.00000000000E+00  0.46401504372E+03  0.46401504372E+03  0.00000000000E+00 0. -1.
         -2   -1    0    0    0  501 -0.00000000000E+00 -0.00000000000E+00 -0.84630757540E+02  0.84630757540E+02  0.00000000000E+00 0.  1.
         23    2    1    2    0    0 -0.88295692642E+02 -0.78687224565E+02  0.15237423479E+03  0.21337379173E+03  0.91228608019E+02 0.  0.
         23    2    1    2    0    0  0.12177308001E+03  0.12030603497E+03  0.18372350303E+03  0.26652183780E+03  0.89315952611E+02 0.  0.
        -11    1    4    4    0    0  0.12967138498E+03  0.87773796867E+02  0.16759430835E+03  0.22936163518E+03  0.00000000000E+00 0. -1.
         11    1    4    4    0    0 -0.78983049735E+01  0.32532238104E+02  0.16129194676E+02  0.37160202615E+02  0.00000000000E+00 0.  1.
        -13    1    3    3    0    0 -0.68315394118E+01 -0.27387266305E+02  0.99733293442E+02  0.10365067345E+03  0.00000000000E+00 0. -1.
         13    1    3    3    0    0 -0.81464153230E+02 -0.51299958259E+02  0.52640941351E+02  0.10972311828E+03  0.00000000000E+00 0.  1.
         -2    1    1    2    0  502 -0.33477387369E+02 -0.41618810406E+02  0.43286548362E+02  0.68750171736E+02  0.00000000000E+00 0.  1.
<scales pt_clust_5="13000.00000" pt_clust_6="13000.00000" pt_clust_7="13000.00000" pt_clust_8="13000.00000" pt_clust_9="53.41221"></scales>
<clustering>
<clus scale="   53.412">  1  9  2 -1</clus>
<clus scale="   89.316">  5  6 -1 -1</clus>
<clus scale="   91.229">  7  8 -1 -1</clus>
<clus scale="  167.702">  1  5  2 -1</clus>
<clus scale="   53.412">  1  5  2 -1</clus>
</clustering>
</event>
<event>
 9    1  0.1671478E-005  0.1175827E+03  0.7546771E-02  0.1247949E+00
         21   -1    0    0  501  502  0.00000000000E+00  0.00000000000E+00  0.10218669864E+03  0.10218669864E+03  0.00000000000E+00 0.  1.
          2   -1    0    0  502    0 -0.00000000000E+00 -0.00000000000E+00 -0.31296467191E+03  0.31296467191E+03  0.00000000000E+00 0. -1.
         23    2    1    2    0    0 -0.69444447818E+02 -0.12693181135E+02 -0.23011190382E+03  0.25781337045E+03  0.92372060299E+02 0.  0.
         23    2    1    2    0    0  0.86734950925E+02  0.14425790511E+01  0.36842229383E+02  0.13028105879E+03  0.89948716879E+02 0.  0.
        -11    1    4    4    0    0  0.43898046268E+02  0.21499715863E+02 -0.22984852982E+02  0.54014625010E+02  0.00000000000E+00 0. -1.
         11    1    4    4    0    0  0.42836904657E+02 -0.20057136811E+02  0.59827082366E+02  0.76266433783E+02  0.00000000000E+00 0.  1.
        -13    1    3    3    0    0 -0.75681514016E+02  0.23455374626E+02 -0.14782158603E+03  0.16771722470E+03  0.00000000000E+00 0. -1.
         13    1    3    3    0    0  0.62370661980E+01 -0.36148555762E+02 -0.82290317785E+02  0.90096145753E+02  0.00000000000E+00 0.  1.
          2    1    1    2  501    0 -0.17290503106E+02  0.11250602084E+02 -0.17508298830E+02  0.27056941306E+02  0.00000000000E+00 0. -1.
<scales pt_clust_5="13000.00000" pt_clust_6="13000.00000" pt_clust_7="13000.00000" pt_clust_8="13000.00000" pt_clust_9="20.62857"></scales>
<clustering>
<clus scale="   20.629">  1  9  2 -1</clus>
<clus scale="   89.949">  5  6 -1 -1</clus>
<clus scale="   92.372">  7  8 -1 -1</clus>
<clus scale="  115.689">  1  5  2 -1</clus>
<clus scale="   20.629">  1  5  2 -1</clus>
</clustering>
</event>
<event>
 9    1  0.1671478E-005  0.1266701E+03  0.7546771E-02  0.1234115E+00
         21   -1    0    0  501  502  0.00000000000E+00  0.00000000000E+00  0.51955428600E+02  0.51955428600E+02  0.00000000000E+00 0.  1.
          2   -1    0    0  502    0 -0.00000000000E+00 -0.00000000000E+00 -0.58331235229E+03  0.58331235229E+03  0.00000000000E+00 0. -1.
         23    2    1    2    0    0 -0.43579685359E+02 -0.67373174446E+02 -0.39782092629E+03  0.41729516251E+03  0.97136139757E+02 0.  0.
         23    2    1    2    0    0  0.15142533220E+02  0.89846930013E+02 -0.75809871511E+02  0.14981070144E+03  0.91620644521E+02 0.  0.
        -11    1    3    3    0    0 -0.64775530007E+02 -0.78626276587E+02 -0.31455088047E+03  0.33063607950E+03  0.00000000000E+00 0. -1.
         11    1    3    3    0    0  0.21195844648E+02  0.11253102141E+02 -0.83270045814E+02  0.86659083009E+02  0.00000000000E+00 0.  1.
        -13    1    4    4    0    0  0.16468909789E+02 -0.15374479250E+02 -0.53089026352E+01  0.23147009506E+02  0.00000000000E+00 0. -1.
         13    1    4    4    0    0 -0.13263765698E+01  0.10522140926E+03 -0.70500968876E+02  0.12666369193E+03  0.00000000000E+00 0.  1.
          2    1    1    2  501    0  0.28437152140E+02 -0.22473755567E+02 -0.57726125892E+02  0.68161916945E+02  0.00000000000E+00 0. -1.
<scales pt_clust_5="13000.00000" pt_clust_6="13000.00000" pt_clust_7="13000.00000" pt_clust_8="13000.00000" pt_clust_9="36.24559"></scales>
<clustering>
<clus scale="   36.246">  1  9  2 -1</clus>
<clus scale="   91.621">  7  8 -1 -1</clus>
<clus scale="   97.136">  5  6 -1 -1</clus>
<clus scale="  122.492">  1  7  2 -1</clus>
<clus scale="   36.246">  1  5  2 -1</clus>
</clustering>
</event>
<event>
 9    1  0.1671478E-005  0.1614817E+03  0.7546771E-02  0.1203936E+00
          1   -1    0    0  502    0 -0.00000000000E+00  0.00000000000E+00  0.26137756537E+03  0.26137756537E+03  0.00000000000E+00 0. -1.
         21   -1    0    0  501  502  0.00000000000E+00 -0.00000000000E+00 -0.17503099155E+03  0.17503099155E+03  0.00000000000E+00 0.  1.
         23    2    1    2    0    0 -0.64839928393E+02  0.22706818649E+00  0.62288335709E+02  0.12775952452E+03  0.90765585251E+02 0.  0.
         23    2    1    2    0    0 -0.87398171159E+02 -0.33971094380E+02  0.67185671980E+02  0.14686190741E+03  0.90895708115E+02 0.  0.
        -13    1    3    3    0    0 -0.84231826281E+02  0.15960261049E+02  0.41400107952E+02  0.95203463329E+02  0.00000000000E+00 0.  1.
         13    1    3    3    0    0  0.19391897888E+02 -0.15733192863E+02  0.20888227757E+02  0.32556061190E+02  0.00000000000E+00 0. -1.
        -13    1    4    4    0    0 -0.78757630438E+02 -0.56074714036E+02  0.74470181390E+02  0.12203665770E+03  0.00000000000E+00 0.  1.
         13    1    4    4    0    0 -0.86405407209E+01  0.22103619656E+02 -0.72845094103E+01  0.24825249711E+02  0.00000000000E+00 0. -1.
          1    1    1    2  501    0  0.15223809955E+03  0.33744026193E+02 -0.43127433873E+02  0.16178712499E+03  0.00000000000E+00 0. -1.
<scales pt_clust_5="13000.00000" pt_clust_6="13000.00000" pt_clust_7="13000.00000" pt_clust_8="13000.00000" pt_clust_9="133.47022"></scales>
<clustering>
<clus scale="   90.766">  5  6 -1 -1</clus>
<clus scale="   90.896">  7  8 -1 -1</clus>
<clus scale="  111.547">  1  5  2 -1</clus>
<clus scale="  133.470">  2  9  1 -1</clus>
<clus scale="  133.470">  2  5  1 -1</clus>
</clustering>
</event>
<event>
 9    1  0.1671478E-005  0.1390459E+03  0.7546771E-02  0.1214747E+00
         -2   -1    0    0    0  501 -0.00000000000E+00  0.00000000000E+00  0.44774982546E+03  0.44774982546E+03  0.00000000000E+00 0.  1.
         21   -1    0    0  501  502  0.00000000000E+00 -0.00000000000E+00 -0.14436273986E+03  0.14436273986E+03  0.00000000000E+00 0.  1.
         23    2    1    2    0    0 -0.95628735526E+02  0.11968410643E+01  0.25478246928E+03  0.28659669345E+03  0.89873636621E+02 0.  0.
         23    2    1    2    0    0  0.12770200897E+03  0.18999672068E+02  0.13730643740E+03  0.20905548063E+03  0.90456318724E+02 0.  0.
        -11    1    4    4    0    0  0.27567312067E+01  0.31872301494E+02  0.29893368079E+02  0.43784205195E+02  0.00000000000E+00 0. -1.
         11    1    4    4    0    0  0.12494527776E+03 -0.12872629426E+02  0.10741306933E+03  0.16527127544E+03  0.00000000000E+00 0.  1.
        -11    1    3    3    0    0 -0.47790324950E+02  0.23207878160E+02  0.42950028053E+02  0.68317096522E+02  0.00000000000E+00 0. -1.
         11    1    3    3    0    0 -0.47838410576E+02 -0.22011037096E+02  0.21183244123E+03  0.21827959693E+03  0.00000000000E+00 0.  1.
         -2    1    1    2    0  502 -0.32073273441E+02 -0.20196513132E+02 -0.88701821084E+02  0.96460391226E+02  0.00000000000E+00 0.  1.
<scales pt_clust_5="13000.00000" pt_clust_6="13000.00000" pt_clust_7="13000.00000" pt_clust_8="13000.00000" pt_clust_9="37.90243"></scales>
<clustering>
<clus scale="   37.902">  2  9  1 -1</clus>
<clus scale="   89.874">  7  8 -1 -1</clus>
<clus scale="   90.456">  5  6 -1 -1</clus>
<clus scale="  138.668">  1  7  2 -1</clus>
<clus scale="   37.902">  2  5  1 -1</clus>
</clustering>
</event>
<event>
 9    1  0.1671478E-005  0.1206396E+03  0.7546771E-02  0.1242645E+00
          1   -1    0    0  502    0 -0.00000000000E+00  0.00000000000E+00  0.16424551465E+03  0.16424551465E+03  0.00000000000E+00 0. -1.
         21   -1    0    0  501  502  0.00000000000E+00 -0.00000000000E+00 -0.33975344106E+03  0.33975344106E+03  0.00000000000E+00 0. -1.
         23    2    1    2    0    0  0.66574753137E+02  0.44356768018E+02  0.11612700836E+03  0.16852735999E+03  0.92283630018E+02 0.  0.
         23    2    1    2    0    0 -0.22376112565E+02 -0.67678332037E+02 -0.21726490052E+03  0.24587071864E+03  0.90373260692E+02 0.  0.
        -11    1    4    4    0    0  0.32811829967E+02 -0.43002668665E+02 -0.11472048703E+03  0.12683310231E+03  0.00000000000E+00 0. -1.
         11    1    4    4    0    0 -0.55187942532E+02 -0.24675663372E+02 -0.10254441349E+03  0.11903761633E+03  0.00000000000E+00 0.  1.
        -13    1    3    3    0    0 -0.19888939272E+02  0.24599064001E+02  0.18575889700E+02  0.36684431755E+02  0.00000000000E+00 0.  1.
         13    1    3    3    0    0  0.86463692408E+02  0.19757704018E+02  0.97551118663E+02  0.13184292823E+03  0.00000000000E+00 0. -1.
          1    1    1    2  501    0 -0.44198640571E+02  0.23321564018E+02 -0.74370034257E+02  0.89600877072E+02  0.00000000000E+00 0. -1.
<scales pt_clust_5="13000.00000" pt_clust_6="13000.00000" pt_clust_7="13000.00000" pt_clust_8="13000.00000" pt_clust_9="49.97415"></scales>
<clustering>
<clus scale="   49.974">  2  9  1 -1</clus>
<clus scale="   90.373">  5  6 -1 -1</clus>
<clus scale="   92.284">  7  8 -1 -1</clus>
<clus scale="  119.185">  2  5  1 -1</clus>
<clus scale="   49.974">  2  5  1 -1</clus>
</clustering>
</event>
<event>
 9    1  0.1671478E-005  0.1013287E+03  0.7546771E-02  0.1279254E+00
          3   -1    0    0  502    0 -0.00000000000E+00  0.00000000000E+00  0.23116422495E+03  0.23116422495E+03  0.00000000000E+00 0. -1.
         21   -1    0    0  501  502  0.00000000000E+00 -0.00000000000E+00 -0.73965823974E+02  0.73965823974E+02  0.00000000000E+00 0.  1.
         23    2    1    2    0    0 -0.21137224669E+01  0.44585719079E+02  0.13776747106E+03  0.17295490546E+03  0.94557755207E+02 0.  0.
         23    2    1    2    0    0 -0.50012596880E+00 -0.21972448511E+02  0.39684544719E+02  0.10170546801E+03  0.91028020493E+02 0.  0.
        -11    1    4    4    0    0 -0.33400407587E+02 -0.39421108498E+02  0.38519083746E+02  0.64446340741E+02  0.00000000000E+00 0. -1.
         11    1    4    4    0    0  0.32900281618E+02  0.17448659987E+02  0.11654609723E+01  0.37259127274E+02  0.00000000000E+00 0.  1.
        -13    1    3    3    0    0 -0.95085631888E+01  0.73526036623E+02  0.10595315184E+03  0.12931574235E+03  0.00000000000E+00 0.  1.
         13    1    3    3    0    0  0.73948407218E+01 -0.28940317544E+02  0.31814319229E+02  0.43639163109E+02  0.00000000000E+00 0. -1.
          3    1    1    2  501    0  0.26138484357E+01 -0.22613270568E+02 -0.20253614807E+02  0.30469675452E+02  0.00000000000E+00 0. -1.
<scales pt_clust_5="13000.00000" pt_clust_6="13000.00000" pt_clust_7="13000.00000" pt_clust_8="13000.00000" pt_clust_9="22.76384"></scales>
<clustering>
<clus scale="   22.764">  2  9  1 -1</clus>
<clus scale="   91.028">  5  6 -1 -1</clus>
<clus scale="   94.558">  7  8 -1 -1</clus>
<clus scale="   98.043">  2  5  1 -1</clus>
<clus scale="   22.764">  2  5  1 -1</clus>
</clustering>
</event>
<event>
 9    1  0.3334807E-005  0.8983307E+02  0.7546771E-02  0.1304229E+00
          3   -1    0    0  502    0 -0.00000000000E+00  0.00000000000E+00  0.12570700656E+03  0.12570700656E+03  0.00000000000E+00 0. -1.
         21   -1    0    0  501  502  0.00000000000E+00 -0.00000000000E+00 -0.52826452417E+03  0.52826452417E+03  0.00000000000E+00 0. -1.
         23    2    1    2    0    0  0.90613710212E+01  0.68087942053E+01  0.85756861255E+02  0.12453799377E+03  0.89593551765E+02 0.  0.
         23    2    1    2    0    0  0.46643696634E+02 -0.22379628994E+01 -0.11583276070E+03  0.15278183719E+03  0.88002377308E+02 0.  0.
        -11    1    4    4    0    0 -0.11518401762E+02  0.29418785586E+02 -0.51752444224E+02  0.60633769532E+02  0.00000000000E+00 0.  1.
         11    1    4    4    0    0  0.58162098396E+02 -0.31656748486E+02 -0.64080316475E+02  0.92148067663E+02  0.00000000000E+00 0. -1.
        -13    1    3    3    0    0 -0.16588027131E+02 -0.36329317960E+02  0.34085960053E+02  0.52505567898E+02  0.00000000000E+00 0. -1.
         13    1    3    3    0    0  0.25649398152E+02  0.43138112165E+02  0.51670901201E+02  0.72032425877E+02  0.00000000000E+00 0.  1.
          3    1    1    2  501    0 -0.55705067655E+02 -0.45708313058E+01 -0.37248161816E+03  0.37665169976E+03  0.00000000000E+00 0. -1.
<scales pt_clust_5="13000.00000" pt_clust_6="13000.00000" pt_clust_7="13000.00000" pt_clust_8="13000.00000" pt_clust_9="55.89228"></scales>
<clustering>
<clus scale="   55.892">  2  9  1 -1</clus>
<clus scale="   88.002">  5  6 -1 -1</clus>
<clus scale="   88.246">  2  5  1 -1</clus>
<clus scale="   89.594">  7  8 -1 -1</clus>
<clus scale="   55.892">  2  5  1 -1</clus>
</clustering>
</event>
<event>
 9    1  0.1671478E-005  0.1002632E+03  0.7546771E-02  0.1282605E+00
          1   -1    0    0  502    0 -0.00000000000E+00  0.00000000000E+00  0.26280298481E+03  0.26280298481E+03  0.00000000000E+00 0. -1.
         21   -1    0    0  501  502  0.00000000000E+00 -0.00000000000E+00 -0.89502518010E+02  0.89502518010E+02  0.00000000000E+00 0. -1.
         23    2    1    2    0    0 -0.49471545011E+02 -0.64348303859E+01  0.14584568785E+03  0.18105198006E+03  0.94973754325E+02 0.  0.
         23    2    1    2    0    0 -0.11192001450E+02  0.33016325942E+02  0.39861588225E+02  0.10386976588E+03  0.89356831710E+02 0.  0.
        -11    1    4    4    0    0 -0.35108920826E+02  0.20991346981E+02  0.58404782439E+02  0.71304919756E+02  0.00000000000E+00 0.  1.
         11    1    4    4    0    0  0.23916919376E+02  0.12024978961E+02 -0.18543194215E+02  0.32564846125E+02  0.00000000000E+00 0. -1.
        -13    1    3    3    0    0 -0.18871561886E+02  0.35825326616E+02  0.11140232501E+03  0.11853298230E+03  0.00000000000E+00 0. -1.
         13    1    3    3    0    0 -0.30599983125E+02 -0.42260157002E+02  0.34443362841E+02  0.62518997760E+02  0.00000000000E+00 0.  1.
          1    1    1    2  501    0  0.60663546461E+02 -0.26581495556E+02 -0.12406809274E+02  0.67383756882E+02  0.00000000000E+00 0. -1.
<scales pt_clust_5="13000.00000" pt_clust_6="13000.00000" pt_clust_7="13000.00000" pt_clust_8="13000.00000" pt_clust_9="66.23173"></scales>
<clustering>
<clus scale="   66.232">  2  9  1 -1</clus>
<clus scale="   89.357">  5  6 -1 -1</clus>
<clus scale="   94.960">  2  5  1 -1</clus>
<clus scale="   94.974">  7  8 -1 -1</clus>
<clus scale="   66.232">  2  5  1 -1</clus>
</clustering>
</event>
<event>
 9    1  0.1671478E-005  0.1176024E+03  0.7546771E-02  0.1247754E+00
         21   -1    0    0  501  502  0.00000000000E+00  0.00000000000E+00  0.33629554559E+02  0.33629554559E+02  0.00000000000E+00 0. -1.
          1   -1    0    0  502    0 -0.00000000000E+00 -0.00000000000E+00 -0.62191024197E+03  0.62191024197E+03  0.00000000000E+00 0. -1.
         23    2    1    2    0    0  0.74973655465E+02  0.24491413128E+02 -0.32094796215E+03  0.34234789472E+03  0.89295063030E+02 0.  0.
         23    2    1    2    0    0 -0.50603345381E+02 -0.53088003632E+02 -0.23899251214E+03  0.26612976541E+03  0.91261144465E+02 0.  0.
        -11    1    3    3    0    0  0.25812263949E+02  0.55037797175E+02 -0.14916254893E+03  0.16107420057E+03  0.00000000000E+00 0.  1.
         11    1    3    3    0    0  0.49161391515E+02 -0.30546384046E+02 -0.17178541322E+03  0.18127369415E+03  0.00000000000E+00 0. -1.
        -11    1    4    4    0    0  0.20864697677E+02 -0.77624580945E+01 -0.15433323350E+02  0.27088352376E+02  0.00000000000E+00 0.  1.
         11    1    4    4    0    0 -0.71468043058E+02 -0.45325545537E+02 -0.22355918879E+03  0.23904141304E+03  0.00000000000E+00 0. -1.
          1    1    1    2  501    0 -0.24370310083E+02  0.28596590504E+02 -0.28340213128E+02  0.47062136396E+02  0.00000000000E+00 0. -1.
<scales pt_clust_5="13000.00000" pt_clust_6="13000.00000" pt_clust_7="13000.00000" pt_clust_8="13000.00000" pt_clust_9="37.57229"></scales>
<clustering>
<clus scale="   37.572">  1  9  2 -1</clus>
<clus scale="   89.295">  5  6 -1 -1</clus>
<clus scale="   91.261">  7  8 -1 -1</clus>
<clus scale="  116.083">  2  5  1 -1</clus>
<clus scale="   37.572">  1  5  2 -1</clus>
</clustering>
</event>
<event>
 9    1  0.1671478E-005  0.1075679E+03  0.7546771E-02  0.1267926E+00
         -4   -1    0    0    0  501 -0.00000000000E+00  0.00000000000E+00  0.49873450683E+03  0.49873450683E+03  0.00000000000E+00 0.  1.
         21   -1    0    0  501  502  0.00000000000E+00 -0.00000000000E+00 -0.48915838235E+02  0.48915838235E+02  0.00000000000E+00 0. -1.
         23    2    1    2    0    0 -0.17991503384E+02  0.35753174894E+02  0.30592761484E+03  0.32323454754E+03  0.96368477703E+02 0.  0.
         23    2    1    2    0    0  0.60862988047E+02 -0.38990566458E+02  0.13970093501E+03  0.18121855228E+03  0.89995804692E+02 0.  0.
        -11    1    4    4    0    0  0.60257563104E+01 -0.50460461185E+02  0.10119223919E+03  0.11323620073E+03  0.00000000000E+00 0. -1.
         11    1    4    4    0    0  0.54837231737E+02  0.11469894727E+02  0.38508695815E+02  0.67982351555E+02  0.00000000000E+00 0.  1.
        -13    1    3    3    0    0  0.37113047234E+02  0.18862296611E+02  0.17988547752E+03  0.18464005397E+03  0.00000000000E+00 0. -1.
         13    1    3    3    0    0 -0.55104550618E+02  0.16890878283E+02  0.12604213732E+03  0.13859449357E+03  0.00000000000E+00 0.  1.
         -4    1    1    2    0  502 -0.42871484663E+02  0.32373915643E+01  0.41901187482E+01  0.43197245242E+02  0.00000000000E+00 0.  1.
<scales pt_clust_5="13000.00000" pt_clust_6="13000.00000" pt_clust_7="13000.00000" pt_clust_8="13000.00000" pt_clust_9="42.99354"></scales>
<clustering>
<clus scale="   42.994">  2  9  1 -1</clus>
<clus scale="   89.996">  5  6 -1 -1</clus>
<clus scale="   96.368">  7  8 -1 -1</clus>
<clus scale="  101.898">  2  5  1 -1</clus>
<clus scale="   42.994">  2  5  1 -1</clus>
</clustering>
</event>
<event>
 9    1  0.1671478E-005  0.3213194E+03  0.7546771E-02  0.1075044E+00
         21   -1    0    0  501  502  0.00000000000E+00  0.00000000000E+00  0.24175807041E+03  0.24175807041E+03  0.00000000000E+00 0.  1.
         -3   -1    0    0    0  501 -0.00000000000E+00 -0.00000000000E+00 -0.48295380097E+03  0.48295380097E+03  0.00000000000E+00 0.  1.
         23    2    1    2    0    0  0.15742357028E+03  0.24589048560E+03 -0.11492893478E+03  0.32676747053E+03  0.91236003662E+02 0.  0.
         23    2    1    2    0    0 -0.18055730388E+03 -0.27304767868E+03 -0.10202662662E+03  0.35481357002E+03  0.91253833441E+02 0.  0.
        -11    1    4    4    0    0 -0.78142220315E+02 -0.19183815642E+03 -0.43785934927E+02  0.21171984544E+03  0.00000000000E+00 0.  1.
         11    1    4    4    0    0 -0.10241508357E+03 -0.81209522254E+02 -0.58240691690E+02  0.14309372458E+03  0.00000000000E+00 0. -1.
        -13    1    3    3    0    0  0.29673230431E+02  0.79539705357E+01  0.52595025097E+01  0.31167749648E+02  0.00000000000E+00 0.  1.
         13    1    3    3    0    0  0.12775033985E+03  0.23793651506E+03 -0.12018843729E+03  0.29559972088E+03  0.00000000000E+00 0. -1.
         -3    1    1    2    0  502  0.23133733603E+02  0.27157193081E+02 -0.24240169163E+02  0.43130830823E+02  0.00000000000E+00 0.  1.
<scales pt_clust_5="13000.00000" pt_clust_6="13000.00000" pt_clust_7="13000.00000" pt_clust_8="13000.00000" pt_clust_9="35.67470"></scales>
<clustering>
<clus scale="   35.675">  1  9  2 -1</clus>
<clus scale="   91.236">  7  8 -1 -1</clus>
<clus scale="   91.254">  5  6 -1 -1</clus>
<clus scale="  321.314">  2  7  1 -1</clus>
<clus scale="   35.675">  1  5  2 -1</clus>
</clustering>
</event>
<event>
 9    1  0.1671478E-005  0.1089463E+03  0.7546771E-02  0.1264702E+00
          4   -1    0    0  502    0 -0.00000000000E+00  0.00000000000E+00  0.24781621238E+03  0.24781621238E+03  0.00000000000E+00 0. -1.
         21   -1    0    0  501  502  0.00000000000E+00 -0.00000000000E+00 -0.84973433961E+02  0.84973433961E+02  0.00000000000E+00 0.  1.
         23    2    1    2    0    0 -0.16919793579E+02  0.65825746294E+02  0.12796296059E+03  0.17142274819E+03  0.91607483441E+02 0.  0.
         23    2    1    2    0    0  0.68017954531E+01 -0.25021802690E+02  0.55551811177E+02  0.11451962493E+03  0.96728412251E+02 0.  0.
        -13    1    4    4    0    0 -0.29073038703E+02 -0.26553730459E+02 -0.92391680771E+01  0.40443842640E+02  0.00000000000E+00 0. -1.
         13    1    4    4    0    0  0.35874834156E+02  0.15319277689E+01  0.64790979255E+02  0.74075782285E+02  0.00000000000E+00 0.  1.
        -13    1    3    3    0    0 -0.40385906114E+02  0.57591393493E+01  0.83980333372E+02  0.93364262392E+02  0.00000000000E+00 0. -1.
         13    1    3    3    0    0  0.23466112535E+02  0.60066606945E+02  0.43982627218E+02  0.78058485794E+02  0.00000000000E+00 0.  1.
          4    1    1    2  501    0  0.10117998126E+02 -0.40803943604E+02 -0.20671993352E+02  0.46847273228E+02  0.00000000000E+00 0. -1.
<scales pt_clust_5="13000.00000" pt_clust_6="13000.00000" pt_clust_7="13000.00000" pt_clust_8="13000.00000" pt_clust_9="42.03969"></scales>
<clustering>
<clus scale="   42.040">  2  9  1 -1</clus>
<clus scale="   91.607">  7  8 -1 -1</clus>
<clus scale="   96.728">  5  6 -1 -1</clus>
<clus scale="  104.426">  1  7  2 -1</clus>
<clus scale="   42.040">  2  5  1 -1</clus>
</clustering>
</event>
<event>
 9    1  0.1671478E-005  0.9859897E+02  0.7546771E-02  0.1284352E+00
          3   -1    0    0  502    0 -0.00000000000E+00  0.00000000000E+00  0.96457733553E+02  0.96457733553E+02  0.00000000000E+00 0. -1.
         21   -1    0    0  501  502  0.00000000000E+00 -0.00000000000E+00 -0.17796207664E+03  0.17796207664E+03  0.00000000000E+00 0. -1.
         23    2    1    2    0    0  0.25770443880E+02 -0.38528903612E+02  0.24632270497E+02  0.10353523937E+03  0.89242393794E+02 0.  0.
         23    2    1    2    0    0  0.84638635277E+01  0.19026165302E+02 -0.82915036165E+02  0.12515070741E+03  0.91401118100E+02 0.  0.
        -11    1    3    3    0    0 -0.31788090668E+02 -0.25535823828E+02  0.16433339088E+02  0.43961524546E+02  0.00000000000E+00 0.  1.
         11    1    3    3    0    0  0.57558534548E+02 -0.12993079784E+02  0.81989314097E+01  0.59573714823E+02  0.00000000000E+00 0. -1.
        -13    1    4    4    0    0  0.26937874021E+02  0.50490485207E+02 -0.49101522149E+02  0.75404891291E+02  0.00000000000E+00 0.  1.
         13    1    4    4    0    0 -0.18474010494E+02 -0.31464319905E+02 -0.33813514016E+02  0.49745816115E+02  0.00000000000E+00 0. -1.
          3    1    1    2  501    0 -0.34234307408E+02  0.19502738310E+02 -0.23221577418E+02  0.45733863417E+02  0.00000000000E+00 0. -1.
<scales pt_clust_5="13000.00000" pt_clust_6="13000.00000" pt_clust_7="13000.00000" pt_clust_8="13000.00000" pt_clust_9="39.39980"></scales>
<clustering>
<clus scale="   39.400">  2  9  1 -1</clus>
<clus scale="   89.242">  5  6 -1 -1</clus>
<clus scale="   91.401">  7  8 -1 -1</clus>
<clus scale="   96.601">  1  5  2 -1</clus>
<clus scale="   39.400">  2  5  1 -1</clus>
</clustering>
</event>
<event>
 9    1  0.1671478E-005  0.1090245E+03  0.7546771E-02  0.1265831E+00
         21   -1    0    0  501  502  0.00000000000E+00  0.00000000000E+00  0.60184008152E+02  0.60184008152E+02  0.00000000000E+00 0.  1.
          2   -1    0    0  502    0 -0.00000000000E+00 -0.00000000000E+00 -0.34010338290E+03  0.34010338290E+03  0.00000000000E+00 0. -1.
         23    2    1    2    0    0  0.11387506671E+02 -0.52795256279E+02 -0.21840877079E+03  0.24379562286E+03  0.93898350217E+02 0.  0.
         23    2    1    2    0    0  0.12026811419E+02  0.62884291246E+02 -0.21436314497E+02  0.10899474098E+03  0.85564360009E+02 0.  0.
        -11    1    3    3    0    0  0.28645722709E+02 -0.74418909704E+02 -0.14739614395E+03  0.16758393360E+03  0.00000000000E+00 0. -1.
         11    1    3    3    0    0 -0.17258216038E+02  0.21623653425E+02 -0.71012626847E+02  0.76211689261E+02  0.00000000000E+00 0.  1.
        -11    1    4    4    0    0  0.20256822737E+02 -0.11202799751E+02 -0.25375909674E+02  0.34347902140E+02  0.00000000000E+00 0. -1.
         11    1    4    4    0    0 -0.82300113180E+01  0.74087090997E+02  0.39395951768E+01  0.74646838840E+02  0.00000000000E+00 0.  1.
          2    1    1    2  501    0 -0.23414318090E+02 -0.10089034967E+02 -0.40074289454E+02  0.47497027206E+02  0.00000000000E+00 0. -1.
<scales pt_clust_5="13000.00000" pt_clust_6="13000.00000" pt_clust_7="13000.00000" pt_clust_8="13000.00000" pt_clust_9="25.49548"></scales>
<clustering>
<clus scale="   25.495">  1  9  2 -1</clus>
<clus scale="   85.564">  7  8 -1 -1</clus>
<clus scale="   93.898">  5  6 -1 -1</clus>
<clus scale="  101.935">  1  7  2 -1</clus>
<clus scale="   25.495">  1  5  2 -1</clus>
</clustering>
</event>
<event>
 9    1  0.1671478E-005  0.1022154E+03  0.7546771E-02  0.1283275E+00
          1   -1    0    0  502    0 -0.00000000000E+00  0.00000000000E+00  0.27197969605E+03  0.27197969605E+03  0.00000000000E+00 0. -1.
         21   -1    0    0  501  502  0.00000000000E+00 -0.00000000000E+00 -0.60830360000E+02  0.60830360000E+02  0.00000000000E+00 0.  1.
         23    2    1    2    0    0 -0.30980800163E+01  0.34102926653E+02  0.13931880523E+03  0.16433421449E+03  0.80146096949E+02 0.  0.
         23    2    1    2    0    0  0.40168050000E+02 -0.36197730394E+02  0.72697102267E+02  0.13133661939E+03  0.95082548287E+02 0.  0.
        -11    1    4    4    0    0  0.70105667372E+02 -0.32055824844E+02  0.63122484208E+02  0.99633470866E+02  0.00000000000E+00 0.  1.
         11    1    4    4    0    0 -0.29937617372E+02 -0.41419055499E+01  0.95746180582E+01  0.31703148526E+02  0.00000000000E+00 0. -1.
        -11    1    3    3    0    0  0.28781399047E+02  0.44831554893E+02  0.91293045806E+02  0.10570079213E+03  0.00000000000E+00 0.  1.
         11    1    3    3    0    0 -0.31879479063E+02 -0.10728628241E+02  0.48025759421E+02  0.58633422356E+02  0.00000000000E+00 0. -1.
          1    1    1    2  501    0 -0.37069969984E+02  0.20948037419E+01 -0.86657144207E+00  0.37139222170E+02  0.00000000000E+00 0. -1.
<scales pt_clust_5="13000.00000" pt_clust_6="13000.00000" pt_clust_7="13000.00000" pt_clust_8="13000.00000" pt_clust_9="37.12911"></scales>
<clustering>
<clus scale="   37.129">  2  9  1 -1</clus>
<clus scale="   80.146">  7  8 -1 -1</clus>
<clus scale="   88.491">  1  7  2 -1</clus>
<clus scale="   95.083">  5  6 -1 -1</clus>
<clus scale="   37.129">  2  5  1 -1</clus>
</clustering>
</event>
<event>
 9    1  0.1671478E-005  0.1004747E+03  0.7546771E-02  0.1283708E+00
         21   -1    0    0  501  502  0.00000000000E+00  0.00000000000E+00  0.22363697330E+03  0.22363697330E+03  0.00000000000E+00 0.  1.
          2   -1    0    0  502    0 -0.00000000000E+00 -0.00000000000E+00 -0.17617293149E+03  0.17617293149E+03  0.00000000000E+00 0. -1.
         23    2    1    2    0    0 -0.13659139579E+02 -0.83224271431E+01 -0.14208534125E+03  0.17382531755E+03  0.98849187832E+02 0.  0.
         23    2    1    2    0    0  0.35216536563E+02  0.12565696080E+02  0.13236236800E+03  0.16472218941E+03  0.90639406744E+02 0.  0.
        -13    1    4    4    0    0  0.52650085627E+02  0.34491912658E+02  0.11679333866E+03  0.13267406495E+03  0.00000000000E+00 0.  1.
         13    1    4    4    0    0 -0.17433549064E+02 -0.21926216579E+02  0.15569029335E+02  0.32048124451E+02  0.00000000000E+00 0. -1.
        -13    1    3    3    0    0 -0.45419581706E+02  0.23185560566E+02 -0.10072270299E+03  0.11289628656E+03  0.00000000000E+00 0. -1.
         13    1    3    3    0    0  0.31760442127E+02 -0.31507987709E+02 -0.41362638268E+02  0.60929030996E+02  0.00000000000E+00 0.  1.
          2    1    1    2  501    0 -0.21557396985E+02 -0.42432689368E+01  0.57187015065E+02  0.61262397831E+02  0.00000000000E+00 0. -1.
<scales pt_clust_5="13000.00000" pt_clust_6="13000.00000" pt_clust_7="13000.00000" pt_clust_8="13000.00000" pt_clust_9="21.97104"></scales>
<clustering>
<clus scale="   21.971">  1  9  2 -1</clus>
<clus scale="   90.639">  5  6 -1 -1</clus>
<clus scale="   92.409">  1  5  2 -1</clus>
<clus scale="   98.849">  7  8 -1 -1</clus>
<clus scale="   21.971">  1  5  2 -1</clus>
</clustering>
</event>
<event>
 9    1  0.3176889E-005  0.1125349E+03  0.7546771E-02  0.1256265E+00
         21   -1    0    0  501  502  0.00000000000E+00  0.00000000000E+00  0.90743937690E+02  0.90743937690E+02  0.00000000000E+00 0. -1.
          1   -1    0    0  502    0 -0.00000000000E+00 -0.00000000000E+00 -0.79469543116E+03  0.79469543116E+03  0.00000000000E+00 0. -1.
         23    2    1    2    0    0  0.71187549088E+02  0.28529197318E+02 -0.60373599440E+03  0.61547334004E+03  0.91807946986E+02 0.  0.
         23    2    1    2    0    0 -0.25079019979E+02 -0.34018563036E+02 -0.16330091956E+03  0.19163404383E+03  0.90940621008E+02 0.  0.
        -11    1    3    3    0    0  0.81776586730E+02 -0.50435616209E+01 -0.47483512610E+03  0.48185189076E+03  0.00000000000E+00 0. -1.
         11    1    3    3    0    0 -0.10589037642E+02  0.33572758939E+02 -0.12890086830E+03  0.13362144928E+03  0.00000000000E+00 0.  1.
        -11    1    4    4    0    0 -0.42086916138E+02  0.11148245787E+02 -0.39608633773E+02  0.58859457724E+02  0.00000000000E+00 0.  1.
         11    1    4    4    0    0  0.17007896160E+02 -0.45166808823E+02 -0.12369228579E+03  0.13277458610E+03  0.00000000000E+00 0. -1.
          1    1    1    2  501    0 -0.46108529109E+02  0.54893657181E+01  0.63085420488E+02  0.78331984979E+02  0.00000000000E+00 0. -1.
<scales pt_clust_5="13000.00000" pt_clust_6="13000.00000" pt_clust_7="13000.00000" pt_clust_8="13000.00000" pt_clust_9="46.43414"></scales>
<clustering>
<clus scale="   46.434">  1  9  2 -1</clus>
<clus scale="   90.941">  7  8 -1 -1</clus>
<clus scale="   91.808">  5  6 -1 -1</clus>
<clus scale="  111.828">  1  7  2 -1</clus>
<clus scale="   46.434">  1  5  2 -1</clus>
</clustering>
</event>
<event>
 9    1  0.1671478E-005  0.1238909E+03  0.7546771E-02  0.1237827E+00
          1   -1    0    0  502    0 -0.00000000000E+00  0.00000000000E+00  0.65655735998E+03  0.65655735998E+03  0.00000000000E+00 0. -1.
         21   -1    0    0  501  502  0.00000000000E+00 -0.00000000000E+00 -0.30993052021E+02  0.30993052021E+02  0.00000000000E+00 0.  1.
         23    2    1    2    0    0 -0.28781613265E+02  0.74148929308E+02  0.28408429738E+03  0.30804548242E+03  0.88666150482E+02 0.  0.
         23    2    1    2    0    0  0.27128860992E+01 -0.97370315976E+02  0.28702596162E+03  0.31482065960E+03  0.85087054740E+02 0.  0.
        -11    1    4    4    0    0  0.32398323953E+02 -0.80739413466E+01  0.53704821954E+02  0.63238025151E+02  0.00000000000E+00 0. -1.
         11    1    4    4    0    0 -0.29685437854E+02 -0.89296374629E+02  0.23332113966E+03  0.25158263445E+03  0.00000000000E+00 0.  1.
        -11    1    3    3    0    0 -0.40151304944E+02  0.35422200895E+01  0.55899749169E+02  0.68916301185E+02  0.00000000000E+00 0.  1.
         11    1    3    3    0    0  0.11369691678E+02  0.70606709218E+02  0.22818454821E+03  0.23912918123E+03  0.00000000000E+00 0. -1.
          1    1    1    2  501    0  0.26068727166E+02  0.23221386668E+02  0.54454048964E+02  0.64684269985E+02  0.00000000000E+00 0. -1.
<scales pt_clust_5="13000.00000" pt_clust_6="13000.00000" pt_clust_7="13000.00000" pt_clust_8="13000.00000" pt_clust_9="34.91148"></scales>
<clustering>
<clus scale="   34.911">  2  9  1 -1</clus>
<clus scale="   85.087">  5  6 -1 -1</clus>
<clus scale="   88.666">  7  8 -1 -1</clus>
<clus scale="  121.355">  2  5  1 -1</clus>
<clus scale="   34.911">  2  5  1 -1</clus>
</clustering>
</event>
<event>
 9    1  0.1671478E-005  0.9575097E+02  0.7546771E-02  0.1296110E+00
          1   -1    0    0  502    0 -0.00000000000E+00  0.00000000000E+00  0.30706628413E+03  0.30706628413E+03  0.00000000000E+00 0. -1.
         21   -1    0    0  501  502  0.00000000000E+00 -0.00000000000E+00 -0.74438988458E+02  0.74438988458E+02  0.00000000000E+00 0. -1.
         23    2    1    2    0    0 -0.12877677178E+02 -0.25573196610E+02  0.19375468457E+03  0.21268492920E+03  0.82910664957E+02 0.  0.
         23    2    1    2    0    0 -0.75004536925E+01 -0.10562089917E+02  0.69036438838E+02  0.11752820312E+03  0.94228626708E+02 0.  0.
        -11    1    3    3    0    0 -0.95547007204E+01 -0.45580197591E+02  0.18468852121E+03  0.19046967366E+03  0.00000000000E+00 0. -1.
         11    1    3    3    0    0 -0.33229764580E+01  0.20007000981E+02  0.90661633610E+01  0.22215255544E+02  0.00000000000E+00 0.  1.
        -13    1    4    4    0    0  0.41698296929E+02  0.84802926822E+00  0.17076105234E+02  0.45067288474E+02  0.00000000000E+00 0.  1.
         13    1    4    4    0    0 -0.49198750622E+02 -0.11410119185E+02  0.51960333603E+02  0.72460914642E+02  0.00000000000E+00 0. -1.
          1    1    1    2  501    0  0.20378130871E+02  0.36135286527E+02 -0.30163827732E+02  0.51292140271E+02  0.00000000000E+00 0. -1.
<scales pt_clust_5="13000.00000" pt_clust_6="13000.00000" pt_clust_7="13000.00000" pt_clust_8="13000.00000" pt_clust_9="41.48526"></scales>
<clustering>
<clus scale="   41.485">  2  9  1 -1</clus>
<clus scale="   82.911">  5  6 -1 -1</clus>
<clus scale="   84.637">  1  5  2 -1</clus>
<clus scale="   94.229">  7  8 -1 -1</clus>
<clus scale="   41.485">  2  5  1 -1</clus>
</clustering>
</event>
<event>
 9    1  0.1671478E-005  0.1367122E+03  0.7546771E-02  0.1218391E+00
         21   -1    0    0  501  502  0.00000000000E+00  0.00000000000E+00  0.90542509865E+02  0.90542509865E+02  0.00000000000E+00 0. -1.
          2   -1    0    0  502    0 -0.00000000000E+00 -0.00000000000E+00 -0.44388653744E+03  0.44388653744E+03  0.00000000000E+00 0. -1.
         23    2    1    2    0    0 -0.91590304926E+02  0.54858186027E+01 -0.25291887802E+03  0.28412758582E+03  0.91332622889E+02 0.  0.
         23    2    1    2    0    0  0.12958794264E+03  0.37616833701E+02 -0.10493949661E+03  0.19266433425E+03  0.88877368803E+02 0.  0.
        -11    1    4    4    0    0  0.39005043667E+02 -0.12636304937E+01  0.10939593847E+02  0.40529802701E+02  0.00000000000E+00 0.  1.
         11    1    4    4    0    0  0.90582898977E+02  0.38880464194E+02 -0.11587909046E+03  0.15213453155E+03  0.00000000000E+00 0. -1.
        -11    1    3    3    0    0 -0.83631637931E+02  0.29595794382E+02 -0.23951611751E+03  0.25541756489E+03  0.00000000000E+00 0. -1.
         11    1    3    3    0    0 -0.79586669950E+01 -0.24109975780E+02 -0.13402760507E+02  0.28710020927E+02  0.00000000000E+00 0.  1.
          2    1    1    2  501    0 -0.37997637718E+02 -0.43102652303E+02  0.45143470471E+01  0.57637127245E+02  0.00000000000E+00 0. -1.
<scales pt_clust_5="13000.00000" pt_clust_6="13000.00000" pt_clust_7="13000.00000" pt_clust_8="13000.00000" pt_clust_9="57.46007"></scales>
<clustering>
<clus scale="   57.460">  1  9  2 -1</clus>
<clus scale="   88.877">  5  6 -1 -1</clus>
<clus scale="   91.333">  7  8 -1 -1</clus>
<clus scale="  135.084">  1  5  2 -1</clus>
<clus scale="   57.460">  1  5  2 -1</clus>
</clustering>
</event>
<event>
 9    1  0.1671478E-005  0.9641994E+02  0.7546771E-02  0.1289131E+00
         21   -1    0    0  501  502  0.00000000000E+00  0.00000000000E+00  0.30982394661E+03  0.30982394661E+03  0.00000000000E+00 0. -1.
          2   -1    0    0  502    0 -0.00000000000E+00 -0.00000000000E+00 -0.62680758074E+02  0.62680758074E+02  0.00000000000E+00 0. -1.
         23    2    1    2    0    0  0.67176512858E+01 -0.10745011567E+02  0.67727509046E+02  0.11424383972E+03  0.91126600502E+02 0.  0.
         23    2    1    2    0    0  0.58769144606E+02 -0.21667986476E+01  0.71496497407E+02  0.13136805532E+03  0.93205737178E+02 0.  0.
        -11    1    3    3    0    0 -0.38619378625E+02  0.44275475133E+01  0.11708263068E+02  0.40597327578E+02  0.00000000000E+00 0.  1.
         11    1    3    3    0    0  0.45337029911E+02 -0.15172559081E+02  0.56019245978E+02  0.73646512138E+02  0.00000000000E+00 0. -1.
        -11    1    4    4    0    0 -0.31969864545E+01  0.20342038197E+02  0.61288009602E+02  0.64654770601E+02  0.00000000000E+00 0.  1.
         11    1    4    4    0    0  0.61966131060E+02 -0.22508836845E+02  0.10208487804E+02  0.66713284718E+02  0.00000000000E+00 0. -1.
          2    1    1    2  501    0 -0.65486795891E+02  0.12911810215E+02  0.10791918208E+03  0.12689280965E+03  0.00000000000E+00 0. -1.
<scales pt_clust_5="13000.00000" pt_clust_6="13000.00000" pt_clust_7="13000.00000" pt_clust_8="13000.00000" pt_clust_9="66.74755"></scales>
<clustering>
<clus scale="   66.748">  1  9  2 -1</clus>
<clus scale="   91.127">  5  6 -1 -1</clus>
<clus scale="   93.206">  7  8 -1 -1</clus>
<clus scale="   94.412">  2  5  1 -1</clus>
<clus scale="   66.748">  1  5  2 -1</clus>
</clustering>
</event>
<event>
 9    1  0.1671478E-005  0.1311845E+03  0.7546771E-02  0.1226805E+00
         21   -1    0    0  501  502  0.00000000000E+00  0.00000000000E+00  0.30021661917E+03  0.30021661917E+03  0.00000000000E+00 0. -1.
          1   -1    0    0  502    0 -0.00000000000E+00 -0.00000000000E+00 -0.19533083881E+03  0.19533083881E+03  0.00000000000E+00 0. -1.
         23    2    1    2    0    0  0.87640972323E+02  0.37325179299E+01 -0.10209472454E+03  0.16472934563E+03  0.94960796192E+02 0.  0.
         23    2    1    2    0    0 -0.97091119292E+02  0.18961361690E+02  0.12603022311E+02  0.13489230194E+03  0.90834345207E+02 0.  0.
        -13    1    3    3    0    0  0.42429191167E+02  0.44856463592E+02 -0.76906786726E+02  0.98625516138E+02  0.00000000000E+00 0.  1.
         13    1    3    3    0    0  0.45211781156E+02 -0.41123945663E+02 -0.25187937810E+02  0.66103829490E+02  0.00000000000E+00 0. -1.
        -13    1    4    4    0    0  0.47204606367E+01 -0.22985359126E+02  0.75977591670E+01  0.24664456757E+02  0.00000000000E+00 0.  1.
         13    1    4    4    0    0 -0.10181157993E+03  0.41946720816E+02  0.50052631443E+01  0.11022784518E+03  0.00000000000E+00 0. -1.
          1    1    1    2  501    0  0.94501469688E+01 -0.22693879620E+02  0.19437748258E+03  0.19592581041E+03  0.00000000000E+00 0. -1.
<scales pt_clust_5="13000.00000" pt_clust_6="13000.00000" pt_clust_7="13000.00000" pt_clust_8="13000.00000" pt_clust_9="24.58287"></scales>
<clustering>
<clus scale="   24.583">  1  9  2 -1</clus>
<clus scale="   90.834">  7  8 -1 -1</clus>
<clus scale="   94.961">  5  6 -1 -1</clus>
<clus scale="  128.229">  1  7  2 -1</clus>
<clus scale="   24.583">  1  5  2 -1</clus>
</clustering>
</event>
<event>
 9    1  0.1671478E-005  0.2194814E+03  0.7546771E-02  0.1148502E+00
         21   -1    0    0  501  502  0.00000000000E+00  0.00000000000E+00  0.88377837806E+02  0.88377837806E+02  0.00000000000E+00 0. -1.
          2   -1    0    0  502    0 -0.00000000000E+00 -0.00000000000E+00 -0.10787363794E+04  0.10787363794E+04  0.00000000000E+00 0. -1.
         23    2    1    2    0    0 -0.12496441561E+03 -0.15518080002E+02 -0.35544874274E+03  0.38811091718E+03  0.91811542574E+02 0.  0.
         23    2    1    2    0    0  0.25134844657E+03 -0.93666369314E+02 -0.41818370925E+03  0.50538976751E+03  0.92691812425E+02 0.  0.
        -13    1    4    4    0    0  0.93911013383E+02 -0.79789182452E+02 -0.15031979817E+03  0.19437498242E+03  0.00000000000E+00 0.  1.
         13    1    4    4    0    0  0.15743743319E+03 -0.13877186862E+02 -0.26786391108E+03  0.31101478509E+03  0.00000000000E+00 0. -1.
        -13    1    3    3    0    0 -0.61398462698E+01 -0.32428605495E+02 -0.11073449993E+03  0.11554843851E+03  0.00000000000E+00 0. -1.
         13    1    3    3    0    0 -0.11882456934E+03  0.16910525493E+02 -0.24471424280E+03  0.27256247867E+03  0.00000000000E+00 0.  1.
          2    1    1    2  501    0 -0.12638403096E+03  0.10918444932E+03 -0.21672608961E+03  0.27361353251E+03  0.00000000000E+00 0. -1.
<scales pt_clust_5="13000.00000" pt_clust_6="13000.00000" pt_clust_7="13000.00000" pt_clust_8="13000.00000" pt_clust_9="198.94803"></scales>
<clustering>
<clus scale="   91.812">  7  8 -1 -1</clus>
<clus scale="   92.692">  5  6 -1 -1</clus>
<clus scale="  155.841">  2  7  1 -1</clus>
<clus scale="  198.948">  1  9  2 -1</clus>
<clus scale="  198.948">  1  5  2 -1</clus>
</clustering>
</event>
<event>
 9    1  0.1671478E-005  0.2003117E+03  0.7546771E-02  0.1149547E+00
         21   -1    0    0  501  502  0.00000000000E+00  0.00000000000E+00  0.16482614175E+03  0.16482614175E+03  0.00000000000E+00 0.  1.
          2   -1    0    0  502    0 -0.00000000000E+00 -0.00000000000E+00 -0.59051674894E+03  0.59051674894E+03  0.00000000000E+00 0. -1.
         23    2    1    2    0    0  0.13751548926E+03  0.68754172073E+02 -0.26896366489E+03  0.32334035068E+03  0.92573664627E+02 0.  0.
         23    2    1    2    0    0 -0.19734221555E+03 -0.17528865632E+03 -0.12230420169E+03  0.30506255977E+03  0.91841083135E+02 0.  0.
        -11    1    3    3    0    0  0.59293481802E+02  0.61582826731E+02 -0.20476193440E+03  0.22189098970E+03  0.00000000000E+00 0. -1.
         11    1    3    3    0    0  0.78222007460E+02  0.71713453420E+01 -0.64201730498E+02  0.10144936098E+03  0.00000000000E+00 0.  1.
        -13    1    4    4    0    0 -0.17531763103E+03 -0.11194250434E+03 -0.11478299213E+03  0.23757636943E+03  0.00000000000E+00 0.  1.
         13    1    4    4    0    0 -0.22024584516E+02 -0.63346151978E+02 -0.75212095578E+01  0.67486190341E+02  0.00000000000E+00 0. -1.
          2    1    1    2  501    0  0.59826726287E+02  0.10653448424E+03 -0.34422740613E+02  0.12693998024E+03  0.00000000000E+00 0. -1.
<scales pt_clust_5="13000.00000" pt_clust_6="13000.00000" pt_clust_7="13000.00000" pt_clust_8="13000.00000" pt_clust_9="122.18361"></scales>
<clustering>
<clus scale="   91.841">  7  8 -1 -1</clus>
<clus scale="   92.574">  5  6 -1 -1</clus>
<clus scale="  122.184">  1  9  2 -1</clus>
<clus scale="  199.974">  1  7  2 -1</clus>
<clus scale="  122.184">  1  5  2 -1</clus>
</clustering>
</event>
<event>
 9    1  0.1671478E-005  0.9265844E+02  0.7546771E-02  0.1298084E+00
          3   -1    0    0  502    0 -0.00000000000E+00  0.00000000000E+00  0.42888525637E+02  0.42888525637E+02  0.00000000000E+00 0. -1.
         21   -1    0    0  501  502  0.00000000000E+00 -0.00000000000E+00 -0.38490877916E+03  0.38490877916E+03  0.00000000000E+00 0. -1.
         23    2    1    2    0    0 -0.13970058594E+02  0.53169494732E+01 -0.48820090540E+02  0.10292377534E+03  0.89367050979E+02 0.  0.
         23    2    1    2    0    0  0.51140701114E+01  0.14616779582E+02 -0.12883290527E+03  0.15906527425E+03  0.92000217578E+02 0.  0.
        -11    1    4    4    0    0 -0.41399560037E+01  0.52829675558E+02 -0.62354440435E+02  0.81830251724E+02  0.00000000000E+00 0. -1.
         11    1    4    4    0    0  0.92540261151E+01 -0.38212895976E+02 -0.66478464833E+02  0.77235022528E+02  0.00000000000E+00 0.  1.
        -13    1    3    3    0    0  0.29946687065E+02  0.24804808453E+02 -0.76058817495E+01  0.39622367746E+02  0.00000000000E+00 0.  1.
         13    1    3    3    0    0 -0.43916745659E+02 -0.19487858980E+02 -0.41214208790E+02  0.63301407592E+02  0.00000000000E+00 0. -1.
          3    1    1    2  501    0  0.88559884826E+01 -0.19933729055E+02 -0.16436725772E+03  0.16580825521E+03  0.00000000000E+00 0. -1.
<scales pt_clust_5="13000.00000" pt_clust_6="13000.00000" pt_clust_7="13000.00000" pt_clust_8="13000.00000" pt_clust_9="21.81243"></scales>
<clustering>
<clus scale="   21.812">  2  9  1 -1</clus>
<clus scale="   89.367">  7  8 -1 -1</clus>
<clus scale="   90.045">  1  7  2 -1</clus>
<clus scale="   92.000">  5  6 -1 -1</clus>
<clus scale="   21.812">  2  5  1 -1</clus>
</clustering>
</event>
<event>
 9    1  0.1671478E-005  0.1076842E+03  0.7546771E-02  0.1265096E+00
         21   -1    0    0  501  502  0.00000000000E+00  0.00000000000E+00  0.74586996866E+02  0.74586996866E+02  0.00000000000E+00 0.  1.
         -1   -1    0    0    0  501 -0.00000000000E+00 -0.00000000000E+00 -0.46055598083E+03  0.46055598083E+03  0.00000000000E+00 0.  1.
         23    2    1    2    0    0 -0.61691964839E+02  0.94936345205E+01 -0.26821551279E+03  0.29045381529E+03  0.92346250027E+02 0.  0.
         23    2    1    2    0    0  0.46815553270E+02  0.92929941588E+01 -0.16321313423E+03  0.19330019469E+03  0.91915082071E+02 0.  0.
        -11    1    3    3    0    0  0.20183852185E+02  0.15703165690E+02 -0.10070018207E+03  0.10389660231E+03  0.00000000000E+00 0. -1.
         11    1    3    3    0    0 -0.81875817024E+02 -0.62095311699E+01 -0.16751533071E+03  0.18655721298E+03  0.00000000000E+00 0.  1.
        -13    1    4    4    0    0  0.36619343354E+02  0.49786248910E+02 -0.98578809914E+02  0.11635045618E+03  0.00000000000E+00 0.  1.
         13    1    4    4    0    0  0.10196209916E+02 -0.40493254752E+02 -0.64634324316E+02  0.76949738510E+02  0.00000000000E+00 0. -1.
         -1    1    1    2    0  502  0.14876411569E+02 -0.18786628679E+02  0.45459663054E+02  0.51388967720E+02  0.00000000000E+00 0.  1.
<scales pt_clust_5="13000.00000" pt_clust_6="13000.00000" pt_clust_7="13000.00000" pt_clust_8="13000.00000" pt_clust_9="23.96341"></scales>
<clustering>
<clus scale="   23.963">  1  9  2 -1</clus>
<clus scale="   91.915">  7  8 -1 -1</clus>
<clus scale="   92.346">  5  6 -1 -1</clus>
<clus scale="  107.315">  1  7  2 -1</clus>
<clus scale="   23.963">  1  5  2 -1</clus>
</clustering>
</event>
<event>
 9    1  0.1671478E-005  0.1005977E+03  0.7546771E-02  0.1281976E+00
         -1   -1    0    0    0  501 -0.00000000000E+00  0.00000000000E+00  0.19617126742E+03  0.19617126742E+03  0.00000000000E+00 0.  1.
         21   -1    0    0  501  502  0.00000000000E+00 -0.00000000000E+00 -0.11981455773E+03  0.11981455773E+03  0.00000000000E+00 0. -1.
         23    2    1    2    0    0 -0.67788737145E+00  0.21360772882E+01  0.80669479860E+02  0.12696669289E+03  0.98020170195E+02 0.  0.
         23    2    1    2    0    0  0.48847425282E+02 -0.53895452610E+02  0.49475067484E+01  0.11770931496E+03  0.92413279541E+02 0.  0.
        -11    1    4    4    0    0  0.45850575813E+02 -0.10575362060E+02  0.40113546462E+02  0.61832112974E+02  0.00000000000E+00 0.  1.
         11    1    4    4    0    0  0.29968494690E+01 -0.43320090551E+02 -0.35166039714E+02  0.55877201981E+02  0.00000000000E+00 0. -1.
        -13    1    3    3    0    0 -0.56673268258E+01 -0.47487006160E+02  0.34148018858E+02  0.58764117787E+02  0.00000000000E+00 0. -1.
         13    1    3    3    0    0  0.49894394543E+01  0.49623083448E+02  0.46521461003E+02  0.68202575104E+02  0.00000000000E+00 0.  1.
         -1    1    1    2    0  502 -0.48169537911E+02  0.51759375322E+02 -0.92602769176E+01  0.71309817310E+02  0.00000000000E+00 0.  1.
<scales pt_clust_5="13000.00000" pt_clust_6="13000.00000" pt_clust_7="13000.00000" pt_clust_8="13000.00000" pt_clust_9="70.70599"></scales>
<clustering>
<clus scale="   70.706">  2  9  1 -1</clus>
<clus scale="   92.413">  5  6 -1 -1</clus>
<clus scale="   95.143">  2  5  1 -1</clus>
<clus scale="   98.020">  7  8 -1 -1</clus>
<clus scale="   70.706">  2  5  1 -1</clus>
</clustering>
</event>
<event>
 9    1  0.1671478E-005  0.9638033E+02  0.7546771E-02  0.1289478E+00
         21   -1    0    0  501  502  0.00000000000E+00  0.00000000000E+00  0.53796721228E+02  0.53796721228E+02  0.00000000000E+00 0.  1.
          2   -1    0    0  502    0 -0.00000000000E+00 -0.00000000000E+00 -0.47378014724E+03  0.47378014724E+03  0.00000000000E+00 0. -1.
         23    2    1    2    0    0 -0.15996498083E+02  0.20589063029E+02 -0.33409448325E+03  0.34717035278E+03  0.90710157334E+02 0.  0.
         23    2    1    2    0    0  0.29879596830E+02  0.33194218521E+01 -0.10739548414E+03  0.14537956318E+03  0.93261023531E+02 0.  0.
        -11    1    4    4    0    0  0.59009357623E+02  0.13883623739E+02 -0.44287929368E+02  0.75075162223E+02  0.00000000000E+00 0.  1.
         11    1    4    4    0    0 -0.29129760792E+02 -0.10564201887E+02 -0.63107554771E+02  0.70304400961E+02  0.00000000000E+00 0. -1.
        -11    1    3    3    0    0  0.13270905194E+02  0.50025739316E+02 -0.21143131714E+03  0.21767382339E+03  0.00000000000E+00 0. -1.
         11    1    3    3    0    0 -0.29267403277E+02 -0.29436676287E+02 -0.12266316611E+03  0.12949652939E+03  0.00000000000E+00 0.  1.
          2    1    1    2  501    0 -0.13883098748E+02 -0.23908484881E+02  0.21506541373E+02  0.35026952508E+02  0.00000000000E+00 0. -1.
<scales pt_clust_5="13000.00000" pt_clust_6="13000.00000" pt_clust_7="13000.00000" pt_clust_8="13000.00000" pt_clust_9="27.64699"></scales>
<clustering>
<clus scale="   27.647">  1  9  2 -1</clus>
<clus scale="   90.710">  7  8 -1 -1</clus>
<clus scale="   93.261">  5  6 -1 -1</clus>
<clus scale="   93.914">  2  7  1 -1</clus>
<clus scale="   27.647">  1  5  2 -1</clus>
</clustering>
</event>
<event>
 9    1  0.1671478E-005  0.1950038E+03  0.7546771E-02  0.1154033E+00
          1   -1    0    0  502    0 -0.00000000000E+00  0.00000000000E+00  0.89413386443E+03  0.89413386443E+03  0.00000000000E+00 0. -1.
         21   -1    0    0  501  502  0.00000000000E+00 -0.00000000000E+00 -0.63680569243E+02  0.63680569243E+02  0.00000000000E+00 0. -1.
         23    2    1    2    0    0 -0.34238173324E+02 -0.17055774450E+03  0.50276117625E+03  0.53973546215E+03  0.91013032220E+02 0.  0.
         23    2    1    2    0    0 -0.26392202170E+02  0.17457922864E+03  0.24272120641E+03  0.31361715677E+03  0.90926792351E+02 0.  0.
        -11    1    3    3    0    0  0.19805584478E+02 -0.11503670729E+03  0.33984448792E+03  0.35933268870E+03  0.00000000000E+00 0. -1.
         11    1    3    3    0    0 -0.54043757802E+02 -0.55521037215E+02  0.16291668833E+03  0.18040277345E+03  0.00000000000E+00 0.  1.
        -13    1    4    4    0    0  0.19711699269E+02  0.63030571450E+02  0.14126658918E+03  0.15594118521E+03  0.00000000000E+00 0. -1.
         13    1    4    4    0    0 -0.46103901439E+02  0.11154865719E+03  0.10145461723E+03  0.15767597156E+03  0.00000000000E+00 0.  1.
          1    1    1    2  501    0  0.60630375494E+02 -0.40214841409E+01  0.84970912530E+02  0.10446181476E+03  0.00000000000E+00 0. -1.
<scales pt_clust_5="13000.00000" pt_clust_6="13000.00000" pt_clust_7="13000.00000" pt_clust_8="13000.00000" pt_clust_9="60.76360"></scales>
<clustering>
<clus scale="   60.764">  2  9  1 -1</clus>
<clus scale="   90.927">  7  8 -1 -1</clus>
<clus scale="   91.013">  5  6 -1 -1</clus>
<clus scale="  194.964">  2  7  1 -1</clus>
<clus scale="   60.764">  2  5  1 -1</clus>
</clustering>
</event>
<event>
 9    1  0.1671478E-005  0.1498347E+03  0.7546771E-02  0.1203679E+00
         -3   -1    0    0    0  501 -0.00000000000E+00  0.00000000000E+00  0.55752626678E+03  0.55752626678E+03  0.00000000000E+00 0.  1.
         21   -1    0    0  501  502  0.00000000000E+00 -0.00000000000E+00 -0.17372800036E+03  0.17372800036E+03  0.00000000000E+00 0.  1.
         23    2    1    2    0    0 -0.61619168273E+02  0.10249448462E+03  0.48273122280E+03  0.50566549722E+03  0.91466498442E+02 0.  0.
         23    2    1    2    0    0  0.74149543502E+02 -0.86690842347E+02 -0.12816656811E+02  0.13714227498E+03  0.75035191395E+02 0.  0.
        -11    1    4    4    0    0  0.73966339203E+02 -0.60998507345E+02 -0.36122995235E+02  0.10245344317E+03  0.00000000000E+00 0. -1.
         11    1    4    4    0    0  0.18320429905E+00 -0.25692335002E+02  0.23306338424E+02  0.34688831811E+02  0.00000000000E+00 0.  1.
        -11    1    3    3    0    0 -0.20939653745E+02  0.10685674279E+03  0.37239583437E+03  0.38798903340E+03  0.00000000000E+00 0.  1.
         11    1    3    3    0    0 -0.40679514528E+02 -0.43622581683E+01  0.11033538843E+03  0.11767646383E+03  0.00000000000E+00 0. -1.
         -3    1    1    2    0  502 -0.12530375229E+02 -0.15803642275E+02 -0.86116299577E+02  0.88446494930E+02  0.00000000000E+00 0.  1.
<scales pt_clust_5="13000.00000" pt_clust_6="13000.00000" pt_clust_7="13000.00000" pt_clust_8="13000.00000" pt_clust_9="20.16843"></scales>
<clustering>
<clus scale="   20.168">  2  9  1 -1</clus>
<clus scale="   75.035">  5  6 -1 -1</clus>
<clus scale="   91.466">  7  8 -1 -1</clus>
<clus scale="  140.409">  2  5  1 -1</clus>
<clus scale="   20.168">  2  5  1 -1</clus>
</clustering>
</event>
<event>
 9    1  0.1671478E-005  0.9216335E+02  0.7546771E-02  0.1297928E+00
         -1   -1    0    0    0  501 -0.00000000000E+00  0.00000000000E+00  0.23121572087E+03  0.23121572087E+03  0.00000000000E+00 0.  1.
         21   -1    0    0  501  502  0.00000000000E+00 -0.00000000000E+00 -0.68366614646E+02  0.68366614646E+02  0.00000000000E+00 0. -1.
         23    2    1    2    0    0  0.15229372645E+02 -0.21731165343E+02  0.14079039305E+03  0.16948825681E+03  0.90554718712E+02 0.  0.
         23    2    1    2    0    0  0.37586115564E+01 -0.84802441141E+00  0.36389383339E+02  0.97295733306E+02  0.90152238982E+02 0.  0.
        -11    1    3    3    0    0  0.28342848543E+02 -0.51532888471E+02  0.69029622926E+02  0.90686517735E+02  0.00000000000E+00 0. -1.
         11    1    3    3    0    0 -0.13113475898E+02  0.29801723127E+02  0.71760770126E+02  0.78801739071E+02  0.00000000000E+00 0.  1.
        -11    1    4    4    0    0 -0.10243034962E+02  0.35198674844E+02  0.44631389646E+02  0.57756622284E+02  0.00000000000E+00 0.  1.
         11    1    4    4    0    0  0.14001646518E+02 -0.36046699255E+02 -0.82420063069E+01  0.39539111021E+02  0.00000000000E+00 0. -1.
         -1    1    1    2    0  502 -0.18987984201E+02  0.22579189755E+02 -0.14330670164E+02  0.32798345406E+02  0.00000000000E+00 0.  1.
<scales pt_clust_5="13000.00000" pt_clust_6="13000.00000" pt_clust_7="13000.00000" pt_clust_8="13000.00000" pt_clust_9="29.50192"></scales>
<clustering>
<clus scale="   29.502">  2  9  1 -1</clus>
<clus scale="   90.152">  7  8 -1 -1</clus>
<clus scale="   90.555">  5  6 -1 -1</clus>
<clus scale="   91.768">  2  7  1 -1</clus>
<clus scale="   29.502">  2  5  1 -1</clus>
</clustering>
</event>
<event>
 9    1  0.1671478E-005  0.1203914E+03  0.7546771E-02  0.1244056E+00
         21   -1    0    0  501  502  0.00000000000E+00  0.00000000000E+00  0.12265566957E+03  0.12265566957E+03  0.00000000000E+00 0. -1.
         -1   -1    0    0    0  501 -0.00000000000E+00 -0.00000000000E+00 -0.19920214632E+03  0.19920214632E+03  0.00000000000E+00 0.  1.
         23    2    1    2    0    0  0.46218009882E+02  0.54681727375E+02 -0.11060525093E+03  0.16067624248E+03  0.91962696888E+02 0.  0.
         23    2    1    2    0    0 -0.69872543018E+02 -0.67194663238E+02  0.22827801656E+02  0.13216011160E+03  0.86878602286E+02 0.  0.
        -11    1    4    4    0    0  0.67876093344E+01 -0.42982081562E+02 -0.11089030720E+02  0.44905429273E+02  0.00000000000E+00 0.  1.
         11    1    4    4    0    0 -0.76660152352E+02 -0.24212581675E+02  0.33916832377E+02  0.87254682330E+02  0.00000000000E+00 0. -1.
        -11    1    3    3    0    0 -0.25144763158E+02  0.28400090940E+02 -0.21767322811E+02  0.43733746947E+02  0.00000000000E+00 0.  1.
         11    1    3    3    0    0  0.71362773040E+02  0.26281636435E+02 -0.88837928119E+02  0.11694249554E+03  0.00000000000E+00 0. -1.
         -1    1    1    2    0  502  0.23654533136E+02  0.12512935863E+02  0.11230972524E+02  0.29021461811E+02  0.00000000000E+00 0.  1.
<scales pt_clust_5="13000.00000" pt_clust_6="13000.00000" pt_clust_7="13000.00000" pt_clust_8="13000.00000" pt_clust_9="26.76024"></scales>
<clustering>
<clus scale="   26.760">  1  9  2 -1</clus>
<clus scale="   86.879">  5  6 -1 -1</clus>
<clus scale="   91.963">  7  8 -1 -1</clus>
<clus scale="  116.554">  1  5  2 -1</clus>
<clus scale="   26.760">  1  5  2 -1</clus>
</clustering>
</event>
<event>
 9    1  0.1671478E-005  0.2450734E+03  0.7546771E-02  0.1116512E+00
         -1   -1    0    0    0  501 -0.00000000000E+00  0.00000000000E+00  0.85870000223E+02  0.85870000223E+02  0.00000000000E+00 0.  1.
         21   -1    0    0  501  502  0.00000000000E+00 -0.00000000000E+00 -0.10877386266E+04  0.10877386266E+04  0.00000000000E+00 0.  1.
         23    2    1    2    0    0 -0.17411792371E+03  0.11175184431E+03 -0.22933616032E+03  0.32160612197E+03  0.89609693642E+02 0.  0.
         23    2    1    2    0    0  0.23151226356E+03 -0.14410671081E+03 -0.55874227268E+03  0.62829020207E+03  0.90504024496E+02 0.  0.
        -13    1    3    3    0    0 -0.12127657959E+03  0.29113138292E+02 -0.10361424678E+03  0.16214652544E+03  0.00000000000E+00 0.  1.
         13    1    3    3    0    0 -0.52841344128E+02  0.82638706015E+02 -0.12572191354E+03  0.15945959653E+03  0.00000000000E+00 0. -1.
        -13    1    4    4    0    0  0.17803122994E+03 -0.14982365826E+03 -0.47174396627E+03  0.52600819111E+03  0.00000000000E+00 0.  1.
         13    1    4    4    0    0  0.53481033624E+02  0.57169474497E+01 -0.86998306413E+02  0.10228201095E+03  0.00000000000E+00 0. -1.
         -1    1    1    2    0  502 -0.57394339850E+02  0.32354866506E+02 -0.21379019334E+03  0.22371230275E+03  0.00000000000E+00 0.  1.
<scales pt_clust_5="13000.00000" pt_clust_6="13000.00000" pt_clust_7="13000.00000" pt_clust_8="13000.00000" pt_clust_9="65.88587"></scales>
<clustering>
<clus scale="   65.886">  2  9  1 -1</clus>
<clus scale="   89.610">  5  6 -1 -1</clus>
<clus scale="   90.504">  7  8 -1 -1</clus>
<clus scale="  244.745">  1  5  2 -1</clus>
<clus scale="   65.886">  2  5  1 -1</clus>
</clustering>
</event>
<event>
 9    1  0.1671478E-005  0.1717124E+03  0.7546771E-02  0.1176502E+00
         21   -1    0    0  501  502  0.00000000000E+00  0.00000000000E+00  0.71257638674E+03  0.71257638674E+03  0.00000000000E+00 0. -1.
         -1   -1    0    0    0  501 -0.00000000000E+00 -0.00000000000E+00 -0.62067593039E+02  0.62067593039E+02  0.00000000000E+00 0.  1.
         23    2    1    2    0    0 -0.68034559653E+02 -0.12216759117E+03  0.12211649540E+03  0.20559464361E+03  0.88335142439E+02 0.  0.
         23    2    1    2    0    0  0.73577518167E+02  0.14213952092E+03  0.41978232100E+03  0.45847931521E+03  0.91481095671E+02 0.  0.
        -11    1    3    3    0    0 -0.50899081573E+02 -0.10899927365E+03  0.49939412815E+02  0.13025169141E+03  0.00000000000E+00 0.  1.
         11    1    3    3    0    0 -0.17135478079E+02 -0.13168317521E+02  0.72177082587E+02  0.75342952200E+02  0.00000000000E+00 0. -1.
        -13    1    4    4    0    0  0.12934172582E+02  0.11322544611E+03  0.30340676571E+03  0.32410331678E+03  0.00000000000E+00 0. -1.
         13    1    4    4    0    0  0.60643345586E+02  0.28914074804E+02  0.11637555529E+03  0.13437599843E+03  0.00000000000E+00 0.  1.
         -1    1    1    2    0  502 -0.55429585147E+01 -0.19971929742E+02  0.10860997730E+03  0.11057002096E+03  0.00000000000E+00 0.  1.
<scales pt_clust_5="13000.00000" pt_clust_6="13000.00000" pt_clust_7="13000.00000" pt_clust_8="13000.00000" pt_clust_9="20.72685"></scales>
<clustering>
<clus scale="   20.727">  1  9  2 -1</clus>
<clus scale="   88.335">  5  6 -1 -1</clus>
<clus scale="   91.481">  7  8 -1 -1</clus>
<clus scale="  170.057">  2  5  1 -1</clus>
<clus scale="   20.727">  1  5  2 -1</clus>
</clustering>
</event>
<event>
 9    1  0.1671478E-005  0.1858142E+03  0.7546771E-02  0.1184944E+00
          1   -1    0    0  502    0 -0.00000000000E+00  0.00000000000E+00  0.96946216577E+03  0.96946216577E+03  0.00000000000E+00 0. -1.
         21   -1    0    0  501  502  0.00000000000E+00 -0.00000000000E+00 -0.11108626247E+03  0.11108626247E+03  0.00000000000E+00 0. -1.
         23    2    1    2    0    0 -0.63538497975E+02 -0.65065234461E+01 -0.14154817260E+02  0.11193153131E+03  0.90823087796E+02 0.  0.
         23    2    1    2    0    0  0.21060818850E+03 -0.21779461435E+02  0.71537044577E+03  0.75152488238E+03  0.90579358320E+02 0.  0.
        -11    1    4    4    0    0  0.40192415971E+02 -0.34621210619E+02  0.25495075797E+03  0.26041111251E+03  0.00000000000E+00 0.  1.
         11    1    4    4    0    0  0.17041577253E+03  0.12841749184E+02  0.46041968780E+03  0.49111376987E+03  0.00000000000E+00 0. -1.
        -11    1    3    3    0    0 -0.54585746532E+02  0.32621988040E+02 -0.27984667751E+02  0.69476179064E+02  0.00000000000E+00 0.  1.
         11    1    3    3    0    0 -0.89527514425E+01 -0.39128511486E+02  0.13829850491E+02  0.42455352244E+02  0.00000000000E+00 0. -1.
          1    1    1    2  501    0 -0.14706969053E+03  0.28285984881E+02  0.15716027479E+03  0.21709201456E+03  0.00000000000E+00 0. -1.
<scales pt_clust_5="13000.00000" pt_clust_6="13000.00000" pt_clust_7="13000.00000" pt_clust_8="13000.00000" pt_clust_9="162.24149"></scales>
<clustering>
<clus scale="   90.579">  5  6 -1 -1</clus>
<clus scale="   90.823">  7  8 -1 -1</clus>
<clus scale="  111.033">  1  7  2 -1</clus>
<clus scale="  162.241">  2  9  1 -1</clus>
<clus scale="  162.241">  2  5  1 -1</clus>
</clustering>
</event>
<event>
 9    1  0.1671478E-005  0.1151054E+03  0.7546771E-02  0.1256892E+00
         21   -1    0    0  501  502  0.00000000000E+00  0.00000000000E+00  0.53888180623E+02  0.53888180623E+02  0.00000000000E+00 0. -1.
          2   -1    0    0  502    0 -0.00000000000E+00 -0.00000000000E+00 -0.89525938344E+03  0.89525938344E+03  0.00000000000E+00 0. -1.
         23    2    1    2    0    0  0.37195387087E+02  0.70481082712E+02 -0.44550397088E+03  0.46161224023E+03  0.90890001763E+02 0.  0.
         23    2    1    2    0    0  0.66744119337E+02 -0.21025757121E+02 -0.34113502636E+03  0.36007998047E+03  0.91583984375E+02 0.  0.
        -11    1    4    4    0    0  0.48929674309E+02 -0.53691393681E+02 -0.27241098367E+03  0.28193017364E+03  0.00000000000E+00 0. -1.
         11    1    4    4    0    0  0.17814445028E+02  0.32665636560E+02 -0.68724042687E+02  0.78149806825E+02  0.00000000000E+00 0.  1.
        -13    1    3    3    0    0  0.23321415744E+02  0.90688302770E+02 -0.38727093139E+03  0.39843071041E+03  0.00000000000E+00 0.  1.
         13    1    3    3    0    0  0.13873971343E+02 -0.20207220058E+02 -0.58233039488E+02  0.63181529827E+02  0.00000000000E+00 0. -1.
          2    1    1    2  501    0 -0.10393950642E+03 -0.49455325591E+02 -0.54732205576E+02  0.12745534336E+03  0.00000000000E+00 0. -1.
<scales pt_clust_5="13000.00000" pt_clust_6="13000.00000" pt_clust_7="13000.00000" pt_clust_8="13000.00000" pt_clust_9="115.10539"></scales>
<clustering>
<clus scale="   90.890">  7  8 -1 -1</clus>
<clus scale="   91.584">  5  6 -1 -1</clus>
<clus scale="  115.105">  1  9  2 -1</clus>
<clus scale="  103.214">  2  7  1 -1</clus>
<clus scale="  115.105">  1  5  2 -1</clus>
</clustering>
</event>
<event>
 9    1  0.1671478E-005  0.1128145E+03  0.7546771E-02  0.1259005E+00
          2   -1    0    0  502    0 -0.00000000000E+00  0.00000000000E+00  0.25427403350E+03  0.25427403350E+03  0.00000000000E+00 0. -1.
         21   -1    0    0  501  502  0.00000000000E+00 -0.00000000000E+00 -0.15833044166E+03  0.15833044166E+03  0.00000000000E+00 0. -1.
         23    2    1    2    0    0  0.15800754318E+01  0.70319464752E+02  0.17536324649E+03  0.20989333394E+03  0.91409078603E+02 0.  0.
         23    2    1    2    0    0 -0.41919806306E+02 -0.49962806034E+02  0.73791274852E+01  0.10485555364E+03  0.81772143536E+02 0.  0.
        -11    1    4    4    0    0 -0.39928238097E+02 -0.19470460412E+02  0.40271394300E+02  0.59959554910E+02  0.00000000000E+00 0. -1.
         11    1    4    4    0    0 -0.19915682089E+01 -0.30492345622E+02 -0.32892266814E+02  0.44895998726E+02  0.00000000000E+00 0.  1.
        -13    1    3    3    0    0  0.44612087061E+02  0.25051913318E+02  0.61273775156E+02  0.79826763649E+02  0.00000000000E+00 0.  1.
         13    1    3    3    0    0 -0.43032011629E+02  0.45267551434E+02  0.11408947134E+03  0.13006657029E+03  0.00000000000E+00 0. -1.
          2    1    1    2  501    0  0.40339730874E+02 -0.20356658718E+02 -0.86798782141E+02  0.97855587589E+02  0.00000000000E+00 0. -1.
<scales pt_clust_5="13000.00000" pt_clust_6="13000.00000" pt_clust_7="13000.00000" pt_clust_8="13000.00000" pt_clust_9="45.18504"></scales>
<clustering>
<clus scale="   45.185">  2  9  1 -1</clus>
<clus scale="   81.772">  5  6 -1 -1</clus>
<clus scale="   91.409">  7  8 -1 -1</clus>
<clus scale="  105.158">  2  5  1 -1</clus>
<clus scale="   45.185">  2  5  1 -1</clus>
</clustering>
</event>
<event>
 9    1  0.1671478E-005  0.1079200E+03  0.7546771E-02  0.1264811E+00
          1   -1    0    0  502    0 -0.00000000000E+00  0.00000000000E+00  0.13415325017E+03  0.13415325017E+03  0.00000000000E+00 0. -1.
         21   -1    0    0  501  502  0.00000000000E+00 -0.00000000000E+00 -0.15604818020E+03  0.15604818020E+03  0.00000000000E+00 0.  1.
         23    2    1    2    0    0  0.46727000464E+02  0.29837741254E+02  0.67248024142E+02  0.12736952098E+03  0.92881616850E+02 0.  0.
         23    2    1    2    0    0 -0.54928740654E+02 -0.11132381052E+02 -0.92634482444E+02  0.14211115139E+03  0.92050722722E+02 0.  0.
        -11    1    4    4    0    0  0.24951744816E+02 -0.92943538769E+01 -0.33035227205E+02  0.42429951919E+02  0.00000000000E+00 0. -1.
         11    1    4    4    0    0 -0.79880485470E+02 -0.18380271754E+01 -0.59599255239E+02  0.99681199470E+02  0.00000000000E+00 0.  1.
        -11    1    3    3    0    0  0.31798065921E+02 -0.27938241897E+02  0.49463314846E+02  0.65102088079E+02  0.00000000000E+00 0. -1.
         11    1    3    3    0    0  0.14928934544E+02  0.57775983151E+02  0.17784709296E+02  0.62267432904E+02  0.00000000000E+00 0.  1.
          1    1    1    2  501    0  0.82017401897E+01 -0.18705360202E+02  0.34915282728E+01  0.20720758000E+02  0.00000000000E+00 0. -1.
<scales pt_clust_5="13000.00000" pt_clust_6="13000.00000" pt_clust_7="13000.00000" pt_clust_8="13000.00000" pt_clust_9="20.42448"></scales>
<clustering>
<clus scale="   20.424">  2  9  1 -1</clus>
<clus scale="   92.051">  5  6 -1 -1</clus>
<clus scale="   92.882">  7  8 -1 -1</clus>
<clus scale="  107.206">  2  5  1 -1</clus>
<clus scale="   20.424">  2  5  1 -1</clus>
</clustering>
</event>
<event>
 9    1  0.1671478E-005  0.9447125E+02  0.7546771E-02  0.1295066E+00
         21   -1    0    0  501  502  0.00000000000E+00  0.00000000000E+00  0.50435640970E+02  0.50435640970E+02  0.00000000000E+00 0.  1.
         -1   -1    0    0    0  501 -0.00000000000E+00 -0.00000000000E+00 -0.24156604055E+03  0.24156604055E+03  0.00000000000E+00 0.  1.
         23    2    1    2    0    0 -0.44784898711E+01 -0.35690427716E+02 -0.11626285794E+03  0.15196932005E+03  0.91015155873E+02 0.  0.
         23    2    1    2    0    0 -0.41326341969E+01  0.13838071928E+02 -0.76947246851E+02  0.11645266501E+03  0.86207734515E+02 0.  0.
        -11    1    4    4    0    0 -0.41713530155E+02 -0.93719648653E+01 -0.31727563042E+02  0.53239934072E+02  0.00000000000E+00 0.  1.
         11    1    4    4    0    0  0.37580895958E+02  0.23210036793E+02 -0.45219683809E+02  0.63212730939E+02  0.00000000000E+00 0. -1.
        -13    1    3    3    0    0 -0.36705748586E+02  0.12653255909E+02 -0.36496799916E+02  0.53286332849E+02  0.00000000000E+00 0. -1.
         13    1    3    3    0    0  0.32227258715E+02 -0.48343683625E+02 -0.79766058024E+02  0.98682987203E+02  0.00000000000E+00 0.  1.
         -1    1    1    2    0  502  0.86111240680E+01  0.21852355788E+02  0.20797052125E+01  0.23579696456E+02  0.00000000000E+00 0.  1.
<scales pt_clust_5="13000.00000" pt_clust_6="13000.00000" pt_clust_7="13000.00000" pt_clust_8="13000.00000" pt_clust_9="23.48780"></scales>
<clustering>
<clus scale="   23.488">  1  9  2 -1</clus>
<clus scale="   86.208">  5  6 -1 -1</clus>
<clus scale="   89.849">  1  5  2 -1</clus>
<clus scale="   91.015">  7  8 -1 -1</clus>
<clus scale="   23.488">  1  5  2 -1</clus>
</clustering>
</event>
<event>
 9    1  0.1671478E-005  0.9619892E+02  0.7546771E-02  0.1290204E+00
          1   -1    0    0  502    0 -0.00000000000E+00  0.00000000000E+00  0.27727057007E+03  0.27727057007E+03  0.00000000000E+00 0. -1.
         21   -1    0    0  501  502  0.00000000000E+00 -0.00000000000E+00 -0.93680053314E+02  0.93680053314E+02  0.00000000000E+00 0.  1.
         23    2    1    2    0    0 -0.15676032198E+02  0.22792822726E+02  0.20513247451E+03  0.22623955145E+03  0.91322241485E+02 0.  0.
         23    2    1    2    0    0  0.53057182499E+02 -0.16100359199E+02 -0.23304454264E+02  0.10669468258E+03  0.88127019243E+02 0.  0.
        -13    1    4    4    0    0  0.62263265292E+02  0.18399942472E+02 -0.27951050942E+02  0.70686160856E+02  0.00000000000E+00 0.  1.
         13    1    4    4    0    0 -0.92060827931E+01 -0.34500301672E+02  0.46465966783E+01  0.36008521721E+02  0.00000000000E+00 0. -1.
        -13    1    3    3    0    0  0.33693666818E+02  0.20280134910E+02  0.51172671108E+02  0.64538277975E+02  0.00000000000E+00 0.  1.
         13    1    3    3    0    0 -0.49369699016E+02  0.25126878161E+01  0.15395980340E+03  0.16170127348E+03  0.00000000000E+00 0. -1.
          1    1    1    2  501    0 -0.37381150301E+02 -0.66924635267E+01  0.17624965139E+01  0.38016389358E+02  0.00000000000E+00 0. -1.
<scales pt_clust_5="13000.00000" pt_clust_6="13000.00000" pt_clust_7="13000.00000" pt_clust_8="13000.00000" pt_clust_9="37.97551"></scales>
<clustering>
<clus scale="   37.976">  2  9  1 -1</clus>
<clus scale="   88.127">  5  6 -1 -1</clus>
<clus scale="   91.322">  7  8 -1 -1</clus>
<clus scale="   93.171">  2  5  1 -1</clus>
<clus scale="   37.976">  2  5  1 -1</clus>
</clustering>
</event>
<event>
 9    1  0.1671478E-005  0.9838649E+02  0.7546771E-02  0.1286746E+00
         -4   -1    0    0    0  501 -0.00000000000E+00  0.00000000000E+00  0.79583849646E+02  0.79583849646E+02  0.00000000000E+00 0.  1.
         21   -1    0    0  501  502  0.00000000000E+00 -0.00000000000E+00 -0.45331218077E+03  0.45331218077E+03  0.00000000000E+00 0.  1.
         23    2    1    2    0    0 -0.16025824337E+02  0.25570216182E+02  0.19720620961E+02  0.97278835465E+02  0.90352675317E+02 0.  0.
         23    2    1    2    0    0 -0.20385811048E+02 -0.43550296342E+01 -0.10366421196E+03  0.14278432975E+03  0.95950760320E+02 0.  0.
        -13    1    3    3    0    0 -0.48539866770E+02  0.15624796057E+02 -0.10181951812E+02  0.51999279424E+02  0.00000000000E+00 0.  1.
         13    1    3    3    0    0  0.32514042433E+02  0.99454201253E+01  0.29902572773E+02  0.45279556041E+02  0.00000000000E+00 0. -1.
        -13    1    4    4    0    0 -0.47059916044E+02  0.25318653158E+02 -0.36676361049E+02  0.64813774428E+02  0.00000000000E+00 0.  1.
         13    1    4    4    0    0  0.26674104996E+02 -0.29673682792E+02 -0.66987850910E+02  0.77970555323E+02  0.00000000000E+00 0. -1.
         -4    1    1    2    0  502  0.36411635386E+02 -0.21215186548E+02 -0.28978474013E+03  0.29283286520E+03  0.00000000000E+00 0.  1.
<scales pt_clust_5="13000.00000" pt_clust_6="13000.00000" pt_clust_7="13000.00000" pt_clust_8="13000.00000" pt_clust_9="42.14133"></scales>
<clustering>
<clus scale="   42.141">  2  9  1 -1</clus>
<clus scale="   90.353">  5  6 -1 -1</clus>
<clus scale="   92.935">  1  5  2 -1</clus>
<clus scale="   95.951">  7  8 -1 -1</clus>
<clus scale="   42.141">  2  5  1 -1</clus>
</clustering>
</event>
<event>
 9    1  0.1671478E-005  0.1179789E+03  0.7546771E-02  0.1247145E+00
         -2   -1    0    0    0  501 -0.00000000000E+00  0.00000000000E+00  0.69343599530E+03  0.69343599530E+03  0.00000000000E+00 0.  1.
         21   -1    0    0  501  502  0.00000000000E+00 -0.00000000000E+00 -0.25595701221E+02  0.25595701221E+02  0.00000000000E+00 0.  1.
         23    2    1    2    0    0 -0.40338204366E+02  0.53535214020E+02  0.34559799976E+03  0.36303693011E+03  0.88682835525E+02 0.  0.
         23    2    1    2    0    0  0.44311791075E+02 -0.77110071471E+02  0.27926432614E+03  0.30681480052E+03  0.90759352236E+02 0.  0.
        -11    1    4    4    0    0  0.28085034833E+02 -0.56988335482E+02  0.27289397114E+03  0.28019200390E+03  0.00000000000E+00 0.  1.
         11    1    4    4    0    0  0.16226756242E+02 -0.20121735990E+02  0.63703549909E+01  0.26622796624E+02  0.00000000000E+00 0. -1.
        -13    1    3    3    0    0 -0.20815808988E+02  0.76682196799E+02  0.27426841859E+03  0.28554618303E+03  0.00000000000E+00 0. -1.
         13    1    3    3    0    0 -0.19522395378E+02 -0.23146982779E+02  0.71329581171E+02  0.77490747080E+02  0.00000000000E+00 0.  1.
         -2    1    1    2    0  502 -0.39735867088E+01  0.23574857451E+02  0.42977968187E+02  0.49179965887E+02  0.00000000000E+00 0.  1.
<scales pt_clust_5="13000.00000" pt_clust_6="13000.00000" pt_clust_7="13000.00000" pt_clust_8="13000.00000" pt_clust_9="23.90739"></scales>
<clustering>
<clus scale="   23.907">  2  9  1 -1</clus>
<clus scale="   88.683">  7  8 -1 -1</clus>
<clus scale="   90.759">  5  6 -1 -1</clus>
<clus scale="  116.389">  1  7  2 -1</clus>
<clus scale="   23.907">  2  5  1 -1</clus>
</clustering>
</event>
<event>
 9    1  0.1671478E-005  0.9661063E+02  0.7546771E-02  0.1287771E+00
         21   -1    0    0  501  502  0.00000000000E+00  0.00000000000E+00  0.25953558455E+03  0.25953558455E+03  0.00000000000E+00 0.  1.
         -1   -1    0    0    0  501 -0.00000000000E+00 -0.00000000000E+00 -0.82083760938E+02  0.82083760938E+02  0.00000000000E+00 0.  1.
         23    2    1    2    0    0  0.18520551067E+02  0.36064756736E+01  0.45387799564E+01  0.94830017509E+02  0.92823026339E+02 0.  0.
         23    2    1    2    0    0 -0.35019303781E+02  0.12887950735E+02  0.34047083181E+02  0.10597729042E+03  0.93164002166E+02 0.  0.
        -11    1    4    4    0    0  0.25332209316E+02  0.21324856848E+02  0.30365012920E+02  0.44927768229E+02  0.00000000000E+00 0. -1.
         11    1    4    4    0    0 -0.60351513098E+02 -0.84369061133E+01  0.36820702609E+01  0.61049522188E+02  0.00000000000E+00 0.  1.
        -13    1    3    3    0    0  0.18815440593E+02 -0.25070956402E+02  0.38974562515E+02  0.50015899301E+02  0.00000000000E+00 0. -1.
         13    1    3    3    0    0 -0.29488952606E+00  0.28677432076E+02 -0.34435782559E+02  0.44814118208E+02  0.00000000000E+00 0.  1.
         -1    1    1    2    0  502  0.16498752714E+02 -0.16494426408E+02  0.13886596047E+03  0.14081203756E+03  0.00000000000E+00 0.  1.
<scales pt_clust_5="13000.00000" pt_clust_6="13000.00000" pt_clust_7="13000.00000" pt_clust_8="13000.00000" pt_clust_9="23.32970"></scales>
<clustering>
<clus scale="   23.330">  1  9  2 -1</clus>
<clus scale="   92.823">  7  8 -1 -1</clus>
<clus scale="   93.164">  5  6 -1 -1</clus>
<clus scale="   96.282">  2  7  1 -1</clus>
<clus scale="   23.330">  1  5  2 -1</clus>
</clustering>
</event>
<event>
 9    1  0.1906974E-005  0.1018873E+03  0.7546771E-02  0.1276887E+00
          1   -1    0    0  502    0 -0.00000000000E+00  0.00000000000E+00  0.33779669702E+03  0.33779669702E+03  0.00000000000E+00 0. -1.
         21   -1    0    0  501  502  0.00000000000E+00 -0.00000000000E+00 -0.15653947264E+03  0.15653947264E+03  0.00000000000E+00 0. -1.
         23    2    1    2    0    0 -0.43635825932E+02 -0.30622350632E+02  0.24510130659E+03  0.26727747064E+03  0.92308082846E+02 0.  0.
         23    2    1    2    0    0  0.90955626596E+01 -0.65761883821E+02 -0.15267747252E+02  0.11373345577E+03  0.91076013485E+02 0.  0.
        -11    1    4    4    0    0  0.24732968972E+02  0.14665346588E+02 -0.13538724623E+02  0.31781900653E+02  0.00000000000E+00 0.  1.
         11    1    4    4    0    0 -0.15637406313E+02 -0.80427230409E+02 -0.17290226293E+01  0.81951555120E+02  0.00000000000E+00 0. -1.
        -13    1    3    3    0    0 -0.52059765411E+02  0.19378510998E+02  0.11744022529E+03  0.12991517379E+03  0.00000000000E+00 0.  1.
         13    1    3    3    0    0  0.84239394783E+01 -0.50000861630E+02  0.12766108129E+03  0.13736229685E+03  0.00000000000E+00 0. -1.
          1    1    1    2  501    0  0.34540263273E+02  0.96384234453E+02 -0.48576334959E+02  0.11332524324E+03  0.00000000000E+00 0. -1.
<scales pt_clust_5="13000.00000" pt_clust_6="13000.00000" pt_clust_7="13000.00000" pt_clust_8="13000.00000" pt_clust_9="102.38628"></scales>
<clustering>
<clus scale="   91.076">  5  6 -1 -1</clus>
<clus scale="   92.308">  7  8 -1 -1</clus>
<clus scale="  102.386">  2  9  1 -1</clus>
<clus scale="  102.386">  2  5  1 -1</clus>
<clus scale="  101.887">  2  5  1 -1</clus>
</clustering>
</event>
<event>
 9    1  0.1671478E-005  0.1055959E+03  0.7546771E-02  0.1271222E+00
         -4   -1    0    0    0  501 -0.00000000000E+00  0.00000000000E+00  0.19032837853E+03  0.19032837853E+03  0.00000000000E+00 0.  1.
         21   -1    0    0  501  502  0.00000000000E+00 -0.00000000000E+00 -0.19426157881E+03  0.19426157881E+03  0.00000000000E+00 0. -1.
         23    2    1    2    0    0  0.17902164003E+02  0.36733358552E+02  0.84316819391E+02  0.13344521753E+03  0.95018276890E+02 0.  0.
         23    2    1    2    0    0 -0.15405094988E+01 -0.85604528138E+02 -0.13366794984E+03  0.18245061098E+03  0.89947741637E+02 0.  0.
        -11    1    3    3    0    0 -0.24122234256E+02  0.15463786589E+02  0.81353215145E+02  0.86251704305E+02  0.00000000000E+00 0.  1.
         11    1    3    3    0    0  0.42024398258E+02  0.21269571963E+02  0.29636042460E+01  0.47193513226E+02  0.00000000000E+00 0. -1.
        -11    1    4    4    0    0  0.25245752090E+02 -0.89851983496E+02 -0.82625569383E+02  0.12465035761E+03  0.00000000000E+00 0. -1.
         11    1    4    4    0    0 -0.26786261588E+02  0.42474553575E+01 -0.51042380458E+02  0.57800253370E+02  0.00000000000E+00 0.  1.
         -4    1    1    2    0  502 -0.16361654504E+02  0.48871169586E+02  0.45417930169E+02  0.68694128829E+02  0.00000000000E+00 0.  1.
<scales pt_clust_5="13000.00000" pt_clust_6="13000.00000" pt_clust_7="13000.00000" pt_clust_8="13000.00000" pt_clust_9="51.53734"></scales>
<clustering>
<clus scale="   51.537">  2  9  1 -1</clus>
<clus scale="   89.948">  7  8 -1 -1</clus>
<clus scale="   95.018">  5  6 -1 -1</clus>
<clus scale="  101.057">  2  7  1 -1</clus>
<clus scale="   51.537">  2  5  1 -1</clus>
</clustering>
</event>
<event>
 9    1  0.1671478E-005  0.9384191E+02  0.7546771E-02  0.1294156E+00
          1   -1    0    0  502    0 -0.00000000000E+00  0.00000000000E+00  0.37387095411E+03  0.37387095411E+03  0.00000000000E+00 0. -1.
         21   -1    0    0  501  502  0.00000000000E+00 -0.00000000000E+00 -0.34562239662E+03  0.34562239662E+03  0.00000000000E+00 0. -1.
         23    2    1    2    0    0 -0.15933533945E+02 -0.21921989807E+01  0.32247148637E+03  0.33561056547E+03  0.91585527724E+02 0.  0.
         23    2    1    2    0    0  0.19125306604E+02  0.93055887927E+02 -0.89288518722E+02  0.15968530568E+03  0.92205106390E+02 0.  0.
        -11    1    4    4    0    0  0.51868813859E+02  0.52191321401E+02 -0.75737351458E+02  0.10559571150E+03  0.00000000000E+00 0.  1.
         11    1    4    4    0    0 -0.32743507256E+02  0.40864566526E+02 -0.13551167263E+02  0.54089594183E+02  0.00000000000E+00 0. -1.
        -11    1    3    3    0    0 -0.47444570988E+02 -0.34935147657E+01  0.27175690071E+03  0.27588947977E+03  0.00000000000E+00 0. -1.
         11    1    3    3    0    0  0.31511037043E+02  0.13013157851E+01  0.50714585660E+02  0.59721085698E+02  0.00000000000E+00 0.  1.
          1    1    1    2  501    0 -0.31917726585E+01 -0.90863688946E+02 -0.20493441016E+03  0.22419747958E+03  0.00000000000E+00 0. -1.
<scales pt_clust_5="13000.00000" pt_clust_6="13000.00000" pt_clust_7="13000.00000" pt_clust_8="13000.00000" pt_clust_9="90.91973"></scales>
<clustering>
<clus scale="   90.920">  2  9  1 -1</clus>
<clus scale="   91.586">  7  8 -1 -1</clus>
<clus scale="   92.205">  5  6 -1 -1</clus>
<clus scale="   93.233">  1  7  2 -1</clus>
<clus scale="   90.920">  2  5  1 -1</clus>
</clustering>
</event>
<event>
 9    1  0.1671478E-005  0.1271958E+03  0.7546771E-02  0.1233295E+00
          1   -1    0    0  502    0 -0.00000000000E+00  0.00000000000E+00  0.67172721870E+03  0.67172721870E+03  0.00000000000E+00 0. -1.
         21   -1    0    0  501  502  0.00000000000E+00 -0.00000000000E+00 -0.10591574385E+03  0.10591574385E+03  0.00000000000E+00 0. -1.
         23    2    1    2    0    0  0.31385819752E+02  0.97087153488E+02  0.31024478674E+03  0.33788879203E+03  0.86637307368E+02 0.  0.
         23    2    1    2    0    0 -0.10957694602E+03 -0.25497537074E+02  0.29567021328E+03  0.32640860097E+03  0.80401917090E+02 0.  0.
        -13    1    4    4    0    0 -0.20496167969E+02  0.19528527203E+02  0.24456184556E+02  0.37410710220E+02  0.00000000000E+00 0.  1.
         13    1    4    4    0    0 -0.89080778047E+02 -0.45026064278E+02  0.27121402872E+03  0.28899789075E+03  0.00000000000E+00 0. -1.
        -13    1    3    3    0    0 -0.12266493382E+02  0.67138066123E+02  0.24245391682E+03  0.25187673288E+03  0.00000000000E+00 0. -1.
         13    1    3    3    0    0  0.43652313133E+02  0.29949087365E+02  0.67790869919E+02  0.86012059156E+02  0.00000000000E+00 0.  1.
          1    1    1    2  501    0  0.78191126264E+02 -0.71589616414E+02 -0.40103525175E+02  0.11334556955E+03  0.00000000000E+00 0. -1.
<scales pt_clust_5="13000.00000" pt_clust_6="13000.00000" pt_clust_7="13000.00000" pt_clust_8="13000.00000" pt_clust_9="106.01380"></scales>
<clustering>
<clus scale="   80.402">  5  6 -1 -1</clus>
<clus scale="   86.637">  7  8 -1 -1</clus>
<clus scale="  106.014">  2  9  1 -1</clus>
<clus scale="  123.033">  2  5  1 -1</clus>
<clus scale="  106.014">  2  5  1 -1</clus>
</clustering>
</event>
<event>
 9    1  0.1671478E-005  0.9208503E+02  0.7546771E-02  0.1299429E+00
         -1   -1    0    0    0  501 -0.00000000000E+00  0.00000000000E+00  0.53100779798E+03  0.53100779798E+03  0.00000000000E+00 0.  1.
         21   -1    0    0  501  502  0.00000000000E+00 -0.00000000000E+00 -0.39470678228E+02  0.39470678228E+02  0.00000000000E+00 0. -1.
         23    2    1    2    0    0 -0.11308252402E+02 -0.10763962617E+02  0.30169475984E+03  0.31555248542E+03  0.91158671979E+02 0.  0.
         23    2    1    2    0    0  0.12671567177E+02 -0.31617079246E+02  0.19017674977E+03  0.21252170854E+03  0.88532887301E+02 0.  0.
        -11    1    4    4    0    0 -0.33777733995E+02 -0.34259178336E+02  0.89372301166E+02  0.10149894004E+03  0.00000000000E+00 0. -1.
         11    1    4    4    0    0  0.46449301172E+02  0.26420990896E+01  0.10080444861E+03  0.11102276850E+03  0.00000000000E+00 0.  1.
        -13    1    3    3    0    0 -0.40347495319E+02  0.20044812975E+02  0.10340357521E+03  0.11279190694E+03  0.00000000000E+00 0. -1.
         13    1    3    3    0    0  0.29039242917E+02 -0.30808775593E+02  0.19829118463E+03  0.20276057847E+03  0.00000000000E+00 0.  1.
         -1    1    1    2    0  502 -0.13633147754E+01  0.42381041864E+02 -0.33438985079E+00  0.42404282251E+02  0.00000000000E+00 0.  1.
<scales pt_clust_5="13000.00000" pt_clust_6="13000.00000" pt_clust_7="13000.00000" pt_clust_8="13000.00000" pt_clust_9="42.40296"></scales>
<clustering>
<clus scale="   42.403">  2  9  1 -1</clus>
<clus scale="   88.533">  5  6 -1 -1</clus>
<clus scale="   89.486">  2  5  1 -1</clus>
<clus scale="   91.159">  7  8 -1 -1</clus>
<clus scale="   42.403">  2  5  1 -1</clus>
</clustering>
</event>
<event>
 9    1  0.1671478E-005  0.1240364E+03  0.7546771E-02  0.1238339E+00
         -1   -1    0    0    0  501 -0.00000000000E+00  0.00000000000E+00  0.22204117144E+03  0.22204117144E+03  0.00000000000E+00 0.  1.
         21   -1    0    0  501  502  0.00000000000E+00 -0.00000000000E+00 -0.86857484259E+02  0.86857484259E+02  0.00000000000E+00 0.  1.
         23    2    1    2    0    0  0.75715883320E+02  0.57108139406E+02  0.90041923463E+02  0.16122937533E+03  0.94303387606E+02 0.  0.
         23    2    1    2    0    0 -0.53969423639E+02 -0.34918774188E+02  0.32189286188E+02  0.11400857462E+03  0.88486074971E+02 0.  0.
        -11    1    3    3    0    0  0.34606241130E+02 -0.19691669645E+02  0.53679049361E+02  0.66834079023E+02  0.00000000000E+00 0. -1.
         11    1    3    3    0    0  0.41109642191E+02  0.76799809051E+02  0.36362874102E+02  0.94395296304E+02  0.00000000000E+00 0.  1.
        -13    1    4    4    0    0 -0.72095600327E+02 -0.48270267087E+02  0.23624152857E+02  0.89921604019E+02  0.00000000000E+00 0. -1.
         13    1    4    4    0    0  0.18126176688E+02  0.13351492898E+02  0.85651333306E+01  0.24086970605E+02  0.00000000000E+00 0.  1.
         -1    1    1    2    0  502 -0.21746459682E+02 -0.22189365218E+02  0.12952477533E+02  0.33660705752E+02  0.00000000000E+00 0.  1.
<scales pt_clust_5="13000.00000" pt_clust_6="13000.00000" pt_clust_7="13000.00000" pt_clust_8="13000.00000" pt_clust_9="31.06890"></scales>
<clustering>
<clus scale="   31.069">  2  9  1 -1</clus>
<clus scale="   88.486">  7  8 -1 -1</clus>
<clus scale="   94.303">  5  6 -1 -1</clus>
<clus scale="  119.673">  2  7  1 -1</clus>
<clus scale="   31.069">  2  5  1 -1</clus>
</clustering>
</event>
<event>
 9    1  0.1671478E-005  0.9436074E+02  0.7546771E-02  0.1293447E+00
          2   -1    0    0  502    0 -0.00000000000E+00  0.00000000000E+00  0.61917929963E+03  0.61917929963E+03  0.00000000000E+00 0. -1.
         21   -1    0    0  501  502  0.00000000000E+00 -0.00000000000E+00 -0.94813206334E+02  0.94813206334E+02  0.00000000000E+00 0.  1.
         23    2    1    2    0    0 -0.21777284423E+02 -0.53657910830E+01  0.49109264366E+03  0.49987673227E+03  0.90563353419E+02 0.  0.
         23    2    1    2    0    0  0.71669524891E+02  0.63338759998E+02 -0.34184899759E-01  0.13069216011E+03  0.89062451291E+02 0.  0.
        -11    1    3    3    0    0 -0.27854440516E+02 -0.44876291912E+02  0.25341329000E+03  0.25885912574E+03  0.00000000000E+00 0. -1.
         11    1    3    3    0    0  0.60771560933E+01  0.39510500829E+02  0.23767935366E+03  0.24101760653E+03  0.00000000000E+00 0.  1.
        -13    1    4    4    0    0 -0.18601773759E+02  0.75668066694E+01  0.12790998522E+02  0.23809497965E+02  0.00000000000E+00 0. -1.
         13    1    4    4    0    0  0.90271298649E+02  0.55771953329E+02 -0.12825183422E+02  0.10688266215E+03  0.00000000000E+00 0.  1.
          2    1    1    2  501    0 -0.49892240468E+02 -0.57972968915E+02  0.33307634537E+02  0.83423613577E+02  0.00000000000E+00 0. -1.
<scales pt_clust_5="13000.00000" pt_clust_6="13000.00000" pt_clust_7="13000.00000" pt_clust_8="13000.00000" pt_clust_9="76.48595"></scales>
<clustering>
<clus scale="   76.486">  2  9  1 -1</clus>
<clus scale="   89.062">  7  8 -1 -1</clus>
<clus scale="   90.563">  5  6 -1 -1</clus>
<clus scale="   92.921">  2  7  1 -1</clus>
<clus scale="   76.486">  2  5  1 -1</clus>
</clustering>
</event>
<event>
 9    1  0.1671478E-005  0.1375519E+03  0.7546771E-02  0.1216801E+00
         21   -1    0    0  501  502  0.00000000000E+00  0.00000000000E+00  0.16367614893E+03  0.16367614893E+03  0.00000000000E+00 0.  1.
          1   -1    0    0  502    0 -0.00000000000E+00 -0.00000000000E+00 -0.14265573049E+03  0.14265573049E+03  0.00000000000E+00 0. -1.
         23    2    1    2    0    0  0.73953485616E+02 -0.81957249803E+02 -0.29789532078E+02  0.14566431515E+03  0.90247258438E+02 0.  0.
         23    2    1    2    0    0 -0.69339408299E+02  0.60588589883E+02  0.50311338035E+02  0.13880074122E+03  0.90859695466E+02 0.  0.
        -11    1    3    3    0    0  0.42124880640E+02 -0.86563920725E+02  0.73331297504E+01  0.96548395803E+02  0.00000000000E+00 0.  1.
         11    1    3    3    0    0  0.31828604975E+02  0.46066709222E+01 -0.37122661829E+02  0.49115919343E+02  0.00000000000E+00 0. -1.
        -13    1    4    4    0    0 -0.22692141860E+02  0.76670701754E+02  0.29026209227E+02  0.85063803299E+02  0.00000000000E+00 0. -1.
         13    1    4    4    0    0 -0.46647266439E+02 -0.16082111871E+02  0.21285128808E+02  0.53736937918E+02  0.00000000000E+00 0.  1.
          1    1    1    2  501    0 -0.46140773169E+01  0.21368659920E+02  0.49861248206E+00  0.21866823058E+02  0.00000000000E+00 0. -1.
<scales pt_clust_5="13000.00000" pt_clust_6="13000.00000" pt_clust_7="13000.00000" pt_clust_8="13000.00000" pt_clust_9="21.86115"></scales>
<clustering>
<clus scale="   21.861">  1  9  2 -1</clus>
<clus scale="   90.247">  5  6 -1 -1</clus>
<clus scale="   90.860">  7  8 -1 -1</clus>
<clus scale="  137.148">  2  5  1 -1</clus>
<clus scale="   21.861">  1  5  2 -1</clus>
</clustering>
</event>
<event>
 9    1  0.1671478E-005  0.1329377E+03  0.7546771E-02  0.1224441E+00
         21   -1    0    0  501  502  0.00000000000E+00  0.00000000000E+00  0.53695598193E+03  0.53695598193E+03  0.00000000000E+00 0. -1.
          3   -1    0    0  502    0 -0.00000000000E+00 -0.00000000000E+00 -0.36724285326E+03  0.36724285326E+03  0.00000000000E+00 0. -1.
         23    2    1    2    0    0  0.37695395767E+02 -0.80367808179E+02 -0.18755717162E+03  0.22883685759E+03  0.96481538702E+02 0.  0.
         23    2    1    2    0    0  0.84083140828E+02  0.11756033652E+03 -0.10170118641E+03  0.19905522587E+03  0.91593909920E+02 0.  0.
        -13    1    4    4    0    0  0.68977909542E+02  0.25514751450E+02 -0.67135847483E+02  0.99580000822E+02  0.00000000000E+00 0. -1.
         13    1    4    4    0    0  0.15105231285E+02  0.92045585071E+02 -0.34565338930E+02  0.99475225049E+02  0.00000000000E+00 0.  1.
        -13    1    3    3    0    0  0.53215944859E+02 -0.42463047485E+01 -0.78907406411E+02  0.95269862379E+02  0.00000000000E+00 0. -1.
         13    1    3    3    0    0 -0.15520549092E+02 -0.76121503431E+02 -0.10864976521E+03  0.13356699521E+03  0.00000000000E+00 0.  1.
          3    1    1    2  501    0 -0.12177853660E+03 -0.37192528343E+02  0.45897148670E+03  0.47630675173E+03  0.00000000000E+00 0. -1.
<scales pt_clust_5="13000.00000" pt_clust_6="13000.00000" pt_clust_7="13000.00000" pt_clust_8="13000.00000" pt_clust_9="127.33144"></scales>
<clustering>
<clus scale="   91.594">  5  6 -1 -1</clus>
<clus scale="   96.482">  7  8 -1 -1</clus>
<clus scale="  127.331">  1  9  2 -1</clus>
<clus scale="  129.434">  1  5  2 -1</clus>
<clus scale="  127.331">  1  5  2 -1</clus>
</clustering>
</event>
<event>
 9    1  0.1671478E-005  0.3245029E+03  0.7546771E-02  0.1112442E+00
          2   -1    0    0  502    0 -0.00000000000E+00  0.00000000000E+00  0.44094401771E+03  0.44094401771E+03  0.00000000000E+00 0. -1.
         21   -1    0    0  501  502  0.00000000000E+00 -0.00000000000E+00 -0.52341151853E+03  0.52341151853E+03  0.00000000000E+00 0. -1.
         23    2    1    2    0    0 -0.22044684295E+02 -0.68842923294E+02  0.21306744583E+03  0.24300206519E+03  0.91798426030E+02 0.  0.
         23    2    1    2    0    0 -0.29637382552E+03  0.83095315939E+02 -0.23000131851E+03  0.39594890054E+03  0.95564895956E+02 0.  0.
        -11    1    4    4    0    0 -0.13345454274E+03  0.86059713993E+02 -0.10192706956E+03  0.18869424172E+03  0.00000000000E+00 0. -1.
         11    1    4    4    0    0 -0.16291928278E+03 -0.29643980540E+01 -0.12807424896E+03  0.20725465882E+03  0.00000000000E+00 0.  1.
        -11    1    3    3    0    0  0.35166718636E+02 -0.37282432276E+02  0.85789595457E+02  0.99932640037E+02  0.00000000000E+00 0. -1.
         11    1    3    3    0    0 -0.57211402931E+02 -0.31560491018E+02  0.12727785037E+03  0.14306942515E+03  0.00000000000E+00 0.  1.
          2    1    1    2  501    0  0.31841850982E+03 -0.14252392645E+02 -0.65533628129E+02  0.32540457050E+03  0.00000000000E+00 0. -1.
<scales pt_clust_5="13000.00000" pt_clust_6="13000.00000" pt_clust_7="13000.00000" pt_clust_8="13000.00000" pt_clust_9="310.11225"></scales>
<clustering>
<clus scale="   91.798">  7  8 -1 -1</clus>
<clus scale="   95.565">  5  6 -1 -1</clus>
<clus scale="  116.843">  1  7  2 -1</clus>
<clus scale="  310.112">  2  9  1 -1</clus>
<clus scale="  310.112">  2  5  1 -1</clus>
</clustering>
</event>
<event>
 9    1  0.1671478E-005  0.1251686E+03  0.7546771E-02  0.1235038E+00
          2   -1    0    0  502    0 -0.00000000000E+00  0.00000000000E+00  0.20557418157E+03  0.20557418157E+03  0.00000000000E+00 0. -1.
         21   -1    0    0  501  502  0.00000000000E+00 -0.00000000000E+00 -0.10205335872E+03  0.10205335872E+03  0.00000000000E+00 0.  1.
         23    2    1    2    0    0  0.26231094910E+02  0.97765503006E+02  0.68441823173E+02  0.15226504688E+03  0.90852613743E+02 0.  0.
         23    2    1    2    0    0 -0.44523414118E+01 -0.68016648266E+02  0.22638839493E+02  0.11645149179E+03  0.91664306583E+02 0.  0.
        -11    1    4    4    0    0 -0.44768965377E+02 -0.47974108177E+02 -0.94458329183E+00  0.65625205172E+02  0.00000000000E+00 0.  1.
         11    1    4    4    0    0  0.40316623966E+02 -0.20042540090E+02  0.23583422785E+02  0.50826286619E+02  0.00000000000E+00 0. -1.
        -11    1    3    3    0    0  0.42210141159E+02  0.11638117109E+02  0.42226138247E+02  0.60829175054E+02  0.00000000000E+00 0. -1.
         11    1    3    3    0    0 -0.15979046249E+02  0.86127385897E+02  0.26215684926E+02  0.91435871826E+02  0.00000000000E+00 0.  1.
          2    1    1    2  501    0 -0.21778753498E+02 -0.29748854740E+02  0.12440160184E+02  0.38911001628E+02  0.00000000000E+00 0. -1.
<scales pt_clust_5="13000.00000" pt_clust_6="13000.00000" pt_clust_7="13000.00000" pt_clust_8="13000.00000" pt_clust_9="36.86880"></scales>
<clustering>
<clus scale="   36.869">  2  9  1 -1</clus>
<clus scale="   90.853">  7  8 -1 -1</clus>
<clus scale="   91.664">  5  6 -1 -1</clus>
<clus scale="  124.575">  1  7  2 -1</clus>
<clus scale="   36.869">  2  5  1 -1</clus>
</clustering>
</event>
<event>
 9    1  0.1671478E-005  0.1543624E+03  0.7546771E-02  0.1195756E+00
          2   -1    0    0  502    0 -0.00000000000E+00  0.00000000000E+00  0.22819195017E+03  0.22819195017E+03  0.00000000000E+00 0. -1.
         21   -1    0    0  501  502  0.00000000000E+00 -0.00000000000E+00 -0.28694228001E+03  0.28694228001E+03  0.00000000000E+00 0.  1.
         23    2    1    2    0    0  0.72551226794E+02  0.92790649737E+02  0.14144964278E+03  0.20631736823E+03  0.93193721910E+02 0.  0.
         23    2    1    2    0    0 -0.10531689146E+03 -0.10338092624E+03 -0.93267467877E+02  0.19647673863E+03  0.90138919015E+02 0.  0.
        -11    1    4    4    0    0 -0.57695421422E+02 -0.46124342702E+01 -0.56348717258E+02  0.80778797587E+02  0.00000000000E+00 0. -1.
         11    1    4    4    0    0 -0.47621470038E+02 -0.98768491965E+02 -0.36918750619E+02  0.11569794104E+03  0.00000000000E+00 0.  1.
        -11    1    3    3    0    0  0.15683336351E+02  0.34226567718E+02 -0.56647104287E+01  0.38072482465E+02  0.00000000000E+00 0.  1.
         11    1    3    3    0    0  0.56867890443E+02  0.58564082020E+02  0.14711435321E+03  0.16824488577E+03  0.00000000000E+00 0. -1.
          2    1    1    2  501    0  0.32765664667E+02  0.10590276498E+02 -0.10693250474E+03  0.11234012332E+03  0.00000000000E+00 0. -1.
<scales pt_clust_5="13000.00000" pt_clust_6="13000.00000" pt_clust_7="13000.00000" pt_clust_8="13000.00000" pt_clust_9="34.43462"></scales>
<clustering>
<clus scale="   34.435">  2  9  1 -1</clus>
<clus scale="   90.139">  5  6 -1 -1</clus>
<clus scale="   93.194">  7  8 -1 -1</clus>
<clus scale="  152.538">  2  5  1 -1</clus>
<clus scale="   34.435">  2  5  1 -1</clus>
</clustering>
</event>
<event>
 9    1  0.1671478E-005  0.9427673E+02  0.7546771E-02  0.1293285E+00
         21   -1    0    0  501  502  0.00000000000E+00  0.00000000000E+00  0.96117838708E+02  0.96117838708E+02  0.00000000000E+00 0.  1.
          1   -1    0    0  502    0 -0.00000000000E+00 -0.00000000000E+00 -0.12920616056E+03  0.12920616056E+03  0.00000000000E+00 0. -1.
         23    2    1    2    0    0 -0.22527613372E+00 -0.29649315678E+02 -0.51734012975E+02  0.10910969767E+03  0.91374971183E+02 0.  0.
         23    2    1    2    0    0 -0.11757095222E+02  0.10447420805E+02  0.12233756801E+02  0.92689784776E+02  0.90522668469E+02 0.  0.
        -13    1    4    4    0    0  0.33960650097E+02  0.26548222950E+02  0.95136752834E+01  0.44143447013E+02  0.00000000000E+00 0.  1.
         13    1    4    4    0    0 -0.45717745318E+02 -0.16100802145E+02  0.27200815177E+01  0.48546337763E+02  0.00000000000E+00 0. -1.
        -13    1    3    3    0    0 -0.27590285021E+02  0.20777800860E+02 -0.35395802937E+02  0.49455067502E+02  0.00000000000E+00 0.  1.
         13    1    3    3    0    0  0.27365008887E+02 -0.50427116538E+02 -0.16338210039E+02  0.59654630173E+02  0.00000000000E+00 0. -1.
          1    1    1    2  501    0  0.11982371355E+02  0.19201894873E+02  0.64119343182E+01  0.23524516822E+02  0.00000000000E+00 0. -1.
<scales pt_clust_5="13000.00000" pt_clust_6="13000.00000" pt_clust_7="13000.00000" pt_clust_8="13000.00000" pt_clust_9="22.63382"></scales>
<clustering>
<clus scale="   22.634">  1  9  2 -1</clus>
<clus scale="   90.523">  5  6 -1 -1</clus>
<clus scale="   91.375">  7  8 -1 -1</clus>
<clus scale="   93.451">  1  5  2 -1</clus>
<clus scale="   22.634">  1  5  2 -1</clus>
</clustering>
</event>
<event>
 9    1  0.1671478E-005  0.9532614E+02  0.7546771E-02  0.1291899E+00
         21   -1    0    0  501  502  0.00000000000E+00  0.00000000000E+00  0.70565796155E+02  0.70565796155E+02  0.00000000000E+00 0. -1.
          1   -1    0    0  502    0 -0.00000000000E+00 -0.00000000000E+00 -0.21097676117E+03  0.21097676117E+03  0.00000000000E+00 0. -1.
         23    2    1    2    0    0  0.13059147089E+02 -0.30029475173E+01 -0.89177847114E+02  0.12935241956E+03  0.92735112084E+02 0.  0.
         23    2    1    2    0    0  0.11301404302E+02 -0.51638765606E+00 -0.72011507979E+02  0.11997890248E+03  0.95295809794E+02 0.  0.
        -11    1    3    3    0    0  0.15979522291E+02 -0.41725051795E+02 -0.76338565579E+02  0.88452821744E+02  0.00000000000E+00 0. -1.
         11    1    3    3    0    0 -0.29203752021E+01  0.38722104277E+02 -0.12839281535E+02  0.40899597814E+02  0.00000000000E+00 0.  1.
        -13    1    4    4    0    0  0.31146845137E+02 -0.36450783431E+02 -0.60790482709E+02  0.77422660524E+02  0.00000000000E+00 0. -1.
         13    1    4    4    0    0 -0.19845440834E+02  0.35934395774E+02 -0.11221025271E+02  0.42556241959E+02  0.00000000000E+00 0.  1.
          1    1    1    2  501    0 -0.24360551391E+02  0.35193351734E+01  0.20778390079E+02  0.32211235282E+02  0.00000000000E+00 0. -1.
<scales pt_clust_5="13000.00000" pt_clust_6="13000.00000" pt_clust_7="13000.00000" pt_clust_8="13000.00000" pt_clust_9="24.61346"></scales>
<clustering>
<clus scale="   24.613">  1  9  2 -1</clus>
<clus scale="   92.735">  5  6 -1 -1</clus>
<clus scale="   92.766">  2  5  1 -1</clus>
<clus scale="   95.296">  7  8 -1 -1</clus>
<clus scale="   24.613">  1  5  2 -1</clus>
</clustering>
</event>
<event>
 9    1  0.1671478E-005  0.1525404E+03  0.7546771E-02  0.1217348E+00
         21   -1    0    0  501  502  0.00000000000E+00  0.00000000000E+00  0.12826346003E+03  0.12826346003E+03  0.00000000000E+00 0.  1.
          1   -1    0    0  502    0 -0.00000000000E+00 -0.00000000000E+00 -0.33733454204E+03  0.33733454204E+03  0.00000000000E+00 0. -1.
         23    2    1    2    0    0  0.33120642686E+02  0.21773526481E+02  0.17230493882E+02  0.10088989815E+03  0.91163689055E+02 0.  0.
         23    2    1    2    0    0  0.87772799735E+02  0.28686820216E+02 -0.18446749110E+03  0.22718879015E+03  0.95181369337E+02 0.  0.
        -11    1    4    4    0    0 -0.11396766412E+02  0.25704342604E+02 -0.71548433764E+02  0.76875079755E+02  0.00000000000E+00 0. -1.
         11    1    4    4    0    0  0.99169566147E+02  0.29824776121E+01 -0.11291905734E+03  0.15031371040E+03  0.00000000000E+00 0.  1.
        -13    1    3    3    0    0 -0.28139359730E+02 -0.10488280536E+02  0.76929867774E+01  0.31000155486E+02  0.00000000000E+00 0. -1.
         13    1    3    3    0    0  0.61260002416E+02  0.32261807017E+02  0.95375071050E+01  0.69889742665E+02  0.00000000000E+00 0.  1.
          1    1    1    2  501    0 -0.12089344242E+03 -0.50460346696E+02 -0.41834084782E+02  0.13751931377E+03  0.00000000000E+00 0. -1.
<scales pt_clust_5="13000.00000" pt_clust_6="13000.00000" pt_clust_7="13000.00000" pt_clust_8="13000.00000" pt_clust_9="119.20188"></scales>
<clustering>
<clus scale="   91.164">  7  8 -1 -1</clus>
<clus scale="   95.181">  5  6 -1 -1</clus>
<clus scale="   99.408">  2  7  1 -1</clus>
<clus scale="  119.202">  1  9  2 -1</clus>
<clus scale="  119.202">  1  5  2 -1</clus>
</clustering>
</event>
<event>
 9    1  0.1671478E-005  0.2869793E+03  0.7546771E-02  0.1092162E+00
         -1   -1    0    0    0  501 -0.00000000000E+00  0.00000000000E+00  0.82298243085E+03  0.82298243085E+03  0.00000000000E+00 0.  1.
         21   -1    0    0  501  502  0.00000000000E+00 -0.00000000000E+00 -0.44455069222E+03  0.44455069222E+03  0.00000000000E+00 0. -1.
         23    2    1    2    0    0 -0.33591574826E+02 -0.27433374163E+03  0.69911912594E+03  0.75708360653E+03  0.89558022146E+02 0.  0.
         23    2    1    2    0    0  0.92866365494E+02  0.23631800688E+03 -0.11153785218E+03  0.28976371060E+03  0.83975909040E+02 0.  0.
        -11    1    4    4    0    0  0.83465584976E+02  0.10441622338E+03 -0.40621077039E+02  0.13971157246E+03  0.00000000000E+00 0.  1.
         11    1    4    4    0    0  0.94007805180E+01  0.13190178349E+03 -0.70916775140E+02  0.15005213814E+03  0.00000000000E+00 0. -1.
        -13    1    3    3    0    0 -0.63910048413E+02 -0.18996866292E+03  0.50215882660E+03  0.54068112073E+03  0.00000000000E+00 0.  1.
         13    1    3    3    0    0  0.30318473587E+02 -0.84365078717E+02  0.19696029933E+03  0.21640248580E+03  0.00000000000E+00 0. -1.
         -1    1    1    2    0  502 -0.59274790668E+02  0.38015734757E+02 -0.20914953513E+03  0.22068580594E+03  0.00000000000E+00 0.  1.
<scales pt_clust_5="13000.00000" pt_clust_6="13000.00000" pt_clust_7="13000.00000" pt_clust_8="13000.00000" pt_clust_9="70.41802"></scales>
<clustering>
<clus scale="   70.418">  2  9  1 -1</clus>
<clus scale="   83.976">  5  6 -1 -1</clus>
<clus scale="   89.558">  7  8 -1 -1</clus>
<clus scale="  285.287">  2  5  1 -1</clus>
<clus scale="   70.418">  2  5  1 -1</clus>
</clustering>
</event>
<event>
 9    1  0.1671478E-005  0.1180043E+03  0.7546771E-02  0.1250400E+00
         -1   -1    0    0    0  501 -0.00000000000E+00  0.00000000000E+00  0.49951087909E+03  0.49951087909E+03  0.00000000000E+00 0.  1.
         21   -1    0    0  501  502  0.00000000000E+00 -0.00000000000E+00 -0.65020723680E+02  0.65020723680E+02  0.00000000000E+00 0. -1.
         23    2    1    2    0    0 -0.58003237775E+02 -0.48705494904E+02  0.36372632349E+03  0.38265121190E+03  0.91588813429E+02 0.  0.
         23    2    1    2    0    0  0.22751726201E+02  0.77069517170E+02  0.76077710701E+02  0.13632356772E+03  0.79617495116E+02 0.  0.
        -11    1    4    4    0    0  0.26628545363E+01  0.28248625380E+02 -0.14210801185E+02  0.31733617828E+02  0.00000000000E+00 0.  1.
         11    1    4    4    0    0  0.20088871665E+02  0.48820891791E+02  0.90288511886E+02  0.10458994989E+03  0.00000000000E+00 0. -1.
        -13    1    3    3    0    0  0.94663964799E+00 -0.35079762069E+02  0.39538424825E+02  0.52865611423E+02  0.00000000000E+00 0. -1.
         13    1    3    3    0    0 -0.58949877423E+02 -0.13625732834E+02  0.32418789867E+03  0.32978560048E+03  0.00000000000E+00 0.  1.
         -1    1    1    2    0  502  0.35251511574E+02 -0.28364022266E+02 -0.53138787812E+01  0.45556823145E+02  0.00000000000E+00 0.  1.
<scales pt_clust_5="13000.00000" pt_clust_6="13000.00000" pt_clust_7="13000.00000" pt_clust_8="13000.00000" pt_clust_9="45.24585"></scales>
<clustering>
<clus scale="   45.246">  2  9  1 -1</clus>
<clus scale="   79.617">  5  6 -1 -1</clus>
<clus scale="   91.589">  7  8 -1 -1</clus>
<clus scale="  108.975">  2  5  1 -1</clus>
<clus scale="   45.246">  2  5  1 -1</clus>
</clustering>
</event>
<event>
 9    1  0.1671478E-005  0.1352761E+03  0.7546771E-02  0.1220323E+00
         21   -1    0    0  501  502  0.00000000000E+00  0.00000000000E+00  0.54494540408E+03  0.54494540408E+03  0.00000000000E+00 0. -1.
          4   -1    0    0  502    0 -0.00000000000E+00 -0.00000000000E+00 -0.56810707367E+02  0.56810707367E+02  0.00000000000E+00 0. -1.
         23    2    1    2    0    0  0.27756821856E+02 -0.11238293802E+03  0.11540768457E+03  0.18629930653E+03  0.89376350539E+02 0.  0.
         23    2    1    2    0    0 -0.57622622531E+02  0.64967300719E+02  0.21086492659E+03  0.24416890854E+03  0.87254351397E+02 0.  0.
        -11    1    4    4    0    0 -0.27742246450E+02  0.49057935948E+02  0.37887181622E+02  0.67909880347E+02  0.00000000000E+00 0.  1.
         11    1    4    4    0    0 -0.29880376081E+02  0.15909364771E+02  0.17297774497E+03  0.17625902819E+03  0.00000000000E+00 0. -1.
        -13    1    3    3    0    0 -0.28133056068E+02 -0.68969092002E+02  0.48335464923E+02  0.88794829042E+02  0.00000000000E+00 0. -1.
         13    1    3    3    0    0  0.55889877924E+02 -0.43413846020E+02  0.67072219651E+02  0.97504477485E+02  0.00000000000E+00 0.  1.
          4    1    1    2  501    0  0.29865800675E+02  0.47415637303E+02  0.16186208554E+03  0.17128789638E+03  0.00000000000E+00 0. -1.
<scales pt_clust_5="13000.00000" pt_clust_6="13000.00000" pt_clust_7="13000.00000" pt_clust_8="13000.00000" pt_clust_9="56.03757"></scales>
<clustering>
<clus scale="   56.038">  1  9  2 -1</clus>
<clus scale="   87.254">  5  6 -1 -1</clus>
<clus scale="   89.376">  7  8 -1 -1</clus>
<clus scale="  133.884">  1  5  2 -1</clus>
<clus scale="   56.038">  1  5  2 -1</clus>
</clustering>
</event>
<event>
 9    1  0.1671478E-005  0.1866862E+03  0.7546771E-02  0.1161606E+00
          2   -1    0    0  502    0 -0.00000000000E+00  0.00000000000E+00  0.12257418222E+04  0.12257418222E+04  0.00000000000E+00 0. -1.
         21   -1    0    0  501  502  0.00000000000E+00 -0.00000000000E+00 -0.68094318886E+02  0.68094318886E+02  0.00000000000E+00 0.  1.
         23    2    1    2    0    0 -0.12345492795E+03  0.10929430881E+03  0.96059866458E+03  0.97870594325E+03  0.89045852120E+02 0.  0.
         23    2    1    2    0    0  0.13386604602E+03 -0.87022164867E+02  0.21655142327E+03  0.28374882478E+03  0.90143780611E+02 0.  0.
        -13    1    3    3    0    0 -0.10266926043E+03  0.12468043146E+03  0.83269111303E+03  0.84821027862E+03  0.00000000000E+00 0. -1.
         13    1    3    3    0    0 -0.20785667521E+02 -0.15386122651E+02  0.12790755155E+03  0.13049566463E+03  0.00000000000E+00 0.  1.
        -13    1    4    4    0    0  0.49583129111E+02  0.60490143581E+01  0.10292915356E+03  0.11440929997E+03  0.00000000000E+00 0. -1.
         13    1    4    4    0    0  0.84282916913E+02 -0.93071179226E+02  0.11362226971E+03  0.16933952480E+03  0.00000000000E+00 0.  1.
          2    1    1    2  501    0 -0.10411118071E+02 -0.22272143943E+02 -0.19502584504E+02  0.31381373100E+02  0.00000000000E+00 0. -1.
<scales pt_clust_5="13000.00000" pt_clust_6="13000.00000" pt_clust_7="13000.00000" pt_clust_8="13000.00000" pt_clust_9="24.58536"></scales>
<clustering>
<clus scale="   24.585">  2  9  1 -1</clus>
<clus scale="   89.046">  5  6 -1 -1</clus>
<clus scale="   90.144">  7  8 -1 -1</clus>
<clus scale="  186.159">  1  5  2 -1</clus>
<clus scale="   24.585">  2  5  1 -1</clus>
</clustering>
</event>
<event>
 9    1  0.1671478E-005  0.1237736E+03  0.7546771E-02  0.1237566E+00
         21   -1    0    0  501  502  0.00000000000E+00  0.00000000000E+00  0.59997065683E+02  0.59997065683E+02  0.00000000000E+00 0. -1.
          2   -1    0    0  502    0 -0.00000000000E+00 -0.00000000000E+00 -0.45930500151E+03  0.45930500151E+03  0.00000000000E+00 0. -1.
         23    2    1    2    0    0  0.19394202372E+02 -0.79280686456E+02 -0.25367516976E+03  0.28103454447E+03  0.89262316255E+02 0.  0.
         23    2    1    2    0    0 -0.68145561546E+02  0.68725552328E+02 -0.13005514162E+03  0.18601076947E+03  0.91206619244E+02 0.  0.
        -11    1    4    4    0    0 -0.32124695829E+02  0.61982113204E+02 -0.24032264465E+02  0.73833110287E+02  0.00000000000E+00 0. -1.
         11    1    4    4    0    0 -0.36020865716E+02  0.67434391241E+01 -0.10602287716E+03  0.11217765918E+03  0.00000000000E+00 0.  1.
        -13    1    3    3    0    0  0.42978072454E+02 -0.12485758654E+02 -0.60303257217E+02  0.75096549268E+02  0.00000000000E+00 0.  1.
         13    1    3    3    0    0 -0.23583870082E+02 -0.66794927802E+02 -0.19337191254E+03  0.20593799520E+03  0.00000000000E+00 0. -1.
          2    1    1    2  501    0  0.48751359174E+02  0.10555134128E+02 -0.15577624450E+02  0.52256753260E+02  0.00000000000E+00 0. -1.
<scales pt_clust_5="13000.00000" pt_clust_6="13000.00000" pt_clust_7="13000.00000" pt_clust_8="13000.00000" pt_clust_9="49.88092"></scales>
<clustering>
<clus scale="   49.881">  1  9  2 -1</clus>
<clus scale="   89.262">  7  8 -1 -1</clus>
<clus scale="   91.207">  5  6 -1 -1</clus>
<clus scale="  122.348">  2  7  1 -1</clus>
<clus scale="   49.881">  1  5  2 -1</clus>
</clustering>
</event>
<event>
 9    1  0.1671478E-005  0.1423902E+03  0.7546771E-02  0.1216935E+00
         21   -1    0    0  501  502  0.00000000000E+00  0.00000000000E+00  0.70318617117E+03  0.70318617117E+03  0.00000000000E+00 0.  1.
          1   -1    0    0  502    0 -0.00000000000E+00 -0.00000000000E+00 -0.12708333216E+03  0.12708333216E+03  0.00000000000E+00 0. -1.
         23    2    1    2    0    0 -0.84698742447E+02 -0.25887782215E+02  0.66730391152E+02  0.14451176244E+03  0.92664179373E+02 0.  0.
         23    2    1    2    0    0  0.20658391162E+03  0.34743176574E+02  0.51936084471E+03  0.56314379166E+03  0.59255735626E+02 0.  0.
        -11    1    3    3    0    0 -0.50895391929E+02 -0.60703456651E+02  0.47131246159E+02  0.92177030401E+02  0.00000000000E+00 0.  1.
         11    1    3    3    0    0 -0.33803350518E+02  0.34815674436E+02  0.19599144993E+02  0.52334732035E+02  0.00000000000E+00 0. -1.
        -13    1    4    4    0    0  0.18855269785E+03  0.21680348313E+02  0.41365293275E+03  0.45511636550E+03  0.00000000000E+00 0.  1.
         13    1    4    4    0    0  0.18031213775E+02  0.13062828261E+02  0.10570791196E+03  0.10802742616E+03  0.00000000000E+00 0. -1.
          1    1    1    2  501    0 -0.12188516917E+03 -0.88553943591E+01 -0.99883968550E+01  0.12261394923E+03  0.00000000000E+00 0. -1.
<scales pt_clust_5="13000.00000" pt_clust_6="13000.00000" pt_clust_7="13000.00000" pt_clust_8="13000.00000" pt_clust_9="122.20649"></scales>
<clustering>
<clus scale="   59.256">  7  8 -1 -1</clus>
<clus scale="   92.664">  5  6 -1 -1</clus>
<clus scale="  122.206">  1  9  2 -1</clus>
<clus scale="  123.286">  1  7  2 -1</clus>
<clus scale="  122.206">  1  5  2 -1</clus>
</clustering>
</event>
<event>
 9    1  0.1671478E-005  0.9656551E+02  0.7546771E-02  0.1287778E+00
         21   -1    0    0  501  502  0.00000000000E+00  0.00000000000E+00  0.80196347581E+02  0.80196347581E+02  0.00000000000E+00 0.  1.
          1   -1    0    0  502    0 -0.00000000000E+00 -0.00000000000E+00 -0.17158361661E+03  0.17158361661E+03  0.00000000000E+00 0. -1.
         23    2    1    2    0    0 -0.20760967992E+02 -0.39628263538E+02 -0.51659797079E+02  0.11303196619E+03  0.90033736366E+02 0.  0.
         23    2    1    2    0    0  0.30721627377E+02  0.57902641523E+01 -0.39900720541E+02  0.10347399974E+03  0.90207846530E+02 0.  0.
        -11    1    3    3    0    0  0.65238247478E+01 -0.59206557069E+02 -0.11471350786E+02  0.60659447559E+02  0.00000000000E+00 0.  1.
         11    1    3    3    0    0 -0.27284792740E+02  0.19578293532E+02 -0.40188446293E+02  0.52372518633E+02  0.00000000000E+00 0. -1.
        -13    1    4    4    0    0 -0.22010296748E+02  0.93526772636E+00  0.15422057709E+02  0.26891778533E+02  0.00000000000E+00 0.  1.
         13    1    4    4    0    0  0.52731924125E+02  0.48549964259E+01 -0.55322778250E+02  0.76582221211E+02  0.00000000000E+00 0. -1.
          1    1    1    2  501    0 -0.99606593846E+01  0.33837999385E+02  0.17324859307E+00  0.35273998254E+02  0.00000000000E+00 0. -1.
<scales pt_clust_5="13000.00000" pt_clust_6="13000.00000" pt_clust_7="13000.00000" pt_clust_8="13000.00000" pt_clust_9="35.27357"></scales>
<clustering>
<clus scale="   35.274">  1  9  2 -1</clus>
<clus scale="   90.034">  5  6 -1 -1</clus>
<clus scale="   90.208">  7  8 -1 -1</clus>
<clus scale="   96.403">  2  5  1 -1</clus>
<clus scale="   35.274">  1  5  2 -1</clus>
</clustering>
</event>
<event>
 9    1  0.1671478E-005  0.9798345E+02  0.7546771E-02  0.1286314E+00
         21   -1    0    0  501  502  0.00000000000E+00  0.00000000000E+00  0.80043178295E+02  0.80043178295E+02  0.00000000000E+00 0. -1.
          1   -1    0    0  502    0 -0.00000000000E+00 -0.00000000000E+00 -0.73970654196E+03  0.73970654196E+03  0.00000000000E+00 0. -1.
         23    2    1    2    0    0 -0.21880019154E+02  0.47729112514E+02 -0.53165799845E+03  0.54204433414E+03  0.91624393297E+02 0.  0.
         23    2    1    2    0    0  0.10830077012E+01  0.49660899247E+02 -0.14335704545E+03  0.17694326941E+03  0.91051086154E+02 0.  0.
        -11    1    4    4    0    0  0.32763957401E+02  0.20026844422E+02 -0.14611734472E+02  0.41085936601E+02  0.00000000000E+00 0.  1.
         11    1    4    4    0    0 -0.31680949700E+02  0.29634054825E+02 -0.12874531098E+03  0.13585733281E+03  0.00000000000E+00 0. -1.
        -13    1    3    3    0    0 -0.45281274906E+02 -0.72390500551E+01 -0.23317719227E+03  0.23764343184E+03  0.00000000000E+00 0.  1.
         13    1    3    3    0    0  0.23401255752E+02  0.54968162569E+02 -0.29848080618E+03  0.30440090231E+03  0.00000000000E+00 0. -1.
          1    1    1    2  501    0  0.20797011453E+02 -0.97390011761E+02  0.15351680230E+02  0.10076211670E+03  0.00000000000E+00 0. -1.
<scales pt_clust_5="13000.00000" pt_clust_6="13000.00000" pt_clust_7="13000.00000" pt_clust_8="13000.00000" pt_clust_9="99.58579"></scales>
<clustering>
<clus scale="   91.051">  5  6 -1 -1</clus>
<clus scale="   91.624">  7  8 -1 -1</clus>
<clus scale="   99.586">  1  9  2 -1</clus>
<clus scale="   99.586">  1  5  2 -1</clus>
<clus scale="   97.983">  1  5  2 -1</clus>
</clustering>
</event>
<event>
 9    1  0.1671478E-005  0.1121582E+03  0.7546771E-02  0.1257644E+00
         21   -1    0    0  501  502  0.00000000000E+00  0.00000000000E+00  0.22925403538E+03  0.22925403538E+03  0.00000000000E+00 0. -1.
         -3   -1    0    0    0  501 -0.00000000000E+00 -0.00000000000E+00 -0.96500663136E+02  0.96500663136E+02  0.00000000000E+00 0.  1.
         23    2    1    2    0    0 -0.58349277103E+02  0.30718977659E+02 -0.39950147283E+01  0.11462508404E+03  0.93673133936E+02 0.  0.
         23    2    1    2    0    0  0.35493628198E+02 -0.46831163198E+02  0.48714526351E+02  0.11876109264E+03  0.90984265450E+02 0.  0.
        -11    1    4    4    0    0  0.56471016729E+02 -0.39943566704E+02  0.44707713976E+01  0.69314154747E+02  0.00000000000E+00 0.  1.
         11    1    4    4    0    0 -0.20977388531E+02 -0.68875964941E+01  0.44243754954E+02  0.49446937897E+02  0.00000000000E+00 0. -1.
        -13    1    3    3    0    0  0.23378436320E+02  0.12029625157E+02 -0.14675072537E+02  0.30110146465E+02  0.00000000000E+00 0. -1.
         13    1    3    3    0    0 -0.81727713423E+02  0.18689352502E+02  0.10680057809E+02  0.84514937573E+02  0.00000000000E+00 0.  1.
         -3    1    1    2    0  502  0.22855648904E+02  0.16112185539E+02  0.88033860620E+02  0.92368521832E+02  0.00000000000E+00 0.  1.
<scales pt_clust_5="13000.00000" pt_clust_6="13000.00000" pt_clust_7="13000.00000" pt_clust_8="13000.00000" pt_clust_9="27.96396"></scales>
<clustering>
<clus scale="   27.964">  1  9  2 -1</clus>
<clus scale="   90.984">  5  6 -1 -1</clus>
<clus scale="   93.673">  7  8 -1 -1</clus>
<clus scale="  109.922">  1  5  2 -1</clus>
<clus scale="   27.964">  1  5  2 -1</clus>
</clustering>
</event>
<event>
 9    1  0.1671478E-005  0.1043836E+03  0.7546771E-02  0.1271825E+00
         21   -1    0    0  501  502  0.00000000000E+00  0.00000000000E+00  0.58686269395E+02  0.58686269395E+02  0.00000000000E+00 0. -1.
         -1   -1    0    0    0  501 -0.00000000000E+00 -0.00000000000E+00 -0.33167634968E+03  0.33167634968E+03  0.00000000000E+00 0.  1.
         23    2    1    2    0    0 -0.38223124593E+02  0.60072690788E+01 -0.16855114563E+03  0.19551269752E+03  0.91206533018E+02 0.  0.
         23    2    1    2    0    0  0.76513286931E+02 -0.26369324115E+02 -0.78448371429E+02  0.14429045959E+03  0.90088653099E+02 0.  0.
        -11    1    3    3    0    0 -0.62359290896E+02  0.25370604354E+02 -0.12655922634E+03  0.14335126960E+03  0.00000000000E+00 0.  1.
         11    1    3    3    0    0  0.24136166303E+02 -0.19363335275E+02 -0.41991919289E+02  0.52161427917E+02  0.00000000000E+00 0. -1.
        -11    1    4    4    0    0 -0.20429743939E+02 -0.90527076378E+01 -0.18424837431E+02  0.28962054267E+02  0.00000000000E+00 0.  1.
         11    1    4    4    0    0  0.96943030870E+02 -0.17316616477E+02 -0.60023533998E+02  0.11532840532E+03  0.00000000000E+00 0. -1.
         -1    1    1    2    0  502 -0.38290162338E+02  0.20362055036E+02 -0.25990563233E+02  0.50559461967E+02  0.00000000000E+00 0.  1.
<scales pt_clust_5="13000.00000" pt_clust_6="13000.00000" pt_clust_7="13000.00000" pt_clust_8="13000.00000" pt_clust_9="43.36761"></scales>
<clustering>
<clus scale="   43.368">  1  9  2 -1</clus>
<clus scale="   90.089">  7  8 -1 -1</clus>
<clus scale="   91.207">  5  6 -1 -1</clus>
<clus scale="  103.408">  1  7  2 -1</clus>
<clus scale="   43.368">  1  5  2 -1</clus>
</clustering>
</event>
<event>
 9    1  0.1671478E-005  0.4838527E+03  0.7546771E-02  0.1048066E+00
          1   -1    0    0  502    0 -0.00000000000E+00  0.00000000000E+00  0.37499152943E+03  0.37499152943E+03  0.00000000000E+00 0. -1.
         21   -1    0    0  501  502  0.00000000000E+00 -0.00000000000E+00 -0.12282110852E+04  0.12282110852E+04  0.00000000000E+00 0. -1.
         23    2    1    2    0    0  0.17849974850E+03  0.12345410953E+02  0.68835122223E+01  0.19990281448E+03  0.88877348694E+02 0.  0.
         23    2    1    2    0    0 -0.28391424010E+03 -0.45968470801E+03 -0.16919163591E+03  0.57349062408E+03  0.91369358823E+02 0.  0.
        -11    1    4    4    0    0 -0.55947450668E+02 -0.50904260244E+02 -0.49441560150E+02  0.90364975612E+02  0.00000000000E+00 0.  1.
         11    1    4    4    0    0 -0.22796678943E+03 -0.40878044777E+03 -0.11975007576E+03  0.48312564847E+03  0.00000000000E+00 0. -1.
        -11    1    3    3    0    0  0.14871623867E+03  0.45061340651E+02  0.85587668847E+01  0.15562871379E+03  0.00000000000E+00 0. -1.
         11    1    3    3    0    0  0.29783509830E+02 -0.32715929698E+02 -0.16752546624E+01  0.44274100691E+02  0.00000000000E+00 0.  1.
          1    1    1    2  501    0  0.10541449160E+03  0.44733929706E+03 -0.69091143209E+03  0.82980917609E+03  0.00000000000E+00 0. -1.
<scales pt_clust_5="13000.00000" pt_clust_6="13000.00000" pt_clust_7="13000.00000" pt_clust_8="13000.00000" pt_clust_9="475.14748"></scales>
<clustering>
<clus scale="   88.877">  7  8 -1 -1</clus>
<clus scale="   91.369">  5  6 -1 -1</clus>
<clus scale="  199.784">  1  7  2 -1</clus>
<clus scale="  475.147">  2  9  1 -1</clus>
<clus scale="  475.147">  2  5  1 -1</clus>
</clustering>
</event>
<event>
 9    1  0.3088358E-005  0.1705593E+03  0.7546771E-02  0.1200939E+00
         21   -1    0    0  501  502  0.00000000000E+00  0.00000000000E+00  0.41403577677E+03  0.41403577677E+03  0.00000000000E+00 0.  1.
         -4   -1    0    0    0  501 -0.00000000000E+00 -0.00000000000E+00 -0.49563497583E+03  0.49563497583E+03  0.00000000000E+00 0.  1.
         23    2    1    2    0    0  0.11424076222E+02  0.43579783337E+02 -0.14340384130E+02  0.10201990141E+03  0.90403023361E+02 0.  0.
         23    2    1    2    0    0  0.19897554805E+02  0.96764226976E+02 -0.41207489423E+03  0.43405265214E+03  0.94004032168E+02 0.  0.
        -13    1    4    4    0    0 -0.85215365658E+01  0.10364065164E+03 -0.35509339879E+03  0.37000719334E+03  0.00000000000E+00 0.  1.
         13    1    4    4    0    0  0.28419091370E+02 -0.68764246602E+01 -0.56981495439E+02  0.64045458800E+02  0.00000000000E+00 0. -1.
        -13    1    3    3    0    0  0.20346164583E+02  0.65628931637E+02 -0.28446055394E+02  0.74365994571E+02  0.00000000000E+00 0. -1.
         13    1    3    3    0    0 -0.89220883607E+01 -0.22049148300E+02  0.14105671264E+02  0.27653906836E+02  0.00000000000E+00 0.  1.
         -4    1    1    2    0  502 -0.31321631027E+02 -0.14034401031E+03  0.34481607929E+03  0.37359819906E+03  0.00000000000E+00 0.  1.
<scales pt_clust_5="13000.00000" pt_clust_6="13000.00000" pt_clust_7="13000.00000" pt_clust_8="13000.00000" pt_clust_9="142.31560"></scales>
<clustering>
<clus scale="   90.403">  7  8 -1 -1</clus>
<clus scale="   94.004">  5  6 -1 -1</clus>
<clus scale="  101.007">  2  7  1 -1</clus>
<clus scale="  142.316">  1  9  2 -1</clus>
<clus scale="  142.316">  1  5  2 -1</clus>
</clustering>
</event>
<event>
 9    1  0.1671478E-005  0.1013321E+03  0.7546771E-02  0.1280871E+00
         21   -1    0    0  501  502  0.00000000000E+00  0.00000000000E+00  0.70128567168E+03  0.70128567168E+03  0.00000000000E+00 0. -1.
          1   -1    0    0  502    0 -0.00000000000E+00 -0.00000000000E+00 -0.38773912031E+02  0.38773912031E+02  0.00000000000E+00 0. -1.
         23    2    1    2    0    0 -0.11534572720E+02 -0.11817434297E+02  0.68636827345E+02  0.12323456935E+03  0.10101013263E+03 0.  0.
         23    2    1    2    0    0 -0.10582761399E+01 -0.32589400890E+02  0.24168691885E+03  0.26162514996E+03  0.94720448414E+02 0.  0.
        -11    1    4    4    0    0  0.32799159431E+02 -0.29279313152E+02  0.21188540513E+03  0.21639890929E+03  0.00000000000E+00 0.  1.
         11    1    4    4    0    0 -0.33857435571E+02 -0.33100877384E+01  0.29801513723E+02  0.45226240662E+02  0.00000000000E+00 0. -1.
        -11    1    3    3    0    0 -0.20711071775E+02  0.36542470444E+02  0.60028383778E+02  0.73264640169E+02  0.00000000000E+00 0.  1.
         11    1    3    3    0    0  0.91764990550E+01 -0.48359904741E+02  0.86084435669E+01  0.49969929178E+02  0.00000000000E+00 0. -1.
          1    1    1    2  501    0  0.12592848860E+02  0.44406835187E+02  0.35218801345E+03  0.35519986440E+03  0.00000000000E+00 0. -1.
<scales pt_clust_5="13000.00000" pt_clust_6="13000.00000" pt_clust_7="13000.00000" pt_clust_8="13000.00000" pt_clust_9="46.15785"></scales>
<clustering>
<clus scale="   46.158">  1  9  2 -1</clus>
<clus scale="   94.720">  5  6 -1 -1</clus>
<clus scale="   95.064">  1  5  2 -1</clus>
<clus scale="  101.010">  7  8 -1 -1</clus>
<clus scale="   46.158">  1  5  2 -1</clus>
</clustering>
</event>
<event>
 9    1  0.1671478E-005  0.1852976E+03  0.7546771E-02  0.1162918E+00
         21   -1    0    0  501  502  0.00000000000E+00  0.00000000000E+00  0.55794038546E+02  0.55794038546E+02  0.00000000000E+00 0. -1.
         -3   -1    0    0    0  501 -0.00000000000E+00 -0.00000000000E+00 -0.12880749796E+04  0.12880749796E+04  0.00000000000E+00 0.  1.
         23    2    1    2    0    0 -0.74545099573E+02  0.17433928947E+03 -0.85518468267E+03  0.88070300135E+03  0.91355215459E+02 0.  0.
         23    2    1    2    0    0  0.10091495269E+03 -0.80241782651E+02 -0.29986841461E+03  0.33861141112E+03  0.90078023387E+02 0.  0.
        -13    1    4    4    0    0  0.42112744462E+02 -0.34871265362E+02 -0.23080146838E+03  0.23718938888E+03  0.00000000000E+00 0.  1.
         13    1    4    4    0    0  0.58802208231E+02 -0.45370517288E+02 -0.69066946236E+02  0.10142202223E+03  0.00000000000E+00 0. -1.
        -13    1    3    3    0    0 -0.83669184000E+02  0.15284380763E+03 -0.82110924782E+03  0.83939392346E+03  0.00000000000E+00 0. -1.
         13    1    3    3    0    0  0.91240844268E+01  0.21495481837E+02 -0.34075434844E+02  0.41309077887E+02  0.00000000000E+00 0.  1.
         -3    1    1    2    0  502 -0.26369853119E+02 -0.94097506821E+02 -0.77227843787E+02  0.12455460569E+03  0.00000000000E+00 0.  1.
<scales pt_clust_5="13000.00000" pt_clust_6="13000.00000" pt_clust_7="13000.00000" pt_clust_8="13000.00000" pt_clust_9="97.72262"></scales>
<clustering>
<clus scale="   90.078">  5  6 -1 -1</clus>
<clus scale="   91.355">  7  8 -1 -1</clus>
<clus scale="   97.723">  1  9  2 -1</clus>
<clus scale="  184.671">  1  5  2 -1</clus>
<clus scale="   97.723">  1  5  2 -1</clus>
</clustering>
</event>
<event>
 9    1  0.1671478E-005  0.1719678E+03  0.7546771E-02  0.1175851E+00
         21   -1    0    0  501  502  0.00000000000E+00  0.00000000000E+00  0.13357277230E+03  0.13357277230E+03  0.00000000000E+00 0.  1.
          1   -1    0    0  502    0 -0.00000000000E+00 -0.00000000000E+00 -0.37150723982E+03  0.37150723982E+03  0.00000000000E+00 0. -1.
         23    2    1    2    0    0  0.62280703517E+02 -0.14892613955E+03 -0.91681139778E+02  0.20716933273E+03  0.91955532519E+02 0.  0.
         23    2    1    2    0    0 -0.90747112515E+02  0.95024818242E+02 -0.24934887098E+02  0.16213935356E+03  0.91666061694E+02 0.  0.
        -11    1    3    3    0    0  0.38547145972E+02 -0.32820678269E+02 -0.70484583406E+02  0.86782232528E+02  0.00000000000E+00 0. -1.
         11    1    3    3    0    0  0.23733557544E+02 -0.11610546128E+03 -0.21196556371E+02  0.12038710020E+03  0.00000000000E+00 0.  1.
        -13    1    4    4    0    0 -0.10283443668E+03  0.51448104862E+02 -0.18287118364E+02  0.11643129974E+03  0.00000000000E+00 0.  1.
         13    1    4    4    0    0  0.12087324168E+02  0.43576713380E+02 -0.66477687338E+01  0.45708053817E+02  0.00000000000E+00 0. -1.
          1    1    1    2  501    0  0.28466408999E+02  0.53901321306E+02 -0.12131844064E+03  0.13577132584E+03  0.00000000000E+00 0. -1.
<scales pt_clust_5="13000.00000" pt_clust_6="13000.00000" pt_clust_7="13000.00000" pt_clust_8="13000.00000" pt_clust_9="60.95648"></scales>
<clustering>
<clus scale="   60.956">  1  9  2 -1</clus>
<clus scale="   91.666">  7  8 -1 -1</clus>
<clus scale="   91.956">  5  6 -1 -1</clus>
<clus scale="  171.813">  1  7  2 -1</clus>
<clus scale="   60.956">  1  5  2 -1</clus>
</clustering>
</event>
<event>
 9    1  0.1671478E-005  0.9542572E+02  0.7546771E-02  0.1290359E+00
         21   -1    0    0  501  502  0.00000000000E+00  0.00000000000E+00  0.38079043144E+03  0.38079043144E+03  0.00000000000E+00 0. -1.
          2   -1    0    0  502    0 -0.00000000000E+00 -0.00000000000E+00 -0.52553258582E+02  0.52553258582E+02  0.00000000000E+00 0. -1.
         23    2    1    2    0    0 -0.35512923161E+02  0.16926728754E+02  0.42864200461E+02  0.10839701014E+03  0.91459774049E+02 0.  0.
         23    2    1    2    0    0  0.31828845241E+01 -0.76924059623E+01  0.97616355012E+02  0.13420326194E+03  0.91718367221E+02 0.  0.
        -11    1    3    3    0    0 -0.49130866206E+02  0.17031566102E+01 -0.11357837804E+02  0.50455358845E+02  0.00000000000E+00 0. -1.
         11    1    3    3    0    0  0.13617943045E+02  0.15223572143E+02  0.54222038265E+02  0.57941651298E+02  0.00000000000E+00 0.  1.
        -11    1    4    4    0    0  0.10450084923E+02  0.30478013738E+02  0.35341555520E+01  0.32413019788E+02  0.00000000000E+00 0. -1.
         11    1    4    4    0    0 -0.72672003991E+01 -0.38170419701E+02  0.94082199460E+02  0.10179024215E+03  0.00000000000E+00 0.  1.
          2    1    1    2  501    0  0.32330038637E+02 -0.92343227913E+01  0.18775661739E+03  0.19074341794E+03  0.00000000000E+00 0. -1.
<scales pt_clust_5="13000.00000" pt_clust_6="13000.00000" pt_clust_7="13000.00000" pt_clust_8="13000.00000" pt_clust_9="33.62297"></scales>
<clustering>
<clus scale="   33.623">  1  9  2 -1</clus>
<clus scale="   91.460">  5  6 -1 -1</clus>
<clus scale="   91.718">  7  8 -1 -1</clus>
<clus scale="   95.177">  2  5  1 -1</clus>
<clus scale="   33.623">  1  5  2 -1</clus>
</clustering>
</event>
<event>
 9    1  0.1671478E-005  0.2433593E+03  0.7546771E-02  0.1117714E+00
         -2   -1    0    0    0  501 -0.00000000000E+00  0.00000000000E+00  0.12242482837E+03  0.12242482837E+03  0.00000000000E+00 0.  1.
         21   -1    0    0  501  502  0.00000000000E+00 -0.00000000000E+00 -0.11004273805E+04  0.11004273805E+04  0.00000000000E+00 0. -1.
         23    2    1    2    0    0 -0.19475018599E+03 -0.10657227543E+03 -0.41989448201E+02  0.24423785809E+03  0.92756308322E+02 0.  0.
         23    2    1    2    0    0  0.22031705477E+03  0.10329082197E+03 -0.84022391053E+03  0.87941756511E+03  0.90501024693E+02 0.  0.
        -11    1    4    4    0    0  0.20546625049E+03  0.61599590507E+02 -0.72160989770E+03  0.75281586999E+03  0.00000000000E+00 0. -1.
         11    1    4    4    0    0  0.14850804280E+02  0.41691231468E+02 -0.11861401283E+03  0.12660169513E+03  0.00000000000E+00 0.  1.
        -11    1    3    3    0    0 -0.11688256461E+03 -0.45364082470E+02  0.20623384464E+02  0.12706202373E+03  0.00000000000E+00 0.  1.
         11    1    3    3    0    0 -0.77867621382E+02 -0.61208192957E+02 -0.62612832665E+02  0.11717583436E+03  0.00000000000E+00 0. -1.
         -2    1    1    2    0  502 -0.25566868784E+02  0.32814534520E+01 -0.95789193433E+02  0.99196785707E+02  0.00000000000E+00 0.  1.
<scales pt_clust_5="13000.00000" pt_clust_6="13000.00000" pt_clust_7="13000.00000" pt_clust_8="13000.00000" pt_clust_9="25.77659"></scales>
<clustering>
<clus scale="   25.777">  2  9  1 -1</clus>
<clus scale="   90.501">  5  6 -1 -1</clus>
<clus scale="   92.756">  7  8 -1 -1</clus>
<clus scale="  242.509">  2  5  1 -1</clus>
<clus scale="   25.777">  2  5  1 -1</clus>
</clustering>
</event>
<event>
 9    1  0.1671478E-005  0.1588215E+03  0.7546771E-02  0.1205426E+00
         -3   -1    0    0    0  501 -0.00000000000E+00  0.00000000000E+00  0.31164346509E+03  0.31164346509E+03  0.00000000000E+00 0.  1.
         21   -1    0    0  501  502  0.00000000000E+00 -0.00000000000E+00 -0.18008444645E+03  0.18008444645E+03  0.00000000000E+00 0. -1.
         23    2    1    2    0    0 -0.24450627615E+02 -0.80468491069E+02  0.47226375862E+02  0.12297114129E+03  0.76279484581E+02 0.  0.
         23    2    1    2    0    0 -0.10465274102E+03  0.10760225416E+03  0.14177813727E+03  0.22486825184E+03  0.89074402477E+02 0.  0.
        -11    1    4    4    0    0  0.30089216743E+01  0.51336917824E+02  0.56782970507E+02  0.76608344721E+02  0.00000000000E+00 0.  1.
         11    1    4    4    0    0 -0.10766166270E+03  0.56265336339E+02  0.84995166759E+02  0.14825990712E+03  0.00000000000E+00 0. -1.
        -11    1    3    3    0    0  0.25996609404E+02 -0.40575825520E+02  0.12082646460E+02  0.49681099652E+02  0.00000000000E+00 0.  1.
         11    1    3    3    0    0 -0.50447237019E+02 -0.39892665548E+02  0.35143729402E+02  0.73290041640E+02  0.00000000000E+00 0. -1.
         -3    1    1    2    0  502  0.12910336864E+03 -0.27133763095E+02 -0.57445494490E+02  0.14388851841E+03  0.00000000000E+00 0.  1.
<scales pt_clust_5="13000.00000" pt_clust_6="13000.00000" pt_clust_7="13000.00000" pt_clust_8="13000.00000" pt_clust_9="131.49148"></scales>
<clustering>
<clus scale="   76.279">  7  8 -1 -1</clus>
<clus scale="   89.074">  5  6 -1 -1</clus>
<clus scale="  113.541">  1  7  2 -1</clus>
<clus scale="  131.491">  2  9  1 -1</clus>
<clus scale="  131.491">  2  5  1 -1</clus>
</clustering>
</event>
<event>
 9    1  0.1671478E-005  0.1080809E+03  0.7546771E-02  0.1267584E+00
         21   -1    0    0  501  502  0.00000000000E+00  0.00000000000E+00  0.12185397981E+03  0.12185397981E+03  0.00000000000E+00 0.  1.
          1   -1    0    0  502    0 -0.00000000000E+00 -0.00000000000E+00 -0.20447537952E+03  0.20447537952E+03  0.00000000000E+00 0. -1.
         23    2    1    2    0    0 -0.25196544679E+02  0.29426023309E+02 -0.13781084295E+03  0.17417878079E+03  0.99225311945E+02 0.  0.
         23    2    1    2    0    0  0.28830876293E+02 -0.50533677165E+02  0.19092931814E+02  0.11017797374E+03  0.91595708940E+02 0.  0.
        -11    1    4    4    0    0 -0.98075720522E+01 -0.20510846873E+02 -0.32116597415E+02  0.39349194891E+02  0.00000000000E+00 0. -1.
         11    1    4    4    0    0  0.38638448345E+02 -0.30022830292E+02  0.51209529229E+02  0.70828778849E+02  0.00000000000E+00 0.  1.
        -11    1    3    3    0    0  0.11909982475E+02 -0.25016846066E+02 -0.83852785711E+01  0.28948284342E+02  0.00000000000E+00 0.  1.
         11    1    3    3    0    0 -0.37106527154E+02  0.54442869375E+02 -0.12942556438E+03  0.14523049645E+03  0.00000000000E+00 0. -1.
          1    1    1    2  501    0 -0.36343316135E+01  0.21107653856E+02  0.36096511422E+02  0.41972604808E+02  0.00000000000E+00 0. -1.
<scales pt_clust_5="13000.00000" pt_clust_6="13000.00000" pt_clust_7="13000.00000" pt_clust_8="13000.00000" pt_clust_9="21.41825"></scales>
<clustering>
<clus scale="   21.418">  1  9  2 -1</clus>
<clus scale="   91.596">  5  6 -1 -1</clus>
<clus scale="   99.225">  7  8 -1 -1</clus>
<clus scale="  101.122">  1  5  2 -1</clus>
<clus scale="   21.418">  1  5  2 -1</clus>
</clustering>
</event>
<event>
 9    1  0.1671478E-005  0.9812220E+02  0.7546771E-02  0.1286909E+00
         21   -1    0    0  501  502  0.00000000000E+00  0.00000000000E+00  0.29287040502E+02  0.29287040502E+02  0.00000000000E+00 0.  1.
          2   -1    0    0  502    0 -0.00000000000E+00 -0.00000000000E+00 -0.59982780159E+03  0.59982780159E+03  0.00000000000E+00 0. -1.
         23    2    1    2    0    0 -0.28844420150E+02 -0.36954667496E+01 -0.36975056067E+03  0.38103241869E+03  0.87318783343E+02 0.  0.
         23    2    1    2    0    0  0.37684011540E+02  0.23508406916E+02 -0.20183694139E+03  0.22636177331E+03  0.92351348574E+02 0.  0.
        -11    1    3    3    0    0 -0.53678716666E+02 -0.22489667533E+02 -0.28133944019E+03  0.28729613707E+03  0.00000000000E+00 0. -1.
         11    1    3    3    0    0  0.24834296516E+02  0.18794200783E+02 -0.88411120485E+02  0.93736281620E+02  0.00000000000E+00 0.  1.
        -13    1    4    4    0    0  0.54547042092E+02 -0.75584437202E+01 -0.65778476614E+02  0.85786466637E+02  0.00000000000E+00 0.  1.
         13    1    4    4    0    0 -0.16863030552E+02  0.31066850636E+02 -0.13605846478E+03  0.14057530667E+03  0.00000000000E+00 0. -1.
          2    1    1    2  501    0 -0.88395913909E+01 -0.19812940166E+02  0.10467409756E+01  0.21720650098E+02  0.00000000000E+00 0. -1.
<scales pt_clust_5="13000.00000" pt_clust_6="13000.00000" pt_clust_7="13000.00000" pt_clust_8="13000.00000" pt_clust_9="21.69541"></scales>
<clustering>
<clus scale="   21.695">  1  9  2 -1</clus>
<clus scale="   87.319">  5  6 -1 -1</clus>
<clus scale="   92.351">  7  8 -1 -1</clus>
<clus scale="   93.401">  2  5  1 -1</clus>
<clus scale="   21.695">  1  5  2 -1</clus>
</clustering>
</event>
<event>
 9    1  0.1671478E-005  0.9958655E+02  0.7546771E-02  0.1281722E+00
          1   -1    0    0  502    0 -0.00000000000E+00  0.00000000000E+00  0.53745957893E+03  0.53745957893E+03  0.00000000000E+00 0. -1.
         21   -1    0    0  501  502  0.00000000000E+00 -0.00000000000E+00 -0.92622231112E+02  0.92622231112E+02  0.00000000000E+00 0.  1.
         23    2    1    2    0    0  0.26618762812E+02  0.22178631284E+02  0.35590011126E+03  0.36912227771E+03  0.91574649811E+02 0.  0.
         23    2    1    2    0    0  0.15725427565E+02 -0.92959958409E+02 -0.94734115002E+01  0.13255516177E+03  0.92694565359E+02 0.  0.
        -11    1    4    4    0    0  0.11170559182E+02  0.17983466763E+02 -0.95321664814E+00  0.21191863798E+02  0.00000000000E+00 0. -1.
         11    1    4    4    0    0  0.45548683828E+01 -0.11094342517E+03 -0.85201948520E+01  0.11136329797E+03  0.00000000000E+00 0.  1.
        -11    1    3    3    0    0  0.55734845199E+02  0.21861029402E+02  0.30183059978E+03  0.30771088466E+03  0.00000000000E+00 0.  1.
         11    1    3    3    0    0 -0.29116082387E+02  0.31760188246E+00  0.54069511483E+02  0.61411393052E+02  0.00000000000E+00 0. -1.
          1    1    1    2  501    0 -0.42344190377E+02  0.70781327125E+02  0.98410648061E+02  0.12840437056E+03  0.00000000000E+00 0. -1.
<scales pt_clust_5="13000.00000" pt_clust_6="13000.00000" pt_clust_7="13000.00000" pt_clust_8="13000.00000" pt_clust_9="82.48050"></scales>
<clustering>
<clus scale="   82.481">  2  9  1 -1</clus>
<clus scale="   91.575">  7  8 -1 -1</clus>
<clus scale="   92.695">  5  6 -1 -1</clus>
<clus scale="   98.545">  1  7  2 -1</clus>
<clus scale="   82.481">  2  5  1 -1</clus>
</clustering>
</event>
<event>
 9    1  0.1671478E-005  0.2054735E+03  0.7546771E-02  0.1174345E+00
         21   -1    0    0  501  502  0.00000000000E+00  0.00000000000E+00  0.19634938315E+03  0.19634938315E+03  0.00000000000E+00 0. -1.
          1   -1    0    0  502    0 -0.00000000000E+00 -0.00000000000E+00 -0.34588715864E+03  0.34588715864E+03  0.00000000000E+00 0. -1.
         23    2    1    2    0    0 -0.50915336565E+02 -0.82592967999E+01 -0.56262086736E+02  0.11843873485E+03  0.90563370228E+02 0.  0.
         23    2    1    2    0    0 -0.50095734913E+02  0.16856940787E+03 -0.12075995293E+03  0.23233513943E+03  0.92040332779E+02 0.  0.
        -11    1    4    4    0    0  0.21830090636E+02  0.23454825408E+02 -0.40309565261E+02  0.51493132976E+02  0.00000000000E+00 0.  1.
         11    1    4    4    0    0 -0.71925825549E+02  0.14511458246E+03 -0.80450387672E+02  0.18084200646E+03  0.00000000000E+00 0. -1.
        -13    1    3    3    0    0  0.23646035366E+02  0.12382804722E+02 -0.11570283762E+02  0.29091928566E+02  0.00000000000E+00 0.  1.
         13    1    3    3    0    0 -0.74561371932E+02 -0.20642101522E+02 -0.44691802974E+02  0.89346806281E+02  0.00000000000E+00 0. -1.
          1    1    1    2  501    0  0.10101107148E+03 -0.16031011107E+03  0.27484264182E+02  0.19146266751E+03  0.00000000000E+00 0. -1.
<scales pt_clust_5="13000.00000" pt_clust_6="13000.00000" pt_clust_7="13000.00000" pt_clust_8="13000.00000" pt_clust_9="183.70614"></scales>
<clustering>
<clus scale="   90.563">  7  8 -1 -1</clus>
<clus scale="   92.040">  5  6 -1 -1</clus>
<clus scale="  104.222">  2  7  1 -1</clus>
<clus scale="  183.706">  1  9  2 -1</clus>
<clus scale="  183.706">  1  5  2 -1</clus>
</clustering>
</event>
<event>
 9    1  0.1671478E-005  0.1012365E+03  0.7546771E-02  0.1278926E+00
         -1   -1    0    0    0  501 -0.00000000000E+00  0.00000000000E+00  0.22849812527E+03  0.22849812527E+03  0.00000000000E+00 0.  1.
         21   -1    0    0  501  502  0.00000000000E+00 -0.00000000000E+00 -0.18923232769E+03  0.18923232769E+03  0.00000000000E+00 0.  1.
         23    2    1    2    0    0  0.11874553704E+02  0.52367188350E+02  0.14995459918E+03  0.18191011929E+03  0.87872534063E+02 0.  0.
         23    2    1    2    0    0 -0.23549984388E+02 -0.20054382487E+02  0.22544255144E+02  0.98228616928E+02  0.90464566113E+02 0.  0.
        -13    1    4    4    0    0  0.30859254461E+02 -0.51380015108E+01  0.27422115783E+02  0.41601262955E+02  0.00000000000E+00 0. -1.
         13    1    4    4    0    0 -0.54409238849E+02 -0.14916380977E+02 -0.48778606388E+01  0.56627353973E+02  0.00000000000E+00 0.  1.
        -13    1    3    3    0    0 -0.18370431915E+02 -0.15003276437E+02  0.14976891443E+02  0.28051352016E+02  0.00000000000E+00 0.  1.
         13    1    3    3    0    0  0.30244985619E+02  0.67370464787E+02  0.13497770774E+03  0.15385876727E+03  0.00000000000E+00 0. -1.
         -1    1    1    2    0  502  0.11675430684E+02 -0.32312805863E+02 -0.13323305674E+03  0.13759171673E+03  0.00000000000E+00 0.  1.
<scales pt_clust_5="13000.00000" pt_clust_6="13000.00000" pt_clust_7="13000.00000" pt_clust_8="13000.00000" pt_clust_9="34.35743"></scales>
<clustering>
<clus scale="   34.357">  2  9  1 -1</clus>
<clus scale="   87.873">  7  8 -1 -1</clus>
<clus scale="   90.465">  5  6 -1 -1</clus>
<clus scale="   98.927">  1  7  2 -1</clus>
<clus scale="   34.357">  2  5  1 -1</clus>
</clustering>
</event>
<event>
 9    1  0.1671478E-005  0.1050507E+03  0.7546771E-02  0.1270300E+00
         -1   -1    0    0    0  501 -0.00000000000E+00  0.00000000000E+00  0.28338896793E+03  0.28338896793E+03  0.00000000000E+00 0.  1.
         21   -1    0    0  501  502  0.00000000000E+00 -0.00000000000E+00 -0.57969614133E+02  0.57969614133E+02  0.00000000000E+00 0. -1.
         23    2    1    2    0    0  0.76344968758E+01 -0.59565624350E+02  0.18472238532E+03  0.21412059236E+03  0.90105045864E+02 0.  0.
         23    2    1    2    0    0 -0.60366000784E+01  0.38012087493E+02  0.25011538421E+02  0.10053329084E+03  0.89442753627E+02 0.  0.
        -11    1    4    4    0    0  0.40186298080E+02  0.22147906681E+02  0.56180487143E+00  0.45888821606E+02  0.00000000000E+00 0. -1.
         11    1    4    4    0    0 -0.46222898158E+02  0.15864180812E+02  0.24449733549E+02  0.54644469231E+02  0.00000000000E+00 0.  1.
        -13    1    3    3    0    0  0.16883945815E+02  0.17881391036E+02  0.79004993487E+02  0.82744188724E+02  0.00000000000E+00 0.  1.
         13    1    3    3    0    0 -0.92494489390E+01 -0.77447015386E+02  0.10571739183E+03  0.13137640364E+03  0.00000000000E+00 0. -1.
         -1    1    1    2    0  502 -0.15978967974E+01  0.21553536857E+02  0.15685430062E+02  0.26704698864E+02  0.00000000000E+00 0.  1.
<scales pt_clust_5="13000.00000" pt_clust_6="13000.00000" pt_clust_7="13000.00000" pt_clust_8="13000.00000" pt_clust_9="21.61269"></scales>
<clustering>
<clus scale="   21.613">  2  9  1 -1</clus>
<clus scale="   89.443">  5  6 -1 -1</clus>
<clus scale="   90.105">  7  8 -1 -1</clus>
<clus scale="  104.483">  2  5  1 -1</clus>
<clus scale="   21.613">  2  5  1 -1</clus>
</clustering>
</event>
<event>
 9    1  0.1671478E-005  0.1609717E+03  0.7546771E-02  0.1189769E+00
         21   -1    0    0  501  502  0.00000000000E+00  0.00000000000E+00  0.12725144174E+03  0.12725144174E+03  0.00000000000E+00 0.  1.
         -2   -1    0    0    0  501 -0.00000000000E+00 -0.00000000000E+00 -0.33828181544E+03  0.33828181544E+03  0.00000000000E+00 0.  1.
         23    2    1    2    0    0 -0.23626554882E+02 -0.11511432361E+03 -0.19065235961E+03  0.24210402992E+03  0.91959325159E+02 0.  0.
         23    2    1    2    0    0  0.41965103719E+02  0.12956093069E+03 -0.56466589986E+02  0.18044792738E+03  0.10404746043E+03 0.  0.
        -11    1    3    3    0    0  0.23639197202E+02 -0.73116212027E+00 -0.46056447459E+02  0.51773956725E+02  0.00000000000E+00 0.  1.
         11    1    3    3    0    0 -0.47265752084E+02 -0.11438316149E+03 -0.14459591215E+03  0.19033007319E+03  0.00000000000E+00 0. -1.
        -13    1    4    4    0    0 -0.26703081161E+02  0.17870049881E+02  0.97319958416E+01  0.33572384028E+02  0.00000000000E+00 0. -1.
         13    1    4    4    0    0  0.68668184880E+02  0.11169088081E+03 -0.66198585827E+02  0.14687554335E+03  0.00000000000E+00 0.  1.
         -2    1    1    2    0  502 -0.18338548837E+02 -0.14446607082E+02  0.36088575893E+02  0.42981299882E+02  0.00000000000E+00 0.  1.
<scales pt_clust_5="13000.00000" pt_clust_6="13000.00000" pt_clust_7="13000.00000" pt_clust_8="13000.00000" pt_clust_9="23.34538"></scales>
<clustering>
<clus scale="   23.345">  1  9  2 -1</clus>
<clus scale="   91.959">  5  6 -1 -1</clus>
<clus scale="  104.047">  7  8 -1 -1</clus>
<clus scale="  153.436">  2  5  1 -1</clus>
<clus scale="   23.345">  1  5  2 -1</clus>
</clustering>
</event>
<event>
 9    1  0.1671478E-005  0.1750220E+03  0.7546771E-02  0.1173279E+00
         -1   -1    0    0    0  501 -0.00000000000E+00  0.00000000000E+00  0.15345515216E+03  0.15345515216E+03  0.00000000000E+00 0.  1.
         21   -1    0    0  501  502  0.00000000000E+00 -0.00000000000E+00 -0.43956293106E+03  0.43956293106E+03  0.00000000000E+00 0.  1.
         23    2    1    2    0    0  0.13997350217E+03  0.23911951505E+02  0.53938252615E+02  0.17626159456E+03  0.89411698830E+02 0.  0.
         23    2    1    2    0    0 -0.17016177717E+03 -0.47936858659E+02 -0.26165308087E+03  0.32938382233E+03  0.93693088617E+02 0.  0.
        -11    1    3    3    0    0  0.59301380295E+02  0.44368047742E+02  0.56254661666E+02  0.93004109180E+02  0.00000000000E+00 0.  1.
         11    1    3    3    0    0  0.80672121874E+02 -0.20456096237E+02 -0.23164090506E+01  0.83257485380E+02  0.00000000000E+00 0. -1.
        -13    1    4    4    0    0 -0.13839638976E+03 -0.68537968736E+02 -0.24105080810E+03  0.28628046727E+03  0.00000000000E+00 0.  1.
         13    1    4    4    0    0 -0.31765387416E+02  0.20601110077E+02 -0.20602272778E+02  0.43103355063E+02  0.00000000000E+00 0. -1.
         -1    1    1    2    0  502  0.30188275006E+02  0.24024907155E+02 -0.78392950644E+02  0.87372666334E+02  0.00000000000E+00 0.  1.
<scales pt_clust_5="13000.00000" pt_clust_6="13000.00000" pt_clust_7="13000.00000" pt_clust_8="13000.00000" pt_clust_9="38.58145"></scales>
<clustering>
<clus scale="   38.581">  2  9  1 -1</clus>
<clus scale="   89.412">  5  6 -1 -1</clus>
<clus scale="   93.693">  7  8 -1 -1</clus>
<clus scale="  172.768">  1  5  2 -1</clus>
<clus scale="   38.581">  2  5  1 -1</clus>
</clustering>
</event>
<event>
 9    1  0.1671478E-005  0.1977593E+03  0.7546771E-02  0.1173719E+00
         -2   -1    0    0    0  501 -0.00000000000E+00  0.00000000000E+00  0.22128853787E+03  0.22128853787E+03  0.00000000000E+00 0.  1.
         21   -1    0    0  501  502  0.00000000000E+00 -0.00000000000E+00 -0.33204887659E+03  0.33204887659E+03  0.00000000000E+00 0.  1.
         23    2    1    2    0    0 -0.19140852283E+02 -0.69922251301E+02  0.62386368432E+02  0.13398386994E+03  0.93830298859E+02 0.  0.
         23    2    1    2    0    0  0.16274791438E+03  0.12848333297E+03 -0.10775701338E+03  0.25104370932E+03  0.91741591277E+02 0.  0.
        -11    1    3    3    0    0  0.51398177641E+01 -0.87158078291E+02  0.36889153027E+02  0.94782688024E+02  0.00000000000E+00 0.  1.
         11    1    3    3    0    0 -0.24280670047E+02  0.17235826990E+02  0.25497215405E+02  0.39201181913E+02  0.00000000000E+00 0. -1.
        -13    1    4    4    0    0  0.51183245692E+01  0.33935795228E+02 -0.45466615691E+02  0.56965327933E+02  0.00000000000E+00 0. -1.
         13    1    4    4    0    0  0.15762958981E+03  0.94547537746E+02 -0.62290397690E+02  0.19407838139E+03  0.00000000000E+00 0.  1.
         -2    1    1    2    0  502 -0.14360706210E+03 -0.58561081673E+02 -0.65389693777E+02  0.16830983520E+03  0.00000000000E+00 0.  1.
<scales pt_clust_5="13000.00000" pt_clust_6="13000.00000" pt_clust_7="13000.00000" pt_clust_8="13000.00000" pt_clust_9="175.19195"></scales>
<clustering>
<clus scale="   91.742">  7  8 -1 -1</clus>
<clus scale="   93.830">  5  6 -1 -1</clus>
<clus scale="  118.573">  1  5  2 -1</clus>
<clus scale="  175.192">  2  9  1 -1</clus>
<clus scale="  175.192">  2  5  1 -1</clus>
</clustering>
</event>
<event>
 9    1  0.1671478E-005  0.9422175E+02  0.7546771E-02  0.1297335E+00
         21   -1    0    0  501  502  0.00000000000E+00  0.00000000000E+00  0.74686522507E+02  0.74686522507E+02  0.00000000000E+00 0.  1.
          4   -1    0    0  502    0 -0.00000000000E+00 -0.00000000000E+00 -0.39235165085E+03  0.39235165085E+03  0.00000000000E+00 0. -1.
         23    2    1    2    0    0  0.10510687599E+02  0.86158724131E+01 -0.27887585734E+03  0.29445158230E+03  0.93516216261E+02 0.  0.
         23    2    1    2    0    0 -0.17820299776E+02  0.49967222048E+02  0.14969232508E+01  0.10111361130E+03  0.86066458325E+02 0.  0.
        -11    1    4    4    0    0  0.50218694898E+01  0.23819812139E+02  0.41519690325E+02  0.48129900355E+02  0.00000000000E+00 0.  1.
         11    1    4    4    0    0 -0.22842169266E+02  0.26147409908E+02 -0.40022767074E+02  0.52983710949E+02  0.00000000000E+00 0. -1.
        -13    1    3    3    0    0  0.29452823914E+02  0.42068664226E+02 -0.20296905747E+03  0.20936494367E+03  0.00000000000E+00 0.  1.
         13    1    3    3    0    0 -0.18942136315E+02 -0.33452791813E+02 -0.75906799865E+02  0.85086638634E+02  0.00000000000E+00 0. -1.
          4    1    1    2  501    0  0.73096121766E+01 -0.58583094461E+02 -0.40286194259E+02  0.71472979752E+02  0.00000000000E+00 0. -1.
<scales pt_clust_5="13000.00000" pt_clust_6="13000.00000" pt_clust_7="13000.00000" pt_clust_8="13000.00000" pt_clust_9="59.03736"></scales>
<clustering>
<clus scale="   59.037">  1  9  2 -1</clus>
<clus scale="   86.066">  5  6 -1 -1</clus>
<clus scale="   86.833">  1  5  2 -1</clus>
<clus scale="   93.516">  7  8 -1 -1</clus>
<clus scale="   59.037">  1  5  2 -1</clus>
</clustering>
</event>
<event>
 9    1  0.1671478E-005  0.1002366E+03  0.7546771E-02  0.1280618E+00
         -3   -1    0    0    0  501 -0.00000000000E+00  0.00000000000E+00  0.51020034014E+03  0.51020034014E+03  0.00000000000E+00 0.  1.
         21   -1    0    0  501  502  0.00000000000E+00 -0.00000000000E+00 -0.71865199384E+02  0.71865199384E+02  0.00000000000E+00 0. -1.
         23    2    1    2    0    0 -0.37244281924E+02 -0.32462096265E+02  0.26124709222E+03  0.28166172345E+03  0.92964289009E+02 0.  0.
         23    2    1    2    0    0 -0.25751158940E+02  0.41301487506E+02  0.20600781476E+03  0.23052597061E+03  0.91291118534E+02 0.  0.
        -11    1    3    3    0    0 -0.16461886848E+02  0.29196911771E+02  0.46828162879E+02  0.57587587328E+02  0.00000000000E+00 0.  1.
         11    1    3    3    0    0 -0.20782395076E+02 -0.61659008037E+02  0.21441892935E+03  0.22407413612E+03  0.00000000000E+00 0. -1.
        -13    1    4    4    0    0 -0.50393889304E+02  0.11510487080E+02  0.17002800647E+03  0.17771200966E+03  0.00000000000E+00 0. -1.
         13    1    4    4    0    0  0.24642730364E+02  0.29791000426E+02  0.35979808290E+02  0.52813960946E+02  0.00000000000E+00 0.  1.
         -3    1    1    2    0  502  0.62995440864E+02 -0.88393912408E+01 -0.28919766238E+02  0.69877845462E+02  0.00000000000E+00 0.  1.
<scales pt_clust_5="13000.00000" pt_clust_6="13000.00000" pt_clust_7="13000.00000" pt_clust_8="13000.00000" pt_clust_9="63.61258"></scales>
<clustering>
<clus scale="   63.613">  2  9  1 -1</clus>
<clus scale="   91.291">  7  8 -1 -1</clus>
<clus scale="   92.964">  5  6 -1 -1</clus>
<clus scale="   98.687">  2  7  1 -1</clus>
<clus scale="   63.613">  2  5  1 -1</clus>
</clustering>
</event>
<event>
 9    1  0.1671478E-005  0.9927508E+02  0.7546771E-02  0.1293770E+00
         21   -1    0    0  501  502  0.00000000000E+00  0.00000000000E+00  0.24488109098E+03  0.24488109098E+03  0.00000000000E+00 0.  1.
          3   -1    0    0  502    0 -0.00000000000E+00 -0.00000000000E+00 -0.98625731504E+02  0.98625731504E+02  0.00000000000E+00 0. -1.
         23    2    1    2    0    0  0.19805624376E+02  0.10862279211E+01 -0.55289737220E+02  0.11306374064E+03  0.96607513977E+02 0.  0.
         23    2    1    2    0    0 -0.42352634896E+02  0.28738115203E+01  0.17465930266E+03  0.19513167410E+03  0.75950600774E+02 0.  0.
        -11    1    3    3    0    0  0.41947782852E+02 -0.99496529159E+01  0.91203090210E+01  0.44065770343E+02  0.00000000000E+00 0.  1.
         11    1    3    3    0    0 -0.22142158476E+02  0.11035880837E+02 -0.64410046241E+02  0.68997970293E+02  0.00000000000E+00 0. -1.
        -13    1    4    4    0    0 -0.57079323523E+02  0.19408385930E+02  0.15167137586E+03  0.16321440155E+03  0.00000000000E+00 0.  1.
         13    1    4    4    0    0  0.14726688627E+02 -0.16534574409E+02  0.22987926804E+02  0.31917272558E+02  0.00000000000E+00 0. -1.
          3    1    1    2  501    0  0.22547010521E+02 -0.39600394414E+01  0.26885794036E+02  0.35311407742E+02  0.00000000000E+00 0. -1.
<scales pt_clust_5="13000.00000" pt_clust_6="13000.00000" pt_clust_7="13000.00000" pt_clust_8="13000.00000" pt_clust_9="22.89213"></scales>
<clustering>
<clus scale="   22.892">  1  9  2 -1</clus>
<clus scale="   75.951">  7  8 -1 -1</clus>
<clus scale="   79.316">  1  7  2 -1</clus>
<clus scale="   96.608">  5  6 -1 -1</clus>
<clus scale="   22.892">  1  5  2 -1</clus>
</clustering>
</event>
<event>
 9    1  0.1671478E-005  0.1489695E+03  0.7546771E-02  0.1202505E+00
          3   -1    0    0  502    0 -0.00000000000E+00  0.00000000000E+00  0.29374289812E+03  0.29374289812E+03  0.00000000000E+00 0. -1.
         21   -1    0    0  501  502  0.00000000000E+00 -0.00000000000E+00 -0.17004064768E+03  0.17004064768E+03  0.00000000000E+00 0.  1.
         23    2    1    2    0    0 -0.99514579727E+02 -0.38135402680E+02  0.15537315411E+03  0.21117125143E+03  0.95367813728E+02 0.  0.
         23    2    1    2    0    0  0.15262257291E+03 -0.10897109587E+02 -0.20420301954E+02  0.17946024562E+03  0.91523736087E+02 0.  0.
        -11    1    4    4    0    0  0.51677452191E+02  0.33944021483E+02 -0.29743935558E+02  0.68610912848E+02  0.00000000000E+00 0.  1.
         11    1    4    4    0    0  0.10094512071E+03 -0.44841131070E+02  0.93236336033E+01  0.11084933277E+03  0.00000000000E+00 0. -1.
        -13    1    3    3    0    0 -0.85143125574E+02 -0.68275054456E+02  0.11132618677E+03  0.15589853994E+03  0.00000000000E+00 0. -1.
         13    1    3    3    0    0 -0.14371454153E+02  0.30139651776E+02  0.44046967338E+02  0.55272711489E+02  0.00000000000E+00 0.  1.
          3    1    1    2  501    0 -0.53107993178E+02  0.49032512267E+02 -0.11250601719E+02  0.73152048759E+02  0.00000000000E+00 0. -1.
<scales pt_clust_5="13000.00000" pt_clust_6="13000.00000" pt_clust_7="13000.00000" pt_clust_8="13000.00000" pt_clust_9="72.28171"></scales>
<clustering>
<clus scale="   72.282">  2  9  1 -1</clus>
<clus scale="   91.524">  5  6 -1 -1</clus>
<clus scale="   95.368">  7  8 -1 -1</clus>
<clus scale="  146.538">  2  5  1 -1</clus>
<clus scale="   72.282">  2  5  1 -1</clus>
</clustering>
</event>
<event>
 9    1  0.1671478E-005  0.1018371E+03  0.7546771E-02  0.1276601E+00
          2   -1    0    0  502    0 -0.00000000000E+00  0.00000000000E+00  0.61682757746E+02  0.61682757746E+02  0.00000000000E+00 0. -1.
         21   -1    0    0  501  502  0.00000000000E+00 -0.00000000000E+00 -0.29231576694E+03  0.29231576694E+03  0.00000000000E+00 0.  1.
         23    2    1    2    0    0  0.26771899474E+02 -0.23801784575E+02 -0.51602810541E+02  0.10935542335E+03  0.89512563415E+02 0.  0.
         23    2    1    2    0    0 -0.55704425746E+02  0.32856941626E+02 -0.67896808103E+02  0.12944884176E+03  0.89243848083E+02 0.  0.
        -13    1    4    4    0    0 -0.54591205369E+02  0.49706412576E+00 -0.78287828685E+02  0.95443338670E+02  0.00000000000E+00 0.  1.
         13    1    4    4    0    0 -0.11132203778E+01  0.32359877500E+02  0.10391020581E+02  0.34005503086E+02  0.00000000000E+00 0. -1.
        -13    1    3    3    0    0  0.38068919464E+02 -0.52363363228E+02 -0.42020166248E+02  0.77180689354E+02  0.00000000000E+00 0. -1.
         13    1    3    3    0    0 -0.11297019991E+02  0.28561578653E+02 -0.95826442928E+01  0.32174733992E+02  0.00000000000E+00 0.  1.
          2    1    1    2  501    0  0.28932526273E+02 -0.90551570506E+01 -0.11113339055E+03  0.11519425959E+03  0.00000000000E+00 0. -1.
<scales pt_clust_5="13000.00000" pt_clust_6="13000.00000" pt_clust_7="13000.00000" pt_clust_8="13000.00000" pt_clust_9="30.31645"></scales>
<clustering>
<clus scale="   30.316">  2  9  1 -1</clus>
<clus scale="   89.244">  5  6 -1 -1</clus>
<clus scale="   89.513">  7  8 -1 -1</clus>
<clus scale="  101.601">  2  5  1 -1</clus>
<clus scale="   30.316">  2  5  1 -1</clus>
</clustering>
</event>
<event>
 9    1  0.1671478E-005  0.1037388E+03  0.7546771E-02  0.1273787E+00
         21   -1    0    0  501  502  0.00000000000E+00  0.00000000000E+00  0.29514450854E+02  0.29514450854E+02  0.00000000000E+00 0. -1.
          2   -1    0    0  502    0 -0.00000000000E+00 -0.00000000000E+00 -0.52530649557E+03  0.52530649557E+03  0.00000000000E+00 0. -1.
         23    2    1    2    0    0  0.29222685166E+02  0.76446544974E+01 -0.21983608145E+03  0.24100655252E+03  0.94041743821E+02 0.  0.
         23    2    1    2    0    0 -0.57292026267E+02 -0.78974680399E+01 -0.25974629818E+03  0.28139981282E+03  0.91503928658E+02 0.  0.
        -11    1    3    3    0    0  0.24824232621E+02 -0.40620155447E+02 -0.13698885727E+03  0.14502477916E+03  0.00000000000E+00 0. -1.
         11    1    3    3    0    0  0.43984525445E+01  0.48264809945E+02 -0.82847224174E+02  0.95981773359E+02  0.00000000000E+00 0.  1.
        -13    1    4    4    0    0 -0.63745199608E+02  0.19782647229E+02 -0.10758699093E+03  0.12660870516E+03  0.00000000000E+00 0.  1.
         13    1    4    4    0    0  0.64531733405E+01 -0.27680115269E+02 -0.15215930725E+03  0.15479110766E+03  0.00000000000E+00 0. -1.
          2    1    1    2  501    0  0.28069341102E+02  0.25281354247E+00 -0.16209665085E+02  0.32414581082E+02  0.00000000000E+00 0. -1.
<scales pt_clust_5="13000.00000" pt_clust_6="13000.00000" pt_clust_7="13000.00000" pt_clust_8="13000.00000" pt_clust_9="28.07048"></scales>
<clustering>
<clus scale="   28.070">  1  9  2 -1</clus>
<clus scale="   91.504">  7  8 -1 -1</clus>
<clus scale="   94.042">  5  6 -1 -1</clus>
<clus scale="  101.444">  1  7  2 -1</clus>
<clus scale="   28.070">  1  5  2 -1</clus>
</clustering>
</event>
<event>
 9    1  0.1671478E-005  0.1130828E+03  0.7546771E-02  0.1254975E+00
         21   -1    0    0  501  502  0.00000000000E+00  0.00000000000E+00  0.46417519100E+03  0.46417519100E+03  0.00000000000E+00 0.  1.
          2   -1    0    0  502    0 -0.00000000000E+00 -0.00000000000E+00 -0.47060469148E+02  0.47060469148E+02  0.00000000000E+00 0. -1.
         23    2    1    2    0    0  0.56391238965E+02 -0.41380241410E+02  0.92901911078E+02  0.14800840800E+03  0.91561059107E+02 0.  0.
         23    2    1    2    0    0 -0.31716622043E+02  0.56520058561E+02  0.15367667483E+03  0.19025146065E+03  0.91534893665E+02 0.  0.
        -13    1    4    4    0    0 -0.12039814777E+02 -0.22812708145E+02  0.63525860277E+02  0.68563195059E+02  0.00000000000E+00 0.  1.
         13    1    4    4    0    0 -0.19676807266E+02  0.79332766706E+02  0.90150814556E+02  0.12168826559E+03  0.00000000000E+00 0. -1.
        -13    1    3    3    0    0 -0.86810771327E+01  0.21280328732E+02  0.88845749447E+01  0.24640396974E+02  0.00000000000E+00 0. -1.
         13    1    3    3    0    0  0.65072316097E+02 -0.62660570142E+02  0.84017336134E+02  0.12336801102E+03  0.00000000000E+00 0.  1.
          2    1    1    2  501    0 -0.24674616922E+02 -0.15139817151E+02  0.17053613594E+03  0.17297579150E+03  0.00000000000E+00 0. -1.
<scales pt_clust_5="13000.00000" pt_clust_6="13000.00000" pt_clust_7="13000.00000" pt_clust_8="13000.00000" pt_clust_9="28.94911"></scales>
<clustering>
<clus scale="   28.949">  1  9  2 -1</clus>
<clus scale="   91.535">  5  6 -1 -1</clus>
<clus scale="   91.561">  7  8 -1 -1</clus>
<clus scale="  113.062">  1  5  2 -1</clus>
<clus scale="   28.949">  1  5  2 -1</clus>
</clustering>
</event>
<event>
 9    1  0.1671478E-005  0.1679796E+03  0.7546771E-02  0.1180229E+00
         -1   -1    0    0    0  501 -0.00000000000E+00  0.00000000000E+00  0.85779081732E+03  0.85779081732E+03  0.00000000000E+00 0.  1.
         21   -1    0    0  501  502  0.00000000000E+00 -0.00000000000E+00 -0.54180284256E+02  0.54180284256E+02  0.00000000000E+00 0. -1.
         23    2    1    2    0    0  0.16672883281E+02 -0.13026647110E+03  0.38180266068E+03  0.41419337225E+03  0.92387982906E+02 0.  0.
         23    2    1    2    0    0 -0.20498968597E+01  0.15014368608E+03  0.43554959226E+03  0.46953290196E+03  0.90611092916E+02 0.  0.
        -11    1    4    4    0    0  0.33286270943E+02  0.13069699104E+03  0.34389621454E+03  0.36939719230E+03  0.00000000000E+00 0. -1.
         11    1    4    4    0    0 -0.35336167803E+02  0.19446695041E+02  0.91653377714E+02  0.10013570966E+03  0.00000000000E+00 0.  1.
        -13    1    3    3    0    0 -0.48320151980E+01 -0.11374986679E+03  0.36488073583E+03  0.38223073129E+03  0.00000000000E+00 0.  1.
         13    1    3    3    0    0  0.21504898479E+02 -0.16516604312E+02  0.16921924856E+02  0.31962640964E+02  0.00000000000E+00 0. -1.
         -1    1    1    2    0  502 -0.14622986421E+02 -0.19877214984E+02 -0.13741719878E+02  0.28244827360E+02  0.00000000000E+00 0.  1.
<scales pt_clust_5="13000.00000" pt_clust_6="13000.00000" pt_clust_7="13000.00000" pt_clust_8="13000.00000" pt_clust_9="24.67662"></scales>
<clustering>
<clus scale="   24.677">  2  9  1 -1</clus>
<clus scale="   90.611">  5  6 -1 -1</clus>
<clus scale="   92.388">  7  8 -1 -1</clus>
<clus scale="  167.009">  2  5  1 -1</clus>
<clus scale="   24.677">  2  5  1 -1</clus>
</clustering>
</event>
<event>
 9    1  0.1671478E-005  0.1043079E+03  0.7546771E-02  0.1273999E+00
         -4   -1    0    0    0  501 -0.00000000000E+00  0.00000000000E+00  0.22574992513E+03  0.22574992513E+03  0.00000000000E+00 0.  1.
         21   -1    0    0  501  502  0.00000000000E+00 -0.00000000000E+00 -0.73331603444E+02  0.73331603444E+02  0.00000000000E+00 0. -1.
         23    2    1    2    0    0 -0.40841420372E+02 -0.48919054478E+01  0.10150592197E+03  0.14048890893E+03  0.87987095533E+02 0.  0.
         23    2    1    2    0    0  0.48637459993E+02  0.40752372215E+02  0.32806892977E+02  0.11767122323E+03  0.93508642343E+02 0.  0.
        -11    1    4    4    0    0 -0.22678617226E+02  0.33178544328E+02  0.19733861020E+02  0.44772321291E+02  0.00000000000E+00 0.  1.
         11    1    4    4    0    0  0.71316077219E+02  0.75738278875E+01  0.13073031957E+02  0.72898901935E+02  0.00000000000E+00 0. -1.
        -11    1    3    3    0    0 -0.13154218416E+02 -0.28182813369E+02  0.99505583410E+02  0.10425289234E+03  0.00000000000E+00 0.  1.
         11    1    3    3    0    0 -0.27687201956E+02  0.23290907921E+02  0.20003385616E+01  0.36236016590E+02  0.00000000000E+00 0. -1.
         -4    1    1    2    0  502 -0.77960396202E+01 -0.35860466768E+02  0.18105506737E+02  0.40921396418E+02  0.00000000000E+00 0.  1.
<scales pt_clust_5="13000.00000" pt_clust_6="13000.00000" pt_clust_7="13000.00000" pt_clust_8="13000.00000" pt_clust_9="36.69811"></scales>
<clustering>
<clus scale="   36.698">  2  9  1 -1</clus>
<clus scale="   87.987">  7  8 -1 -1</clus>
<clus scale="   93.509">  5  6 -1 -1</clus>
<clus scale="   99.388">  1  7  2 -1</clus>
<clus scale="   36.698">  2  5  1 -1</clus>
</clustering>
</event>
<event>
 9    1  0.1671478E-005  0.9787113E+02  0.7546771E-02  0.1285791E+00
          1   -1    0    0  502    0 -0.00000000000E+00  0.00000000000E+00  0.41550000287E+03  0.41550000287E+03  0.00000000000E+00 0. -1.
         21   -1    0    0  501  502  0.00000000000E+00 -0.00000000000E+00 -0.47961176264E+02  0.47961176264E+02  0.00000000000E+00 0. -1.
         23    2    1    2    0    0 -0.22413921468E+02  0.17134552159E+02  0.27594065746E+03  0.29272653332E+03  0.93539297183E+02 0.  0.
         23    2    1    2    0    0  0.40764724595E+02  0.13121674930E+02  0.89786262407E+02  0.13530197361E+03  0.91712104011E+02 0.  0.
        -11    1    4    4    0    0  0.61798963577E+02  0.33978901263E+02  0.71822874874E+02  0.10065884455E+03  0.00000000000E+00 0.  1.
         11    1    4    4    0    0 -0.21034238982E+02 -0.20857226332E+02  0.17963387533E+02  0.34643129066E+02  0.00000000000E+00 0. -1.
        -11    1    3    3    0    0  0.23051547623E+02  0.20579520496E+01  0.15352182507E+02  0.27772261740E+02  0.00000000000E+00 0.  1.
         11    1    3    3    0    0 -0.45465469091E+02  0.15076600109E+02  0.26058847496E+03  0.26495427159E+03  0.00000000000E+00 0. -1.
          1    1    1    2  501    0 -0.18350803127E+02 -0.30256227089E+02  0.18119067353E+01  0.35432672198E+02  0.00000000000E+00 0. -1.
<scales pt_clust_5="13000.00000" pt_clust_6="13000.00000" pt_clust_7="13000.00000" pt_clust_8="13000.00000" pt_clust_9="35.38631"></scales>
<clustering>
<clus scale="   35.386">  2  9  1 -1</clus>
<clus scale="   91.712">  5  6 -1 -1</clus>
<clus scale="   93.539">  7  8 -1 -1</clus>
<clus scale="   96.126">  2  5  1 -1</clus>
<clus scale="   35.386">  2  5  1 -1</clus>
</clustering>
</event>
<event>
 9    1  0.1671478E-005  0.1230132E+03  0.7546771E-02  0.1238524E+00
         21   -1    0    0  501  502  0.00000000000E+00  0.00000000000E+00  0.25935306512E+03  0.25935306512E+03  0.00000000000E+00 0.  1.
         -2   -1    0    0    0  501 -0.00000000000E+00 -0.00000000000E+00 -0.27108827342E+03  0.27108827342E+03  0.00000000000E+00 0.  1.
         23    2    1    2    0    0  0.63278135807E+02  0.41666657920E+01 -0.10911813104E+03  0.15510688093E+03  0.90165927136E+02 0.  0.
         23    2    1    2    0    0 -0.11702877640E+03  0.19823946214E+02 -0.92876549909E+02  0.17617786655E+03  0.91235211349E+02 0.  0.
        -11    1    4    4    0    0 -0.92396136484E+02  0.11499916360E+02 -0.15297242276E+02  0.94357298259E+02  0.00000000000E+00 0.  1.
         11    1    4    4    0    0 -0.24632639911E+02  0.83240298541E+01 -0.77579307634E+02  0.81820568287E+02  0.00000000000E+00 0. -1.
        -13    1    3    3    0    0 -0.66417204583E+01 -0.22909886003E+02 -0.62301267365E+02  0.66711492582E+02  0.00000000000E+00 0.  1.
         13    1    3    3    0    0  0.69919856266E+02  0.27076551795E+02 -0.46816863674E+02  0.88395388350E+02  0.00000000000E+00 0. -1.
         -2    1    1    2    0  502  0.53750640588E+02 -0.23990612006E+02  0.19025947265E+03  0.19915659106E+03  0.00000000000E+00 0.  1.
<scales pt_clust_5="13000.00000" pt_clust_6="13000.00000" pt_clust_7="13000.00000" pt_clust_8="13000.00000" pt_clust_9="58.86154"></scales>
<clustering>
<clus scale="   58.862">  1  9  2 -1</clus>
<clus scale="   90.166">  7  8 -1 -1</clus>
<clus scale="   91.235">  5  6 -1 -1</clus>
<clus scale="  122.222">  2  7  1 -1</clus>
<clus scale="   58.862">  1  5  2 -1</clus>
</clustering>
</event>
<event>
 9    1  0.1671478E-005  0.1057461E+03  0.7546771E-02  0.1269090E+00
         21   -1    0    0  501  502  0.00000000000E+00  0.00000000000E+00  0.83942453550E+02  0.83942453550E+02  0.00000000000E+00 0. -1.
          2   -1    0    0  502    0 -0.00000000000E+00 -0.00000000000E+00 -0.28525407503E+03  0.28525407503E+03  0.00000000000E+00 0. -1.
         23    2    1    2    0    0  0.33681549211E+02  0.38322557924E+02 -0.17335637229E+03  0.20427627131E+03  0.95253860826E+02 0.  0.
         23    2    1    2    0    0 -0.87918317227E+01 -0.32159006428E+02 -0.64301452705E+02  0.12043954332E+03  0.96226341386E+02 0.  0.
        -11    1    4    4    0    0 -0.51860727067E+02 -0.26732608815E+02 -0.34450389768E+02  0.67756894418E+02  0.00000000000E+00 0. -1.
         11    1    4    4    0    0  0.43068895345E+02 -0.54263976129E+01 -0.29851062937E+02  0.52682648906E+02  0.00000000000E+00 0.  1.
        -13    1    3    3    0    0  0.25495592134E+02 -0.28981134185E+02 -0.46454652672E+02  0.60398394944E+02  0.00000000000E+00 0.  1.
         13    1    3    3    0    0  0.81859570764E+01  0.67303692109E+02 -0.12690171962E+03  0.14387787636E+03  0.00000000000E+00 0. -1.
          2    1    1    2  501    0 -0.24889717488E+02 -0.61635514962E+01  0.36346203514E+02  0.44480713951E+02  0.00000000000E+00 0. -1.
<scales pt_clust_5="13000.00000" pt_clust_6="13000.00000" pt_clust_7="13000.00000" pt_clust_8="13000.00000" pt_clust_9="25.64152"></scales>
<clustering>
<clus scale="   25.642">  1  9  2 -1</clus>
<clus scale="   95.254">  7  8 -1 -1</clus>
<clus scale="   96.226">  5  6 -1 -1</clus>
<clus scale="  104.862">  2  7  1 -1</clus>
<clus scale="   25.642">  1  5  2 -1</clus>
</clustering>
</event>
<event>
 9    1  0.1671478E-005  0.1165197E+03  0.7546771E-02  0.1249341E+00
         21   -1    0    0  501  502  0.00000000000E+00  0.00000000000E+00  0.44431620950E+03  0.44431620950E+03  0.00000000000E+00 0.  1.
          1   -1    0    0  502    0 -0.00000000000E+00 -0.00000000000E+00 -0.79930449340E+02  0.79930449340E+02  0.00000000000E+00 0. -1.
         23    2    1    2    0    0  0.49830670104E+02 -0.46266978846E+02 -0.15060024594E+02  0.11575761698E+03  0.92462384424E+02 0.  0.
         23    2    1    2    0    0 -0.68078810979E+02  0.59651461839E+02  0.32689212435E+03  0.35126993445E+03  0.91318587846E+02 0.  0.
        -11    1    4    4    0    0 -0.37947447895E+02 -0.46479612274E+01  0.38473414077E+02  0.54238509715E+02  0.00000000000E+00 0.  1.
         11    1    4    4    0    0 -0.30131363084E+02  0.64299423066E+02  0.28841871027E+03  0.29703142474E+03  0.00000000000E+00 0. -1.
        -13    1    3    3    0    0  0.40344202536E+02 -0.13869397980E+02 -0.50972528876E+02  0.66469644038E+02  0.00000000000E+00 0. -1.
         13    1    3    3    0    0  0.94864675686E+01 -0.32397580866E+02  0.35912504281E+02  0.49287972941E+02  0.00000000000E+00 0.  1.
          1    1    1    2  501    0  0.18248140875E+02 -0.13384482993E+02  0.52553660404E+02  0.57219107405E+02  0.00000000000E+00 0. -1.
<scales pt_clust_5="13000.00000" pt_clust_6="13000.00000" pt_clust_7="13000.00000" pt_clust_8="13000.00000" pt_clust_9="22.63049"></scales>
<clustering>
<clus scale="   22.630">  1  9  2 -1</clus>
<clus scale="   91.319">  5  6 -1 -1</clus>
<clus scale="   92.462">  7  8 -1 -1</clus>
<clus scale="  115.614">  1  5  2 -1</clus>
<clus scale="   22.630">  1  5  2 -1</clus>
</clustering>
</event>
<event>
 9    1  0.1671478E-005  0.1080238E+03  0.7546771E-02  0.1264696E+00
          2   -1    0    0  502    0 -0.00000000000E+00  0.00000000000E+00  0.11696888328E+04  0.11696888328E+04  0.00000000000E+00 0. -1.
         21   -1    0    0  501  502  0.00000000000E+00 -0.00000000000E+00 -0.17970402758E+02  0.17970402758E+02  0.00000000000E+00 0.  1.
         23    2    1    2    0    0  0.36887692444E+02  0.12851348318E+02  0.49408376757E+03  0.50414117961E+03  0.92269716553E+02 0.  0.
         23    2    1    2    0    0 -0.91272312136E+02  0.20693668045E+01  0.42635592984E+03  0.44546309010E+03  0.91230852721E+02 0.  0.
        -11    1    4    4    0    0 -0.68119729645E+02 -0.31376462576E+02  0.35921739443E+03  0.36696309955E+03  0.00000000000E+00 0.  1.
         11    1    4    4    0    0 -0.23152582492E+02  0.33445829380E+02  0.67138535412E+02  0.78499990549E+02  0.00000000000E+00 0. -1.
        -13    1    3    3    0    0 -0.20661779153E+02  0.32754426038E+02  0.16636131680E+03  0.17080939456E+03  0.00000000000E+00 0.  1.
         13    1    3    3    0    0  0.57549471597E+02 -0.19903077720E+02  0.32772245078E+03  0.33333178505E+03  0.00000000000E+00 0. -1.
          2    1    1    2  501    0  0.54384619692E+02 -0.14920715123E+02  0.23127873263E+03  0.23805496585E+03  0.00000000000E+00 0. -1.
<scales pt_clust_5="13000.00000" pt_clust_6="13000.00000" pt_clust_7="13000.00000" pt_clust_8="13000.00000" pt_clust_9="56.39431"></scales>
<clustering>
<clus scale="   56.394">  2  9  1 -1</clus>
<clus scale="   91.231">  5  6 -1 -1</clus>
<clus scale="   92.270">  7  8 -1 -1</clus>
<clus scale="  107.138">  2  5  1 -1</clus>
<clus scale="   56.394">  2  5  1 -1</clus>
</clustering>
</event>
<event>
 9    1  0.1671478E-005  0.1442968E+03  0.7546771E-02  0.1210374E+00
         21   -1    0    0  501  502  0.00000000000E+00  0.00000000000E+00  0.15503487456E+03  0.15503487456E+03  0.00000000000E+00 0. -1.
          1   -1    0    0  502    0 -0.00000000000E+00 -0.00000000000E+00 -0.73226084586E+03  0.73226084586E+03  0.00000000000E+00 0. -1.
         23    2    1    2    0    0  0.34596007237E+02 -0.80269426740E+02 -0.38559912959E+03  0.40607321112E+03  0.92567269935E+02 0.  0.
         23    2    1    2    0    0 -0.21041887438E+02  0.12480302928E+03 -0.31184843504E+03  0.35230320345E+03  0.10416114235E+03 0.  0.
        -13    1    3    3    0    0 -0.23271620719E+02  0.53660605047E+01 -0.78043410666E+02  0.81615788207E+02  0.00000000000E+00 0.  1.
         13    1    3    3    0    0  0.57867627956E+02 -0.85635487245E+02 -0.30755571893E+03  0.32445742292E+03  0.00000000000E+00 0. -1.
        -13    1    4    4    0    0  0.15563406246E+02 -0.12870198135E+02 -0.25983270592E+02  0.32908843260E+02  0.00000000000E+00 0.  1.
         13    1    4    4    0    0 -0.36605293684E+02  0.13767322742E+03 -0.28586516445E+03  0.31939436019E+03  0.00000000000E+00 0. -1.
          1    1    1    2  501    0 -0.13554119799E+02 -0.44533602545E+02  0.12022159333E+03  0.12891930585E+03  0.00000000000E+00 0. -1.
<scales pt_clust_5="13000.00000" pt_clust_6="13000.00000" pt_clust_7="13000.00000" pt_clust_8="13000.00000" pt_clust_9="46.55057"></scales>
<clustering>
<clus scale="   46.551">  1  9  2 -1</clus>
<clus scale="   92.567">  5  6 -1 -1</clus>
<clus scale="  104.161">  7  8 -1 -1</clus>
<clus scale="  136.164">  2  5  1 -1</clus>
<clus scale="   46.551">  1  5  2 -1</clus>
</clustering>
</event>
<event>
 9    1  0.1671478E-005  0.9627006E+02  0.7546771E-02  0.1289250E+00
          3   -1    0    0  502    0 -0.00000000000E+00  0.00000000000E+00  0.49567490077E+03  0.49567490077E+03  0.00000000000E+00 0. -1.
         21   -1    0    0  501  502  0.00000000000E+00 -0.00000000000E+00 -0.74993424867E+02  0.74993424867E+02  0.00000000000E+00 0. -1.
         23    2    1    2    0    0  0.26762193206E+02 -0.14206433603E+02  0.23162306821E+03  0.25016394714E+03  0.89524951742E+02 0.  0.
         23    2    1    2    0    0 -0.29707497429E+02 -0.47217354631E+02  0.22510898258E+03  0.24922183837E+03  0.91243940639E+02 0.  0.
        -13    1    3    3    0    0  0.38762572403E+02 -0.43885139249E+02  0.11264210450E+03  0.12695151111E+03  0.00000000000E+00 0. -1.
         13    1    3    3    0    0 -0.12000379196E+02  0.29678705646E+02  0.11898096370E+03  0.12321243603E+03  0.00000000000E+00 0.  1.
        -13    1    4    4    0    0 -0.40410323734E+02  0.70427544994E+01  0.15266646921E+03  0.15808113574E+03  0.00000000000E+00 0.  1.
         13    1    4    4    0    0  0.10702826305E+02 -0.54260109130E+02  0.72442513363E+02  0.91140702631E+02  0.00000000000E+00 0. -1.
          3    1    1    2  501    0  0.29453042223E+01  0.61423788233E+02 -0.36050574875E+02  0.71282540125E+02  0.00000000000E+00 0. -1.
<scales pt_clust_5="13000.00000" pt_clust_6="13000.00000" pt_clust_7="13000.00000" pt_clust_8="13000.00000" pt_clust_9="61.49436"></scales>
<clustering>
<clus scale="   61.494">  2  9  1 -1</clus>
<clus scale="   89.525">  5  6 -1 -1</clus>
<clus scale="   91.244">  7  8 -1 -1</clus>
<clus scale="   94.642">  1  5  2 -1</clus>
<clus scale="   61.494">  2  5  1 -1</clus>
</clustering>
</event>
<event>
 9    1  0.1671478E-005  0.2576230E+03  0.7546771E-02  0.1116086E+00
         21   -1    0    0  501  502  0.00000000000E+00  0.00000000000E+00  0.36093317386E+03  0.36093317386E+03  0.00000000000E+00 0. -1.
          2   -1    0    0  502    0 -0.00000000000E+00 -0.00000000000E+00 -0.16890991840E+04  0.16890991840E+04  0.00000000000E+00 0. -1.
         23    2    1    2    0    0 -0.17027618749E+03 -0.89192961871E+02 -0.47491008412E+03  0.52047449820E+03  0.91677427953E+02 0.  0.
         23    2    1    2    0    0  0.40137471730E+03  0.10827133354E+03 -0.11066092250E+04  0.11861071226E+04  0.97168843023E+02 0.  0.
        -11    1    3    3    0    0 -0.15584822993E+03 -0.39983496205E+02 -0.34003852738E+03  0.37618286889E+03  0.00000000000E+00 0.  1.
         11    1    3    3    0    0 -0.14427957565E+02 -0.49209465667E+02 -0.13487155674E+03  0.14429162931E+03  0.00000000000E+00 0. -1.
        -13    1    4    4    0    0  0.11305637518E+03  0.73481495305E+02 -0.40140131409E+03  0.42344337175E+03  0.00000000000E+00 0. -1.
         13    1    4    4    0    0  0.28831834211E+03  0.34789838235E+02 -0.70520791088E+03  0.76266375082E+03  0.00000000000E+00 0.  1.
          2    1    1    2  501    0 -0.23109852980E+03 -0.19078371668E+02  0.25335329894E+03  0.34345073712E+03  0.00000000000E+00 0. -1.
<scales pt_clust_5="13000.00000" pt_clust_6="13000.00000" pt_clust_7="13000.00000" pt_clust_8="13000.00000" pt_clust_9="238.59552"></scales>
<clustering>
<clus scale="   91.677">  5  6 -1 -1</clus>
<clus scale="   97.169">  7  8 -1 -1</clus>
<clus scale="  212.965">  2  5  1 -1</clus>
<clus scale="  238.596">  1  9  2 -1</clus>
<clus scale="  238.596">  1  5  2 -1</clus>
</clustering>
</event>
<event>
 9    1  0.1671478E-005  0.1041839E+03  0.7546771E-02  0.1272131E+00
         21   -1    0    0  501  502  0.00000000000E+00  0.00000000000E+00  0.82166142754E+02  0.82166142754E+02  0.00000000000E+00 0. -1.
          1   -1    0    0  502    0 -0.00000000000E+00 -0.00000000000E+00 -0.40829000661E+03  0.40829000661E+03  0.00000000000E+00 0. -1.
         23    2    1    2    0    0  0.35232793604E+02  0.18194486416E+02 -0.25149939413E+03  0.27029013154E+03  0.90732689148E+02 0.  0.
         23    2    1    2    0    0 -0.75663638196E+02 -0.20248428866E+02 -0.11238347650E+03  0.16480705770E+03  0.91631520011E+02 0.  0.
        -11    1    4    4    0    0 -0.28754482053E+02 -0.25060122409E+02 -0.11128383625E+03  0.11763894841E+03  0.00000000000E+00 0. -1.
         11    1    4    4    0    0 -0.46909156144E+02  0.48116935433E+01 -0.10996402530E+01  0.47168109285E+02  0.00000000000E+00 0.  1.
        -11    1    3    3    0    0  0.54150736517E+02 -0.15004236272E+02 -0.18763031503E+03  0.19586363749E+03  0.00000000000E+00 0.  1.
         11    1    3    3    0    0 -0.18917942913E+02  0.33198722688E+02 -0.63869079098E+02  0.74426494053E+02  0.00000000000E+00 0. -1.
          1    1    1    2  501    0  0.40430844592E+02  0.20539424501E+01  0.37759006772E+02  0.55358960128E+02  0.00000000000E+00 0. -1.
<scales pt_clust_5="13000.00000" pt_clust_6="13000.00000" pt_clust_7="13000.00000" pt_clust_8="13000.00000" pt_clust_9="40.48298"></scales>
<clustering>
<clus scale="   40.483">  1  9  2 -1</clus>
<clus scale="   90.733">  7  8 -1 -1</clus>
<clus scale="   91.632">  5  6 -1 -1</clus>
<clus scale="  103.394">  2  7  1 -1</clus>
<clus scale="   40.483">  1  5  2 -1</clus>
</clustering>
</event>
<event>
 9    1  0.1671478E-005  0.1031679E+03  0.7546771E-02  0.1275813E+00
          1   -1    0    0  502    0 -0.00000000000E+00  0.00000000000E+00  0.48174822220E+03  0.48174822220E+03  0.00000000000E+00 0. -1.
         21   -1    0    0  501  502  0.00000000000E+00 -0.00000000000E+00 -0.87768056374E+02  0.87768056374E+02  0.00000000000E+00 0.  1.
         23    2    1    2    0    0  0.96213634064E+01 -0.46626471848E+02  0.41616420656E+03  0.42762332826E+03  0.86037582116E+02 0.  0.
         23    2    1    2    0    0 -0.26247333825E+01  0.69050948006E+02 -0.74643023217E+01  0.11417146656E+03  0.90578614040E+02 0.  0.
        -11    1    4    4    0    0  0.39265036415E+02  0.17167608579E+02  0.12365475660E+02  0.44602408649E+02  0.00000000000E+00 0. -1.
         11    1    4    4    0    0 -0.41889769798E+02  0.51883339427E+02 -0.19829777981E+02  0.69569057910E+02  0.00000000000E+00 0.  1.
        -13    1    3    3    0    0  0.43704061445E+02 -0.35320491054E+02  0.32156968769E+03  0.32644240858E+03  0.00000000000E+00 0. -1.
         13    1    3    3    0    0 -0.34082698038E+02 -0.11305980794E+02  0.94594518868E+02  0.10118091968E+03  0.00000000000E+00 0.  1.
          1    1    1    2  501    0 -0.69966300240E+01 -0.22424476158E+02 -0.14719738414E+02  0.27721483756E+02  0.00000000000E+00 0. -1.
<scales pt_clust_5="13000.00000" pt_clust_6="13000.00000" pt_clust_7="13000.00000" pt_clust_8="13000.00000" pt_clust_9="23.49064"></scales>
<clustering>
<clus scale="   23.491">  2  9  1 -1</clus>
<clus scale="   86.038">  7  8 -1 -1</clus>
<clus scale="   90.579">  5  6 -1 -1</clus>
<clus scale="   99.205">  1  7  2 -1</clus>
<clus scale="   23.491">  2  5  1 -1</clus>
</clustering>
</event>
<event>
 9    1  0.1671478E-005  0.1617614E+03  0.7546771E-02  0.1187157E+00
          2   -1    0    0  502    0 -0.00000000000E+00  0.00000000000E+00  0.19943832296E+03  0.19943832296E+03  0.00000000000E+00 0. -1.
         21   -1    0    0  501  502  0.00000000000E+00 -0.00000000000E+00 -0.16426152144E+03  0.16426152144E+03  0.00000000000E+00 0. -1.
         23    2    1    2    0    0  0.45394454302E+02  0.13113701972E+03  0.70691751036E+02  0.18097288366E+03  0.92175303279E+02 0.  0.
         23    2    1    2    0    0 -0.51912697842E+02 -0.11095472591E+03 -0.46777434283E+02  0.15871329701E+03  0.89419812632E+02 0.  0.
        -11    1    3    3    0    0  0.20969874835E+02  0.40367916427E+02 -0.20602520887E+02  0.49937643058E+02  0.00000000000E+00 0.  1.
         11    1    3    3    0    0  0.24424579467E+02  0.90769103289E+02  0.91294271922E+02  0.13103524060E+03  0.00000000000E+00 0. -1.
        -13    1    4    4    0    0 -0.74283441902E+02 -0.75539287036E+02 -0.16954658100E+02  0.10729246972E+03  0.00000000000E+00 0. -1.
         13    1    4    4    0    0  0.22370744059E+02 -0.35415438871E+02 -0.29822776182E+02  0.51420827292E+02  0.00000000000E+00 0.  1.
          2    1    1    2  501    0  0.65182435405E+01 -0.20182293809E+02  0.11262484772E+02  0.24013663725E+02  0.00000000000E+00 0. -1.
<scales pt_clust_5="13000.00000" pt_clust_6="13000.00000" pt_clust_7="13000.00000" pt_clust_8="13000.00000" pt_clust_9="21.20879"></scales>
<clustering>
<clus scale="   21.209">  2  9  1 -1</clus>
<clus scale="   89.420">  7  8 -1 -1</clus>
<clus scale="   92.175">  5  6 -1 -1</clus>
<clus scale="  160.207">  2  7  1 -1</clus>
<clus scale="   21.209">  2  5  1 -1</clus>
</clustering>
</event>
<event>
 9    1  0.1671478E-005  0.1059780E+03  0.7546771E-02  0.1270133E+00
         21   -1    0    0  501  502  0.00000000000E+00  0.00000000000E+00  0.56197958003E+02  0.56197958003E+02  0.00000000000E+00 0. -1.
          1   -1    0    0  502    0 -0.00000000000E+00 -0.00000000000E+00 -0.60441926986E+03  0.60441926986E+03  0.00000000000E+00 0. -1.
         23    2    1    2    0    0  0.87935192999E+01  0.52223797277E+02 -0.51971803212E+03  0.53044354741E+03  0.91972132169E+02 0.  0.
         23    2    1    2    0    0 -0.27711765017E+02 -0.45663944382E+02 -0.10110999934E+02  0.10298530707E+03  0.87467727849E+02 0.  0.
        -11    1    4    4    0    0 -0.53603565114E+02 -0.17141742510E+02 -0.25137738663E+02  0.61636737700E+02  0.00000000000E+00 0.  1.
         11    1    4    4    0    0  0.25891800097E+02 -0.28522201871E+02  0.15026738729E+02  0.41348569367E+02  0.00000000000E+00 0. -1.
        -11    1    3    3    0    0  0.42491251019E+02  0.57099928237E+02 -0.31759364914E+03  0.32547140304E+03  0.00000000000E+00 0. -1.
         11    1    3    3    0    0 -0.33697731719E+02 -0.48761309601E+01 -0.20212438297E+03  0.20497214437E+03  0.00000000000E+00 0.  1.
          1    1    1    2  501    0  0.18918245717E+02 -0.65598528955E+01 -0.18392279805E+02  0.27188373387E+02  0.00000000000E+00 0. -1.
<scales pt_clust_5="13000.00000" pt_clust_6="13000.00000" pt_clust_7="13000.00000" pt_clust_8="13000.00000" pt_clust_9="20.02328"></scales>
<clustering>
<clus scale="   20.023">  1  9  2 -1</clus>
<clus scale="   87.468">  5  6 -1 -1</clus>
<clus scale="   91.972">  7  8 -1 -1</clus>
<clus scale="  102.093">  1  5  2 -1</clus>
<clus scale="   20.023">  1  5  2 -1</clus>
</clustering>
</event>
<event>
 9    1  0.1671478E-005  0.1017057E+03  0.7546771E-02  0.1277338E+00
         21   -1    0    0  501  502  0.00000000000E+00  0.00000000000E+00  0.64857670706E+02  0.64857670706E+02  0.00000000000E+00 0. -1.
          2   -1    0    0  502    0 -0.00000000000E+00 -0.00000000000E+00 -0.33048655164E+03  0.33048655164E+03  0.00000000000E+00 0. -1.
         23    2    1    2    0    0 -0.11732982420E+02 -0.45693406497E+02 -0.17659637061E+03  0.20372088162E+03  0.89946479752E+02 0.  0.
         23    2    1    2    0    0 -0.33409540559E+02  0.43031431060E+02 -0.99105774310E+02  0.14529403962E+03  0.91216785673E+02 0.  0.
        -13    1    4    4    0    0  0.52084157027E+00  0.36802590943E+02 -0.10412010679E+03  0.11043413700E+03  0.00000000000E+00 0. -1.
         13    1    4    4    0    0 -0.33930382129E+02  0.62288401168E+01  0.50143324830E+01  0.34859902623E+02  0.00000000000E+00 0.  1.
        -13    1    3    3    0    0  0.18630245658E+02 -0.14628091959E+02 -0.19654228429E+01  0.23768256448E+02  0.00000000000E+00 0.  1.
         13    1    3    3    0    0 -0.30363228077E+02 -0.31065314538E+02 -0.17463094777E+03  0.17995262517E+03  0.00000000000E+00 0. -1.
          2    1    1    2  501    0  0.45142522979E+02  0.26619754375E+01  0.10073263984E+02  0.46329301111E+02  0.00000000000E+00 0. -1.
<scales pt_clust_5="13000.00000" pt_clust_6="13000.00000" pt_clust_7="13000.00000" pt_clust_8="13000.00000" pt_clust_9="45.22094"></scales>
<clustering>
<clus scale="   45.221">  1  9  2 -1</clus>
<clus scale="   89.946">  7  8 -1 -1</clus>
<clus scale="   91.217">  5  6 -1 -1</clus>
<clus scale="  100.568">  2  7  1 -1</clus>
<clus scale="   45.221">  1  5  2 -1</clus>
</clustering>
</event>
<event>
 9    1  0.1671478E-005  0.1474886E+03  0.7546771E-02  0.1205408E+00
         21   -1    0    0  501  502  0.00000000000E+00  0.00000000000E+00  0.36364233376E+02  0.36364233376E+02  0.00000000000E+00 0.  1.
          1   -1    0    0  502    0 -0.00000000000E+00 -0.00000000000E+00 -0.97145284923E+03  0.97145284923E+03  0.00000000000E+00 0. -1.
         23    2    1    2    0    0  0.96866495694E+02  0.28982198541E+02 -0.47773585576E+03  0.49809121805E+03  0.98184661716E+02 0.  0.
         23    2    1    2    0    0 -0.12788058948E+03  0.16073388221E+02 -0.40366312132E+03  0.43308085674E+03  0.89461242924E+02 0.  0.
        -11    1    3    3    0    0  0.82109951526E+01  0.49155077592E+02 -0.18134188646E+03  0.18806520646E+03  0.00000000000E+00 0. -1.
         11    1    3    3    0    0  0.88655500542E+02 -0.20172879051E+02 -0.29639396930E+03  0.31002601159E+03  0.00000000000E+00 0.  1.
        -13    1    4    4    0    0 -0.63167236451E+02  0.49335687925E+02 -0.16268408877E+03  0.18135661720E+03  0.00000000000E+00 0. -1.
         13    1    4    4    0    0 -0.64713353028E+02 -0.33262299704E+02 -0.24097903256E+03  0.25172423954E+03  0.00000000000E+00 0.  1.
          1    1    1    2  501    0  0.31014093784E+02 -0.45055586762E+02 -0.53689638766E+02  0.76645007812E+02  0.00000000000E+00 0. -1.
<scales pt_clust_5="13000.00000" pt_clust_6="13000.00000" pt_clust_7="13000.00000" pt_clust_8="13000.00000" pt_clust_9="54.69808"></scales>
<clustering>
<clus scale="   54.698">  1  9  2 -1</clus>
<clus scale="   89.461">  7  8 -1 -1</clus>
<clus scale="   98.185">  5  6 -1 -1</clus>
<clus scale="  141.831">  1  7  2 -1</clus>
<clus scale="   54.698">  1  5  2 -1</clus>
</clustering>
</event>
<event>
 9    1  0.1671478E-005  0.1262996E+03  0.7546771E-02  0.1233139E+00
         -1   -1    0    0    0  501 -0.00000000000E+00  0.00000000000E+00  0.48910198386E+03  0.48910198386E+03  0.00000000000E+00 0.  1.
         21   -1    0    0  501  502  0.00000000000E+00 -0.00000000000E+00 -0.14179096146E+03  0.14179096146E+03  0.00000000000E+00 0.  1.
         23    2    1    2    0    0 -0.39769949147E+02  0.83149505012E+02  0.42384999049E+03  0.44330624509E+03  0.91521163992E+02 0.  0.
         23    2    1    2    0    0  0.31373750433E+02 -0.45704544631E+02 -0.61802800253E+01  0.10744329004E+03  0.91829445693E+02 0.  0.
        -13    1    4    4    0    0  0.11005082561E+02  0.27642783462E+02 -0.95434938901E+01  0.31246017271E+02  0.00000000000E+00 0.  1.
         13    1    4    4    0    0  0.20368667873E+02 -0.73347328092E+02  0.33632138649E+01  0.76197272764E+02  0.00000000000E+00 0. -1.
        -13    1    3    3    0    0 -0.27382368030E+02 -0.75026139411E+01  0.42337290336E+02  0.50975773147E+02  0.00000000000E+00 0. -1.
         13    1    3    3    0    0 -0.12387581117E+02  0.90652118953E+02  0.38151270016E+03  0.39233047194E+03  0.00000000000E+00 0.  1.
         -1    1    1    2    0  502  0.83961987137E+01 -0.37444960381E+02 -0.70358688062E+02  0.80143410188E+02  0.00000000000E+00 0.  1.
<scales pt_clust_5="13000.00000" pt_clust_6="13000.00000" pt_clust_7="13000.00000" pt_clust_8="13000.00000" pt_clust_9="38.37475"></scales>
<clustering>
<clus scale="   38.375">  2  9  1 -1</clus>
<clus scale="   91.521">  7  8 -1 -1</clus>
<clus scale="   91.829">  5  6 -1 -1</clus>
<clus scale="  126.076">  1  7  2 -1</clus>
<clus scale="   38.375">  2  5  1 -1</clus>
</clustering>
</event>
<event>
 9    1  0.1671478E-005  0.2377847E+03  0.7546771E-02  0.1121399E+00
         -2   -1    0    0    0  501 -0.00000000000E+00  0.00000000000E+00  0.77009443128E+03  0.77009443128E+03  0.00000000000E+00 0.  1.
         21   -1    0    0  501  502  0.00000000000E+00 -0.00000000000E+00 -0.11112867898E+03  0.11112867898E+03  0.00000000000E+00 0.  1.
         23    2    1    2    0    0  0.19997102450E+03 -0.10486038190E+03  0.39237091409E+03  0.46195634701E+03  0.92003380276E+02 0.  0.
         23    2    1    2    0    0 -0.19497521282E+03  0.83896048228E+02  0.30068885583E+03  0.37893236778E+03  0.90122532161E+02 0.  0.
        -11    1    4    4    0    0 -0.18325849838E+03  0.43321476448E+02  0.24882703864E+03  0.31205019261E+03  0.00000000000E+00 0. -1.
         11    1    4    4    0    0 -0.11716714445E+02  0.40574571780E+02  0.51861817193E+02  0.66882175167E+02  0.00000000000E+00 0.  1.
        -11    1    3    3    0    0  0.18707743552E+02 -0.49514717925E+02  0.66671868141E+02  0.85128285320E+02  0.00000000000E+00 0. -1.
         11    1    3    3    0    0  0.18126328095E+03 -0.55345663970E+02  0.32569904595E+03  0.37682806169E+03  0.00000000000E+00 0.  1.
         -2    1    1    2    0  502 -0.49958116784E+01  0.20964333668E+02 -0.34094017628E+02  0.40334395477E+02  0.00000000000E+00 0.  1.
<scales pt_clust_5="13000.00000" pt_clust_6="13000.00000" pt_clust_7="13000.00000" pt_clust_8="13000.00000" pt_clust_9="21.55137"></scales>
<clustering>
<clus scale="   21.551">  2  9  1 -1</clus>
<clus scale="   90.123">  5  6 -1 -1</clus>
<clus scale="   92.003">  7  8 -1 -1</clus>
<clus scale="  237.063">  2  5  1 -1</clus>
<clus scale="   21.551">  2  5  1 -1</clus>
</clustering>
</event>
<event>
 9    1  0.1671478E-005  0.9437114E+02  0.7546771E-02  0.1293100E+00
         -1   -1    0    0    0  501 -0.00000000000E+00  0.00000000000E+00  0.10009706432E+03  0.10009706432E+03  0.00000000000E+00 0.  1.
         21   -1    0    0  501  502  0.00000000000E+00 -0.00000000000E+00 -0.22529067422E+03  0.22529067422E+03  0.00000000000E+00 0.  1.
         23    2    1    2    0    0 -0.18931319421E+02  0.53397425746E+01  0.30118596667E+02  0.96697450145E+02  0.89757224186E+02 0.  0.
         23    2    1    2    0    0  0.59025148106E+02  0.26710386302E+02 -0.13071913240E+03  0.17177328605E+03  0.90670598204E+02 0.  0.
        -11    1    3    3    0    0 -0.28699393325E+02 -0.36085605346E+02  0.29439817948E+01  0.46200574879E+02  0.00000000000E+00 0. -1.
         11    1    3    3    0    0  0.97680739040E+01  0.41425347920E+02  0.27174614872E+02  0.50496875265E+02  0.00000000000E+00 0.  1.
        -11    1    4    4    0    0  0.82789157946E+02  0.28610549727E+02 -0.10344033869E+03  0.13554523930E+03  0.00000000000E+00 0.  1.
         11    1    4    4    0    0 -0.23764009840E+02 -0.19001634244E+01 -0.27278793717E+02  0.36228046751E+02  0.00000000000E+00 0. -1.
         -1    1    1    2    0  502 -0.40093828685E+02 -0.32050128877E+02 -0.24593074154E+02  0.56917002346E+02  0.00000000000E+00 0.  1.
<scales pt_clust_5="13000.00000" pt_clust_6="13000.00000" pt_clust_7="13000.00000" pt_clust_8="13000.00000" pt_clust_9="51.32958"></scales>
<clustering>
<clus scale="   51.330">  2  9  1 -1</clus>
<clus scale="   89.757">  5  6 -1 -1</clus>
<clus scale="   90.671">  7  8 -1 -1</clus>
<clus scale="   93.494">  1  5  2 -1</clus>
<clus scale="   51.330">  2  5  1 -1</clus>
</clustering>
</event>
<event>
 9    1  0.1671478E-005  0.1135734E+03  0.7546771E-02  0.1258435E+00
          2   -1    0    0  502    0 -0.00000000000E+00  0.00000000000E+00  0.20526555476E+03  0.20526555476E+03  0.00000000000E+00 0. -1.
         21   -1    0    0  501  502  0.00000000000E+00 -0.00000000000E+00 -0.19409605774E+03  0.19409605774E+03  0.00000000000E+00 0.  1.
         23    2    1    2    0    0  0.22421056618E+02 -0.47241281123E+02  0.14727975433E+03  0.18092473281E+03  0.91148178718E+02 0.  0.
         23    2    1    2    0    0  0.14966052187E+02  0.43524694694E+02 -0.14176554145E+03  0.18044225957E+03  0.10170328672E+03 0.  0.
        -11    1    4    4    0    0 -0.29316038270E+02 -0.79046744671E+01 -0.95561515369E+01  0.31831336926E+02  0.00000000000E+00 0. -1.
         11    1    4    4    0    0  0.44282090457E+02  0.51429369161E+02 -0.13220938992E+03  0.14861092265E+03  0.00000000000E+00 0.  1.
        -11    1    3    3    0    0  0.41122555842E+02  0.11675628900E+02  0.51495515528E+02  0.66926624214E+02  0.00000000000E+00 0.  1.
         11    1    3    3    0    0 -0.18701499224E+02 -0.58916910023E+02  0.95784238805E+02  0.11399810859E+03  0.00000000000E+00 0. -1.
          2    1    1    2  501    0 -0.37387108805E+02  0.37165864292E+01  0.56552841331E+01  0.37994620120E+02  0.00000000000E+00 0. -1.
<scales pt_clust_5="13000.00000" pt_clust_6="13000.00000" pt_clust_7="13000.00000" pt_clust_8="13000.00000" pt_clust_9="37.57140"></scales>
<clustering>
<clus scale="   37.571">  2  9  1 -1</clus>
<clus scale="   91.148">  7  8 -1 -1</clus>
<clus scale="  101.703">  5  6 -1 -1</clus>
<clus scale="  104.227">  1  7  2 -1</clus>
<clus scale="   37.571">  2  5  1 -1</clus>
</clustering>
</event>
<event>
 9    1  0.1671478E-005  0.1315422E+03  0.7546771E-02  0.1235607E+00
         21   -1    0    0  501  502  0.00000000000E+00  0.00000000000E+00  0.63022990351E+02  0.63022990351E+02  0.00000000000E+00 0.  1.
          1   -1    0    0  502    0 -0.00000000000E+00 -0.00000000000E+00 -0.37842597645E+03  0.37842597645E+03  0.00000000000E+00 0. -1.
         23    2    1    2    0    0 -0.51967655342E+02  0.38669856678E+02 -0.22291914177E+03  0.24896958492E+03  0.89982861873E+02 0.  0.
         23    2    1    2    0    0  0.35621810907E+02 -0.12881769289E+02 -0.10123857881E+03  0.16071686534E+03  0.11893614914E+03 0.  0.
        -11    1    4    4    0    0 -0.10969636112E+02 -0.48577897206E+02 -0.87118663641E+02  0.10034842584E+03  0.00000000000E+00 0. -1.
         11    1    4    4    0    0  0.46591447018E+02  0.35696127916E+02 -0.14119915171E+02  0.60368439502E+02  0.00000000000E+00 0.  1.
        -13    1    3    3    0    0 -0.33868921182E+02 -0.58344329076E+01 -0.18388072086E+03  0.18706486558E+03  0.00000000000E+00 0. -1.
         13    1    3    3    0    0 -0.18098734161E+02  0.44504289586E+02 -0.39038420906E+02  0.61904719340E+02  0.00000000000E+00 0.  1.
          1    1    1    2  501    0  0.16345844436E+02 -0.25788087389E+02  0.87547344788E+01  0.31762516545E+02  0.00000000000E+00 0. -1.
<scales pt_clust_5="13000.00000" pt_clust_6="13000.00000" pt_clust_7="13000.00000" pt_clust_8="13000.00000" pt_clust_9="30.53215"></scales>
<clustering>
<clus scale="   30.532">  1  9  2 -1</clus>
<clus scale="   89.983">  7  8 -1 -1</clus>
<clus scale="  106.087">  2  7  1 -1</clus>
<clus scale="  118.936">  5  6 -1 -1</clus>
<clus scale="   30.532">  1  5  2 -1</clus>
</clustering>
</event>
<event>
 9    1  0.1671478E-005  0.2698493E+03  0.7546771E-02  0.1140206E+00
         21   -1    0    0  501  502  0.00000000000E+00  0.00000000000E+00  0.20280440751E+03  0.20280440751E+03  0.00000000000E+00 0. -1.
          2   -1    0    0  502    0 -0.00000000000E+00 -0.00000000000E+00 -0.60149186980E+03  0.60149186980E+03  0.00000000000E+00 0. -1.
         23    2    1    2    0    0 -0.48455669710E+02  0.37748841777E+01 -0.21434591582E+03  0.23749320115E+03  0.89981371894E+02 0.  0.
         23    2    1    2    0    0 -0.17397118530E+03  0.16194597143E+03 -0.53885300814E+02  0.26028074444E+03  0.91378166468E+02 0.  0.
        -11    1    4    4    0    0 -0.31919875287E+02  0.11965982799E+02  0.21590167620E+02  0.40350942003E+02  0.00000000000E+00 0.  1.
         11    1    4    4    0    0 -0.14205131001E+03  0.14997998863E+03 -0.75475468434E+02  0.21992980244E+03  0.00000000000E+00 0. -1.
        -11    1    3    3    0    0  0.15343943580E+02  0.27970213640E+02 -0.47343698491E+02  0.57089361902E+02  0.00000000000E+00 0.  1.
         11    1    3    3    0    0 -0.63799613289E+02 -0.24195329462E+02 -0.16700221733E+03  0.18040383925E+03  0.00000000000E+00 0. -1.
          2    1    1    2  501    0  0.22242685501E+03 -0.16572085560E+03 -0.13045624565E+03  0.30652233171E+03  0.00000000000E+00 0. -1.
<scales pt_clust_5="13000.00000" pt_clust_6="13000.00000" pt_clust_7="13000.00000" pt_clust_8="13000.00000" pt_clust_9="253.90694"></scales>
<clustering>
<clus scale="   89.981">  7  8 -1 -1</clus>
<clus scale="   91.378">  5  6 -1 -1</clus>
<clus scale="  102.269">  2  7  1 -1</clus>
<clus scale="  253.907">  1  9  2 -1</clus>
<clus scale="  253.907">  1  5  2 -1</clus>
</clustering>
</event>
<event>
 9    1  0.1671478E-005  0.1477041E+03  0.7546771E-02  0.1208731E+00
         21   -1    0    0  501  502  0.00000000000E+00  0.00000000000E+00  0.32799965698E+03  0.32799965698E+03  0.00000000000E+00 0. -1.
          2   -1    0    0  502    0 -0.00000000000E+00 -0.00000000000E+00 -0.15310124237E+03  0.15310124237E+03  0.00000000000E+00 0. -1.
         23    2    1    2    0    0  0.11171220888E+03 -0.25648619340E+02 -0.67797598514E+02  0.17476081424E+03  0.11316960079E+03 0.  0.
         23    2    1    2    0    0 -0.26478292382E+02  0.18082108669E+02  0.16294535768E+03  0.18936897907E+03  0.91001967142E+02 0.  0.
        -11    1    4    4    0    0 -0.44030659815E+02  0.43442787996E+02  0.81753275978E+02  0.10251620831E+03  0.00000000000E+00 0.  1.
         11    1    4    4    0    0  0.17552367432E+02 -0.25360679326E+02  0.81192081700E+02  0.86852770763E+02  0.00000000000E+00 0. -1.
        -11    1    3    3    0    0  0.24375026672E+02 -0.56743478541E+01  0.32015252209E+02  0.40636394068E+02  0.00000000000E+00 0.  1.
         11    1    3    3    0    0  0.87337182210E+02 -0.19974271486E+02 -0.99812850723E+02  0.13412442017E+03  0.00000000000E+00 0. -1.
          2    1    1    2  501    0 -0.85233916499E+02  0.75665106702E+01  0.79750655447E+02  0.11697110605E+03  0.00000000000E+00 0. -1.
<scales pt_clust_5="13000.00000" pt_clust_6="13000.00000" pt_clust_7="13000.00000" pt_clust_8="13000.00000" pt_clust_9="85.56911"></scales>
<clustering>
<clus scale="   85.569">  1  9  2 -1</clus>
<clus scale="   91.002">  5  6 -1 -1</clus>
<clus scale="  113.170">  7  8 -1 -1</clus>
<clus scale="  131.493">  1  5  2 -1</clus>
<clus scale="   85.569">  1  5  2 -1</clus>
</clustering>
</event>
<event>
 9    1  0.1671478E-005  0.1249155E+03  0.7546771E-02  0.1235738E+00
         21   -1    0    0  501  502  0.00000000000E+00  0.00000000000E+00  0.51900321961E+02  0.51900321961E+02  0.00000000000E+00 0.  1.
          1   -1    0    0  502    0 -0.00000000000E+00 -0.00000000000E+00 -0.63569629698E+03  0.63569629698E+03  0.00000000000E+00 0. -1.
         23    2    1    2    0    0 -0.11231251072E+02 -0.11363678349E+03 -0.32506252264E+03  0.35596514675E+03  0.89476714936E+02 0.  0.
         23    2    1    2    0    0 -0.48515804289E+02  0.50955278032E+02 -0.18453065255E+03  0.21759315734E+03  0.91350953830E+02 0.  0.
        -11    1    4    4    0    0 -0.54419837928E+02  0.22944175745E+02 -0.17892880726E+03  0.18842365040E+03  0.00000000000E+00 0. -1.
         11    1    4    4    0    0  0.59040336388E+01  0.28011102288E+02 -0.56018452853E+01  0.29169506941E+02  0.00000000000E+00 0.  1.
        -13    1    3    3    0    0 -0.35874230864E+02 -0.15980100341E+02 -0.53806701262E+02  0.66614451493E+02  0.00000000000E+00 0. -1.
         13    1    3    3    0    0  0.24642979792E+02 -0.97656683147E+02 -0.27125582138E+03  0.28935069526E+03  0.00000000000E+00 0.  1.
          1    1    1    2  501    0  0.59747055361E+02  0.62681505456E+02 -0.74202799829E+02  0.11403831485E+03  0.00000000000E+00 0. -1.
<scales pt_clust_5="13000.00000" pt_clust_6="13000.00000" pt_clust_7="13000.00000" pt_clust_8="13000.00000" pt_clust_9="86.59493"></scales>
<clustering>
<clus scale="   86.595">  1  9  2 -1</clus>
<clus scale="   89.477">  7  8 -1 -1</clus>
<clus scale="   91.351">  5  6 -1 -1</clus>
<clus scale="  123.551">  2  7  1 -1</clus>
<clus scale="   86.595">  1  5  2 -1</clus>
</clustering>
</event>
<event>
 9    1  0.1671478E-005  0.2066153E+03  0.7546771E-02  0.1144400E+00
         21   -1    0    0  501  502  0.00000000000E+00  0.00000000000E+00  0.17174882249E+03  0.17174882249E+03  0.00000000000E+00 0.  1.
          2   -1    0    0  502    0 -0.00000000000E+00 -0.00000000000E+00 -0.33676599642E+03  0.33676599642E+03  0.00000000000E+00 0. -1.
         23    2    1    2    0    0 -0.78811197373E+02  0.14870746764E+03 -0.11312069225E+03  0.22259256882E+03  0.91793490603E+02 0.  0.
         23    2    1    2    0    0  0.11392983749E+03 -0.18077453081E+03 -0.54373395629E+02  0.23830134577E+03  0.90397048540E+02 0.  0.
        -11    1    4    4    0    0  0.11950377872E+03 -0.12499899405E+03 -0.24127079267E+02  0.17460818307E+03  0.00000000000E+00 0.  1.
         11    1    4    4    0    0 -0.55739412259E+01 -0.55775536757E+02 -0.30246316362E+02  0.63693162701E+02  0.00000000000E+00 0. -1.
        -13    1    3    3    0    0 -0.54609731289E+01  0.72054460340E+02 -0.71069905529E+01  0.72609756900E+02  0.00000000000E+00 0.  1.
         13    1    3    3    0    0 -0.73350224244E+02  0.76653007297E+02 -0.10601370170E+03  0.14998281192E+03  0.00000000000E+00 0. -1.
          2    1    1    2  501    0 -0.35118640120E+02  0.32067063172E+02  0.24769139478E+01  0.47620904308E+02  0.00000000000E+00 0. -1.
<scales pt_clust_5="13000.00000" pt_clust_6="13000.00000" pt_clust_7="13000.00000" pt_clust_8="13000.00000" pt_clust_9="47.55644"></scales>
<clustering>
<clus scale="   47.556">  1  9  2 -1</clus>
<clus scale="   90.397">  5  6 -1 -1</clus>
<clus scale="   91.793">  7  8 -1 -1</clus>
<clus scale="  205.999">  1  5  2 -1</clus>
<clus scale="   47.556">  1  5  2 -1</clus>
</clustering>
</event>
<event>
 9    1  0.1671478E-005  0.9921497E+02  0.7546771E-02  0.1289209E+00
          1   -1    0    0  502    0 -0.00000000000E+00  0.00000000000E+00  0.29979269799E+03  0.29979269799E+03  0.00000000000E+00 0. -1.
         21   -1    0    0  501  502  0.00000000000E+00 -0.00000000000E+00 -0.10185793854E+03  0.10185793854E+03  0.00000000000E+00 0. -1.
         23    2    1    2    0    0  0.29114124240E+02 -0.19777193517E+02  0.21753333572E+03  0.24008062082E+03  0.95284745537E+02 0.  0.
         23    2    1    2    0    0 -0.83273188421E+01  0.72680574548E+01  0.43853377456E+02  0.93638283835E+02  0.81992930104E+02 0.  0.
        -11    1    4    4    0    0 -0.11926320466E+02  0.44119956642E+02  0.23775472150E+02  0.51517771399E+02  0.00000000000E+00 0.  1.
         11    1    4    4    0    0  0.35990016237E+01 -0.36851899187E+02  0.20077905306E+02  0.42120512436E+02  0.00000000000E+00 0. -1.
        -13    1    3    3    0    0  0.47499164816E+02 -0.59659206827E+01  0.21073176981E+03  0.21610099879E+03  0.00000000000E+00 0. -1.
         13    1    3    3    0    0 -0.18385040576E+02 -0.13811272834E+02  0.68015659068E+01  0.23979622038E+02  0.00000000000E+00 0.  1.
          1    1    1    2  501    0 -0.20786805398E+02  0.12509136062E+02 -0.63451953722E+02  0.67931731869E+02  0.00000000000E+00 0. -1.
<scales pt_clust_5="13000.00000" pt_clust_6="13000.00000" pt_clust_7="13000.00000" pt_clust_8="13000.00000" pt_clust_9="24.26046"></scales>
<clustering>
<clus scale="   24.260">  2  9  1 -1</clus>
<clus scale="   81.993">  5  6 -1 -1</clus>
<clus scale="   86.529">  2  5  1 -1</clus>
<clus scale="   95.285">  7  8 -1 -1</clus>
<clus scale="   24.260">  2  5  1 -1</clus>
</clustering>
</event>
<event>
 9    1  0.1671478E-005  0.1098444E+03  0.7546771E-02  0.1261380E+00
          2   -1    0    0  502    0 -0.00000000000E+00  0.00000000000E+00  0.22993188134E+03  0.22993188134E+03  0.00000000000E+00 0. -1.
         21   -1    0    0  501  502  0.00000000000E+00 -0.00000000000E+00 -0.11805192007E+03  0.11805192007E+03  0.00000000000E+00 0. -1.
         23    2    1    2    0    0 -0.19015016699E+02  0.71841020687E+02  0.13911273001E+03  0.18251750125E+03  0.91856319866E+02 0.  0.
         23    2    1    2    0    0  0.23514925822E+01 -0.36013944068E+02  0.24395555968E+02  0.10045294487E+03  0.90515840038E+02 0.  0.
        -11    1    3    3    0    0 -0.12796474260E+02 -0.18563766899E+02  0.97300107954E+01  0.24556797532E+02  0.00000000000E+00 0.  1.
         11    1    3    3    0    0 -0.62185424386E+01  0.90404787586E+02  0.12938271921E+03  0.15796070372E+03  0.00000000000E+00 0. -1.
        -13    1    4    4    0    0  0.24499800311E+02 -0.58466316490E+02  0.53666928274E+01  0.63618800453E+02  0.00000000000E+00 0.  1.
         13    1    4    4    0    0 -0.22148307729E+02  0.22452372422E+02  0.19028863141E+02  0.36834144419E+02  0.00000000000E+00 0. -1.
          2    1    1    2  501    0  0.16663524116E+02 -0.35827076620E+02 -0.51628324702E+02  0.65013355294E+02  0.00000000000E+00 0. -1.
<scales pt_clust_5="13000.00000" pt_clust_6="13000.00000" pt_clust_7="13000.00000" pt_clust_8="13000.00000" pt_clust_9="39.51269"></scales>
<clustering>
<clus scale="   39.513">  2  9  1 -1</clus>
<clus scale="   90.516">  7  8 -1 -1</clus>
<clus scale="   91.856">  5  6 -1 -1</clus>
<clus scale="  108.726">  2  7  1 -1</clus>
<clus scale="   39.513">  2  5  1 -1</clus>
</clustering>
</event>
<event>
 9    1  0.1671478E-005  0.1020954E+03  0.7546771E-02  0.1282126E+00
          2   -1    0    0  502    0 -0.00000000000E+00  0.00000000000E+00  0.40910603099E+03  0.40910603099E+03  0.00000000000E+00 0. -1.
         21   -1    0    0  501  502  0.00000000000E+00 -0.00000000000E+00 -0.74679611289E+02  0.74679611289E+02  0.00000000000E+00 0. -1.
         23    2    1    2    0    0 -0.19987513962E+02 -0.28504621183E+02  0.21518939900E+03  0.23484009895E+03  0.87357772927E+02 0.  0.
         23    2    1    2    0    0  0.71876752410E+01 -0.46887064023E+02  0.31047428383E+01  0.10989717753E+03  0.99084260873E+02 0.  0.
        -11    1    3    3    0    0 -0.38440290891E+02 -0.46315915493E+02  0.99060225311E+02  0.11591267502E+03  0.00000000000E+00 0. -1.
         11    1    3    3    0    0  0.18452776929E+02  0.17811294310E+02  0.11612917369E+03  0.11892742393E+03  0.00000000000E+00 0.  1.
        -13    1    4    4    0    0 -0.29439303638E+02 -0.51809687491E+02 -0.23818801626E+02  0.64173605380E+02  0.00000000000E+00 0. -1.
         13    1    4    4    0    0  0.36626978879E+02  0.49226234679E+01  0.26923544464E+02  0.45723572149E+02  0.00000000000E+00 0.  1.
          2    1    1    2  501    0  0.12799838721E+02  0.75391685207E+02  0.11613227787E+03  0.13904836580E+03  0.00000000000E+00 0. -1.
<scales pt_clust_5="13000.00000" pt_clust_6="13000.00000" pt_clust_7="13000.00000" pt_clust_8="13000.00000" pt_clust_9="76.47057"></scales>
<clustering>
<clus scale="   76.471">  2  9  1 -1</clus>
<clus scale="   87.358">  5  6 -1 -1</clus>
<clus scale="   90.759">  1  5  2 -1</clus>
<clus scale="   99.084">  7  8 -1 -1</clus>
<clus scale="   76.471">  2  5  1 -1</clus>
</clustering>
</event>
<event>
 9    1  0.1671478E-005  0.1071491E+03  0.7546771E-02  0.1274131E+00
          1   -1    0    0  502    0 -0.00000000000E+00  0.00000000000E+00  0.27431749882E+03  0.27431749882E+03  0.00000000000E+00 0. -1.
         21   -1    0    0  501  502  0.00000000000E+00 -0.00000000000E+00 -0.20253789876E+03  0.20253789876E+03  0.00000000000E+00 0. -1.
         23    2    1    2    0    0 -0.64796446701E+02 -0.28749259310E+02  0.21694353914E+03  0.24372259293E+03  0.85504992327E+02 0.  0.
         23    2    1    2    0    0  0.37586198575E+02  0.29692321273E+02  0.48205004887E+01  0.80697181901E+02  0.64764509385E+02 0.  0.
        -11    1    4    4    0    0  0.35053266164E+02  0.29358947444E+01  0.28192954744E+02  0.45079858517E+02  0.00000000000E+00 0.  1.
         11    1    4    4    0    0  0.25329324109E+01  0.26756426528E+02 -0.23372454255E+02  0.35617323384E+02  0.00000000000E+00 0. -1.
        -13    1    3    3    0    0 -0.35357978862E+02  0.12036924114E+01  0.16699322996E+02  0.39121642771E+02  0.00000000000E+00 0.  1.
         13    1    3    3    0    0 -0.29438467839E+02 -0.29952951721E+02  0.20024421615E+03  0.20460095016E+03  0.00000000000E+00 0. -1.
          1    1    1    2  501    0  0.27210248126E+02 -0.94306196258E+00 -0.14998443957E+03  0.15243562275E+03  0.00000000000E+00 0. -1.
<scales pt_clust_5="13000.00000" pt_clust_6="13000.00000" pt_clust_7="13000.00000" pt_clust_8="13000.00000" pt_clust_9="27.22659"></scales>
<clustering>
<clus scale="   27.227">  2  9  1 -1</clus>
<clus scale="   64.765">  5  6 -1 -1</clus>
<clus scale="   85.505">  7  8 -1 -1</clus>
<clus scale="   91.456">  2  5  1 -1</clus>
<clus scale="   27.227">  2  5  1 -1</clus>
</clustering>
</event>
<event>
 9    1  0.1686113E-005  0.1003162E+03  0.7546771E-02  0.1280146E+00
          2   -1    0    0  502    0 -0.00000000000E+00  0.00000000000E+00  0.24443195224E+03  0.24443195224E+03  0.00000000000E+00 0. -1.
         21   -1    0    0  501  502  0.00000000000E+00 -0.00000000000E+00 -0.24411559586E+03  0.24411559586E+03  0.00000000000E+00 0. -1.
         23    2    1    2    0    0 -0.24921974008E+02  0.22371162506E+02  0.15583933598E+03  0.18437416001E+03  0.92662605950E+02 0.  0.
         23    2    1    2    0    0  0.11487292320E+02 -0.59633694966E+02  0.30435123852E+02  0.11404342402E+03  0.91604968960E+02 0.  0.
        -11    1    3    3    0    0 -0.40213244478E+02  0.79961668713E+01  0.15804005798E+03  0.16327187034E+03  0.00000000000E+00 0. -1.
         11    1    3    3    0    0  0.15291270470E+02  0.14374995635E+02 -0.22007220061E+01  0.21102289673E+02  0.00000000000E+00 0.  1.
        -13    1    4    4    0    0  0.42847358185E+02 -0.57046569202E+02  0.39164586245E+02  0.81388401980E+02  0.00000000000E+00 0.  1.
         13    1    4    4    0    0 -0.31360065864E+02 -0.25871257636E+01 -0.87294623932E+01  0.32655022040E+02  0.00000000000E+00 0. -1.
          2    1    1    2  501    0  0.13434681687E+02  0.37262532460E+02 -0.18595810345E+03  0.19012996407E+03  0.00000000000E+00 0. -1.
<scales pt_clust_5="13000.00000" pt_clust_6="13000.00000" pt_clust_7="13000.00000" pt_clust_8="13000.00000" pt_clust_9="39.61044"></scales>
<clustering>
<clus scale="   39.610">  2  9  1 -1</clus>
<clus scale="   91.605">  7  8 -1 -1</clus>
<clus scale="   92.663">  5  6 -1 -1</clus>
<clus scale="   99.340">  2  7  1 -1</clus>
<clus scale="   39.610">  2  5  1 -1</clus>
</clustering>
</event>
<event>
 9    1  0.1671478E-005  0.1062771E+03  0.7546771E-02  0.1269805E+00
          1   -1    0    0  502    0 -0.00000000000E+00  0.00000000000E+00  0.22677227784E+03  0.22677227784E+03  0.00000000000E+00 0. -1.
         21   -1    0    0  501  502  0.00000000000E+00 -0.00000000000E+00 -0.89834951243E+02  0.89834951243E+02  0.00000000000E+00 0.  1.
         23    2    1    2    0    0 -0.48179660195E+02  0.26635639249E+02  0.11715028278E+03  0.16013117388E+03  0.94271242478E+02 0.  0.
         23    2    1    2    0    0  0.19140704615E+02 -0.28487061612E+02 -0.28754597261E+02  0.99881182426E+02  0.89283506241E+02 0.  0.
        -13    1    4    4    0    0  0.42075104451E+02 -0.32931893095E+02 -0.46271988990E+02  0.70681829082E+02  0.00000000000E+00 0.  1.
         13    1    4    4    0    0 -0.22934399835E+02  0.44448314827E+01  0.17517391729E+02  0.29199353344E+02  0.00000000000E+00 0. -1.
        -13    1    3    3    0    0 -0.33360085104E+02 -0.30745952949E+02  0.28772685428E+02  0.53722214471E+02  0.00000000000E+00 0. -1.
         13    1    3    3    0    0 -0.14819575091E+02  0.57381592198E+02  0.88377597353E+02  0.10640895941E+03  0.00000000000E+00 0.  1.
          1    1    1    2  501    0  0.29038955580E+02  0.18514223627E+01  0.48541641072E+02  0.56594872771E+02  0.00000000000E+00 0. -1.
<scales pt_clust_5="13000.00000" pt_clust_6="13000.00000" pt_clust_7="13000.00000" pt_clust_8="13000.00000" pt_clust_9="29.09793"></scales>
<clustering>
<clus scale="   29.098">  2  9  1 -1</clus>
<clus scale="   89.284">  5  6 -1 -1</clus>
<clus scale="   94.271">  7  8 -1 -1</clus>
<clus scale="  101.879">  2  5  1 -1</clus>
<clus scale="   29.098">  2  5  1 -1</clus>
</clustering>
</event>
<event>
 9    1  0.1671478E-005  0.1480468E+03  0.7546771E-02  0.1203193E+00
         21   -1    0    0  501  502  0.00000000000E+00  0.00000000000E+00  0.40689458528E+03  0.40689458528E+03  0.00000000000E+00 0.  1.
         -4   -1    0    0    0  501 -0.00000000000E+00 -0.00000000000E+00 -0.12410738782E+03  0.12410738782E+03  0.00000000000E+00 0.  1.
         23    2    1    2    0    0 -0.97003726625E+02  0.56370683512E+02 -0.38715503955E+02  0.15018174093E+03  0.92023302068E+02 0.  0.
         23    2    1    2    0    0  0.10407798646E+03 -0.81865155015E+02  0.19944337569E+03  0.25592630828E+03  0.90479192600E+02 0.  0.
        -13    1    3    3    0    0  0.21096408130E+00  0.35136680390E+02  0.13700553302E+02  0.37713869802E+02  0.00000000000E+00 0. -1.
         13    1    3    3    0    0 -0.97214690706E+02  0.21234003122E+02 -0.52416057257E+02  0.11246787113E+03  0.00000000000E+00 0.  1.
        -13    1    4    4    0    0  0.13186868478E+02 -0.35945929008E+02  0.80452668068E+01  0.39124540003E+02  0.00000000000E+00 0.  1.
         13    1    4    4    0    0  0.90891117978E+02 -0.45919226007E+02  0.19139810888E+03  0.21680176828E+03  0.00000000000E+00 0. -1.
         -4    1    1    2    0  502 -0.70742598308E+01  0.25494471503E+02  0.12205932573E+03  0.12489392390E+03  0.00000000000E+00 0.  1.
<scales pt_clust_5="13000.00000" pt_clust_6="13000.00000" pt_clust_7="13000.00000" pt_clust_8="13000.00000" pt_clust_9="26.45776"></scales>
<clustering>
<clus scale="   26.458">  1  9  2 -1</clus>
<clus scale="   90.479">  7  8 -1 -1</clus>
<clus scale="   92.023">  5  6 -1 -1</clus>
<clus scale="  147.092">  1  7  2 -1</clus>
<clus scale="   26.458">  1  5  2 -1</clus>
</clustering>
</event>
<event>
 9    1  0.1671478E-005  0.3531479E+03  0.7546771E-02  0.1061358E+00
         -1   -1    0    0    0  501 -0.00000000000E+00  0.00000000000E+00  0.72955116450E+03  0.72955116450E+03  0.00000000000E+00 0.  1.
         21   -1    0    0  501  502  0.00000000000E+00 -0.00000000000E+00 -0.23891774986E+03  0.23891774986E+03  0.00000000000E+00 0. -1.
         23    2    1    2    0    0  0.32864786162E+03 -0.45323239194E+02  0.31605608491E+03  0.46705435208E+03  0.90469365099E+02 0.  0.
         23    2    1    2    0    0 -0.35167657860E+03  0.35574615498E+02  0.23622912566E+03  0.43488410753E+03  0.91531513512E+02 0.  0.
        -11    1    3    3    0    0  0.20805226291E+03 -0.72310607008E+02  0.19930637532E+03  0.29704814295E+03  0.00000000000E+00 0.  1.
         11    1    3    3    0    0  0.12059559871E+03  0.26987367814E+02  0.11674970959E+03  0.17000620912E+03  0.00000000000E+00 0. -1.
        -11    1    4    4    0    0 -0.20402425050E+03  0.38824571312E+02  0.18625570098E+03  0.27897029999E+03  0.00000000000E+00 0.  1.
         11    1    4    4    0    0 -0.14765232810E+03 -0.32499558146E+01  0.49973424683E+02  0.15591380754E+03  0.00000000000E+00 0. -1.
         -1    1    1    2    0  502  0.23028716974E+02  0.97486236966E+01 -0.61651795935E+02  0.66530454767E+02  0.00000000000E+00 0.  1.
<scales pt_clust_5="13000.00000" pt_clust_6="13000.00000" pt_clust_7="13000.00000" pt_clust_8="13000.00000" pt_clust_9="25.00715"></scales>
<clustering>
<clus scale="   25.007">  2  9  1 -1</clus>
<clus scale="   90.469">  5  6 -1 -1</clus>
<clus scale="   91.532">  7  8 -1 -1</clus>
<clus scale="  352.874">  1  5  2 -1</clus>
<clus scale="   25.007">  2  5  1 -1</clus>
</clustering>
</event>
<event>
 9    1  0.1671478E-005  0.1004832E+03  0.7546771E-02  0.1280452E+00
         21   -1    0    0  501  502  0.00000000000E+00  0.00000000000E+00  0.28368271851E+03  0.28368271851E+03  0.00000000000E+00 0. -1.
          1   -1    0    0  502    0 -0.00000000000E+00 -0.00000000000E+00 -0.61667498662E+02  0.61667498662E+02  0.00000000000E+00 0. -1.
         23    2    1    2    0    0  0.23868788761E+02  0.35527790689E+02  0.37829759147E+02  0.10712907430E+03  0.90628940715E+02 0.  0.
         23    2    1    2    0    0 -0.35839001071E+02 -0.97186529699E+01  0.74293477089E+02  0.12470618511E+03  0.93022715799E+02 0.  0.
        -11    1    4    4    0    0 -0.52166815523E+02 -0.37106853207E+02  0.65590867248E+02  0.91654007349E+02  0.00000000000E+00 0.  1.
         11    1    4    4    0    0  0.16327814452E+02  0.27388200237E+02  0.87026098409E+01  0.33052177766E+02  0.00000000000E+00 0. -1.
        -13    1    3    3    0    0  0.50450793268E+02 -0.55649415827E+01  0.13756657848E+02  0.52587990562E+02  0.00000000000E+00 0.  1.
         13    1    3    3    0    0 -0.26582004507E+02  0.41092732272E+02  0.24073101299E+02  0.54541083738E+02  0.00000000000E+00 0. -1.
          1    1    1    2  501    0  0.11970212310E+02 -0.25809137719E+02  0.10989198361E+03  0.11351495776E+03  0.00000000000E+00 0. -1.
<scales pt_clust_5="13000.00000" pt_clust_6="13000.00000" pt_clust_7="13000.00000" pt_clust_8="13000.00000" pt_clust_9="28.44991"></scales>
<clustering>
<clus scale="   28.450">  1  9  2 -1</clus>
<clus scale="   90.629">  7  8 -1 -1</clus>
<clus scale="   93.023">  5  6 -1 -1</clus>
<clus scale="   98.271">  2  7  1 -1</clus>
<clus scale="   28.450">  1  5  2 -1</clus>
</clustering>
</event>
<event>
 9    1  0.1671478E-005  0.9366913E+02  0.7546771E-02  0.1298378E+00
         21   -1    0    0  501  502  0.00000000000E+00  0.00000000000E+00  0.12996754509E+03  0.12996754509E+03  0.00000000000E+00 0. -1.
         -4   -1    0    0    0  501 -0.00000000000E+00 -0.00000000000E+00 -0.22005395638E+03  0.22005395638E+03  0.00000000000E+00 0.  1.
         23    2    1    2    0    0  0.17196169381E+02  0.24813314628E+01 -0.15987727688E+03  0.18158932784E+03  0.84333119682E+02 0.  0.
         23    2    1    2    0    0 -0.27408720058E+02 -0.47477249438E+02  0.42430051630E+02  0.11478943912E+03  0.91493053849E+02 0.  0.
        -13    1    4    4    0    0  0.28480788690E+02 -0.41500885852E+02  0.17353385189E+02  0.53241138497E+02  0.00000000000E+00 0.  1.
         13    1    4    4    0    0 -0.55889508748E+02 -0.59763635863E+01  0.25076666442E+02  0.61548300623E+02  0.00000000000E+00 0. -1.
        -13    1    3    3    0    0  0.39161555098E+02  0.23629973728E+02 -0.13402053150E+03  0.14161040188E+03  0.00000000000E+00 0.  1.
         13    1    3    3    0    0 -0.21965385717E+02 -0.21148642265E+02 -0.25856745376E+02  0.39978925958E+02  0.00000000000E+00 0. -1.
         -4    1    1    2    0  502  0.10212550677E+02  0.44995917976E+02  0.27360813960E+02  0.53642734516E+02  0.00000000000E+00 0.  1.
<scales pt_clust_5="13000.00000" pt_clust_6="13000.00000" pt_clust_7="13000.00000" pt_clust_8="13000.00000" pt_clust_9="46.14032"></scales>
<clustering>
<clus scale="   46.140">  1  9  2 -1</clus>
<clus scale="   84.333">  7  8 -1 -1</clus>
<clus scale="   86.689">  2  7  1 -1</clus>
<clus scale="   91.493">  5  6 -1 -1</clus>
<clus scale="   46.140">  1  5  2 -1</clus>
</clustering>
</event>
<event>
 9    1  0.1671478E-005  0.1659395E+03  0.7546771E-02  0.1182491E+00
         21   -1    0    0  501  502  0.00000000000E+00  0.00000000000E+00  0.19332068379E+03  0.19332068379E+03  0.00000000000E+00 0.  1.
         -1   -1    0    0    0  501 -0.00000000000E+00 -0.00000000000E+00 -0.40642596511E+03  0.40642596511E+03  0.00000000000E+00 0.  1.
         23    2    1    2    0    0  0.36457628360E+02  0.12240309718E+03 -0.11974792048E+03  0.19820548444E+03  0.92920249336E+02 0.  0.
         23    2    1    2    0    0 -0.84296376085E+02 -0.15610772702E+03  0.82926259380E+02  0.21579816293E+03  0.90645359357E+02 0.  0.
        -11    1    4    4    0    0  0.79467067594E+01 -0.65916573863E+02  0.87036335912E+01  0.66961915264E+02  0.00000000000E+00 0. -1.
         11    1    4    4    0    0 -0.92243082845E+02 -0.90191153158E+02  0.74222625789E+02  0.14883624767E+03  0.00000000000E+00 0.  1.
        -11    1    3    3    0    0  0.41402602006E+02  0.53693314700E+02 -0.10916851324E+03  0.12851035670E+03  0.00000000000E+00 0.  1.
         11    1    3    3    0    0 -0.49449736455E+01  0.68709782482E+02 -0.10579407244E+02  0.69695127740E+02  0.00000000000E+00 0. -1.
         -1    1    1    2    0  502  0.47838747725E+02  0.33704629840E+02 -0.17628362023E+03  0.18574300153E+03  0.00000000000E+00 0.  1.
<scales pt_clust_5="13000.00000" pt_clust_6="13000.00000" pt_clust_7="13000.00000" pt_clust_8="13000.00000" pt_clust_9="58.51967"></scales>
<clustering>
<clus scale="   58.520">  1  9  2 -1</clus>
<clus scale="   90.645">  5  6 -1 -1</clus>
<clus scale="   92.920">  7  8 -1 -1</clus>
<clus scale="  164.676">  1  5  2 -1</clus>
<clus scale="   58.520">  1  5  2 -1</clus>
</clustering>
</event>
<event>
 9    1  0.1671478E-005  0.1014739E+03  0.7546771E-02  0.1278319E+00
         21   -1    0    0  501  502  0.00000000000E+00  0.00000000000E+00  0.20952922503E+03  0.20952922503E+03  0.00000000000E+00 0.  1.
          4   -1    0    0  502    0 -0.00000000000E+00 -0.00000000000E+00 -0.15298735724E+03  0.15298735724E+03  0.00000000000E+00 0. -1.
         23    2    1    2    0    0  0.42329753837E+02 -0.58744089159E+01 -0.11590682938E+03  0.15324111150E+03  0.90675952804E+02 0.  0.
         23    2    1    2    0    0 -0.21202878322E+02  0.11206395898E+02  0.14911080274E+03  0.17734692131E+03  0.92966411388E+02 0.  0.
        -11    1    4    4    0    0  0.33217963084E+02  0.52692589661E+01  0.93266281358E+02  0.99145334736E+02  0.00000000000E+00 0.  1.
         11    1    4    4    0    0 -0.54420841407E+02  0.59371369316E+01  0.55844521379E+02  0.78201586572E+02  0.00000000000E+00 0. -1.
        -13    1    3    3    0    0  0.26523162941E+02  0.41019723887E+02 -0.72468242855E+02  0.87394176824E+02  0.00000000000E+00 0.  1.
         13    1    3    3    0    0  0.15806590896E+02 -0.46894132803E+02 -0.43438586529E+02  0.65846934680E+02  0.00000000000E+00 0. -1.
          4    1    1    2  501    0 -0.21126875515E+02 -0.53319869819E+01  0.23337894430E+02  0.31928549460E+02  0.00000000000E+00 0. -1.
<scales pt_clust_5="13000.00000" pt_clust_6="13000.00000" pt_clust_7="13000.00000" pt_clust_8="13000.00000" pt_clust_9="21.78933"></scales>
<clustering>
<clus scale="   21.789">  1  9  2 -1</clus>
<clus scale="   90.676">  7  8 -1 -1</clus>
<clus scale="   92.966">  5  6 -1 -1</clus>
<clus scale="   99.380">  2  7  1 -1</clus>
<clus scale="   21.789">  1  5  2 -1</clus>
</clustering>
</event>
<event>
 9    1  0.1671478E-005  0.1884639E+03  0.7546771E-02  0.1192572E+00
         21   -1    0    0  501  502  0.00000000000E+00  0.00000000000E+00  0.13299948545E+03  0.13299948545E+03  0.00000000000E+00 0. -1.
          1   -1    0    0  502    0 -0.00000000000E+00 -0.00000000000E+00 -0.71082634262E+03  0.71082634262E+03  0.00000000000E+00 0. -1.
         23    2    1    2    0    0 -0.30287113934E+01 -0.66284728882E+01 -0.15405716433E+03  0.17835761464E+03  0.89580796356E+02 0.  0.
         23    2    1    2    0    0 -0.12766173532E+03 -0.96139456744E+02 -0.46004433870E+03  0.49530038405E+03  0.90229502184E+02 0.  0.
        -13    1    3    3    0    0 -0.34810307477E+02  0.25574009430E+02 -0.91181329527E+02  0.10089510553E+03  0.00000000000E+00 0. -1.
         13    1    3    3    0    0  0.31781596083E+02 -0.32202482318E+02 -0.62875834799E+02  0.77462509117E+02  0.00000000000E+00 0.  1.
        -13    1    4    4    0    0 -0.59634575878E+02 -0.55468539613E+02 -0.11282053654E+03  0.13914566106E+03  0.00000000000E+00 0. -1.
         13    1    4    4    0    0 -0.68027159440E+02 -0.40670917132E+02 -0.34722380216E+03  0.35615472299E+03  0.00000000000E+00 0.  1.
          1    1    1    2  501    0  0.13069044671E+03  0.10276792963E+03  0.36274645851E+02  0.17016782938E+03  0.00000000000E+00 0. -1.
<scales pt_clust_5="13000.00000" pt_clust_6="13000.00000" pt_clust_7="13000.00000" pt_clust_8="13000.00000" pt_clust_9="165.46075"></scales>
<clustering>
<clus scale="   89.581">  5  6 -1 -1</clus>
<clus scale="   89.877">  2  5  1 -1</clus>
<clus scale="   90.230">  7  8 -1 -1</clus>
<clus scale="  165.461">  1  9  2 -1</clus>
<clus scale="  165.461">  1  5  2 -1</clus>
</clustering>
</event>
<event>
 9    1  0.1671478E-005  0.9261076E+02  0.7546771E-02  0.1298204E+00
          2   -1    0    0  502    0 -0.00000000000E+00  0.00000000000E+00  0.29919608988E+03  0.29919608988E+03  0.00000000000E+00 0. -1.
         21   -1    0    0  501  502  0.00000000000E+00 -0.00000000000E+00 -0.49177705898E+02  0.49177705898E+02  0.00000000000E+00 0.  1.
         23    2    1    2    0    0 -0.79932484905E+01  0.61858081951E+01  0.17990670414E+03  0.20102638240E+03  0.89123666785E+02 0.  0.
         23    2    1    2    0    0 -0.71999414601E+01 -0.24516778562E+02  0.77075982494E+02  0.12254098263E+03  0.91775126032E+02 0.  0.
        -13    1    3    3    0    0 -0.68761542479E+01  0.39064938089E+02  0.15435751109E+03  0.15937249486E+03  0.00000000000E+00 0.  1.
         13    1    3    3    0    0 -0.11170942426E+01 -0.32879129894E+02  0.25549193044E+02  0.41653887542E+02  0.00000000000E+00 0. -1.
        -13    1    4    4    0    0 -0.46164234581E+02 -0.18360496524E+02  0.20901256595E+02  0.53899043724E+02  0.00000000000E+00 0.  1.
         13    1    4    4    0    0  0.38964293121E+02 -0.61562820379E+01  0.56174725899E+02  0.68641938906E+02  0.00000000000E+00 0. -1.
          2    1    1    2  501    0  0.15193189951E+02  0.18330970367E+02 -0.69643026461E+01  0.24806430755E+02  0.00000000000E+00 0. -1.
<scales pt_clust_5="13000.00000" pt_clust_6="13000.00000" pt_clust_7="13000.00000" pt_clust_8="13000.00000" pt_clust_9="23.80877"></scales>
<clustering>
<clus scale="   23.809">  2  9  1 -1</clus>
<clus scale="   89.124">  5  6 -1 -1</clus>
<clus scale="   89.984">  1  5  2 -1</clus>
<clus scale="   91.775">  7  8 -1 -1</clus>
<clus scale="   23.809">  2  5  1 -1</clus>
</clustering>
</event>
<event>
 9    1  0.1671478E-005  0.1079735E+03  0.7546771E-02  0.1265124E+00
         21   -1    0    0  501  502  0.00000000000E+00  0.00000000000E+00  0.26475426620E+03  0.26475426620E+03  0.00000000000E+00 0. -1.
          2   -1    0    0  502    0 -0.00000000000E+00 -0.00000000000E+00 -0.12603615190E+03  0.12603615190E+03  0.00000000000E+00 0. -1.
         23    2    1    2    0    0  0.33607152252E+02 -0.24866482365E+02 -0.15205189154E+02  0.10023142814E+03  0.89818476840E+02 0.  0.
         23    2    1    2    0    0 -0.98964057016E+02 -0.18454196705E+02  0.23201589469E+02  0.13812417523E+03  0.91681688859E+02 0.  0.
        -11    1    4    4    0    0 -0.63601248209E+02 -0.79095453294E+01 -0.32069319722E+02  0.71666735299E+02  0.00000000000E+00 0. -1.
         11    1    4    4    0    0 -0.35362808807E+02 -0.10544651375E+02  0.55270909191E+02  0.66457439931E+02  0.00000000000E+00 0.  1.
        -13    1    3    3    0    0  0.10251881551E+01 -0.54274940215E+02 -0.17069514227E+01  0.54311452100E+02  0.00000000000E+00 0. -1.
         13    1    3    3    0    0  0.32581964097E+02  0.29408457850E+02 -0.13498237731E+02  0.45919976039E+02  0.00000000000E+00 0.  1.
          2    1    1    2  501    0  0.65356904764E+02  0.43320679069E+02  0.13072171398E+03  0.15243481473E+03  0.00000000000E+00 0. -1.
<scales pt_clust_5="13000.00000" pt_clust_6="13000.00000" pt_clust_7="13000.00000" pt_clust_8="13000.00000" pt_clust_9="78.41050"></scales>
<clustering>
<clus scale="   78.410">  1  9  2 -1</clus>
<clus scale="   89.818">  7  8 -1 -1</clus>
<clus scale="   91.682">  5  6 -1 -1</clus>
<clus scale="  106.396">  2  7  1 -1</clus>
<clus scale="   78.410">  1  5  2 -1</clus>
</clustering>
</event>
<event>
 9    1  0.1671478E-005  0.1035672E+03  0.7546771E-02  0.1273023E+00
          1   -1    0    0  502    0 -0.00000000000E+00  0.00000000000E+00  0.59365851574E+03  0.59365851574E+03  0.00000000000E+00 0. -1.
         21   -1    0    0  501  502  0.00000000000E+00 -0.00000000000E+00 -0.43964127714E+02  0.43964127714E+02  0.00000000000E+00 0. -1.
         23    2    1    2    0    0  0.37947381439E+02  0.12394616619E+02  0.34981518557E+03  0.36390113426E+03  0.91976851309E+02 0.  0.
         23    2    1    2    0    0 -0.50326055828E+02 -0.40073532784E+02  0.21290052545E+03  0.24072289055E+03  0.92099274563E+02 0.  0.
        -11    1    4    4    0    0 -0.39283931980E+02 -0.67893938685E+02  0.17939897356E+03  0.19579787011E+03  0.00000000000E+00 0. -1.
         11    1    4    4    0    0 -0.11042123847E+02  0.27820405901E+02  0.33501551883E+02  0.44925020446E+02  0.00000000000E+00 0.  1.
        -13    1    3    3    0    0  0.28297559827E+02  0.51274224048E+02  0.23889777814E+03  0.24597143400E+03  0.00000000000E+00 0.  1.
         13    1    3    3    0    0  0.96498216122E+01 -0.38879607429E+02  0.11091740743E+03  0.11792970025E+03  0.00000000000E+00 0. -1.
          1    1    1    2  501    0  0.12378674389E+02  0.27678916165E+02 -0.13021322996E+02  0.32998618642E+02  0.00000000000E+00 0. -1.
<scales pt_clust_5="13000.00000" pt_clust_6="13000.00000" pt_clust_7="13000.00000" pt_clust_8="13000.00000" pt_clust_9="30.32085"></scales>
<clustering>
<clus scale="   30.321">  2  9  1 -1</clus>
<clus scale="   91.977">  7  8 -1 -1</clus>
<clus scale="   92.099">  5  6 -1 -1</clus>
<clus scale="  103.458">  1  7  2 -1</clus>
<clus scale="   30.321">  2  5  1 -1</clus>
</clustering>
</event>
<event>
 9    1  0.1671478E-005  0.1360300E+03  0.7546771E-02  0.1220659E+00
          3   -1    0    0  502    0 -0.00000000000E+00  0.00000000000E+00  0.19576744345E+03  0.19576744345E+03  0.00000000000E+00 0. -1.
         21   -1    0    0  501  502  0.00000000000E+00 -0.00000000000E+00 -0.29680960746E+03  0.29680960746E+03  0.00000000000E+00 0.  1.
         23    2    1    2    0    0  0.32074482845E+02 -0.88888334193E+02  0.76756913099E+02  0.15285822216E+03  0.92434322457E+02 0.  0.
         23    2    1    2    0    0 -0.61223379618E+02  0.91475069391E+02  0.19634134050E+02  0.14012869309E+03  0.84466329826E+02 0.  0.
        -11    1    3    3    0    0 -0.29069366153E+02 -0.24712171932E+02  0.43455500484E+01  0.38400563737E+02  0.00000000000E+00 0. -1.
         11    1    3    3    0    0  0.61143848997E+02 -0.64176162261E+02  0.72411363051E+02  0.11445765842E+03  0.00000000000E+00 0.  1.
        -11    1    4    4    0    0 -0.42637926358E+02  0.76938310973E+02 -0.23424841408E+02  0.91028674903E+02  0.00000000000E+00 0.  1.
         11    1    4    4    0    0 -0.18585453260E+02  0.14536758418E+02  0.43058975458E+02  0.49100018184E+02  0.00000000000E+00 0. -1.
          3    1    1    2  501    0  0.29148896774E+02 -0.25867351982E+01 -0.19743321117E+03  0.19959013566E+03  0.00000000000E+00 0. -1.
<scales pt_clust_5="13000.00000" pt_clust_6="13000.00000" pt_clust_7="13000.00000" pt_clust_8="13000.00000" pt_clust_9="29.26345"></scales>
<clustering>
<clus scale="   29.263">  2  9  1 -1</clus>
<clus scale="   84.466">  7  8 -1 -1</clus>
<clus scale="   92.434">  5  6 -1 -1</clus>
<clus scale="  130.746">  2  7  1 -1</clus>
<clus scale="   29.263">  2  5  1 -1</clus>
</clustering>
</event>
<event>
 9    1  0.1671478E-005  0.1602478E+03  0.7546771E-02  0.1188558E+00
          1   -1    0    0  502    0 -0.00000000000E+00  0.00000000000E+00  0.61887208733E+03  0.61887208733E+03  0.00000000000E+00 0. -1.
         21   -1    0    0  501  502  0.00000000000E+00 -0.00000000000E+00 -0.15141314246E+03  0.15141314246E+03  0.00000000000E+00 0. -1.
         23    2    1    2    0    0 -0.10565474092E+03  0.38735788156E+01  0.22936890195E+03  0.26861443969E+03  0.91464174059E+02 0.  0.
         23    2    1    2    0    0  0.16134935739E+03  0.10002176556E+03  0.30131468924E+03  0.36790424425E+03  0.92331047157E+02 0.  0.
        -11    1    4    4    0    0  0.84138005791E+02  0.15664880519E+02  0.18967040968E+03  0.20808521525E+03  0.00000000000E+00 0. -1.
         11    1    4    4    0    0  0.77211351597E+02  0.84356885045E+02  0.11164427956E+03  0.15981902899E+03  0.00000000000E+00 0.  1.
        -13    1    3    3    0    0 -0.25192458801E+01  0.22960304490E+02  0.97081515466E+02  0.99791496769E+02  0.00000000000E+00 0. -1.
         13    1    3    3    0    0 -0.10313549504E+03 -0.19086725675E+02  0.13228738649E+03  0.16882294292E+03  0.00000000000E+00 0.  1.
          1    1    1    2  501    0 -0.55694616470E+02 -0.10389534438E+03 -0.63224646315E+02  0.13376654585E+03  0.00000000000E+00 0. -1.
<scales pt_clust_5="13000.00000" pt_clust_6="13000.00000" pt_clust_7="13000.00000" pt_clust_8="13000.00000" pt_clust_9="117.88186"></scales>
<clustering>
<clus scale="   91.464">  7  8 -1 -1</clus>
<clus scale="   92.331">  5  6 -1 -1</clus>
<clus scale="  117.882">  2  9  1 -1</clus>
<clus scale="  159.750">  1  7  2 -1</clus>
<clus scale="  117.882">  2  5  1 -1</clus>
</clustering>
</event>
<event>
 9    1  0.1671478E-005  0.1094549E+03  0.7546771E-02  0.1261635E+00
         -1   -1    0    0    0  501 -0.00000000000E+00  0.00000000000E+00  0.43873707899E+03  0.43873707899E+03  0.00000000000E+00 0.  1.
         21   -1    0    0  501  502  0.00000000000E+00 -0.00000000000E+00 -0.39039991512E+02  0.39039991512E+02  0.00000000000E+00 0.  1.
         23    2    1    2    0    0  0.56372548012E+02 -0.36357849186E+02  0.21563392340E+03  0.24267928735E+03  0.88856571071E+02 0.  0.
         23    2    1    2    0    0 -0.28902102500E+02  0.57772212967E+02  0.15305342971E+03  0.18846298950E+03  0.88994302891E+02 0.  0.
        -11    1    3    3    0    0  0.23777954444E+02  0.38633346932E+01  0.35279120540E+01  0.24346717150E+02  0.00000000000E+00 0.  1.
         11    1    3    3    0    0  0.32594593567E+02 -0.40221183879E+02  0.21210601135E+03  0.21833257020E+03  0.00000000000E+00 0. -1.
        -11    1    4    4    0    0 -0.58490296291E+02  0.49099530707E+02  0.12654014345E+03  0.14779812780E+03  0.00000000000E+00 0.  1.
         11    1    4    4    0    0  0.29588193791E+02  0.86726822608E+01  0.26513286258E+02  0.40664861707E+02  0.00000000000E+00 0. -1.
         -1    1    1    2    0  502 -0.27470445512E+02 -0.21414363782E+02  0.31009734374E+02  0.46634793650E+02  0.00000000000E+00 0.  1.
<scales pt_clust_5="13000.00000" pt_clust_6="13000.00000" pt_clust_7="13000.00000" pt_clust_8="13000.00000" pt_clust_9="34.83103"></scales>
<clustering>
<clus scale="   34.831">  2  9  1 -1</clus>
<clus scale="   88.857">  5  6 -1 -1</clus>
<clus scale="   88.994">  7  8 -1 -1</clus>
<clus scale="  109.343">  1  5  2 -1</clus>
<clus scale="   34.831">  2  5  1 -1</clus>
</clustering>
</event>
<event>
 9    1  0.1671478E-005  0.1505240E+03  0.7546771E-02  0.1217558E+00
          1   -1    0    0  502    0 -0.00000000000E+00  0.00000000000E+00  0.42026340114E+03  0.42026340114E+03  0.00000000000E+00 0. -1.
         21   -1    0    0  501  502  0.00000000000E+00 -0.00000000000E+00 -0.11326848765E+03  0.11326848765E+03  0.00000000000E+00 0. -1.
         23    2    1    2    0    0 -0.30531466292E+02  0.35417717435E+02  0.20152974227E+03  0.22632554300E+03  0.91773793916E+02 0.  0.
         23    2    1    2    0    0  0.60879954401E+02 -0.13793519407E+03  0.93337408790E+02  0.19960547978E+03  0.91640542706E+02 0.  0.
        -11    1    4    4    0    0  0.24395079959E+02 -0.27819355961E+02 -0.15893182326E+02  0.40269464073E+02  0.00000000000E+00 0.  1.
         11    1    4    4    0    0  0.36484874442E+02 -0.11011583811E+03  0.10923059112E+03  0.15933601571E+03  0.00000000000E+00 0. -1.
        -13    1    3    3    0    0 -0.21577011371E+02 -0.24055536660E+02  0.12434288291E+03  0.12847329992E+03  0.00000000000E+00 0.  1.
         13    1    3    3    0    0 -0.89544549216E+01  0.59473254095E+02  0.77186859367E+02  0.97852243074E+02  0.00000000000E+00 0. -1.
          1    1    1    2  501    0 -0.30348488109E+02  0.10251747663E+03  0.12127762418E+02  0.10760086601E+03  0.00000000000E+00 0. -1.
<scales pt_clust_5="13000.00000" pt_clust_6="13000.00000" pt_clust_7="13000.00000" pt_clust_8="13000.00000" pt_clust_9="119.41303"></scales>
<clustering>
<clus scale="   91.641">  5  6 -1 -1</clus>
<clus scale="   91.774">  7  8 -1 -1</clus>
<clus scale="  103.000">  1  7  2 -1</clus>
<clus scale="  119.413">  2  9  1 -1</clus>
<clus scale="  119.413">  2  5  1 -1</clus>
</clustering>
</event>
<event>
 9    1  0.1671478E-005  0.1843941E+03  0.7546771E-02  0.1163686E+00
         21   -1    0    0  501  502  0.00000000000E+00  0.00000000000E+00  0.38290774925E+02  0.38290774925E+02  0.00000000000E+00 0.  1.
          1   -1    0    0  502    0 -0.00000000000E+00 -0.00000000000E+00 -0.13665709243E+04  0.13665709243E+04  0.00000000000E+00 0. -1.
         23    2    1    2    0    0 -0.12690153683E+03  0.74461647969E+02 -0.78289909796E+03  0.80184961493E+03  0.91560200454E+02 0.  0.
         23    2    1    2    0    0  0.16017747767E+03 -0.10310312088E+03 -0.47865181827E+03  0.52313459833E+03  0.90967944594E+02 0.  0.
        -11    1    4    4    0    0  0.10511054320E+03 -0.22405496883E+02 -0.18860272521E+03  0.21707422817E+03  0.00000000000E+00 0.  1.
         11    1    4    4    0    0  0.55066934477E+02 -0.80697623997E+02 -0.29004909307E+03  0.30606037015E+03  0.00000000000E+00 0. -1.
        -11    1    3    3    0    0 -0.11291123633E+03  0.27293414858E+02 -0.64639503633E+03  0.65674989210E+03  0.00000000000E+00 0. -1.
         11    1    3    3    0    0 -0.13990300497E+02  0.47168233111E+02 -0.13650406163E+03  0.14509972283E+03  0.00000000000E+00 0.  1.
          1    1    1    2  501    0 -0.33275940841E+02  0.28641472911E+02 -0.66729233167E+02  0.79877485993E+02  0.00000000000E+00 0. -1.
<scales pt_clust_5="13000.00000" pt_clust_6="13000.00000" pt_clust_7="13000.00000" pt_clust_8="13000.00000" pt_clust_9="43.90469"></scales>
<clustering>
<clus scale="   43.905">  1  9  2 -1</clus>
<clus scale="   90.968">  5  6 -1 -1</clus>
<clus scale="   91.560">  7  8 -1 -1</clus>
<clus scale="  184.101">  1  5  2 -1</clus>
<clus scale="   43.905">  1  5  2 -1</clus>
</clustering>
</event>
<event>
 9    1  0.1671478E-005  0.1154768E+03  0.7546771E-02  0.1261040E+00
         21   -1    0    0  501  502  0.00000000000E+00  0.00000000000E+00  0.64445751419E+02  0.64445751419E+02  0.00000000000E+00 0. -1.
         -1   -1    0    0    0  501 -0.00000000000E+00 -0.00000000000E+00 -0.47885624846E+03  0.47885624846E+03  0.00000000000E+00 0.  1.
         23    2    1    2    0    0 -0.40198973047E+01 -0.92724856913E+01 -0.25244562746E+03  0.27741237374E+03  0.11457177539E+03 0.  0.
         23    2    1    2    0    0  0.18573325933E+02 -0.25706491579E+02 -0.19319750141E+03  0.21678964217E+03  0.93095017359E+02 0.  0.
        -11    1    4    4    0    0  0.14718819446E+02  0.34725915361E+02 -0.78356613182E+02  0.86961437850E+02  0.00000000000E+00 0.  1.
         11    1    4    4    0    0  0.38545064874E+01 -0.60432406940E+02 -0.11484088823E+03  0.12982820432E+03  0.00000000000E+00 0. -1.
        -13    1    3    3    0    0  0.51140048477E+02 -0.18220614471E+02 -0.84712462235E+02  0.10061558829E+03  0.00000000000E+00 0. -1.
         13    1    3    3    0    0 -0.55159945782E+02  0.89481287800E+01 -0.16773316522E+03  0.17679678544E+03  0.00000000000E+00 0.  1.
         -1    1    1    2    0  502 -0.14553428628E+02  0.34978977270E+02  0.31232631821E+02  0.49099983973E+02  0.00000000000E+00 0.  1.
<scales pt_clust_5="13000.00000" pt_clust_6="13000.00000" pt_clust_7="13000.00000" pt_clust_8="13000.00000" pt_clust_9="37.88576"></scales>
<clustering>
<clus scale="   37.886">  1  9  2 -1</clus>
<clus scale="   93.095">  5  6 -1 -1</clus>
<clus scale="   94.207">  1  5  2 -1</clus>
<clus scale="  114.572">  7  8 -1 -1</clus>
<clus scale="   37.886">  1  5  2 -1</clus>
</clustering>
</event>
<event>
 9    1  0.1671478E-005  0.9431235E+02  0.7546771E-02  0.1294024E+00
         21   -1    0    0  501  502  0.00000000000E+00  0.00000000000E+00  0.46507125306E+03  0.46507125306E+03  0.00000000000E+00 0.  1.
         -2   -1    0    0    0  501 -0.00000000000E+00 -0.00000000000E+00 -0.43221638676E+02  0.43221638676E+02  0.00000000000E+00 0.  1.
         23    2    1    2    0    0  0.26740811746E+02  0.60984250227E+01  0.41855638392E+02  0.10442264471E+03  0.91651145450E+02 0.  0.
         23    2    1    2    0    0 -0.29815052593E+01 -0.18418051324E+02  0.17725778603E+03  0.19937516014E+03  0.89342138925E+02 0.  0.
        -11    1    3    3    0    0 -0.33374547420E+02  0.66064518376E+01  0.63700977227E+01  0.34613346651E+02  0.00000000000E+00 0. -1.
         11    1    3    3    0    0  0.60115359166E+02 -0.50802681493E+00  0.35485540669E+02  0.69809298059E+02  0.00000000000E+00 0.  1.
        -13    1    4    4    0    0 -0.26821672133E+02  0.17564191464E+02  0.13577689129E+03  0.13951081366E+03  0.00000000000E+00 0. -1.
         13    1    4    4    0    0  0.23840166874E+02 -0.35982242788E+02  0.41480894732E+02  0.59864346487E+02  0.00000000000E+00 0.  1.
         -2    1    1    2    0  502 -0.23759306487E+02  0.12319626301E+02  0.20273618996E+03  0.20449508688E+03  0.00000000000E+00 0.  1.
<scales pt_clust_5="13000.00000" pt_clust_6="13000.00000" pt_clust_7="13000.00000" pt_clust_8="13000.00000" pt_clust_9="26.76337"></scales>
<clustering>
<clus scale="   26.763">  1  9  2 -1</clus>
<clus scale="   89.342">  7  8 -1 -1</clus>
<clus scale="   91.651">  5  6 -1 -1</clus>
<clus scale="   92.070">  1  7  2 -1</clus>
<clus scale="   26.763">  1  5  2 -1</clus>
</clustering>
</event>
<event>
 9    1  0.1671478E-005  0.1049630E+03  0.7546771E-02  0.1270835E+00
         -2   -1    0    0    0  501 -0.00000000000E+00  0.00000000000E+00  0.11839006919E+03  0.11839006919E+03  0.00000000000E+00 0.  1.
         21   -1    0    0  501  502  0.00000000000E+00 -0.00000000000E+00 -0.18536028917E+03  0.18536028917E+03  0.00000000000E+00 0. -1.
         23    2    1    2    0    0  0.61638124211E+02  0.17733937372E+02  0.64342528006E+01  0.10969132792E+03  0.88752672756E+02 0.  0.
         23    2    1    2    0    0 -0.40019879118E+02  0.12684079932E+02 -0.10668818663E+03  0.14405493155E+03  0.87217988574E+02 0.  0.
        -11    1    3    3    0    0  0.82249282214E+02  0.18482754481E+01 -0.21243356332E+01  0.82297468665E+02  0.00000000000E+00 0.  1.
         11    1    3    3    0    0 -0.20611158003E+02  0.15885661923E+02  0.85585884338E+01  0.27393859257E+02  0.00000000000E+00 0. -1.
        -13    1    4    4    0    0  0.26116153566E+02  0.34789571678E+01 -0.14047802921E+02  0.29857953496E+02  0.00000000000E+00 0.  1.
         13    1    4    4    0    0 -0.66136032684E+02  0.92051227639E+01 -0.92640383705E+02  0.11419697806E+03  0.00000000000E+00 0. -1.
         -2    1    1    2    0  502 -0.21618245093E+02 -0.30418017303E+02  0.33283713845E+02  0.50004098880E+02  0.00000000000E+00 0.  1.
<scales pt_clust_5="13000.00000" pt_clust_6="13000.00000" pt_clust_7="13000.00000" pt_clust_8="13000.00000" pt_clust_9="37.31763"></scales>
<clustering>
<clus scale="   37.318">  2  9  1 -1</clus>
<clus scale="   87.218">  7  8 -1 -1</clus>
<clus scale="   88.753">  5  6 -1 -1</clus>
<clus scale="  103.669">  2  7  1 -1</clus>
<clus scale="   37.318">  2  5  1 -1</clus>
</clustering>
</event>
<event>
 9    1  0.1671478E-005  0.1125312E+03  0.7546771E-02  0.1256796E+00
         -3   -1    0    0    0  501 -0.00000000000E+00  0.00000000000E+00  0.10174667038E+03  0.10174667038E+03  0.00000000000E+00 0.  1.
         21   -1    0    0  501  502  0.00000000000E+00 -0.00000000000E+00 -0.73054964976E+03  0.73054964976E+03  0.00000000000E+00 0.  1.
         23    2    1    2    0    0 -0.19253808821E+02 -0.77725635490E+02  0.32806306470E+02  0.12782493570E+03  0.94079630504E+02 0.  0.
         23    2    1    2    0    0 -0.51765487535E+02  0.37991236778E+01 -0.15436086870E+03  0.18696792908E+03  0.91845684049E+02 0.  0.
        -11    1    4    4    0    0 -0.44320938220E+02  0.45102397540E+02 -0.99530867283E+02  0.11791931721E+03  0.00000000000E+00 0. -1.
         11    1    4    4    0    0 -0.74445493149E+01 -0.41303273862E+02 -0.54830001415E+02  0.69048611871E+02  0.00000000000E+00 0.  1.
        -11    1    3    3    0    0 -0.70229522627E+01 -0.30087127336E+02  0.62961164116E+02  0.70133196681E+02  0.00000000000E+00 0.  1.
         11    1    3    3    0    0 -0.12230856558E+02 -0.47638508154E+02 -0.30154857647E+02  0.57691739018E+02  0.00000000000E+00 0. -1.
         -3    1    1    2    0  502  0.71019296356E+02  0.73926511812E+02 -0.50724841715E+03  0.51750345536E+03  0.00000000000E+00 0.  1.
<scales pt_clust_5="13000.00000" pt_clust_6="13000.00000" pt_clust_7="13000.00000" pt_clust_8="13000.00000" pt_clust_9="102.51278"></scales>
<clustering>
<clus scale="   91.846">  5  6 -1 -1</clus>
<clus scale="   94.080">  7  8 -1 -1</clus>
<clus scale="  102.513">  2  9  1 -1</clus>
<clus scale="  110.670">  2  5  1 -1</clus>
<clus scale="  102.513">  2  5  1 -1</clus>
</clustering>
</event>
<event>
 9    1  0.1671478E-005  0.1002683E+03  0.7546771E-02  0.1283554E+00
         21   -1    0    0  501  502  0.00000000000E+00  0.00000000000E+00  0.70265930120E+02  0.70265930120E+02  0.00000000000E+00 0. -1.
         -2   -1    0    0    0  501 -0.00000000000E+00 -0.00000000000E+00 -0.26588283712E+03  0.26588283712E+03  0.00000000000E+00 0.  1.
         23    2    1    2    0    0 -0.38613256175E+01 -0.61436442122E+01 -0.17419331335E+03  0.20054758365E+03  0.99112908806E+02 0.  0.
         23    2    1    2    0    0  0.21249950713E+02  0.30182493720E+02 -0.31889827045E+02  0.10414053182E+03  0.92009488459E+02 0.  0.
        -13    1    4    4    0    0  0.90234132539E+01  0.60805681310E+02 -0.51494940050E+01  0.61686871819E+02  0.00000000000E+00 0. -1.
         13    1    4    4    0    0  0.12226537459E+02 -0.30623187590E+02 -0.26740333040E+02  0.42453660001E+02  0.00000000000E+00 0.  1.
        -13    1    3    3    0    0 -0.33808221194E+02  0.20060590611E+02 -0.26066081917E+02  0.47168461311E+02  0.00000000000E+00 0. -1.
         13    1    3    3    0    0  0.29946895577E+02 -0.26204234823E+02 -0.14812723143E+03  0.15337912234E+03  0.00000000000E+00 0.  1.
         -2    1    1    2    0  502 -0.17388625095E+02 -0.24038849508E+02  0.10466233395E+02  0.31460651771E+02  0.00000000000E+00 0.  1.
<scales pt_clust_5="13000.00000" pt_clust_6="13000.00000" pt_clust_7="13000.00000" pt_clust_8="13000.00000" pt_clust_9="29.66868"></scales>
<clustering>
<clus scale="   29.669">  1  9  2 -1</clus>
<clus scale="   92.009">  5  6 -1 -1</clus>
<clus scale="   93.253">  1  5  2 -1</clus>
<clus scale="   99.113">  7  8 -1 -1</clus>
<clus scale="   29.669">  1  5  2 -1</clus>
</clustering>
</event>
<event>
 9    1  0.1671478E-005  0.1054796E+03  0.7546771E-02  0.1272680E+00
         21   -1    0    0  501  502  0.00000000000E+00  0.00000000000E+00  0.10980956766E+03  0.10980956766E+03  0.00000000000E+00 0.  1.
          3   -1    0    0  502    0 -0.00000000000E+00 -0.00000000000E+00 -0.19776673534E+03  0.19776673534E+03  0.00000000000E+00 0. -1.
         23    2    1    2    0    0  0.23570906591E+01  0.33621277256E+02 -0.10444336373E+03  0.14133915963E+03  0.89063997529E+02 0.  0.
         23    2    1    2    0    0 -0.76827030623E+01 -0.64669010321E+02 -0.19774113923E+02  0.11820450909E+03  0.96644635470E+02 0.  0.
        -11    1    4    4    0    0  0.27335064655E+02 -0.23431537776E+02  0.28328657147E+02  0.45812176743E+02  0.00000000000E+00 0.  1.
         11    1    4    4    0    0 -0.35017767717E+02 -0.41237472545E+02 -0.48102771070E+02  0.72392332345E+02  0.00000000000E+00 0. -1.
        -13    1    3    3    0    0  0.44745516067E+02  0.74516112550E+01 -0.47489927284E+02  0.65673289181E+02  0.00000000000E+00 0.  1.
         13    1    3    3    0    0 -0.42388425408E+02  0.26169666001E+02 -0.56953436451E+02  0.75665870449E+02  0.00000000000E+00 0. -1.
          3    1    1    2  501    0  0.53256124032E+01  0.31047733065E+02  0.36260309978E+02  0.48032634278E+02  0.00000000000E+00 0. -1.
<scales pt_clust_5="13000.00000" pt_clust_6="13000.00000" pt_clust_7="13000.00000" pt_clust_8="13000.00000" pt_clust_9="31.50117"></scales>
<clustering>
<clus scale="   31.501">  1  9  2 -1</clus>
<clus scale="   89.064">  7  8 -1 -1</clus>
<clus scale="   96.645">  5  6 -1 -1</clus>
<clus scale="   98.581">  2  7  1 -1</clus>
<clus scale="   31.501">  1  5  2 -1</clus>
</clustering>
</event>
<event>
 9    1  0.1671478E-005  0.1332840E+03  0.7546771E-02  0.1222827E+00
         21   -1    0    0  501  502  0.00000000000E+00  0.00000000000E+00  0.21358793006E+03  0.21358793006E+03  0.00000000000E+00 0. -1.
          1   -1    0    0  502    0 -0.00000000000E+00 -0.00000000000E+00 -0.29009773656E+03  0.29009773656E+03  0.00000000000E+00 0. -1.
         23    2    1    2    0    0  0.87580608123E+02  0.53272556777E+02 -0.20968341079E+03  0.25058446152E+03  0.91198198280E+02 0.  0.
         23    2    1    2    0    0 -0.67034903624E+02 -0.45543412089E+02  0.34709635751E+01  0.12155410077E+03  0.90528841470E+02 0.  0.
        -11    1    3    3    0    0  0.50772052151E+02 -0.17815017790E+02 -0.11227409407E+03  0.12450159974E+03  0.00000000000E+00 0. -1.
         11    1    3    3    0    0  0.36808555973E+02  0.71087574567E+02 -0.97409316717E+02  0.12608286178E+03  0.00000000000E+00 0.  1.
        -11    1    4    4    0    0 -0.30776229565E+02  0.21521457677E+02 -0.18979628080E+02  0.42078209667E+02  0.00000000000E+00 0. -1.
         11    1    4    4    0    0 -0.36258674060E+02 -0.67064869766E+02  0.22450591656E+02  0.79475891106E+02  0.00000000000E+00 0.  1.
          1    1    1    2  501    0 -0.20545704499E+02 -0.77291446879E+01  0.12970264071E+03  0.13154710433E+03  0.00000000000E+00 0. -1.
<scales pt_clust_5="13000.00000" pt_clust_6="13000.00000" pt_clust_7="13000.00000" pt_clust_8="13000.00000" pt_clust_9="21.95144"></scales>
<clustering>
<clus scale="   21.951">  1  9  2 -1</clus>
<clus scale="   90.529">  7  8 -1 -1</clus>
<clus scale="   91.198">  5  6 -1 -1</clus>
<clus scale="  132.827">  1  7  2 -1</clus>
<clus scale="   21.951">  1  5  2 -1</clus>
</clustering>
</event>
<event>
 9    1  0.1671478E-005  0.1030725E+03  0.7546771E-02  0.1274769E+00
          1   -1    0    0  502    0 -0.00000000000E+00  0.00000000000E+00  0.83787520037E+02  0.83787520037E+02  0.00000000000E+00 0. -1.
         21   -1    0    0  501  502  0.00000000000E+00 -0.00000000000E+00 -0.34143397872E+03  0.34143397872E+03  0.00000000000E+00 0. -1.
         23    2    1    2    0    0  0.20115075608E+02  0.53005597194E+02 -0.14091004892E+02  0.10886017684E+03  0.91857346370E+02 0.  0.
         23    2    1    2    0    0 -0.50950455300E+02 -0.57239242975E+01 -0.50642236228E+02  0.11535911610E+03  0.90079838879E+02 0.  0.
        -13    1    4    4    0    0  0.10617016447E+01 -0.23151529585E+02 -0.55643843177E+02  0.60277340817E+02  0.00000000000E+00 0.  1.
         13    1    4    4    0    0 -0.52012156945E+02  0.17427605288E+02  0.50016069491E+01  0.55081775282E+02  0.00000000000E+00 0. -1.
        -13    1    3    3    0    0 -0.18233874632E+02 -0.11530721168E+02  0.17138622276E+02  0.27552932480E+02  0.00000000000E+00 0.  1.
         13    1    3    3    0    0  0.38348950239E+02  0.64536318362E+02 -0.31229627168E+02  0.81307244359E+02  0.00000000000E+00 0. -1.
          1    1    1    2  501    0  0.30835379693E+02 -0.47281672896E+02 -0.19291321756E+03  0.20100220582E+03  0.00000000000E+00 0. -1.
<scales pt_clust_5="13000.00000" pt_clust_6="13000.00000" pt_clust_7="13000.00000" pt_clust_8="13000.00000" pt_clust_9="56.44800"></scales>
<clustering>
<clus scale="   56.448">  2  9  1 -1</clus>
<clus scale="   90.080">  5  6 -1 -1</clus>
<clus scale="   91.857">  7  8 -1 -1</clus>
<clus scale="  101.492">  2  5  1 -1</clus>
<clus scale="   56.448">  2  5  1 -1</clus>
</clustering>
</event>
<event>
 9    1  0.1671478E-005  0.4375839E+03  0.7546771E-02  0.1031498E+00
          1   -1    0    0  502    0 -0.00000000000E+00  0.00000000000E+00  0.16661226130E+04  0.16661226130E+04  0.00000000000E+00 0. -1.
         21   -1    0    0  501  502  0.00000000000E+00 -0.00000000000E+00 -0.27309413707E+03  0.27309413707E+03  0.00000000000E+00 0.  1.
         23    2    1    2    0    0 -0.13174664145E+03  0.40742331663E+03  0.13237840115E+04  0.13943706828E+04  0.92274349495E+02 0.  0.
         23    2    1    2    0    0  0.15062837718E+03 -0.39866074257E+03  0.15031877136E+03  0.46114214922E+03  0.91853432621E+02 0.  0.
        -11    1    4    4    0    0  0.15047451539E+03 -0.28576295503E+03  0.10710874952E+03  0.34025774124E+03  0.00000000000E+00 0.  1.
         11    1    4    4    0    0  0.15386178624E+00 -0.11289778754E+03  0.43210021840E+02  0.12088440797E+03  0.00000000000E+00 0. -1.
        -13    1    3    3    0    0 -0.32049461184E+02  0.33437893933E+02  0.88752719333E+02  0.10011146738E+03  0.00000000000E+00 0.  1.
         13    1    3    3    0    0 -0.99697180266E+02  0.37398542269E+03  0.12350312921E+04  0.12942592154E+04  0.00000000000E+00 0. -1.
          1    1    1    2  501    0 -0.18881735727E+02 -0.87625740602E+01 -0.81074306930E+02  0.83703918023E+02  0.00000000000E+00 0. -1.
<scales pt_clust_5="13000.00000" pt_clust_6="13000.00000" pt_clust_7="13000.00000" pt_clust_8="13000.00000" pt_clust_9="20.81592"></scales>
<clustering>
<clus scale="   20.816">  2  9  1 -1</clus>
<clus scale="   91.853">  5  6 -1 -1</clus>
<clus scale="   92.274">  7  8 -1 -1</clus>
<clus scale="  437.495">  2  5  1 -1</clus>
<clus scale="   20.816">  2  5  1 -1</clus>
</clustering>
</event>
<event>
 9    1  0.1671478E-005  0.2232341E+03  0.7546771E-02  0.1131588E+00
         21   -1    0    0  501  502  0.00000000000E+00  0.00000000000E+00  0.13102926509E+03  0.13102926509E+03  0.00000000000E+00 0.  1.
          3   -1    0    0  502    0 -0.00000000000E+00 -0.00000000000E+00 -0.72471111763E+03  0.72471111763E+03  0.00000000000E+00 0. -1.
         23    2    1    2    0    0  0.15695432254E+03  0.12851815204E+03 -0.38338339720E+03  0.44349413974E+03  0.92480527473E+02 0.  0.
         23    2    1    2    0    0 -0.21973613002E+03 -0.38046741962E+02 -0.17041750226E+03  0.29512612596E+03  0.91245732714E+02 0.  0.
        -11    1    3    3    0    0  0.11304352777E+03  0.33132868439E+02 -0.21047605404E+03  0.24119866390E+03  0.00000000000E+00 0.  1.
         11    1    3    3    0    0  0.43910794771E+02  0.95385283603E+02 -0.17290734317E+03  0.20229547584E+03  0.00000000000E+00 0. -1.
        -13    1    4    4    0    0 -0.19086596133E+03 -0.15168023327E+02 -0.10084020692E+03  0.21639924089E+03  0.00000000000E+00 0.  1.
         13    1    4    4    0    0 -0.28870168693E+02 -0.22878718635E+02 -0.69577295339E+02  0.78726885074E+02  0.00000000000E+00 0. -1.
          3    1    1    2  501    0  0.62781807477E+02 -0.90471410080E+02 -0.39880953086E+02  0.11712011702E+03  0.00000000000E+00 0. -1.
<scales pt_clust_5="13000.00000" pt_clust_6="13000.00000" pt_clust_7="13000.00000" pt_clust_8="13000.00000" pt_clust_9="110.12099"></scales>
<clustering>
<clus scale="   91.246">  7  8 -1 -1</clus>
<clus scale="   92.481">  5  6 -1 -1</clus>
<clus scale="  110.121">  1  9  2 -1</clus>
<clus scale="  222.725">  1  7  2 -1</clus>
<clus scale="  110.121">  1  5  2 -1</clus>
</clustering>
</event>
<event>
 9    1  0.1671478E-005  0.9959554E+02  0.7546771E-02  0.1282532E+00
         21   -1    0    0  501  502  0.00000000000E+00  0.00000000000E+00  0.64228272246E+02  0.64228272246E+02  0.00000000000E+00 0. -1.
         -3   -1    0    0    0  501 -0.00000000000E+00 -0.00000000000E+00 -0.32332035042E+03  0.32332035042E+03  0.00000000000E+00 0.  1.
         23    2    1    2    0    0  0.14142762244E+02 -0.34786837742E+02 -0.13659274588E+03  0.16875150045E+03  0.91702501985E+02 0.  0.
         23    2    1    2    0    0 -0.62762370402E+02 -0.53549639296E+01 -0.10941005291E+03  0.15440333546E+03  0.88893416773E+02 0.  0.
        -11    1    3    3    0    0 -0.33110786270E+02 -0.23769713937E+02 -0.26980304705E+02  0.48880060454E+02  0.00000000000E+00 0. -1.
         11    1    3    3    0    0  0.47253548514E+02 -0.11017123805E+02 -0.10961244118E+03  0.11987143999E+03  0.00000000000E+00 0.  1.
        -13    1    4    4    0    0  0.21956863249E+02  0.73514326295E+01 -0.20300143837E+02  0.30793558503E+02  0.00000000000E+00 0.  1.
         13    1    4    4    0    0 -0.84719233652E+02 -0.12706396559E+02 -0.89109909073E+02  0.12360977696E+03  0.00000000000E+00 0. -1.
         -3    1    1    2    0  502  0.48619608158E+02  0.40141801671E+02 -0.13089279379E+02  0.64393786762E+02  0.00000000000E+00 0.  1.
<scales pt_clust_5="13000.00000" pt_clust_6="13000.00000" pt_clust_7="13000.00000" pt_clust_8="13000.00000" pt_clust_9="63.04943"></scales>
<clustering>
<clus scale="   63.049">  1  9  2 -1</clus>
<clus scale="   88.893">  7  8 -1 -1</clus>
<clus scale="   91.703">  5  6 -1 -1</clus>
<clus scale="   97.015">  1  7  2 -1</clus>
<clus scale="   63.049">  1  5  2 -1</clus>
</clustering>
</event>
<event>
 9    1  0.1671478E-005  0.1418592E+03  0.7546771E-02  0.1220781E+00
          1   -1    0    0  502    0 -0.00000000000E+00  0.00000000000E+00  0.28692401879E+03  0.28692401879E+03  0.00000000000E+00 0. -1.
         21   -1    0    0  501  502  0.00000000000E+00 -0.00000000000E+00 -0.18640338354E+03  0.18640338354E+03  0.00000000000E+00 0. -1.
         23    2    1    2    0    0  0.31442267655E+02 -0.85713731413E+02  0.15045785952E+03  0.21491059937E+03  0.12334317282E+03 0.  0.
         23    2    1    2    0    0 -0.46662190609E+02  0.32596838284E+02  0.68689772589E+02  0.12755269492E+03  0.91167380262E+02 0.  0.
        -11    1    4    4    0    0 -0.25748489639E+01  0.51221255789E+02  0.10746744967E+02  0.52399803618E+02  0.00000000000E+00 0.  1.
         11    1    4    4    0    0 -0.44087341645E+02 -0.18624417505E+02  0.57943027622E+02  0.75152891300E+02  0.00000000000E+00 0. -1.
        -13    1    3    3    0    0  0.73474702730E+02 -0.23435131390E+02  0.89604082048E+02  0.11822279325E+03  0.00000000000E+00 0. -1.
         13    1    3    3    0    0 -0.42032435075E+02 -0.62278600023E+02  0.60853777476E+02  0.96687806119E+02  0.00000000000E+00 0.  1.
          1    1    1    2  501    0  0.15219922954E+02  0.53116893129E+02 -0.11862699686E+03  0.13086410805E+03  0.00000000000E+00 0. -1.
<scales pt_clust_5="13000.00000" pt_clust_6="13000.00000" pt_clust_7="13000.00000" pt_clust_8="13000.00000" pt_clust_9="55.25442"></scales>
<clustering>
<clus scale="   55.254">  2  9  1 -1</clus>
<clus scale="   91.167">  5  6 -1 -1</clus>
<clus scale="  114.987">  2  5  1 -1</clus>
<clus scale="  123.343">  7  8 -1 -1</clus>
<clus scale="   55.254">  2  5  1 -1</clus>
</clustering>
</event>
<event>
 9    1  0.1671478E-005  0.1039248E+03  0.7546771E-02  0.1272345E+00
         21   -1    0    0  501  502  0.00000000000E+00  0.00000000000E+00  0.84160594194E+02  0.84160594194E+02  0.00000000000E+00 0. -1.
          1   -1    0    0  502    0 -0.00000000000E+00 -0.00000000000E+00 -0.55034985592E+03  0.55034985592E+03  0.00000000000E+00 0. -1.
         23    2    1    2    0    0 -0.22116695234E+02  0.32624673140E+02 -0.27560376471E+03  0.29309323661E+03  0.91611640754E+02 0.  0.
         23    2    1    2    0    0 -0.56839092300E+01 -0.70399190303E+02 -0.24422517659E+03  0.27016412247E+03  0.91402206596E+02 0.  0.
        -11    1    4    4    0    0 -0.39259559467E+02 -0.40211018967E+02 -0.19686775555E+03  0.20473190330E+03  0.00000000000E+00 0. -1.
         11    1    4    4    0    0  0.33575650237E+02 -0.30188171336E+02 -0.47357421044E+02  0.65432219168E+02  0.00000000000E+00 0.  1.
        -13    1    3    3    0    0 -0.53359344736E+02  0.54832969131E+01 -0.10979296234E+03  0.12219566602E+03  0.00000000000E+00 0. -1.
         13    1    3    3    0    0  0.31242649501E+02  0.27141376227E+02 -0.16581080237E+03  0.17089757059E+03  0.00000000000E+00 0.  1.
          1    1    1    2  501    0  0.27800604464E+02  0.37774517163E+02  0.53639679578E+02  0.71253091025E+02  0.00000000000E+00 0. -1.
<scales pt_clust_5="13000.00000" pt_clust_6="13000.00000" pt_clust_7="13000.00000" pt_clust_8="13000.00000" pt_clust_9="46.90190"></scales>
<clustering>
<clus scale="   46.902">  1  9  2 -1</clus>
<clus scale="   91.402">  5  6 -1 -1</clus>
<clus scale="   91.612">  7  8 -1 -1</clus>
<clus scale="  103.740">  1  5  2 -1</clus>
<clus scale="   46.902">  1  5  2 -1</clus>
</clustering>
</event>
<event>
 9    1  0.1671478E-005  0.2536779E+03  0.7546771E-02  0.1111058E+00
         21   -1    0    0  501  502  0.00000000000E+00  0.00000000000E+00  0.11038908605E+04  0.11038908605E+04  0.00000000000E+00 0.  1.
         -1   -1    0    0    0  501 -0.00000000000E+00 -0.00000000000E+00 -0.15214129333E+03  0.15214129333E+03  0.00000000000E+00 0.  1.
         23    2    1    2    0    0 -0.19387840501E+03  0.14581463350E+03  0.98073370166E+00  0.25763779517E+03  0.86749803388E+02 0.  0.
         23    2    1    2    0    0  0.15184095407E+03 -0.13897365964E+03  0.91737416013E+03  0.94427273253E+03  0.87785478958E+02 0.  0.
        -13    1    4    4    0    0  0.23915709103E+02 -0.66617999759E+02  0.20440283768E+03  0.21631097773E+03  0.00000000000E+00 0. -1.
         13    1    4    4    0    0  0.12792524497E+03 -0.72355659880E+02  0.71297132245E+03  0.72796175480E+03  0.00000000000E+00 0.  1.
        -13    1    3    3    0    0 -0.12083280155E+03  0.39704414975E+02  0.14933957851E+02  0.12806260030E+03  0.00000000000E+00 0. -1.
         13    1    3    3    0    0 -0.73045603462E+02  0.10611021852E+03 -0.13953224149E+02  0.12957519486E+03  0.00000000000E+00 0.  1.
         -1    1    1    2    0  502  0.42037450943E+02 -0.68409738574E+01  0.33394673293E+02  0.54121626079E+02  0.00000000000E+00 0.  1.
<scales pt_clust_5="13000.00000" pt_clust_6="13000.00000" pt_clust_7="13000.00000" pt_clust_8="13000.00000" pt_clust_9="42.59047"></scales>
<clustering>
<clus scale="   42.590">  1  9  2 -1</clus>
<clus scale="   86.750">  7  8 -1 -1</clus>
<clus scale="   87.785">  5  6 -1 -1</clus>
<clus scale="  253.321">  2  7  1 -1</clus>
<clus scale="   42.590">  1  5  2 -1</clus>
</clustering>
</event>
<event>
 9    1  0.1671478E-005  0.1024727E+03  0.7546771E-02  0.1279696E+00
         -4   -1    0    0    0  501 -0.00000000000E+00  0.00000000000E+00  0.28812962815E+03  0.28812962815E+03  0.00000000000E+00 0.  1.
         21   -1    0    0  501  502  0.00000000000E+00 -0.00000000000E+00 -0.10358460049E+03  0.10358460049E+03  0.00000000000E+00 0.  1.
         23    2    1    2    0    0 -0.51360413091E+02 -0.33198250405E+02  0.16830115173E+03  0.19724644796E+03  0.82709538110E+02 0.  0.
         23    2    1    2    0    0 -0.37409488786E+02  0.20023087608E+02 -0.70211738333E+01  0.10175886561E+03  0.92223510883E+02 0.  0.
        -11    1    4    4    0    0 -0.66142336254E+02  0.67890035849E+00 -0.10393204378E+02  0.66957361418E+02  0.00000000000E+00 0.  1.
         11    1    4    4    0    0  0.28732847468E+02  0.19344187249E+02  0.33720305446E+01  0.34801504191E+02  0.00000000000E+00 0. -1.
        -13    1    3    3    0    0 -0.17816907885E+02  0.27146840400E+02  0.39736982288E+02  0.51316867711E+02  0.00000000000E+00 0.  1.
         13    1    3    3    0    0 -0.33543505206E+02 -0.60345090806E+02  0.12856416945E+03  0.14592958025E+03  0.00000000000E+00 0. -1.
         -4    1    1    2    0  502  0.88769901877E+02  0.13175162798E+02  0.23265049755E+02  0.92708915073E+02  0.00000000000E+00 0.  1.
<scales pt_clust_5="13000.00000" pt_clust_6="13000.00000" pt_clust_7="13000.00000" pt_clust_8="13000.00000" pt_clust_9="89.74230"></scales>
<clustering>
<clus scale="   82.710">  7  8 -1 -1</clus>
<clus scale="   89.742">  2  9  1 -1</clus>
<clus scale="   92.224">  5  6 -1 -1</clus>
<clus scale="   94.002">  1  7  2 -1</clus>
<clus scale="   89.742">  2  5  1 -1</clus>
</clustering>
</event>
<event>
 9    1  0.1671478E-005  0.1542807E+03  0.7546771E-02  0.1195456E+00
         21   -1    0    0  501  502  0.00000000000E+00  0.00000000000E+00  0.65414010837E+02  0.65414010837E+02  0.00000000000E+00 0. -1.
         -2   -1    0    0    0  501 -0.00000000000E+00 -0.00000000000E+00 -0.51659848312E+03  0.51659848312E+03  0.00000000000E+00 0.  1.
         23    2    1    2    0    0 -0.53219958606E+01 -0.11639135005E+03 -0.28041185379E+03  0.31718203603E+03  0.91642600509E+02 0.  0.
         23    2    1    2    0    0 -0.24901920173E+01  0.13772901793E+03 -0.17628309080E+03  0.24144901967E+03  0.90809787806E+02 0.  0.
        -11    1    4    4    0    0  0.36450166694E+02  0.22296077969E+02 -0.53713390820E+02  0.68635691140E+02  0.00000000000E+00 0. -1.
         11    1    4    4    0    0 -0.38940358712E+02  0.11543293996E+03 -0.12256969998E+03  0.17281332853E+03  0.00000000000E+00 0.  1.
        -13    1    3    3    0    0 -0.46095326995E+02 -0.67537943019E+02 -0.18765981304E+03  0.20470065546E+03  0.00000000000E+00 0.  1.
         13    1    3    3    0    0  0.40773331134E+02 -0.48853407035E+02 -0.92752040748E+02  0.11248138056E+03  0.00000000000E+00 0. -1.
         -2    1    1    2    0  502  0.78121878779E+01 -0.21337667875E+02  0.55104723079E+01  0.23381438255E+02  0.00000000000E+00 0.  1.
<scales pt_clust_5="13000.00000" pt_clust_6="13000.00000" pt_clust_7="13000.00000" pt_clust_8="13000.00000" pt_clust_9="22.72282"></scales>
<clustering>
<clus scale="   22.723">  1  9  2 -1</clus>
<clus scale="   90.810">  5  6 -1 -1</clus>
<clus scale="   91.643">  7  8 -1 -1</clus>
<clus scale="  153.787">  1  5  2 -1</clus>
<clus scale="   22.723">  1  5  2 -1</clus>
</clustering>
</event>
<event>
 9    1  0.1671478E-005  0.1081309E+03  0.7546771E-02  0.1267512E+00
         -4   -1    0    0    0  501 -0.00000000000E+00  0.00000000000E+00  0.43585813346E+03  0.43585813346E+03  0.00000000000E+00 0.  1.
         21   -1    0    0  501  502  0.00000000000E+00 -0.00000000000E+00 -0.65478627777E+02  0.65478627777E+02  0.00000000000E+00 0.  1.
         23    2    1    2    0    0  0.33164737237E+02 -0.37710541701E+02  0.19677264073E+03  0.22023850581E+03  0.85226419327E+02 0.  0.
         23    2    1    2    0    0 -0.56307700322E+02  0.26189849833E+02  0.20903647844E+03  0.23723961211E+03  0.93434034955E+02 0.  0.
        -11    1    4    4    0    0 -0.34499649733E+02 -0.24605629851E+02  0.15205932955E+03  0.15785342111E+03  0.00000000000E+00 0.  1.
         11    1    4    4    0    0 -0.21808050589E+02  0.50795479684E+02  0.56977148883E+02  0.79386191001E+02  0.00000000000E+00 0. -1.
        -11    1    3    3    0    0 -0.23487355553E+02  0.99418348995E+00  0.20897151387E+02  0.31453699429E+02  0.00000000000E+00 0.  1.
         11    1    3    3    0    0  0.56652092790E+02 -0.38704725191E+02  0.17587548934E+03  0.18878480638E+03  0.00000000000E+00 0. -1.
         -4    1    1    2    0  502  0.23142963085E+02  0.11520691868E+02 -0.35429613485E+02  0.43858643312E+02  0.00000000000E+00 0.  1.
<scales pt_clust_5="13000.00000" pt_clust_6="13000.00000" pt_clust_7="13000.00000" pt_clust_8="13000.00000" pt_clust_9="25.85195"></scales>
<clustering>
<clus scale="   25.852">  2  9  1 -1</clus>
<clus scale="   85.226">  7  8 -1 -1</clus>
<clus scale="   93.434">  5  6 -1 -1</clus>
<clus scale="  101.123">  1  7  2 -1</clus>
<clus scale="   25.852">  2  5  1 -1</clus>
</clustering>
</event>
<event>
 9    1  0.1671478E-005  0.1184378E+03  0.7546771E-02  0.1248577E+00
          1   -1    0    0  502    0 -0.00000000000E+00  0.00000000000E+00  0.82774230062E+03  0.82774230062E+03  0.00000000000E+00 0. -1.
         21   -1    0    0  501  502  0.00000000000E+00 -0.00000000000E+00 -0.29280949557E+02  0.29280949557E+02  0.00000000000E+00 0.  1.
         23    2    1    2    0    0 -0.62820973625E+02  0.27948049522E+01  0.56196627127E+03  0.57384625917E+03  0.97668589959E+02 0.  0.
         23    2    1    2    0    0  0.81928689424E+02  0.15119130271E+02  0.15404803511E+03  0.19666959793E+03  0.89483156956E+02 0.  0.
        -13    1    3    3    0    0 -0.19658099083E+02  0.49023598263E+02  0.24413161549E+03  0.24977990257E+03  0.00000000000E+00 0.  1.
         13    1    3    3    0    0 -0.43162874542E+02 -0.46228793311E+02  0.31783465578E+03  0.32406635661E+03  0.00000000000E+00 0. -1.
        -13    1    4    4    0    0  0.80203279281E+02  0.45205085741E+02  0.11871114292E+03  0.15022783110E+03  0.00000000000E+00 0.  1.
         13    1    4    4    0    0  0.17254101431E+01 -0.30085955470E+02  0.35336892184E+02  0.46441766826E+02  0.00000000000E+00 0. -1.
          1    1    1    2  501    0 -0.19107715799E+02 -0.17913935223E+02  0.82447044689E+02  0.86507393073E+02  0.00000000000E+00 0. -1.
<scales pt_clust_5="13000.00000" pt_clust_6="13000.00000" pt_clust_7="13000.00000" pt_clust_8="13000.00000" pt_clust_9="26.19188"></scales>
<clustering>
<clus scale="   26.192">  2  9  1 -1</clus>
<clus scale="   89.483">  7  8 -1 -1</clus>
<clus scale="   97.669">  5  6 -1 -1</clus>
<clus scale="  111.784">  2  7  1 -1</clus>
<clus scale="   26.192">  2  5  1 -1</clus>
</clustering>
</event>
<event>
 9    1  0.1671478E-005  0.2047005E+03  0.7546771E-02  0.1145868E+00
         21   -1    0    0  501  502  0.00000000000E+00  0.00000000000E+00  0.15284431732E+03  0.15284431732E+03  0.00000000000E+00 0. -1.
          2   -1    0    0  502    0 -0.00000000000E+00 -0.00000000000E+00 -0.47638099017E+03  0.47638099017E+03  0.00000000000E+00 0. -1.
         23    2    1    2    0    0  0.68680823109E+02  0.17140474660E+03 -0.25832932675E+03  0.33040075634E+03  0.91290613479E+02 0.  0.
         23    2    1    2    0    0 -0.48855922958E+02 -0.17490478845E+03 -0.12313780672E+03  0.23749580400E+03  0.90899676794E+02 0.  0.
        -11    1    3    3    0    0  0.90631465796E+02  0.14362844280E+03 -0.22383331217E+03  0.28097071700E+03  0.00000000000E+00 0. -1.
         11    1    3    3    0    0 -0.21950642687E+02  0.27776303803E+02 -0.34496014578E+02  0.49430039339E+02  0.00000000000E+00 0.  1.
        -13    1    4    4    0    0 -0.62136859048E+02 -0.13090165034E+03 -0.54336653068E+02  0.15475368551E+03  0.00000000000E+00 0.  1.
         13    1    4    4    0    0  0.13280936090E+02 -0.44003138112E+02 -0.68801153652E+02  0.82742118483E+02  0.00000000000E+00 0. -1.
          2    1    1    2  501    0 -0.19824900151E+02  0.35000418503E+01  0.57930460624E+02  0.61328747150E+02  0.00000000000E+00 0. -1.
<scales pt_clust_5="13000.00000" pt_clust_6="13000.00000" pt_clust_7="13000.00000" pt_clust_8="13000.00000" pt_clust_9="20.13149"></scales>
<clustering>
<clus scale="   20.131">  1  9  2 -1</clus>
<clus scale="   90.900">  7  8 -1 -1</clus>
<clus scale="   91.291">  5  6 -1 -1</clus>
<clus scale="  204.526">  1  7  2 -1</clus>
<clus scale="   20.131">  1  5  2 -1</clus>
</clustering>
</event>
<event>
 9    1  0.1671478E-005  0.9762493E+02  0.7546771E-02  0.1286294E+00
         21   -1    0    0  501  502  0.00000000000E+00  0.00000000000E+00  0.54539087300E+02  0.54539087300E+02  0.00000000000E+00 0. -1.
          1   -1    0    0  502    0 -0.00000000000E+00 -0.00000000000E+00 -0.62002513886E+03  0.62002513886E+03  0.00000000000E+00 0. -1.
         23    2    1    2    0    0 -0.44796598141E+01 -0.32491723534E+02 -0.45712179645E+03  0.46780659151E+03  0.93845036251E+02 0.  0.
         23    2    1    2    0    0  0.14354608821E+02  0.83261114268E+01 -0.13833477922E+03  0.16701189599E+03  0.92092797421E+02 0.  0.
        -11    1    3    3    0    0 -0.47737801818E+02 -0.17882126878E+02 -0.18563765346E+03  0.19250975707E+03  0.00000000000E+00 0.  1.
         11    1    3    3    0    0  0.43258142004E+02 -0.14609596655E+02 -0.27148414298E+03  0.27529683445E+03  0.00000000000E+00 0. -1.
        -11    1    4    4    0    0 -0.37533085851E+01  0.48857931303E+02 -0.77756002483E+02  0.91908545298E+02  0.00000000000E+00 0.  1.
         11    1    4    4    0    0  0.18107917406E+02 -0.40531819877E+02 -0.60578776734E+02  0.75103350697E+02  0.00000000000E+00 0. -1.
          1    1    1    2  501    0 -0.98749490070E+01  0.24165612107E+02  0.29970524099E+02  0.39745738654E+02  0.00000000000E+00 0. -1.
<scales pt_clust_5="13000.00000" pt_clust_6="13000.00000" pt_clust_7="13000.00000" pt_clust_8="13000.00000" pt_clust_9="26.10539"></scales>
<clustering>
<clus scale="   26.105">  1  9  2 -1</clus>
<clus scale="   92.093">  7  8 -1 -1</clus>
<clus scale="   93.845">  5  6 -1 -1</clus>
<clus scale="   95.942">  1  7  2 -1</clus>
<clus scale="   26.105">  1  5  2 -1</clus>
</clustering>
</event>
<event>
 9    1  0.1671478E-005  0.9627707E+02  0.7546771E-02  0.1289486E+00
         21   -1    0    0  501  502  0.00000000000E+00  0.00000000000E+00  0.27634969058E+03  0.27634969058E+03  0.00000000000E+00 0. -1.
         -1   -1    0    0    0  501 -0.00000000000E+00 -0.00000000000E+00 -0.57601647221E+02  0.57601647221E+02  0.00000000000E+00 0.  1.
         23    2    1    2    0    0 -0.34952307063E+02  0.36441151642E+01  0.22426028172E+02  0.99245636395E+02  0.90065677477E+02 0.  0.
         23    2    1    2    0    0  0.10383200884E+02 -0.10977598786E+02  0.10843572940E+03  0.14315560480E+03  0.92232864196E+02 0.  0.
        -13    1    3    3    0    0 -0.26657491724E+02 -0.40502191626E+02  0.24405321068E+02  0.54283230264E+02  0.00000000000E+00 0.  1.
         13    1    3    3    0    0 -0.82948153393E+01  0.44146306790E+02 -0.19792928955E+01  0.44962406131E+02  0.00000000000E+00 0. -1.
        -13    1    4    4    0    0  0.31748149057E+02 -0.10085650469E+02  0.70077184165E+00  0.33319009515E+02  0.00000000000E+00 0.  1.
         13    1    4    4    0    0 -0.21364948173E+02 -0.89194831649E+00  0.10773495756E+03  0.10983659528E+03  0.00000000000E+00 0. -1.
         -1    1    1    2    0  502  0.24569106179E+02  0.73334836216E+01  0.87886285785E+02  0.91550096611E+02  0.00000000000E+00 0.  1.
<scales pt_clust_5="13000.00000" pt_clust_6="13000.00000" pt_clust_7="13000.00000" pt_clust_8="13000.00000" pt_clust_9="25.64022"></scales>
<clustering>
<clus scale="   25.640">  1  9  2 -1</clus>
<clus scale="   90.066">  5  6 -1 -1</clus>
<clus scale="   92.233">  7  8 -1 -1</clus>
<clus scale="   94.203">  2  5  1 -1</clus>
<clus scale="   25.640">  1  5  2 -1</clus>
</clustering>
</event>
<event>
 9    1  0.1671478E-005  0.9227606E+02  0.7546771E-02  0.1298266E+00
         -3   -1    0    0    0  501 -0.00000000000E+00  0.00000000000E+00  0.13761703406E+03  0.13761703406E+03  0.00000000000E+00 0.  1.
         21   -1    0    0  501  502  0.00000000000E+00 -0.00000000000E+00 -0.18146219779E+03  0.18146219779E+03  0.00000000000E+00 0.  1.
         23    2    1    2    0    0 -0.83595575600E+00  0.46306290769E+01  0.83245633665E+02  0.12402866805E+03  0.91821203583E+02 0.  0.
         23    2    1    2    0    0  0.45287913841E+02 -0.11248046209E+02 -0.99568584188E+02  0.14235104760E+03  0.90401350172E+02 0.  0.
        -11    1    4    4    0    0 -0.51989590810E+01  0.33473566410E+02 -0.27369416726E+02  0.43549900065E+02  0.00000000000E+00 0. -1.
         11    1    4    4    0    0  0.50486872922E+02 -0.44721612619E+02 -0.72199167462E+02  0.98801147538E+02  0.00000000000E+00 0.  1.
        -13    1    3    3    0    0  0.37609513706E+02  0.10650627624E+02  0.74518405909E+02  0.84148108768E+02  0.00000000000E+00 0.  1.
         13    1    3    3    0    0 -0.38445469462E+02 -0.60199985469E+01  0.87272277557E+01  0.39880559286E+02  0.00000000000E+00 0. -1.
         -3    1    1    2    0  502 -0.44451958085E+02  0.66174171322E+01 -0.27522213201E+02  0.52699516189E+02  0.00000000000E+00 0.  1.
<scales pt_clust_5="13000.00000" pt_clust_6="13000.00000" pt_clust_7="13000.00000" pt_clust_8="13000.00000" pt_clust_9="44.94182"></scales>
<clustering>
<clus scale="   44.942">  2  9  1 -1</clus>
<clus scale="   90.401">  5  6 -1 -1</clus>
<clus scale="   90.863">  2  5  1 -1</clus>
<clus scale="   91.821">  7  8 -1 -1</clus>
<clus scale="   44.942">  2  5  1 -1</clus>
</clustering>
</event>
<event>
 9    1  0.1671478E-005  0.1548366E+03  0.7546771E-02  0.1194855E+00
         21   -1    0    0  501  502  0.00000000000E+00  0.00000000000E+00  0.22121781546E+03  0.22121781546E+03  0.00000000000E+00 0.  1.
          1   -1    0    0  502    0 -0.00000000000E+00 -0.00000000000E+00 -0.44967383029E+03  0.44967383029E+03  0.00000000000E+00 0. -1.
         23    2    1    2    0    0  0.85872241979E+02 -0.83703828773E+02 -0.35332653070E+03  0.38437263720E+03  0.92316380083E+02 0.  0.
         23    2    1    2    0    0 -0.11274280907E+03  0.91900308507E+02  0.15481517581E+02  0.17358025257E+03  0.93454903522E+02 0.  0.
        -11    1    3    3    0    0  0.41147875196E+02 -0.38183605084E+02 -0.52525579019E+02  0.76876991237E+02  0.00000000000E+00 0.  1.
         11    1    3    3    0    0  0.44724366783E+02 -0.45520223689E+02 -0.30080095169E+03  0.30749564596E+03  0.00000000000E+00 0. -1.
        -13    1    4    4    0    0 -0.92946013045E+02  0.46172433767E+02 -0.27949415657E+02  0.10748034619E+03  0.00000000000E+00 0.  1.
         13    1    4    4    0    0 -0.19796796029E+02  0.45727874740E+02  0.43430933238E+02  0.66099906378E+02  0.00000000000E+00 0. -1.
          1    1    1    2  501    0  0.26870567095E+02 -0.81964797338E+01  0.10938899829E+03  0.11293875599E+03  0.00000000000E+00 0. -1.
<scales pt_clust_5="13000.00000" pt_clust_6="13000.00000" pt_clust_7="13000.00000" pt_clust_8="13000.00000" pt_clust_9="28.09288"></scales>
<clustering>
<clus scale="   28.093">  1  9  2 -1</clus>
<clus scale="   92.316">  5  6 -1 -1</clus>
<clus scale="   93.455">  7  8 -1 -1</clus>
<clus scale="  154.152">  2  5  1 -1</clus>
<clus scale="   28.093">  1  5  2 -1</clus>
</clustering>
</event>
<event>
 9    1  0.1671478E-005  0.9350914E+02  0.7546771E-02  0.1299529E+00
         21   -1    0    0  501  502  0.00000000000E+00  0.00000000000E+00  0.37357181822E+02  0.37357181822E+02  0.00000000000E+00 0. -1.
          1   -1    0    0  502    0 -0.00000000000E+00 -0.00000000000E+00 -0.38466009529E+03  0.38466009529E+03  0.00000000000E+00 0. -1.
         23    2    1    2    0    0  0.77760213683E+01 -0.50568896645E+01 -0.17146088723E+03  0.19164426527E+03  0.85103759726E+02 0.  0.
         23    2    1    2    0    0  0.34504678123E+02 -0.10785628088E+02 -0.96196796380E+02  0.13881971831E+03  0.93328387809E+02 0.  0.
        -13    1    4    4    0    0 -0.32221527852E+02 -0.40165086366E+01 -0.38355218443E+02  0.50254173763E+02  0.00000000000E+00 0.  1.
         13    1    4    4    0    0  0.66726205975E+02 -0.67691194514E+01 -0.57841577937E+02  0.88565544543E+02  0.00000000000E+00 0. -1.
        -13    1    3    3    0    0 -0.34677776399E+02  0.15987936669E+02 -0.79370244438E+02  0.88078362820E+02  0.00000000000E+00 0.  1.
         13    1    3    3    0    0  0.42453797768E+02 -0.21044826333E+02 -0.92090642789E+02  0.10356590245E+03  0.00000000000E+00 0. -1.
          1    1    1    2  501    0 -0.42280699491E+02  0.15842517752E+02 -0.79645229858E+02  0.91553293536E+02  0.00000000000E+00 0. -1.
<scales pt_clust_5="13000.00000" pt_clust_6="13000.00000" pt_clust_7="13000.00000" pt_clust_8="13000.00000" pt_clust_9="45.15136"></scales>
<clustering>
<clus scale="   45.151">  1  9  2 -1</clus>
<clus scale="   85.104">  7  8 -1 -1</clus>
<clus scale="   85.302">  2  7  1 -1</clus>
<clus scale="   93.328">  5  6 -1 -1</clus>
<clus scale="   45.151">  1  5  2 -1</clus>
</clustering>
</event>
<event>
 9    1  0.1671478E-005  0.2943504E+03  0.7546771E-02  0.1088189E+00
         21   -1    0    0  501  502  0.00000000000E+00  0.00000000000E+00  0.15819235128E+03  0.15819235128E+03  0.00000000000E+00 0. -1.
          3   -1    0    0  502    0 -0.00000000000E+00 -0.00000000000E+00 -0.11488980506E+04  0.11488980506E+04  0.00000000000E+00 0. -1.
         23    2    1    2    0    0 -0.29422228165E+03 -0.77409045712E+02 -0.89747585194E+03  0.95184033251E+03  0.89320783635E+02 0.  0.
         23    2    1    2    0    0  0.19937745629E+03  0.51409355208E+01 -0.33912754298E+02  0.22207072343E+03  0.91583470170E+02 0.  0.
        -11    1    3    3    0    0 -0.43669765907E+02 -0.38266058711E+02 -0.10776652771E+03  0.12241308834E+03  0.00000000000E+00 0.  1.
         11    1    3    3    0    0 -0.25055251575E+03 -0.39142987001E+02 -0.78970932424E+03  0.82942724417E+03  0.00000000000E+00 0. -1.
        -13    1    4    4    0    0  0.12641598156E+03 -0.19887751742E+02 -0.59057440444E+02  0.14094078308E+03  0.00000000000E+00 0. -1.
         13    1    4    4    0    0  0.72961474730E+02  0.25028687262E+02  0.25144686146E+02  0.81129940356E+02  0.00000000000E+00 0.  1.
          3    1    1    2  501    0  0.94844825367E+02  0.72268110191E+02 -0.59317093057E+02  0.13317934592E+03  0.00000000000E+00 0. -1.
<scales pt_clust_5="13000.00000" pt_clust_6="13000.00000" pt_clust_7="13000.00000" pt_clust_8="13000.00000" pt_clust_9="119.24018"></scales>
<clustering>
<clus scale="   89.321">  5  6 -1 -1</clus>
<clus scale="   91.583">  7  8 -1 -1</clus>
<clus scale="  119.240">  1  9  2 -1</clus>
<clus scale="  293.654">  2  5  1 -1</clus>
<clus scale="  119.240">  1  5  2 -1</clus>
</clustering>
</event>
<event>
 9    1  0.1671478E-005  0.9791589E+02  0.7546771E-02  0.1285140E+00
         -1   -1    0    0    0  501 -0.00000000000E+00  0.00000000000E+00  0.63067928094E+02  0.63067928094E+02  0.00000000000E+00 0.  1.
         21   -1    0    0  501  502  0.00000000000E+00 -0.00000000000E+00 -0.24829460462E+03  0.24829460462E+03  0.00000000000E+00 0. -1.
         23    2    1    2    0    0 -0.23484977777E+02 -0.42572728721E+02 -0.32462634687E+02  0.10877452315E+03  0.91728364339E+02 0.  0.
         23    2    1    2    0    0  0.14308974417E+02  0.54286131631E+01 -0.88622390093E+02  0.12790176018E+03  0.90943474978E+02 0.  0.
        -11    1    4    4    0    0  0.42026079257E+02  0.31440963616E+02 -0.63294578814E+02  0.82224869948E+02  0.00000000000E+00 0. -1.
         11    1    4    4    0    0 -0.27717104840E+02 -0.26012350453E+02 -0.25327811279E+02  0.45676890229E+02  0.00000000000E+00 0.  1.
        -13    1    3    3    0    0 -0.51822220026E+02 -0.48086719591E+02 -0.84009830997E+01  0.71193058696E+02  0.00000000000E+00 0.  1.
         13    1    3    3    0    0  0.28337242249E+02  0.55139908696E+01 -0.24061651587E+02  0.37581464457E+02  0.00000000000E+00 0. -1.
         -1    1    1    2    0  502  0.91760033599E+01  0.37144115558E+02 -0.64141651741E+02  0.74686249379E+02  0.00000000000E+00 0.  1.
<scales pt_clust_5="13000.00000" pt_clust_6="13000.00000" pt_clust_7="13000.00000" pt_clust_8="13000.00000" pt_clust_9="38.26074"></scales>
<clustering>
<clus scale="   38.261">  2  9  1 -1</clus>
<clus scale="   90.943">  5  6 -1 -1</clus>
<clus scale="   91.728">  7  8 -1 -1</clus>
<clus scale="   97.181">  2  5  1 -1</clus>
<clus scale="   38.261">  2  5  1 -1</clus>
</clustering>
</event>
<event>
 9    1  0.1671478E-005  0.9496128E+02  0.7546771E-02  0.1291357E+00
         21   -1    0    0  501  502  0.00000000000E+00  0.00000000000E+00  0.25400116217E+03  0.25400116217E+03  0.00000000000E+00 0. -1.
         -2   -1    0    0    0  501 -0.00000000000E+00 -0.00000000000E+00 -0.24022772920E+03  0.24022772920E+03  0.00000000000E+00 0.  1.
         23    2    1    2    0    0 -0.91202653793E+01 -0.17612282401E+02 -0.18299993663E+03  0.20547974353E+03  0.91321281539E+02 0.  0.
         23    2    1    2    0    0  0.31895337465E+02  0.50193424485E+02  0.24354889921E+02  0.11180744314E+03  0.91493449299E+02 0.  0.
        -11    1    4    4    0    0  0.23332292124E+02 -0.12835870467E+01  0.48856594927E+02  0.54157273928E+02  0.00000000000E+00 0.  1.
         11    1    4    4    0    0  0.85630453407E+01  0.51477011532E+02 -0.24501705007E+02  0.57650169210E+02  0.00000000000E+00 0. -1.
        -13    1    3    3    0    0  0.38842694411E+02  0.27345878695E+01 -0.10190201956E+03  0.10908828750E+03  0.00000000000E+00 0. -1.
         13    1    3    3    0    0 -0.47962959790E+02 -0.20346870270E+02 -0.81097917074E+02  0.96391456029E+02  0.00000000000E+00 0.  1.
         -2    1    1    2    0  502 -0.22775072085E+02 -0.32581142084E+02  0.17241847968E+03  0.17694170470E+03  0.00000000000E+00 0.  1.
<scales pt_clust_5="13000.00000" pt_clust_6="13000.00000" pt_clust_7="13000.00000" pt_clust_8="13000.00000" pt_clust_9="39.75217"></scales>
<clustering>
<clus scale="   39.752">  1  9  2 -1</clus>
<clus scale="   91.321">  7  8 -1 -1</clus>
<clus scale="   91.493">  5  6 -1 -1</clus>
<clus scale="   94.795">  2  7  1 -1</clus>
<clus scale="   39.752">  1  5  2 -1</clus>
</clustering>
</event>
<event>
 9    1  0.1671478E-005  0.1866480E+03  0.7546771E-02  0.1183941E+00
         21   -1    0    0  501  502  0.00000000000E+00  0.00000000000E+00  0.28888096807E+03  0.28888096807E+03  0.00000000000E+00 0.  1.
          3   -1    0    0  502    0 -0.00000000000E+00 -0.00000000000E+00 -0.22771924376E+03  0.22771924376E+03  0.00000000000E+00 0. -1.
         23    2    1    2    0    0  0.17864384072E+02 -0.63801417764E+02 -0.48223102842E+02  0.12196670597E+03  0.90336330401E+02 0.  0.
         23    2    1    2    0    0 -0.16389846264E+03  0.70761683155E+02  0.14243648710E+03  0.24474418128E+03  0.87986587361E+02 0.  0.
        -13    1    3    3    0    0  0.16962226418E+01  0.22596436851E+02 -0.18262467628E+02  0.29103158823E+02  0.00000000000E+00 0.  1.
         13    1    3    3    0    0  0.16168161430E+02 -0.86397854615E+02 -0.29960635214E+02  0.92863547146E+02  0.00000000000E+00 0. -1.
        -13    1    4    4    0    0 -0.35578027792E+02 -0.66586877570E+01  0.68853070465E+02  0.77787399344E+02  0.00000000000E+00 0. -1.
         13    1    4    4    0    0 -0.12832043484E+03  0.77420370912E+02  0.73583416636E+02  0.16695678194E+03  0.00000000000E+00 0.  1.
          3    1    1    2  501    0  0.14603407856E+03 -0.69602653911E+01 -0.33051659948E+02  0.14988932458E+03  0.00000000000E+00 0. -1.
<scales pt_clust_5="13000.00000" pt_clust_6="13000.00000" pt_clust_7="13000.00000" pt_clust_8="13000.00000" pt_clust_9="164.60821"></scales>
<clustering>
<clus scale="   87.987">  7  8 -1 -1</clus>
<clus scale="   90.336">  5  6 -1 -1</clus>
<clus scale="  112.029">  2  5  1 -1</clus>
<clus scale="  164.608">  1  9  2 -1</clus>
<clus scale="  164.608">  1  5  2 -1</clus>
</clustering>
</event>
<event>
 9    1  0.1671478E-005  0.1089816E+03  0.7546771E-02  0.1262553E+00
          3   -1    0    0  502    0 -0.00000000000E+00  0.00000000000E+00  0.30964109950E+03  0.30964109950E+03  0.00000000000E+00 0. -1.
         21   -1    0    0  501  502  0.00000000000E+00 -0.00000000000E+00 -0.48348175121E+02  0.48348175121E+02  0.00000000000E+00 0.  1.
         23    2    1    2    0    0  0.63274973144E+02 -0.15905183096E+02  0.12256975225E+03  0.16592903068E+03  0.90842732121E+02 0.  0.
         23    2    1    2    0    0 -0.56113497398E+02 -0.82979966157E+01  0.10701028178E+03  0.15152892202E+03  0.91061695912E+02 0.  0.
        -11    1    4    4    0    0  0.52765749636E+01  0.32582360183E+02  0.26382634587E+02  0.42255128046E+02  0.00000000000E+00 0.  1.
         11    1    4    4    0    0 -0.61390072362E+02 -0.40880356798E+02  0.80627647193E+02  0.10927379397E+03  0.00000000000E+00 0. -1.
        -13    1    3    3    0    0  0.78011555482E+02 -0.35331096447E+02  0.81825977129E+02  0.11844652675E+03  0.00000000000E+00 0.  1.
         13    1    3    3    0    0 -0.14736582339E+02  0.19425913351E+02  0.40743775120E+02  0.47482503931E+02  0.00000000000E+00 0. -1.
          3    1    1    2  501    0 -0.71614757455E+01  0.24203179712E+02  0.31712890350E+02  0.40531321930E+02  0.00000000000E+00 0. -1.
<scales pt_clust_5="13000.00000" pt_clust_6="13000.00000" pt_clust_7="13000.00000" pt_clust_8="13000.00000" pt_clust_9="25.24047"></scales>
<clustering>
<clus scale="   25.240">  2  9  1 -1</clus>
<clus scale="   90.843">  7  8 -1 -1</clus>
<clus scale="   91.062">  5  6 -1 -1</clus>
<clus scale="  108.799">  1  7  2 -1</clus>
<clus scale="   25.240">  2  5  1 -1</clus>
</clustering>
</event>
<event>
 9    1  0.2505322E-005  0.1504735E+03  0.7546771E-02  0.1205045E+00
         21   -1    0    0  501  502  0.00000000000E+00  0.00000000000E+00  0.14201673804E+03  0.14201673804E+03  0.00000000000E+00 0.  1.
          1   -1    0    0  502    0 -0.00000000000E+00 -0.00000000000E+00 -0.53097662640E+03  0.53097662640E+03  0.00000000000E+00 0. -1.
         23    2    1    2    0    0  0.37417678056E+02  0.94077044398E+02 -0.46035298593E+03  0.48489267879E+03  0.11377814104E+03 0.  0.
         23    2    1    2    0    0 -0.20497619779E+02 -0.68147797868E+02  0.94292987647E+02  0.14959069782E+03  0.91771098842E+02 0.  0.
        -11    1    3    3    0    0 -0.78423308154E+01  0.30502907006E+02 -0.19190434917E+02  0.36880920281E+02  0.00000000000E+00 0.  1.
         11    1    3    3    0    0  0.45260008872E+02  0.63574137392E+02 -0.44116255101E+03  0.44801175851E+03  0.00000000000E+00 0. -1.
        -13    1    4    4    0    0 -0.40927135429E+02 -0.81722687107E+02  0.70627671009E+02  0.11550712495E+03  0.00000000000E+00 0.  1.
         13    1    4    4    0    0  0.20429515650E+02  0.13574889240E+02  0.23665316638E+02  0.34083572863E+02  0.00000000000E+00 0. -1.
          1    1    1    2  501    0 -0.16920058278E+02 -0.25929246531E+02 -0.22899890081E+02  0.38509987841E+02  0.00000000000E+00 0. -1.
<scales pt_clust_5="13000.00000" pt_clust_6="13000.00000" pt_clust_7="13000.00000" pt_clust_8="13000.00000" pt_clust_9="30.96151"></scales>
<clustering>
<clus scale="   30.962">  1  9  2 -1</clus>
<clus scale="   91.771">  7  8 -1 -1</clus>
<clus scale="  113.778">  5  6 -1 -1</clus>
<clus scale="  134.606">  1  7  2 -1</clus>
<clus scale="   30.962">  1  5  2 -1</clus>
</clustering>
</event>
<event>
 9    1  0.1671478E-005  0.1105029E+03  0.7546771E-02  0.1263704E+00
          2   -1    0    0  502    0 -0.00000000000E+00  0.00000000000E+00  0.27715804525E+03  0.27715804525E+03  0.00000000000E+00 0. -1.
         21   -1    0    0  501  502  0.00000000000E+00 -0.00000000000E+00 -0.26162662202E+03  0.26162662202E+03  0.00000000000E+00 0. -1.
         23    2    1    2    0    0  0.45332655014E+02 -0.49516071114E+02  0.14213117466E+03  0.18703473285E+03  0.10135990120E+03 0.  0.
         23    2    1    2    0    0  0.49099593132E+02  0.36036534270E+02  0.71748323577E+02  0.13165653094E+03  0.92066380153E+02 0.  0.
        -11    1    4    4    0    0 -0.22869065715E+02  0.90837589425E+01 -0.25804854640E+01  0.24742023935E+02  0.00000000000E+00 0.  1.
         11    1    4    4    0    0  0.71968658847E+02  0.26952775327E+02  0.74328809041E+02  0.10691450700E+03  0.00000000000E+00 0. -1.
        -13    1    3    3    0    0  0.21304293871E+01 -0.68355576190E+02  0.54174215748E+02  0.87246026716E+02  0.00000000000E+00 0.  1.
         13    1    3    3    0    0  0.43202225627E+02  0.18839505077E+02  0.87956958910E+02  0.99788706131E+02  0.00000000000E+00 0. -1.
          2    1    1    2  501    0 -0.94432248146E+02  0.13479536844E+02 -0.19834807500E+03  0.22009340349E+03  0.00000000000E+00 0. -1.
<scales pt_clust_5="13000.00000" pt_clust_6="13000.00000" pt_clust_7="13000.00000" pt_clust_8="13000.00000" pt_clust_9="95.38945"></scales>
<clustering>
<clus scale="   92.066">  5  6 -1 -1</clus>
<clus scale="   95.389">  2  9  1 -1</clus>
<clus scale="  101.360">  7  8 -1 -1</clus>
<clus scale="  102.045">  2  5  1 -1</clus>
<clus scale="   95.389">  2  5  1 -1</clus>
</clustering>
</event>
<event>
 9    1  0.1671478E-005  0.1341962E+03  0.7546771E-02  0.1222058E+00
          4   -1    0    0  502    0 -0.00000000000E+00  0.00000000000E+00  0.18213334350E+03  0.18213334350E+03  0.00000000000E+00 0. -1.
         21   -1    0    0  501  502  0.00000000000E+00 -0.00000000000E+00 -0.28286039028E+03  0.28286039028E+03  0.00000000000E+00 0. -1.
         23    2    1    2    0    0 -0.10195900456E+03  0.97675578090E+00  0.35495875897E+02  0.13980459193E+03  0.88818770857E+02 0.  0.
         23    2    1    2    0    0  0.70667681669E+02 -0.10440299969E+03 -0.14990330091E+03  0.21627042186E+03  0.91695082584E+02 0.  0.
        -13    1    3    3    0    0 -0.11274942122E+03 -0.16526090894E+02  0.35106235079E+02  0.11923921925E+03  0.00000000000E+00 0. -1.
         13    1    3    3    0    0  0.10790416662E+02  0.17502846675E+02  0.38964081776E+00  0.20565372679E+02  0.00000000000E+00 0.  1.
        -13    1    4    4    0    0  0.48181274386E+02 -0.11575224525E+03 -0.14294213698E+03  0.19013803408E+03  0.00000000000E+00 0. -1.
         13    1    4    4    0    0  0.22486407283E+02  0.11349245564E+02 -0.69611639327E+01  0.26132387772E+02  0.00000000000E+00 0.  1.
          4    1    1    2  501    0  0.31291322892E+02  0.10342624391E+03  0.13680378234E+02  0.10891871999E+03  0.00000000000E+00 0. -1.
<scales pt_clust_5="13000.00000" pt_clust_6="13000.00000" pt_clust_7="13000.00000" pt_clust_8="13000.00000" pt_clust_9="108.05622"></scales>
<clustering>
<clus scale="   88.819">  5  6 -1 -1</clus>
<clus scale="   91.695">  7  8 -1 -1</clus>
<clus scale="  108.056">  2  9  1 -1</clus>
<clus scale="  132.248">  1  5  2 -1</clus>
<clus scale="  108.056">  2  5  1 -1</clus>
</clustering>
</event>
<event>
 9    1  0.1671478E-005  0.9321435E+02  0.7546771E-02  0.1295998E+00
         21   -1    0    0  501  502  0.00000000000E+00  0.00000000000E+00  0.26552208886E+02  0.26552208886E+02  0.00000000000E+00 0.  1.
          2   -1    0    0  502    0 -0.00000000000E+00 -0.00000000000E+00 -0.81604371271E+03  0.81604371271E+03  0.00000000000E+00 0. -1.
         23    2    1    2    0    0  0.25700164129E+02 -0.98254509567E+01 -0.23798332112E+03  0.25648027176E+03  0.91591652168E+02 0.  0.
         23    2    1    2    0    0  0.75125164839E+01 -0.45571166733E+02 -0.16081384352E+03  0.19011825834E+03  0.90281176021E+02 0.  0.
        -11    1    3    3    0    0  0.35915679845E+02 -0.41144304784E+02 -0.93439396995E+02  0.10822989784E+03  0.00000000000E+00 0.  1.
         11    1    3    3    0    0 -0.10215515716E+02  0.31318853828E+02 -0.14454392412E+03  0.14825037392E+03  0.00000000000E+00 0. -1.
        -13    1    4    4    0    0  0.22909850331E+02 -0.60226711327E+02 -0.63346498201E+02  0.90359818691E+02  0.00000000000E+00 0.  1.
         13    1    4    4    0    0 -0.15397333847E+02  0.14655544594E+02 -0.97467345319E+02  0.99758439646E+02  0.00000000000E+00 0. -1.
          2    1    1    2  501    0 -0.33212680613E+02  0.55396617690E+02 -0.39069433919E+03  0.39599739151E+03  0.00000000000E+00 0. -1.
<scales pt_clust_5="13000.00000" pt_clust_6="13000.00000" pt_clust_7="13000.00000" pt_clust_8="13000.00000" pt_clust_9="64.59003"></scales>
<clustering>
<clus scale="   64.590">  1  9  2 -1</clus>
<clus scale="   90.281">  7  8 -1 -1</clus>
<clus scale="   91.592">  5  6 -1 -1</clus>
<clus scale="   91.927">  1  7  2 -1</clus>
<clus scale="   64.590">  1  5  2 -1</clus>
</clustering>
</event>
<event>
 9    1  0.1671478E-005  0.1201294E+03  0.7546771E-02  0.1243229E+00
          1   -1    0    0  502    0 -0.00000000000E+00  0.00000000000E+00  0.10131129632E+04  0.10131129632E+04  0.00000000000E+00 0. -1.
         21   -1    0    0  501  502  0.00000000000E+00 -0.00000000000E+00 -0.57744946250E+02  0.57744946250E+02  0.00000000000E+00 0. -1.
         23    2    1    2    0    0  0.51392249404E+02  0.54053134563E+02  0.46122816617E+03  0.47609221569E+03  0.91484817938E+02 0.  0.
         23    2    1    2    0    0 -0.87380359286E+02 -0.16963715218E+02  0.52120981870E+03  0.53642572256E+03  0.90386867936E+02 0.  0.
        -11    1    4    4    0    0 -0.27061163494E+02 -0.42789399322E+02  0.12574757630E+03  0.13555697035E+03  0.00000000000E+00 0.  1.
         11    1    4    4    0    0 -0.60319195792E+02  0.25825684104E+02  0.39546224240E+03  0.40086875222E+03  0.00000000000E+00 0. -1.
        -13    1    3    3    0    0 -0.23821853132E+02  0.33205290694E+01  0.58109416602E+02  0.62890467464E+02  0.00000000000E+00 0. -1.
         13    1    3    3    0    0  0.75214102537E+02  0.50732605494E+02  0.40311874957E+03  0.41320174823E+03  0.00000000000E+00 0.  1.
          1    1    1    2  501    0  0.35988109882E+02 -0.37089419345E+02 -0.27069967899E+02  0.58339971223E+02  0.00000000000E+00 0. -1.
<scales pt_clust_5="13000.00000" pt_clust_6="13000.00000" pt_clust_7="13000.00000" pt_clust_8="13000.00000" pt_clust_9="51.67948"></scales>
<clustering>
<clus scale="   51.679">  2  9  1 -1</clus>
<clus scale="   90.387">  5  6 -1 -1</clus>
<clus scale="   91.485">  7  8 -1 -1</clus>
<clus scale="  119.295">  2  5  1 -1</clus>
<clus scale="   51.679">  2  5  1 -1</clus>
</clustering>
</event>
<event>
 9    1  0.1671478E-005  0.9361592E+02  0.7546771E-02  0.1295065E+00
         21   -1    0    0  501  502  0.00000000000E+00  0.00000000000E+00  0.19527456928E+03  0.19527456928E+03  0.00000000000E+00 0. -1.
          3   -1    0    0  502    0 -0.00000000000E+00 -0.00000000000E+00 -0.56438418109E+03  0.56438418109E+03  0.00000000000E+00 0. -1.
         23    2    1    2    0    0 -0.50898705398E+01 -0.46816843017E+01 -0.37972396816E+03  0.39087774483E+03  0.92451578991E+02 0.  0.
         23    2    1    2    0    0  0.37601893088E+02 -0.32596098296E+02 -0.16021748700E+03  0.19093224006E+03  0.91154095712E+02 0.  0.
        -13    1    3    3    0    0  0.37590299125E+02  0.15897799372E+02 -0.23715029243E+03  0.24063672166E+03  0.00000000000E+00 0. -1.
         13    1    3    3    0    0 -0.42680169665E+02 -0.20579483674E+02 -0.14257367573E+03  0.15024102316E+03  0.00000000000E+00 0.  1.
        -13    1    4    4    0    0  0.77669117373E+00 -0.51202521941E+02 -0.43681401869E+02  0.67307996342E+02  0.00000000000E+00 0.  1.
         13    1    4    4    0    0  0.36825201915E+02  0.18606423645E+02 -0.11653608513E+03  0.12362424371E+03  0.00000000000E+00 0. -1.
          3    1    1    2  501    0 -0.32512022549E+02  0.37277782598E+02  0.17083184335E+03  0.17784876549E+03  0.00000000000E+00 0. -1.
<scales pt_clust_5="13000.00000" pt_clust_6="13000.00000" pt_clust_7="13000.00000" pt_clust_8="13000.00000" pt_clust_9="49.46377"></scales>
<clustering>
<clus scale="   49.464">  1  9  2 -1</clus>
<clus scale="   91.154">  7  8 -1 -1</clus>
<clus scale="   92.335">  1  7  2 -1</clus>
<clus scale="   92.452">  5  6 -1 -1</clus>
<clus scale="   49.464">  1  5  2 -1</clus>
</clustering>
</event>
<event>
 9    1  0.1671478E-005  0.1035424E+03  0.7546771E-02  0.1273535E+00
          3   -1    0    0  502    0 -0.00000000000E+00  0.00000000000E+00  0.11009218457E+03  0.11009218457E+03  0.00000000000E+00 0. -1.
         21   -1    0    0  501  502  0.00000000000E+00 -0.00000000000E+00 -0.25370726501E+03  0.25370726501E+03  0.00000000000E+00 0.  1.
         23    2    1    2    0    0 -0.36612667623E+02 -0.31982578363E+02  0.63762798069E+02  0.12146554177E+03  0.91240400428E+02 0.  0.
         23    2    1    2    0    0  0.12565879962E+02  0.37772244689E+02 -0.16900908678E+03  0.19668379926E+03  0.92389402347E+02 0.  0.
        -11    1    4    4    0    0 -0.35900585535E+02  0.25881014447E+02 -0.11462943682E+03  0.12287630665E+03  0.00000000000E+00 0.  1.
         11    1    4    4    0    0  0.48466465497E+02  0.11891230243E+02 -0.54379649966E+02  0.73807492607E+02  0.00000000000E+00 0. -1.
        -13    1    3    3    0    0  0.19024245714E+02 -0.30004638187E+02 -0.16540436946E+01  0.35565940143E+02  0.00000000000E+00 0.  1.
         13    1    3    3    0    0 -0.55636913337E+02 -0.19779401762E+01  0.65416841763E+02  0.85899601625E+02  0.00000000000E+00 0. -1.
          3    1    1    2  501    0  0.24046787662E+02 -0.57896663266E+01 -0.38368791723E+02  0.45650108558E+02  0.00000000000E+00 0. -1.
<scales pt_clust_5="13000.00000" pt_clust_6="13000.00000" pt_clust_7="13000.00000" pt_clust_8="13000.00000" pt_clust_9="24.73395"></scales>
<clustering>
<clus scale="   24.734">  2  9  1 -1</clus>
<clus scale="   91.240">  7  8 -1 -1</clus>
<clus scale="   92.389">  5  6 -1 -1</clus>
<clus scale="  102.518">  1  7  2 -1</clus>
<clus scale="   24.734">  2  5  1 -1</clus>
</clustering>
</event>
<event>
 9    1  0.1671478E-005  0.1098765E+03  0.7546771E-02  0.1262633E+00
         21   -1    0    0  501  502  0.00000000000E+00  0.00000000000E+00  0.13045679347E+03  0.13045679347E+03  0.00000000000E+00 0.  1.
          3   -1    0    0  502    0 -0.00000000000E+00 -0.00000000000E+00 -0.14035041742E+03  0.14035041742E+03  0.00000000000E+00 0. -1.
         23    2    1    2    0    0 -0.52107393940E+02  0.34582356440E+02 -0.11461685644E+02  0.11232767059E+03  0.92601379375E+02 0.  0.
         23    2    1    2    0    0  0.48090383357E+02  0.14251198560E+02  0.52413453051E+01  0.10934355063E+03  0.97019372972E+02 0.  0.
        -11    1    4    4    0    0  0.96593242755E+01  0.37082065091E+02 -0.32958654625E+02  0.50543595159E+02  0.00000000000E+00 0.  1.
         11    1    4    4    0    0  0.38431059081E+02 -0.22830866531E+02  0.38199999930E+02  0.58799955470E+02  0.00000000000E+00 0. -1.
        -11    1    3    3    0    0 -0.21554897280E+02  0.12821332097E+02 -0.51611338041E+02  0.57382317554E+02  0.00000000000E+00 0. -1.
         11    1    3    3    0    0 -0.30552496661E+02  0.21761024343E+02  0.40149652397E+02  0.54945353036E+02  0.00000000000E+00 0.  1.
          3    1    1    2  501    0  0.40170105838E+01 -0.48833554999E+02 -0.36732836078E+01  0.49135989665E+02  0.00000000000E+00 0. -1.
<scales pt_clust_5="13000.00000" pt_clust_6="13000.00000" pt_clust_7="13000.00000" pt_clust_8="13000.00000" pt_clust_9="48.99852"></scales>
<clustering>
<clus scale="   48.999">  1  9  2 -1</clus>
<clus scale="   92.601">  7  8 -1 -1</clus>
<clus scale="   97.019">  5  6 -1 -1</clus>
<clus scale="  105.996">  2  7  1 -1</clus>
<clus scale="   48.999">  1  5  2 -1</clus>
</clustering>
</event>
<event>
 9    1  0.2147961E-005  0.1111806E+03  0.7546771E-02  0.1258476E+00
         21   -1    0    0  501  502  0.00000000000E+00  0.00000000000E+00  0.63373733330E+03  0.63373733330E+03  0.00000000000E+00 0.  1.
          1   -1    0    0  502    0 -0.00000000000E+00 -0.00000000000E+00 -0.13254886887E+03  0.13254886887E+03  0.00000000000E+00 0. -1.
         23    2    1    2    0    0  0.38871905035E+02 -0.47273928708E+02 -0.97852453595E+02  0.14758589142E+03  0.91981755444E+02 0.  0.
         23    2    1    2    0    0 -0.65047982231E+02  0.47577233672E+02  0.41117310016E+03  0.42901742803E+03  0.92183523996E+02 0.  0.
        -11    1    3    3    0    0  0.78795786762E+01  0.27445901784E+02 -0.17087395241E+02  0.33276784114E+02  0.00000000000E+00 0.  1.
         11    1    3    3    0    0  0.30992326359E+02 -0.74719830492E+02 -0.80765058354E+02  0.11430910730E+03  0.00000000000E+00 0. -1.
        -13    1    4    4    0    0 -0.63087335388E+02  0.73263355282E+02  0.32535137479E+03  0.33941279910E+03  0.00000000000E+00 0.  1.
         13    1    4    4    0    0 -0.19606468424E+01 -0.25686121610E+02  0.85821725372E+02  0.89604628928E+02  0.00000000000E+00 0. -1.
          1    1    1    2  501    0  0.26176077196E+02 -0.30330496323E+00  0.18786781787E+03  0.18968288273E+03  0.00000000000E+00 0. -1.
<scales pt_clust_5="13000.00000" pt_clust_6="13000.00000" pt_clust_7="13000.00000" pt_clust_8="13000.00000" pt_clust_9="26.17783"></scales>
<clustering>
<clus scale="   26.178">  1  9  2 -1</clus>
<clus scale="   91.982">  5  6 -1 -1</clus>
<clus scale="   92.184">  7  8 -1 -1</clus>
<clus scale="  111.013">  2  5  1 -1</clus>
<clus scale="   26.178">  1  5  2 -1</clus>
</clustering>
</event>
<event>
 9    1  0.1671478E-005  0.9295447E+02  0.7546771E-02  0.1297191E+00
         21   -1    0    0  501  502  0.00000000000E+00  0.00000000000E+00  0.75491992202E+02  0.75491992202E+02  0.00000000000E+00 0.  1.
          3   -1    0    0  502    0 -0.00000000000E+00 -0.00000000000E+00 -0.14868269670E+03  0.14868269670E+03  0.00000000000E+00 0. -1.
         23    2    1    2    0    0  0.10302726773E+02 -0.14442701528E+02 -0.45379224946E+02  0.10349039676E+03  0.91303068728E+02 0.  0.
         23    2    1    2    0    0 -0.24491495560E+02 -0.53180118967E+01 -0.16693994394E+02  0.93937228167E+02  0.88979766136E+02 0.  0.
        -11    1    4    4    0    0 -0.48772470965E+02 -0.12203961245E+02  0.15884978424E+02  0.52725924683E+02  0.00000000000E+00 0.  1.
         11    1    4    4    0    0  0.24280975404E+02  0.68859493483E+01 -0.32578972818E+02  0.41211303485E+02  0.00000000000E+00 0. -1.
        -11    1    3    3    0    0 -0.36698900189E+02  0.11851301598E+02 -0.24718465624E+02  0.45806824463E+02  0.00000000000E+00 0. -1.
         11    1    3    3    0    0  0.47001626962E+02 -0.26294003127E+02 -0.20660759322E+02  0.57683572300E+02  0.00000000000E+00 0.  1.
          3    1    1    2  501    0  0.14188768787E+02  0.19760713425E+02 -0.11117485155E+02  0.26747063969E+02  0.00000000000E+00 0. -1.
<scales pt_clust_5="13000.00000" pt_clust_6="13000.00000" pt_clust_7="13000.00000" pt_clust_8="13000.00000" pt_clust_9="24.32709"></scales>
<clustering>
<clus scale="   24.327">  1  9  2 -1</clus>
<clus scale="   88.980">  5  6 -1 -1</clus>
<clus scale="   90.673">  1  5  2 -1</clus>
<clus scale="   91.303">  7  8 -1 -1</clus>
<clus scale="   24.327">  1  5  2 -1</clus>
</clustering>
</event>
<event>
 9    1  0.1671478E-005  0.1207831E+03  0.7546771E-02  0.1242645E+00
         21   -1    0    0  501  502  0.00000000000E+00  0.00000000000E+00  0.80852938042E+02  0.80852938042E+02  0.00000000000E+00 0.  1.
          3   -1    0    0  502    0 -0.00000000000E+00 -0.00000000000E+00 -0.34169646229E+03  0.34169646229E+03  0.00000000000E+00 0. -1.
         23    2    1    2    0    0 -0.67880191501E+02 -0.95510870998E+01 -0.19520780468E+03  0.22731774496E+03  0.94171792508E+02 0.  0.
         23    2    1    2    0    0  0.10222680616E+03 -0.40455761121E+01 -0.23670497840E+02  0.13932424062E+03  0.91565632048E+02 0.  0.
        -11    1    4    4    0    0  0.34744371416E+02  0.39223416859E+02  0.82412291841E+01  0.53043054528E+02  0.00000000000E+00 0. -1.
         11    1    4    4    0    0  0.67482434746E+02 -0.43268992971E+02 -0.31911727024E+02  0.86281186093E+02  0.00000000000E+00 0.  1.
        -11    1    3    3    0    0 -0.41101813919E+02  0.41694153284E+02 -0.10318453897E+03  0.11863730698E+03  0.00000000000E+00 0. -1.
         11    1    3    3    0    0 -0.26778377582E+02 -0.51245240383E+02 -0.92023265703E+02  0.10868043798E+03  0.00000000000E+00 0.  1.
          3    1    1    2  501    0 -0.34346614661E+02  0.13596663212E+02 -0.41965221727E+02  0.55907414748E+02  0.00000000000E+00 0. -1.
<scales pt_clust_5="13000.00000" pt_clust_6="13000.00000" pt_clust_7="13000.00000" pt_clust_8="13000.00000" pt_clust_9="36.93996"></scales>
<clustering>
<clus scale="   36.940">  1  9  2 -1</clus>
<clus scale="   91.566">  5  6 -1 -1</clus>
<clus scale="   94.172">  7  8 -1 -1</clus>
<clus scale="  118.762">  1  5  2 -1</clus>
<clus scale="   36.940">  1  5  2 -1</clus>
</clustering>
</event>
<event>
 9    1  0.1671478E-005  0.1406978E+03  0.7546771E-02  0.1229695E+00
         -3   -1    0    0    0  501 -0.00000000000E+00  0.00000000000E+00  0.19961810937E+03  0.19961810937E+03  0.00000000000E+00 0.  1.
         21   -1    0    0  501  502  0.00000000000E+00 -0.00000000000E+00 -0.37644649228E+03  0.37644649228E+03  0.00000000000E+00 0.  1.
         23    2    1    2    0    0 -0.10534394445E+01 -0.35317407401E+02  0.70806996612E+02  0.12082290497E+03  0.91302325243E+02 0.  0.
         23    2    1    2    0    0  0.25793631079E+02  0.13728278833E+03  0.20433136179E+02  0.16737064030E+03  0.89908524654E+02 0.  0.
        -13    1    4    4    0    0 -0.76968594863E+01  0.11030865424E+03 -0.15079082547E+02  0.11160026692E+03  0.00000000000E+00 0.  1.
         13    1    4    4    0    0  0.33490490566E+02  0.26974134086E+02  0.35512218726E+02  0.55770373380E+02  0.00000000000E+00 0. -1.
        -13    1    3    3    0    0  0.27779734465E+02 -0.49396920694E+02  0.68136566408E+02  0.88624833444E+02  0.00000000000E+00 0.  1.
         13    1    3    3    0    0 -0.28833173909E+02  0.14079513293E+02  0.26704302040E+01  0.32198071522E+02  0.00000000000E+00 0. -1.
         -3    1    1    2    0  502 -0.24740191635E+02 -0.10196538092E+03 -0.26806851571E+03  0.28787105638E+03  0.00000000000E+00 0.  1.
<scales pt_clust_5="13000.00000" pt_clust_6="13000.00000" pt_clust_7="13000.00000" pt_clust_8="13000.00000" pt_clust_9="108.22356"></scales>
<clustering>
<clus scale="   89.909">  5  6 -1 -1</clus>
<clus scale="   91.302">  7  8 -1 -1</clus>
<clus scale="   97.901">  1  7  2 -1</clus>
<clus scale="  108.224">  2  9  1 -1</clus>
<clus scale="  108.224">  2  5  1 -1</clus>
</clustering>
</event>
<event>
 9    1  0.1671478E-005  0.1238901E+03  0.7546771E-02  0.1244532E+00
         21   -1    0    0  501  502  0.00000000000E+00  0.00000000000E+00  0.24796593861E+03  0.24796593861E+03  0.00000000000E+00 0.  1.
          2   -1    0    0  502    0 -0.00000000000E+00 -0.00000000000E+00 -0.51822057511E+03  0.51822057511E+03  0.00000000000E+00 0. -1.
         23    2    1    2    0    0  0.60386133291E+02  0.97786608606E+00 -0.45489120182E+03  0.47190786403E+03  0.11010715382E+03 0.  0.
         23    2    1    2    0    0 -0.34227167640E+02 -0.32994216699E+02 -0.38113301873E+01  0.10134874660E+03  0.89425526886E+02 0.  0.
        -11    1    4    4    0    0 -0.47285940183E+02  0.12726213334E+02 -0.17281970529E+02  0.51928635166E+02  0.00000000000E+00 0. -1.
         11    1    4    4    0    0  0.13058772543E+02 -0.45720430033E+02  0.13470640341E+02  0.49420111432E+02  0.00000000000E+00 0.  1.
        -13    1    3    3    0    0  0.88073904554E+02  0.15154873343E+02 -0.38768231325E+03  0.39784954298E+03  0.00000000000E+00 0.  1.
         13    1    3    3    0    0 -0.27687771263E+02 -0.14177007257E+02 -0.67208888574E+02  0.74058321042E+02  0.00000000000E+00 0. -1.
          2    1    1    2  501    0 -0.26158965651E+02  0.32016350613E+02  0.18844789551E+03  0.19292990310E+03  0.00000000000E+00 0. -1.
<scales pt_clust_5="13000.00000" pt_clust_6="13000.00000" pt_clust_7="13000.00000" pt_clust_8="13000.00000" pt_clust_9="41.34414"></scales>
<clustering>
<clus scale="   41.344">  1  9  2 -1</clus>
<clus scale="   89.426">  5  6 -1 -1</clus>
<clus scale="  105.934">  1  5  2 -1</clus>
<clus scale="  110.107">  7  8 -1 -1</clus>
<clus scale="   41.344">  1  5  2 -1</clus>
</clustering>
</event>
<event>
 9    1  0.1671478E-005  0.9093748E+02  0.7546771E-02  0.1309177E+00
          2   -1    0    0  502    0 -0.00000000000E+00  0.00000000000E+00  0.31572570715E+03  0.31572570715E+03  0.00000000000E+00 0. -1.
         21   -1    0    0  501  502  0.00000000000E+00 -0.00000000000E+00 -0.74020048582E+02  0.74020048582E+02  0.00000000000E+00 0.  1.
         23    2    1    2    0    0  0.98381002892E+00  0.11060306018E+02  0.19310207755E+03  0.20801536476E+03  0.76542023579E+02 0.  0.
         23    2    1    2    0    0  0.52156171767E+02 -0.88128536234E+00  0.68031473206E+02  0.12424201718E+03  0.89926384167E+02 0.  0.
        -11    1    3    3    0    0  0.30413754220E+02 -0.40119513175E+01  0.15297378318E+03  0.15601945565E+03  0.00000000000E+00 0.  1.
         11    1    3    3    0    0 -0.29429944191E+02  0.15072257335E+02  0.40128294363E+02  0.51995909116E+02  0.00000000000E+00 0. -1.
        -11    1    4    4    0    0  0.29320807813E+02 -0.45258550848E+02  0.32269060515E+02  0.62843762317E+02  0.00000000000E+00 0.  1.
         11    1    4    4    0    0  0.22835363954E+02  0.44377265485E+02  0.35762412691E+02  0.61398254864E+02  0.00000000000E+00 0. -1.
          2    1    1    2  501    0 -0.53139981796E+02 -0.10179020655E+02 -0.19427892180E+02  0.57488373792E+02  0.00000000000E+00 0. -1.
<scales pt_clust_5="13000.00000" pt_clust_6="13000.00000" pt_clust_7="13000.00000" pt_clust_8="13000.00000" pt_clust_9="54.10610"></scales>
<clustering>
<clus scale="   54.106">  2  9  1 -1</clus>
<clus scale="   76.542">  5  6 -1 -1</clus>
<clus scale="   77.727">  1  5  2 -1</clus>
<clus scale="   89.926">  7  8 -1 -1</clus>
<clus scale="   54.106">  2  5  1 -1</clus>
</clustering>
</event>
<event>
 9    1  0.1671478E-005  0.1544480E+03  0.7546771E-02  0.1196261E+00
         -1   -1    0    0    0  501 -0.00000000000E+00  0.00000000000E+00  0.82622262320E+03  0.82622262320E+03  0.00000000000E+00 0.  1.
         21   -1    0    0  501  502  0.00000000000E+00 -0.00000000000E+00 -0.36003681236E+02  0.36003681236E+02  0.00000000000E+00 0. -1.
         23    2    1    2    0    0 -0.11777927745E+02  0.11526867766E+03  0.34709112541E+03  0.37751749494E+03  0.92852689879E+02 0.  0.
         23    2    1    2    0    0  0.42666710081E+02 -0.12531294614E+03  0.40428024747E+03  0.43407149294E+03  0.86323576593E+02 0.  0.
        -13    1    3    3    0    0  0.31432437547E+02  0.54120461040E+02  0.89125818499E+02  0.10890561949E+03  0.00000000000E+00 0. -1.
         13    1    3    3    0    0 -0.43210365292E+02  0.61148216619E+02  0.25796530691E+03  0.26861187545E+03  0.00000000000E+00 0.  1.
        -13    1    4    4    0    0 -0.15888742391E+02 -0.84514399250E+02  0.20082647345E+03  0.21846374586E+03  0.00000000000E+00 0.  1.
         13    1    4    4    0    0  0.58555452472E+02 -0.40798546887E+02  0.20345377401E+03  0.21560774708E+03  0.00000000000E+00 0. -1.
         -1    1    1    2    0  502 -0.30888782336E+02  0.10044268478E+02  0.38847569089E+02  0.50637316551E+02  0.00000000000E+00 0.  1.
<scales pt_clust_5="13000.00000" pt_clust_6="13000.00000" pt_clust_7="13000.00000" pt_clust_8="13000.00000" pt_clust_9="32.48083"></scales>
<clustering>
<clus scale="   32.481">  2  9  1 -1</clus>
<clus scale="   86.324">  7  8 -1 -1</clus>
<clus scale="   92.853">  5  6 -1 -1</clus>
<clus scale="  150.613">  2  7  1 -1</clus>
<clus scale="   32.481">  2  5  1 -1</clus>
</clustering>
</event>
<event>
 9    1  0.1671478E-005  0.1446833E+03  0.7546771E-02  0.1215158E+00
          1   -1    0    0  502    0 -0.00000000000E+00  0.00000000000E+00  0.76698386315E+03  0.76698386315E+03  0.00000000000E+00 0. -1.
         21   -1    0    0  501  502  0.00000000000E+00 -0.00000000000E+00 -0.82708342689E+02  0.82708342689E+02  0.00000000000E+00 0. -1.
         23    2    1    2    0    0 -0.14047542494E+02 -0.56864153356E+02  0.52098867671E+03  0.53508605351E+03  0.10703746081E+03 0.  0.
         23    2    1    2    0    0  0.15831629828E+02 -0.85768854193E+02  0.73537842761E+02  0.14607650808E+03  0.91233738513E+02 0.  0.
        -13    1    4    4    0    0  0.48143614835E+02 -0.36411567292E+02  0.13395144502E+02  0.61830734900E+02  0.00000000000E+00 0.  1.
         13    1    4    4    0    0 -0.32311985007E+02 -0.49357286901E+02  0.60142698259E+02  0.84245773183E+02  0.00000000000E+00 0. -1.
        -13    1    3    3    0    0 -0.41091756202E+02 -0.76390824033E+02  0.33019184373E+03  0.34139529008E+03  0.00000000000E+00 0. -1.
         13    1    3    3    0    0  0.27044213708E+02  0.19526670677E+02  0.19079683298E+03  0.19369076343E+03  0.00000000000E+00 0.  1.
          1    1    1    2  501    0 -0.17840873339E+01  0.14263300755E+03  0.89749000986E+02  0.16852964424E+03  0.00000000000E+00 0. -1.
<scales pt_clust_5="13000.00000" pt_clust_6="13000.00000" pt_clust_7="13000.00000" pt_clust_8="13000.00000" pt_clust_9="112.29279"></scales>
<clustering>
<clus scale="   91.234">  5  6 -1 -1</clus>
<clus scale="  107.037">  7  8 -1 -1</clus>
<clus scale="  122.016">  1  7  2 -1</clus>
<clus scale="  112.293">  2  9  1 -1</clus>
<clus scale="  112.293">  2  5  1 -1</clus>
</clustering>
</event>
<event>
 9    1  0.1671478E-005  0.1182127E+03  0.7546771E-02  0.1246982E+00
         21   -1    0    0  501  502  0.00000000000E+00  0.00000000000E+00  0.18219554675E+03  0.18219554675E+03  0.00000000000E+00 0. -1.
          2   -1    0    0  502    0 -0.00000000000E+00 -0.00000000000E+00 -0.49802742029E+03  0.49802742029E+03  0.00000000000E+00 0. -1.
         23    2    1    2    0    0 -0.38722407314E+02 -0.50035036039E+02 -0.29313708590E+03  0.31357653780E+03  0.91640407410E+02 0.  0.
         23    2    1    2    0    0  0.30442048817E+02  0.10346483943E+03 -0.16393184894E+03  0.21541410561E+03  0.88870098818E+02 0.  0.
        -13    1    3    3    0    0  0.37233603246E+01  0.22723594642E+02 -0.10417893134E+03  0.10669336859E+03  0.00000000000E+00 0.  1.
         13    1    3    3    0    0 -0.42445767638E+02 -0.72758630681E+02 -0.18895815455E+03  0.20688316921E+03  0.00000000000E+00 0. -1.
        -13    1    4    4    0    0 -0.14713389256E+02  0.53288305785E+02 -0.24432501774E+02  0.60440669253E+02  0.00000000000E+00 0.  1.
         13    1    4    4    0    0  0.45155438073E+02  0.50176533645E+02 -0.13949934717E+03  0.15497343636E+03  0.00000000000E+00 0. -1.
          2    1    1    2  501    0  0.82803584966E+01 -0.53429803391E+02  0.14123706130E+03  0.15123232363E+03  0.00000000000E+00 0. -1.
<scales pt_clust_5="13000.00000" pt_clust_6="13000.00000" pt_clust_7="13000.00000" pt_clust_8="13000.00000" pt_clust_9="54.06763"></scales>
<clustering>
<clus scale="   54.068">  1  9  2 -1</clus>
<clus scale="   88.870">  7  8 -1 -1</clus>
<clus scale="   91.640">  5  6 -1 -1</clus>
<clus scale="  116.078">  1  7  2 -1</clus>
<clus scale="   54.068">  1  5  2 -1</clus>
</clustering>
</event>
<event>
 9    1  0.1671478E-005  0.1569915E+03  0.7546771E-02  0.1192658E+00
         21   -1    0    0  501  502  0.00000000000E+00  0.00000000000E+00  0.56140653764E+02  0.56140653764E+02  0.00000000000E+00 0.  1.
          1   -1    0    0  502    0 -0.00000000000E+00 -0.00000000000E+00 -0.57877916665E+03  0.57877916665E+03  0.00000000000E+00 0. -1.
         23    2    1    2    0    0  0.37194389861E+02 -0.11275949437E+03 -0.29616262310E+03  0.33130483949E+03  0.89176628879E+02 0.  0.
         23    2    1    2    0    0 -0.52141824450E+02  0.13028993709E+03 -0.22467155911E+03  0.28050658782E+03  0.92262661836E+02 0.  0.
        -11    1    4    4    0    0  0.24828318886E+02  0.31753217617E+02 -0.77788912433E+02  0.87611797980E+02  0.00000000000E+00 0. -1.
         11    1    4    4    0    0 -0.76970143336E+02  0.98536719475E+02 -0.14688264668E+03  0.19289478984E+03  0.00000000000E+00 0.  1.
        -11    1    3    3    0    0  0.36669727864E+02 -0.30838324852E+02 -0.40173899471E+02  0.62526901570E+02  0.00000000000E+00 0.  1.
         11    1    3    3    0    0  0.52466199702E+00 -0.81921169514E+02 -0.25598872363E+03  0.26877793792E+03  0.00000000000E+00 0. -1.
          1    1    1    2  501    0  0.14947434590E+02 -0.17530442726E+02 -0.18043306705E+01  0.23108393111E+02  0.00000000000E+00 0. -1.
<scales pt_clust_5="13000.00000" pt_clust_6="13000.00000" pt_clust_7="13000.00000" pt_clust_8="13000.00000" pt_clust_9="23.03784"></scales>
<clustering>
<clus scale="   23.038">  1  9  2 -1</clus>
<clus scale="   89.177">  7  8 -1 -1</clus>
<clus scale="   92.263">  5  6 -1 -1</clus>
<clus scale="  155.198">  2  7  1 -1</clus>
<clus scale="   23.038">  1  5  2 -1</clus>
</clustering>
</event>
<event>
 9    1  0.1671478E-005  0.1237254E+03  0.7546771E-02  0.1239706E+00
         21   -1    0    0  501  502  0.00000000000E+00  0.00000000000E+00  0.21404827800E+03  0.21404827800E+03  0.00000000000E+00 0.  1.
          1   -1    0    0  502    0 -0.00000000000E+00 -0.00000000000E+00 -0.10549518725E+03  0.10549518725E+03  0.00000000000E+00 0. -1.
         23    2    1    2    0    0 -0.90497125493E+02  0.27978457395E+02  0.36629006290E+02  0.14258966836E+03  0.10008798940E+03 0.  0.
         23    2    1    2    0    0  0.42292446690E+02 -0.23671405044E+02  0.75393105251E+02  0.12843291619E+03  0.91988625258E+02 0.  0.
        -11    1    4    4    0    0  0.30477448770E+01 -0.20454082800E+02 -0.17785385935E+02  0.27275963867E+02  0.00000000000E+00 0. -1.
         11    1    4    4    0    0  0.39244701813E+02 -0.32173222442E+01  0.93178491186E+02  0.10115695232E+03  0.00000000000E+00 0.  1.
        -13    1    3    3    0    0 -0.72672336197E+02 -0.24967514035E+02  0.20120272404E+01  0.76868026247E+02  0.00000000000E+00 0. -1.
         13    1    3    3    0    0 -0.17824789296E+02  0.52945971430E+02  0.34616979050E+02  0.65721642117E+02  0.00000000000E+00 0.  1.
          1    1    1    2  501    0  0.48204678804E+02 -0.43070523507E+01 -0.34690207842E+01  0.48520880698E+02  0.00000000000E+00 0. -1.
<scales pt_clust_5="13000.00000" pt_clust_6="13000.00000" pt_clust_7="13000.00000" pt_clust_8="13000.00000" pt_clust_9="48.39674"></scales>
<clustering>
<clus scale="   48.397">  1  9  2 -1</clus>
<clus scale="   91.989">  5  6 -1 -1</clus>
<clus scale="  100.088">  7  8 -1 -1</clus>
<clus scale="  117.270">  1  5  2 -1</clus>
<clus scale="   48.397">  1  5  2 -1</clus>
</clustering>
</event>
<event>
 9    1  0.1671478E-005  0.1231460E+03  0.7546771E-02  0.1239295E+00
         -2   -1    0    0    0  501 -0.00000000000E+00  0.00000000000E+00  0.62993430700E+02  0.62993430700E+02  0.00000000000E+00 0.  1.
         21   -1    0    0  501  502  0.00000000000E+00 -0.00000000000E+00 -0.56229890447E+03  0.56229890447E+03  0.00000000000E+00 0.  1.
         23    2    1    2    0    0  0.13847628368E+02  0.60438195147E+02 -0.93684037631E+02  0.14469256688E+03  0.91185019379E+02 0.  0.
         23    2    1    2    0    0 -0.10712959572E+03 -0.69724670477E+02 -0.21016236332E+03  0.26382335536E+03  0.95374335762E+02 0.  0.
        -11    1    3    3    0    0 -0.19005291285E+02  0.59540142978E+02 -0.92714254169E+02  0.11181307012E+03  0.00000000000E+00 0.  1.
         11    1    3    3    0    0  0.32852919653E+02  0.89805216973E+00 -0.96978346226E+00  0.32879496763E+02  0.00000000000E+00 0. -1.
        -11    1    4    4    0    0 -0.90129655927E+02 -0.84940127780E+02 -0.20639288681E+03  0.24069940571E+03  0.00000000000E+00 0.  1.
         11    1    4    4    0    0 -0.16999939795E+02  0.15215457302E+02 -0.37694765114E+01  0.23123949644E+02  0.00000000000E+00 0. -1.
         -2    1    1    2    0  502  0.93281967354E+02  0.92864753298E+01 -0.19545907281E+03  0.21677641293E+03  0.00000000000E+00 0.  1.
<scales pt_clust_5="13000.00000" pt_clust_6="13000.00000" pt_clust_7="13000.00000" pt_clust_8="13000.00000" pt_clust_9="93.74307"></scales>
<clustering>
<clus scale="   91.185">  5  6 -1 -1</clus>
<clus scale="   93.743">  2  9  1 -1</clus>
<clus scale="   95.374">  7  8 -1 -1</clus>
<clus scale="  119.931">  1  5  2 -1</clus>
<clus scale="   93.743">  2  5  1 -1</clus>
</clustering>
</event>
<event>
 9    1  0.1671478E-005  0.2250484E+03  0.7546771E-02  0.1150828E+00
          2   -1    0    0  502    0 -0.00000000000E+00  0.00000000000E+00  0.19978080138E+03  0.19978080138E+03  0.00000000000E+00 0. -1.
         21   -1    0    0  501  502  0.00000000000E+00 -0.00000000000E+00 -0.13001177704E+04  0.13001177704E+04  0.00000000000E+00 0. -1.
         23    2    1    2    0    0 -0.40471418925E+02 -0.35306349594E+02 -0.72177123732E+02  0.15467475106E+03  0.12581839037E+03 0.  0.
         23    2    1    2    0    0 -0.52315776148E+02  0.21750706252E+03  0.50641840350E+02  0.24721669857E+03  0.92223843874E+02 0.  0.
        -11    1    3    3    0    0 -0.61577491850E+02  0.22613058348E+02 -0.86697219302E+01  0.66168738757E+02  0.00000000000E+00 0. -1.
         11    1    3    3    0    0  0.21106072925E+02 -0.57919407943E+02 -0.63507401802E+02  0.88506012307E+02  0.00000000000E+00 0.  1.
        -13    1    4    4    0    0 -0.26891016631E+02  0.19104297328E+03  0.11064541356E+02  0.19324328834E+03  0.00000000000E+00 0.  1.
         13    1    4    4    0    0 -0.25424759516E+02  0.26464089238E+02  0.39577298994E+02  0.53973410225E+02  0.00000000000E+00 0. -1.
          2    1    1    2  501    0  0.92787195072E+02 -0.18220071292E+03 -0.10788016856E+04  0.10980071221E+04  0.00000000000E+00 0. -1.
<scales pt_clust_5="13000.00000" pt_clust_6="13000.00000" pt_clust_7="13000.00000" pt_clust_8="13000.00000" pt_clust_9="205.28402"></scales>
<clustering>
<clus scale="   92.224">  7  8 -1 -1</clus>
<clus scale="  125.818">  5  6 -1 -1</clus>
<clus scale="  136.802">  1  5  2 -1</clus>
<clus scale="  205.284">  2  9  1 -1</clus>
<clus scale="  205.284">  2  5  1 -1</clus>
</clustering>
</event>
<event>
 9    1  0.1671478E-005  0.9651141E+02  0.7546771E-02  0.1290029E+00
         21   -1    0    0  501  502  0.00000000000E+00  0.00000000000E+00  0.83096882015E+03  0.83096882015E+03  0.00000000000E+00 0.  1.
         -3   -1    0    0    0  501 -0.00000000000E+00 -0.00000000000E+00 -0.56065007882E+02  0.56065007882E+02  0.00000000000E+00 0.  1.
         23    2    1    2    0    0 -0.24164408628E+02 -0.11846716111E+02  0.17955428115E+02  0.10058966420E+03  0.95245051414E+02 0.  0.
         23    2    1    2    0    0 -0.14674672231E+02 -0.44834113271E+02  0.19585261327E+03  0.22115693177E+03  0.91250745907E+02 0.  0.
        -11    1    3    3    0    0  0.19841599198E+02  0.19775100152E+02 -0.20008689871E+02  0.34425155266E+02  0.00000000000E+00 0. -1.
         11    1    3    3    0    0 -0.44006007826E+02 -0.31621816263E+02  0.37964117986E+02  0.66164508938E+02  0.00000000000E+00 0.  1.
        -13    1    4    4    0    0  0.36136257765E+02 -0.16235497554E+02  0.11379540741E+03  0.12049404655E+03  0.00000000000E+00 0. -1.
         13    1    4    4    0    0 -0.50810929996E+02 -0.28598615718E+02  0.82057205856E+02  0.10066288522E+03  0.00000000000E+00 0.  1.
         -3    1    1    2    0  502  0.38839080859E+02  0.56680829382E+02  0.56109577088E+03  0.56528723205E+03  0.00000000000E+00 0.  1.
<scales pt_clust_5="13000.00000" pt_clust_6="13000.00000" pt_clust_7="13000.00000" pt_clust_8="13000.00000" pt_clust_9="68.71092"></scales>
<clustering>
<clus scale="   68.711">  1  9  2 -1</clus>
<clus scale="   91.251">  7  8 -1 -1</clus>
<clus scale="   92.572">  1  7  2 -1</clus>
<clus scale="   95.245">  5  6 -1 -1</clus>
<clus scale="   68.711">  1  5  2 -1</clus>
</clustering>
</event>
<event>
 9    1  0.1671478E-005  0.2353596E+03  0.7546771E-02  0.1122971E+00
          2   -1    0    0  502    0 -0.00000000000E+00  0.00000000000E+00  0.46327590113E+03  0.46327590113E+03  0.00000000000E+00 0. -1.
         21   -1    0    0  501  502  0.00000000000E+00 -0.00000000000E+00 -0.18555999655E+03  0.18555999655E+03  0.00000000000E+00 0.  1.
         23    2    1    2    0    0  0.10339673383E+03  0.19726506181E+03  0.29032628953E+03  0.37709173907E+03  0.91128678825E+02 0.  0.
         23    2    1    2    0    0 -0.10122638388E+03 -0.17620863742E+03  0.29168757107E+02  0.22490848696E+03  0.91851763301E+02 0.  0.
        -11    1    4    4    0    0 -0.11379330120E+03 -0.15090790482E+03  0.72315296417E+01  0.18914123336E+03  0.00000000000E+00 0.  1.
         11    1    4    4    0    0  0.12566917327E+02 -0.25300732599E+02  0.21937227465E+02  0.35767253599E+02  0.00000000000E+00 0. -1.
        -13    1    3    3    0    0 -0.66774481724E+01  0.54891255882E+02  0.10556507442E+03  0.11917056358E+03  0.00000000000E+00 0.  1.
         13    1    3    3    0    0  0.11007418200E+03  0.14237380593E+03  0.18476121511E+03  0.25792117549E+03  0.00000000000E+00 0. -1.
          2    1    1    2  501    0 -0.21703499506E+01 -0.21056424387E+02 -0.41779142058E+02  0.46835671640E+02  0.00000000000E+00 0. -1.
<scales pt_clust_5="13000.00000" pt_clust_6="13000.00000" pt_clust_7="13000.00000" pt_clust_8="13000.00000" pt_clust_9="21.16798"></scales>
<clustering>
<clus scale="   21.168">  2  9  1 -1</clus>
<clus scale="   91.129">  7  8 -1 -1</clus>
<clus scale="   91.852">  5  6 -1 -1</clus>
<clus scale="  235.078">  1  7  2 -1</clus>
<clus scale="   21.168">  2  5  1 -1</clus>
</clustering>
</event>
<event>
 9    1  0.1671478E-005  0.1578505E+03  0.7546771E-02  0.1202027E+00
          1   -1    0    0  502    0 -0.00000000000E+00  0.00000000000E+00  0.51182368272E+03  0.51182368272E+03  0.00000000000E+00 0. -1.
         21   -1    0    0  501  502  0.00000000000E+00 -0.00000000000E+00 -0.26357911187E+03  0.26357911187E+03  0.00000000000E+00 0. -1.
         23    2    1    2    0    0  0.83852129150E+02 -0.57359787473E+01  0.22519825822E+03  0.25729839296E+03  0.91783040379E+02 0.  0.
         23    2    1    2    0    0 -0.12452890609E+03  0.12719021387E+03  0.21144367151E+03  0.29029023119E+03  0.88742285004E+02 0.  0.
        -11    1    3    3    0    0  0.10371506744E+03 -0.21692347117E+00  0.19193186737E+03  0.21816210482E+03  0.00000000000E+00 0. -1.
         11    1    3    3    0    0 -0.19862938295E+02 -0.55190552761E+01  0.33266390855E+02  0.39136288140E+02  0.00000000000E+00 0.  1.
        -11    1    4    4    0    0 -0.88423356611E+01  0.67910190140E+02  0.82096409391E+02  0.10691024862E+03  0.00000000000E+00 0.  1.
         11    1    4    4    0    0 -0.11568657043E+03  0.59280023734E+02  0.12934726212E+03  0.18337998258E+03  0.00000000000E+00 0. -1.
          1    1    1    2  501    0  0.40676776942E+02 -0.12145423513E+03 -0.18839735888E+03  0.22781417042E+03  0.00000000000E+00 0. -1.
<scales pt_clust_5="13000.00000" pt_clust_6="13000.00000" pt_clust_7="13000.00000" pt_clust_8="13000.00000" pt_clust_9="130.54340"></scales>
<clustering>
<clus scale="   88.742">  7  8 -1 -1</clus>
<clus scale="   91.783">  5  6 -1 -1</clus>
<clus scale="  124.452">  1  5  2 -1</clus>
<clus scale="  130.543">  2  9  1 -1</clus>
<clus scale="  130.543">  2  5  1 -1</clus>
</clustering>
</event>
<event>
 9    1  0.1671478E-005  0.9762899E+02  0.7546771E-02  0.1286502E+00
          1   -1    0    0  502    0 -0.00000000000E+00  0.00000000000E+00  0.20713644575E+03  0.20713644575E+03  0.00000000000E+00 0. -1.
         21   -1    0    0  501  502  0.00000000000E+00 -0.00000000000E+00 -0.15848876577E+03  0.15848876577E+03  0.00000000000E+00 0. -1.
         23    2    1    2    0    0 -0.14052176862E+02 -0.25555352212E+02  0.12627894455E+03  0.15808545976E+03  0.90521274027E+02 0.  0.
         23    2    1    2    0    0  0.51853251910E+02  0.15627609473E+01  0.12431751671E+02  0.10696185853E+03  0.92709701627E+02 0.  0.
        -13    1    4    4    0    0  0.10666986912E+02  0.43796334181E+02 -0.52405790588E+01  0.45380250841E+02  0.00000000000E+00 0.  1.
         13    1    4    4    0    0  0.41186264998E+02 -0.42233573234E+02  0.17672330730E+02  0.61581607692E+02  0.00000000000E+00 0. -1.
        -13    1    3    3    0    0 -0.38671060179E+02  0.13721731309E+02  0.28756155125E+02  0.50106419380E+02  0.00000000000E+00 0.  1.
         13    1    3    3    0    0  0.24618883317E+02 -0.39277083521E+02  0.97522789420E+02  0.10797904038E+03  0.00000000000E+00 0. -1.
          1    1    1    2  501    0 -0.37801075048E+02  0.23992591264E+02 -0.90063016238E+02  0.10057789322E+03  0.00000000000E+00 0. -1.
<scales pt_clust_5="13000.00000" pt_clust_6="13000.00000" pt_clust_7="13000.00000" pt_clust_8="13000.00000" pt_clust_9="44.77238"></scales>
<clustering>
<clus scale="   44.772">  2  9  1 -1</clus>
<clus scale="   90.521">  7  8 -1 -1</clus>
<clus scale="   92.710">  5  6 -1 -1</clus>
<clus scale="   95.553">  1  7  2 -1</clus>
<clus scale="   44.772">  2  5  1 -1</clus>
</clustering>
</event>
<event>
 9    1  0.1671478E-005  0.1258546E+03  0.7546771E-02  0.1234329E+00
         21   -1    0    0  501  502  0.00000000000E+00  0.00000000000E+00  0.29055285296E+03  0.29055285296E+03  0.00000000000E+00 0.  1.
          3   -1    0    0  502    0 -0.00000000000E+00 -0.00000000000E+00 -0.12013785439E+03  0.12013785439E+03  0.00000000000E+00 0. -1.
         23    2    1    2    0    0 -0.57053350739E+02  0.65150286187E+02 -0.55292825757E+02  0.13796017712E+03  0.92065570492E+02 0.  0.
         23    2    1    2    0    0  0.47127212705E+02 -0.46675856584E+02  0.22379561636E+03  0.25167134448E+03  0.94097704352E+02 0.  0.
        -11    1    3    3    0    0 -0.28136578098E+02  0.31840738795E+02  0.22836435419E+02  0.48239013845E+02  0.00000000000E+00 0.  1.
         11    1    3    3    0    0 -0.28916772640E+02  0.33309547391E+02 -0.78129261176E+02  0.89721163274E+02  0.00000000000E+00 0. -1.
        -13    1    4    4    0    0  0.75714866670E+02 -0.29178992945E+02  0.16829905243E+03  0.18683876930E+03  0.00000000000E+00 0.  1.
         13    1    4    4    0    0 -0.28587653964E+02 -0.17496863639E+02  0.55496563925E+02  0.64832575176E+02  0.00000000000E+00 0. -1.
          3    1    1    2  501    0  0.99261380332E+01 -0.18474429603E+02  0.19122079707E+01  0.21059185756E+02  0.00000000000E+00 0. -1.
<scales pt_clust_5="13000.00000" pt_clust_6="13000.00000" pt_clust_7="13000.00000" pt_clust_8="13000.00000" pt_clust_9="20.97220"></scales>
<clustering>
<clus scale="   20.972">  1  9  2 -1</clus>
<clus scale="   92.066">  5  6 -1 -1</clus>
<clus scale="   94.098">  7  8 -1 -1</clus>
<clus scale="  124.343">  2  5  1 -1</clus>
<clus scale="   20.972">  1  5  2 -1</clus>
</clustering>
</event>
<event>
 9    1  0.1671478E-005  0.1638502E+03  0.7546771E-02  0.1197503E+00
         -3   -1    0    0    0  501 -0.00000000000E+00  0.00000000000E+00  0.41517568799E+03  0.41517568799E+03  0.00000000000E+00 0.  1.
         21   -1    0    0  501  502  0.00000000000E+00 -0.00000000000E+00 -0.19145995403E+03  0.19145995403E+03  0.00000000000E+00 0.  1.
         23    2    1    2    0    0 -0.84478969729E+02 -0.45401473186E+01  0.23826426070E+03  0.26803328791E+03  0.88964466153E+02 0.  0.
         23    2    1    2    0    0 -0.58124826853E+02 -0.52366736785E+02  0.90466490564E+02  0.15258517718E+03  0.94748507962E+02 0.  0.
        -13    1    3    3    0    0 -0.82478753661E+02  0.30212480180E+02  0.17587642238E+03  0.19659108503E+03  0.00000000000E+00 0.  1.
         13    1    3    3    0    0 -0.20002160683E+01 -0.34752627499E+02  0.62387838320E+02  0.71442202882E+02  0.00000000000E+00 0. -1.
        -13    1    4    4    0    0 -0.94959864064E+01  0.23556453868E+02  0.77614709287E+00  0.25410286912E+02  0.00000000000E+00 0. -1.
         13    1    4    4    0    0 -0.48628840447E+02 -0.75923190652E+02  0.89690343471E+02  0.12717489027E+03  0.00000000000E+00 0.  1.
         -3    1    1    2    0  502  0.14260379658E+03  0.56906884103E+02 -0.10501501730E+03  0.18601717694E+03  0.00000000000E+00 0.  1.
<scales pt_clust_5="13000.00000" pt_clust_6="13000.00000" pt_clust_7="13000.00000" pt_clust_8="13000.00000" pt_clust_9="133.67725"></scales>
<clustering>
<clus scale="   88.964">  5  6 -1 -1</clus>
<clus scale="   94.749">  7  8 -1 -1</clus>
<clus scale="  122.768">  1  5  2 -1</clus>
<clus scale="  133.677">  2  9  1 -1</clus>
<clus scale="  133.677">  2  5  1 -1</clus>
</clustering>
</event>
<event>
 9    1  0.1671478E-005  0.9958280E+02  0.7546771E-02  0.1281949E+00
         21   -1    0    0  501  502  0.00000000000E+00  0.00000000000E+00  0.98665178590E+02  0.98665178590E+02  0.00000000000E+00 0. -1.
          4   -1    0    0  502    0 -0.00000000000E+00 -0.00000000000E+00 -0.21673824576E+03  0.21673824576E+03  0.00000000000E+00 0. -1.
         23    2    1    2    0    0 -0.24980669567E+02  0.41266064484E+02 -0.13751220392E+03  0.17185913755E+03  0.91099039537E+02 0.  0.
         23    2    1    2    0    0 -0.79145827769E+01 -0.10006712370E+02 -0.15498056796E+01  0.93546482594E+02  0.92659417196E+02 0.  0.
        -13    1    4    4    0    0 -0.45907967835E+02  0.97448745096E+01 -0.13960838041E+02  0.48963344338E+02  0.00000000000E+00 0. -1.
         13    1    4    4    0    0  0.37993385059E+02 -0.19751586879E+02  0.12411032361E+02  0.44583138256E+02  0.00000000000E+00 0.  1.
        -13    1    3    3    0    0 -0.50246585781E+02  0.33203519894E+02 -0.13154283714E+03  0.14467450058E+03  0.00000000000E+00 0. -1.
         13    1    3    3    0    0  0.25265916214E+02  0.80625445905E+01 -0.59693667736E+01  0.27184636968E+02  0.00000000000E+00 0.  1.
          4    1    1    2  501    0  0.32895252344E+02 -0.31259352115E+02  0.20988942422E+02  0.49997804206E+02  0.00000000000E+00 0. -1.
<scales pt_clust_5="13000.00000" pt_clust_6="13000.00000" pt_clust_7="13000.00000" pt_clust_8="13000.00000" pt_clust_9="45.37890"></scales>
<clustering>
<clus scale="   45.379">  1  9  2 -1</clus>
<clus scale="   91.099">  7  8 -1 -1</clus>
<clus scale="   92.659">  5  6 -1 -1</clus>
<clus scale="   98.133">  2  7  1 -1</clus>
<clus scale="   45.379">  1  5  2 -1</clus>
</clustering>
</event>
<event>
 9    1  0.1671478E-005  0.9612172E+02  0.7546771E-02  0.1290153E+00
         21   -1    0    0  501  502  0.00000000000E+00  0.00000000000E+00  0.45634302500E+03  0.45634302500E+03  0.00000000000E+00 0. -1.
          1   -1    0    0  502    0 -0.00000000000E+00 -0.00000000000E+00 -0.33323611879E+02  0.33323611879E+02  0.00000000000E+00 0. -1.
         23    2    1    2    0    0 -0.20520452552E+02 -0.84033331982E+00  0.89619224883E+02  0.13050659510E+03  0.92620574183E+02 0.  0.
         23    2    1    2    0    0 -0.20378356901E+01 -0.96071792940E+01  0.18136233082E+03  0.20510311407E+03  0.95281381665E+02 0.  0.
        -13    1    4    4    0    0  0.31252070645E+02 -0.37655540332E+02  0.68895214184E+02  0.84505515647E+02  0.00000000000E+00 0.  1.
         13    1    4    4    0    0 -0.33289906335E+02  0.28048361038E+02  0.11246711664E+03  0.12059759842E+03  0.00000000000E+00 0. -1.
        -13    1    3    3    0    0  0.34555564898E+02 -0.88485986450E+01  0.52996617264E+02  0.63882910116E+02  0.00000000000E+00 0.  1.
         13    1    3    3    0    0 -0.55076017450E+02  0.80082653252E+01  0.36622607619E+02  0.66623684981E+02  0.00000000000E+00 0. -1.
          1    1    1    2  501    0  0.22558288242E+02  0.10447512614E+02  0.15203785741E+03  0.15405692771E+03  0.00000000000E+00 0. -1.
<scales pt_clust_5="13000.00000" pt_clust_6="13000.00000" pt_clust_7="13000.00000" pt_clust_8="13000.00000" pt_clust_9="24.86015"></scales>
<clustering>
<clus scale="   24.860">  1  9  2 -1</clus>
<clus scale="   92.621">  7  8 -1 -1</clus>
<clus scale="   93.485">  2  7  1 -1</clus>
<clus scale="   95.281">  5  6 -1 -1</clus>
<clus scale="   24.860">  1  5  2 -1</clus>
</clustering>
</event>
<event>
 9    1  0.1671478E-005  0.1022101E+03  0.7546771E-02  0.1281373E+00
          2   -1    0    0  502    0 -0.00000000000E+00  0.00000000000E+00  0.92409147308E+02  0.92409147308E+02  0.00000000000E+00 0. -1.
         21   -1    0    0  501  502  0.00000000000E+00 -0.00000000000E+00 -0.15782702670E+03  0.15782702670E+03  0.00000000000E+00 0.  1.
         23    2    1    2    0    0  0.27124932129E+01 -0.36061281808E+02 -0.66274502996E+01  0.98872889586E+02  0.91783176740E+02 0.  0.
         23    2    1    2    0    0 -0.23515792604E+02  0.50423592322E+02 -0.11975431180E+02  0.98158987055E+02  0.79976525451E+02 0.  0.
        -11    1    3    3    0    0 -0.31009464142E+02 -0.52510375106E+02 -0.14748081940E+01  0.61000831300E+02  0.00000000000E+00 0.  1.
         11    1    3    3    0    0  0.33721957355E+02  0.16449093298E+02 -0.51526421055E+01  0.37872058286E+02  0.00000000000E+00 0. -1.
        -13    1    4    4    0    0 -0.14976302249E+02  0.68566804531E+02 -0.24708237365E+02  0.74405599967E+02  0.00000000000E+00 0.  1.
         13    1    4    4    0    0 -0.85394903555E+01 -0.18143212209E+02  0.12732806185E+02  0.23753387088E+02  0.00000000000E+00 0. -1.
          2    1    1    2  501    0  0.20803299391E+02 -0.14362310515E+02 -0.46814997912E+02  0.53204297368E+02  0.00000000000E+00 0. -1.
<scales pt_clust_5="13000.00000" pt_clust_6="13000.00000" pt_clust_7="13000.00000" pt_clust_8="13000.00000" pt_clust_9="25.27950"></scales>
<clustering>
<clus scale="   25.280">  2  9  1 -1</clus>
<clus scale="   79.977">  7  8 -1 -1</clus>
<clus scale="   91.755">  2  7  1 -1</clus>
<clus scale="   91.783">  5  6 -1 -1</clus>
<clus scale="   25.280">  2  5  1 -1</clus>
</clustering>
</event>
<event>
 9    1  0.1671478E-005  0.9818931E+02  0.7546771E-02  0.1285766E+00
         21   -1    0    0  501  502  0.00000000000E+00  0.00000000000E+00  0.17603187349E+03  0.17603187349E+03  0.00000000000E+00 0.  1.
         -2   -1    0    0    0  501 -0.00000000000E+00 -0.00000000000E+00 -0.26001378847E+03  0.26001378847E+03  0.00000000000E+00 0.  1.
         23    2    1    2    0    0  0.40967436381E+02  0.20090987508E+02 -0.12130683595E+03  0.15697489098E+03  0.88565169949E+02 0.  0.
         23    2    1    2    0    0  0.17785302416E+02 -0.46142261918E+02 -0.89190343037E+02  0.13716705276E+03  0.91730353511E+02 0.  0.
        -11    1    4    4    0    0  0.42320407188E+02  0.78454396893E+01 -0.50530900024E+02  0.66377252472E+02  0.00000000000E+00 0.  1.
         11    1    4    4    0    0 -0.24535104772E+02 -0.53987701607E+02 -0.38659443013E+02  0.70789800290E+02  0.00000000000E+00 0. -1.
        -11    1    3    3    0    0  0.15195404270E+02  0.28419677284E+02  0.46200205470E+00  0.32230293417E+02  0.00000000000E+00 0.  1.
         11    1    3    3    0    0  0.25772032111E+02 -0.83286897769E+01 -0.12176883801E+03  0.12474459757E+03  0.00000000000E+00 0. -1.
         -2    1    1    2    0  502 -0.58752738797E+02  0.26051274411E+02  0.12651526401E+03  0.14190371821E+03  0.00000000000E+00 0.  1.
<scales pt_clust_5="13000.00000" pt_clust_6="13000.00000" pt_clust_7="13000.00000" pt_clust_8="13000.00000" pt_clust_9="64.26938"></scales>
<clustering>
<clus scale="   64.269">  1  9  2 -1</clus>
<clus scale="   88.565">  7  8 -1 -1</clus>
<clus scale="   91.730">  5  6 -1 -1</clus>
<clus scale="   95.239">  2  7  1 -1</clus>
<clus scale="   64.269">  1  5  2 -1</clus>
</clustering>
</event>
<event>
 9    1  0.1671478E-005  0.2421357E+03  0.7546771E-02  0.1118726E+00
          1   -1    0    0  502    0 -0.00000000000E+00  0.00000000000E+00  0.14686336085E+03  0.14686336085E+03  0.00000000000E+00 0. -1.
         21   -1    0    0  501  502  0.00000000000E+00 -0.00000000000E+00 -0.55253699625E+03  0.55253699625E+03  0.00000000000E+00 0. -1.
         23    2    1    2    0    0 -0.67867663618E+02 -0.19918307529E+03 -0.14474953770E+03  0.26955424779E+03  0.86180894574E+02 0.  0.
         23    2    1    2    0    0  0.14427154652E+03  0.19903198648E+03 -0.17807152536E+03  0.31714240532E+03  0.91879411883E+02 0.  0.
        -11    1    3    3    0    0 -0.19599266999E+02 -0.81735718285E+02 -0.10898963397E+03  0.13763574835E+03  0.00000000000E+00 0. -1.
         11    1    3    3    0    0 -0.48268396620E+02 -0.11744735700E+03 -0.35759903730E+02  0.13191849944E+03  0.00000000000E+00 0.  1.
        -11    1    4    4    0    0  0.10018166355E+03  0.16855111687E+03 -0.94014993170E+02  0.21745037054E+03  0.00000000000E+00 0. -1.
         11    1    4    4    0    0  0.44089882974E+02  0.30480869608E+02 -0.84056532193E+02  0.99692034772E+02  0.00000000000E+00 0.  1.
          1    1    1    2  501    0 -0.76403882904E+02  0.15108881188E+00 -0.82852572330E+02  0.11270370399E+03  0.00000000000E+00 0. -1.
<scales pt_clust_5="13000.00000" pt_clust_6="13000.00000" pt_clust_7="13000.00000" pt_clust_8="13000.00000" pt_clust_9="76.40403"></scales>
<clustering>
<clus scale="   76.404">  2  9  1 -1</clus>
<clus scale="   86.181">  5  6 -1 -1</clus>
<clus scale="   91.879">  7  8 -1 -1</clus>
<clus scale="  240.031">  1  5  2 -1</clus>
<clus scale="   76.404">  2  5  1 -1</clus>
</clustering>
</event>
<event>
 9    1  0.1671478E-005  0.3056210E+03  0.7546771E-02  0.1082657E+00
         21   -1    0    0  501  502  0.00000000000E+00  0.00000000000E+00  0.31851861025E+03  0.31851861025E+03  0.00000000000E+00 0.  1.
         -1   -1    0    0    0  501 -0.00000000000E+00 -0.00000000000E+00 -0.75955978045E+03  0.75955978045E+03  0.00000000000E+00 0.  1.
         23    2    1    2    0    0  0.28435952603E+03  0.28437916690E+02 -0.34291565113E+03  0.45671609517E+03  0.96588781150E+02 0.  0.
         23    2    1    2    0    0 -0.29559387068E+03 -0.83427986421E+00 -0.29185570450E+03  0.42535322428E+03  0.91483226606E+02 0.  0.
        -11    1    4    4    0    0 -0.22791171593E+03 -0.21719741539E+02 -0.17286368371E+03  0.28687514807E+03  0.00000000000E+00 0.  1.
         11    1    4    4    0    0 -0.67682154747E+02  0.20885461675E+02 -0.11899202079E+03  0.13847807621E+03  0.00000000000E+00 0. -1.
        -13    1    3    3    0    0  0.14673963870E+03  0.26966251784E+02 -0.24838891041E+03  0.28975291390E+03  0.00000000000E+00 0. -1.
         13    1    3    3    0    0  0.13761988733E+03  0.14716649056E+01 -0.94526740722E+02  0.16696318126E+03  0.00000000000E+00 0.  1.
         -1    1    1    2    0  502  0.11234344651E+02 -0.27603636826E+02  0.19373018543E+03  0.19600907125E+03  0.00000000000E+00 0.  1.
<scales pt_clust_5="13000.00000" pt_clust_6="13000.00000" pt_clust_7="13000.00000" pt_clust_8="13000.00000" pt_clust_9="29.80220"></scales>
<clustering>
<clus scale="   29.802">  1  9  2 -1</clus>
<clus scale="   91.483">  5  6 -1 -1</clus>
<clus scale="   96.589">  7  8 -1 -1</clus>
<clus scale="  304.046">  1  5  2 -1</clus>
<clus scale="   29.802">  1  5  2 -1</clus>
</clustering>
</event>
<event>
 9    1  0.1671478E-005  0.9896758E+02  0.7546771E-02  0.1285041E+00
          2   -1    0    0  502    0 -0.00000000000E+00  0.00000000000E+00  0.27493246563E+03  0.27493246563E+03  0.00000000000E+00 0. -1.
         21   -1    0    0  501  502  0.00000000000E+00 -0.00000000000E+00 -0.74933058335E+02  0.74933058335E+02  0.00000000000E+00 0.  1.
         23    2    1    2    0    0 -0.22768988022E+02  0.13503537742E+02  0.19310824580E+03  0.21631061329E+03  0.93801463081E+02 0.  0.
         23    2    1    2    0    0  0.36035943925E+02 -0.38842361820E+02  0.13124545430E+02  0.10428166009E+03  0.88854333671E+02 0.  0.
        -11    1    3    3    0    0 -0.99899850080E+01 -0.40399598931E+02  0.72669683840E+02  0.83742524106E+02  0.00000000000E+00 0.  1.
         11    1    3    3    0    0 -0.12779003014E+02  0.53903136673E+02  0.12043856196E+03  0.13256808918E+03  0.00000000000E+00 0. -1.
        -11    1    4    4    0    0  0.52148994327E+00 -0.29388376465E+02 -0.33725719860E+02  0.44736705322E+02  0.00000000000E+00 0. -1.
         11    1    4    4    0    0  0.35514453981E+02 -0.94539853558E+01  0.46850265290E+02  0.59544954769E+02  0.00000000000E+00 0.  1.
          2    1    1    2  501    0 -0.13266955903E+02  0.25338824079E+02 -0.62333839388E+01  0.29273250587E+02  0.00000000000E+00 0. -1.
<scales pt_clust_5="13000.00000" pt_clust_6="13000.00000" pt_clust_7="13000.00000" pt_clust_8="13000.00000" pt_clust_9="28.60189"></scales>
<clustering>
<clus scale="   28.602">  2  9  1 -1</clus>
<clus scale="   88.854">  7  8 -1 -1</clus>
<clus scale="   93.801">  5  6 -1 -1</clus>
<clus scale="   94.292">  2  7  1 -1</clus>
<clus scale="   28.602">  2  5  1 -1</clus>
</clustering>
</event>
<event>
 9    1  0.1671478E-005  0.1976868E+03  0.7546771E-02  0.1151757E+00
          1   -1    0    0  502    0 -0.00000000000E+00  0.00000000000E+00  0.98780463259E+03  0.98780463259E+03  0.00000000000E+00 0. -1.
         21   -1    0    0  501  502  0.00000000000E+00 -0.00000000000E+00 -0.49815080104E+02  0.49815080104E+02  0.00000000000E+00 0.  1.
         23    2    1    2    0    0 -0.18391323977E+03 -0.17427387839E+02  0.64608514761E+03  0.67816224484E+03  0.91379531371E+02 0.  0.
         23    2    1    2    0    0  0.15720433424E+03  0.19585366091E+02  0.26110092297E+03  0.31863006281E+03  0.90855025651E+02 0.  0.
        -11    1    4    4    0    0  0.37401823328E+02  0.87758630045E+01  0.92324061547E+01  0.39511384222E+02  0.00000000000E+00 0.  1.
         11    1    4    4    0    0  0.11980251091E+03  0.10809503087E+02  0.25186851681E+03  0.27911867859E+03  0.00000000000E+00 0. -1.
        -11    1    3    3    0    0 -0.11625789368E+03 -0.35555675920E+02  0.51904837868E+03  0.53309597949E+03  0.00000000000E+00 0.  1.
         11    1    3    3    0    0 -0.67655346092E+02  0.18128288081E+02  0.12703676893E+03  0.14506626535E+03  0.00000000000E+00 0. -1.
          1    1    1    2  501    0  0.26708905529E+02 -0.21579782516E+01  0.30803481904E+02  0.40827405038E+02  0.00000000000E+00 0. -1.
<scales pt_clust_5="13000.00000" pt_clust_6="13000.00000" pt_clust_7="13000.00000" pt_clust_8="13000.00000" pt_clust_9="26.79594"></scales>
<clustering>
<clus scale="   26.796">  2  9  1 -1</clus>
<clus scale="   90.855">  5  6 -1 -1</clus>
<clus scale="   91.380">  7  8 -1 -1</clus>
<clus scale="  197.445">  2  5  1 -1</clus>
<clus scale="   26.796">  2  5  1 -1</clus>
</clustering>
</event>
<event>
 9    1  0.1671478E-005  0.1066916E+03  0.7546771E-02  0.1267519E+00
         21   -1    0    0  501  502  0.00000000000E+00  0.00000000000E+00  0.51775533217E+02  0.51775533217E+02  0.00000000000E+00 0. -1.
          1   -1    0    0  502    0 -0.00000000000E+00 -0.00000000000E+00 -0.60390723370E+03  0.60390723370E+03  0.00000000000E+00 0. -1.
         23    2    1    2    0    0  0.33160607340E+02 -0.50635309673E+02 -0.40570489956E+03  0.41969028140E+03  0.88768836362E+02 0.  0.
         23    2    1    2    0    0 -0.76380606032E+01  0.51098455944E+02 -0.17120907155E+03  0.20041474200E+03  0.90466184070E+02 0.  0.
        -11    1    3    3    0    0  0.76238940093E+01  0.21104426479E+02 -0.37561147582E+02  0.43753404262E+02  0.00000000000E+00 0.  1.
         11    1    3    3    0    0  0.25536713331E+02 -0.71739736152E+02 -0.36814375198E+03  0.37593687714E+03  0.00000000000E+00 0. -1.
        -13    1    4    4    0    0 -0.33098034604E+02  0.65941283537E+02 -0.10961294722E+03  0.13213149121E+03  0.00000000000E+00 0.  1.
         13    1    4    4    0    0  0.25459974000E+02 -0.14842827593E+02 -0.61596124322E+02  0.68283250791E+02  0.00000000000E+00 0. -1.
          1    1    1    2  501    0 -0.25522546737E+02 -0.46314627149E+00  0.24782270627E+02  0.35577743518E+02  0.00000000000E+00 0. -1.
<scales pt_clust_5="13000.00000" pt_clust_6="13000.00000" pt_clust_7="13000.00000" pt_clust_8="13000.00000" pt_clust_9="25.52675"></scales>
<clustering>
<clus scale="   25.527">  1  9  2 -1</clus>
<clus scale="   88.769">  5  6 -1 -1</clus>
<clus scale="   90.466">  7  8 -1 -1</clus>
<clus scale="  105.256">  2  5  1 -1</clus>
<clus scale="   25.527">  1  5  2 -1</clus>
</clustering>
</event>
<event>
 9    1  0.1671478E-005  0.1706131E+03  0.7546771E-02  0.1182031E+00
          1   -1    0    0  502    0 -0.00000000000E+00  0.00000000000E+00  0.15988391813E+03  0.15988391813E+03  0.00000000000E+00 0. -1.
         21   -1    0    0  501  502  0.00000000000E+00 -0.00000000000E+00 -0.41964527824E+03  0.41964527824E+03  0.00000000000E+00 0.  1.
         23    2    1    2    0    0 -0.15997919341E+02  0.11542677043E+03  0.64821174416E+02  0.17783964983E+03  0.11766853294E+03 0.  0.
         23    2    1    2    0    0 -0.30662194190E+01 -0.15235941079E+03 -0.18546938280E+03  0.25650025528E+03  0.90391909196E+02 0.  0.
        -13    1    4    4    0    0  0.21221997243E+01 -0.12711178282E+03 -0.19166176857E+03  0.22999161419E+03  0.00000000000E+00 0.  1.
         13    1    4    4    0    0 -0.51884191433E+01 -0.25247627964E+02  0.61923857775E+01  0.26508641094E+02  0.00000000000E+00 0. -1.
        -13    1    3    3    0    0 -0.20658394762E+02  0.49482812501E+01 -0.26827673523E+02  0.34219567912E+02  0.00000000000E+00 0.  1.
         13    1    3    3    0    0  0.46604754205E+01  0.11047848918E+03  0.91648847939E+02  0.14362008192E+03  0.00000000000E+00 0. -1.
          1    1    1    2  501    0  0.19064138760E+02  0.36932640354E+02 -0.13911315173E+03  0.14518929125E+03  0.00000000000E+00 0. -1.
<scales pt_clust_5="13000.00000" pt_clust_6="13000.00000" pt_clust_7="13000.00000" pt_clust_8="13000.00000" pt_clust_9="41.56274"></scales>
<clustering>
<clus scale="   41.563">  2  9  1 -1</clus>
<clus scale="   90.392">  5  6 -1 -1</clus>
<clus scale="  117.669">  7  8 -1 -1</clus>
<clus scale="  153.081">  2  5  1 -1</clus>
<clus scale="   41.563">  2  5  1 -1</clus>
</clustering>
</event>
<event>
 9    1  0.1671478E-005  0.1678261E+03  0.7546771E-02  0.1181055E+00
         21   -1    0    0  501  502  0.00000000000E+00  0.00000000000E+00  0.11215047364E+04  0.11215047364E+04  0.00000000000E+00 0. -1.
          1   -1    0    0  502    0 -0.00000000000E+00 -0.00000000000E+00 -0.60338561493E+03  0.60338561493E+03  0.00000000000E+00 0. -1.
         23    2    1    2    0    0  0.10538405085E+03  0.82757588620E+02 -0.38280257432E+03  0.41523157233E+03  0.89021520431E+02 0.  0.
         23    2    1    2    0    0 -0.19938243938E+03  0.30325744532E+02 -0.13675659498E+03  0.26161308704E+03  0.95215718889E+02 0.  0.
        -11    1    4    4    0    0 -0.54818354541E+02  0.39846951902E+02 -0.88368661660E+01  0.68344142208E+02  0.00000000000E+00 0.  1.
         11    1    4    4    0    0 -0.14456408484E+03 -0.95212073705E+01 -0.12791972882E+03  0.19326894483E+03  0.00000000000E+00 0. -1.
        -11    1    3    3    0    0  0.40796105575E+02  0.33010557112E+02 -0.49630898958E+02  0.72230500775E+02  0.00000000000E+00 0.  1.
         11    1    3    3    0    0  0.64587945275E+02  0.49747031508E+02 -0.33317167537E+03  0.34300107155E+03  0.00000000000E+00 0. -1.
          1    1    1    2  501    0  0.93998388531E+02 -0.11308333315E+03  0.10376782908E+04  0.10480456920E+04  0.00000000000E+00 0. -1.
<scales pt_clust_5="13000.00000" pt_clust_6="13000.00000" pt_clust_7="13000.00000" pt_clust_8="13000.00000" pt_clust_9="147.04944"></scales>
<clustering>
<clus scale="   89.022">  7  8 -1 -1</clus>
<clus scale="   95.216">  5  6 -1 -1</clus>
<clus scale="  147.049">  1  9  2 -1</clus>
<clus scale="  164.391">  2  7  1 -1</clus>
<clus scale="  147.049">  1  5  2 -1</clus>
</clustering>
</event>
<event>
 9    1  0.1671478E-005  0.1062735E+03  0.7546771E-02  0.1269226E+00
         21   -1    0    0  501  502  0.00000000000E+00  0.00000000000E+00  0.19894211742E+03  0.19894211742E+03  0.00000000000E+00 0. -1.
         -3   -1    0    0    0  501 -0.00000000000E+00 -0.00000000000E+00 -0.18509597151E+03  0.18509597151E+03  0.00000000000E+00 0.  1.
         23    2    1    2    0    0  0.57558904278E+02 -0.10194539183E+02 -0.13736866036E+03  0.17588853826E+03  0.93003617948E+02 0.  0.
         23    2    1    2    0    0 -0.14733494216E+02 -0.16391237458E+02  0.87872951707E+02  0.12719888787E+03  0.89286913473E+02 0.  0.
        -11    1    3    3    0    0 -0.20226910551E+02 -0.23204111359E+02 -0.33909984785E+02  0.45797879455E+02  0.00000000000E+00 0.  1.
         11    1    3    3    0    0  0.77785814829E+02  0.13009572177E+02 -0.10345867558E+03  0.13009065881E+03  0.00000000000E+00 0. -1.
        -13    1    4    4    0    0 -0.31102003597E+00  0.35077625157E+02  0.52363142207E+02  0.63027257452E+02  0.00000000000E+00 0. -1.
         13    1    4    4    0    0 -0.14422474180E+02 -0.51468862615E+02  0.35509809500E+02  0.64171630422E+02  0.00000000000E+00 0.  1.
         -3    1    1    2    0  502 -0.42825410061E+02  0.26585776640E+02  0.63341854571E+02  0.80950662795E+02  0.00000000000E+00 0.  1.
<scales pt_clust_5="13000.00000" pt_clust_6="13000.00000" pt_clust_7="13000.00000" pt_clust_8="13000.00000" pt_clust_9="50.40654"></scales>
<clustering>
<clus scale="   50.407">  1  9  2 -1</clus>
<clus scale="   89.287">  7  8 -1 -1</clus>
<clus scale="   93.004">  5  6 -1 -1</clus>
<clus scale="  103.037">  1  7  2 -1</clus>
<clus scale="   50.407">  1  5  2 -1</clus>
</clustering>
</event>
<event>
 9    1  0.1671478E-005  0.1252223E+03  0.7546771E-02  0.1235024E+00
         -3   -1    0    0    0  501 -0.00000000000E+00  0.00000000000E+00  0.83817511264E+03  0.83817511264E+03  0.00000000000E+00 0.  1.
         21   -1    0    0  501  502  0.00000000000E+00 -0.00000000000E+00 -0.27438997743E+02  0.27438997743E+02  0.00000000000E+00 0. -1.
         23    2    1    2    0    0  0.77092242496E+02 -0.15014660153E+02  0.43841847108E+03  0.45443631723E+03  0.90182907277E+02 0.  0.
         23    2    1    2    0    0 -0.90335319224E+02  0.37415275458E+02  0.35641629649E+03  0.38068157217E+03  0.91244234041E+02 0.  0.
        -11    1    4    4    0    0  0.81717673875E+01  0.33983901022E+02  0.10315082214E+03  0.10891177815E+03  0.00000000000E+00 0.  1.
         11    1    4    4    0    0 -0.98507086612E+02  0.34313744361E+01  0.25326547435E+03  0.27176979402E+03  0.00000000000E+00 0. -1.
        -13    1    3    3    0    0 -0.50286643412E+01  0.20721408200E+02  0.33339784295E+02  0.39575313513E+02  0.00000000000E+00 0. -1.
         13    1    3    3    0    0  0.82120906837E+02 -0.35736068353E+02  0.40507868678E+03  0.41486100372E+03  0.00000000000E+00 0.  1.
         -3    1    1    2    0  502  0.13243076729E+02 -0.22400615305E+02  0.15901347321E+02  0.30496220978E+02  0.00000000000E+00 0.  1.
<scales pt_clust_5="13000.00000" pt_clust_6="13000.00000" pt_clust_7="13000.00000" pt_clust_8="13000.00000" pt_clust_9="26.02243"></scales>
<clustering>
<clus scale="   26.022">  2  9  1 -1</clus>
<clus scale="   90.183">  7  8 -1 -1</clus>
<clus scale="   91.244">  5  6 -1 -1</clus>
<clus scale="  124.451">  1  7  2 -1</clus>
<clus scale="   26.022">  2  5  1 -1</clus>
</clustering>
</event>
<event>
 9    1  0.1671478E-005  0.9816117E+02  0.7546771E-02  0.1284507E+00
         21   -1    0    0  501  502  0.00000000000E+00  0.00000000000E+00  0.88459674648E+02  0.88459674648E+02  0.00000000000E+00 0. -1.
          2   -1    0    0  502    0 -0.00000000000E+00 -0.00000000000E+00 -0.43870763428E+03  0.43870763428E+03  0.00000000000E+00 0. -1.
         23    2    1    2    0    0  0.83739630462E+01  0.10562672877E+02 -0.19679740734E+03  0.21701082560E+03  0.90458750700E+02 0.  0.
         23    2    1    2    0    0 -0.95728999238E+01 -0.86709981689E+02 -0.18850559635E+03  0.22631910381E+03  0.89864985164E+02 0.  0.
        -11    1    4    4    0    0 -0.86813449829E+01 -0.44518065428E+02 -0.17679883922E+03  0.18252411745E+03  0.00000000000E+00 0. -1.
         11    1    4    4    0    0 -0.89155494087E+00 -0.42191916261E+02 -0.11706757122E+02  0.43794986360E+02  0.00000000000E+00 0.  1.
        -13    1    3    3    0    0 -0.30158154057E+02  0.27856562386E+02 -0.52424811159E+02  0.66587259661E+02  0.00000000000E+00 0.  1.
         13    1    3    3    0    0  0.38532117104E+02 -0.17293889509E+02 -0.14437259618E+03  0.15042356594E+03  0.00000000000E+00 0. -1.
          2    1    1    2  501    0  0.11989368776E+01  0.76147308812E+02  0.35055044059E+02  0.83837379508E+02  0.00000000000E+00 0. -1.
<scales pt_clust_5="13000.00000" pt_clust_6="13000.00000" pt_clust_7="13000.00000" pt_clust_8="13000.00000" pt_clust_9="76.15675"></scales>
<clustering>
<clus scale="   76.157">  1  9  2 -1</clus>
<clus scale="   89.865">  5  6 -1 -1</clus>
<clus scale="   90.459">  7  8 -1 -1</clus>
<clus scale="   97.614">  1  5  2 -1</clus>
<clus scale="   76.157">  1  5  2 -1</clus>
</clustering>
</event>
<event>
 9    1  0.1671478E-005  0.1059977E+03  0.7546771E-02  0.1269137E+00
          1   -1    0    0  502    0 -0.00000000000E+00  0.00000000000E+00  0.24562835729E+03  0.24562835729E+03  0.00000000000E+00 0. -1.
         21   -1    0    0  501  502  0.00000000000E+00 -0.00000000000E+00 -0.15890883984E+03  0.15890883984E+03  0.00000000000E+00 0. -1.
         23    2    1    2    0    0 -0.50232326544E+02  0.27811615372E+02  0.17856190546E+03  0.20743490918E+03  0.88589586782E+02 0.  0.
         23    2    1    2    0    0  0.55867071752E+02  0.34149957513E+02 -0.55093189851E+02  0.12484240674E+03  0.90901142169E+02 0.  0.
        -11    1    3    3    0    0 -0.41739298012E+02 -0.27255797379E+02  0.84666210042E+02  0.98251791903E+02  0.00000000000E+00 0.  1.
         11    1    3    3    0    0 -0.84930285316E+01  0.55067412750E+02  0.93895695419E+02  0.10918311728E+03  0.00000000000E+00 0. -1.
        -13    1    4    4    0    0  0.30080128173E+02 -0.30208217564E+02 -0.23064113266E+02  0.48469617701E+02  0.00000000000E+00 0.  1.
         13    1    4    4    0    0  0.25786943579E+02  0.64358175077E+02 -0.32029076585E+02  0.76372789037E+02  0.00000000000E+00 0. -1.
          1    1    1    2  501    0 -0.56347452084E+01 -0.61961572884E+02 -0.36749198163E+02  0.72259881217E+02  0.00000000000E+00 0. -1.
<scales pt_clust_5="13000.00000" pt_clust_6="13000.00000" pt_clust_7="13000.00000" pt_clust_8="13000.00000" pt_clust_9="62.21726"></scales>
<clustering>
<clus scale="   62.217">  2  9  1 -1</clus>
<clus scale="   88.590">  5  6 -1 -1</clus>
<clus scale="   90.901">  7  8 -1 -1</clus>
<clus scale="  104.022">  1  5  2 -1</clus>
<clus scale="   62.217">  2  5  1 -1</clus>
</clustering>
</event>
<event>
 9    1  0.1671478E-005  0.1191618E+03  0.7546771E-02  0.1244904E+00
          3   -1    0    0  502    0 -0.00000000000E+00  0.00000000000E+00  0.88221398046E+02  0.88221398046E+02  0.00000000000E+00 0. -1.
         21   -1    0    0  501  502  0.00000000000E+00 -0.00000000000E+00 -0.46850075657E+03  0.46850075657E+03  0.00000000000E+00 0.  1.
         23    2    1    2    0    0 -0.55064506070E+02  0.13837073873E+02 -0.17427260955E+02  0.10987313401E+03  0.92438258910E+02 0.  0.
         23    2    1    2    0    0  0.11797108251E+03 -0.68557588646E+02 -0.16766091149E+03  0.23459640880E+03  0.91148091104E+02 0.  0.
        -11    1    4    4    0    0  0.11921421125E+03 -0.36248788318E+02 -0.10058843335E+03  0.16013755257E+03  0.00000000000E+00 0.  1.
         11    1    4    4    0    0 -0.12431287456E+01 -0.32308800328E+02 -0.67072478134E+02  0.74458856228E+02  0.00000000000E+00 0. -1.
        -13    1    3    3    0    0  0.14489642079E+02 -0.18599815987E+02  0.13455194032E+02  0.27146733298E+02  0.00000000000E+00 0.  1.
         13    1    3    3    0    0 -0.69554148149E+02  0.32436889860E+02 -0.30882454986E+02  0.82726400710E+02  0.00000000000E+00 0. -1.
          3    1    1    2  501    0 -0.62906576437E+02  0.54720514773E+02 -0.19519118608E+03  0.21225261180E+03  0.00000000000E+00 0. -1.
<scales pt_clust_5="13000.00000" pt_clust_6="13000.00000" pt_clust_7="13000.00000" pt_clust_8="13000.00000" pt_clust_9="83.37609"></scales>
<clustering>
<clus scale="   83.376">  2  9  1 -1</clus>
<clus scale="   91.148">  5  6 -1 -1</clus>
<clus scale="   92.438">  7  8 -1 -1</clus>
<clus scale="  118.164">  2  5  1 -1</clus>
<clus scale="   83.376">  2  5  1 -1</clus>
</clustering>
</event>
<event>
 9    1  0.1671478E-005  0.1394708E+03  0.7546771E-02  0.1214514E+00
          3   -1    0    0  502    0 -0.00000000000E+00  0.00000000000E+00  0.84741912805E+03  0.84741912805E+03  0.00000000000E+00 0. -1.
         21   -1    0    0  501  502  0.00000000000E+00 -0.00000000000E+00 -0.98450050594E+02  0.98450050594E+02  0.00000000000E+00 0. -1.
         23    2    1    2    0    0  0.11297368509E+03 -0.36613332473E+02  0.58760399216E+03  0.60608478595E+03  0.89200484959E+02 0.  0.
         23    2    1    2    0    0 -0.84301442070E+02  0.24952906878E+02  0.23185964148E+03  0.26279383809E+03  0.87019120285E+02 0.  0.
        -11    1    4    4    0    0 -0.59202838160E+02 -0.23056362616E+02  0.83993190671E+02  0.10531584868E+03  0.00000000000E+00 0. -1.
         11    1    4    4    0    0 -0.25098603910E+02  0.48009269494E+02  0.14786645081E+03  0.15747798942E+03  0.00000000000E+00 0.  1.
        -13    1    3    3    0    0  0.73724676388E+02  0.21668370854E+02  0.26494530749E+03  0.27586384715E+03  0.00000000000E+00 0.  1.
         13    1    3    3    0    0  0.39249008705E+02 -0.58281703327E+02  0.32265868467E+03  0.33022093880E+03  0.00000000000E+00 0. -1.
          3    1    1    2  501    0 -0.28672243023E+02  0.11660425596E+02 -0.70494556189E+02  0.76990554598E+02  0.00000000000E+00 0. -1.
<scales pt_clust_5="13000.00000" pt_clust_6="13000.00000" pt_clust_7="13000.00000" pt_clust_8="13000.00000" pt_clust_9="30.95259"></scales>
<clustering>
<clus scale="   30.953">  2  9  1 -1</clus>
<clus scale="   87.019">  5  6 -1 -1</clus>
<clus scale="   89.200">  7  8 -1 -1</clus>
<clus scale="  138.086">  2  5  1 -1</clus>
<clus scale="   30.953">  2  5  1 -1</clus>
</clustering>
</event>
<event>
 9    1  0.1671478E-005  0.9842641E+02  0.7546771E-02  0.1285971E+00
         21   -1    0    0  501  502  0.00000000000E+00  0.00000000000E+00  0.72483004215E+02  0.72483004215E+02  0.00000000000E+00 0. -1.
          1   -1    0    0  502    0 -0.00000000000E+00 -0.00000000000E+00 -0.40944008260E+03  0.40944008260E+03  0.00000000000E+00 0. -1.
         23    2    1    2    0    0 -0.35995612583E+02  0.15028129621E+02 -0.24676298515E+03  0.26568324376E+03  0.90410654062E+02 0.  0.
         23    2    1    2    0    0  0.82396913391E+01  0.29020554142E+02 -0.12028430965E+03  0.15610583581E+03  0.94818941929E+02 0.  0.
        -11    1    4    4    0    0 -0.24519907644E+02 -0.83729717861E+01 -0.98460683217E+02  0.10181276279E+03  0.00000000000E+00 0.  1.
         11    1    4    4    0    0  0.32759598983E+02  0.37393525928E+02 -0.21823626434E+02  0.54293073017E+02  0.00000000000E+00 0. -1.
        -13    1    3    3    0    0  0.93069464534E-01  0.35988203346E+02 -0.19912086215E+03  0.20234692285E+03  0.00000000000E+00 0.  1.
         13    1    3    3    0    0 -0.36088682048E+02 -0.20960073725E+02 -0.47642122998E+02  0.63336320908E+02  0.00000000000E+00 0. -1.
          1    1    1    2  501    0  0.27755921244E+02 -0.44048683763E+02  0.30090216410E+02  0.60134007258E+02  0.00000000000E+00 0. -1.
<scales pt_clust_5="13000.00000" pt_clust_6="13000.00000" pt_clust_7="13000.00000" pt_clust_8="13000.00000" pt_clust_9="52.06417"></scales>
<clustering>
<clus scale="   52.064">  1  9  2 -1</clus>
<clus scale="   90.411">  7  8 -1 -1</clus>
<clus scale="   94.187">  2  7  1 -1</clus>
<clus scale="   94.819">  5  6 -1 -1</clus>
<clus scale="   52.064">  1  5  2 -1</clus>
</clustering>
</event>
<event>
 9    1  0.1671478E-005  0.1030723E+03  0.7546771E-02  0.1277468E+00
         -2   -1    0    0    0  501 -0.00000000000E+00  0.00000000000E+00  0.44323424218E+03  0.44323424218E+03  0.00000000000E+00 0.  1.
         21   -1    0    0  501  502  0.00000000000E+00 -0.00000000000E+00 -0.15236325928E+03  0.15236325928E+03  0.00000000000E+00 0.  1.
         23    2    1    2    0    0 -0.19204023909E+02 -0.42421307127E+02  0.28630719760E+03  0.30150142054E+03  0.82237055862E+02 0.  0.
         23    2    1    2    0    0  0.42363431812E+02  0.45608837211E+02  0.12804132136E+03  0.16842500058E+03  0.89986523759E+02 0.  0.
        -11    1    4    4    0    0  0.46682189471E+02 -0.26414083799E+01  0.10467035773E+03  0.11463894469E+03  0.00000000000E+00 0.  1.
         11    1    4    4    0    0 -0.43187576590E+01  0.48250245591E+02  0.23370963629E+02  0.53786055891E+02  0.00000000000E+00 0. -1.
        -13    1    3    3    0    0  0.11459367823E+02 -0.41091180461E+02  0.25151178069E+03  0.25510385738E+03  0.00000000000E+00 0.  1.
         13    1    3    3    0    0 -0.30663391732E+02 -0.13301266658E+01  0.34795416910E+02  0.46397563162E+02  0.00000000000E+00 0. -1.
         -2    1    1    2    0  502 -0.23159407904E+02 -0.31875300845E+01 -0.12347753606E+03  0.12567108035E+03  0.00000000000E+00 0.  1.
<scales pt_clust_5="13000.00000" pt_clust_6="13000.00000" pt_clust_7="13000.00000" pt_clust_8="13000.00000" pt_clust_9="23.37774"></scales>
<clustering>
<clus scale="   23.378">  2  9  1 -1</clus>
<clus scale="   82.237">  7  8 -1 -1</clus>
<clus scale="   89.987">  5  6 -1 -1</clus>
<clus scale="   96.381">  1  7  2 -1</clus>
<clus scale="   23.378">  2  5  1 -1</clus>
</clustering>
</event>
<event>
 9    1  0.1671478E-005  0.9311425E+02  0.7546771E-02  0.1296207E+00
         -2   -1    0    0    0  501 -0.00000000000E+00  0.00000000000E+00  0.42582080443E+02  0.42582080443E+02  0.00000000000E+00 0.  1.
         21   -1    0    0  501  502  0.00000000000E+00 -0.00000000000E+00 -0.31656046289E+03  0.31656046289E+03  0.00000000000E+00 0. -1.
         23    2    1    2    0    0 -0.13689874295E+02 -0.32748918448E+01 -0.54673569887E+02  0.10874004268E+03  0.92935784616E+02 0.  0.
         23    2    1    2    0    0 -0.11990278928E+02  0.19228075612E+01 -0.14714472245E+03  0.17379716791E+03  0.91686543445E+02 0.  0.
        -11    1    3    3    0    0 -0.47868312736E+02 -0.73949868809E+01 -0.55480064092E+01  0.48752862175E+02  0.00000000000E+00 0. -1.
         11    1    3    3    0    0  0.34178438441E+02  0.41200950361E+01 -0.49125563478E+02  0.59987180500E+02  0.00000000000E+00 0.  1.
        -13    1    4    4    0    0  0.21183384513E+02 -0.33711713823E+02 -0.91941528331E+02  0.10019211576E+03  0.00000000000E+00 0.  1.
         13    1    4    4    0    0 -0.33173663442E+02  0.35634521384E+02 -0.55203194121E+02  0.73605052147E+02  0.00000000000E+00 0. -1.
         -2    1    1    2    0  502  0.25680153224E+02  0.13520842836E+01 -0.72160090105E+02  0.76605332748E+02  0.00000000000E+00 0.  1.
<scales pt_clust_5="13000.00000" pt_clust_6="13000.00000" pt_clust_7="13000.00000" pt_clust_8="13000.00000" pt_clust_9="25.71572"></scales>
<clustering>
<clus scale="   25.716">  2  9  1 -1</clus>
<clus scale="   91.687">  7  8 -1 -1</clus>
<clus scale="   91.867">  2  7  1 -1</clus>
<clus scale="   92.936">  5  6 -1 -1</clus>
<clus scale="   25.716">  2  5  1 -1</clus>
</clustering>
</event>
<event>
 9    1  0.5838495E-005  0.1154277E+03  0.7546771E-02  0.1259335E+00
          2   -1    0    0  502    0 -0.00000000000E+00  0.00000000000E+00  0.32159855248E+03  0.32159855248E+03  0.00000000000E+00 0. -1.
         21   -1    0    0  501  502  0.00000000000E+00 -0.00000000000E+00 -0.25412857138E+03  0.25412857138E+03  0.00000000000E+00 0. -1.
         23    2    1    2    0    0 -0.20067114732E+01  0.20858852468E+02  0.25672353430E+03  0.27463469903E+03  0.95279201461E+02 0.  0.
         23    2    1    2    0    0  0.49966286743E+02 -0.92468817072E+01 -0.21487078670E+02  0.12621947466E+03  0.11352324256E+03 0.  0.
        -13    1    3    3    0    0  0.27819123738E+02  0.45131384134E+02  0.19353209276E+03  0.20066244394E+03  0.00000000000E+00 0. -1.
         13    1    3    3    0    0 -0.29825835212E+02 -0.24272531665E+02  0.63191441539E+02  0.73972255091E+02  0.00000000000E+00 0.  1.
        -13    1    4    4    0    0 -0.21651732634E+02  0.25405308335E+02 -0.31665694249E+02  0.46010253313E+02  0.00000000000E+00 0.  1.
         13    1    4    4    0    0  0.71618019377E+02 -0.34652190042E+02  0.10178615579E+02  0.80209221348E+02  0.00000000000E+00 0. -1.
          2    1    1    2  501    0 -0.47959575270E+02 -0.11611970761E+02 -0.16776647453E+03  0.17487295017E+03  0.00000000000E+00 0. -1.
<scales pt_clust_5="13000.00000" pt_clust_6="13000.00000" pt_clust_7="13000.00000" pt_clust_8="13000.00000" pt_clust_9="49.34530"></scales>
<clustering>
<clus scale="   49.345">  2  9  1 -1</clus>
<clus scale="   95.279">  5  6 -1 -1</clus>
<clus scale="   97.541">  1  5  2 -1</clus>
<clus scale="  113.523">  7  8 -1 -1</clus>
<clus scale="   49.345">  2  5  1 -1</clus>
</clustering>
</event>
<event>
 9    1  0.1671478E-005  0.9371119E+02  0.7546771E-02  0.1294328E+00
          2   -1    0    0  502    0 -0.00000000000E+00  0.00000000000E+00  0.36635498821E+03  0.36635498821E+03  0.00000000000E+00 0. -1.
         21   -1    0    0  501  502  0.00000000000E+00 -0.00000000000E+00 -0.51916461083E+02  0.51916461083E+02  0.00000000000E+00 0.  1.
         23    2    1    2    0    0 -0.13911848254E+01  0.17854293714E+02  0.27543519240E+03  0.29076494328E+03  0.91427544160E+02 0.  0.
         23    2    1    2    0    0  0.20657827371E+02 -0.28939234260E+02  0.39150734147E+02  0.10527811991E+03  0.91030090829E+02 0.  0.
        -11    1    4    4    0    0  0.46541745517E+02  0.11642212865E+02  0.10004103590E+02  0.49007726787E+02  0.00000000000E+00 0. -1.
         11    1    4    4    0    0 -0.25883918146E+02 -0.40581447126E+02  0.29146630557E+02  0.56270393123E+02  0.00000000000E+00 0.  1.
        -13    1    3    3    0    0 -0.31331672045E+02 -0.20878172321E+02  0.17537091127E+03  0.17936702114E+03  0.00000000000E+00 0.  1.
         13    1    3    3    0    0  0.29940487220E+02  0.38732466035E+02  0.10006428113E+03  0.11139792215E+03  0.00000000000E+00 0. -1.
          2    1    1    2  501    0 -0.19266642546E+02  0.11084940546E+02 -0.14739942288E+00  0.22228386097E+02  0.00000000000E+00 0. -1.
<scales pt_clust_5="13000.00000" pt_clust_6="13000.00000" pt_clust_7="13000.00000" pt_clust_8="13000.00000" pt_clust_9="22.22790"></scales>
<clustering>
<clus scale="   22.228">  2  9  1 -1</clus>
<clus scale="   91.030">  5  6 -1 -1</clus>
<clus scale="   91.428">  7  8 -1 -1</clus>
<clus scale="   93.323">  2  5  1 -1</clus>
<clus scale="   22.228">  2  5  1 -1</clus>
</clustering>
</event>
<event>
 9    1  0.1671478E-005  0.1692277E+03  0.7546771E-02  0.1178985E+00
         21   -1    0    0  501  502  0.00000000000E+00  0.00000000000E+00  0.91355863578E+03  0.91355863578E+03  0.00000000000E+00 0.  1.
          1   -1    0    0  502    0 -0.00000000000E+00 -0.00000000000E+00 -0.79160417066E+02  0.79160417066E+02  0.00000000000E+00 0. -1.
         23    2    1    2    0    0  0.11844769097E+03 -0.43673862004E+02  0.83132101064E+02  0.17526059316E+03  0.88702128327E+02 0.  0.
         23    2    1    2    0    0 -0.18142446176E+03  0.49923277938E+02  0.32434296627E+03  0.38587010715E+03  0.91050594831E+02 0.  0.
        -13    1    3    3    0    0  0.47559451768E+02 -0.54123061416E+02  0.97665051318E+01  0.72708953039E+02  0.00000000000E+00 0. -1.
         13    1    3    3    0    0  0.70888239202E+02  0.10449199412E+02  0.73365595932E+02  0.10255164012E+03  0.00000000000E+00 0.  1.
        -13    1    4    4    0    0 -0.14796547235E+03  0.61720245681E+02  0.30708726030E+03  0.34641846829E+03  0.00000000000E+00 0.  1.
         13    1    4    4    0    0 -0.33458989412E+02 -0.11796967744E+02  0.17255705974E+02  0.39451638864E+02  0.00000000000E+00 0. -1.
          1    1    1    2  501    0  0.62976770790E+02 -0.62494159332E+01  0.42692315138E+03  0.43158835254E+03  0.00000000000E+00 0. -1.
<scales pt_clust_5="13000.00000" pt_clust_6="13000.00000" pt_clust_7="13000.00000" pt_clust_8="13000.00000" pt_clust_9="63.28609"></scales>
<clustering>
<clus scale="   63.286">  1  9  2 -1</clus>
<clus scale="   88.702">  5  6 -1 -1</clus>
<clus scale="   91.051">  7  8 -1 -1</clus>
<clus scale="  167.976">  2  5  1 -1</clus>
<clus scale="   63.286">  1  5  2 -1</clus>
</clustering>
</event>
<event>
 9    1  0.1671478E-005  0.1105633E+03  0.7546771E-02  0.1262092E+00
          1   -1    0    0  502    0 -0.00000000000E+00  0.00000000000E+00  0.68216212154E+03  0.68216212154E+03  0.00000000000E+00 0. -1.
         21   -1    0    0  501  502  0.00000000000E+00 -0.00000000000E+00 -0.49726029282E+02  0.49726029282E+02  0.00000000000E+00 0.  1.
         23    2    1    2    0    0  0.50200820441E+02 -0.15055997750E+02  0.52853726899E+03  0.53855681208E+03  0.89134671646E+02 0.  0.
         23    2    1    2    0    0 -0.73320862772E+02  0.90958976015E+01  0.11524493896E+03  0.16689663632E+03  0.95469403407E+02 0.  0.
        -11    1    3    3    0    0  0.42430867664E+02 -0.51148870124E+02  0.33418310415E+03  0.34072706459E+03  0.00000000000E+00 0. -1.
         11    1    3    3    0    0  0.77699527767E+01  0.36092872374E+02  0.19435416484E+03  0.19782974749E+03  0.00000000000E+00 0.  1.
        -13    1    4    4    0    0 -0.21207592951E+02 -0.24975272821E+02  0.96443566875E+02  0.10185719338E+03  0.00000000000E+00 0. -1.
         13    1    4    4    0    0 -0.52113269821E+02  0.34071170423E+02  0.18801372085E+02  0.65039442939E+02  0.00000000000E+00 0.  1.
          1    1    1    2  501    0  0.23120042332E+02  0.59601001482E+01 -0.11346115687E+02  0.26434702427E+02  0.00000000000E+00 0. -1.
<scales pt_clust_5="13000.00000" pt_clust_6="13000.00000" pt_clust_7="13000.00000" pt_clust_8="13000.00000" pt_clust_9="23.87591"></scales>
<clustering>
<clus scale="   23.876">  2  9  1 -1</clus>
<clus scale="   89.135">  5  6 -1 -1</clus>
<clus scale="   95.469">  7  8 -1 -1</clus>
<clus scale="  105.142">  1  5  2 -1</clus>
<clus scale="   23.876">  2  5  1 -1</clus>
</clustering>
</event>
<event>
 9    1  0.1671478E-005  0.1011755E+03  0.7546771E-02  0.1281134E+00
          2   -1    0    0  502    0 -0.00000000000E+00  0.00000000000E+00  0.22759797113E+03  0.22759797113E+03  0.00000000000E+00 0. -1.
         21   -1    0    0  501  502  0.00000000000E+00 -0.00000000000E+00 -0.10386197154E+03  0.10386197154E+03  0.00000000000E+00 0. -1.
         23    2    1    2    0    0 -0.24989062409E+02 -0.35658220300E+02  0.14499472870E+03  0.17771547025E+03  0.93077145950E+02 0.  0.
         23    2    1    2    0    0  0.30794344041E+02  0.15779340553E+02  0.30576191354E+02  0.97925746763E+02  0.86355481517E+02 0.  0.
        -11    1    4    4    0    0  0.25590888521E+02 -0.34145120718E+02  0.16952896797E+02  0.45914960024E+02  0.00000000000E+00 0. -1.
         11    1    4    4    0    0  0.52034555194E+01  0.49924461272E+02  0.13623294557E+02  0.52010786739E+02  0.00000000000E+00 0.  1.
        -13    1    3    3    0    0  0.26624007279E+02  0.13667437417E+02  0.57208929988E+02  0.64563908490E+02  0.00000000000E+00 0.  1.
         13    1    3    3    0    0 -0.51613069688E+02 -0.49325657717E+02  0.87785798713E+02  0.11315156176E+03  0.00000000000E+00 0. -1.
          2    1    1    2  501    0 -0.58052816314E+01  0.19878879747E+02 -0.51834920466E+02  0.55818725662E+02  0.00000000000E+00 0. -1.
<scales pt_clust_5="13000.00000" pt_clust_6="13000.00000" pt_clust_7="13000.00000" pt_clust_8="13000.00000" pt_clust_9="20.70920"></scales>
<clustering>
<clus scale="   20.709">  2  9  1 -1</clus>
<clus scale="   86.355">  5  6 -1 -1</clus>
<clus scale="   93.077">  7  8 -1 -1</clus>
<clus scale="   95.028">  2  5  1 -1</clus>
<clus scale="   20.709">  2  5  1 -1</clus>
</clustering>
</event>
<event>
 9    1  0.1671478E-005  0.1484611E+03  0.7546771E-02  0.1202476E+00
         21   -1    0    0  501  502  0.00000000000E+00  0.00000000000E+00  0.12268475380E+03  0.12268475380E+03  0.00000000000E+00 0. -1.
          1   -1    0    0  502    0 -0.00000000000E+00 -0.00000000000E+00 -0.58397506784E+03  0.58397506784E+03  0.00000000000E+00 0. -1.
         23    2    1    2    0    0  0.10058880615E+03  0.31732218304E+02 -0.33920519934E+03  0.36633315721E+03  0.89525265765E+02 0.  0.
         23    2    1    2    0    0 -0.14004189586E+03 -0.59158206560E+02 -0.18872851986E+03  0.25816782698E+03  0.88998576842E+02 0.  0.
        -11    1    4    4    0    0 -0.10253801605E+03 -0.13243808576E+02 -0.68227240383E+02  0.12387251322E+03  0.00000000000E+00 0.  1.
         11    1    4    4    0    0 -0.37503879810E+02 -0.45914397984E+02 -0.12050127947E+03  0.13429531376E+03  0.00000000000E+00 0. -1.
        -13    1    3    3    0    0  0.91806821928E+02  0.10944287962E+02 -0.32867284329E+03  0.34142950650E+03  0.00000000000E+00 0. -1.
         13    1    3    3    0    0  0.87819842242E+01  0.20787930342E+02 -0.10532356052E+02  0.24903650713E+02  0.00000000000E+00 0.  1.
          1    1    1    2  501    0  0.39453089704E+02  0.27425988257E+02  0.66643405158E+02  0.82158837444E+02  0.00000000000E+00 0. -1.
<scales pt_clust_5="13000.00000" pt_clust_6="13000.00000" pt_clust_7="13000.00000" pt_clust_8="13000.00000" pt_clust_9="48.04926"></scales>
<clustering>
<clus scale="   48.049">  1  9  2 -1</clus>
<clus scale="   88.999">  5  6 -1 -1</clus>
<clus scale="   89.525">  7  8 -1 -1</clus>
<clus scale="  148.144">  1  5  2 -1</clus>
<clus scale="   48.049">  1  5  2 -1</clus>
</clustering>
</event>
<event>
 9    1  0.1671478E-005  0.3125483E+03  0.7546771E-02  0.1079137E+00
          1   -1    0    0  502    0 -0.00000000000E+00  0.00000000000E+00  0.11793709535E+04  0.11793709535E+04  0.00000000000E+00 0. -1.
         21   -1    0    0  501  502  0.00000000000E+00 -0.00000000000E+00 -0.11049999659E+03  0.11049999659E+03  0.00000000000E+00 0. -1.
         23    2    1    2    0    0  0.21699813916E+03 -0.23424010385E+03  0.76542340455E+03  0.83541563400E+03  0.10044737250E+03 0.  0.
         23    2    1    2    0    0 -0.17375924821E+03  0.18686894404E+03  0.24601299225E+03  0.36836026883E+03  0.10027271168E+03 0.  0.
        -13    1    4    4    0    0 -0.16190820339E+03  0.11430824698E+03  0.20032300679E+03  0.28179770883E+03  0.00000000000E+00 0. -1.
         13    1    4    4    0    0 -0.11851044819E+02  0.72560697064E+02  0.45689985465E+02  0.86562559999E+02  0.00000000000E+00 0.  1.
        -13    1    3    3    0    0  0.21895578995E+03 -0.18933755541E+03  0.67452676421E+03  0.73401410305E+03  0.00000000000E+00 0. -1.
         13    1    3    3    0    0 -0.19576507911E+01 -0.44902548439E+02  0.90896640338E+02  0.10140153094E+03  0.00000000000E+00 0.  1.
          1    1    1    2  501    0 -0.43238890952E+02  0.47371159801E+02  0.57434560141E+02  0.86095047304E+02  0.00000000000E+00 0. -1.
<scales pt_clust_5="13000.00000" pt_clust_6="13000.00000" pt_clust_7="13000.00000" pt_clust_8="13000.00000" pt_clust_9="64.13757"></scales>
<clustering>
<clus scale="   64.138">  2  9  1 -1</clus>
<clus scale="  100.273">  5  6 -1 -1</clus>
<clus scale="  100.447">  7  8 -1 -1</clus>
<clus scale="  312.492">  2  5  1 -1</clus>
<clus scale="   64.138">  2  5  1 -1</clus>
</clustering>
</event>
<event>
 9    1  0.1671478E-005  0.1456857E+03  0.7546771E-02  0.1206388E+00
         21   -1    0    0  501  502  0.00000000000E+00  0.00000000000E+00  0.67182468093E+03  0.67182468093E+03  0.00000000000E+00 0. -1.
          2   -1    0    0  502    0 -0.00000000000E+00 -0.00000000000E+00 -0.60660836504E+02  0.60660836504E+02  0.00000000000E+00 0. -1.
         23    2    1    2    0    0  0.92146875393E+02  0.23172013157E+02  0.11892804505E+03  0.17767744945E+03  0.91637368489E+02 0.  0.
         23    2    1    2    0    0 -0.15884506572E+03  0.33777617623E+01  0.32001005930E+03  0.36821963136E+03  0.89084761217E+02 0.  0.
        -11    1    4    4    0    0 -0.96676241271E+02  0.42862817753E+02  0.15639881105E+03  0.18879646413E+03  0.00000000000E+00 0. -1.
         11    1    4    4    0    0 -0.62168824452E+02 -0.39485055991E+02  0.16361124825E+03  0.17942316722E+03  0.00000000000E+00 0.  1.
        -13    1    3    3    0    0  0.77215757218E+02  0.56014347525E+02  0.78938328312E+02  0.12381898065E+03  0.00000000000E+00 0.  1.
         13    1    3    3    0    0  0.14931118175E+02 -0.32842334368E+02  0.39989716739E+02  0.53858468801E+02  0.00000000000E+00 0. -1.
          2    1    1    2  501    0  0.66698190331E+02 -0.26549774919E+02  0.17222574007E+03  0.18658843663E+03  0.00000000000E+00 0. -1.
<scales pt_clust_5="13000.00000" pt_clust_6="13000.00000" pt_clust_7="13000.00000" pt_clust_8="13000.00000" pt_clust_9="71.78815"></scales>
<clustering>
<clus scale="   71.788">  1  9  2 -1</clus>
<clus scale="   89.085">  5  6 -1 -1</clus>
<clus scale="   91.637">  7  8 -1 -1</clus>
<clus scale="  144.094">  1  5  2 -1</clus>
<clus scale="   71.788">  1  5  2 -1</clus>
</clustering>
</event>
<event>
 9    1  0.1671478E-005  0.1136226E+03  0.7546771E-02  0.1254659E+00
         -1   -1    0    0    0  501 -0.00000000000E+00  0.00000000000E+00  0.16221358331E+03  0.16221358331E+03  0.00000000000E+00 0.  1.
         21   -1    0    0  501  502  0.00000000000E+00 -0.00000000000E+00 -0.13024113796E+03  0.13024113796E+03  0.00000000000E+00 0. -1.
         23    2    1    2    0    0 -0.56585843038E+02 -0.32223941170E+02  0.64214016131E+02  0.13030103436E+03  0.92814759989E+02 0.  0.
         23    2    1    2    0    0  0.69638581958E+02  0.68148538594E+01  0.53655230025E+01  0.11492774896E+03  0.91014418165E+02 0.  0.
        -13    1    3    3    0    0 -0.47935072723E+02  0.11233016719E+02  0.70037076485E+02  0.85610419601E+02  0.00000000000E+00 0.  1.
         13    1    3    3    0    0 -0.86507703143E+01 -0.43456957889E+02 -0.58230603545E+01  0.44690614763E+02  0.00000000000E+00 0. -1.
        -13    1    4    4    0    0  0.12870518791E+02 -0.39337851510E+02  0.55882620725E+01  0.41765362304E+02  0.00000000000E+00 0.  1.
         13    1    4    4    0    0  0.56768063168E+02  0.46152705369E+02 -0.22273907010E+00  0.73162386657E+02  0.00000000000E+00 0. -1.
         -1    1    1    2    0  502 -0.13052738921E+02  0.25409087310E+02 -0.37607093786E+02  0.47225937940E+02  0.00000000000E+00 0.  1.
<scales pt_clust_5="13000.00000" pt_clust_6="13000.00000" pt_clust_7="13000.00000" pt_clust_8="13000.00000" pt_clust_9="28.56564"></scales>
<clustering>
<clus scale="   28.566">  2  9  1 -1</clus>
<clus scale="   91.014">  7  8 -1 -1</clus>
<clus scale="   92.815">  5  6 -1 -1</clus>
<clus scale="  112.157">  2  7  1 -1</clus>
<clus scale="   28.566">  2  5  1 -1</clus>
</clustering>
</event>
<event>
 9    1  0.1671478E-005  0.9783666E+02  0.7546771E-02  0.1291913E+00
          1   -1    0    0  502    0 -0.00000000000E+00  0.00000000000E+00  0.80457225467E+03  0.80457225467E+03  0.00000000000E+00 0. -1.
         21   -1    0    0  501  502  0.00000000000E+00 -0.00000000000E+00 -0.24673255335E+02  0.24673255335E+02  0.00000000000E+00 0. -1.
         23    2    1    2    0    0 -0.68455709167E+01  0.56319293118E+01  0.28084495564E+03  0.29197570104E+03  0.79355783799E+02 0.  0.
         23    2    1    2    0    0  0.42601425050E+02 -0.42992832016E+02  0.45839398857E+03  0.47148562972E+03  0.92251749325E+02 0.  0.
        -13    1    4    4    0    0  0.64378451073E+02 -0.77969369460E+01  0.21393192577E+03  0.22354472942E+03  0.00000000000E+00 0.  1.
         13    1    4    4    0    0 -0.21777026023E+02 -0.35195895070E+02  0.24446206281E+03  0.24794090030E+03  0.00000000000E+00 0. -1.
        -13    1    3    3    0    0  0.30875209590E+02 -0.13139994639E+02  0.17236333414E+03  0.17559913719E+03  0.00000000000E+00 0.  1.
         13    1    3    3    0    0 -0.37720780506E+02  0.18771923951E+02  0.10848162150E+03  0.11637656385E+03  0.00000000000E+00 0. -1.
          1    1    1    2  501    0 -0.35755854133E+02  0.37360902704E+02  0.40660055123E+02  0.65784179240E+02  0.00000000000E+00 0. -1.
<scales pt_clust_5="13000.00000" pt_clust_6="13000.00000" pt_clust_7="13000.00000" pt_clust_8="13000.00000" pt_clust_9="51.71381"></scales>
<clustering>
<clus scale="   51.714">  2  9  1 -1</clus>
<clus scale="   79.356">  7  8 -1 -1</clus>
<clus scale="   85.784">  1  7  2 -1</clus>
<clus scale="   92.252">  5  6 -1 -1</clus>
<clus scale="   51.714">  2  5  1 -1</clus>
</clustering>
</event>
<event>
 9    1  0.1671478E-005  0.9787741E+02  0.7546771E-02  0.1285722E+00
         -1   -1    0    0    0  501 -0.00000000000E+00  0.00000000000E+00  0.45367627020E+03  0.45367627020E+03  0.00000000000E+00 0.  1.
         21   -1    0    0  501  502  0.00000000000E+00 -0.00000000000E+00 -0.57264055014E+02  0.57264055014E+02  0.00000000000E+00 0. -1.
         23    2    1    2    0    0 -0.24022640020E+01 -0.31115001615E+02  0.36565166491E+03  0.37874356555E+03  0.93657002908E+02 0.  0.
         23    2    1    2    0    0 -0.23777449147E+02  0.13761925603E+02  0.30840079625E+02  0.10078795592E+03  0.91936629605E+02 0.  0.
        -11    1    3    3    0    0 -0.35144691883E+02  0.18119710695E+02  0.15251945737E+03  0.15756160116E+03  0.00000000000E+00 0.  1.
         11    1    3    3    0    0  0.32742427881E+02 -0.49234712310E+02  0.21313220754E+03  0.22118196439E+03  0.00000000000E+00 0. -1.
        -13    1    4    4    0    0 -0.54674141886E+02 -0.73173963361E+01  0.51266238669E+01  0.55399353357E+02  0.00000000000E+00 0.  1.
         13    1    4    4    0    0  0.30896692739E+02  0.21079321939E+02  0.25713455758E+02  0.45388602563E+02  0.00000000000E+00 0. -1.
         -1    1    1    2    0  502  0.26179713149E+02  0.17353076011E+02 -0.79529352692E-01  0.31408803743E+02  0.00000000000E+00 0.  1.
<scales pt_clust_5="13000.00000" pt_clust_6="13000.00000" pt_clust_7="13000.00000" pt_clust_8="13000.00000" pt_clust_9="31.40870"></scales>
<clustering>
<clus scale="   31.409">  2  9  1 -1</clus>
<clus scale="   91.937">  7  8 -1 -1</clus>
<clus scale="   93.657">  5  6 -1 -1</clus>
<clus scale="   96.233">  2  7  1 -1</clus>
<clus scale="   31.409">  2  5  1 -1</clus>
</clustering>
</event>
<event>
 9    1  0.1671478E-005  0.1288174E+03  0.7546771E-02  0.1236761E+00
         -3   -1    0    0    0  501 -0.00000000000E+00  0.00000000000E+00  0.14723976654E+03  0.14723976654E+03  0.00000000000E+00 0.  1.
         21   -1    0    0  501  502  0.00000000000E+00 -0.00000000000E+00 -0.18583152165E+03  0.18583152165E+03  0.00000000000E+00 0. -1.
         23    2    1    2    0    0 -0.70876900658E+02 -0.87706453485E+01  0.43395452102E+02  0.14110119216E+03  0.11369222445E+03 0.  0.
         23    2    1    2    0    0  0.47614859935E+02  0.13578186716E+02  0.19971226572E+01  0.10469121739E+03  0.92221041305E+02 0.  0.
        -13    1    4    4    0    0  0.35039934857E+02 -0.52015808541E+01  0.44304634187E+02  0.56725250891E+02  0.00000000000E+00 0.  1.
         13    1    4    4    0    0  0.12574925078E+02  0.18779767570E+02 -0.42307511530E+02  0.47965966503E+02  0.00000000000E+00 0. -1.
        -13    1    3    3    0    0  0.21002848648E+02 -0.33091296374E+02  0.13898086576E+02  0.41584977546E+02  0.00000000000E+00 0.  1.
         13    1    3    3    0    0 -0.91879749306E+02  0.24320651025E+02  0.29497365526E+02  0.99516214617E+02  0.00000000000E+00 0. -1.
         -3    1    1    2    0  502  0.23262040723E+02 -0.48075413677E+01 -0.83984329868E+02  0.87278878637E+02  0.00000000000E+00 0.  1.
<scales pt_clust_5="13000.00000" pt_clust_6="13000.00000" pt_clust_7="13000.00000" pt_clust_8="13000.00000" pt_clust_9="23.75363"></scales>
<clustering>
<clus scale="   23.754">  2  9  1 -1</clus>
<clus scale="   92.221">  5  6 -1 -1</clus>
<clus scale="  110.330">  2  5  1 -1</clus>
<clus scale="  113.692">  7  8 -1 -1</clus>
<clus scale="   23.754">  2  5  1 -1</clus>
</clustering>
</event>
<event>
 9    1  0.1728381E-005  0.1068983E+03  0.7546771E-02  0.1266502E+00
         21   -1    0    0  501  502  0.00000000000E+00  0.00000000000E+00  0.29009229211E+03  0.29009229211E+03  0.00000000000E+00 0. -1.
          1   -1    0    0  502    0 -0.00000000000E+00 -0.00000000000E+00 -0.48184055918E+03  0.48184055918E+03  0.00000000000E+00 0. -1.
         23    2    1    2    0    0 -0.40710719251E+02 -0.12468421776E+02 -0.29092027092E+03  0.30789605215E+03  0.91392290117E+02 0.  0.
         23    2    1    2    0    0  0.84174796845E+02  0.32360269147E+02 -0.15740563565E+03  0.20304465992E+03  0.91203159727E+02 0.  0.
        -11    1    3    3    0    0 -0.64282857553E+02 -0.17171357540E+02 -0.26187058087E+03  0.27019130708E+03  0.00000000000E+00 0.  1.
         11    1    3    3    0    0  0.23572138302E+02  0.47029357641E+01 -0.29049690054E+02  0.37704745075E+02  0.00000000000E+00 0. -1.
        -11    1    4    4    0    0  0.53737531821E+02  0.58951643395E+02 -0.13507186960E+03  0.15686755095E+03  0.00000000000E+00 0.  1.
         11    1    4    4    0    0  0.30437265024E+02 -0.26591374248E+02 -0.22333766054E+02  0.46177108968E+02  0.00000000000E+00 0. -1.
          1    1    1    2  501    0 -0.43464077594E+02 -0.19891847371E+02  0.25657763951E+03  0.26099213921E+03  0.00000000000E+00 0. -1.
<scales pt_clust_5="13000.00000" pt_clust_6="13000.00000" pt_clust_7="13000.00000" pt_clust_8="13000.00000" pt_clust_9="47.79970"></scales>
<clustering>
<clus scale="   47.800">  1  9  2 -1</clus>
<clus scale="   91.203">  7  8 -1 -1</clus>
<clus scale="   91.392">  5  6 -1 -1</clus>
<clus scale="  106.737">  1  7  2 -1</clus>
<clus scale="   47.800">  1  5  2 -1</clus>
</clustering>
</event>
<event>
 9    1  0.1671478E-005  0.9589810E+02  0.7546771E-02  0.1291030E+00
         21   -1    0    0  501  502  0.00000000000E+00  0.00000000000E+00  0.14027859656E+03  0.14027859656E+03  0.00000000000E+00 0. -1.
         -1   -1    0    0    0  501 -0.00000000000E+00 -0.00000000000E+00 -0.26452384118E+03  0.26452384118E+03  0.00000000000E+00 0.  1.
         23    2    1    2    0    0  0.29671579569E+02 -0.12990657065E+02 -0.20968161580E+03  0.22966437664E+03  0.87921476826E+02 0.  0.
         23    2    1    2    0    0  0.13794054957E+02  0.11178011322E+02  0.92307164217E+02  0.13109541283E+03  0.91379269045E+02 0.  0.
        -11    1    4    4    0    0  0.26964984450E+02 -0.27899297608E+02  0.78573313029E+02  0.87631311264E+02  0.00000000000E+00 0. -1.
         11    1    4    4    0    0 -0.13170929493E+02  0.39077308930E+02  0.13733851188E+02  0.43464101571E+02  0.00000000000E+00 0.  1.
        -13    1    3    3    0    0  0.56996380647E+02 -0.36216767683E+01 -0.90355399378E+02  0.10689154385E+03  0.00000000000E+00 0.  1.
         13    1    3    3    0    0 -0.27324801079E+02 -0.93689802968E+01 -0.11932621642E+03  0.12277283279E+03  0.00000000000E+00 0. -1.
         -1    1    1    2    0  502 -0.43465634525E+02  0.18126457426E+01 -0.68707930420E+01  0.44042648266E+02  0.00000000000E+00 0.  1.
<scales pt_clust_5="13000.00000" pt_clust_6="13000.00000" pt_clust_7="13000.00000" pt_clust_8="13000.00000" pt_clust_9="43.50341"></scales>
<clustering>
<clus scale="   43.503">  1  9  2 -1</clus>
<clus scale="   87.921">  7  8 -1 -1</clus>
<clus scale="   91.379">  5  6 -1 -1</clus>
<clus scale="   92.609">  2  7  1 -1</clus>
<clus scale="   43.503">  1  5  2 -1</clus>
</clustering>
</event>
<event>
 9    1  0.1671478E-005  0.9720392E+02  0.7546771E-02  0.1287008E+00
         21   -1    0    0  501  502  0.00000000000E+00  0.00000000000E+00  0.38865216133E+02  0.38865216133E+02  0.00000000000E+00 0.  1.
         -2   -1    0    0    0  501 -0.00000000000E+00 -0.00000000000E+00 -0.42145204506E+03  0.42145204506E+03  0.00000000000E+00 0.  1.
         23    2    1    2    0    0  0.16109299856E+02  0.22872276661E+02 -0.22754118277E+03  0.24652318891E+03  0.90642386515E+02 0.  0.
         23    2    1    2    0    0 -0.16364690733E+02 -0.43585148162E+02 -0.16302723001E+03  0.19159510944E+03  0.89237548120E+02 0.  0.
        -13    1    4    4    0    0 -0.47536580997E+02 -0.41041464694E+02 -0.13771844016E+03  0.15136213899E+03  0.00000000000E+00 0.  1.
         13    1    4    4    0    0  0.31171890264E+02 -0.25436834687E+01 -0.25308789842E+02  0.40232970454E+02  0.00000000000E+00 0. -1.
        -13    1    3    3    0    0  0.49370524095E+02 -0.73416091180E+01 -0.11772906360E+03  0.12787290678E+03  0.00000000000E+00 0. -1.
         13    1    3    3    0    0 -0.33261224239E+02  0.30213885779E+02 -0.10981211917E+03  0.11865028213E+03  0.00000000000E+00 0.  1.
         -2    1    1    2    0  502  0.25539087632E+00  0.20712871501E+02  0.79815838530E+01  0.22198962839E+02  0.00000000000E+00 0.  1.
<scales pt_clust_5="13000.00000" pt_clust_6="13000.00000" pt_clust_7="13000.00000" pt_clust_8="13000.00000" pt_clust_9="20.71445"></scales>
<clustering>
<clus scale="   20.714">  1  9  2 -1</clus>
<clus scale="   89.238">  5  6 -1 -1</clus>
<clus scale="   90.642">  7  8 -1 -1</clus>
<clus scale="   95.895">  1  5  2 -1</clus>
<clus scale="   20.714">  1  5  2 -1</clus>
</clustering>
</event>
<event>
 9    1  0.1671478E-005  0.1115830E+03  0.7546771E-02  0.1257823E+00
         21   -1    0    0  501  502  0.00000000000E+00  0.00000000000E+00  0.25350987606E+03  0.25350987606E+03  0.00000000000E+00 0. -1.
         -1   -1    0    0    0  501 -0.00000000000E+00 -0.00000000000E+00 -0.80838570905E+02  0.80838570905E+02  0.00000000000E+00 0.  1.
         23    2    1    2    0    0  0.69139332181E+02  0.25132391456E+02  0.60418534562E+02  0.13211702712E+03  0.91611272136E+02 0.  0.
         23    2    1    2    0    0 -0.55979619050E+02  0.28802279684E+02  0.86034565412E+02  0.14083499419E+03  0.92028582940E+02 0.  0.
        -13    1    4    4    0    0  0.25289526033E+02  0.13953858078E+02  0.21825410274E+02  0.36202469748E+02  0.00000000000E+00 0. -1.
         13    1    4    4    0    0 -0.81269145084E+02  0.14848421606E+02  0.64209155138E+02  0.10463252444E+03  0.00000000000E+00 0.  1.
        -13    1    3    3    0    0  0.24313680729E+02  0.48394752669E+02  0.61050153722E+02  0.81610835224E+02  0.00000000000E+00 0. -1.
         13    1    3    3    0    0  0.44825651452E+02 -0.23262361213E+02 -0.63161915988E+00  0.50506191898E+02  0.00000000000E+00 0.  1.
         -1    1    1    2    0  502 -0.13159713130E+02 -0.53934671140E+02  0.26218205184E+02  0.61396425659E+02  0.00000000000E+00 0.  1.
<scales pt_clust_5="13000.00000" pt_clust_6="13000.00000" pt_clust_7="13000.00000" pt_clust_8="13000.00000" pt_clust_9="55.51693"></scales>
<clustering>
<clus scale="   55.517">  1  9  2 -1</clus>
<clus scale="   91.611">  7  8 -1 -1</clus>
<clus scale="   92.029">  5  6 -1 -1</clus>
<clus scale="  111.239">  2  7  1 -1</clus>
<clus scale="   55.517">  1  5  2 -1</clus>
</clustering>
</event>
<event>
 9    1  0.1671478E-005  0.1048134E+03  0.7546771E-02  0.1273414E+00
         21   -1    0    0  501  502  0.00000000000E+00  0.00000000000E+00  0.84720684100E+02  0.84720684100E+02  0.00000000000E+00 0. -1.
         -1   -1    0    0    0  501 -0.00000000000E+00 -0.00000000000E+00 -0.22403925440E+03  0.22403925440E+03  0.00000000000E+00 0.  1.
         23    2    1    2    0    0  0.40117441802E+02 -0.80617201055E+01 -0.12422774798E+03  0.15952162898E+03  0.91324784565E+02 0.  0.
         23    2    1    2    0    0 -0.34941109077E+02 -0.14050731155E+02 -0.43181197839E+02  0.11311596022E+03  0.97531023069E+02 0.  0.
        -11    1    3    3    0    0 -0.13502613423E+02 -0.27771470916E+02 -0.11148111337E+02  0.32830710508E+02  0.00000000000E+00 0. -1.
         11    1    3    3    0    0  0.53620055225E+02  0.19709750810E+02 -0.11307963665E+03  0.12669091847E+03  0.00000000000E+00 0.  1.
        -13    1    4    4    0    0 -0.16709655358E+02 -0.34436338190E+02  0.20779907779E+02  0.43553169086E+02  0.00000000000E+00 0. -1.
         13    1    4    4    0    0 -0.18231453719E+02  0.20385607035E+02 -0.63961105618E+02  0.69562791137E+02  0.00000000000E+00 0.  1.
         -1    1    1    2    0  502 -0.51763327252E+01  0.22112451260E+02  0.28090375527E+02  0.36122349293E+02  0.00000000000E+00 0.  1.
<scales pt_clust_5="13000.00000" pt_clust_6="13000.00000" pt_clust_7="13000.00000" pt_clust_8="13000.00000" pt_clust_9="22.71024"></scales>
<clustering>
<clus scale="   22.710">  1  9  2 -1</clus>
<clus scale="   91.325">  5  6 -1 -1</clus>
<clus scale="   97.531">  7  8 -1 -1</clus>
<clus scale="   99.064">  2  5  1 -1</clus>
<clus scale="   22.710">  1  5  2 -1</clus>
</clustering>
</event>
<event>
 9    1  0.1671478E-005  0.1223887E+03  0.7546771E-02  0.1239544E+00
          1   -1    0    0  502    0 -0.00000000000E+00  0.00000000000E+00  0.33451198141E+03  0.33451198141E+03  0.00000000000E+00 0. -1.
         21   -1    0    0  501  502  0.00000000000E+00 -0.00000000000E+00 -0.62862293840E+02  0.62862293840E+02  0.00000000000E+00 0.  1.
         23    2    1    2    0    0  0.42034708455E+02  0.69029585623E+02  0.20107564640E+03  0.23524123511E+03  0.91515150201E+02 0.  0.
         23    2    1    2    0    0 -0.25044721933E+02 -0.80288724204E+02  0.50113534202E+02  0.13325293991E+03  0.90396141256E+02 0.  0.
        -11    1    4    4    0    0 -0.48498258985E+02 -0.86530065643E+02  0.39723934380E+02  0.10685281628E+03  0.00000000000E+00 0.  1.
         11    1    4    4    0    0  0.23453537051E+02  0.62413414397E+01  0.10389599823E+02  0.26400123630E+02  0.00000000000E+00 0. -1.
        -11    1    3    3    0    0 -0.25872592504E+02  0.27911649505E+02  0.37549233966E+02  0.53463970975E+02  0.00000000000E+00 0.  1.
         11    1    3    3    0    0  0.67907300959E+02  0.41117936118E+02  0.16352641243E+03  0.18177726414E+03  0.00000000000E+00 0. -1.
          1    1    1    2  501    0 -0.16989986522E+02  0.11259138581E+02  0.20460506967E+02  0.28880100224E+02  0.00000000000E+00 0. -1.
<scales pt_clust_5="13000.00000" pt_clust_6="13000.00000" pt_clust_7="13000.00000" pt_clust_8="13000.00000" pt_clust_9="20.38206"></scales>
<clustering>
<clus scale="   20.382">  2  9  1 -1</clus>
<clus scale="   90.396">  5  6 -1 -1</clus>
<clus scale="   91.515">  7  8 -1 -1</clus>
<clus scale="  121.554">  2  5  1 -1</clus>
<clus scale="   20.382">  2  5  1 -1</clus>
</clustering>
</event>
<event>
 9    1  0.1671478E-005  0.2920827E+03  0.7546771E-02  0.1089336E+00
         -2   -1    0    0    0  501 -0.00000000000E+00  0.00000000000E+00  0.28502375695E+03  0.28502375695E+03  0.00000000000E+00 0.  1.
         21   -1    0    0  501  502  0.00000000000E+00 -0.00000000000E+00 -0.54970972720E+03  0.54970972720E+03  0.00000000000E+00 0. -1.
         23    2    1    2    0    0 -0.27278185791E+03 -0.18216208660E+02  0.98842134801E+02  0.30540946101E+03  0.93613027936E+02 0.  0.
         23    2    1    2    0    0  0.28091883531E+03  0.67924776557E+02 -0.21304559542E+03  0.37063521500E+03  0.91939488654E+02 0.  0.
        -11    1    3    3    0    0 -0.18761068449E+03 -0.26544946177E+01  0.20678782249E+02  0.18876553529E+03  0.00000000000E+00 0. -1.
         11    1    3    3    0    0 -0.85171173414E+02 -0.15561714042E+02  0.78163352552E+02  0.11664392572E+03  0.00000000000E+00 0.  1.
        -13    1    4    4    0    0  0.26051483498E+03  0.33781406366E+02 -0.17540938864E+03  0.31587595079E+03  0.00000000000E+00 0.  1.
         13    1    4    4    0    0  0.20404000326E+02  0.34143370191E+02 -0.37636206771E+02  0.54759264216E+02  0.00000000000E+00 0. -1.
         -2    1    1    2    0  502 -0.81369774005E+01 -0.49708567897E+02 -0.15048250963E+03  0.15868880814E+03  0.00000000000E+00 0.  1.
<scales pt_clust_5="13000.00000" pt_clust_6="13000.00000" pt_clust_7="13000.00000" pt_clust_8="13000.00000" pt_clust_9="50.37015"></scales>
<clustering>
<clus scale="   50.370">  2  9  1 -1</clus>
<clus scale="   91.939">  7  8 -1 -1</clus>
<clus scale="   93.613">  5  6 -1 -1</clus>
<clus scale="  291.551">  2  7  1 -1</clus>
<clus scale="   50.370">  2  5  1 -1</clus>
</clustering>
</event>
<event>
 9    1  0.1671478E-005  0.1550525E+03  0.7546771E-02  0.1215546E+00
         21   -1    0    0  501  502  0.00000000000E+00  0.00000000000E+00  0.11136548031E+03  0.11136548031E+03  0.00000000000E+00 0. -1.
          1   -1    0    0  502    0 -0.00000000000E+00 -0.00000000000E+00 -0.56401678613E+03  0.56401678613E+03  0.00000000000E+00 0. -1.
         23    2    1    2    0    0 -0.11042055702E+02 -0.38890057985E+02 -0.43251619498E+01  0.98420318528E+02  0.89629729828E+02 0.  0.
         23    2    1    2    0    0 -0.52316132315E+02  0.14949278999E+03 -0.40510403888E+03  0.44236858004E+03  0.80595324510E+02 0.  0.
        -13    1    3    3    0    0 -0.19759394036E+02  0.25585109425E+02 -0.78385673997E+01  0.33263713199E+02  0.00000000000E+00 0. -1.
         13    1    3    3    0    0  0.87173383339E+01 -0.64475167409E+02  0.35134054500E+01  0.65156605328E+02  0.00000000000E+00 0.  1.
        -13    1    4    4    0    0 -0.15341267887E+02  0.59951858129E+02 -0.69480285530E+02  0.93043483764E+02  0.00000000000E+00 0.  1.
         13    1    4    4    0    0 -0.36974864428E+02  0.89540931860E+02 -0.33562375334E+03  0.34932509627E+03  0.00000000000E+00 0. -1.
          1    1    1    2  501    0  0.63358188017E+02 -0.11060273200E+03 -0.43222104992E+02  0.13459336787E+03  0.00000000000E+00 0. -1.
<scales pt_clust_5="13000.00000" pt_clust_6="13000.00000" pt_clust_7="13000.00000" pt_clust_8="13000.00000" pt_clust_9="132.46011"></scales>
<clustering>
<clus scale="   80.595">  7  8 -1 -1</clus>
<clus scale="   89.630">  5  6 -1 -1</clus>
<clus scale="   98.325">  2  5  1 -1</clus>
<clus scale="  132.460">  1  9  2 -1</clus>
<clus scale="  132.460">  1  5  2 -1</clus>
</clustering>
</event>
<event>
 9    1  0.1671478E-005  0.1000946E+03  0.7546771E-02  0.1282060E+00
          3   -1    0    0  502    0 -0.00000000000E+00  0.00000000000E+00  0.16528098350E+03  0.16528098350E+03  0.00000000000E+00 0. -1.
         21   -1    0    0  501  502  0.00000000000E+00 -0.00000000000E+00 -0.23733117546E+03  0.23733117546E+03  0.00000000000E+00 0.  1.
         23    2    1    2    0    0 -0.19887187186E+02 -0.14326078240E+02  0.84449393993E+02  0.12672966518E+03  0.91257718348E+02 0.  0.
         23    2    1    2    0    0  0.45018377425E+02  0.15020141733E+02  0.10666815123E+02  0.10683615666E+03  0.95120578534E+02 0.  0.
        -11    1    3    3    0    0 -0.12421295391E+02  0.23357177500E+02 -0.71474859871E+01  0.27403154488E+02  0.00000000000E+00 0.  1.
         11    1    3    3    0    0 -0.74658917954E+01 -0.37683255741E+02  0.91596879980E+02  0.99326510688E+02  0.00000000000E+00 0. -1.
        -13    1    4    4    0    0  0.42606618898E+02  0.52962460417E+02  0.10745168950E+02  0.68817184214E+02  0.00000000000E+00 0.  1.
         13    1    4    4    0    0  0.24117585263E+01 -0.37942318684E+02 -0.78353827102E-01  0.38018972443E+02  0.00000000000E+00 0. -1.
          3    1    1    2  501    0 -0.25131190239E+02 -0.69406349269E+00 -0.16716640108E+03  0.16904633713E+03  0.00000000000E+00 0. -1.
<scales pt_clust_5="13000.00000" pt_clust_6="13000.00000" pt_clust_7="13000.00000" pt_clust_8="13000.00000" pt_clust_9="25.14077"></scales>
<clustering>
<clus scale="   25.141">  2  9  1 -1</clus>
<clus scale="   91.258">  5  6 -1 -1</clus>
<clus scale="   95.121">  7  8 -1 -1</clus>
<clus scale="   96.431">  1  5  2 -1</clus>
<clus scale="   25.141">  2  5  1 -1</clus>
</clustering>
</event>
<event>
 9    1  0.1671478E-005  0.2277862E+03  0.7546771E-02  0.1128383E+00
         21   -1    0    0  501  502  0.00000000000E+00  0.00000000000E+00  0.24134112006E+03  0.24134112006E+03  0.00000000000E+00 0. -1.
          1   -1    0    0  502    0 -0.00000000000E+00 -0.00000000000E+00 -0.92091449860E+03  0.92091449860E+03  0.00000000000E+00 0. -1.
         23    2    1    2    0    0  0.11888045887E+02 -0.20948255621E+03 -0.82343329782E+03  0.85455728225E+03  0.90562054410E+02 0.  0.
         23    2    1    2    0    0 -0.27783146691E+01  0.19118452962E+03  0.59339876714E+02  0.22074178072E+03  0.92986393576E+02 0.  0.
        -13    1    3    3    0    0 -0.23477484321E+02 -0.17172419981E+03 -0.69027858022E+03  0.71170563535E+03  0.00000000000E+00 0. -1.
         13    1    3    3    0    0  0.35365530208E+02 -0.37758356401E+02 -0.13315471760E+03  0.14285164691E+03  0.00000000000E+00 0.  1.
        -13    1    4    4    0    0  0.34124408415E+02  0.15709059062E+03  0.33354449236E+02  0.16417809901E+03  0.00000000000E+00 0.  1.
         13    1    4    4    0    0 -0.36902723084E+02  0.34093938994E+02  0.25985427478E+02  0.56563681707E+02  0.00000000000E+00 0. -1.
          1    1    1    2  501    0 -0.91097312180E+01  0.18298026590E+02  0.84520042568E+02  0.86956555679E+02  0.00000000000E+00 0. -1.
<scales pt_clust_5="13000.00000" pt_clust_6="13000.00000" pt_clust_7="13000.00000" pt_clust_8="13000.00000" pt_clust_9="20.44028"></scales>
<clustering>
<clus scale="   20.440">  1  9  2 -1</clus>
<clus scale="   90.562">  5  6 -1 -1</clus>
<clus scale="   92.986">  7  8 -1 -1</clus>
<clus scale="  226.807">  2  5  1 -1</clus>
<clus scale="   20.440">  1  5  2 -1</clus>
</clustering>
</event>
<event>
 9    1  0.1671478E-005  0.9848408E+02  0.7546771E-02  0.1284373E+00
          2   -1    0    0  502    0 -0.00000000000E+00  0.00000000000E+00  0.58704330554E+02  0.58704330554E+02  0.00000000000E+00 0. -1.
         21   -1    0    0  501  502  0.00000000000E+00 -0.00000000000E+00 -0.39116251894E+03  0.39116251894E+03  0.00000000000E+00 0.  1.
         23    2    1    2    0    0  0.54635609129E+02 -0.25540976515E+02 -0.36366165438E+02  0.11294413651E+03  0.88297727699E+02 0.  0.
         23    2    1    2    0    0 -0.85453785942E+01 -0.64472061788E+01 -0.10995814226E+03  0.14251753116E+03  0.90032570076E+02 0.  0.
        -11    1    4    4    0    0  0.29097665495E+02 -0.13197913205E+02 -0.97018430039E+02  0.10214418641E+03  0.00000000000E+00 0.  1.
         11    1    4    4    0    0 -0.37643044090E+02  0.67507070263E+01 -0.12939712225E+02  0.40373344748E+02  0.00000000000E+00 0. -1.
        -13    1    3    3    0    0  0.76937074787E+02 -0.86249595895E+01 -0.18057726224E+02  0.79497074670E+02  0.00000000000E+00 0.  1.
         13    1    3    3    0    0 -0.22301465659E+02 -0.16916016926E+02 -0.18308439213E+02  0.33447061838E+02  0.00000000000E+00 0. -1.
          2    1    1    2  501    0 -0.46090230534E+02  0.31988182694E+02 -0.18613388068E+03  0.19440518183E+03  0.00000000000E+00 0. -1.
<scales pt_clust_5="13000.00000" pt_clust_6="13000.00000" pt_clust_7="13000.00000" pt_clust_8="13000.00000" pt_clust_9="56.10306"></scales>
<clustering>
<clus scale="   56.103">  2  9  1 -1</clus>
<clus scale="   88.298">  7  8 -1 -1</clus>
<clus scale="   90.033">  5  6 -1 -1</clus>
<clus scale="   96.901">  1  7  2 -1</clus>
<clus scale="   56.103">  2  5  1 -1</clus>
</clustering>
</event>
<event>
 9    1  0.1671478E-005  0.4432713E+03  0.7546771E-02  0.1029993E+00
         21   -1    0    0  501  502  0.00000000000E+00  0.00000000000E+00  0.29928722759E+03  0.29928722759E+03  0.00000000000E+00 0. -1.
          2   -1    0    0  502    0 -0.00000000000E+00 -0.00000000000E+00 -0.19645591550E+04  0.19645591550E+04  0.00000000000E+00 0. -1.
         23    2    1    2    0    0 -0.49611671809E+03 -0.44632045544E+02 -0.13010896762E+04  0.13971840626E+04  0.10566523470E+03 0.  0.
         23    2    1    2    0    0  0.24606747232E+03  0.29327218677E+03 -0.32774863994E+03  0.51215709690E+03  0.91257572024E+02 0.  0.
        -13    1    3    3    0    0 -0.46078560814E+03 -0.16265710956E+02 -0.12211744841E+04  0.13053179960E+04  0.00000000000E+00 0. -1.
         13    1    3    3    0    0 -0.35331109952E+02 -0.28366334588E+02 -0.79915192120E+02  0.91866066640E+02  0.00000000000E+00 0.  1.
        -13    1    4    4    0    0  0.12483344219E+03  0.11726468490E+03 -0.93768566825E+02  0.19526120644E+03  0.00000000000E+00 0. -1.
         13    1    4    4    0    0  0.12123403013E+03  0.17600750186E+03 -0.23398007312E+03  0.31689589046E+03  0.00000000000E+00 0.  1.
          2    1    1    2  501    0  0.25004924577E+03 -0.24864014122E+03 -0.36433611230E+02  0.35450522305E+03  0.00000000000E+00 0. -1.
<scales pt_clust_5="13000.00000" pt_clust_6="13000.00000" pt_clust_7="13000.00000" pt_clust_8="13000.00000" pt_clust_9="352.62805"></scales>
<clustering>
<clus scale="   91.258">  7  8 -1 -1</clus>
<clus scale="  105.665">  5  6 -1 -1</clus>
<clus scale="  352.628">  1  9  2 -1</clus>
<clus scale="  440.059">  1  7  2 -1</clus>
<clus scale="  352.628">  1  5  2 -1</clus>
</clustering>
</event>
<event>
 9    1  0.1671478E-005  0.2268411E+03  0.7546771E-02  0.1129059E+00
          2   -1    0    0  502    0 -0.00000000000E+00  0.00000000000E+00  0.30146250152E+03  0.30146250152E+03  0.00000000000E+00 0. -1.
         21   -1    0    0  501  502  0.00000000000E+00 -0.00000000000E+00 -0.33468420308E+03  0.33468420308E+03  0.00000000000E+00 0.  1.
         23    2    1    2    0    0 -0.24033341995E+03  0.40218557201E+02  0.12723618838E+03  0.29069394808E+03  0.94531681074E+02 0.  0.
         23    2    1    2    0    0  0.15777179373E+03 -0.13131909596E+02 -0.25518960392E+02  0.18495782417E+03  0.92161778601E+02 0.  0.
        -11    1    3    3    0    0 -0.21073554553E+03  0.20533285360E+02  0.69417691239E+02  0.22282257923E+03  0.00000000000E+00 0.  1.
         11    1    3    3    0    0 -0.29597874422E+02  0.19685271841E+02  0.57818497142E+02  0.67871368849E+02  0.00000000000E+00 0. -1.
        -13    1    4    4    0    0  0.51301811184E+02 -0.24062984985E+02  0.30289038262E+02  0.64252073243E+02  0.00000000000E+00 0.  1.
         13    1    4    4    0    0  0.10646998255E+03  0.10931075389E+02 -0.55807998654E+02  0.12070575093E+03  0.00000000000E+00 0. -1.
          2    1    1    2  501    0  0.82561626217E+02 -0.27086647605E+02 -0.13493892955E+03  0.16049493235E+03  0.00000000000E+00 0. -1.
<scales pt_clust_5="13000.00000" pt_clust_6="13000.00000" pt_clust_7="13000.00000" pt_clust_8="13000.00000" pt_clust_9="86.89136"></scales>
<clustering>
<clus scale="   86.891">  2  9  1 -1</clus>
<clus scale="   92.162">  7  8 -1 -1</clus>
<clus scale="   94.532">  5  6 -1 -1</clus>
<clus scale="  225.864">  2  7  1 -1</clus>
<clus scale="   86.891">  2  5  1 -1</clus>
</clustering>
</event>
<event>
 9    1  0.1671478E-005  0.9173834E+02  0.7546771E-02  0.1298828E+00
         -3   -1    0    0    0  501 -0.00000000000E+00  0.00000000000E+00  0.93413542822E+02  0.93413542822E+02  0.00000000000E+00 0.  1.
         21   -1    0    0  501  502  0.00000000000E+00 -0.00000000000E+00 -0.16711554789E+03  0.16711554789E+03  0.00000000000E+00 0.  1.
         23    2    1    2    0    0  0.14692578090E+02  0.48604764448E+01  0.20774696163E+02  0.95009437283E+02  0.91409567825E+02 0.  0.
         23    2    1    2    0    0  0.78597487066E+01 -0.40533470084E+01 -0.28736528976E+02  0.96014048261E+02  0.91184999282E+02 0.  0.
        -11    1    3    3    0    0 -0.32436257707E+02  0.23472937882E+02 -0.52923221657E+00  0.40042099265E+02  0.00000000000E+00 0. -1.
         11    1    3    3    0    0  0.47128835797E+02 -0.18612461437E+02  0.21303928379E+02  0.54967338018E+02  0.00000000000E+00 0.  1.
        -11    1    4    4    0    0  0.38742718378E+02  0.43549935276E+01  0.15037741731E+02  0.41786335952E+02  0.00000000000E+00 0.  1.
         11    1    4    4    0    0 -0.30882969671E+02 -0.84083405361E+01 -0.43774270707E+02  0.54227712309E+02  0.00000000000E+00 0. -1.
         -3    1    1    2    0  502 -0.22552326797E+02 -0.80712943632E+00 -0.65740172256E+02  0.69505605171E+02  0.00000000000E+00 0.  1.
<scales pt_clust_5="13000.00000" pt_clust_6="13000.00000" pt_clust_7="13000.00000" pt_clust_8="13000.00000" pt_clust_9="22.56677"></scales>
<clustering>
<clus scale="   22.567">  2  9  1 -1</clus>
<clus scale="   91.185">  7  8 -1 -1</clus>
<clus scale="   91.410">  5  6 -1 -1</clus>
<clus scale="   91.515">  2  7  1 -1</clus>
<clus scale="   22.567">  2  5  1 -1</clus>
</clustering>
</event>
<event>
 9    1  0.1671478E-005  0.1000672E+03  0.7546771E-02  0.1283205E+00
          1   -1    0    0  502    0 -0.00000000000E+00  0.00000000000E+00  0.69558887916E+02  0.69558887916E+02  0.00000000000E+00 0. -1.
         21   -1    0    0  501  502  0.00000000000E+00 -0.00000000000E+00 -0.18506997770E+03  0.18506997770E+03  0.00000000000E+00 0.  1.
         23    2    1    2    0    0 -0.36943569062E+02  0.14537275762E+02 -0.26287964010E+02  0.10695720311E+03  0.95773830268E+02 0.  0.
         23    2    1    2    0    0  0.10794061866E+02 -0.11424466330E+02 -0.66727261918E+02  0.11303713927E+03  0.89876788818E+02 0.  0.
        -11    1    4    4    0    0  0.32795530803E+02 -0.32643642473E+02 -0.68221780972E+02  0.82434007749E+02  0.00000000000E+00 0.  1.
         11    1    4    4    0    0 -0.22001468937E+02  0.21219176143E+02  0.14945190540E+01  0.30603131519E+02  0.00000000000E+00 0. -1.
        -13    1    3    3    0    0  0.24149342896E+02  0.29306489804E+02  0.20105742537E+01  0.38027667767E+02  0.00000000000E+00 0.  1.
         13    1    3    3    0    0 -0.61092911959E+02 -0.14769214043E+02 -0.28298538264E+02  0.68929535345E+02  0.00000000000E+00 0. -1.
          1    1    1    2  501    0  0.26149507196E+02 -0.31128094318E+01 -0.22495863857E+02  0.34634523236E+02  0.00000000000E+00 0. -1.
<scales pt_clust_5="13000.00000" pt_clust_6="13000.00000" pt_clust_7="13000.00000" pt_clust_8="13000.00000" pt_clust_9="26.33413"></scales>
<clustering>
<clus scale="   26.334">  2  9  1 -1</clus>
<clus scale="   89.877">  5  6 -1 -1</clus>
<clus scale="   94.439">  2  5  1 -1</clus>
<clus scale="   95.774">  7  8 -1 -1</clus>
<clus scale="   26.334">  2  5  1 -1</clus>
</clustering>
</event>
<event>
 9    1  0.1671478E-005  0.9467987E+02  0.7546771E-02  0.1296885E+00
         -2   -1    0    0    0  501 -0.00000000000E+00  0.00000000000E+00  0.23285913168E+03  0.23285913168E+03  0.00000000000E+00 0.  1.
         21   -1    0    0  501  502  0.00000000000E+00 -0.00000000000E+00 -0.24916727827E+03  0.24916727827E+03  0.00000000000E+00 0.  1.
         23    2    1    2    0    0  0.11839463060E+02  0.30791917874E+02  0.15317879420E+03  0.17712334203E+03  0.82587046257E+02 0.  0.
         23    2    1    2    0    0 -0.18984746679E+02  0.64154963067E+01  0.32819137605E+02  0.99079852251E+02  0.91313427981E+02 0.  0.
        -11    1    4    4    0    0  0.17140728999E+02  0.11736185566E+02 -0.23872907877E+02  0.31645827099E+02  0.00000000000E+00 0.  1.
         11    1    4    4    0    0 -0.36125475679E+02 -0.53206892592E+01  0.56692045483E+02  0.67434025152E+02  0.00000000000E+00 0. -1.
        -11    1    3    3    0    0 -0.27024667856E+02  0.59507323010E+01  0.15056525597E+02  0.31503060973E+02  0.00000000000E+00 0. -1.
         11    1    3    3    0    0  0.38864130917E+02  0.24841185573E+02  0.13812226860E+03  0.14562028106E+03  0.00000000000E+00 0.  1.
         -2    1    1    2    0  502  0.71452836191E+01 -0.37207414181E+02 -0.20230607840E+03  0.20582321566E+03  0.00000000000E+00 0.  1.
<scales pt_clust_5="13000.00000" pt_clust_6="13000.00000" pt_clust_7="13000.00000" pt_clust_8="13000.00000" pt_clust_9="37.88729"></scales>
<clustering>
<clus scale="   37.887">  2  9  1 -1</clus>
<clus scale="   82.587">  7  8 -1 -1</clus>
<clus scale="   86.295">  1  7  2 -1</clus>
<clus scale="   91.313">  5  6 -1 -1</clus>
<clus scale="   37.887">  2  5  1 -1</clus>
</clustering>
</event>
<event>
 9    1  0.1671478E-005  0.9365619E+02  0.7546771E-02  0.1294831E+00
          1   -1    0    0  502    0 -0.00000000000E+00  0.00000000000E+00  0.67152181089E+03  0.67152181089E+03  0.00000000000E+00 0. -1.
         21   -1    0    0  501  502  0.00000000000E+00 -0.00000000000E+00 -0.36982159734E+02  0.36982159734E+02  0.00000000000E+00 0. -1.
         23    2    1    2    0    0 -0.20271315773E+02 -0.23693993062E+02  0.37325503642E+03  0.38544405331E+03  0.90969579938E+02 0.  0.
         23    2    1    2    0    0  0.12694612587E+02 -0.32751750261E+02  0.24463971373E+03  0.26372543240E+03  0.92025452046E+02 0.  0.
        -13    1    4    4    0    0  0.34348149574E+02 -0.49832926187E+02  0.21448337094E+03  0.22285922086E+03  0.00000000000E+00 0. -1.
         13    1    4    4    0    0 -0.21653536987E+02  0.17081175926E+02  0.30156342796E+02  0.40866211543E+02  0.00000000000E+00 0.  1.
        -13    1    3    3    0    0 -0.66815984893E+01  0.35026309841E+02  0.12595277907E+03  0.13090297436E+03  0.00000000000E+00 0.  1.
         13    1    3    3    0    0 -0.13589717284E+02 -0.58720302903E+02  0.24730225735E+03  0.25454107896E+03  0.00000000000E+00 0. -1.
          1    1    1    2  501    0  0.75767031858E+01  0.56445743323E+02  0.16644901007E+02  0.59334484914E+02  0.00000000000E+00 0. -1.
<scales pt_clust_5="13000.00000" pt_clust_6="13000.00000" pt_clust_7="13000.00000" pt_clust_8="13000.00000" pt_clust_9="56.95198"></scales>
<clustering>
<clus scale="   56.952">  2  9  1 -1</clus>
<clus scale="   90.970">  7  8 -1 -1</clus>
<clus scale="   92.025">  5  6 -1 -1</clus>
<clus scale="   92.619">  1  7  2 -1</clus>
<clus scale="   56.952">  2  5  1 -1</clus>
</clustering>
</event>
<event>
 9    1  0.1671478E-005  0.2181325E+03  0.7546771E-02  0.1135996E+00
          2   -1    0    0  502    0 -0.00000000000E+00  0.00000000000E+00  0.82243449867E+03  0.82243449867E+03  0.00000000000E+00 0. -1.
         21   -1    0    0  501  502  0.00000000000E+00 -0.00000000000E+00 -0.14486718406E+03  0.14486718406E+03  0.00000000000E+00 0.  1.
         23    2    1    2    0    0 -0.11078329969E+03 -0.15129364193E+03  0.59173078188E+03  0.62785062471E+03  0.94278222007E+02 0.  0.
         23    2    1    2    0    0  0.13584223652E+03  0.16171193902E+03  0.14390335477E+03  0.27535544935E+03  0.10251138242E+03 0.  0.
        -11    1    4    4    0    0  0.85462480101E+02  0.12604027491E+03  0.45041673165E+02  0.15880408913E+03  0.00000000000E+00 0.  1.
         11    1    4    4    0    0  0.50379756420E+02  0.35671664112E+02  0.98861681607E+02  0.11655136021E+03  0.00000000000E+00 0. -1.
        -11    1    3    3    0    0 -0.12104868911E+03 -0.99280976091E+02  0.42670968818E+03  0.45452244756E+03  0.00000000000E+00 0. -1.
         11    1    3    3    0    0  0.10265389423E+02 -0.52012665844E+02  0.16502109370E+03  0.17332817715E+03  0.00000000000E+00 0.  1.
          2    1    1    2  501    0 -0.25058936830E+02 -0.10418297087E+02 -0.58066822042E+02  0.64095608675E+02  0.00000000000E+00 0. -1.
<scales pt_clust_5="13000.00000" pt_clust_6="13000.00000" pt_clust_7="13000.00000" pt_clust_8="13000.00000" pt_clust_9="27.13837"></scales>
<clustering>
<clus scale="   27.138">  2  9  1 -1</clus>
<clus scale="   94.278">  7  8 -1 -1</clus>
<clus scale="  102.511">  5  6 -1 -1</clus>
<clus scale="  214.387">  1  7  2 -1</clus>
<clus scale="   27.138">  2  5  1 -1</clus>
</clustering>
</event>
<event>
 9    1  0.1671478E-005  0.2369608E+03  0.7546771E-02  0.1121960E+00
         21   -1    0    0  501  502  0.00000000000E+00  0.00000000000E+00  0.20209593435E+03  0.20209593435E+03  0.00000000000E+00 0. -1.
          2   -1    0    0  502    0 -0.00000000000E+00 -0.00000000000E+00 -0.65593468826E+03  0.65593468826E+03  0.00000000000E+00 0. -1.
         23    2    1    2    0    0 -0.20248526532E+02  0.19276832137E+03 -0.23874135008E+03  0.32049005496E+03  0.90259706055E+02 0.  0.
         23    2    1    2    0    0  0.69294854887E+02 -0.23913263808E+03 -0.31813998724E+03  0.41436197297E+03  0.92176990897E+02 0.  0.
        -13    1    3    3    0    0  0.17269022392E+02  0.39699243569E+02 -0.10577491039E+03  0.11429164774E+03  0.00000000000E+00 0. -1.
         13    1    3    3    0    0 -0.37517548923E+02  0.15306907780E+03 -0.13296643969E+03  0.20619840722E+03  0.00000000000E+00 0.  1.
        -13    1    4    4    0    0  0.34438472638E+02 -0.14787355975E+03 -0.25883556492E+03  0.30008073537E+03  0.00000000000E+00 0. -1.
         13    1    4    4    0    0  0.34856382249E+02 -0.91259078325E+02 -0.59304422323E+02  0.11428123760E+03  0.00000000000E+00 0.  1.
          2    1    1    2  501    0 -0.49046328355E+02  0.46364316712E+02  0.10304258342E+03  0.12317859468E+03  0.00000000000E+00 0. -1.
<scales pt_clust_5="13000.00000" pt_clust_6="13000.00000" pt_clust_7="13000.00000" pt_clust_8="13000.00000" pt_clust_9="67.49216"></scales>
<clustering>
<clus scale="   67.492">  1  9  2 -1</clus>
<clus scale="   90.260">  5  6 -1 -1</clus>
<clus scale="   92.177">  7  8 -1 -1</clus>
<clus scale="  236.222">  2  5  1 -1</clus>
<clus scale="   67.492">  1  5  2 -1</clus>
</clustering>
</event>
<event>
 9    1  0.1671478E-005  0.1000395E+03  0.7546771E-02  0.1282666E+00
         -1   -1    0    0    0  501 -0.00000000000E+00  0.00000000000E+00  0.12817814953E+03  0.12817814953E+03  0.00000000000E+00 0.  1.
         21   -1    0    0  501  502  0.00000000000E+00 -0.00000000000E+00 -0.12565877841E+03  0.12565877841E+03  0.00000000000E+00 0.  1.
         23    2    1    2    0    0 -0.42093508052E+02  0.10414925553E+02  0.28300810342E+02  0.10603432703E+03  0.92531122051E+02 0.  0.
         23    2    1    2    0    0 -0.20211481584E+01  0.23015211573E+01 -0.49764181874E+01  0.97397642720E+02  0.97222188979E+02 0.  0.
        -11    1    4    4    0    0 -0.39662753287E+02  0.24785641332E+02  0.15137102270E+02  0.49158863694E+02  0.00000000000E+00 0.  1.
         11    1    4    4    0    0  0.37641605129E+02 -0.22484120174E+02 -0.20113520457E+02  0.48238779026E+02  0.00000000000E+00 0. -1.
        -13    1    3    3    0    0 -0.12152684968E+02  0.45106188241E+02  0.36749158223E+02  0.59436996893E+02  0.00000000000E+00 0.  1.
         13    1    3    3    0    0 -0.29940823084E+02 -0.34691262688E+02 -0.84483478819E+01  0.46597330135E+02  0.00000000000E+00 0. -1.
         -1    1    1    2    0  502  0.44114656210E+02 -0.12716446711E+02 -0.20805021039E+02  0.50404958188E+02  0.00000000000E+00 0.  1.
<scales pt_clust_5="13000.00000" pt_clust_6="13000.00000" pt_clust_7="13000.00000" pt_clust_8="13000.00000" pt_clust_9="45.91090"></scales>
<clustering>
<clus scale="   45.911">  2  9  1 -1</clus>
<clus scale="   92.531">  7  8 -1 -1</clus>
<clus scale="   95.487">  1  7  2 -1</clus>
<clus scale="   97.222">  5  6 -1 -1</clus>
<clus scale="   45.911">  2  5  1 -1</clus>
</clustering>
</event>
<event>
 9    1  0.1835251E-005  0.1009967E+03  0.7546771E-02  0.1280265E+00
          2   -1    0    0  502    0 -0.00000000000E+00  0.00000000000E+00  0.27201549399E+03  0.27201549399E+03  0.00000000000E+00 0. -1.
         21   -1    0    0  501  502  0.00000000000E+00 -0.00000000000E+00 -0.23810383915E+03  0.23810383915E+03  0.00000000000E+00 0. -1.
         23    2    1    2    0    0  0.45077383518E+02 -0.10028063063E+02  0.15922213271E+03  0.19006250747E+03  0.92949107837E+02 0.  0.
         23    2    1    2    0    0 -0.15493838843E+02  0.37419789728E+02  0.70367352269E+02  0.12026867282E+03  0.88728178679E+02 0.  0.
        -11    1    3    3    0    0  0.28643168302E+02  0.24441005313E+02  0.14418766054E+03  0.14902306964E+03  0.00000000000E+00 0. -1.
         11    1    3    3    0    0  0.16434215216E+02 -0.34469068376E+02  0.15034472170E+02  0.41039437836E+02  0.00000000000E+00 0.  1.
        -11    1    4    4    0    0 -0.29114651942E+02 -0.16838620053E+02  0.46307462773E+01  0.33950639082E+02  0.00000000000E+00 0.  1.
         11    1    4    4    0    0  0.13620813099E+02  0.54258409781E+02  0.65736605991E+02  0.86318033740E+02  0.00000000000E+00 0. -1.
          2    1    1    2  501    0 -0.29583544675E+02 -0.27391726665E+02 -0.19567783014E+03  0.19978815284E+03  0.00000000000E+00 0. -1.
<scales pt_clust_5="13000.00000" pt_clust_6="13000.00000" pt_clust_7="13000.00000" pt_clust_8="13000.00000" pt_clust_9="40.31740"></scales>
<clustering>
<clus scale="   40.317">  2  9  1 -1</clus>
<clus scale="   88.728">  7  8 -1 -1</clus>
<clus scale="   92.949">  5  6 -1 -1</clus>
<clus scale="   97.126">  2  7  1 -1</clus>
<clus scale="   40.317">  2  5  1 -1</clus>
</clustering>
</event>
<event>
 9    1  0.1671478E-005  0.1705836E+03  0.7546771E-02  0.1179221E+00
         -3   -1    0    0    0  501 -0.00000000000E+00  0.00000000000E+00  0.80535021463E+02  0.80535021463E+02  0.00000000000E+00 0.  1.
         21   -1    0    0  501  502  0.00000000000E+00 -0.00000000000E+00 -0.57653048591E+03  0.57653048591E+03  0.00000000000E+00 0.  1.
         23    2    1    2    0    0 -0.14950316713E+03  0.18754020618E+02 -0.10155945928E+03  0.20278786105E+03  0.90031564175E+02 0.  0.
         23    2    1    2    0    0  0.10061964432E+03 -0.61852627579E+02 -0.23941309099E+03  0.28611346273E+03  0.10291853602E+03 0.  0.
        -11    1    4    4    0    0  0.12213187189E+02  0.24471044797E+02 -0.79190092444E+02  0.83779858654E+02  0.00000000000E+00 0. -1.
         11    1    4    4    0    0  0.88406457136E+02 -0.86323672377E+02 -0.16022299855E+03  0.20233360408E+03  0.00000000000E+00 0.  1.
        -11    1    3    3    0    0 -0.90764184250E+02  0.81581368676E+01 -0.75646584613E+01  0.91443514791E+02  0.00000000000E+00 0. -1.
         11    1    3    3    0    0 -0.58738982882E+02  0.10595883751E+02 -0.93994800821E+02  0.11134434626E+03  0.00000000000E+00 0.  1.
         -3    1    1    2    0  502  0.48883522807E+02  0.43098606961E+02 -0.15502291418E+03  0.16816418359E+03  0.00000000000E+00 0.  1.
<scales pt_clust_5="13000.00000" pt_clust_6="13000.00000" pt_clust_7="13000.00000" pt_clust_8="13000.00000" pt_clust_9="65.16969"></scales>
<clustering>
<clus scale="   65.170">  2  9  1 -1</clus>
<clus scale="   90.032">  7  8 -1 -1</clus>
<clus scale="  102.919">  5  6 -1 -1</clus>
<clus scale="  163.133">  1  7  2 -1</clus>
<clus scale="   65.170">  2  5  1 -1</clus>
</clustering>
</event>
<event>
 9    1  0.1671478E-005  0.1353479E+03  0.7546771E-02  0.1222942E+00
         21   -1    0    0  501  502  0.00000000000E+00  0.00000000000E+00  0.12611682062E+03  0.12611682062E+03  0.00000000000E+00 0.  1.
          2   -1    0    0  502    0 -0.00000000000E+00 -0.00000000000E+00 -0.27457243772E+03  0.27457243772E+03  0.00000000000E+00 0. -1.
         23    2    1    2    0    0 -0.39132738494E+02 -0.42505478459E+02 -0.11437825053E+02  0.96458993730E+02  0.76389964710E+02 0.  0.
         23    2    1    2    0    0  0.89623846215E+02  0.12110427711E+03 -0.10902467759E+03  0.20670725417E+03  0.90237624420E+02 0.  0.
        -11    1    3    3    0    0 -0.79318548489E+00  0.19992613186E+02  0.63863191191E+01  0.21002828312E+02  0.00000000000E+00 0.  1.
         11    1    3    3    0    0 -0.38339553009E+02 -0.62498091644E+02 -0.17824144172E+02  0.75456165418E+02  0.00000000000E+00 0. -1.
        -13    1    4    4    0    0  0.71961056236E+02  0.39686002254E+02 -0.19592948867E+02  0.84482282372E+02  0.00000000000E+00 0.  1.
         13    1    4    4    0    0  0.17662789979E+02  0.81418274854E+02 -0.89431728720E+02  0.12222497180E+03  0.00000000000E+00 0. -1.
          2    1    1    2  501    0 -0.50491107722E+02 -0.78598798649E+02 -0.27993114452E+02  0.97523010437E+02  0.00000000000E+00 0. -1.
<scales pt_clust_5="13000.00000" pt_clust_6="13000.00000" pt_clust_7="13000.00000" pt_clust_8="13000.00000" pt_clust_9="93.41907"></scales>
<clustering>
<clus scale="   76.390">  5  6 -1 -1</clus>
<clus scale="   90.238">  7  8 -1 -1</clus>
<clus scale="   93.419">  1  9  2 -1</clus>
<clus scale="  126.537">  2  5  1 -1</clus>
<clus scale="   93.419">  1  5  2 -1</clus>
</clustering>
</event>
<event>
 9    1  0.1671478E-005  0.1116861E+03  0.7546771E-02  0.1258155E+00
         21   -1    0    0  501  502  0.00000000000E+00  0.00000000000E+00  0.61976436250E+02  0.61976436250E+02  0.00000000000E+00 0. -1.
          2   -1    0    0  502    0 -0.00000000000E+00 -0.00000000000E+00 -0.47051911352E+03  0.47051911352E+03  0.00000000000E+00 0. -1.
         23    2    1    2    0    0  0.43679944387E+02 -0.53713601016E+02 -0.34219987611E+03  0.36142865816E+03  0.93471018248E+02 0.  0.
         23    2    1    2    0    0 -0.37375261195E+02  0.22239710849E+02 -0.86342106726E+02  0.13324722721E+03  0.91697051634E+02 0.  0.
        -11    1    3    3    0    0  0.19240493114E+02 -0.52638246148E+02 -0.32878768028E+03  0.33353008896E+03  0.00000000000E+00 0. -1.
         11    1    3    3    0    0  0.24439451273E+02 -0.10753548675E+01 -0.13412195827E+02  0.27898569202E+02  0.00000000000E+00 0.  1.
        -13    1    4    4    0    0 -0.51263242253E+02  0.46607233007E+02 -0.42747180406E+02  0.81409309096E+02  0.00000000000E+00 0.  1.
         13    1    4    4    0    0  0.13887981059E+02 -0.24367522157E+02 -0.43594926320E+02  0.51837918118E+02  0.00000000000E+00 0. -1.
          2    1    1    2  501    0 -0.63046831920E+01  0.31473890166E+02  0.19999305563E+02  0.37819664400E+02  0.00000000000E+00 0. -1.
<scales pt_clust_5="13000.00000" pt_clust_6="13000.00000" pt_clust_7="13000.00000" pt_clust_8="13000.00000" pt_clust_9="32.09914"></scales>
<clustering>
<clus scale="   32.099">  1  9  2 -1</clus>
<clus scale="   91.697">  7  8 -1 -1</clus>
<clus scale="   93.471">  5  6 -1 -1</clus>
<clus scale="  110.206">  1  7  2 -1</clus>
<clus scale="   32.099">  1  5  2 -1</clus>
</clustering>
</event>
<event>
 9    1  0.1671478E-005  0.1246274E+03  0.7546771E-02  0.1235704E+00
         21   -1    0    0  501  502  0.00000000000E+00  0.00000000000E+00  0.19002451698E+03  0.19002451698E+03  0.00000000000E+00 0.  1.
         -1   -1    0    0    0  501 -0.00000000000E+00 -0.00000000000E+00 -0.19271545161E+03  0.19271545161E+03  0.00000000000E+00 0.  1.
         23    2    1    2    0    0  0.84640794019E+02 -0.32377552314E+02 -0.12093687448E+03  0.17636412771E+03  0.90918689096E+02 0.  0.
         23    2    1    2    0    0 -0.50148949302E+02  0.53190259271E+02  0.49846696149E+02  0.12699503299E+03  0.91098432968E+02 0.  0.
        -11    1    3    3    0    0  0.70124842202E+02 -0.62507931129E+02 -0.98358393012E+02  0.13601142755E+03  0.00000000000E+00 0.  1.
         11    1    3    3    0    0  0.14515951817E+02  0.30130378815E+02 -0.22578481468E+02  0.40352700158E+02  0.00000000000E+00 0. -1.
        -11    1    4    4    0    0 -0.64167467093E+02  0.35385563756E+02  0.11531088466E+01  0.73286640089E+02  0.00000000000E+00 0. -1.
         11    1    4    4    0    0  0.14018517791E+02  0.17804695515E+02  0.48693587302E+02  0.53708392899E+02  0.00000000000E+00 0.  1.
         -1    1    1    2    0  502 -0.34491844717E+02 -0.20812706957E+02  0.68399243702E+02  0.79380807893E+02  0.00000000000E+00 0.  1.
<scales pt_clust_5="13000.00000" pt_clust_6="13000.00000" pt_clust_7="13000.00000" pt_clust_8="13000.00000" pt_clust_9="40.28469"></scales>
<clustering>
<clus scale="   40.285">  1  9  2 -1</clus>
<clus scale="   90.919">  5  6 -1 -1</clus>
<clus scale="   91.098">  7  8 -1 -1</clus>
<clus scale="  124.496">  2  5  1 -1</clus>
<clus scale="   40.285">  1  5  2 -1</clus>
</clustering>
</event>
<event>
 9    1  0.1671478E-005  0.1429056E+03  0.7546771E-02  0.1225597E+00
         21   -1    0    0  501  502  0.00000000000E+00  0.00000000000E+00  0.11853604919E+03  0.11853604919E+03  0.00000000000E+00 0.  1.
         -3   -1    0    0    0  501 -0.00000000000E+00 -0.00000000000E+00 -0.40102928582E+03  0.40102928582E+03  0.00000000000E+00 0.  1.
         23    2    1    2    0    0  0.55115950861E+01  0.46893877275E+02 -0.10042676424E+03  0.14293904762E+03  0.90092302408E+02 0.  0.
         23    2    1    2    0    0 -0.90771385281E+02  0.25528285985E+02 -0.22137607147E+03  0.25805375206E+03  0.93237525515E+02 0.  0.
        -11    1    3    3    0    0 -0.26836457507E+02  0.52671324241E+02 -0.32445896187E+02  0.67432929850E+02  0.00000000000E+00 0.  1.
         11    1    3    3    0    0  0.32348052593E+02 -0.57774469656E+01 -0.67980868048E+02  0.75506117769E+02  0.00000000000E+00 0. -1.
        -13    1    4    4    0    0 -0.58262538125E+02  0.61093450634E+02 -0.14049482349E+03  0.16390768282E+03  0.00000000000E+00 0.  1.
         13    1    4    4    0    0 -0.32508847156E+02 -0.35565164649E+02 -0.80881247982E+02  0.94146069249E+02  0.00000000000E+00 0. -1.
         -3    1    1    2    0  502  0.85259790195E+02 -0.72422163260E+02  0.39309599069E+02  0.11857253533E+03  0.00000000000E+00 0.  1.
<scales pt_clust_5="13000.00000" pt_clust_6="13000.00000" pt_clust_7="13000.00000" pt_clust_8="13000.00000" pt_clust_9="108.29945"></scales>
<clustering>
<clus scale="   90.092">  5  6 -1 -1</clus>
<clus scale="   93.238">  7  8 -1 -1</clus>
<clus scale="  101.715">  2  5  1 -1</clus>
<clus scale="  108.299">  1  9  2 -1</clus>
<clus scale="  108.299">  1  5  2 -1</clus>
</clustering>
</event>
<event>
 9    1  0.1671478E-005  0.1781675E+03  0.7546771E-02  0.1170713E+00
         21   -1    0    0  501  502  0.00000000000E+00  0.00000000000E+00  0.35234396011E+03  0.35234396011E+03  0.00000000000E+00 0. -1.
          1   -1    0    0  502    0 -0.00000000000E+00 -0.00000000000E+00 -0.56068492045E+03  0.56068492045E+03  0.00000000000E+00 0. -1.
         23    2    1    2    0    0  0.88203519283E+02  0.12026032546E+03 -0.49588831754E+03  0.52740828829E+03  0.10005934433E+03 0.  0.
         23    2    1    2    0    0 -0.92977979985E+02 -0.96034932388E+02  0.87858069295E+02  0.18441056060E+03  0.91763835578E+02 0.  0.
        -13    1    3    3    0    0  0.75546198771E+02  0.20989729970E+02 -0.24731109769E+03  0.25944281827E+03  0.00000000000E+00 0.  1.
         13    1    3    3    0    0  0.12657320511E+02  0.99270595494E+02 -0.24857721985E+03  0.26796547002E+03  0.00000000000E+00 0. -1.
        -13    1    4    4    0    0 -0.61921863642E+02 -0.74742835636E+02  0.10504285450E+03  0.14302031309E+03  0.00000000000E+00 0.  1.
         13    1    4    4    0    0 -0.31056116342E+02 -0.21292096752E+02 -0.17184785203E+02  0.41390247509E+02  0.00000000000E+00 0. -1.
          1    1    1    2  501    0  0.47744607021E+01 -0.24225393076E+02  0.19968928790E+03  0.20121003168E+03  0.00000000000E+00 0. -1.
<scales pt_clust_5="13000.00000" pt_clust_6="13000.00000" pt_clust_7="13000.00000" pt_clust_8="13000.00000" pt_clust_9="24.69140"></scales>
<clustering>
<clus scale="   24.691">  1  9  2 -1</clus>
<clus scale="   91.764">  7  8 -1 -1</clus>
<clus scale="  100.059">  5  6 -1 -1</clus>
<clus scale="  173.644">  1  7  2 -1</clus>
<clus scale="   24.691">  1  5  2 -1</clus>
</clustering>
</event>
<event>
 9    1  0.1671478E-005  0.1605042E+03  0.7546771E-02  0.1188262E+00
         -3   -1    0    0    0  501 -0.00000000000E+00  0.00000000000E+00  0.35201067439E+03  0.35201067439E+03  0.00000000000E+00 0.  1.
         21   -1    0    0  501  502  0.00000000000E+00 -0.00000000000E+00 -0.15830700064E+03  0.15830700064E+03  0.00000000000E+00 0.  1.
         23    2    1    2    0    0  0.35365746269E+02 -0.12109755994E+03  0.19696024919E+03  0.25115412052E+03  0.91486050650E+02 0.  0.
         23    2    1    2    0    0 -0.19014469312E+02  0.14210411652E+03  0.67633064945E+02  0.18344050128E+03  0.92309566462E+02 0.  0.
        -11    1    3    3    0    0 -0.14572722875E+01 -0.11870863992E+03  0.15577060857E+03  0.19585287163E+03  0.00000000000E+00 0.  1.
         11    1    3    3    0    0  0.36823018556E+02 -0.23889200229E+01  0.41189640616E+02  0.55301248888E+02  0.00000000000E+00 0. -1.
        -13    1    4    4    0    0  0.22421560080E+02  0.16834953587E+01  0.79472461628E+00  0.22498713302E+02  0.00000000000E+00 0. -1.
         13    1    4    4    0    0 -0.41436029392E+02  0.14042062116E+03  0.66838340328E+02  0.16094178798E+03  0.00000000000E+00 0.  1.
         -3    1    1    2    0  502 -0.16351276957E+02 -0.21006556585E+02 -0.70889640375E+02  0.75723053228E+02  0.00000000000E+00 0.  1.
<scales pt_clust_5="13000.00000" pt_clust_6="13000.00000" pt_clust_7="13000.00000" pt_clust_8="13000.00000" pt_clust_9="26.62029"></scales>
<clustering>
<clus scale="   26.620">  2  9  1 -1</clus>
<clus scale="   91.486">  5  6 -1 -1</clus>
<clus scale="   92.310">  7  8 -1 -1</clus>
<clus scale="  160.032">  1  5  2 -1</clus>
<clus scale="   26.620">  2  5  1 -1</clus>
</clustering>
</event>
<event>
 9    1  0.1671478E-005  0.1292845E+03  0.7546771E-02  0.1228888E+00
         21   -1    0    0  501  502  0.00000000000E+00  0.00000000000E+00  0.99024675785E+02  0.99024675785E+02  0.00000000000E+00 0.  1.
         -2   -1    0    0    0  501 -0.00000000000E+00 -0.00000000000E+00 -0.33314513234E+03  0.33314513234E+03  0.00000000000E+00 0.  1.
         23    2    1    2    0    0  0.82894811666E+02  0.78414542245E+01 -0.18294025996E+03  0.22047940940E+03  0.90614530023E+02 0.  0.
         23    2    1    2    0    0 -0.10711643583E+03  0.29232918652E+01 -0.87941801815E+02  0.16636951553E+03  0.91992275398E+02 0.  0.
        -11    1    3    3    0    0  0.75225945924E+02  0.36504912793E+02 -0.89683047734E+02  0.12261566233E+03  0.00000000000E+00 0.  1.
         11    1    3    3    0    0  0.76688657421E+01 -0.28663458568E+02 -0.93257212224E+02  0.97863747070E+02  0.00000000000E+00 0. -1.
        -11    1    4    4    0    0 -0.33750435848E+02 -0.42216207464E+02 -0.43854733733E+02  0.69602713765E+02  0.00000000000E+00 0. -1.
         11    1    4    4    0    0 -0.73365999980E+02  0.45139499329E+02 -0.44087068082E+02  0.96766801770E+02  0.00000000000E+00 0.  1.
         -2    1    1    2    0  502  0.24221624162E+02 -0.10764746090E+02  0.36761605214E+02  0.45320883192E+02  0.00000000000E+00 0.  1.
<scales pt_clust_5="13000.00000" pt_clust_6="13000.00000" pt_clust_7="13000.00000" pt_clust_8="13000.00000" pt_clust_9="26.50598"></scales>
<clustering>
<clus scale="   26.506">  1  9  2 -1</clus>
<clus scale="   90.615">  5  6 -1 -1</clus>
<clus scale="   91.992">  7  8 -1 -1</clus>
<clus scale="  128.308">  2  5  1 -1</clus>
<clus scale="   26.506">  1  5  2 -1</clus>
</clustering>
</event>
<event>
 9    1  0.1671478E-005  0.1090801E+03  0.7546771E-02  0.1267057E+00
         21   -1    0    0  501  502  0.00000000000E+00  0.00000000000E+00  0.59590120992E+02  0.59590120992E+02  0.00000000000E+00 0.  1.
          1   -1    0    0  502    0 -0.00000000000E+00 -0.00000000000E+00 -0.37417272616E+03  0.37417272616E+03  0.00000000000E+00 0. -1.
         23    2    1    2    0    0 -0.41887836098E+02  0.24470448691E+02 -0.21452947552E+03  0.24258868206E+03  0.10233757437E+03 0.  0.
         23    2    1    2    0    0  0.24488264037E+02 -0.79527378382E+01 -0.12452189192E+03  0.15690610114E+03  0.91928787071E+02 0.  0.
        -11    1    4    4    0    0 -0.15073187815E+02  0.20380393259E+02 -0.24187860993E+01  0.25463934230E+02  0.00000000000E+00 0.  1.
         11    1    4    4    0    0  0.39561451852E+02 -0.28333131097E+02 -0.12210310582E+03  0.13144216691E+03  0.00000000000E+00 0. -1.
        -13    1    3    3    0    0  0.17822178904E+02 -0.18852701276E+02 -0.11951120751E+03  0.12229465699E+03  0.00000000000E+00 0.  1.
         13    1    3    3    0    0 -0.59710015002E+02  0.43323149967E+02 -0.95018268004E+02  0.12029402508E+03  0.00000000000E+00 0. -1.
          1    1    1    2  501    0  0.17399572061E+02 -0.16517710853E+02  0.24468762271E+02  0.34268063949E+02  0.00000000000E+00 0. -1.
<scales pt_clust_5="13000.00000" pt_clust_6="13000.00000" pt_clust_7="13000.00000" pt_clust_8="13000.00000" pt_clust_9="23.99125"></scales>
<clustering>
<clus scale="   23.991">  1  9  2 -1</clus>
<clus scale="   91.929">  5  6 -1 -1</clus>
<clus scale="   99.380">  1  5  2 -1</clus>
<clus scale="  102.338">  7  8 -1 -1</clus>
<clus scale="   23.991">  1  5  2 -1</clus>
</clustering>
</event>
<event>
 9    1  0.1671478E-005  0.1750669E+03  0.7546771E-02  0.1172698E+00
         21   -1    0    0  501  502  0.00000000000E+00  0.00000000000E+00  0.54145483985E+02  0.54145483985E+02  0.00000000000E+00 0.  1.
          1   -1    0    0  502    0 -0.00000000000E+00 -0.00000000000E+00 -0.13323324938E+04  0.13323324938E+04  0.00000000000E+00 0. -1.
         23    2    1    2    0    0  0.96926470716E+02  0.12051531439E+03 -0.92983719567E+03  0.94687024288E+03  0.89707104867E+02 0.  0.
         23    2    1    2    0    0 -0.20954784351E+02 -0.14728755551E+03 -0.16568030229E+03  0.23996655533E+03  0.89449751892E+02 0.  0.
        -13    1    4    4    0    0 -0.50907304600E+02 -0.87769999297E+02 -0.12828328520E+03  0.16355955399E+03  0.00000000000E+00 0.  1.
         13    1    4    4    0    0  0.29952520249E+02 -0.59517556214E+02 -0.37397017090E+02  0.76407001343E+02  0.00000000000E+00 0. -1.
        -13    1    3    3    0    0 -0.10260600372E+02  0.34090345465E+02 -0.11195618384E+03  0.11748029058E+03  0.00000000000E+00 0.  1.
         13    1    3    3    0    0  0.10718707109E+03  0.86424968921E+02 -0.81788101183E+03  0.82938995230E+03  0.00000000000E+00 0. -1.
          1    1    1    2  501    0 -0.75971686365E+02  0.26772241124E+02 -0.18266951186E+03  0.19964117959E+03  0.00000000000E+00 0. -1.
<scales pt_clust_5="13000.00000" pt_clust_6="13000.00000" pt_clust_7="13000.00000" pt_clust_8="13000.00000" pt_clust_9="80.55092"></scales>
<clustering>
<clus scale="   80.551">  1  9  2 -1</clus>
<clus scale="   89.450">  5  6 -1 -1</clus>
<clus scale="   89.707">  7  8 -1 -1</clus>
<clus scale="  174.935">  1  5  2 -1</clus>
<clus scale="   80.551">  1  5  2 -1</clus>
</clustering>
</event>
<event>
 9    1  0.1671478E-005  0.1037206E+03  0.7546771E-02  0.1273868E+00
         21   -1    0    0  501  502  0.00000000000E+00  0.00000000000E+00  0.11163343124E+03  0.11163343124E+03  0.00000000000E+00 0.  1.
          2   -1    0    0  502    0 -0.00000000000E+00 -0.00000000000E+00 -0.42722478024E+03  0.42722478024E+03  0.00000000000E+00 0. -1.
         23    2    1    2    0    0 -0.32341729763E+02  0.17959898183E+02 -0.30092156475E+03  0.31709009552E+03  0.92864391038E+02 0.  0.
         23    2    1    2    0    0  0.76820559322E+02 -0.70402610934E+02 -0.47227709361E+02  0.14568511597E+03  0.90198506211E+02 0.  0.
        -13    1    3    3    0    0 -0.44054824619E+02  0.48511760994E+02 -0.17140875598E+03  0.18350798390E+03  0.00000000000E+00 0. -1.
         13    1    3    3    0    0  0.11713094855E+02 -0.30551862811E+02 -0.12951280876E+03  0.13358211162E+03  0.00000000000E+00 0.  1.
        -13    1    4    4    0    0  0.75691575387E+02 -0.41348808149E+02  0.44774915637E+01  0.86365423930E+02  0.00000000000E+00 0.  1.
         13    1    4    4    0    0  0.11289839350E+01 -0.29053802785E+02 -0.51705200925E+02  0.59319692040E+02  0.00000000000E+00 0. -1.
          2    1    1    2  501    0 -0.44478829558E+02  0.52442712751E+02  0.32557925107E+02  0.76082999986E+02  0.00000000000E+00 0. -1.
<scales pt_clust_5="13000.00000" pt_clust_6="13000.00000" pt_clust_7="13000.00000" pt_clust_8="13000.00000" pt_clust_9="68.76485"></scales>
<clustering>
<clus scale="   68.765">  1  9  2 -1</clus>
<clus scale="   90.199">  7  8 -1 -1</clus>
<clus scale="   92.864">  5  6 -1 -1</clus>
<clus scale="  101.341">  1  7  2 -1</clus>
<clus scale="   68.765">  1  5  2 -1</clus>
</clustering>
</event>
<event>
 9    1  0.1671478E-005  0.1397371E+03  0.7546771E-02  0.1233897E+00
          2   -1    0    0  502    0 -0.00000000000E+00  0.00000000000E+00  0.26069222313E+03  0.26069222313E+03  0.00000000000E+00 0. -1.
         21   -1    0    0  501  502  0.00000000000E+00 -0.00000000000E+00 -0.18944892077E+03  0.18944892077E+03  0.00000000000E+00 0.  1.
         23    2    1    2    0    0  0.97391925325E+01 -0.10684387941E+02 -0.72216832135E+02  0.11668489259E+03  0.90504614795E+02 0.  0.
         23    2    1    2    0    0  0.65176298037E+02  0.86758009426E+02  0.17254388201E+03  0.22279735657E+03  0.89957594724E+02 0.  0.
        -11    1    4    4    0    0 -0.16864596918E+02  0.17022482543E+02  0.70460810032E+02  0.74423822069E+02  0.00000000000E+00 0.  1.
         11    1    4    4    0    0  0.82040894955E+02  0.69735526884E+02  0.10208307198E+03  0.14837353450E+03  0.00000000000E+00 0. -1.
        -13    1    3    3    0    0  0.72532967174E+01  0.18674547781E+02 -0.82943836090E+02  0.85328945812E+02  0.00000000000E+00 0.  1.
         13    1    3    3    0    0  0.24858958150E+01 -0.29358935722E+02  0.10727003955E+02  0.31355946781E+02  0.00000000000E+00 0. -1.
          2    1    1    2  501    0 -0.74915490569E+02 -0.76073621485E+02 -0.29083747521E+02  0.11065889473E+03  0.00000000000E+00 0. -1.
<scales pt_clust_5="13000.00000" pt_clust_6="13000.00000" pt_clust_7="13000.00000" pt_clust_8="13000.00000" pt_clust_9="106.93034"></scales>
<clustering>
<clus scale="   89.958">  5  6 -1 -1</clus>
<clus scale="   90.505">  7  8 -1 -1</clus>
<clus scale="   91.652">  1  7  2 -1</clus>
<clus scale="  106.930">  2  9  1 -1</clus>
<clus scale="  106.930">  2  5  1 -1</clus>
</clustering>
</event>
<event>
 9    1  0.1671478E-005  0.1029215E+03  0.7546771E-02  0.1276154E+00
         21   -1    0    0  501  502  0.00000000000E+00  0.00000000000E+00  0.14336943973E+03  0.14336943973E+03  0.00000000000E+00 0. -1.
          2   -1    0    0  502    0 -0.00000000000E+00 -0.00000000000E+00 -0.30589165360E+03  0.30589165360E+03  0.00000000000E+00 0. -1.
         23    2    1    2    0    0  0.15639054025E+02  0.53592391685E+01 -0.97540429946E+02  0.13506632928E+03  0.91953664283E+02 0.  0.
         23    2    1    2    0    0 -0.41856113278E+02  0.54861782620E+02 -0.15987650104E+03  0.19878716900E+03  0.95885836101E+02 0.  0.
        -11    1    4    4    0    0 -0.28459259092E+02 -0.19840930796E+02 -0.21077302715E+02  0.40593652862E+02  0.00000000000E+00 0.  1.
         11    1    4    4    0    0 -0.13396854186E+02  0.74702713416E+02 -0.13879919832E+03  0.15819351614E+03  0.00000000000E+00 0. -1.
        -11    1    3    3    0    0  0.40466226874E+01  0.28635648220E+02  0.49393601820E+01  0.29338929482E+02  0.00000000000E+00 0. -1.
         11    1    3    3    0    0  0.11592431338E+02 -0.23276409052E+02 -0.10247979013E+03  0.10572739979E+03  0.00000000000E+00 0.  1.
          2    1    1    2  501    0  0.26217059253E+02 -0.60221021789E+02  0.94894717106E+02  0.11540759505E+03  0.00000000000E+00 0. -1.
<scales pt_clust_5="13000.00000" pt_clust_6="13000.00000" pt_clust_7="13000.00000" pt_clust_8="13000.00000" pt_clust_9="65.68033"></scales>
<clustering>
<clus scale="   65.680">  1  9  2 -1</clus>
<clus scale="   91.954">  7  8 -1 -1</clus>
<clus scale="   95.886">  5  6 -1 -1</clus>
<clus scale="   99.268">  2  7  1 -1</clus>
<clus scale="   65.680">  1  5  2 -1</clus>
</clustering>
</event>
<event>
 9    1  0.1928300E-005  0.9199517E+02  0.7546771E-02  0.1299083E+00
         21   -1    0    0  501  502  0.00000000000E+00  0.00000000000E+00  0.61423075973E+02  0.61423075973E+02  0.00000000000E+00 0.  1.
          1   -1    0    0  502    0 -0.00000000000E+00 -0.00000000000E+00 -0.39167656746E+03  0.39167656746E+03  0.00000000000E+00 0. -1.
         23    2    1    2    0    0 -0.54920686280E+01 -0.15384456667E+00 -0.31723919949E+03  0.32987692389E+03  0.90265656452E+02 0.  0.
         23    2    1    2    0    0 -0.14105876049E+02 -0.14136331742E+02 -0.23226391960E+02  0.96905889184E+02  0.91937339862E+02 0.  0.
        -11    1    3    3    0    0 -0.41441042490E+02  0.16554440766E+02 -0.10699686551E+03  0.11592988718E+03  0.00000000000E+00 0. -1.
         11    1    3    3    0    0  0.35948973862E+02 -0.16708285332E+02 -0.21024233398E+03  0.21394703671E+03  0.00000000000E+00 0.  1.
        -13    1    4    4    0    0 -0.19089147269E+02 -0.38797657079E+02  0.19412632862E+02  0.47397300059E+02  0.00000000000E+00 0.  1.
         13    1    4    4    0    0  0.49832712205E+01  0.24661325337E+02 -0.42639024822E+02  0.49508589125E+02  0.00000000000E+00 0. -1.
          1    1    1    2  501    0  0.19597944677E+02  0.14290176309E+02  0.10212099965E+02  0.26316830360E+02  0.00000000000E+00 0. -1.
<scales pt_clust_5="13000.00000" pt_clust_6="13000.00000" pt_clust_7="13000.00000" pt_clust_8="13000.00000" pt_clust_9="24.25466"></scales>
<clustering>
<clus scale="   24.255">  1  9  2 -1</clus>
<clus scale="   90.266">  5  6 -1 -1</clus>
<clus scale="   90.325">  2  5  1 -1</clus>
<clus scale="   91.937">  7  8 -1 -1</clus>
<clus scale="   24.255">  1  5  2 -1</clus>
</clustering>
</event>
<event>
 9    1  0.1671478E-005  0.9241458E+02  0.7546771E-02  0.1297493E+00
         21   -1    0    0  501  502  0.00000000000E+00  0.00000000000E+00  0.87940410052E+02  0.87940410052E+02  0.00000000000E+00 0. -1.
          1   -1    0    0  502    0 -0.00000000000E+00 -0.00000000000E+00 -0.19763964639E+03  0.19763964639E+03  0.00000000000E+00 0. -1.
         23    2    1    2    0    0 -0.75037735293E+01 -0.14059366098E+02 -0.13104312792E+03  0.16026918720E+03  0.90884204351E+02 0.  0.
         23    2    1    2    0    0 -0.13072653742E+02  0.72393730548E+01 -0.28798958681E+01  0.92804046216E+02  0.91547771113E+02 0.  0.
        -11    1    3    3    0    0  0.36943457899E+02 -0.15710089020E+02 -0.94608184043E+02  0.10277321862E+03  0.00000000000E+00 0.  1.
         11    1    3    3    0    0 -0.44447231428E+02  0.16507229223E+01 -0.36434943875E+02  0.57495968580E+02  0.00000000000E+00 0. -1.
        -13    1    4    4    0    0 -0.43350110763E+02 -0.19722935426E+02  0.12830783066E+02  0.49323982798E+02  0.00000000000E+00 0. -1.
         13    1    4    4    0    0  0.30277457021E+02  0.26962308481E+02 -0.15710678934E+02  0.43480063418E+02  0.00000000000E+00 0.  1.
          1    1    1    2  501    0  0.20576427271E+02  0.68199930431E+01  0.24223787450E+02  0.32506823019E+02  0.00000000000E+00 0. -1.
<scales pt_clust_5="13000.00000" pt_clust_6="13000.00000" pt_clust_7="13000.00000" pt_clust_8="13000.00000" pt_clust_9="21.67722"></scales>
<clustering>
<clus scale="   21.677">  1  9  2 -1</clus>
<clus scale="   90.884">  5  6 -1 -1</clus>
<clus scale="   91.548">  7  8 -1 -1</clus>
<clus scale="   91.757">  2  5  1 -1</clus>
<clus scale="   21.677">  1  5  2 -1</clus>
</clustering>
</event>
<event>
 9    1  0.1671478E-005  0.1043134E+03  0.7546771E-02  0.1272029E+00
         21   -1    0    0  501  502  0.00000000000E+00  0.00000000000E+00  0.58646183957E+02  0.58646183957E+02  0.00000000000E+00 0.  1.
         -2   -1    0    0    0  501 -0.00000000000E+00 -0.00000000000E+00 -0.25437832002E+03  0.25437832002E+03  0.00000000000E+00 0.  1.
         23    2    1    2    0    0  0.50220317202E+02 -0.53796256072E+00 -0.93511440392E+02  0.14112992728E+03  0.93010199576E+02 0.  0.
         23    2    1    2    0    0 -0.38968810260E+02  0.30548704613E+02 -0.89472602245E+02  0.13740175233E+03  0.91772018967E+02 0.  0.
        -11    1    3    3    0    0  0.72378386943E+02  0.17454948768E+02 -0.80835333259E+02  0.10989839506E+03  0.00000000000E+00 0.  1.
         11    1    3    3    0    0 -0.22158069741E+02 -0.17992911329E+02 -0.12676107133E+02  0.31231532220E+02  0.00000000000E+00 0. -1.
        -11    1    4    4    0    0  0.17493325574E+02  0.37032946884E+02 -0.61925435433E+02  0.74244293708E+02  0.00000000000E+00 0.  1.
         11    1    4    4    0    0 -0.56462135834E+02 -0.64842422709E+01 -0.27547166812E+02  0.63157458626E+02  0.00000000000E+00 0. -1.
         -2    1    1    2    0  502 -0.11251506942E+02 -0.30010742053E+02 -0.12748093429E+02  0.34492824371E+02  0.00000000000E+00 0.  1.
<scales pt_clust_5="13000.00000" pt_clust_6="13000.00000" pt_clust_7="13000.00000" pt_clust_8="13000.00000" pt_clust_9="32.05060"></scales>
<clustering>
<clus scale="   32.051">  1  9  2 -1</clus>
<clus scale="   91.772">  7  8 -1 -1</clus>
<clus scale="   93.010">  5  6 -1 -1</clus>
<clus scale="  103.211">  1  7  2 -1</clus>
<clus scale="   32.051">  1  5  2 -1</clus>
</clustering>
</event>
<event>
 9    1  0.1671478E-005  0.9322726E+02  0.7546771E-02  0.1295307E+00
         -1   -1    0    0    0  501 -0.00000000000E+00  0.00000000000E+00  0.10319223761E+03  0.10319223761E+03  0.00000000000E+00 0.  1.
         21   -1    0    0  501  502  0.00000000000E+00 -0.00000000000E+00 -0.13729058528E+03  0.13729058528E+03  0.00000000000E+00 0. -1.
         23    2    1    2    0    0 -0.30585582856E+02 -0.51679928669E+01  0.99337634321E+01  0.97492515992E+02  0.91890831913E+02 0.  0.
         23    2    1    2    0    0 -0.80363860475E+01 -0.11584330692E+02 -0.38686717491E+02  0.10055364752E+03  0.91736545068E+02 0.  0.
        -11    1    3    3    0    0  0.21963311226E+02  0.18686560485E+02  0.24649022054E+02  0.37936115655E+02  0.00000000000E+00 0.  1.
         11    1    3    3    0    0 -0.52548894082E+02 -0.23854553352E+02 -0.14715258622E+02  0.59556400338E+02  0.00000000000E+00 0. -1.
        -13    1    4    4    0    0  0.12295037657E+02  0.35595445039E+02 -0.25542232635E+01  0.37745565501E+02  0.00000000000E+00 0.  1.
         13    1    4    4    0    0 -0.20331423704E+02 -0.47179775731E+02 -0.36132494227E+02  0.62808082019E+02  0.00000000000E+00 0. -1.
         -1    1    1    2    0  502  0.38621968904E+02  0.16752323559E+02 -0.53453936123E+01  0.42436659382E+02  0.00000000000E+00 0.  1.
<scales pt_clust_5="13000.00000" pt_clust_6="13000.00000" pt_clust_7="13000.00000" pt_clust_8="13000.00000" pt_clust_9="42.09868"></scales>
<clustering>
<clus scale="   42.099">  2  9  1 -1</clus>
<clus scale="   91.737">  7  8 -1 -1</clus>
<clus scale="   91.891">  5  6 -1 -1</clus>
<clus scale="   93.075">  2  7  1 -1</clus>
<clus scale="   42.099">  2  5  1 -1</clus>
</clustering>
</event>
<event>
 9    1  0.1671478E-005  0.1054541E+03  0.7546771E-02  0.1270416E+00
         -4   -1    0    0    0  501 -0.00000000000E+00  0.00000000000E+00  0.47430431228E+02  0.47430431228E+02  0.00000000000E+00 0.  1.
         21   -1    0    0  501  502  0.00000000000E+00 -0.00000000000E+00 -0.69602699510E+03  0.69602699510E+03  0.00000000000E+00 0. -1.
         23    2    1    2    0    0  0.42821089355E+02 -0.26050820491E+02 -0.32367762447E+02  0.10871118817E+03  0.90874415799E+02 0.  0.
         23    2    1    2    0    0 -0.73383481535E+02  0.19717853541E+02 -0.41055256506E+03  0.42671527774E+03  0.88082861367E+02 0.  0.
        -11    1    4    4    0    0 -0.18374932229E+02  0.45616839741E+02 -0.11670654530E+03  0.12664498379E+03  0.00000000000E+00 0.  1.
         11    1    4    4    0    0 -0.55008549306E+02 -0.25898986201E+02 -0.29384601976E+03  0.30007029395E+03  0.00000000000E+00 0. -1.
        -11    1    3    3    0    0  0.17132849680E+02  0.21736436112E+02  0.19338958432E+02  0.33763923146E+02  0.00000000000E+00 0. -1.
         11    1    3    3    0    0  0.25688239675E+02 -0.47787256603E+02 -0.51706720878E+02  0.74947265029E+02  0.00000000000E+00 0.  1.
         -4    1    1    2    0  502  0.30562392180E+02  0.63329669507E+01 -0.20567623636E+03  0.20803096041E+03  0.00000000000E+00 0.  1.
<scales pt_clust_5="13000.00000" pt_clust_6="13000.00000" pt_clust_7="13000.00000" pt_clust_8="13000.00000" pt_clust_9="31.21164"></scales>
<clustering>
<clus scale="   31.212">  2  9  1 -1</clus>
<clus scale="   88.083">  5  6 -1 -1</clus>
<clus scale="   90.874">  7  8 -1 -1</clus>
<clus scale="  103.058">  2  5  1 -1</clus>
<clus scale="   31.212">  2  5  1 -1</clus>
</clustering>
</event>
<event>
 9    1  0.1671478E-005  0.1554364E+03  0.7546771E-02  0.1213931E+00
         -1   -1    0    0    0  501 -0.00000000000E+00  0.00000000000E+00  0.20119562669E+03  0.20119562669E+03  0.00000000000E+00 0.  1.
         21   -1    0    0  501  502  0.00000000000E+00 -0.00000000000E+00 -0.47572241370E+03  0.47572241370E+03  0.00000000000E+00 0.  1.
         23    2    1    2    0    0 -0.26726693403E+02 -0.14229555728E+01 -0.10174398448E+03  0.14335998396E+03  0.97385346342E+02 0.  0.
         23    2    1    2    0    0  0.11683386812E+03  0.87977843482E+02  0.12367764759E+03  0.21184413063E+03  0.90507024506E+02 0.  0.
        -11    1    3    3    0    0  0.26383979271E+02 -0.30291848546E+02 -0.34644940697E+02  0.53046982633E+02  0.00000000000E+00 0.  1.
         11    1    3    3    0    0 -0.53110672674E+02  0.28868892973E+02 -0.67099043779E+02  0.90313001331E+02  0.00000000000E+00 0. -1.
        -11    1    4    4    0    0  0.40972042229E+02  0.86017990704E+02  0.58456570616E+02  0.11178091795E+03  0.00000000000E+00 0. -1.
         11    1    4    4    0    0  0.75861825888E+02  0.19598527783E+01  0.65221076978E+02  0.10006321268E+03  0.00000000000E+00 0.  1.
         -1    1    1    2    0  502 -0.90107174714E+02 -0.86554887910E+02 -0.29646045013E+03  0.32171392579E+03  0.00000000000E+00 0.  1.
<scales pt_clust_5="13000.00000" pt_clust_6="13000.00000" pt_clust_7="13000.00000" pt_clust_8="13000.00000" pt_clust_9="126.36831"></scales>
<clustering>
<clus scale="   90.507">  7  8 -1 -1</clus>
<clus scale="   97.385">  5  6 -1 -1</clus>
<clus scale="  100.996">  1  5  2 -1</clus>
<clus scale="  126.368">  2  9  1 -1</clus>
<clus scale="  126.368">  2  5  1 -1</clus>
</clustering>
</event>
<event>
 9    1  0.1671478E-005  0.1260962E+03  0.7546771E-02  0.1233641E+00
          1   -1    0    0  502    0 -0.00000000000E+00  0.00000000000E+00  0.29193492650E+03  0.29193492650E+03  0.00000000000E+00 0. -1.
         21   -1    0    0  501  502  0.00000000000E+00 -0.00000000000E+00 -0.14707275627E+03  0.14707275627E+03  0.00000000000E+00 0. -1.
         23    2    1    2    0    0 -0.82920064432E+02 -0.49916086422E+02  0.16915497406E+03  0.21538454324E+03  0.91704653347E+02 0.  0.
         23    2    1    2    0    0  0.66487735751E+02  0.27323904374E+02  0.63128497285E+02  0.13184671551E+03  0.90725599838E+02 0.  0.
        -11    1    4    4    0    0  0.26231799050E+02 -0.32755777243E+02  0.33487521856E+02  0.53688568097E+02  0.00000000000E+00 0. -1.
         11    1    4    4    0    0  0.40255936701E+02  0.60079681617E+02  0.29640975428E+02  0.78158147414E+02  0.00000000000E+00 0.  1.
        -13    1    3    3    0    0 -0.37312296923E+02  0.17360096962E+02  0.20536548114E+02  0.45992719822E+02  0.00000000000E+00 0.  1.
         13    1    3    3    0    0 -0.45607767509E+02 -0.67276183383E+02  0.14861842595E+03  0.16939182341E+03  0.00000000000E+00 0. -1.
          1    1    1    2  501    0  0.16432328681E+02  0.22592182047E+02 -0.87421301125E+02  0.91776424020E+02  0.00000000000E+00 0. -1.
<scales pt_clust_5="13000.00000" pt_clust_6="13000.00000" pt_clust_7="13000.00000" pt_clust_8="13000.00000" pt_clust_9="27.93614"></scales>
<clustering>
<clus scale="   27.936">  2  9  1 -1</clus>
<clus scale="   90.726">  5  6 -1 -1</clus>
<clus scale="   91.705">  7  8 -1 -1</clus>
<clus scale="  125.386">  2  5  1 -1</clus>
<clus scale="   27.936">  2  5  1 -1</clus>
</clustering>
</event>
<event>
 9    1  0.1671478E-005  0.1042776E+03  0.7546771E-02  0.1271871E+00
         -2   -1    0    0    0  501 -0.00000000000E+00  0.00000000000E+00  0.16924658908E+03  0.16924658908E+03  0.00000000000E+00 0.  1.
         21   -1    0    0  501  502  0.00000000000E+00 -0.00000000000E+00 -0.20134601464E+03  0.20134601464E+03  0.00000000000E+00 0.  1.
         23    2    1    2    0    0 -0.40781111183E+02 -0.37829428629E+02  0.10601399785E+03  0.15059131004E+03  0.91348838080E+02 0.  0.
         23    2    1    2    0    0  0.35399144619E+02  0.13595012625E+02 -0.21208840475E+02  0.10048998042E+03  0.90611795277E+02 0.  0.
        -11    1    4    4    0    0 -0.27142603196E+02 -0.70506295112E+01 -0.20304740823E+02  0.34622460696E+02  0.00000000000E+00 0.  1.
         11    1    4    4    0    0  0.62541747814E+02  0.20645642136E+02 -0.90409965228E+00  0.65867519728E+02  0.00000000000E+00 0. -1.
        -13    1    3    3    0    0 -0.26879938988E+02  0.21506466301E+02  0.82685367393E+01  0.35403783873E+02  0.00000000000E+00 0. -1.
         13    1    3    3    0    0 -0.13901172195E+02 -0.59335894930E+02  0.97745461115E+02  0.11518752617E+03  0.00000000000E+00 0.  1.
         -2    1    1    2    0  502  0.53819665648E+01  0.24234416005E+02 -0.11690458294E+03  0.11951131325E+03  0.00000000000E+00 0.  1.
<scales pt_clust_5="13000.00000" pt_clust_6="13000.00000" pt_clust_7="13000.00000" pt_clust_8="13000.00000" pt_clust_9="24.82484"></scales>
<clustering>
<clus scale="   24.825">  2  9  1 -1</clus>
<clus scale="   90.612">  5  6 -1 -1</clus>
<clus scale="   91.349">  7  8 -1 -1</clus>
<clus scale="  103.633">  2  5  1 -1</clus>
<clus scale="   24.825">  2  5  1 -1</clus>
</clustering>
</event>
<event>
 9    1  0.1671478E-005  0.9190834E+02  0.7546771E-02  0.1298381E+00
         -1   -1    0    0    0  501 -0.00000000000E+00  0.00000000000E+00  0.50315824482E+02  0.50315824482E+02  0.00000000000E+00 0.  1.
         21   -1    0    0  501  502  0.00000000000E+00 -0.00000000000E+00 -0.33164276810E+03  0.33164276810E+03  0.00000000000E+00 0.  1.
         23    2    1    2    0    0 -0.75787417234E+01 -0.24873867797E+02 -0.51293586936E+02  0.10733874716E+03  0.90633481425E+02 0.  0.
         23    2    1    2    0    0 -0.92193620037E+01  0.33421432682E+01 -0.77145036386E+02  0.11931166814E+03  0.90486192079E+02 0.  0.
        -11    1    3    3    0    0  0.21912368017E+02 -0.22347825945E+02 -0.66913181035E+02  0.73871178363E+02  0.00000000000E+00 0.  1.
         11    1    3    3    0    0 -0.29491109741E+02 -0.25260418524E+01  0.15619594099E+02  0.33467568794E+02  0.00000000000E+00 0. -1.
        -11    1    4    4    0    0 -0.21953439393E+01  0.46844471109E+02 -0.41832574023E+02  0.62842567244E+02  0.00000000000E+00 0.  1.
         11    1    4    4    0    0 -0.70240180644E+01 -0.43502327841E+02 -0.35312462363E+02  0.56469100891E+02  0.00000000000E+00 0. -1.
         -1    1    1    2    0  502  0.16798103727E+02  0.21531724529E+02 -0.15288832030E+03  0.15530817729E+03  0.00000000000E+00 0.  1.
<scales pt_clust_5="13000.00000" pt_clust_6="13000.00000" pt_clust_7="13000.00000" pt_clust_8="13000.00000" pt_clust_9="27.30918"></scales>
<clustering>
<clus scale="   27.309">  2  9  1 -1</clus>
<clus scale="   90.486">  7  8 -1 -1</clus>
<clus scale="   90.633">  5  6 -1 -1</clus>
<clus scale="   91.763">  2  7  1 -1</clus>
<clus scale="   27.309">  2  5  1 -1</clus>
</clustering>
</event>
<event>
 9    1  0.1671478E-005  0.1090437E+03  0.7546771E-02  0.1263153E+00
         21   -1    0    0  501  502  0.00000000000E+00  0.00000000000E+00  0.54250701095E+03  0.54250701095E+03  0.00000000000E+00 0.  1.
          4   -1    0    0  502    0 -0.00000000000E+00 -0.00000000000E+00 -0.38450767700E+02  0.38450767700E+02  0.00000000000E+00 0. -1.
         23    2    1    2    0    0 -0.54245759658E+02  0.20457137205E+02  0.79820258192E+02  0.13557357557E+03  0.92993676510E+02 0.  0.
         23    2    1    2    0    0  0.39709429406E+02 -0.42330371776E+02  0.36416909020E+03  0.37982678439E+03  0.90997586360E+02 0.  0.
        -11    1    4    4    0    0  0.36278715496E+02  0.22462433975E+02  0.12919109660E+03  0.13605530339E+03  0.00000000000E+00 0.  1.
         11    1    4    4    0    0  0.34307139096E+01 -0.64792805751E+02  0.23497799359E+03  0.24377148100E+03  0.00000000000E+00 0. -1.
        -13    1    3    3    0    0  0.79103456707E+01 -0.29028824540E+02  0.23737196547E+02  0.38323631388E+02  0.00000000000E+00 0.  1.
         13    1    3    3    0    0 -0.62156105329E+02  0.49485961746E+02  0.56083061645E+02  0.97249944180E+02  0.00000000000E+00 0. -1.
          4    1    1    2  501    0  0.14536330252E+02  0.21873234571E+02  0.60066894858E+02  0.65557418693E+02  0.00000000000E+00 0. -1.
<scales pt_clust_5="13000.00000" pt_clust_6="13000.00000" pt_clust_7="13000.00000" pt_clust_8="13000.00000" pt_clust_9="26.26296"></scales>
<clustering>
<clus scale="   26.263">  1  9  2 -1</clus>
<clus scale="   90.998">  5  6 -1 -1</clus>
<clus scale="   92.994">  7  8 -1 -1</clus>
<clus scale="  107.347">  1  5  2 -1</clus>
<clus scale="   26.263">  1  5  2 -1</clus>
</clustering>
</event>
<event>
 9    1  0.1671478E-005  0.9217196E+02  0.7546771E-02  0.1297939E+00
          2   -1    0    0  502    0 -0.00000000000E+00  0.00000000000E+00  0.20478657020E+03  0.20478657020E+03  0.00000000000E+00 0. -1.
         21   -1    0    0  501  502  0.00000000000E+00 -0.00000000000E+00 -0.60934899121E+02  0.60934899121E+02  0.00000000000E+00 0.  1.
         23    2    1    2    0    0  0.16539813783E+01 -0.14441205894E+02  0.92001871747E+02  0.13031688624E+03  0.91141990057E+02 0.  0.
         23    2    1    2    0    0 -0.26888234333E+02 -0.23246038407E+01  0.36231577296E+02  0.10131956060E+03  0.90689278517E+02 0.  0.
        -11    1    4    4    0    0  0.25152571282E+02 -0.26594942738E+02  0.19677397037E+02  0.41558907295E+02  0.00000000000E+00 0.  1.
         11    1    4    4    0    0 -0.52040805615E+02  0.24270338897E+02  0.16554180259E+02  0.59760653304E+02  0.00000000000E+00 0. -1.
        -11    1    3    3    0    0  0.34607119823E+01 -0.50388660976E+02  0.75220526377E+02  0.90604201176E+02  0.00000000000E+00 0.  1.
         11    1    3    3    0    0 -0.18067306040E+01  0.35947455082E+02  0.16781345370E+02  0.39712685061E+02  0.00000000000E+00 0. -1.
          2    1    1    2  501    0  0.25234252955E+02  0.16765809735E+02  0.15618222037E+02  0.34085022486E+02  0.00000000000E+00 0. -1.
<scales pt_clust_5="13000.00000" pt_clust_6="13000.00000" pt_clust_7="13000.00000" pt_clust_8="13000.00000" pt_clust_9="30.29620"></scales>
<clustering>
<clus scale="   30.296">  2  9  1 -1</clus>
<clus scale="   90.689">  5  6 -1 -1</clus>
<clus scale="   91.142">  7  8 -1 -1</clus>
<clus scale="   91.724">  2  5  1 -1</clus>
<clus scale="   30.296">  2  5  1 -1</clus>
</clustering>
</event>
<event>
 9    1  0.1671478E-005  0.1663070E+03  0.7546771E-02  0.1197192E+00
          4   -1    0    0  502    0 -0.00000000000E+00  0.00000000000E+00  0.21223911285E+03  0.21223911285E+03  0.00000000000E+00 0. -1.
         21   -1    0    0  501  502  0.00000000000E+00 -0.00000000000E+00 -0.35980878334E+03  0.35980878334E+03  0.00000000000E+00 0. -1.
         23    2    1    2    0    0  0.58847808016E+02 -0.38917501658E+02 -0.82344037713E+02  0.14406069714E+03  0.94843594774E+02 0.  0.
         23    2    1    2    0    0 -0.94806546265E+02 -0.96989875598E+02  0.11406556759E+03  0.20015133582E+03  0.93028416833E+02 0.  0.
        -11    1    4    4    0    0 -0.63892266772E+02 -0.79314223952E+02  0.25934875431E+02  0.10509798113E+03  0.00000000000E+00 0. -1.
         11    1    4    4    0    0 -0.30914279493E+02 -0.17675651646E+02  0.88130692155E+02  0.95053354688E+02  0.00000000000E+00 0.  1.
        -11    1    3    3    0    0  0.18422149916E+02 -0.58677282669E+02 -0.77302047327E+02  0.98782618056E+02  0.00000000000E+00 0. -1.
         11    1    3    3    0    0  0.40425658100E+02  0.19759781011E+02 -0.50419903854E+01  0.45278079083E+02  0.00000000000E+00 0.  1.
          4    1    1    2  501    0  0.35958738249E+02  0.13590737726E+03 -0.17929120036E+03  0.22783586323E+03  0.00000000000E+00 0. -1.
<scales pt_clust_5="13000.00000" pt_clust_6="13000.00000" pt_clust_7="13000.00000" pt_clust_8="13000.00000" pt_clust_9="137.85406"></scales>
<clustering>
<clus scale="   93.028">  5  6 -1 -1</clus>
<clus scale="   94.844">  7  8 -1 -1</clus>
<clus scale="  118.207">  1  7  2 -1</clus>
<clus scale="  137.854">  2  9  1 -1</clus>
<clus scale="  137.854">  2  5  1 -1</clus>
</clustering>
</event>
<event>
 9    1  0.1671478E-005  0.9316682E+02  0.7546771E-02  0.1295920E+00
          3   -1    0    0  502    0 -0.00000000000E+00  0.00000000000E+00  0.25222984248E+03  0.25222984248E+03  0.00000000000E+00 0. -1.
         21   -1    0    0  501  502  0.00000000000E+00 -0.00000000000E+00 -0.46267615799E+02  0.46267615799E+02  0.00000000000E+00 0. -1.
         23    2    1    2    0    0 -0.22242357243E+02  0.11607983082E+02  0.13566842804E+03  0.16523408584E+03  0.90922566117E+02 0.  0.
         23    2    1    2    0    0  0.14995427235E+02  0.73421972469E+01  0.48675149846E+02  0.10361555119E+03  0.89934095525E+02 0.  0.
        -13    1    3    3    0    0 -0.42426114165E+02 -0.22590153162E+02  0.10354644821E+03  0.11415847371E+03  0.00000000000E+00 0.  1.
         13    1    3    3    0    0  0.20183756922E+02  0.34198136244E+02  0.32121979827E+02  0.51075612126E+02  0.00000000000E+00 0. -1.
        -13    1    4    4    0    0 -0.21934110146E+02 -0.12778438520E+02 -0.13346873774E+02  0.28679831213E+02  0.00000000000E+00 0.  1.
         13    1    4    4    0    0  0.36929537381E+02  0.20120635766E+02  0.62022023619E+02  0.74935719978E+02  0.00000000000E+00 0. -1.
          3    1    1    2  501    0  0.72469300081E+01 -0.18950180328E+02  0.21618648793E+02  0.29647821247E+02  0.00000000000E+00 0. -1.
<scales pt_clust_5="13000.00000" pt_clust_6="13000.00000" pt_clust_7="13000.00000" pt_clust_8="13000.00000" pt_clust_9="20.28861"></scales>
<clustering>
<clus scale="   20.289">  2  9  1 -1</clus>
<clus scale="   89.934">  7  8 -1 -1</clus>
<clus scale="   90.923">  5  6 -1 -1</clus>
<clus scale="   92.202">  2  7  1 -1</clus>
<clus scale="   20.289">  2  5  1 -1</clus>
</clustering>
</event>
<event>
 9    1  0.1671478E-005  0.1697170E+03  0.7546771E-02  0.1178225E+00
         21   -1    0    0  501  502  0.00000000000E+00  0.00000000000E+00  0.45001432626E+03  0.45001432626E+03  0.00000000000E+00 0.  1.
         -1   -1    0    0    0  501 -0.00000000000E+00 -0.00000000000E+00 -0.11517392274E+03  0.11517392274E+03  0.00000000000E+00 0.  1.
         23    2    1    2    0    0  0.27154848605E+02 -0.11725007911E+03  0.97030439586E+02  0.17923223190E+03  0.90688036098E+02 0.  0.
         23    2    1    2    0    0 -0.32055035897E+02  0.18614414805E+03  0.23750944128E+03  0.31688724785E+03  0.91266773654E+02 0.  0.
        -11    1    3    3    0    0  0.49312854421E+02 -0.23995082975E+02  0.35927688091E+02  0.65561577084E+02  0.00000000000E+00 0.  1.
         11    1    3    3    0    0 -0.22158005816E+02 -0.93254996135E+02  0.61102751494E+02  0.11367065482E+03  0.00000000000E+00 0. -1.
        -11    1    4    4    0    0 -0.99877609274E+01  0.17431890768E+03  0.16521551007E+03  0.24038095122E+03  0.00000000000E+00 0.  1.
         11    1    4    4    0    0 -0.22067274969E+02  0.11825240377E+02  0.72293931209E+02  0.76506296631E+02  0.00000000000E+00 0. -1.
         -1    1    1    2    0  502  0.49001872918E+01 -0.68894068944E+02  0.30052265073E+00  0.69068769245E+02  0.00000000000E+00 0.  1.
<scales pt_clust_5="13000.00000" pt_clust_6="13000.00000" pt_clust_7="13000.00000" pt_clust_8="13000.00000" pt_clust_9="69.06815"></scales>
<clustering>
<clus scale="   69.068">  1  9  2 -1</clus>
<clus scale="   90.688">  5  6 -1 -1</clus>
<clus scale="   91.267">  7  8 -1 -1</clus>
<clus scale="  169.406">  2  5  1 -1</clus>
<clus scale="   69.068">  1  5  2 -1</clus>
</clustering>
</event>
<event>
 9    1  0.1671478E-005  0.9521177E+02  0.7546771E-02  0.1292515E+00
          1   -1    0    0  502    0 -0.00000000000E+00  0.00000000000E+00  0.86097157238E+02  0.86097157238E+02  0.00000000000E+00 0. -1.
         21   -1    0    0  501  502  0.00000000000E+00 -0.00000000000E+00 -0.40045325500E+03  0.40045325500E+03  0.00000000000E+00 0. -1.
         23    2    1    2    0    0 -0.38587347787E+01 -0.28366955122E+02  0.20000419797E+02  0.97766450833E+02  0.91316417689E+02 0.  0.
         23    2    1    2    0    0 -0.87073351821E+01 -0.44018852154E+02 -0.10615853979E+03  0.14905092600E+03  0.94514897973E+02 0.  0.
        -13    1    4    4    0    0 -0.74882214110E+01  0.22833597249E+02 -0.52700482494E+00  0.24035897264E+02  0.00000000000E+00 0.  1.
         13    1    4    4    0    0 -0.12191137711E+01 -0.66852449402E+02 -0.10563153497E+03  0.12501502873E+03  0.00000000000E+00 0. -1.
        -13    1    3    3    0    0  0.23421865201E+02 -0.13043528522E+02  0.48517309012E+02  0.55431459295E+02  0.00000000000E+00 0. -1.
         13    1    3    3    0    0 -0.27280599980E+02 -0.15323426600E+02 -0.28516889215E+02  0.42334991538E+02  0.00000000000E+00 0.  1.
          1    1    1    2  501    0  0.12566069961E+02  0.72385807276E+02 -0.22819797776E+03  0.23973303541E+03  0.00000000000E+00 0. -1.
<scales pt_clust_5="13000.00000" pt_clust_6="13000.00000" pt_clust_7="13000.00000" pt_clust_8="13000.00000" pt_clust_9="73.46844"></scales>
<clustering>
<clus scale="   73.468">  2  9  1 -1</clus>
<clus scale="   91.316">  7  8 -1 -1</clus>
<clus scale="   92.038">  1  7  2 -1</clus>
<clus scale="   94.515">  5  6 -1 -1</clus>
<clus scale="   73.468">  2  5  1 -1</clus>
</clustering>
</event>
<event>
 9    1  0.1671478E-005  0.2295140E+03  0.7546771E-02  0.1138466E+00
         21   -1    0    0  501  502  0.00000000000E+00  0.00000000000E+00  0.23259110374E+03  0.23259110374E+03  0.00000000000E+00 0. -1.
          1   -1    0    0  502    0 -0.00000000000E+00 -0.00000000000E+00 -0.88607974238E+03  0.88607974238E+03  0.00000000000E+00 0. -1.
         23    2    1    2    0    0 -0.15799352040E+02  0.14482173910E+03 -0.19884036029E+03  0.26379525404E+03  0.93954731303E+02 0.  0.
         23    2    1    2    0    0 -0.16073920763E+03 -0.24722052965E+03 -0.54910495605E+03  0.62999020056E+03  0.91740486674E+02 0.  0.
        -11    1    4    4    0    0 -0.11742947808E+03 -0.10670011714E+03 -0.32937056464E+03  0.36559481147E+03  0.00000000000E+00 0.  1.
         11    1    4    4    0    0 -0.43309729544E+02 -0.14052041251E+03 -0.21973439141E+03  0.26439538909E+03  0.00000000000E+00 0. -1.
        -13    1    3    3    0    0 -0.45890958650E+02  0.36802307175E+02 -0.90051426433E+02  0.10756230428E+03  0.00000000000E+00 0. -1.
         13    1    3    3    0    0  0.30091606610E+02  0.10801943193E+03 -0.10878893385E+03  0.15623294976E+03  0.00000000000E+00 0.  1.
          1    1    1    2  501    0  0.17653855967E+03  0.10239879055E+03  0.94456677695E+02  0.22488539152E+03  0.00000000000E+00 0. -1.
<scales pt_clust_5="13000.00000" pt_clust_6="13000.00000" pt_clust_7="13000.00000" pt_clust_8="13000.00000" pt_clust_9="210.38145"></scales>
<clustering>
<clus scale="   91.740">  5  6 -1 -1</clus>
<clus scale="   93.955">  7  8 -1 -1</clus>
<clus scale="  173.351">  2  7  1 -1</clus>
<clus scale="  210.381">  1  9  2 -1</clus>
<clus scale="  210.381">  1  5  2 -1</clus>
</clustering>
</event>
<event>
 9    1  0.1671478E-005  0.9823907E+02  0.7546771E-02  0.1287501E+00
         21   -1    0    0  501  502  0.00000000000E+00  0.00000000000E+00  0.32857878749E+02  0.32857878749E+02  0.00000000000E+00 0.  1.
         -3   -1    0    0    0  501 -0.00000000000E+00 -0.00000000000E+00 -0.98486005065E+03  0.98486005065E+03  0.00000000000E+00 0.  1.
         23    2    1    2    0    0  0.38169574933E+01 -0.87742593754E+01 -0.35770853200E+03  0.36924470250E+03  0.91075241788E+02 0.  0.
         23    2    1    2    0    0  0.77744862958E+02 -0.12005605595E+02 -0.14578940091E+03  0.19213981180E+03  0.97338376700E+02 0.  0.
        -13    1    4    4    0    0 -0.16302665317E+02  0.17412210840E+02 -0.46447349786E+02  0.52214157897E+02  0.00000000000E+00 0. -1.
         13    1    4    4    0    0  0.94047528275E+02 -0.29417816435E+02 -0.99342051127E+02  0.13992565390E+03  0.00000000000E+00 0.  1.
        -13    1    3    3    0    0 -0.65397059488E+01 -0.47853875812E+02 -0.23927189744E+03  0.24409793544E+03  0.00000000000E+00 0. -1.
         13    1    3    3    0    0  0.10356663442E+02  0.39079616436E+02 -0.11843663457E+03  0.12514676706E+03  0.00000000000E+00 0.  1.
         -3    1    1    2    0  502 -0.81561820451E+02  0.20779864971E+02 -0.44850423898E+03  0.45633341509E+03  0.00000000000E+00 0.  1.
<scales pt_clust_5="13000.00000" pt_clust_6="13000.00000" pt_clust_7="13000.00000" pt_clust_8="13000.00000" pt_clust_9="84.16734"></scales>
<clustering>
<clus scale="   84.167">  1  9  2 -1</clus>
<clus scale="   91.075">  7  8 -1 -1</clus>
<clus scale="   92.037">  2  7  1 -1</clus>
<clus scale="   97.338">  5  6 -1 -1</clus>
<clus scale="   84.167">  1  5  2 -1</clus>
</clustering>
</event>
<event>
 9    1  0.1671478E-005  0.1261459E+03  0.7546771E-02  0.1233988E+00
          1   -1    0    0  502    0 -0.00000000000E+00  0.00000000000E+00  0.37615169952E+03  0.37615169952E+03  0.00000000000E+00 0. -1.
         21   -1    0    0  501  502  0.00000000000E+00 -0.00000000000E+00 -0.80996748300E+02  0.80996748300E+02  0.00000000000E+00 0. -1.
         23    2    1    2    0    0 -0.57510676451E+02 -0.57019477556E+02  0.22412787672E+03  0.25369381188E+03  0.86997392707E+02 0.  0.
         23    2    1    2    0    0  0.92667116684E+02  0.74826068921E+02  0.42990387491E+02  0.15509033294E+03  0.89547210172E+02 0.  0.
        -11    1    4    4    0    0  0.70568067130E+02  0.51406884834E+02  0.70907164324E+02  0.11247375631E+03  0.00000000000E+00 0.  1.
         11    1    4    4    0    0  0.22099049554E+02  0.23419184088E+02 -0.27916776833E+02  0.42616576625E+02  0.00000000000E+00 0. -1.
        -13    1    3    3    0    0 -0.20370519097E+02  0.18724118028E+02  0.24435921545E+02  0.36914291351E+02  0.00000000000E+00 0.  1.
         13    1    3    3    0    0 -0.37140157354E+02 -0.75743595584E+02  0.19969195517E+03  0.21677952053E+03  0.00000000000E+00 0. -1.
          1    1    1    2  501    0 -0.35156440234E+02 -0.17806591365E+02  0.28036687007E+02  0.48364302996E+02  0.00000000000E+00 0. -1.
<scales pt_clust_5="13000.00000" pt_clust_6="13000.00000" pt_clust_7="13000.00000" pt_clust_8="13000.00000" pt_clust_9="39.40876"></scales>
<clustering>
<clus scale="   39.409">  2  9  1 -1</clus>
<clus scale="   86.997">  7  8 -1 -1</clus>
<clus scale="   89.547">  5  6 -1 -1</clus>
<clus scale="  124.349">  1  7  2 -1</clus>
<clus scale="   39.409">  2  5  1 -1</clus>
</clustering>
</event>
<event>
 9    1  0.1671478E-005  0.1103148E+03  0.7546771E-02  0.1260330E+00
         21   -1    0    0  501  502  0.00000000000E+00  0.00000000000E+00  0.10589138012E+03  0.10589138012E+03  0.00000000000E+00 0.  1.
          1   -1    0    0  502    0 -0.00000000000E+00 -0.00000000000E+00 -0.14760867165E+03  0.14760867165E+03  0.00000000000E+00 0. -1.
         23    2    1    2    0    0 -0.19138704039E+02 -0.56179643181E+02 -0.42555838131E+02  0.11684688464E+03  0.91212678886E+02 0.  0.
         23    2    1    2    0    0  0.41612624724E+02  0.50191523330E+02 -0.39428718675E+01  0.11290876457E+03  0.92098009363E+02 0.  0.
        -13    1    3    3    0    0 -0.53327951469E+02 -0.20272620523E+02 -0.34344050575E+02  0.66591015616E+02  0.00000000000E+00 0.  1.
         13    1    3    3    0    0  0.34189247430E+02 -0.35907022658E+02 -0.82117875559E+01  0.50255869019E+02  0.00000000000E+00 0. -1.
        -13    1    4    4    0    0 -0.38692432154E+01  0.30018657368E+02  0.37474807725E+02  0.48171070647E+02  0.00000000000E+00 0.  1.
         13    1    4    4    0    0  0.45481867939E+02  0.20172865962E+02 -0.41417679592E+02  0.64737693928E+02  0.00000000000E+00 0. -1.
          1    1    1    2  501    0 -0.22473920685E+02  0.59881198512E+01  0.47814184736E+01  0.23744402559E+02  0.00000000000E+00 0. -1.
<scales pt_clust_5="13000.00000" pt_clust_6="13000.00000" pt_clust_7="13000.00000" pt_clust_8="13000.00000" pt_clust_9="23.25800"></scales>
<clustering>
<clus scale="   23.258">  1  9  2 -1</clus>
<clus scale="   91.213">  5  6 -1 -1</clus>
<clus scale="   92.098">  7  8 -1 -1</clus>
<clus scale="  109.577">  2  5  1 -1</clus>
<clus scale="   23.258">  1  5  2 -1</clus>
</clustering>
</event>
<event>
 9    1  0.1671478E-005  0.1128812E+03  0.7546771E-02  0.1256244E+00
         21   -1    0    0  501  502  0.00000000000E+00  0.00000000000E+00  0.17624781591E+03  0.17624781591E+03  0.00000000000E+00 0. -1.
          2   -1    0    0  502    0 -0.00000000000E+00 -0.00000000000E+00 -0.31622632954E+03  0.31622632954E+03  0.00000000000E+00 0. -1.
         23    2    1    2    0    0 -0.46063466193E+02 -0.35775493516E+02 -0.18337267847E+03  0.21206520116E+03  0.89131259852E+02 0.  0.
         23    2    1    2    0    0  0.47849717463E+02  0.72617922883E+02 -0.81389037903E+02  0.15028821965E+03  0.91648323992E+02 0.  0.
        -13    1    3    3    0    0 -0.10748190765E+02 -0.30409472449E+02 -0.81884342422E+01  0.33276268942E+02  0.00000000000E+00 0.  1.
         13    1    3    3    0    0 -0.35315275427E+02 -0.53660210671E+01 -0.17518424422E+03  0.17878893222E+03  0.00000000000E+00 0. -1.
        -13    1    4    4    0    0 -0.97385343103E+01  0.55048589796E+02 -0.69024129524E+02  0.88822951683E+02  0.00000000000E+00 0. -1.
         13    1    4    4    0    0  0.57588251773E+02  0.17569333087E+02 -0.12364908378E+02  0.61465267970E+02  0.00000000000E+00 0.  1.
          2    1    1    2  501    0 -0.17862512704E+01 -0.36842429366E+02  0.12478320273E+03  0.13012072464E+03  0.00000000000E+00 0. -1.
<scales pt_clust_5="13000.00000" pt_clust_6="13000.00000" pt_clust_7="13000.00000" pt_clust_8="13000.00000" pt_clust_9="36.88571"></scales>
<clustering>
<clus scale="   36.886">  1  9  2 -1</clus>
<clus scale="   89.131">  5  6 -1 -1</clus>
<clus scale="   91.648">  7  8 -1 -1</clus>
<clus scale="  110.847">  2  5  1 -1</clus>
<clus scale="   36.886">  1  5  2 -1</clus>
</clustering>
</event>
<event>
 9    1  0.1671478E-005  0.1154800E+03  0.7546771E-02  0.1251318E+00
         21   -1    0    0  501  502  0.00000000000E+00  0.00000000000E+00  0.13469939536E+03  0.13469939536E+03  0.00000000000E+00 0.  1.
         -3   -1    0    0    0  501 -0.00000000000E+00 -0.00000000000E+00 -0.42649702289E+03  0.42649702289E+03  0.00000000000E+00 0.  1.
         23    2    1    2    0    0 -0.57079455730E+02  0.27517169895E+02 -0.31001011135E+03  0.32938991600E+03  0.91521520516E+02 0.  0.
         23    2    1    2    0    0  0.12759648026E+03 -0.26196112963E+02 -0.26042573088E+01  0.15826921475E+03  0.89862473097E+02 0.  0.
        -11    1    4    4    0    0  0.11780077555E+03 -0.47636327688E+02  0.16225650975E+02  0.12809962602E+03  0.00000000000E+00 0. -1.
         11    1    4    4    0    0  0.97957047131E+01  0.21440214726E+02 -0.18829908284E+02  0.30169588733E+02  0.00000000000E+00 0.  1.
        -11    1    3    3    0    0  0.21735987171E+02  0.23333142086E+02 -0.75645032765E+02  0.82091775714E+02  0.00000000000E+00 0.  1.
         11    1    3    3    0    0 -0.78815442901E+02  0.41840278096E+01 -0.23436507859E+03  0.24729814029E+03  0.00000000000E+00 0. -1.
         -3    1    1    2    0  502 -0.70517024534E+02 -0.13210569328E+01  0.20816741134E+02  0.73537287494E+02  0.00000000000E+00 0.  1.
<scales pt_clust_5="13000.00000" pt_clust_6="13000.00000" pt_clust_7="13000.00000" pt_clust_8="13000.00000" pt_clust_9="70.52940"></scales>
<clustering>
<clus scale="   70.529">  1  9  2 -1</clus>
<clus scale="   89.862">  5  6 -1 -1</clus>
<clus scale="   91.522">  7  8 -1 -1</clus>
<clus scale="  114.170">  1  5  2 -1</clus>
<clus scale="   70.529">  1  5  2 -1</clus>
</clustering>
</event>
<event>
 9    1  0.1671478E-005  0.9798032E+02  0.7546771E-02  0.1285202E+00
         21   -1    0    0  501  502  0.00000000000E+00  0.00000000000E+00  0.72960245736E+02  0.72960245736E+02  0.00000000000E+00 0.  1.
          1   -1    0    0  502    0 -0.00000000000E+00 -0.00000000000E+00 -0.32602802708E+03  0.32602802708E+03  0.00000000000E+00 0. -1.
         23    2    1    2    0    0 -0.17994348225E+02  0.11739597660E+02 -0.16676215577E+03  0.19114242498E+03  0.90907619641E+02 0.  0.
         23    2    1    2    0    0  0.37729897003E+02 -0.70990622147E+02 -0.81007899885E+02  0.14517016127E+03  0.89715563421E+02 0.  0.
        -11    1    3    3    0    0  0.30704744958E+02  0.19521733230E+02 -0.35136580272E+02  0.50581209006E+02  0.00000000000E+00 0. -1.
         11    1    3    3    0    0 -0.48699093183E+02 -0.77821355702E+01 -0.13162557550E+03  0.14056121598E+03  0.00000000000E+00 0.  1.
        -11    1    4    4    0    0 -0.10056265805E+02 -0.51143638299E+02 -0.38455866726E+01  0.52264603292E+02  0.00000000000E+00 0.  1.
         11    1    4    4    0    0  0.47786162808E+02 -0.19846983848E+02 -0.77162313213E+02  0.92905557983E+02  0.00000000000E+00 0. -1.
          1    1    1    2  501    0 -0.19735548778E+02  0.59251024487E+02 -0.52977256868E+01  0.62675686560E+02  0.00000000000E+00 0. -1.
<scales pt_clust_5="13000.00000" pt_clust_6="13000.00000" pt_clust_7="13000.00000" pt_clust_8="13000.00000" pt_clust_9="62.45139"></scales>
<clustering>
<clus scale="   62.451">  1  9  2 -1</clus>
<clus scale="   89.716">  7  8 -1 -1</clus>
<clus scale="   90.908">  5  6 -1 -1</clus>
<clus scale="   96.875">  1  7  2 -1</clus>
<clus scale="   62.451">  1  5  2 -1</clus>
</clustering>
</event>
<event>
 9    1  0.1671478E-005  0.1170727E+03  0.7546771E-02  0.1248159E+00
          1   -1    0    0  502    0 -0.00000000000E+00  0.00000000000E+00  0.37154990821E+02  0.37154990821E+02  0.00000000000E+00 0. -1.
         21   -1    0    0  501  502  0.00000000000E+00 -0.00000000000E+00 -0.84891285520E+03  0.84891285520E+03  0.00000000000E+00 0.  1.
         23    2    1    2    0    0 -0.33187586902E+02 -0.61428616859E+02 -0.90643446779E+02  0.14610244662E+03  0.90855927549E+02 0.  0.
         23    2    1    2    0    0  0.65173282306E+02  0.63466300573E+02 -0.49131715266E+03  0.50794380592E+03  0.91317235203E+02 0.  0.
        -11    1    4    4    0    0  0.38470617047E+02 -0.18024445879E+02 -0.18777010783E+03  0.19251618742E+03  0.00000000000E+00 0.  1.
         11    1    4    4    0    0  0.26702665258E+02  0.81490746452E+02 -0.30354704482E+03  0.31542761850E+03  0.00000000000E+00 0. -1.
        -13    1    3    3    0    0  0.16103828127E+02  0.15962459360E+02 -0.21066888048E+02  0.30950721497E+02  0.00000000000E+00 0.  1.
         13    1    3    3    0    0 -0.49291415029E+02 -0.77391076218E+02 -0.69576558731E+02  0.11515172512E+03  0.00000000000E+00 0. -1.
          1    1    1    2  501    0 -0.31985695404E+02 -0.20376837142E+01 -0.22979726494E+03  0.23202159348E+03  0.00000000000E+00 0. -1.
<scales pt_clust_5="13000.00000" pt_clust_6="13000.00000" pt_clust_7="13000.00000" pt_clust_8="13000.00000" pt_clust_9="32.05054"></scales>
<clustering>
<clus scale="   32.051">  2  9  1 -1</clus>
<clus scale="   90.856">  7  8 -1 -1</clus>
<clus scale="   91.317">  5  6 -1 -1</clus>
<clus scale="  116.713">  1  7  2 -1</clus>
<clus scale="   32.051">  2  5  1 -1</clus>
</clustering>
</event>
<event>
 9    1  0.1671478E-005  0.1262237E+03  0.7546771E-02  0.1233696E+00
          1   -1    0    0  502    0 -0.00000000000E+00  0.00000000000E+00  0.13048110420E+03  0.13048110420E+03  0.00000000000E+00 0. -1.
         21   -1    0    0  501  502  0.00000000000E+00 -0.00000000000E+00 -0.34095941634E+03  0.34095941634E+03  0.00000000000E+00 0. -1.
         23    2    1    2    0    0 -0.10112268952E+03  0.21647676957E+02  0.30955375041E+02  0.14101735327E+03  0.90737194277E+02 0.  0.
         23    2    1    2    0    0  0.58449879722E+02 -0.37005111524E+02 -0.33316958298E+02  0.11742224630E+03  0.88838040824E+02 0.  0.
        -11    1    4    4    0    0  0.10935312757E+01 -0.21814336326E+02  0.25705219675E+02  0.33731578655E+02  0.00000000000E+00 0. -1.
         11    1    4    4    0    0  0.57356348446E+02 -0.15190775198E+02 -0.59022177974E+02  0.83690667645E+02  0.00000000000E+00 0.  1.
        -11    1    3    3    0    0 -0.81696185952E+02  0.63551282545E+01 -0.20028469235E+02  0.84355166019E+02  0.00000000000E+00 0. -1.
         11    1    3    3    0    0 -0.19426503571E+02  0.15292548703E+02  0.50983844276E+02  0.56662187250E+02  0.00000000000E+00 0.  1.
          1    1    1    2  501    0  0.42672809801E+02  0.15357434566E+02 -0.20811672888E+03  0.21300092097E+03  0.00000000000E+00 0. -1.
<scales pt_clust_5="13000.00000" pt_clust_6="13000.00000" pt_clust_7="13000.00000" pt_clust_8="13000.00000" pt_clust_9="45.35217"></scales>
<clustering>
<clus scale="   45.352">  2  9  1 -1</clus>
<clus scale="   88.838">  5  6 -1 -1</clus>
<clus scale="   90.737">  7  8 -1 -1</clus>
<clus scale="  124.865">  2  5  1 -1</clus>
<clus scale="   45.352">  2  5  1 -1</clus>
</clustering>
</event>
<event>
 9    1  0.1671478E-005  0.1745017E+03  0.7546771E-02  0.1173700E+00
         21   -1    0    0  501  502  0.00000000000E+00  0.00000000000E+00  0.11373636925E+03  0.11373636925E+03  0.00000000000E+00 0.  1.
          2   -1    0    0  502    0 -0.00000000000E+00 -0.00000000000E+00 -0.73285353173E+03  0.73285353173E+03  0.00000000000E+00 0. -1.
         23    2    1    2    0    0  0.85738324495E+02 -0.11957945352E+03 -0.60030574215E+03  0.62468197427E+03  0.90610589505E+02 0.  0.
         23    2    1    2    0    0 -0.81635043402E+02  0.13930838071E+03 -0.45006256346E+02  0.18885891889E+03  0.87011625008E+02 0.  0.
        -11    1    3    3    0    0  0.10032202895E+03 -0.74267015438E+02 -0.45251491167E+03  0.46941436317E+03  0.00000000000E+00 0. -1.
         11    1    3    3    0    0 -0.14583704454E+02 -0.45312438087E+02 -0.14779083049E+03  0.15526761110E+03  0.00000000000E+00 0.  1.
        -11    1    4    4    0    0 -0.46347880776E+02  0.10893148560E+03  0.75772953071E+01  0.11862381721E+03  0.00000000000E+00 0.  1.
         11    1    4    4    0    0 -0.35287162626E+02  0.30376895119E+02 -0.52583551653E+02  0.70235101677E+02  0.00000000000E+00 0. -1.
          2    1    1    2  501    0 -0.41032810939E+01 -0.19728927189E+02  0.26194836018E+02  0.33049007819E+02  0.00000000000E+00 0. -1.
<scales pt_clust_5="13000.00000" pt_clust_6="13000.00000" pt_clust_7="13000.00000" pt_clust_8="13000.00000" pt_clust_9="20.15112"></scales>
<clustering>
<clus scale="   20.151">  1  9  2 -1</clus>
<clus scale="   87.012">  7  8 -1 -1</clus>
<clus scale="   90.611">  5  6 -1 -1</clus>
<clus scale="  172.660">  1  7  2 -1</clus>
<clus scale="   20.151">  1  5  2 -1</clus>
</clustering>
</event>
<event>
 9    1  0.1671478E-005  0.1111323E+03  0.7546771E-02  0.1263238E+00
         -4   -1    0    0    0  501 -0.00000000000E+00  0.00000000000E+00  0.10841770947E+03  0.10841770947E+03  0.00000000000E+00 0.  1.
         21   -1    0    0  501  502  0.00000000000E+00 -0.00000000000E+00 -0.15296208652E+03  0.15296208652E+03  0.00000000000E+00 0.  1.
         23    2    1    2    0    0 -0.94544444218E+01 -0.46250504339E+02  0.18553434060E+02  0.11408794316E+03  0.10219262785E+03 0.  0.
         23    2    1    2    0    0  0.34885577693E+02  0.27729003002E+02 -0.48653048593E+02  0.11267336477E+03  0.91336010711E+02 0.  0.
        -11    1    3    3    0    0  0.95922354697E+01 -0.66394086383E+02  0.40823130215E+02  0.78528425735E+02  0.00000000000E+00 0.  1.
         11    1    3    3    0    0 -0.19046679892E+02  0.20143582044E+02 -0.22269696155E+02  0.35559517422E+02  0.00000000000E+00 0. -1.
        -13    1    4    4    0    0 -0.26500459733E+02  0.23076545611E+02 -0.15777518830E+01  0.35175142138E+02  0.00000000000E+00 0. -1.
         13    1    4    4    0    0  0.61386037426E+02  0.46524573911E+01 -0.47075296710E+02  0.77498222632E+02  0.00000000000E+00 0.  1.
         -4    1    1    2    0  502 -0.25431133271E+02  0.18521501337E+02 -0.14444762521E+02  0.34618488060E+02  0.00000000000E+00 0.  1.
<scales pt_clust_5="13000.00000" pt_clust_6="13000.00000" pt_clust_7="13000.00000" pt_clust_8="13000.00000" pt_clust_9="31.46091"></scales>
<clustering>
<clus scale="   31.461">  2  9  1 -1</clus>
<clus scale="   91.336">  7  8 -1 -1</clus>
<clus scale="  101.239">  2  7  1 -1</clus>
<clus scale="  102.193">  5  6 -1 -1</clus>
<clus scale="   31.461">  2  5  1 -1</clus>
</clustering>
</event>
<event>
 9    1  0.1671478E-005  0.9295826E+02  0.7546771E-02  0.1298299E+00
         21   -1    0    0  501  502  0.00000000000E+00  0.00000000000E+00  0.69282704718E+02  0.69282704718E+02  0.00000000000E+00 0. -1.
          1   -1    0    0  502    0 -0.00000000000E+00 -0.00000000000E+00 -0.51837207817E+03  0.51837207817E+03  0.00000000000E+00 0. -1.
         23    2    1    2    0    0 -0.21374054268E+02  0.56022107446E+01 -0.35238386121E+03  0.36395222497E+03  0.88309690638E+02 0.  0.
         23    2    1    2    0    0 -0.35816354223E+02 -0.86715661538E+01 -0.12502494519E+03  0.15981082097E+03  0.92467585074E+02 0.  0.
        -11    1    4    4    0    0 -0.20541472263E+02  0.29373618906E+02 -0.92881806333E+01  0.37027447520E+02  0.00000000000E+00 0. -1.
         11    1    4    4    0    0 -0.15274881960E+02 -0.38045185060E+02 -0.11573676456E+03  0.12278337345E+03  0.00000000000E+00 0.  1.
        -11    1    3    3    0    0  0.28480801850E+02 -0.76225813468E+01 -0.57782556064E+02  0.64869743376E+02  0.00000000000E+00 0.  1.
         11    1    3    3    0    0 -0.49854856118E+02  0.13224792091E+02 -0.29460130515E+03  0.29908248160E+03  0.00000000000E+00 0. -1.
          1    1    1    2  501    0  0.57190408491E+02  0.30693554092E+01  0.28319432958E+02  0.63891736939E+02  0.00000000000E+00 0. -1.
<scales pt_clust_5="13000.00000" pt_clust_6="13000.00000" pt_clust_7="13000.00000" pt_clust_8="13000.00000" pt_clust_9="57.27271"></scales>
<clustering>
<clus scale="   57.273">  1  9  2 -1</clus>
<clus scale="   88.310">  7  8 -1 -1</clus>
<clus scale="   88.823">  2  7  1 -1</clus>
<clus scale="   92.468">  5  6 -1 -1</clus>
<clus scale="   57.273">  1  5  2 -1</clus>
</clustering>
</event>
<event>
 9    1  0.1671478E-005  0.1331547E+03  0.7546771E-02  0.1223959E+00
         21   -1    0    0  501  502  0.00000000000E+00  0.00000000000E+00  0.15436841390E+03  0.15436841390E+03  0.00000000000E+00 0.  1.
         -1   -1    0    0    0  501 -0.00000000000E+00 -0.00000000000E+00 -0.59792253787E+03  0.59792253787E+03  0.00000000000E+00 0.  1.
         23    2    1    2    0    0 -0.86067703143E+02 -0.58597088280E+02 -0.51273702680E+03  0.53184800320E+03  0.95507966037E+02 0.  0.
         23    2    1    2    0    0  0.40764052698E+02 -0.33101211126E+02  0.20717764309E+02  0.10726225893E+03  0.91206185442E+02 0.  0.
        -11    1    3    3    0    0 -0.17368098171E+02  0.24251058011E+02 -0.67669029617E+02  0.73951756017E+02  0.00000000000E+00 0. -1.
         11    1    3    3    0    0 -0.68699604972E+02 -0.82848146291E+02 -0.44506799718E+03  0.45789624718E+03  0.00000000000E+00 0.  1.
        -11    1    4    4    0    0 -0.15068599942E+02 -0.43868921817E+02 -0.99715479476E+00  0.46395466624E+02  0.00000000000E+00 0.  1.
         11    1    4    4    0    0  0.55832652639E+02  0.10767710690E+02  0.21714919103E+02  0.60866792309E+02  0.00000000000E+00 0. -1.
         -1    1    1    2    0  502  0.45303650446E+02  0.91698299406E+02  0.48465138513E+02  0.11318068965E+03  0.00000000000E+00 0.  1.
<scales pt_clust_5="13000.00000" pt_clust_6="13000.00000" pt_clust_7="13000.00000" pt_clust_8="13000.00000" pt_clust_9="102.27902"></scales>
<clustering>
<clus scale="   91.206">  7  8 -1 -1</clus>
<clus scale="   95.508">  5  6 -1 -1</clus>
<clus scale="  102.279">  1  9  2 -1</clus>
<clus scale="  130.104">  1  7  2 -1</clus>
<clus scale="  102.279">  1  5  2 -1</clus>
</clustering>
</event>
<event>
 9    1  0.1671478E-005  0.1124258E+03  0.7546771E-02  0.1258457E+00
          1   -1    0    0  502    0 -0.00000000000E+00  0.00000000000E+00  0.74538558062E+03  0.74538558062E+03  0.00000000000E+00 0. -1.
         21   -1    0    0  501  502  0.00000000000E+00 -0.00000000000E+00 -0.71466780808E+02  0.71466780808E+02  0.00000000000E+00 0. -1.
         23    2    1    2    0    0  0.44913489167E+02 -0.25242211849E+02  0.31441387199E+03  0.32901782582E+03  0.82111241876E+02 0.  0.
         23    2    1    2    0    0 -0.68756655636E+02  0.66213935955E+02  0.40298915280E+03  0.42350680763E+03  0.88577625966E+02 0.  0.
        -13    1    4    4    0    0  0.19074967632E+02  0.78643799556E+01  0.34229083996E+02  0.39966649264E+02  0.00000000000E+00 0.  1.
         13    1    4    4    0    0 -0.87831623267E+02  0.58349556000E+02  0.36876006881E+03  0.38354015837E+03  0.00000000000E+00 0. -1.
        -13    1    3    3    0    0  0.67199369384E+02 -0.85895086761E+01  0.19592937555E+03  0.20731101059E+03  0.00000000000E+00 0. -1.
         13    1    3    3    0    0 -0.22285880217E+02 -0.16652703173E+02  0.11848449643E+03  0.12170681524E+03  0.00000000000E+00 0.  1.
          1    1    1    2  501    0  0.23843166468E+02 -0.40971724106E+02 -0.43484224985E+02  0.64327727972E+02  0.00000000000E+00 0. -1.
<scales pt_clust_5="13000.00000" pt_clust_6="13000.00000" pt_clust_7="13000.00000" pt_clust_8="13000.00000" pt_clust_9="47.40442"></scales>
<clustering>
<clus scale="   47.404">  2  9  1 -1</clus>
<clus scale="   82.111">  7  8 -1 -1</clus>
<clus scale="   88.578">  5  6 -1 -1</clus>
<clus scale="  107.405">  1  7  2 -1</clus>
<clus scale="   47.404">  2  5  1 -1</clus>
</clustering>
</event>
<event>
 9    1  0.1671478E-005  0.1079867E+03  0.7546771E-02  0.1274860E+00
         21   -1    0    0  501  502  0.00000000000E+00  0.00000000000E+00  0.63962610835E+03  0.63962610835E+03  0.00000000000E+00 0.  1.
         -1   -1    0    0    0  501 -0.00000000000E+00 -0.00000000000E+00 -0.27044964422E+02  0.27044964422E+02  0.00000000000E+00 0.  1.
         23    2    1    2    0    0  0.38361737561E+02 -0.19382337506E+02  0.16540512732E+03  0.19692020341E+03  0.97833595713E+02 0.  0.
         23    2    1    2    0    0 -0.24933503307E+02  0.47622190224E+02  0.19723581003E+03  0.21786217645E+03  0.75315407315E+02 0.  0.
        -11    1    3    3    0    0  0.33017127590E+02  0.14337695593E+02  0.93723784912E+01  0.37195990480E+02  0.00000000000E+00 0.  1.
         11    1    3    3    0    0  0.53446099720E+01 -0.33720033099E+02  0.15603274883E+03  0.15972421293E+03  0.00000000000E+00 0. -1.
        -13    1    4    4    0    0 -0.93286032616E+01  0.64301138421E+02  0.11066841731E+03  0.12833221665E+03  0.00000000000E+00 0.  1.
         13    1    4    4    0    0 -0.15604900045E+02 -0.16678948197E+02  0.86567392723E+02  0.89529959797E+02  0.00000000000E+00 0. -1.
         -1    1    1    2    0  502 -0.13428234255E+02 -0.28239852718E+02  0.24994020658E+03  0.25188869292E+03  0.00000000000E+00 0.  1.
<scales pt_clust_5="13000.00000" pt_clust_6="13000.00000" pt_clust_7="13000.00000" pt_clust_8="13000.00000" pt_clust_9="31.26990"></scales>
<clustering>
<clus scale="   31.270">  1  9  2 -1</clus>
<clus scale="   75.315">  7  8 -1 -1</clus>
<clus scale="   88.103">  1  7  2 -1</clus>
<clus scale="   97.834">  5  6 -1 -1</clus>
<clus scale="   31.270">  1  5  2 -1</clus>
</clustering>
</event>
<event>
 9    1  0.1671478E-005  0.1069037E+03  0.7546771E-02  0.1266794E+00
          2   -1    0    0  502    0 -0.00000000000E+00  0.00000000000E+00  0.29427499379E+03  0.29427499379E+03  0.00000000000E+00 0. -1.
         21   -1    0    0  501  502  0.00000000000E+00 -0.00000000000E+00 -0.11715930860E+03  0.11715930860E+03  0.00000000000E+00 0. -1.
         23    2    1    2    0    0  0.53186425301E+02 -0.19877098062E+02  0.17332361435E+03  0.20360465959E+03  0.90497995830E+02 0.  0.
         23    2    1    2    0    0 -0.37476620102E+02  0.52135978840E+02  0.71384774156E+02  0.13130378501E+03  0.89566961732E+02 0.  0.
        -11    1    3    3    0    0  0.61820625469E+02 -0.47290962596E+02  0.13268369164E+03  0.15382843334E+03  0.00000000000E+00 0. -1.
         11    1    3    3    0    0 -0.86342001679E+01  0.27413864534E+02  0.40639922709E+02  0.49776226243E+02  0.00000000000E+00 0.  1.
        -13    1    4    4    0    0 -0.12189336417E+01  0.55460027337E+02  0.51381121372E+01  0.55710866334E+02  0.00000000000E+00 0. -1.
         13    1    4    4    0    0 -0.36257686460E+02 -0.33240484969E+01  0.66246662019E+02  0.75592918679E+02  0.00000000000E+00 0.  1.
          2    1    1    2  501    0 -0.15709805199E+02 -0.32258880778E+02 -0.67592703319E+02  0.76525857789E+02  0.00000000000E+00 0. -1.
<scales pt_clust_5="13000.00000" pt_clust_6="13000.00000" pt_clust_7="13000.00000" pt_clust_8="13000.00000" pt_clust_9="35.88082"></scales>
<clustering>
<clus scale="   35.881">  2  9  1 -1</clus>
<clus scale="   89.567">  7  8 -1 -1</clus>
<clus scale="   90.498">  5  6 -1 -1</clus>
<clus scale="  106.117">  2  7  1 -1</clus>
<clus scale="   35.881">  2  5  1 -1</clus>
</clustering>
</event>
<event>
 9    1  0.1671478E-005  0.2641128E+03  0.7546771E-02  0.1104809E+00
          2   -1    0    0  502    0 -0.00000000000E+00  0.00000000000E+00  0.14608741588E+04  0.14608741588E+04  0.00000000000E+00 0. -1.
         21   -1    0    0  501  502  0.00000000000E+00 -0.00000000000E+00 -0.10760881295E+03  0.10760881295E+03  0.00000000000E+00 0. -1.
         23    2    1    2    0    0 -0.18081910240E+03  0.16602418847E+03  0.10304461667E+04  0.10627589577E+04  0.85893659670E+02 0.  0.
         23    2    1    2    0    0  0.23247820284E+03 -0.12799898633E+03  0.33910340049E+03  0.43954430016E+03  0.88194219098E+02 0.  0.
        -11    1    4    4    0    0  0.11070941005E+03 -0.11086675561E+03  0.18806032149E+03  0.24477478524E+03  0.00000000000E+00 0.  1.
         11    1    4    4    0    0  0.12176879279E+03 -0.17132230724E+02  0.15104307901E+03  0.19476951492E+03  0.00000000000E+00 0. -1.
        -11    1    3    3    0    0 -0.47247503858E+02  0.95202236163E+02  0.50104098792E+03  0.51218928529E+03  0.00000000000E+00 0. -1.
         11    1    3    3    0    0 -0.13357159855E+03  0.70821952303E+02  0.52940517881E+03  0.55056967245E+03  0.00000000000E+00 0.  1.
          2    1    1    2  501    0 -0.51659100436E+02 -0.38025202134E+02 -0.16284221397E+02  0.66179713823E+02  0.00000000000E+00 0. -1.
<scales pt_clust_5="13000.00000" pt_clust_6="13000.00000" pt_clust_7="13000.00000" pt_clust_8="13000.00000" pt_clust_9="64.14498"></scales>
<clustering>
<clus scale="   64.145">  2  9  1 -1</clus>
<clus scale="   85.894">  7  8 -1 -1</clus>
<clus scale="   88.194">  5  6 -1 -1</clus>
<clus scale="  263.353">  1  7  2 -1</clus>
<clus scale="   64.145">  2  5  1 -1</clus>
</clustering>
</event>
<event>
 9    1  0.1767951E-005  0.1091536E+03  0.7546771E-02  0.1264950E+00
          2   -1    0    0  502    0 -0.00000000000E+00  0.00000000000E+00  0.25249340936E+03  0.25249340936E+03  0.00000000000E+00 0. -1.
         21   -1    0    0  501  502  0.00000000000E+00 -0.00000000000E+00 -0.19786823510E+03  0.19786823510E+03  0.00000000000E+00 0. -1.
         23    2    1    2    0    0  0.27363388856E+02  0.56744133843E+02  0.18101056884E+03  0.21423487125E+03  0.95724094413E+02 0.  0.
         23    2    1    2    0    0 -0.34585349308E+02 -0.71599037387E+01  0.45942704791E+01  0.95889740846E+02  0.89029907728E+02 0.  0.
        -11    1    4    4    0    0 -0.18816972800E+02 -0.48121672542E+02  0.57037485503E+01  0.51983714576E+02  0.00000000000E+00 0.  1.
         11    1    4    4    0    0 -0.15768376508E+02  0.40961768804E+02 -0.11094780712E+01  0.43906026270E+02  0.00000000000E+00 0. -1.
        -13    1    3    3    0    0 -0.18841376313E+02  0.30720390169E+02  0.14672814295E+03  0.15108900611E+03  0.00000000000E+00 0. -1.
         13    1    3    3    0    0  0.46204765168E+02  0.26023743675E+02  0.34282425890E+02  0.63145865138E+02  0.00000000000E+00 0.  1.
          2    1    1    2  501    0  0.72219604523E+01 -0.49584230104E+02 -0.13097966506E+03  0.14023703237E+03  0.00000000000E+00 0. -1.
<scales pt_clust_5="13000.00000" pt_clust_6="13000.00000" pt_clust_7="13000.00000" pt_clust_8="13000.00000" pt_clust_9="50.10741"></scales>
<clustering>
<clus scale="   50.107">  2  9  1 -1</clus>
<clus scale="   89.030">  5  6 -1 -1</clus>
<clus scale="   95.724">  7  8 -1 -1</clus>
<clus scale="  103.333">  2  5  1 -1</clus>
<clus scale="   50.107">  2  5  1 -1</clus>
</clustering>
</event>
<event>
 9    1  0.1671478E-005  0.9139519E+02  0.7546771E-02  0.1300524E+00
         -3   -1    0    0    0  501 -0.00000000000E+00  0.00000000000E+00  0.20459244167E+03  0.20459244167E+03  0.00000000000E+00 0.  1.
         21   -1    0    0  501  502  0.00000000000E+00 -0.00000000000E+00 -0.62384125411E+02  0.62384125411E+02  0.00000000000E+00 0.  1.
         23    2    1    2    0    0 -0.18246239579E+02 -0.98220675833E+01  0.11475153102E+03  0.14656418700E+03  0.88790476787E+02 0.  0.
         23    2    1    2    0    0 -0.17576473529E+01 -0.65238116654E+01  0.26567095995E+02  0.94564076313E+02  0.90503615930E+02 0.  0.
        -11    1    4    4    0    0 -0.42321116302E+02 -0.14312917580E+02  0.28875271817E+02  0.53195092040E+02  0.00000000000E+00 0. -1.
         11    1    4    4    0    0  0.40563468949E+02  0.77891059146E+01 -0.23081758221E+01  0.41368984272E+02  0.00000000000E+00 0.  1.
        -13    1    3    3    0    0 -0.11553199706E+02 -0.38202269169E+02  0.14997483312E+02  0.42635833506E+02  0.00000000000E+00 0.  1.
         13    1    3    3    0    0 -0.66930398731E+01  0.28380201586E+02  0.99754047713E+02  0.10392835349E+03  0.00000000000E+00 0. -1.
         -3    1    1    2    0  502  0.20003886932E+02  0.16345879249E+02  0.88968924099E+00  0.25848303769E+02  0.00000000000E+00 0.  1.
<scales pt_clust_5="13000.00000" pt_clust_6="13000.00000" pt_clust_7="13000.00000" pt_clust_8="13000.00000" pt_clust_9="25.83299"></scales>
<clustering>
<clus scale="   25.833">  2  9  1 -1</clus>
<clus scale="   88.790">  7  8 -1 -1</clus>
<clus scale="   89.699">  1  7  2 -1</clus>
<clus scale="   90.504">  5  6 -1 -1</clus>
<clus scale="   25.833">  2  5  1 -1</clus>
</clustering>
</event>
<event>
 9    1  0.1671478E-005  0.1081406E+03  0.7546771E-02  0.1267661E+00
         21   -1    0    0  501  502  0.00000000000E+00  0.00000000000E+00  0.56551811766E+02  0.56551811766E+02  0.00000000000E+00 0. -1.
         -2   -1    0    0    0  501 -0.00000000000E+00 -0.00000000000E+00 -0.29923571241E+03  0.29923571241E+03  0.00000000000E+00 0.  1.
         23    2    1    2    0    0  0.38397635516E+02 -0.20275587899E+02 -0.17711562020E+03  0.20639458525E+03  0.96660767760E+02 0.  0.
         23    2    1    2    0    0 -0.61714245801E+02  0.11086502776E+02 -0.46566744195E+02  0.11794199331E+03  0.88375864586E+02 0.  0.
        -11    1    4    4    0    0  0.22991081906E+02  0.88126147226E+00 -0.11107288756E+02  0.25548744245E+02  0.00000000000E+00 0.  1.
         11    1    4    4    0    0 -0.84705327707E+02  0.10205241303E+02 -0.35459455439E+02  0.92393249061E+02  0.00000000000E+00 0. -1.
        -13    1    3    3    0    0  0.10088686674E+02 -0.44266023703E+02 -0.29398905601E+02  0.54088428558E+02  0.00000000000E+00 0. -1.
         13    1    3    3    0    0  0.28308948842E+02  0.23990435804E+02 -0.14771671460E+03  0.15230615670E+03  0.00000000000E+00 0.  1.
         -2    1    1    2    0  502  0.23316610285E+02  0.91890851238E+01 -0.19001536249E+02  0.31450945620E+02  0.00000000000E+00 0.  1.
<scales pt_clust_5="13000.00000" pt_clust_6="13000.00000" pt_clust_7="13000.00000" pt_clust_8="13000.00000" pt_clust_9="25.06200"></scales>
<clustering>
<clus scale="   25.062">  1  9  2 -1</clus>
<clus scale="   88.376">  5  6 -1 -1</clus>
<clus scale="   96.661">  7  8 -1 -1</clus>
<clus scale="  100.804">  1  5  2 -1</clus>
<clus scale="   25.062">  1  5  2 -1</clus>
</clustering>
</event>
<event>
 9    1  0.1671478E-005  0.9352244E+02  0.7546771E-02  0.1305100E+00
         21   -1    0    0  501  502  0.00000000000E+00  0.00000000000E+00  0.78668215375E+02  0.78668215375E+02  0.00000000000E+00 0.  1.
         -4   -1    0    0    0  501 -0.00000000000E+00 -0.00000000000E+00 -0.33513792737E+03  0.33513792737E+03  0.00000000000E+00 0.  1.
         23    2    1    2    0    0  0.10819933137E+02 -0.31691548550E+02 -0.18970312394E+03  0.21295776562E+03  0.90787165950E+02 0.  0.
         23    2    1    2    0    0  0.13378971852E+02  0.13495565653E+02 -0.11856387078E+03  0.14085138309E+03  0.73624679860E+02 0.  0.
        -11    1    3    3    0    0  0.41130367412E+02  0.12571008504E+02 -0.89522376896E+02  0.99317638632E+02  0.00000000000E+00 0.  1.
         11    1    3    3    0    0 -0.30310434275E+02 -0.44262557054E+02 -0.10018074704E+03  0.11364012698E+03  0.00000000000E+00 0. -1.
        -11    1    4    4    0    0  0.12217334326E+02  0.43765215621E+02 -0.77240459901E+02  0.89614429654E+02  0.00000000000E+00 0.  1.
         11    1    4    4    0    0  0.11616375262E+01 -0.30269649969E+02 -0.41323410880E+02  0.51236953439E+02  0.00000000000E+00 0. -1.
         -4    1    1    2    0  502 -0.24198904989E+02  0.18195982897E+02  0.51797282722E+02  0.59996994039E+02  0.00000000000E+00 0.  1.
<scales pt_clust_5="13000.00000" pt_clust_6="13000.00000" pt_clust_7="13000.00000" pt_clust_8="13000.00000" pt_clust_9="30.27674"></scales>
<clustering>
<clus scale="   30.277">  1  9  2 -1</clus>
<clus scale="   73.625">  7  8 -1 -1</clus>
<clus scale="   76.972">  1  7  2 -1</clus>
<clus scale="   90.787">  5  6 -1 -1</clus>
<clus scale="   30.277">  1  5  2 -1</clus>
</clustering>
</event>
<event>
 9    1  0.1671478E-005  0.1030218E+03  0.7546771E-02  0.1274982E+00
         -1   -1    0    0    0  501 -0.00000000000E+00  0.00000000000E+00  0.26094127313E+03  0.26094127313E+03  0.00000000000E+00 0.  1.
         21   -1    0    0  501  502  0.00000000000E+00 -0.00000000000E+00 -0.52151544871E+02  0.52151544871E+02  0.00000000000E+00 0. -1.
         23    2    1    2    0    0 -0.42557505170E+01  0.51532632637E+02  0.11413212035E+03  0.15609095037E+03  0.93083404825E+02 0.  0.
         23    2    1    2    0    0  0.92932306030E+00 -0.25254684967E+02  0.69018011430E+02  0.12013745985E+03  0.95030840273E+02 0.  0.
        -11    1    4    4    0    0  0.24346945730E+02  0.29561892302E+02  0.21600865938E+02  0.43969041974E+02  0.00000000000E+00 0. -1.
         11    1    4    4    0    0 -0.23417622670E+02 -0.54816577268E+02  0.47417145493E+02  0.76168417875E+02  0.00000000000E+00 0.  1.
        -13    1    3    3    0    0 -0.11406091330E+02 -0.20059425433E+02  0.64981240260E+02  0.68956805711E+02  0.00000000000E+00 0.  1.
         13    1    3    3    0    0  0.71503408135E+01  0.71592058070E+02  0.49150880090E+02  0.87134144662E+02  0.00000000000E+00 0. -1.
         -1    1    1    2    0  502  0.33264274567E+01 -0.26277947670E+02  0.25639596479E+02  0.36864407781E+02  0.00000000000E+00 0.  1.
<scales pt_clust_5="13000.00000" pt_clust_6="13000.00000" pt_clust_7="13000.00000" pt_clust_8="13000.00000" pt_clust_9="26.48766"></scales>
<clustering>
<clus scale="   26.488">  2  9  1 -1</clus>
<clus scale="   93.083">  7  8 -1 -1</clus>
<clus scale="   95.031">  5  6 -1 -1</clus>
<clus scale="  101.228">  1  7  2 -1</clus>
<clus scale="   26.488">  2  5  1 -1</clus>
</clustering>
</event>
<event>
 9    1  0.1671478E-005  0.9730808E+02  0.7546771E-02  0.1287682E+00
          2   -1    0    0  502    0 -0.00000000000E+00  0.00000000000E+00  0.60604658086E+03  0.60604658086E+03  0.00000000000E+00 0. -1.
         21   -1    0    0  501  502  0.00000000000E+00 -0.00000000000E+00 -0.40879857133E+02  0.40879857133E+02  0.00000000000E+00 0.  1.
         23    2    1    2    0    0  0.12491145462E+02 -0.33188516051E+02  0.38439520236E+03  0.39650996217E+03  0.90570261074E+02 0.  0.
         23    2    1    2    0    0 -0.59212714058E+02  0.91516853186E+01  0.67772503796E+02  0.12579925319E+03  0.87421055718E+02 0.  0.
        -11    1    3    3    0    0 -0.19543299073E+02  0.24224811546E+02  0.14072398436E+03  0.14412502145E+03  0.00000000000E+00 0.  1.
         11    1    3    3    0    0  0.32034444535E+02 -0.57413327597E+02  0.24367121800E+03  0.25238494072E+03  0.00000000000E+00 0. -1.
        -13    1    4    4    0    0 -0.79908920754E+02  0.38365172957E+01  0.36525193096E+02  0.87944551916E+02  0.00000000000E+00 0.  1.
         13    1    4    4    0    0  0.20696206697E+02  0.53151680229E+01  0.31247310700E+02  0.37854701277E+02  0.00000000000E+00 0. -1.
          2    1    1    2  501    0  0.46721568596E+02  0.24036830733E+02  0.11299901757E+03  0.12461722263E+03  0.00000000000E+00 0. -1.
<scales pt_clust_5="13000.00000" pt_clust_6="13000.00000" pt_clust_7="13000.00000" pt_clust_8="13000.00000" pt_clust_9="52.54214"></scales>
<clustering>
<clus scale="   52.542">  2  9  1 -1</clus>
<clus scale="   87.421">  7  8 -1 -1</clus>
<clus scale="   90.570">  5  6 -1 -1</clus>
<clus scale="   94.384">  2  7  1 -1</clus>
<clus scale="   52.542">  2  5  1 -1</clus>
</clustering>
</event>
<event>
 9    1  0.1671478E-005  0.1292803E+03  0.7546771E-02  0.1234656E+00
         21   -1    0    0  501  502  0.00000000000E+00  0.00000000000E+00  0.24447973621E+02  0.24447973621E+02  0.00000000000E+00 0.  1.
          2   -1    0    0  502    0 -0.00000000000E+00 -0.00000000000E+00 -0.85059977217E+03  0.85059977217E+03  0.00000000000E+00 0. -1.
         23    2    1    2    0    0 -0.99706614794E-01  0.81890711030E+02 -0.44926454874E+03  0.46458399774E+03  0.85402328453E+02 0.  0.
         23    2    1    2    0    0 -0.20336122919E+02 -0.65259499998E+02 -0.35417239828E+03  0.37567603774E+03  0.10498589139E+03 0.  0.
        -13    1    4    4    0    0 -0.38325485280E+01 -0.90808022932E+02 -0.21875731028E+03  0.23688720155E+03  0.00000000000E+00 0.  1.
         13    1    4    4    0    0 -0.16503574391E+02  0.25548522935E+02 -0.13541508800E+03  0.13878883619E+03  0.00000000000E+00 0. -1.
        -13    1    3    3    0    0 -0.30112477546E+02  0.22879530522E+00 -0.88740535213E+02  0.93710705051E+02  0.00000000000E+00 0.  1.
         13    1    3    3    0    0  0.30012770932E+02  0.81661915724E+02 -0.36052401353E+03  0.37087329269E+03  0.00000000000E+00 0. -1.
          2    1    1    2  501    0  0.20435829534E+02 -0.16631211032E+02 -0.22714851526E+02  0.34787710316E+02  0.00000000000E+00 0. -1.
<scales pt_clust_5="13000.00000" pt_clust_6="13000.00000" pt_clust_7="13000.00000" pt_clust_8="13000.00000" pt_clust_9="26.34806"></scales>
<clustering>
<clus scale="   26.348">  1  9  2 -1</clus>
<clus scale="   85.402">  7  8 -1 -1</clus>
<clus scale="  104.986">  5  6 -1 -1</clus>
<clus scale="  113.951">  2  7  1 -1</clus>
<clus scale="   26.348">  1  5  2 -1</clus>
</clustering>
</event>
<event>
 9    1  0.1671478E-005  0.1876833E+03  0.7546771E-02  0.1186519E+00
         21   -1    0    0  501  502  0.00000000000E+00  0.00000000000E+00  0.72768668405E+02  0.72768668405E+02  0.00000000000E+00 0. -1.
          1   -1    0    0  502    0 -0.00000000000E+00 -0.00000000000E+00 -0.12286513201E+04  0.12286513201E+04  0.00000000000E+00 0. -1.
         23    2    1    2    0    0 -0.47191577602E+02  0.10410518882E+02 -0.31894530573E+03  0.33548459605E+03  0.92132416882E+02 0.  0.
         23    2    1    2    0    0 -0.98257587550E+02 -0.97398850096E+02 -0.76359868724E+03  0.78127086343E+03  0.90333367958E+02 0.  0.
        -11    1    4    4    0    0 -0.11537670421E+03 -0.77931506157E+02 -0.63483923252E+03  0.64992765342E+03  0.00000000000E+00 0. -1.
         11    1    4    4    0    0  0.17119116661E+02 -0.19467343939E+02 -0.12875945472E+03  0.13134321001E+03  0.00000000000E+00 0.  1.
        -11    1    3    3    0    0 -0.48629940858E+02  0.45546399778E+02 -0.17363309201E+03  0.18597794579E+03  0.00000000000E+00 0.  1.
         11    1    3    3    0    0  0.14383632558E+01 -0.35135880896E+02 -0.14531221372E+03  0.14950665026E+03  0.00000000000E+00 0. -1.
          1    1    1    2  501    0  0.14544916515E+03  0.86988331214E+02 -0.73338658691E+02  0.18466452900E+03  0.00000000000E+00 0. -1.
<scales pt_clust_5="13000.00000" pt_clust_6="13000.00000" pt_clust_7="13000.00000" pt_clust_8="13000.00000" pt_clust_9="164.51410"></scales>
<clustering>
<clus scale="   90.333">  5  6 -1 -1</clus>
<clus scale="   92.132">  7  8 -1 -1</clus>
<clus scale="  104.038">  2  7  1 -1</clus>
<clus scale="  164.514">  1  9  2 -1</clus>
<clus scale="  164.514">  1  5  2 -1</clus>
</clustering>
</event>
<event>
 9    1  0.1671478E-005  0.1857152E+03  0.7546771E-02  0.1162904E+00
         21   -1    0    0  501  502  0.00000000000E+00  0.00000000000E+00  0.73664296286E+02  0.73664296286E+02  0.00000000000E+00 0. -1.
          1   -1    0    0  502    0 -0.00000000000E+00 -0.00000000000E+00 -0.63521029416E+03  0.63521029416E+03  0.00000000000E+00 0. -1.
         23    2    1    2    0    0  0.14020653347E+03  0.51351156331E+02 -0.32692275802E+03  0.36982970553E+03  0.87182039989E+02 0.  0.
         23    2    1    2    0    0 -0.17316554298E+03 -0.68250492228E+02 -0.20371919718E+03  0.29080647993E+03  0.91773975099E+02 0.  0.
        -11    1    3    3    0    0  0.12240764937E+03  0.41582556320E+02 -0.32459686674E+03  0.34939357108E+03  0.00000000000E+00 0.  1.
         11    1    3    3    0    0  0.17798884096E+02  0.97686000105E+01 -0.23258912885E+01  0.20436134456E+02  0.00000000000E+00 0. -1.
        -13    1    4    4    0    0 -0.16010939419E+03 -0.85953769339E+02 -0.16112184726E+03  0.24286481474E+03  0.00000000000E+00 0. -1.
         13    1    4    4    0    0 -0.13056148790E+02  0.17703277112E+02 -0.42597349915E+02  0.47941665193E+02  0.00000000000E+00 0.  1.
          1    1    1    2  501    0  0.32959009514E+02  0.16899335897E+02 -0.30904042670E+02  0.48238404982E+02  0.00000000000E+00 0. -1.
<scales pt_clust_5="13000.00000" pt_clust_6="13000.00000" pt_clust_7="13000.00000" pt_clust_8="13000.00000" pt_clust_9="37.03895"></scales>
<clustering>
<clus scale="   37.039">  1  9  2 -1</clus>
<clus scale="   87.182">  5  6 -1 -1</clus>
<clus scale="   91.774">  7  8 -1 -1</clus>
<clus scale="  183.489">  2  5  1 -1</clus>
<clus scale="   37.039">  1  5  2 -1</clus>
</clustering>
</event>
<event>
 9    1  0.1671478E-005  0.1000455E+03  0.7546771E-02  0.1281931E+00
         -2   -1    0    0    0  501 -0.00000000000E+00  0.00000000000E+00  0.11351786529E+03  0.11351786529E+03  0.00000000000E+00 0.  1.
         21   -1    0    0  501  502  0.00000000000E+00 -0.00000000000E+00 -0.11729954022E+03  0.11729954022E+03  0.00000000000E+00 0.  1.
         23    2    1    2    0    0  0.14806142661E+01  0.19906337958E+02 -0.47593639363E+01  0.97093420254E+02  0.94900085363E+02 0.  0.
         23    2    1    2    0    0  0.22970376508E+02 -0.39627154375E+02  0.83065241933E+00  0.10231088018E+03  0.91481564590E+02 0.  0.
        -11    1    3    3    0    0 -0.31474856785E+02 -0.25390642950E+02  0.29580816324E+01  0.40547522810E+02  0.00000000000E+00 0.  1.
         11    1    3    3    0    0  0.32955471052E+02  0.45296980908E+02 -0.77174455688E+01  0.56545897444E+02  0.00000000000E+00 0. -1.
        -13    1    4    4    0    0  0.35882006731E+02  0.19587030018E+02 -0.60144564144E+01  0.41320017400E+02  0.00000000000E+00 0.  1.
         13    1    4    4    0    0 -0.12911630223E+02 -0.59214184393E+02  0.68451088338E+01  0.60990862785E+02  0.00000000000E+00 0. -1.
         -2    1    1    2    0  502 -0.24450990774E+02  0.19720816417E+02  0.14703658633E+00  0.31413105064E+02  0.00000000000E+00 0.  1.
<scales pt_clust_5="13000.00000" pt_clust_6="13000.00000" pt_clust_7="13000.00000" pt_clust_8="13000.00000" pt_clust_9="31.41278"></scales>
<clustering>
<clus scale="   31.413">  2  9  1 -1</clus>
<clus scale="   91.482">  7  8 -1 -1</clus>
<clus scale="   94.900">  5  6 -1 -1</clus>
<clus scale="   96.809">  2  7  1 -1</clus>
<clus scale="   31.413">  2  5  1 -1</clus>
</clustering>
</event>
<event>
 9    1  0.1671478E-005  0.9778968E+02  0.7546771E-02  0.1286855E+00
         21   -1    0    0  501  502  0.00000000000E+00  0.00000000000E+00  0.68237401759E+02  0.68237401759E+02  0.00000000000E+00 0.  1.
          4   -1    0    0  502    0 -0.00000000000E+00 -0.00000000000E+00 -0.19718753781E+03  0.19718753781E+03  0.00000000000E+00 0. -1.
         23    2    1    2    0    0 -0.15506966782E+02 -0.30981753437E+02 -0.80666382144E+02  0.12724352963E+03  0.92106001751E+02 0.  0.
         23    2    1    2    0    0  0.33728735447E+02  0.12656299515E+02 -0.56516630750E+02  0.11105881096E+03  0.88555747572E+02 0.  0.
        -13    1    3    3    0    0 -0.37042309410E+02 -0.53270634040E+02 -0.40410064114E+02  0.76438644802E+02  0.00000000000E+00 0.  1.
         13    1    3    3    0    0  0.21535342628E+02  0.22288880603E+02 -0.40256318030E+02  0.50804884824E+02  0.00000000000E+00 0. -1.
        -13    1    4    4    0    0  0.46038138725E+01 -0.37354964590E+02 -0.19908828771E+02  0.42578749920E+02  0.00000000000E+00 0.  1.
         13    1    4    4    0    0  0.29124921575E+02  0.50011264105E+02 -0.36607801979E+02  0.68480061039E+02  0.00000000000E+00 0. -1.
          4    1    1    2  501    0 -0.18221768665E+02  0.18325453921E+02  0.82328768405E+01  0.27122598986E+02  0.00000000000E+00 0. -1.
<scales pt_clust_5="13000.00000" pt_clust_6="13000.00000" pt_clust_7="13000.00000" pt_clust_8="13000.00000" pt_clust_9="25.84289"></scales>
<clustering>
<clus scale="   25.843">  1  9  2 -1</clus>
<clus scale="   88.556">  7  8 -1 -1</clus>
<clus scale="   92.106">  5  6 -1 -1</clus>
<clus scale="   94.453">  1  7  2 -1</clus>
<clus scale="   25.843">  1  5  2 -1</clus>
</clustering>
</event>
<event>
 9    1  0.1671478E-005  0.9707709E+02  0.7546771E-02  0.1287755E+00
         21   -1    0    0  501  502  0.00000000000E+00  0.00000000000E+00  0.40676426677E+03  0.40676426677E+03  0.00000000000E+00 0. -1.
          4   -1    0    0  502    0 -0.00000000000E+00 -0.00000000000E+00 -0.86270984598E+02  0.86270984598E+02  0.00000000000E+00 0. -1.
         23    2    1    2    0    0  0.43763400082E+01  0.35590539207E+02 -0.28177231881E+02  0.10154023030E+03  0.90722781809E+02 0.  0.
         23    2    1    2    0    0 -0.14187094581E+02 -0.17601305138E+01  0.89154027498E+02  0.12959894578E+03  0.92968136567E+02 0.  0.
        -13    1    3    3    0    0 -0.82808477230E+01 -0.28173197154E+02 -0.21076338583E+02  0.36145726234E+02  0.00000000000E+00 0.  1.
         13    1    3    3    0    0  0.12657187731E+02  0.63763736361E+02 -0.71008932984E+01  0.65394504063E+02  0.00000000000E+00 0. -1.
        -13    1    4    4    0    0  0.10457911582E+01 -0.24910260934E+02  0.97515831692E+02  0.10065263141E+03  0.00000000000E+00 0.  1.
         13    1    4    4    0    0 -0.15232885740E+02  0.23150130420E+02 -0.83618041943E+01  0.28946314373E+02  0.00000000000E+00 0. -1.
          4    1    1    2  501    0  0.98107545732E+01 -0.33830408693E+02  0.25951648655E+03  0.26189607529E+03  0.00000000000E+00 0. -1.
<scales pt_clust_5="13000.00000" pt_clust_6="13000.00000" pt_clust_7="13000.00000" pt_clust_8="13000.00000" pt_clust_9="35.22425"></scales>
<clustering>
<clus scale="   35.224">  1  9  2 -1</clus>
<clus scale="   90.723">  5  6 -1 -1</clus>
<clus scale="   92.968">  7  8 -1 -1</clus>
<clus scale="   94.929">  2  5  1 -1</clus>
<clus scale="   35.224">  1  5  2 -1</clus>
</clustering>
</event>
<event>
 9    1  0.1671478E-005  0.1095014E+03  0.7546771E-02  0.1263851E+00
         21   -1    0    0  501  502  0.00000000000E+00  0.00000000000E+00  0.26870972918E+03  0.26870972918E+03  0.00000000000E+00 0. -1.
         -3   -1    0    0    0  501 -0.00000000000E+00 -0.00000000000E+00 -0.16582649529E+03  0.16582649529E+03  0.00000000000E+00 0.  1.
         23    2    1    2    0    0  0.39347948404E+02  0.33846322891E+02 -0.12442249855E+03  0.16219437876E+03  0.90178843079E+02 0.  0.
         23    2    1    2    0    0 -0.30667961663E+02 -0.58586120004E+02  0.14506662578E+03  0.18602457979E+03  0.95853852508E+02 0.  0.
        -13    1    4    4    0    0  0.20576288542E+02  0.15774354251E+02  0.27785787903E+02  0.38003472362E+02  0.00000000000E+00 0.  1.
         13    1    4    4    0    0 -0.51244250205E+02 -0.74360474255E+02  0.11728083787E+03  0.14802110742E+03  0.00000000000E+00 0. -1.
        -13    1    3    3    0    0  0.42954592096E+02 -0.20077929003E+02 -0.40406950273E+02  0.62297205760E+02  0.00000000000E+00 0. -1.
         13    1    3    3    0    0 -0.36066436920E+01  0.53924251894E+02 -0.84015548279E+02  0.99897173001E+02  0.00000000000E+00 0.  1.
         -3    1    1    2    0  502 -0.86799867404E+01  0.24739797113E+02  0.82239106668E+02  0.86317265924E+02  0.00000000000E+00 0.  1.
<scales pt_clust_5="13000.00000" pt_clust_6="13000.00000" pt_clust_7="13000.00000" pt_clust_8="13000.00000" pt_clust_9="26.21831"></scales>
<clustering>
<clus scale="   26.218">  1  9  2 -1</clus>
<clus scale="   90.179">  7  8 -1 -1</clus>
<clus scale="   95.854">  5  6 -1 -1</clus>
<clus scale="  104.570">  2  7  1 -1</clus>
<clus scale="   26.218">  1  5  2 -1</clus>
</clustering>
</event>
<event>
 9    1  0.1671478E-005  0.1537109E+03  0.7546771E-02  0.1196478E+00
         21   -1    0    0  501  502  0.00000000000E+00  0.00000000000E+00  0.30456261281E+03  0.30456261281E+03  0.00000000000E+00 0. -1.
          2   -1    0    0  502    0 -0.00000000000E+00 -0.00000000000E+00 -0.31084476265E+03  0.31084476265E+03  0.00000000000E+00 0. -1.
         23    2    1    2    0    0 -0.95661932926E+02 -0.10804205228E+03 -0.19210822647E+03  0.25687687561E+03  0.90861807565E+02 0.  0.
         23    2    1    2    0    0  0.36447586025E+02  0.88179754859E+02 -0.30500998641E+02  0.13336777374E+03  0.88048602829E+02 0.  0.
        -11    1    4    4    0    0  0.70956297673E+01  0.96433730574E+02 -0.11341397177E+02  0.97357278331E+02  0.00000000000E+00 0.  1.
         11    1    4    4    0    0  0.29351956258E+02 -0.82539757153E+01 -0.19159601464E+02  0.36010495408E+02  0.00000000000E+00 0. -1.
        -13    1    3    3    0    0 -0.64113161177E+02 -0.10399125633E+02 -0.51951874988E+02  0.83172330524E+02  0.00000000000E+00 0.  1.
         13    1    3    3    0    0 -0.31548771750E+02 -0.97642926645E+02 -0.14015635148E+03  0.17370454509E+03  0.00000000000E+00 0. -1.
          2    1    1    2  501    0  0.59214346901E+02  0.19862297420E+02  0.21632707527E+03  0.22516272612E+03  0.00000000000E+00 0. -1.
<scales pt_clust_5="13000.00000" pt_clust_6="13000.00000" pt_clust_7="13000.00000" pt_clust_8="13000.00000" pt_clust_9="62.45678"></scales>
<clustering>
<clus scale="   62.457">  1  9  2 -1</clus>
<clus scale="   88.049">  5  6 -1 -1</clus>
<clus scale="   90.862">  7  8 -1 -1</clus>
<clus scale="  152.065">  1  5  2 -1</clus>
<clus scale="   62.457">  1  5  2 -1</clus>
</clustering>
</event>
<event>
 9    1  0.1671478E-005  0.1146650E+03  0.7546771E-02  0.1252511E+00
         21   -1    0    0  501  502  0.00000000000E+00  0.00000000000E+00  0.11019747425E+03  0.11019747425E+03  0.00000000000E+00 0.  1.
          2   -1    0    0  502    0 -0.00000000000E+00 -0.00000000000E+00 -0.28245567235E+03  0.28245567235E+03  0.00000000000E+00 0.  1.
         23    2    1    2    0    0  0.44780079520E+02  0.16062226413E+02 -0.97655044155E+02  0.14167701769E+03  0.90953939187E+02 0.  0.
         23    2    1    2    0    0 -0.89145869382E+02 -0.35937078385E+02 -0.12387772777E+03  0.18175679145E+03  0.91931388388E+02 0.  0.
        -11    1    3    3    0    0  0.69366537231E+02  0.26754640086E+00 -0.49026525191E+02  0.84943441423E+02  0.00000000000E+00 0. -1.
         11    1    3    3    0    0 -0.24586457711E+02  0.15794680012E+02 -0.48628518964E+02  0.56733576267E+02  0.00000000000E+00 0.  1.
        -13    1    4    4    0    0  0.86342737875E+01 -0.33954389761E+02 -0.36771141676E+02  0.50789448984E+02  0.00000000000E+00 0. -1.
         13    1    4    4    0    0 -0.97780143169E+02 -0.19826886234E+01 -0.87106586095E+02  0.13096734247E+03  0.00000000000E+00 0.  1.
          2    1    1    2  501    0  0.44365789862E+02  0.19874851972E+02  0.49274573832E+02  0.69219337452E+02  0.00000000000E+00 0.  1.
<scales pt_clust_5="13000.00000" pt_clust_6="13000.00000" pt_clust_7="13000.00000" pt_clust_8="13000.00000" pt_clust_9="48.61412"></scales>
<clustering>
<clus scale="   48.614">  1  9  2 -1</clus>
<clus scale="   90.954">  5  6 -1 -1</clus>
<clus scale="   91.931">  7  8 -1 -1</clus>
<clus scale="  113.883">  2  5  1 -1</clus>
<clus scale="   48.614">  1  5  2 -1</clus>
</clustering>
</event>
<event>
 9    1  0.1671478E-005  0.1204277E+03  0.7546771E-02  0.1246859E+00
         21   -1    0    0  501  502  0.00000000000E+00  0.00000000000E+00  0.22998113445E+03  0.22998113445E+03  0.00000000000E+00 0. -1.
          1   -1    0    0  502    0 -0.00000000000E+00 -0.00000000000E+00 -0.89282736824E+03  0.89282736824E+03  0.00000000000E+00 0. -1.
         23    2    1    2    0    0 -0.82390609835E+02 -0.55978757336E+02 -0.65087706750E+03  0.66648213994E+03  0.10312929754E+03 0.  0.
         23    2    1    2    0    0  0.13957295512E+02  0.95947144795E+01 -0.21668153655E+03  0.23555101884E+03  0.90810404408E+02 0.  0.
        -13    1    4    4    0    0 -0.33470420024E+01 -0.39127685295E+02 -0.11423303347E+03  0.12079472001E+03  0.00000000000E+00 0. -1.
         13    1    4    4    0    0  0.17304337514E+02  0.48722399774E+02 -0.10244850308E+03  0.11475629882E+03  0.00000000000E+00 0.  1.
        -13    1    3    3    0    0 -0.31929272368E+02  0.29917385524E+02 -0.19712308740E+03  0.20192087554E+03  0.00000000000E+00 0. -1.
         13    1    3    3    0    0 -0.50461337467E+02 -0.85896142860E+02 -0.45375398009E+03  0.46456126441E+03  0.00000000000E+00 0.  1.
          1    1    1    2  501    0  0.68433314323E+02  0.46384042856E+02  0.20471237026E+03  0.22077534391E+03  0.00000000000E+00 0. -1.
<scales pt_clust_5="13000.00000" pt_clust_6="13000.00000" pt_clust_7="13000.00000" pt_clust_8="13000.00000" pt_clust_9="82.67163"></scales>
<clustering>
<clus scale="   82.672">  1  9  2 -1</clus>
<clus scale="   90.810">  5  6 -1 -1</clus>
<clus scale="  103.129">  7  8 -1 -1</clus>
<clus scale="  110.062">  1  5  2 -1</clus>
<clus scale="   82.672">  1  5  2 -1</clus>
</clustering>
</event>
<event>
 9    1  0.1671478E-005  0.9290500E+02  0.7546771E-02  0.1296275E+00
         -3   -1    0    0    0  501 -0.00000000000E+00  0.00000000000E+00  0.25175200983E+03  0.25175200983E+03  0.00000000000E+00 0.  1.
         21   -1    0    0  501  502  0.00000000000E+00 -0.00000000000E+00 -0.13671053445E+03  0.13671053445E+03  0.00000000000E+00 0.  1.
         23    2    1    2    0    0 -0.22822055425E+02  0.31520373148E+01  0.15865241453E+03  0.18494163534E+03  0.92206498118E+02 0.  0.
         23    2    1    2    0    0 -0.13261436219E+02  0.34444083737E+01  0.48330695480E+02  0.10453204268E+03  0.91669854271E+02 0.  0.
        -11    1    3    3    0    0 -0.19967258077E+01  0.44588833024E+02  0.10457745137E+03  0.11370397654E+03  0.00000000000E+00 0.  1.
         11    1    3    3    0    0 -0.20825329617E+02 -0.41436795709E+02  0.54074963156E+02  0.71237658809E+02  0.00000000000E+00 0. -1.
        -11    1    4    4    0    0 -0.46339434153E+02 -0.21574754342E+02  0.29068832540E+02  0.58803147941E+02  0.00000000000E+00 0. -1.
         11    1    4    4    0    0  0.33077997934E+02  0.25019162716E+02  0.19261862940E+02  0.45728894741E+02  0.00000000000E+00 0.  1.
         -3    1    1    2    0  502  0.36083491643E+02 -0.65964456885E+01 -0.91941634622E+02  0.98988866252E+02  0.00000000000E+00 0.  1.
<scales pt_clust_5="13000.00000" pt_clust_6="13000.00000" pt_clust_7="13000.00000" pt_clust_8="13000.00000" pt_clust_9="36.68149"></scales>
<clustering>
<clus scale="   36.681">  2  9  1 -1</clus>
<clus scale="   91.670">  7  8 -1 -1</clus>
<clus scale="   92.206">  5  6 -1 -1</clus>
<clus scale="   92.372">  2  7  1 -1</clus>
<clus scale="   36.681">  2  5  1 -1</clus>
</clustering>
</event>
<event>
 9    1  0.1671478E-005  0.1766313E+03  0.7546771E-02  0.1198121E+00
         21   -1    0    0  501  502  0.00000000000E+00  0.00000000000E+00  0.78755015397E+03  0.78755015397E+03  0.00000000000E+00 0. -1.
         -1   -1    0    0    0  501 -0.00000000000E+00 -0.00000000000E+00 -0.61524337861E+02  0.61524337861E+02  0.00000000000E+00 0.  1.
         23    2    1    2    0    0  0.29257459139E+02 -0.62607271487E+01  0.14781780727E+03  0.17663135513E+03  0.91942024401E+02 0.  0.
         23    2    1    2    0    0  0.60141894936E+02 -0.13027802151E+03  0.37428885279E+03  0.41125719412E+03  0.91928907195E+02 0.  0.
        -11    1    4    4    0    0  0.69452306768E+02 -0.10822401880E+03  0.36238057066E+03  0.38452014142E+03  0.00000000000E+00 0. -1.
         11    1    4    4    0    0 -0.93104118324E+01 -0.22054002710E+02  0.11908282123E+02  0.26737052701E+02  0.00000000000E+00 0.  1.
        -11    1    3    3    0    0  0.35799735446E+02  0.17600219004E+02  0.16779048968E+02  0.43277306423E+02  0.00000000000E+00 0. -1.
         11    1    3    3    0    0 -0.65422763068E+01 -0.23860946153E+02  0.13103875830E+03  0.13335404871E+03  0.00000000000E+00 0.  1.
         -1    1    1    2    0  502 -0.89399354075E+02  0.13653874866E+03  0.20391915606E+03  0.26118594258E+03  0.00000000000E+00 0.  1.
<scales pt_clust_5="13000.00000" pt_clust_6="13000.00000" pt_clust_7="13000.00000" pt_clust_8="13000.00000" pt_clust_9="150.82349"></scales>
<clustering>
<clus scale="   91.929">  5  6 -1 -1</clus>
<clus scale="   91.942">  7  8 -1 -1</clus>
<clus scale="   96.688">  2  7  1 -1</clus>
<clus scale="  150.823">  1  9  2 -1</clus>
<clus scale="  150.823">  1  5  2 -1</clus>
</clustering>
</event>
<event>
 9    1  0.1671478E-005  0.1066753E+03  0.7546771E-02  0.1267457E+00
         21   -1    0    0  501  502  0.00000000000E+00  0.00000000000E+00  0.39212319456E+03  0.39212319456E+03  0.00000000000E+00 0. -1.
          2   -1    0    0  502    0 -0.00000000000E+00 -0.00000000000E+00 -0.13825268709E+03  0.13825268709E+03  0.00000000000E+00 0. -1.
         23    2    1    2    0    0 -0.64250740236E+02 -0.81574963407E+01 -0.83704020746E+02  0.13936521795E+03  0.90673030812E+02 0.  0.
         23    2    1    2    0    0  0.18771818263E+02 -0.12454752625E+02  0.67604453336E+02  0.11646187300E+03  0.92116793947E+02 0.  0.
        -13    1    3    3    0    0 -0.32483616137E+02 -0.25300791155E+00 -0.98295891145E+02  0.10352454562E+03  0.00000000000E+00 0. -1.
         13    1    3    3    0    0 -0.31767124099E+02 -0.79044884291E+01  0.14591870399E+02  0.35840672323E+02  0.00000000000E+00 0.  1.
        -13    1    4    4    0    0  0.37532744378E+02 -0.21588926958E+02  0.80872712531E+02  0.91734313644E+02  0.00000000000E+00 0.  1.
         13    1    4    4    0    0 -0.18760926115E+02  0.91341743336E+01 -0.13268259195E+02  0.24727559352E+02  0.00000000000E+00 0. -1.
          2    1    1    2  501    0  0.45478921972E+02  0.20612248965E+02  0.26997007488E+03  0.27454879071E+03  0.00000000000E+00 0. -1.
<scales pt_clust_5="13000.00000" pt_clust_6="13000.00000" pt_clust_7="13000.00000" pt_clust_8="13000.00000" pt_clust_9="49.93193"></scales>
<clustering>
<clus scale="   49.932">  1  9  2 -1</clus>
<clus scale="   90.673">  5  6 -1 -1</clus>
<clus scale="   92.117">  7  8 -1 -1</clus>
<clus scale="  105.431">  2  5  1 -1</clus>
<clus scale="   49.932">  1  5  2 -1</clus>
</clustering>
</event>
<event>
 9    1  0.1671478E-005  0.9262130E+02  0.7546771E-02  0.1297041E+00
          1   -1    0    0  502    0 -0.00000000000E+00  0.00000000000E+00  0.32885443071E+03  0.32885443071E+03  0.00000000000E+00 0. -1.
         21   -1    0    0  501  502  0.00000000000E+00 -0.00000000000E+00 -0.10289849074E+03  0.10289849074E+03  0.00000000000E+00 0. -1.
         23    2    1    2    0    0 -0.65992518473E+01  0.47713373251E+02  0.17610875321E+03  0.20284304310E+03  0.88379245665E+02 0.  0.
         23    2    1    2    0    0  0.17159899130E+02  0.40744953715E+00  0.11602298683E+03  0.14640910640E+03  0.87633696781E+02 0.  0.
        -11    1    3    3    0    0  0.38814635563E+02  0.12106776023E+02  0.94658119023E+02  0.10302091757E+03  0.00000000000E+00 0.  1.
         11    1    3    3    0    0 -0.45413887410E+02  0.35606597229E+02  0.81450634188E+02  0.99822125531E+02  0.00000000000E+00 0. -1.
        -11    1    4    4    0    0 -0.32888592918E+02 -0.14749614738E+02  0.58101571073E+02  0.68373995350E+02  0.00000000000E+00 0.  1.
         11    1    4    4    0    0  0.50048492047E+02  0.15157064275E+02  0.57921415754E+02  0.78035111050E+02  0.00000000000E+00 0. -1.
          1    1    1    2  501    0 -0.10560647283E+02 -0.48120822788E+02 -0.66175800068E+02  0.82500771945E+02  0.00000000000E+00 0. -1.
<scales pt_clust_5="13000.00000" pt_clust_6="13000.00000" pt_clust_7="13000.00000" pt_clust_8="13000.00000" pt_clust_9="49.26602"></scales>
<clustering>
<clus scale="   49.266">  2  9  1 -1</clus>
<clus scale="   87.634">  7  8 -1 -1</clus>
<clus scale="   88.379">  5  6 -1 -1</clus>
<clus scale="   91.910">  2  7  1 -1</clus>
<clus scale="   49.266">  2  5  1 -1</clus>
</clustering>
</event>
<event>
 9    1  0.1671478E-005  0.1035703E+03  0.7546771E-02  0.1274370E+00
         21   -1    0    0  501  502  0.00000000000E+00  0.00000000000E+00  0.33367523956E+02  0.33367523956E+02  0.00000000000E+00 0.  1.
          3   -1    0    0  502    0 -0.00000000000E+00 -0.00000000000E+00 -0.44035168704E+03  0.44035168704E+03  0.00000000000E+00 0. -1.
         23    2    1    2    0    0 -0.47145763365E+02 -0.30081898388E+02 -0.22284146464E+03  0.24791995742E+03  0.93157626158E+02 0.  0.
         23    2    1    2    0    0  0.30656448082E+02  0.62471324709E+01 -0.10662938478E+03  0.14304475291E+03  0.90072921367E+02 0.  0.
        -11    1    4    4    0    0  0.16805435946E+02 -0.40792472098E+02 -0.65872120264E+02  0.79281679380E+02  0.00000000000E+00 0. -1.
         11    1    4    4    0    0  0.13851012136E+02  0.47039604569E+02 -0.40757264515E+02  0.63763073530E+02  0.00000000000E+00 0.  1.
        -11    1    3    3    0    0 -0.29423494345E+02  0.21633054387E+02 -0.29345009942E+02  0.46849340125E+02  0.00000000000E+00 0.  1.
         11    1    3    3    0    0 -0.17722269020E+02 -0.51714952775E+02 -0.19349645470E+03  0.20107061730E+03  0.00000000000E+00 0. -1.
          3    1    1    2  501    0  0.16489315283E+02  0.23834765917E+02 -0.77513313663E+02  0.82754500662E+02  0.00000000000E+00 0. -1.
<scales pt_clust_5="13000.00000" pt_clust_6="13000.00000" pt_clust_7="13000.00000" pt_clust_8="13000.00000" pt_clust_9="28.98266"></scales>
<clustering>
<clus scale="   28.983">  1  9  2 -1</clus>
<clus scale="   90.073">  5  6 -1 -1</clus>
<clus scale="   93.158">  7  8 -1 -1</clus>
<clus scale="  100.805">  1  5  2 -1</clus>
<clus scale="   28.983">  1  5  2 -1</clus>
</clustering>
</event>
<event>
 9    1  0.1671478E-005  0.9671355E+02  0.7546771E-02  0.1287794E+00
          2   -1    0    0  502    0 -0.00000000000E+00  0.00000000000E+00  0.44494273122E+03  0.44494273122E+03  0.00000000000E+00 0. -1.
         21   -1    0    0  501  502  0.00000000000E+00 -0.00000000000E+00 -0.11195400840E+03  0.11195400840E+03  0.00000000000E+00 0. -1.
         23    2    1    2    0    0 -0.43866339813E+02  0.16812784242E+02  0.37014009728E+03  0.38361502773E+03  0.89162056980E+02 0.  0.
         23    2    1    2    0    0 -0.14076704126E+02  0.10669733849E+02  0.14135823173E+02  0.91165563763E+02  0.88313881695E+02 0.  0.
        -11    1    3    3    0    0 -0.40015872411E+02  0.46629326551E+02  0.31376017717E+03  0.31972021037E+03  0.00000000000E+00 0. -1.
         11    1    3    3    0    0 -0.38504674021E+01 -0.29816542309E+02  0.56379920107E+02  0.63894817362E+02  0.00000000000E+00 0.  1.
        -13    1    4    4    0    0  0.20809377365E+02 -0.27215081064E+02  0.19443796892E+02  0.39392284286E+02  0.00000000000E+00 0.  1.
         13    1    4    4    0    0 -0.34886081491E+02  0.37884814914E+02 -0.53079737188E+01  0.51773279477E+02  0.00000000000E+00 0. -1.
          2    1    1    2  501    0  0.57943043939E+02 -0.27482518092E+02 -0.51287197631E+02  0.82116148122E+02  0.00000000000E+00 0. -1.
<scales pt_clust_5="13000.00000" pt_clust_6="13000.00000" pt_clust_7="13000.00000" pt_clust_8="13000.00000" pt_clust_9="64.13022"></scales>
<clustering>
<clus scale="   64.130">  2  9  1 -1</clus>
<clus scale="   88.314">  7  8 -1 -1</clus>
<clus scale="   89.162">  5  6 -1 -1</clus>
<clus scale="   95.932">  2  7  1 -1</clus>
<clus scale="   64.130">  2  5  1 -1</clus>
</clustering>
</event>
<event>
 9    1  0.1671478E-005  0.1537888E+03  0.7546771E-02  0.1196036E+00
          4   -1    0    0  502    0 -0.00000000000E+00  0.00000000000E+00  0.17607307379E+03  0.17607307379E+03  0.00000000000E+00 0. -1.
         21   -1    0    0  501  502  0.00000000000E+00 -0.00000000000E+00 -0.19662841561E+03  0.19662841561E+03  0.00000000000E+00 0.  1.
         23    2    1    2    0    0 -0.12317505350E+03  0.64771295618E+02  0.15237853253E+02  0.16664891539E+03  0.90400521507E+02 0.  0.
         23    2    1    2    0    0  0.73527634271E+02 -0.85498124815E+02 -0.74132450662E+01  0.14522585908E+03  0.91210479640E+02 0.  0.
        -11    1    3    3    0    0 -0.10152904375E+03  0.66407951611E+02  0.45358946747E+02  0.12952064241E+03  0.00000000000E+00 0.  1.
         11    1    3    3    0    0 -0.21646009758E+02 -0.16366559927E+01 -0.30121093495E+02  0.37128272981E+02  0.00000000000E+00 0. -1.
        -11    1    4    4    0    0  0.24748429405E+02  0.82002280667E+01 -0.27284171722E+02  0.37737971924E+02  0.00000000000E+00 0.  1.
         11    1    4    4    0    0  0.48779204865E+02 -0.93698352882E+02  0.19870926656E+02  0.10748788716E+03  0.00000000000E+00 0. -1.
          4    1    1    2  501    0  0.49647419233E+02  0.20726829197E+02 -0.28379950007E+02  0.60826714916E+02  0.00000000000E+00 0. -1.
<scales pt_clust_5="13000.00000" pt_clust_6="13000.00000" pt_clust_7="13000.00000" pt_clust_8="13000.00000" pt_clust_9="53.80026"></scales>
<clustering>
<clus scale="   53.800">  2  9  1 -1</clus>
<clus scale="   90.401">  5  6 -1 -1</clus>
<clus scale="   91.210">  7  8 -1 -1</clus>
<clus scale="  153.310">  1  5  2 -1</clus>
<clus scale="   53.800">  2  5  1 -1</clus>
</clustering>
</event>
<event>
 9    1  0.1671478E-005  0.3952673E+03  0.7546771E-02  0.1045445E+00
         -3   -1    0    0    0  501 -0.00000000000E+00  0.00000000000E+00  0.11180719709E+04  0.11180719709E+04  0.00000000000E+00 0.  1.
         21   -1    0    0  501  502  0.00000000000E+00 -0.00000000000E+00 -0.41970709538E+03  0.41970709538E+03  0.00000000000E+00 0. -1.
         23    2    1    2    0    0 -0.39487831005E+03  0.41872054113E+02  0.65374913384E+03  0.77031454014E+03  0.91183398129E+02 0.  0.
         23    2    1    2    0    0  0.36703740595E+03  0.10536005249E+02  0.31388827297E+03  0.49173020332E+03  0.91898205514E+02 0.  0.
        -11    1    4    4    0    0  0.98971292123E+02 -0.27642516997E+02  0.12383167128E+03  0.16091522060E+03  0.00000000000E+00 0.  1.
         11    1    4    4    0    0  0.26806611383E+03  0.38178522246E+02  0.19005660169E+03  0.33081498271E+03  0.00000000000E+00 0. -1.
        -11    1    3    3    0    0 -0.49073215567E+02  0.36874651583E+02  0.90084614690E+02  0.10900989964E+03  0.00000000000E+00 0. -1.
         11    1    3    3    0    0 -0.34580509448E+03  0.49974025298E+01  0.56366451915E+03  0.66130464050E+03  0.00000000000E+00 0.  1.
         -3    1    1    2    0  502  0.27840904096E+02 -0.52408059362E+02 -0.26927253133E+03  0.27573432277E+03  0.00000000000E+00 0.  1.
<scales pt_clust_5="13000.00000" pt_clust_6="13000.00000" pt_clust_7="13000.00000" pt_clust_8="13000.00000" pt_clust_9="59.34409"></scales>
<clustering>
<clus scale="   59.344">  2  9  1 -1</clus>
<clus scale="   91.183">  7  8 -1 -1</clus>
<clus scale="   91.898">  5  6 -1 -1</clus>
<clus scale="  395.102">  1  7  2 -1</clus>
<clus scale="   59.344">  2  5  1 -1</clus>
</clustering>
</event>
<event>
 9    1  0.1671478E-005  0.1041818E+03  0.7546771E-02  0.1273469E+00
         -3   -1    0    0    0  501 -0.00000000000E+00  0.00000000000E+00  0.28533793975E+03  0.28533793975E+03  0.00000000000E+00 0.  1.
         21   -1    0    0  501  502  0.00000000000E+00 -0.00000000000E+00 -0.19535091731E+03  0.19535091731E+03  0.00000000000E+00 0.  1.
         23    2    1    2    0    0 -0.52544628688E+02 -0.58236366889E+01  0.21879172013E+03  0.24114500539E+03  0.86523084079E+02 0.  0.
         23    2    1    2    0    0  0.47155695923E+02 -0.35261894632E+02 -0.39783978823E+01  0.10801945620E+03  0.90472727370E+02 0.  0.
        -11    1    3    3    0    0 -0.69685843986E+02 -0.25422199306E+02  0.14458480234E+03  0.16250283117E+03  0.00000000000E+00 0.  1.
         11    1    3    3    0    0  0.17141215298E+02  0.19598562617E+02  0.74206917786E+02  0.78642174219E+02  0.00000000000E+00 0. -1.
        -13    1    4    4    0    0  0.27259722235E+02 -0.63307330132E+02 -0.17429139398E+02  0.71096310769E+02  0.00000000000E+00 0.  1.
         13    1    4    4    0    0  0.19895973688E+02  0.28045435501E+02  0.13450741516E+02  0.36923145434E+02  0.00000000000E+00 0. -1.
         -3    1    1    2    0  502  0.53889327649E+01  0.41085531321E+02 -0.12482629981E+03  0.13152439547E+03  0.00000000000E+00 0.  1.
<scales pt_clust_5="13000.00000" pt_clust_6="13000.00000" pt_clust_7="13000.00000" pt_clust_8="13000.00000" pt_clust_9="41.43744"></scales>
<clustering>
<clus scale="   41.437">  2  9  1 -1</clus>
<clus scale="   86.523">  5  6 -1 -1</clus>
<clus scale="   90.473">  7  8 -1 -1</clus>
<clus scale="  100.771">  1  5  2 -1</clus>
<clus scale="   41.437">  2  5  1 -1</clus>
</clustering>
</event>
<event>
 9    1  0.1671478E-005  0.1305934E+03  0.7546771E-02  0.1227594E+00
         -1   -1    0    0    0  501 -0.00000000000E+00  0.00000000000E+00  0.25786333808E+03  0.25786333808E+03  0.00000000000E+00 0.  1.
         21   -1    0    0  501  502  0.00000000000E+00 -0.00000000000E+00 -0.95554125543E+02  0.95554125543E+02  0.00000000000E+00 0. -1.
         23    2    1    2    0    0 -0.89152994859E+02  0.24224107249E+01  0.15211581008E+03  0.20061108816E+03  0.95663286842E+02 0.  0.
         23    2    1    2    0    0  0.88031353840E+02  0.18537359158E+02  0.19074009395E+02  0.13001525413E+03  0.91907537929E+02 0.  0.
        -11    1    3    3    0    0  0.55015248717E+01  0.25554945677E+02  0.93497658420E+01  0.27762207148E+02  0.00000000000E+00 0. -1.
         11    1    3    3    0    0 -0.94654519730E+02 -0.23132534952E+02  0.14276604424E+03  0.17284888101E+03  0.00000000000E+00 0.  1.
        -13    1    4    4    0    0 -0.24022342142E+01  0.32187947663E+02 -0.10422277465E+02  0.33918410510E+02  0.00000000000E+00 0.  1.
         13    1    4    4    0    0  0.90433588054E+02 -0.13650588504E+02  0.29496286860E+02  0.96096843618E+02  0.00000000000E+00 0. -1.
         -1    1    1    2    0  502  0.11216410186E+01 -0.20959769883E+02 -0.88806069394E+01  0.22791121336E+02  0.00000000000E+00 0.  1.
<scales pt_clust_5="13000.00000" pt_clust_6="13000.00000" pt_clust_7="13000.00000" pt_clust_8="13000.00000" pt_clust_9="20.98976"></scales>
<clustering>
<clus scale="   20.990">  2  9  1 -1</clus>
<clus scale="   91.908">  7  8 -1 -1</clus>
<clus scale="   95.663">  5  6 -1 -1</clus>
<clus scale="  127.868">  2  7  1 -1</clus>
<clus scale="   20.990">  2  5  1 -1</clus>
</clustering>
</event>
<event>
 9    1  0.1671478E-005  0.9620602E+02  0.7546771E-02  0.1290498E+00
         21   -1    0    0  501  502  0.00000000000E+00  0.00000000000E+00  0.14550704330E+03  0.14550704330E+03  0.00000000000E+00 0. -1.
          1   -1    0    0  502    0 -0.00000000000E+00 -0.00000000000E+00 -0.54030175969E+03  0.54030175969E+03  0.00000000000E+00 0. -1.
         23    2    1    2    0    0  0.22950795894E+02  0.43954154186E+02 -0.33604795552E+03  0.35091749613E+03  0.88069029609E+02 0.  0.
         23    2    1    2    0    0 -0.23638206130E+00  0.25467397982E+01 -0.18053887040E+03  0.20255992102E+03  0.91813376579E+02 0.  0.
        -11    1    4    4    0    0 -0.18412053721E+02 -0.28112147908E+02 -0.15528184307E+03  0.15887651610E+03  0.00000000000E+00 0.  1.
         11    1    4    4    0    0  0.18175671659E+02  0.30658887706E+02 -0.25257027330E+02  0.43683404918E+02  0.00000000000E+00 0. -1.
        -13    1    3    3    0    0 -0.29197387107E+02  0.38612697056E+02 -0.14932994313E+03  0.15698044370E+03  0.00000000000E+00 0.  1.
         13    1    3    3    0    0  0.52148183002E+02  0.53414571298E+01 -0.18671801239E+03  0.19393705243E+03  0.00000000000E+00 0. -1.
          1    1    1    2  501    0 -0.22714413833E+02 -0.46500893984E+02  0.12179210952E+03  0.13233138584E+03  0.00000000000E+00 0. -1.
<scales pt_clust_5="13000.00000" pt_clust_6="13000.00000" pt_clust_7="13000.00000" pt_clust_8="13000.00000" pt_clust_9="51.75208"></scales>
<clustering>
<clus scale="   51.752">  1  9  2 -1</clus>
<clus scale="   88.069">  7  8 -1 -1</clus>
<clus scale="   91.813">  5  6 -1 -1</clus>
<clus scale="   92.639">  2  7  1 -1</clus>
<clus scale="   51.752">  1  5  2 -1</clus>
</clustering>
</event>
<event>
 9    1  0.1671478E-005  0.9413531E+02  0.7546771E-02  0.1293160E+00
         21   -1    0    0  501  502  0.00000000000E+00  0.00000000000E+00  0.45045656112E+03  0.45045656112E+03  0.00000000000E+00 0. -1.
          2   -1    0    0  502    0 -0.00000000000E+00 -0.00000000000E+00 -0.29907851601E+02  0.29907851601E+02  0.00000000000E+00 0. -1.
         23    2    1    2    0    0  0.67929880130E+01  0.27594279456E+01  0.13347321594E+03  0.16207280312E+03  0.91644612549E+02 0.  0.
         23    2    1    2    0    0 -0.27176936779E+02 -0.29919767326E+02  0.18064814102E+03  0.20657782005E+03  0.91688966154E+02 0.  0.
        -11    1    4    4    0    0  0.33908408030E+02 -0.15362813225E+02  0.73314307367E+02  0.82223985734E+02  0.00000000000E+00 0.  1.
         11    1    4    4    0    0 -0.61085344809E+02 -0.14556954101E+02  0.10733383366E+03  0.12435383432E+03  0.00000000000E+00 0. -1.
        -13    1    3    3    0    0 -0.21999842198E+02  0.82409458006E+01  0.13051663480E+03  0.13261409505E+03  0.00000000000E+00 0. -1.
         13    1    3    3    0    0  0.28792830211E+02 -0.54815178549E+01  0.29565811399E+01  0.29458708078E+02  0.00000000000E+00 0.  1.
          2    1    1    2  501    0  0.20383948766E+02  0.27160339380E+02  0.10642735255E+03  0.11171378954E+03  0.00000000000E+00 0. -1.
<scales pt_clust_5="13000.00000" pt_clust_6="13000.00000" pt_clust_7="13000.00000" pt_clust_8="13000.00000" pt_clust_9="33.95864"></scales>
<clustering>
<clus scale="   33.959">  1  9  2 -1</clus>
<clus scale="   91.645">  7  8 -1 -1</clus>
<clus scale="   91.689">  5  6 -1 -1</clus>
<clus scale="   94.092">  2  7  1 -1</clus>
<clus scale="   33.959">  1  5  2 -1</clus>
</clustering>
</event>
<event>
 9    1  0.1671478E-005  0.1315264E+03  0.7546771E-02  0.1228623E+00
         21   -1    0    0  501  502  0.00000000000E+00  0.00000000000E+00  0.12834439265E+03  0.12834439265E+03  0.00000000000E+00 0.  1.
          1   -1    0    0  502    0 -0.00000000000E+00 -0.00000000000E+00 -0.28201529556E+03  0.28201529556E+03  0.00000000000E+00 0. -1.
         23    2    1    2    0    0 -0.28011363610E+01  0.75773764006E+02 -0.13981469830E+03  0.18934994771E+03  0.10274114638E+03 0.  0.
         23    2    1    2    0    0  0.48802780794E+02 -0.86197475752E+02 -0.66765384832E+02  0.15012824498E+03  0.90934905775E+02 0.  0.
        -11    1    4    4    0    0  0.50398833908E+02 -0.48493159325E+02 -0.83435732319E+02  0.10887217454E+03  0.00000000000E+00 0.  1.
         11    1    4    4    0    0 -0.15960531138E+01 -0.37704316427E+02  0.16670347487E+02  0.41256070440E+02  0.00000000000E+00 0. -1.
        -13    1    3    3    0    0  0.49787067565E+02  0.40372105855E+02 -0.65006217715E+02  0.91293304078E+02  0.00000000000E+00 0. -1.
         13    1    3    3    0    0 -0.52588203926E+02  0.35401658151E+02 -0.74808480587E+02  0.98056643629E+02  0.00000000000E+00 0.  1.
          1    1    1    2  501    0 -0.46001644433E+02  0.10423711746E+02  0.52909180217E+02  0.70881495528E+02  0.00000000000E+00 0. -1.
<scales pt_clust_5="13000.00000" pt_clust_6="13000.00000" pt_clust_7="13000.00000" pt_clust_8="13000.00000" pt_clust_9="47.16784"></scales>
<clustering>
<clus scale="   47.168">  1  9  2 -1</clus>
<clus scale="   90.935">  5  6 -1 -1</clus>
<clus scale="  102.741">  7  8 -1 -1</clus>
<clus scale="  122.526">  1  5  2 -1</clus>
<clus scale="   47.168">  1  5  2 -1</clus>
</clustering>
</event>
<event>
 9    1  0.1671478E-005  0.9672419E+02  0.7546771E-02  0.1287530E+00
         21   -1    0    0  501  502  0.00000000000E+00  0.00000000000E+00  0.81464795652E+02  0.81464795652E+02  0.00000000000E+00 0. -1.
          2   -1    0    0  502    0 -0.00000000000E+00 -0.00000000000E+00 -0.25709928293E+03  0.25709928293E+03  0.00000000000E+00 0. -1.
         23    2    1    2    0    0 -0.47051325789E+02  0.17934813893E+01 -0.12476482257E+03  0.16117266269E+03  0.90516973074E+02 0.  0.
         23    2    1    2    0    0  0.15192209441E+02 -0.15673603817E+02 -0.86690583349E+02  0.12748350766E+03  0.90886315798E+02 0.  0.
        -11    1    3    3    0    0 -0.17332463113E+02  0.44543231900E+02 -0.43312000526E+02  0.64501497466E+02  0.00000000000E+00 0.  1.
         11    1    3    3    0    0 -0.29718862676E+02 -0.42749750511E+02 -0.81452822040E+02  0.96671165224E+02  0.00000000000E+00 0. -1.
        -13    1    4    4    0    0  0.31415696337E+02  0.30951339301E+02 -0.41373504734E+02  0.60470639775E+02  0.00000000000E+00 0.  1.
         13    1    4    4    0    0 -0.16223486896E+02 -0.46624943118E+02 -0.45317078615E+02  0.67012867884E+02  0.00000000000E+00 0. -1.
          2    1    1    2  501    0  0.31859116348E+02  0.13880122427E+02  0.35820918632E+02  0.49907908238E+02  0.00000000000E+00 0. -1.
<scales pt_clust_5="13000.00000" pt_clust_6="13000.00000" pt_clust_7="13000.00000" pt_clust_8="13000.00000" pt_clust_9="34.75142"></scales>
<clustering>
<clus scale="   34.751">  1  9  2 -1</clus>
<clus scale="   90.517">  5  6 -1 -1</clus>
<clus scale="   90.886">  7  8 -1 -1</clus>
<clus scale="   96.377">  2  5  1 -1</clus>
<clus scale="   34.751">  1  5  2 -1</clus>
</clustering>
</event>
<event>
 9    1  0.1671478E-005  0.1316833E+03  0.7546771E-02  0.1225536E+00
         21   -1    0    0  501  502  0.00000000000E+00  0.00000000000E+00  0.39444584390E+02  0.39444584390E+02  0.00000000000E+00 0.  1.
          2   -1    0    0  502    0 -0.00000000000E+00 -0.00000000000E+00 -0.79587161052E+03  0.79587161052E+03  0.00000000000E+00 0. -1.
         23    2    1    2    0    0 -0.23357844458E+01  0.92580172061E+02 -0.58503266575E+03  0.59945346261E+03  0.92220874462E+02 0.  0.
         23    2    1    2    0    0  0.25147843527E+02 -0.88188227377E+02 -0.16634219621E+03  0.21208872169E+03  0.94352117868E+02 0.  0.
        -13    1    3    3    0    0 -0.24675760314E+02  0.89032724755E+02 -0.55031937298E+03  0.55802072676E+03  0.00000000000E+00 0.  1.
         13    1    3    3    0    0  0.22339975868E+02  0.35474473064E+01 -0.34713292778E+02  0.41432735845E+02  0.00000000000E+00 0. -1.
        -13    1    4    4    0    0  0.51616276396E+02 -0.91151238557E+02 -0.12789707645E+03  0.16531923797E+03  0.00000000000E+00 0. -1.
         13    1    4    4    0    0 -0.26468432869E+02  0.29630111801E+01 -0.38445119765E+02  0.46769483721E+02  0.00000000000E+00 0.  1.
          2    1    1    2  501    0 -0.22812059082E+02 -0.43919446839E+01 -0.50521641623E+01  0.23774010608E+02  0.00000000000E+00 0. -1.
<scales pt_clust_5="13000.00000" pt_clust_6="13000.00000" pt_clust_7="13000.00000" pt_clust_8="13000.00000" pt_clust_9="23.23100"></scales>
<clustering>
<clus scale="   23.231">  1  9  2 -1</clus>
<clus scale="   92.221">  5  6 -1 -1</clus>
<clus scale="   94.352">  7  8 -1 -1</clus>
<clus scale="  130.165">  2  5  1 -1</clus>
<clus scale="   23.231">  1  5  2 -1</clus>
</clustering>
</event>
<event>
 9    1  0.1671478E-005  0.1333812E+03  0.7546771E-02  0.1240266E+00
         21   -1    0    0  501  502  0.00000000000E+00  0.00000000000E+00  0.41227547462E+03  0.41227547462E+03  0.00000000000E+00 0. -1.
          2   -1    0    0  502    0 -0.00000000000E+00 -0.00000000000E+00 -0.21176599858E+03  0.21176599858E+03  0.00000000000E+00 0. -1.
         23    2    1    2    0    0 -0.48737530626E+01  0.10378207392E+02 -0.13660006836E+03  0.16499654809E+03  0.91830395556E+02 0.  0.
         23    2    1    2    0    0 -0.10766567984E+02 -0.10526986275E+03  0.37868076111E+02  0.14472899766E+03  0.91185681921E+02 0.  0.
        -11    1    4    4    0    0 -0.28436395446E+02 -0.16658721569E+02 -0.18927881417E+02  0.38005345482E+02  0.00000000000E+00 0.  1.
         11    1    4    4    0    0  0.17669827462E+02 -0.88611141179E+02  0.56795957528E+02  0.10672365218E+03  0.00000000000E+00 0. -1.
        -11    1    3    3    0    0 -0.10376827635E+02 -0.31670625358E+02 -0.15633393108E+02  0.36811819330E+02  0.00000000000E+00 0.  1.
         11    1    3    3    0    0  0.55030745725E+01  0.42048832750E+02 -0.12096667526E+03  0.12818472876E+03  0.00000000000E+00 0. -1.
          2    1    1    2  501    0  0.15640321047E+02  0.94891655357E+02  0.29924146830E+03  0.31431592745E+03  0.00000000000E+00 0. -1.
<scales pt_clust_5="13000.00000" pt_clust_6="13000.00000" pt_clust_7="13000.00000" pt_clust_8="13000.00000" pt_clust_9="97.34323"></scales>
<clustering>
<clus scale="   91.186">  5  6 -1 -1</clus>
<clus scale="   91.830">  7  8 -1 -1</clus>
<clus scale="   92.543">  2  7  1 -1</clus>
<clus scale="   97.343">  1  9  2 -1</clus>
<clus scale="   97.343">  1  5  2 -1</clus>
</clustering>
</event>
<event>
 9    1  0.1671478E-005  0.1223117E+03  0.7546771E-02  0.1239501E+00
          1   -1    0    0  502    0 -0.00000000000E+00  0.00000000000E+00  0.28545262344E+03  0.28545262344E+03  0.00000000000E+00 0. -1.
         21   -1    0    0  501  502  0.00000000000E+00 -0.00000000000E+00 -0.84801465184E+02  0.84801465184E+02  0.00000000000E+00 0.  1.
         23    2    1    2    0    0  0.92848892733E+02  0.33000714555E+02  0.15918860768E+03  0.20829889855E+03  0.91309661476E+02 0.  0.
         23    2    1    2    0    0 -0.42496338975E+02 -0.29423981313E+02  0.16810057770E+02  0.10577763146E+03  0.90744805760E+02 0.  0.
        -13    1    4    4    0    0 -0.63602829471E+02 -0.43226011865E+02  0.28525644718E+01  0.76954175602E+02  0.00000000000E+00 0.  1.
         13    1    4    4    0    0  0.21106490496E+02  0.13802030552E+02  0.13957493299E+02  0.28823455858E+02  0.00000000000E+00 0. -1.
        -13    1    3    3    0    0  0.27049313152E+02  0.57938249371E+02  0.73496590458E+02  0.97417939268E+02  0.00000000000E+00 0.  1.
         13    1    3    3    0    0  0.65799579581E+02 -0.24937534816E+02  0.85692017217E+02  0.11088095928E+03  0.00000000000E+00 0. -1.
          1    1    1    2  501    0 -0.50352553758E+02 -0.35767332421E+01  0.24652492811E+02  0.56177558619E+02  0.00000000000E+00 0. -1.
<scales pt_clust_5="13000.00000" pt_clust_6="13000.00000" pt_clust_7="13000.00000" pt_clust_8="13000.00000" pt_clust_9="50.47943"></scales>
<clustering>
<clus scale="   50.479">  2  9  1 -1</clus>
<clus scale="   90.745">  5  6 -1 -1</clus>
<clus scale="   91.310">  7  8 -1 -1</clus>
<clus scale="  121.891">  2  5  1 -1</clus>
<clus scale="   50.479">  2  5  1 -1</clus>
</clustering>
</event>
<event>
 9    1  0.1671478E-005  0.1071440E+03  0.7546771E-02  0.1266649E+00
         21   -1    0    0  501  502  0.00000000000E+00  0.00000000000E+00  0.53125164761E+02  0.53125164761E+02  0.00000000000E+00 0.  1.
         -4   -1    0    0    0  501 -0.00000000000E+00 -0.00000000000E+00 -0.57970715618E+03  0.57970715618E+03  0.00000000000E+00 0.  1.
         23    2    1    2    0    0 -0.43417916377E+02 -0.19499752811E+02 -0.40665584461E+03  0.41981867439E+03  0.92808337928E+02 0.  0.
         23    2    1    2    0    0  0.67169295184E+02  0.27855346645E+02 -0.13900093035E+03  0.18142581170E+03  0.91139628922E+02 0.  0.
        -11    1    4    4    0    0  0.65777582582E+02 -0.16079021987E+02 -0.10859816973E+03  0.12797963818E+03  0.00000000000E+00 0.  1.
         11    1    4    4    0    0  0.13917126012E+01  0.43934368632E+02 -0.30402760619E+02  0.53446173523E+02  0.00000000000E+00 0. -1.
        -11    1    3    3    0    0  0.17696927947E+01  0.33931189411E+02 -0.11732845645E+03  0.12214918796E+03  0.00000000000E+00 0. -1.
         11    1    3    3    0    0 -0.45187609171E+02 -0.53430942222E+02 -0.28932738816E+03  0.29766948643E+03  0.00000000000E+00 0.  1.
         -4    1    1    2    0  502 -0.23751378807E+02 -0.83555938344E+01  0.19074783541E+02  0.31587834853E+02  0.00000000000E+00 0.  1.
<scales pt_clust_5="13000.00000" pt_clust_6="13000.00000" pt_clust_7="13000.00000" pt_clust_8="13000.00000" pt_clust_9="25.17824"></scales>
<clustering>
<clus scale="   25.178">  1  9  2 -1</clus>
<clus scale="   91.140">  5  6 -1 -1</clus>
<clus scale="   92.808">  7  8 -1 -1</clus>
<clus scale="  105.702">  1  5  2 -1</clus>
<clus scale="   25.178">  1  5  2 -1</clus>
</clustering>
</event>
<event>
 9    1  0.1671478E-005  0.9716316E+02  0.7546771E-02  0.1287393E+00
          1   -1    0    0  502    0 -0.00000000000E+00  0.00000000000E+00  0.29037420462E+03  0.29037420462E+03  0.00000000000E+00 0. -1.
         21   -1    0    0  501  502  0.00000000000E+00 -0.00000000000E+00 -0.57325699522E+02  0.57325699522E+02  0.00000000000E+00 0.  1.
         23    2    1    2    0    0  0.38833056902E+01  0.32052019824E+02  0.16042575786E+03  0.18768931578E+03  0.91915414561E+02 0.  0.
         23    2    1    2    0    0  0.28700138578E+02 -0.27680551977E+02  0.79398505645E+02  0.12644421422E+03  0.89967247919E+02 0.  0.
        -13    1    3    3    0    0  0.44930079314E+02  0.72182014400E+01  0.10467381897E+03  0.11413773625E+03  0.00000000000E+00 0.  1.
         13    1    3    3    0    0 -0.41046773624E+02  0.24833818384E+02  0.55751938891E+02  0.73551579525E+02  0.00000000000E+00 0. -1.
        -13    1    4    4    0    0  0.48003157065E+02  0.13060586306E+02  0.24642374119E+02  0.55516921790E+02  0.00000000000E+00 0. -1.
         13    1    4    4    0    0 -0.19303018487E+02 -0.40741138283E+02  0.54756131526E+02  0.70927292427E+02  0.00000000000E+00 0.  1.
          1    1    1    2  501    0 -0.32583444268E+02 -0.43714678479E+01 -0.67757584066E+01  0.33566374149E+02  0.00000000000E+00 0. -1.
<scales pt_clust_5="13000.00000" pt_clust_6="13000.00000" pt_clust_7="13000.00000" pt_clust_8="13000.00000" pt_clust_9="32.87538"></scales>
<clustering>
<clus scale="   32.875">  2  9  1 -1</clus>
<clus scale="   89.967">  7  8 -1 -1</clus>
<clus scale="   91.915">  5  6 -1 -1</clus>
<clus scale="   95.322">  2  7  1 -1</clus>
<clus scale="   32.875">  2  5  1 -1</clus>
</clustering>
</event>
<event>
 9    1  0.1671478E-005  0.9379545E+02  0.7546771E-02  0.1293964E+00
         21   -1    0    0  501  502  0.00000000000E+00  0.00000000000E+00  0.14012818485E+03  0.14012818485E+03  0.00000000000E+00 0. -1.
          1   -1    0    0  502    0 -0.00000000000E+00 -0.00000000000E+00 -0.12410176170E+03  0.12410176170E+03  0.00000000000E+00 0. -1.
         23    2    1    2    0    0 -0.16945195627E+02 -0.15232082012E+02 -0.47503754952E+02  0.10458868031E+03  0.90349484436E+02 0.  0.
         23    2    1    2    0    0 -0.14156162801E+02  0.45977063600E+02  0.38715189529E+02  0.10935874395E+03  0.90256200094E+02 0.  0.
        -11    1    4    4    0    0 -0.67863194429E+01  0.21926879511E+02  0.67403537715E+02  0.71204487732E+02  0.00000000000E+00 0. -1.
         11    1    4    4    0    0 -0.73698433578E+01  0.24050184089E+02 -0.28688348187E+02  0.38154256217E+02  0.00000000000E+00 0.  1.
        -11    1    3    3    0    0  0.18684734202E+02  0.23432608146E+02  0.48852634419E+01  0.30365642025E+02  0.00000000000E+00 0.  1.
         11    1    3    3    0    0 -0.35629929828E+02 -0.38664690158E+02 -0.52389018393E+02  0.74223038288E+02  0.00000000000E+00 0. -1.
          1    1    1    2  501    0  0.31101358427E+02 -0.30744981588E+02  0.24814988574E+02  0.50282522279E+02  0.00000000000E+00 0. -1.
<scales pt_clust_5="13000.00000" pt_clust_6="13000.00000" pt_clust_7="13000.00000" pt_clust_8="13000.00000" pt_clust_9="43.73269"></scales>
<clustering>
<clus scale="   43.733">  1  9  2 -1</clus>
<clus scale="   90.256">  5  6 -1 -1</clus>
<clus scale="   90.349">  7  8 -1 -1</clus>
<clus scale="   93.706">  1  5  2 -1</clus>
<clus scale="   43.733">  1  5  2 -1</clus>
</clustering>
</event>
<event>
 9    1  0.1671478E-005  0.1841894E+03  0.7546771E-02  0.1164670E+00
         21   -1    0    0  501  502  0.00000000000E+00  0.00000000000E+00  0.23582924118E+03  0.23582924118E+03  0.00000000000E+00 0. -1.
          1   -1    0    0  502    0 -0.00000000000E+00 -0.00000000000E+00 -0.43317368385E+03  0.43317368385E+03  0.00000000000E+00 0. -1.
         23    2    1    2    0    0  0.62243501342E+02 -0.14938593783E+03 -0.29293701917E+03  0.34912786935E+03  0.99437216753E+02 0.  0.
         23    2    1    2    0    0  0.43890435607E+02  0.13844434709E+03  0.12065634675E+03  0.21027430952E+03  0.92542550490E+02 0.  0.
        -11    1    4    4    0    0  0.17025783716E+02  0.42774470051E+02  0.98115239500E+02  0.10837957751E+03  0.00000000000E+00 0.  1.
         11    1    4    4    0    0  0.26864651891E+02  0.95669877042E+02  0.22541107255E+02  0.10189473201E+03  0.00000000000E+00 0. -1.
        -13    1    3    3    0    0  0.25119370588E+02 -0.47133665521E+02 -0.19690986493E+03  0.20402465564E+03  0.00000000000E+00 0.  1.
         13    1    3    3    0    0  0.37124130754E+02 -0.10225227231E+03 -0.96027154246E+02  0.14510321371E+03  0.00000000000E+00 0. -1.
          1    1    1    2  501    0 -0.10613393695E+03  0.10941590735E+02 -0.25063770250E+02  0.10960074616E+03  0.00000000000E+00 0. -1.
<scales pt_clust_5="13000.00000" pt_clust_6="13000.00000" pt_clust_7="13000.00000" pt_clust_8="13000.00000" pt_clust_9="106.69644"></scales>
<clustering>
<clus scale="   92.543">  5  6 -1 -1</clus>
<clus scale="   99.437">  7  8 -1 -1</clus>
<clus scale="  106.696">  1  9  2 -1</clus>
<clus scale="  180.561">  1  5  2 -1</clus>
<clus scale="  106.696">  1  5  2 -1</clus>
</clustering>
</event>
<event>
 9    1  0.1671478E-005  0.9365347E+02  0.7546771E-02  0.1295726E+00
         -4   -1    0    0    0  501 -0.00000000000E+00  0.00000000000E+00  0.25450960151E+03  0.25450960151E+03  0.00000000000E+00 0.  1.
         21   -1    0    0  501  502  0.00000000000E+00 -0.00000000000E+00 -0.79049193856E+02  0.79049193856E+02  0.00000000000E+00 0.  1.
         23    2    1    2    0    0 -0.97932927879E+01  0.11978818455E+02  0.18484303943E+03  0.20611221215E+03  0.89865978516E+02 0.  0.
         23    2    1    2    0    0 -0.17390860588E+02 -0.23921174021E+02 -0.32207323416E+01  0.97122219152E+02  0.92453705916E+02 0.  0.
        -13    1    3    3    0    0  0.34256901490E+02  0.48708981762E+00  0.32913165216E+02  0.47508409790E+02  0.00000000000E+00 0. -1.
         13    1    3    3    0    0 -0.44050194278E+02  0.11491728637E+02  0.15192987422E+03  0.15860380236E+03  0.00000000000E+00 0.  1.
        -13    1    4    4    0    0  0.84531880346E+01 -0.28090660108E+02 -0.41455208865E+02  0.50784603132E+02  0.00000000000E+00 0.  1.
         13    1    4    4    0    0 -0.25844048623E+02  0.41694860874E+01  0.38234476523E+02  0.46337616020E+02  0.00000000000E+00 0. -1.
         -4    1    1    2    0  502  0.27184153376E+02  0.11942355566E+02 -0.61618994387E+01  0.30324364065E+02  0.00000000000E+00 0.  1.
<scales pt_clust_5="13000.00000" pt_clust_6="13000.00000" pt_clust_7="13000.00000" pt_clust_8="13000.00000" pt_clust_9="29.69172"></scales>
<clustering>
<clus scale="   29.692">  2  9  1 -1</clus>
<clus scale="   89.866">  5  6 -1 -1</clus>
<clus scale="   91.100">  1  5  2 -1</clus>
<clus scale="   92.454">  7  8 -1 -1</clus>
<clus scale="   29.692">  2  5  1 -1</clus>
</clustering>
</event>
<event>
 9    1  0.1671478E-005  0.9872958E+02  0.7546771E-02  0.1284170E+00
          1   -1    0    0  502    0 -0.00000000000E+00  0.00000000000E+00  0.19419894716E+03  0.19419894716E+03  0.00000000000E+00 0. -1.
         21   -1    0    0  501  502  0.00000000000E+00 -0.00000000000E+00 -0.13542405993E+03  0.13542405993E+03  0.00000000000E+00 0. -1.
         23    2    1    2    0    0 -0.23103212913E+02 -0.25719001947E+02  0.13214961421E+03  0.16592132137E+03  0.94186723277E+02 0.  0.
         23    2    1    2    0    0  0.19988947924E+02  0.11738885017E+00 -0.91512527102E+01  0.94493334447E+02  0.91900342815E+02 0.  0.
        -13    1    4    4    0    0  0.45847770476E+02  0.29255893492E+02  0.37238616631E+00  0.54388087235E+02  0.00000000000E+00 0.  1.
         13    1    4    4    0    0 -0.25858822552E+02 -0.29138504642E+02 -0.95236388765E+01  0.40105247212E+02  0.00000000000E+00 0. -1.
        -13    1    3    3    0    0 -0.43582805166E+02 -0.50699196692E+02  0.10043611029E+03  0.12065356067E+03  0.00000000000E+00 0. -1.
         13    1    3    3    0    0  0.20479592253E+02  0.24980194744E+02  0.31713503917E+02  0.45267760702E+02  0.00000000000E+00 0.  1.
          1    1    1    2  501    0  0.31142649893E+01  0.25601613097E+02 -0.64223474270E+02  0.69208351280E+02  0.00000000000E+00 0. -1.
<scales pt_clust_5="13000.00000" pt_clust_6="13000.00000" pt_clust_7="13000.00000" pt_clust_8="13000.00000" pt_clust_9="25.79033"></scales>
<clustering>
<clus scale="   25.790">  2  9  1 -1</clus>
<clus scale="   91.900">  5  6 -1 -1</clus>
<clus scale="   94.187">  7  8 -1 -1</clus>
<clus scale="   96.551">  2  5  1 -1</clus>
<clus scale="   25.790">  2  5  1 -1</clus>
</clustering>
</event>
<event>
 9    1  0.1671478E-005  0.1364085E+03  0.7546771E-02  0.1221603E+00
         21   -1    0    0  501  502  0.00000000000E+00  0.00000000000E+00  0.39228220728E+02  0.39228220728E+02  0.00000000000E+00 0. -1.
          2   -1    0    0  502    0 -0.00000000000E+00 -0.00000000000E+00 -0.11181007924E+04  0.11181007924E+04  0.00000000000E+00 0. -1.
         23    2    1    2    0    0  0.26372744463E+02 -0.87180241398E+02 -0.71891665953E+03  0.73194037364E+03  0.10295450978E+03 0.  0.
         23    2    1    2    0    0  0.47643469969E+02  0.94954599815E+02 -0.16105018546E+03  0.21301555090E+03  0.90289459141E+02 0.  0.
        -13    1    4    4    0    0  0.58436894729E+02  0.18308612721E+02 -0.82428861315E+02  0.10268686938E+03  0.00000000000E+00 0.  1.
         13    1    4    4    0    0 -0.10793424760E+02  0.76645987094E+02 -0.78621324142E+02  0.11032868152E+03  0.00000000000E+00 0. -1.
        -13    1    3    3    0    0  0.64621232954E+02 -0.37921300429E+02 -0.41038128385E+03  0.41716510749E+03  0.00000000000E+00 0. -1.
         13    1    3    3    0    0 -0.38248488491E+02 -0.49258940968E+02 -0.30853537568E+03  0.31477526615E+03  0.00000000000E+00 0.  1.
          2    1    1    2  501    0 -0.74016214432E+02 -0.77743584167E+01 -0.19890572674E+03  0.21237308863E+03  0.00000000000E+00 0. -1.
<scales pt_clust_5="13000.00000" pt_clust_6="13000.00000" pt_clust_7="13000.00000" pt_clust_8="13000.00000" pt_clust_9="74.42342"></scales>
<clustering>
<clus scale="   74.423">  1  9  2 -1</clus>
<clus scale="   90.289">  5  6 -1 -1</clus>
<clus scale="  102.955">  7  8 -1 -1</clus>
<clus scale="  127.121">  1  5  2 -1</clus>
<clus scale="   74.423">  1  5  2 -1</clus>
</clustering>
</event>
<event>
 9    1  0.1671478E-005  0.1020005E+03  0.7546771E-02  0.1278865E+00
         -1   -1    0    0    0  501 -0.00000000000E+00  0.00000000000E+00  0.14466155429E+03  0.14466155429E+03  0.00000000000E+00 0.  1.
         21   -1    0    0  501  502  0.00000000000E+00 -0.00000000000E+00 -0.20232252195E+03  0.20232252195E+03  0.00000000000E+00 0. -1.
         23    2    1    2    0    0 -0.51894404645E+01  0.37187156798E+02  0.94213024723E+02  0.13601828981E+03  0.90637002449E+02 0.  0.
         23    2    1    2    0    0 -0.28723481586E+02 -0.12559366740E+02 -0.12658473373E+03  0.16201518961E+03  0.96137665698E+02 0.  0.
        -11    1    4    4    0    0 -0.18566810469E+02  0.41808539494E+02 -0.60214488133E+02  0.75620532970E+02  0.00000000000E+00 0.  1.
         11    1    4    4    0    0 -0.10156671117E+02 -0.54367906234E+02 -0.66370245595E+02  0.86394656645E+02  0.00000000000E+00 0. -1.
        -13    1    3    3    0    0 -0.41264669303E+02  0.27589338170E+02  0.83570564336E+02  0.97200739384E+02  0.00000000000E+00 0.  1.
         13    1    3    3    0    0  0.36075228838E+02  0.95978186280E+01  0.10642460387E+02  0.38817550428E+02  0.00000000000E+00 0. -1.
         -1    1    1    2    0  502  0.33912922050E+02 -0.24627790058E+02 -0.25289258655E+02  0.48950596814E+02  0.00000000000E+00 0.  1.
<scales pt_clust_5="13000.00000" pt_clust_6="13000.00000" pt_clust_7="13000.00000" pt_clust_8="13000.00000" pt_clust_9="41.91198"></scales>
<clustering>
<clus scale="   41.912">  2  9  1 -1</clus>
<clus scale="   90.637">  7  8 -1 -1</clus>
<clus scale="   96.138">  5  6 -1 -1</clus>
<clus scale="   96.833">  1  7  2 -1</clus>
<clus scale="   41.912">  2  5  1 -1</clus>
</clustering>
</event>
<event>
 9    1  0.1671478E-005  0.2202564E+03  0.7546771E-02  0.1155092E+00
          2   -1    0    0  502    0 -0.00000000000E+00  0.00000000000E+00  0.30826353093E+03  0.30826353093E+03  0.00000000000E+00 0. -1.
         21   -1    0    0  501  502  0.00000000000E+00 -0.00000000000E+00 -0.53543734234E+03  0.53543734234E+03  0.00000000000E+00 0. -1.
         23    2    1    2    0    0  0.31779573027E+02  0.89822591672E+02  0.18923800929E+03  0.23071112230E+03  0.91315708164E+02 0.  0.
         23    2    1    2    0    0 -0.22677013370E+03 -0.53703070877E+02 -0.17864859906E+03  0.30338146927E+03  0.76264543469E+02 0.  0.
        -11    1    3    3    0    0 -0.21483944669E+02  0.35870066193E+02  0.12342821298E+03  0.13031786250E+03  0.00000000000E+00 0. -1.
         11    1    3    3    0    0  0.53263517696E+02  0.53952525479E+02  0.65809796302E+02  0.10039325979E+03  0.00000000000E+00 0.  1.
        -11    1    4    4    0    0 -0.37674331481E+02 -0.38285173889E+02 -0.55262049329E+02  0.77064932935E+02  0.00000000000E+00 0.  1.
         11    1    4    4    0    0 -0.18909580222E+03 -0.15417896988E+02 -0.12338654973E+03  0.22631653634E+03  0.00000000000E+00 0. -1.
          2    1    1    2  501    0  0.19499056067E+03 -0.36119520795E+02 -0.23776322163E+03  0.30960828170E+03  0.00000000000E+00 0. -1.
<scales pt_clust_5="13000.00000" pt_clust_6="13000.00000" pt_clust_7="13000.00000" pt_clust_8="13000.00000" pt_clust_9="206.63153"></scales>
<clustering>
<clus scale="   76.265">  7  8 -1 -1</clus>
<clus scale="   91.316">  5  6 -1 -1</clus>
<clus scale="  131.972">  1  5  2 -1</clus>
<clus scale="  206.632">  2  9  1 -1</clus>
<clus scale="  206.632">  2  5  1 -1</clus>
</clustering>
</event>
<event>
 9    1  0.1671478E-005  0.1260933E+03  0.7546771E-02  0.1236073E+00
         -1   -1    0    0    0  501 -0.00000000000E+00  0.00000000000E+00  0.65655156222E+03  0.65655156222E+03  0.00000000000E+00 0.  1.
         21   -1    0    0  501  502  0.00000000000E+00 -0.00000000000E+00 -0.39585944110E+02  0.39585944110E+02  0.00000000000E+00 0.  1.
         23    2    1    2    0    0 -0.32920648973E+02  0.65604898789E+02  0.40429391621E+03  0.42105467193E+03  0.91900458068E+02 0.  0.
         23    2    1    2    0    0  0.82185480426E+01 -0.85939513076E+02  0.20152766275E+03  0.24120245753E+03  0.10055884957E+03 0.  0.
        -11    1    4    4    0    0 -0.41189943540E+02 -0.66033753157E+02  0.10181622608E+03  0.12815464057E+03  0.00000000000E+00 0. -1.
         11    1    4    4    0    0  0.49408491583E+02 -0.19905759919E+02  0.99711436663E+02  0.11304781696E+03  0.00000000000E+00 0.  1.
        -11    1    3    3    0    0  0.26136710659E+02  0.25096796285E+00  0.14142667135E+03  0.14382174383E+03  0.00000000000E+00 0. -1.
         11    1    3    3    0    0 -0.59057359633E+02  0.65353930827E+02  0.26286724487E+03  0.27723292810E+03  0.00000000000E+00 0.  1.
         -1    1    1    2    0  502  0.24702100931E+02  0.20334614286E+02  0.11144039154E+02  0.33880376876E+02  0.00000000000E+00 0.  1.
<scales pt_clust_5="13000.00000" pt_clust_6="13000.00000" pt_clust_7="13000.00000" pt_clust_8="13000.00000" pt_clust_9="31.99516"></scales>
<clustering>
<clus scale="   31.995">  2  9  1 -1</clus>
<clus scale="   91.900">  7  8 -1 -1</clus>
<clus scale="  100.559">  5  6 -1 -1</clus>
<clus scale="  119.303">  1  7  2 -1</clus>
<clus scale="   31.995">  2  5  1 -1</clus>
</clustering>
</event>
<event>
 9    1  0.1671478E-005  0.1743010E+03  0.7546771E-02  0.1199627E+00
         -2   -1    0    0    0  501 -0.00000000000E+00  0.00000000000E+00  0.84608469431E+02  0.84608469431E+02  0.00000000000E+00 0.  1.
         21   -1    0    0  501  502  0.00000000000E+00 -0.00000000000E+00 -0.12051270434E+04  0.12051270434E+04  0.00000000000E+00 0.  1.
         23    2    1    2    0    0  0.27190158266E+02  0.14721678698E+02 -0.10198015963E+03  0.14100226746E+03  0.92334467785E+02 0.  0.
         23    2    1    2    0    0 -0.70517366928E+02 -0.15696339584E+03 -0.98464784446E+02  0.21672174462E+03  0.87537387109E+02 0.  0.
        -11    1    4    4    0    0  0.14981452366E+02 -0.54497827155E+02 -0.12214105477E+02  0.57824228937E+02  0.00000000000E+00 0. -1.
         11    1    4    4    0    0 -0.85498819295E+02 -0.10246556869E+03 -0.86250678969E+02  0.15889751568E+03  0.00000000000E+00 0.  1.
        -13    1    3    3    0    0 -0.27724775121E+01 -0.37006451746E+02 -0.46009876467E+02  0.59110682917E+02  0.00000000000E+00 0.  1.
         13    1    3    3    0    0  0.29962635778E+02  0.51728130445E+02 -0.55970283163E+02  0.81891584546E+02  0.00000000000E+00 0. -1.
         -2    1    1    2    0  502  0.43327208662E+02  0.14224171714E+03 -0.92007362985E+03  0.93201150070E+03  0.00000000000E+00 0.  1.
<scales pt_clust_5="13000.00000" pt_clust_6="13000.00000" pt_clust_7="13000.00000" pt_clust_8="13000.00000" pt_clust_9="150.72507"></scales>
<clustering>
<clus scale="   87.537">  5  6 -1 -1</clus>
<clus scale="   92.334">  7  8 -1 -1</clus>
<clus scale="   97.374">  1  7  2 -1</clus>
<clus scale="  150.725">  2  9  1 -1</clus>
<clus scale="  150.725">  2  5  1 -1</clus>
</clustering>
</event>
<event>
 9    1  0.1671478E-005  0.1157988E+03  0.7546771E-02  0.1251299E+00
         -1   -1    0    0    0  501 -0.00000000000E+00  0.00000000000E+00  0.44813672854E+03  0.44813672854E+03  0.00000000000E+00 0.  1.
         21   -1    0    0  501  502  0.00000000000E+00 -0.00000000000E+00 -0.72138735185E+02  0.72138735185E+02  0.00000000000E+00 0. -1.
         23    2    1    2    0    0  0.52558913062E+01  0.75156469963E+02  0.25188753977E+03  0.27940520309E+03  0.94571747638E+02 0.  0.
         23    2    1    2    0    0 -0.51750604165E+02 -0.43586176024E+02  0.14194330320E+03  0.18190881299E+03  0.91460566088E+02 0.  0.
        -11    1    3    3    0    0  0.30099760616E+02  0.12353403838E+02  0.20720002986E+02  0.38573575143E+02  0.00000000000E+00 0. -1.
         11    1    3    3    0    0 -0.24843869310E+02  0.62803066125E+02  0.23116753678E+03  0.24083162794E+03  0.00000000000E+00 0.  1.
        -11    1    4    4    0    0 -0.65819152252E+02  0.19594071878E+01  0.88233370553E+02  0.11009599338E+03  0.00000000000E+00 0.  1.
         11    1    4    4    0    0  0.14068548087E+02 -0.45545583212E+02  0.53709932649E+02  0.71812819611E+02  0.00000000000E+00 0. -1.
         -1    1    1    2    0  502  0.46494712858E+02 -0.31570293939E+02 -0.17832849613E+02  0.58961447646E+02  0.00000000000E+00 0.  1.
<scales pt_clust_5="13000.00000" pt_clust_6="13000.00000" pt_clust_7="13000.00000" pt_clust_8="13000.00000" pt_clust_9="56.20002"></scales>
<clustering>
<clus scale="   56.200">  2  9  1 -1</clus>
<clus scale="   91.461">  7  8 -1 -1</clus>
<clus scale="   94.572">  5  6 -1 -1</clus>
<clus scale="  113.272">  2  7  1 -1</clus>
<clus scale="   56.200">  2  5  1 -1</clus>
</clustering>
</event>
<event>
 9    1  0.1671478E-005  0.2206434E+03  0.7546771E-02  0.1154031E+00
         21   -1    0    0  501  502  0.00000000000E+00  0.00000000000E+00  0.19277820471E+03  0.19277820471E+03  0.00000000000E+00 0.  1.
         -1   -1    0    0    0  501 -0.00000000000E+00 -0.00000000000E+00 -0.52557143368E+03  0.52557143368E+03  0.00000000000E+00 0.  1.
         23    2    1    2    0    0  0.96486341852E+02  0.85156308850E+01 -0.46599363079E+02  0.14243480251E+03  0.93456097675E+02 0.  0.
         23    2    1    2    0    0 -0.27233751250E+03 -0.41479225691E+02 -0.26978387919E+03  0.39624981295E+03  0.91336334024E+02 0.  0.
        -13    1    3    3    0    0  0.97751921396E+01 -0.32054294024E+02  0.46739134956E+01  0.33836040166E+02  0.00000000000E+00 0.  1.
         13    1    3    3    0    0  0.86711149712E+02  0.40569924909E+02 -0.51273276574E+02  0.10859876234E+03  0.00000000000E+00 0. -1.
        -13    1    4    4    0    0 -0.16048947360E+03  0.21371058228E+02 -0.15292526630E+03  0.22270996911E+03  0.00000000000E+00 0.  1.
         13    1    4    4    0    0 -0.11184803890E+03 -0.62850283920E+02 -0.11685861289E+03  0.17353984384E+03  0.00000000000E+00 0. -1.
         -1    1    1    2    0  502  0.17585117065E+03  0.32963594806E+02 -0.16409986696E+02  0.17966502293E+03  0.00000000000E+00 0.  1.
<scales pt_clust_5="13000.00000" pt_clust_6="13000.00000" pt_clust_7="13000.00000" pt_clust_8="13000.00000" pt_clust_9="200.85111"></scales>
<clustering>
<clus scale="   91.336">  7  8 -1 -1</clus>
<clus scale="   93.456">  5  6 -1 -1</clus>
<clus scale="  134.596">  2  5  1 -1</clus>
<clus scale="  200.851">  1  9  2 -1</clus>
<clus scale="  200.851">  1  5  2 -1</clus>
</clustering>
</event>
<event>
 9    1  0.1671478E-005  0.1120865E+03  0.7546771E-02  0.1256880E+00
          3   -1    0    0  502    0 -0.00000000000E+00  0.00000000000E+00  0.19620358495E+03  0.19620358495E+03  0.00000000000E+00 0. -1.
         21   -1    0    0  501  502  0.00000000000E+00 -0.00000000000E+00 -0.32578022020E+03  0.32578022020E+03  0.00000000000E+00 0.  1.
         23    2    1    2    0    0  0.47332111735E+02 -0.35652677882E+02  0.14284156191E+03  0.18011357969E+03  0.92334974633E+02 0.  0.
         23    2    1    2    0    0 -0.68201909694E+02  0.90721368510E+02 -0.17426808501E+03  0.22740820700E+03  0.91995977982E+02 0.  0.
        -13    1    3    3    0    0  0.12928987054E+02  0.31194415497E+02  0.54487892769E+02  0.64102891689E+02  0.00000000000E+00 0.  1.
         13    1    3    3    0    0  0.34403124681E+02 -0.66847093380E+02  0.88353669139E+02  0.11601068801E+03  0.00000000000E+00 0. -1.
        -13    1    4    4    0    0 -0.10022408795E+02  0.25842028428E+02  0.49222794436E+01  0.28151162432E+02  0.00000000000E+00 0. -1.
         13    1    4    4    0    0 -0.58179500899E+02  0.64879340082E+02 -0.17919036446E+03  0.19925704456E+03  0.00000000000E+00 0.  1.
          3    1    1    2  501    0  0.20869797959E+02 -0.55068690628E+02 -0.98150112146E+02  0.11446201845E+03  0.00000000000E+00 0. -1.
<scales pt_clust_5="13000.00000" pt_clust_6="13000.00000" pt_clust_7="13000.00000" pt_clust_8="13000.00000" pt_clust_9="58.89065"></scales>
<clustering>
<clus scale="   58.891">  2  9  1 -1</clus>
<clus scale="   91.996">  7  8 -1 -1</clus>
<clus scale="   92.335">  5  6 -1 -1</clus>
<clus scale="  111.807">  2  7  1 -1</clus>
<clus scale="   58.891">  2  5  1 -1</clus>
</clustering>
</event>
<event>
 9    1  0.1671478E-005  0.1033155E+03  0.7546771E-02  0.1274106E+00
         21   -1    0    0  501  502  0.00000000000E+00  0.00000000000E+00  0.15819152215E+03  0.15819152215E+03  0.00000000000E+00 0. -1.
         -3   -1    0    0    0  501 -0.00000000000E+00 -0.00000000000E+00 -0.22269512935E+03  0.22269512935E+03  0.00000000000E+00 0.  1.
         23    2    1    2    0    0 -0.61010979114E+01 -0.43617741053E+02 -0.17327376470E+03  0.20048835467E+03  0.90730656863E+02 0.  0.
         23    2    1    2    0    0  0.15065449445E+02  0.64754969139E+02  0.64798726167E+02  0.13079357143E+03  0.92129851939E+02 0.  0.
        -11    1    3    3    0    0 -0.42416683097E+02 -0.12304653444E+02 -0.42879487297E+02  0.61556721259E+02  0.00000000000E+00 0.  1.
         11    1    3    3    0    0  0.36315585185E+02 -0.31313087609E+02 -0.13039427740E+03  0.13893163341E+03  0.00000000000E+00 0. -1.
        -11    1    4    4    0    0  0.45855212487E+02  0.51311351277E+02  0.14532084305E+02  0.70333041711E+02  0.00000000000E+00 0.  1.
         11    1    4    4    0    0 -0.30789763042E+02  0.13443617863E+02  0.50266641862E+02  0.60460529716E+02  0.00000000000E+00 0. -1.
         -3    1    1    2    0  502 -0.89643515333E+01 -0.21137228087E+02  0.43971431330E+02  0.49604725408E+02  0.00000000000E+00 0.  1.
<scales pt_clust_5="13000.00000" pt_clust_6="13000.00000" pt_clust_7="13000.00000" pt_clust_8="13000.00000" pt_clust_9="22.95957"></scales>
<clustering>
<clus scale="   22.960">  1  9  2 -1</clus>
<clus scale="   90.731">  5  6 -1 -1</clus>
<clus scale="   92.130">  7  8 -1 -1</clus>
<clus scale="  102.070">  2  5  1 -1</clus>
<clus scale="   22.960">  1  5  2 -1</clus>
</clustering>
</event>
<event>
 9    1  0.1671478E-005  0.1249302E+03  0.7546771E-02  0.1235631E+00
         21   -1    0    0  501  502  0.00000000000E+00  0.00000000000E+00  0.56915356936E+02  0.56915356936E+02  0.00000000000E+00 0.  1.
          2   -1    0    0  502    0 -0.00000000000E+00 -0.00000000000E+00 -0.41788433066E+03  0.41788433066E+03  0.00000000000E+00 0. -1.
         23    2    1    2    0    0  0.20762214698E+02 -0.69103743898E+02 -0.18957799250E+03  0.22222016881E+03  0.90750158172E+02 0.  0.
         23    2    1    2    0    0 -0.16778873365E+02  0.10756796559E+03 -0.15818404643E+03  0.21171649778E+03  0.89158763318E+02 0.  0.
        -13    1    3    3    0    0  0.24500387486E+02 -0.26573196652E-01 -0.12568394280E+03  0.12804969024E+03  0.00000000000E+00 0. -1.
         13    1    3    3    0    0 -0.37381727875E+01 -0.69077170702E+02 -0.63894049699E+02  0.94170478574E+02  0.00000000000E+00 0.  1.
        -13    1    4    4    0    0  0.25480213071E+02  0.55684618592E+02 -0.11987521244E+03  0.13461086346E+03  0.00000000000E+00 0. -1.
         13    1    4    4    0    0 -0.42259086436E+02  0.51883346996E+02 -0.38308833996E+02  0.77105634321E+02  0.00000000000E+00 0.  1.
          2    1    1    2  501    0 -0.39833413331E+01 -0.38464221690E+02 -0.13206934794E+02  0.40863020997E+02  0.00000000000E+00 0. -1.
<scales pt_clust_5="13000.00000" pt_clust_6="13000.00000" pt_clust_7="13000.00000" pt_clust_8="13000.00000" pt_clust_9="38.66993"></scales>
<clustering>
<clus scale="   38.670">  1  9  2 -1</clus>
<clus scale="   89.159">  7  8 -1 -1</clus>
<clus scale="   90.750">  5  6 -1 -1</clus>
<clus scale="  123.779">  1  7  2 -1</clus>
<clus scale="   38.670">  1  5  2 -1</clus>
</clustering>
</event>
<event>
 9    1  0.1671478E-005  0.1750678E+03  0.7546771E-02  0.1172908E+00
         21   -1    0    0  501  502  0.00000000000E+00  0.00000000000E+00  0.35358884763E+03  0.35358884763E+03  0.00000000000E+00 0. -1.
         -2   -1    0    0    0  501 -0.00000000000E+00 -0.00000000000E+00 -0.17624498139E+03  0.17624498139E+03  0.00000000000E+00 0.  1.
         23    2    1    2    0    0  0.14353301259E+03  0.73280600642E+02 -0.79445840999E+02  0.20157617970E+03  0.91375830701E+02 0.  0.
         23    2    1    2    0    0 -0.11038258699E+03 -0.36210247966E+02  0.14657019287E+03  0.20733824182E+03  0.89503226263E+02 0.  0.
        -11    1    3    3    0    0  0.37521767101E+02 -0.21077843334E+02 -0.13696151193E+02  0.45163514517E+02  0.00000000000E+00 0. -1.
         11    1    3    3    0    0  0.10601124549E+03  0.94358443976E+02 -0.65749689806E+02  0.15641266518E+03  0.00000000000E+00 0.  1.
        -13    1    4    4    0    0 -0.47745676388E+01 -0.40412412585E+02  0.46449646817E+02  0.61753779451E+02  0.00000000000E+00 0.  1.
         13    1    4    4    0    0 -0.10560801935E+03  0.42021646194E+01  0.10012054605E+03  0.14558446236E+03  0.00000000000E+00 0. -1.
         -2    1    1    2    0  502 -0.33150425596E+02 -0.37070352676E+02  0.11021951437E+03  0.12091940751E+03  0.00000000000E+00 0.  1.
<scales pt_clust_5="13000.00000" pt_clust_6="13000.00000" pt_clust_7="13000.00000" pt_clust_8="13000.00000" pt_clust_9="49.73089"></scales>
<clustering>
<clus scale="   49.731">  1  9  2 -1</clus>
<clus scale="   89.503">  7  8 -1 -1</clus>
<clus scale="   91.376">  5  6 -1 -1</clus>
<clus scale="  174.098">  1  7  2 -1</clus>
<clus scale="   49.731">  1  5  2 -1</clus>
</clustering>
</event>
<event>
 9    1  0.1671478E-005  0.9971603E+02  0.7546771E-02  0.1283436E+00
         21   -1    0    0  501  502  0.00000000000E+00  0.00000000000E+00  0.30164708619E+02  0.30164708619E+02  0.00000000000E+00 0.  1.
          1   -1    0    0  502    0 -0.00000000000E+00 -0.00000000000E+00 -0.48613628633E+03  0.48613628633E+03  0.00000000000E+00 0. -1.
         23    2    1    2    0    0 -0.16633536690E+02  0.46056256683E+02 -0.22264227219E+03  0.24709989186E+03  0.95346325924E+02 0.  0.
         23    2    1    2    0    0  0.80696685759E+01 -0.48695908040E+01 -0.14144757479E+03  0.16814699024E+03  0.90427658631E+02 0.  0.
        -13    1    3    3    0    0  0.90960565280E+01  0.49514489573E+02 -0.21384185646E+03  0.21968787517E+03  0.00000000000E+00 0.  1.
         13    1    3    3    0    0 -0.25729593218E+02 -0.34582328906E+01 -0.88004157307E+01  0.27412016688E+02  0.00000000000E+00 0. -1.
        -13    1    4    4    0    0  0.35620876711E+02 -0.34858870287E+02 -0.85163026370E+02  0.98674863850E+02  0.00000000000E+00 0. -1.
         13    1    4    4    0    0 -0.27551208135E+02  0.29989279483E+02 -0.56284548421E+02  0.69472126386E+02  0.00000000000E+00 0.  1.
          1    1    1    2  501    0  0.85638681136E+01 -0.41186665879E+02 -0.91881730725E+02  0.10105411285E+03  0.00000000000E+00 0. -1.
<scales pt_clust_5="13000.00000" pt_clust_6="13000.00000" pt_clust_7="13000.00000" pt_clust_8="13000.00000" pt_clust_9="42.06760"></scales>
<clustering>
<clus scale="   42.068">  1  9  2 -1</clus>
<clus scale="   90.428">  7  8 -1 -1</clus>
<clus scale="   95.024">  1  7  2 -1</clus>
<clus scale="   95.346">  5  6 -1 -1</clus>
<clus scale="   42.068">  1  5  2 -1</clus>
</clustering>
</event>
<event>
 9    1  0.1671478E-005  0.1026340E+03  0.7546771E-02  0.1275064E+00
         -3   -1    0    0    0  501 -0.00000000000E+00  0.00000000000E+00  0.39556521795E+03  0.39556521795E+03  0.00000000000E+00 0.  1.
         21   -1    0    0  501  502  0.00000000000E+00 -0.00000000000E+00 -0.15880505052E+03  0.15880505052E+03  0.00000000000E+00 0.  1.
         23    2    1    2    0    0 -0.29624662683E+02  0.31128134300E+02  0.19964958279E+03  0.22319434307E+03  0.90050971616E+02 0.  0.
         23    2    1    2    0    0  0.64971222944E+02 -0.40801189004E+01  0.16309209305E+03  0.19756337015E+03  0.90522633793E+02 0.  0.
        -13    1    4    4    0    0  0.18778327561E+02  0.20101706906E+02  0.12575258238E+01  0.27536985632E+02  0.00000000000E+00 0.  1.
         13    1    4    4    0    0  0.46192895383E+02 -0.24181825806E+02  0.16183456722E+03  0.17002638452E+03  0.00000000000E+00 0. -1.
        -13    1    3    3    0    0 -0.91276649070E+01 -0.30053263526E+02  0.39025139874E+02  0.50094654978E+02  0.00000000000E+00 0. -1.
         13    1    3    3    0    0 -0.20496997776E+02  0.61181397825E+02  0.16062444291E+03  0.17309968810E+03  0.00000000000E+00 0.  1.
         -3    1    1    2    0  502 -0.35346560261E+02 -0.27048015399E+02 -0.12598150841E+03  0.13361255525E+03  0.00000000000E+00 0.  1.
<scales pt_clust_5="13000.00000" pt_clust_6="13000.00000" pt_clust_7="13000.00000" pt_clust_8="13000.00000" pt_clust_9="44.50814"></scales>
<clustering>
<clus scale="   44.508">  2  9  1 -1</clus>
<clus scale="   90.051">  7  8 -1 -1</clus>
<clus scale="   90.523">  5  6 -1 -1</clus>
<clus scale="  102.218">  1  7  2 -1</clus>
<clus scale="   44.508">  2  5  1 -1</clus>
</clustering>
</event>
<event>
 9    1  0.1671478E-005  0.9434550E+02  0.7546771E-02  0.1298523E+00
         21   -1    0    0  501  502  0.00000000000E+00  0.00000000000E+00  0.66228397849E+02  0.66228397849E+02  0.00000000000E+00 0. -1.
         -2   -1    0    0    0  501 -0.00000000000E+00 -0.00000000000E+00 -0.18415145483E+03  0.18415145483E+03  0.00000000000E+00 0.  1.
         23    2    1    2    0    0 -0.16666226529E+01  0.16595661830E+02 -0.52707439108E+02  0.99397377565E+02  0.82604908491E+02 0.  0.
         23    2    1    2    0    0 -0.30008023690E+02 -0.12304276457E+02 -0.28132419755E+02  0.10202470972E+03  0.92551237962E+02 0.  0.
        -11    1    4    4    0    0 -0.33117863998E+02  0.18922903345E+02 -0.50646001298E+02  0.63402575928E+02  0.00000000000E+00 0. -1.
         11    1    4    4    0    0  0.31098403078E+01 -0.31227179802E+02  0.22513581543E+02  0.38622133797E+02  0.00000000000E+00 0.  1.
        -13    1    3    3    0    0 -0.18032687513E+02 -0.97370044792E+01  0.14687248687E+02  0.25213138423E+02  0.00000000000E+00 0. -1.
         13    1    3    3    0    0  0.16366064860E+02  0.26332666309E+02 -0.67394687796E+02  0.74184239141E+02  0.00000000000E+00 0.  1.
         -2    1    1    2    0  502  0.31674646343E+02 -0.42913853726E+01 -0.37083198122E+02  0.48957765394E+02  0.00000000000E+00 0.  1.
<scales pt_clust_5="13000.00000" pt_clust_6="13000.00000" pt_clust_7="13000.00000" pt_clust_8="13000.00000" pt_clust_9="31.96405"></scales>
<clustering>
<clus scale="   31.964">  1  9  2 -1</clus>
<clus scale="   82.605">  7  8 -1 -1</clus>
<clus scale="   84.610">  2  7  1 -1</clus>
<clus scale="   92.551">  5  6 -1 -1</clus>
<clus scale="   31.964">  1  5  2 -1</clus>
</clustering>
</event>
<event>
 9    1  0.1671478E-005  0.1411604E+03  0.7546771E-02  0.1231202E+00
          3   -1    0    0  502    0 -0.00000000000E+00  0.00000000000E+00  0.32663138983E+03  0.32663138983E+03  0.00000000000E+00 0. -1.
         21   -1    0    0  501  502  0.00000000000E+00 -0.00000000000E+00 -0.10254365071E+03  0.10254365071E+03  0.00000000000E+00 0.  1.
         23    2    1    2    0    0 -0.12027067971E+02 -0.20171273634E+02  0.69990299490E+02  0.11717263365E+03  0.90990402844E+02 0.  0.
         23    2    1    2    0    0  0.84668222382E+02  0.94066217416E+02  0.13764522148E+03  0.20708398375E+03  0.88996675160E+02 0.  0.
        -13    1    3    3    0    0  0.27913510253E+02  0.14214018347E+02  0.23332856102E+01  0.31410931122E+02  0.00000000000E+00 0.  1.
         13    1    3    3    0    0 -0.39940578223E+02 -0.34385291981E+02  0.67657013880E+02  0.85761702528E+02  0.00000000000E+00 0. -1.
        -13    1    4    4    0    0  0.40964142262E+02  0.88428042560E+02  0.51273699520E+02  0.11012071524E+03  0.00000000000E+00 0.  1.
         13    1    4    4    0    0  0.43704080120E+02  0.56381748564E+01  0.86371521961E+02  0.96963268513E+02  0.00000000000E+00 0. -1.
          3    1    1    2  501    0 -0.72641154411E+02 -0.73894943782E+02  0.16452218155E+02  0.10491842313E+03  0.00000000000E+00 0. -1.
<scales pt_clust_5="13000.00000" pt_clust_6="13000.00000" pt_clust_7="13000.00000" pt_clust_8="13000.00000" pt_clust_9="109.57127"></scales>
<clustering>
<clus scale="   88.997">  7  8 -1 -1</clus>
<clus scale="   90.990">  5  6 -1 -1</clus>
<clus scale="   93.972">  1  5  2 -1</clus>
<clus scale="  109.571">  2  9  1 -1</clus>
<clus scale="  109.571">  2  5  1 -1</clus>
</clustering>
</event>
<event>
 9    1  0.1671478E-005  0.1033499E+03  0.7546771E-02  0.1275420E+00
         21   -1    0    0  501  502  0.00000000000E+00  0.00000000000E+00  0.29977153039E+03  0.29977153039E+03  0.00000000000E+00 0. -1.
          2   -1    0    0  502    0 -0.00000000000E+00 -0.00000000000E+00 -0.12166430924E+03  0.12166430924E+03  0.00000000000E+00 0. -1.
         23    2    1    2    0    0  0.20653224758E+02  0.34617660040E+02 -0.40655854432E+02  0.10387767781E+03  0.86676036877E+02 0.  0.
         23    2    1    2    0    0 -0.14666516048E+02 -0.67162347833E+02  0.19810359990E+02  0.11587231594E+03  0.91148535801E+02 0.  0.
        -11    1    3    3    0    0 -0.32571267072E+02  0.95489782718E+01 -0.27273695489E+02  0.43542219630E+02  0.00000000000E+00 0.  1.
         11    1    3    3    0    0  0.53224491830E+02  0.25068681768E+02 -0.13382158943E+02  0.60335458183E+02  0.00000000000E+00 0. -1.
        -13    1    4    4    0    0  0.15332335883E+02  0.17292768131E+02  0.11637466361E+02  0.25875683113E+02  0.00000000000E+00 0.  1.
         13    1    4    4    0    0 -0.29998851931E+02 -0.84455115964E+02  0.81728936285E+01  0.89996632826E+02  0.00000000000E+00 0. -1.
          2    1    1    2  501    0 -0.59867087100E+01  0.32544687793E+02  0.19895271559E+03  0.20168584588E+03  0.00000000000E+00 0. -1.
<scales pt_clust_5="13000.00000" pt_clust_6="13000.00000" pt_clust_7="13000.00000" pt_clust_8="13000.00000" pt_clust_9="33.09074"></scales>
<clustering>
<clus scale="   33.091">  1  9  2 -1</clus>
<clus scale="   86.676">  5  6 -1 -1</clus>
<clus scale="   91.149">  7  8 -1 -1</clus>
<clus scale="   99.428">  2  5  1 -1</clus>
<clus scale="   33.091">  1  5  2 -1</clus>
</clustering>
</event>
<event>
 9    1  0.1671478E-005  0.1006921E+03  0.7546771E-02  0.1278975E+00
         -2   -1    0    0    0  501 -0.00000000000E+00  0.00000000000E+00  0.13029207422E+03  0.13029207422E+03  0.00000000000E+00 0.  1.
         21   -1    0    0  501  502  0.00000000000E+00 -0.00000000000E+00 -0.32946237479E+03  0.32946237479E+03  0.00000000000E+00 0.  1.
         23    2    1    2    0    0  0.41278818796E+02  0.10125954177E+02  0.40792799670E+02  0.10868400742E+03  0.91332826158E+02 0.  0.
         23    2    1    2    0    0 -0.43618992945E+02  0.23889076259E+02  0.48717369536E+01  0.10387295734E+03  0.91063455548E+02 0.  0.
        -11    1    3    3    0    0 -0.25317273277E+02  0.19733497054E+02  0.50503420341E+01  0.32494325456E+02  0.00000000000E+00 0.  1.
         11    1    3    3    0    0  0.66596092073E+02 -0.96075428766E+01  0.35742457636E+02  0.76189681962E+02  0.00000000000E+00 0. -1.
        -13    1    4    4    0    0  0.23665948245E+02  0.15150403127E+02  0.19831484326E+02  0.34393307370E+02  0.00000000000E+00 0. -1.
         13    1    4    4    0    0 -0.67284941190E+02  0.87386731317E+01 -0.14959747373E+02  0.69479649974E+02  0.00000000000E+00 0.  1.
         -2    1    1    2    0  502  0.23401741487E+01 -0.34015030436E+02 -0.24483483720E+03  0.24719748425E+03  0.00000000000E+00 0.  1.
<scales pt_clust_5="13000.00000" pt_clust_6="13000.00000" pt_clust_7="13000.00000" pt_clust_8="13000.00000" pt_clust_9="34.09544"></scales>
<clustering>
<clus scale="   34.095">  2  9  1 -1</clus>
<clus scale="   91.063">  7  8 -1 -1</clus>
<clus scale="   91.333">  5  6 -1 -1</clus>
<clus scale="  100.448">  2  7  1 -1</clus>
<clus scale="   34.095">  2  5  1 -1</clus>
</clustering>
</event>
<event>
 9    1  0.1671478E-005  0.1217700E+03  0.7546771E-02  0.1240556E+00
          1   -1    0    0  502    0 -0.00000000000E+00  0.00000000000E+00  0.30267257962E+03  0.30267257962E+03  0.00000000000E+00 0. -1.
         21   -1    0    0  501  502  0.00000000000E+00 -0.00000000000E+00 -0.13893500068E+03  0.13893500068E+03  0.00000000000E+00 0. -1.
         23    2    1    2    0    0  0.22476530438E+02  0.85537256772E+02  0.21528000794E+03  0.25001482007E+03  0.91324212133E+02 0.  0.
         23    2    1    2    0    0 -0.23616870727E+02 -0.56239429420E+02  0.23198496164E+02  0.11130659108E+03  0.90168492214E+02 0.  0.
        -11    1    3    3    0    0 -0.14453005919E+02  0.78429280074E+02  0.18592499259E+03  0.20230705430E+03  0.00000000000E+00 0. -1.
         11    1    3    3    0    0  0.36929536357E+02  0.71079766988E+01  0.29355015349E+02  0.47707765767E+02  0.00000000000E+00 0.  1.
        -13    1    4    4    0    0 -0.40467240370E+02 -0.46963899394E+01 -0.16652409482E+02  0.44010866421E+02  0.00000000000E+00 0.  1.
         13    1    4    4    0    0  0.16850369643E+02 -0.51543039480E+02  0.39850905646E+02  0.67295724654E+02  0.00000000000E+00 0. -1.
          1    1    1    2  501    0  0.11403402890E+01 -0.29297827353E+02 -0.74740925158E+02  0.80286169152E+02  0.00000000000E+00 0. -1.
<scales pt_clust_5="13000.00000" pt_clust_6="13000.00000" pt_clust_7="13000.00000" pt_clust_8="13000.00000" pt_clust_9="29.32001"></scales>
<clustering>
<clus scale="   29.320">  2  9  1 -1</clus>
<clus scale="   90.168">  7  8 -1 -1</clus>
<clus scale="   91.324">  5  6 -1 -1</clus>
<clus scale="  120.906">  2  7  1 -1</clus>
<clus scale="   29.320">  2  5  1 -1</clus>
</clustering>
</event>
<event>
 9    1  0.1671478E-005  0.9213710E+02  0.7546771E-02  0.1301768E+00
         21   -1    0    0  501  502  0.00000000000E+00  0.00000000000E+00  0.23484123264E+02  0.23484123264E+02  0.00000000000E+00 0. -1.
          2   -1    0    0  502    0 -0.00000000000E+00 -0.00000000000E+00 -0.57945187446E+03  0.57945187446E+03  0.00000000000E+00 0. -1.
         23    2    1    2    0    0 -0.58931077155E+01  0.23545974814E+01 -0.37195359748E+03  0.38151377992E+03  0.84634583623E+02 0.  0.
         23    2    1    2    0    0  0.31928860053E+02 -0.56320244143E+01 -0.14207801145E+03  0.17195261142E+03  0.91270846572E+02 0.  0.
        -11    1    3    3    0    0  0.26071814577E+02 -0.28139492054E+02 -0.21790260508E+03  0.22125351032E+03  0.00000000000E+00 0.  1.
         11    1    3    3    0    0 -0.31964922292E+02  0.30494089536E+02 -0.15405099240E+03  0.16026026961E+03  0.00000000000E+00 0. -1.
        -13    1    4    4    0    0  0.63823061947E+02 -0.32222960136E+01 -0.10566816553E+03  0.12348897778E+03  0.00000000000E+00 0. -1.
         13    1    4    4    0    0 -0.31894201894E+02 -0.24097284007E+01 -0.36409845923E+02  0.48463633640E+02  0.00000000000E+00 0.  1.
          2    1    1    2  501    0 -0.26035752337E+02  0.32774269329E+01 -0.41936142265E+02  0.49469606378E+02  0.00000000000E+00 0. -1.
<scales pt_clust_5="13000.00000" pt_clust_6="13000.00000" pt_clust_7="13000.00000" pt_clust_8="13000.00000" pt_clust_9="26.24123"></scales>
<clustering>
<clus scale="   26.241">  1  9  2 -1</clus>
<clus scale="   84.635">  5  6 -1 -1</clus>
<clus scale="   85.568">  2  5  1 -1</clus>
<clus scale="   91.271">  7  8 -1 -1</clus>
<clus scale="   26.241">  1  5  2 -1</clus>
</clustering>
</event>
<event>
 9    1  0.1671478E-005  0.9684062E+02  0.7546771E-02  0.1287769E+00
         21   -1    0    0  501  502  0.00000000000E+00  0.00000000000E+00  0.10940845360E+03  0.10940845360E+03  0.00000000000E+00 0.  1.
          2   -1    0    0  502    0 -0.00000000000E+00 -0.00000000000E+00 -0.17587517571E+03  0.17587517571E+03  0.00000000000E+00 0. -1.
         23    2    1    2    0    0  0.43888133615E+02  0.62588291868E+01 -0.78956527344E+02  0.12894255620E+03  0.91797104394E+02 0.  0.
         23    2    1    2    0    0 -0.91884683934E+01 -0.17025318198E+02 -0.32893836070E+02  0.98206238889E+02  0.90488515813E+02 0.  0.
        -13    1    3    3    0    0 -0.24318391896E+02  0.20637129237E+02 -0.29778159134E+02  0.43635009442E+02  0.00000000000E+00 0. -1.
         13    1    3    3    0    0  0.68206525512E+02 -0.14378300050E+02 -0.49178368210E+02  0.85307546762E+02  0.00000000000E+00 0.  1.
        -13    1    4    4    0    0  0.37217591595E+02 -0.25488846635E+02 -0.19708574384E+02  0.49226601865E+02  0.00000000000E+00 0.  1.
         13    1    4    4    0    0 -0.46406059988E+02  0.84635284375E+01 -0.13185261686E+02  0.48979637024E+02  0.00000000000E+00 0. -1.
          2    1    1    2  501    0 -0.34699665222E+02  0.10766489011E+02  0.45383641304E+02  0.58134834223E+02  0.00000000000E+00 0. -1.
<scales pt_clust_5="13000.00000" pt_clust_6="13000.00000" pt_clust_7="13000.00000" pt_clust_8="13000.00000" pt_clust_9="36.33158"></scales>
<clustering>
<clus scale="   36.332">  1  9  2 -1</clus>
<clus scale="   90.489">  7  8 -1 -1</clus>
<clus scale="   91.797">  5  6 -1 -1</clus>
<clus scale="   95.601">  1  7  2 -1</clus>
<clus scale="   36.332">  1  5  2 -1</clus>
</clustering>
</event>
<event>
 9    1  0.1671478E-005  0.9048623E+02  0.7546771E-02  0.1301893E+00
         21   -1    0    0  501  502  0.00000000000E+00  0.00000000000E+00  0.24058917886E+02  0.24058917886E+02  0.00000000000E+00 0. -1.
         -3   -1    0    0    0  501 -0.00000000000E+00 -0.00000000000E+00 -0.46138656864E+03  0.46138656864E+03  0.00000000000E+00 0.  1.
         23    2    1    2    0    0 -0.72655449828E+01  0.60679778708E+01 -0.24420352453E+03  0.26060040805E+03  0.90485373305E+02 0.  0.
         23    2    1    2    0    0 -0.10043800691E+02  0.74739229781E+01 -0.17074906096E+03  0.19348204176E+03  0.90129469158E+02 0.  0.
        -11    1    3    3    0    0  0.39945446351E+02 -0.23198701941E+01 -0.14494742979E+03  0.15036880623E+03  0.00000000000E+00 0.  1.
         11    1    3    3    0    0 -0.47210991334E+02  0.83878480649E+01 -0.99256094736E+02  0.11023160182E+03  0.00000000000E+00 0. -1.
        -11    1    4    4    0    0  0.27142564994E+02  0.12553338661E+02 -0.14479390376E+03  0.14784985530E+03  0.00000000000E+00 0.  1.
         11    1    4    4    0    0 -0.37186365686E+02 -0.50794156828E+01 -0.25955157200E+02  0.45632186468E+02  0.00000000000E+00 0. -1.
         -3    1    1    2    0  502  0.17309345674E+02 -0.13541900849E+02 -0.22375065271E+02  0.31363036717E+02  0.00000000000E+00 0.  1.
<scales pt_clust_5="13000.00000" pt_clust_6="13000.00000" pt_clust_7="13000.00000" pt_clust_8="13000.00000" pt_clust_9="21.97718"></scales>
<clustering>
<clus scale="   21.977">  1  9  2 -1</clus>
<clus scale="   90.129">  7  8 -1 -1</clus>
<clus scale="   90.130">  1  7  2 -1</clus>
<clus scale="   90.485">  5  6 -1 -1</clus>
<clus scale="   21.977">  1  5  2 -1</clus>
</clustering>
</event>
<event>
 9    1  0.1671478E-005  0.1305316E+03  0.7546771E-02  0.1228065E+00
         21   -1    0    0  501  502  0.00000000000E+00  0.00000000000E+00  0.13341501198E+03  0.13341501198E+03  0.00000000000E+00 0. -1.
          3   -1    0    0  502    0 -0.00000000000E+00 -0.00000000000E+00 -0.57154292084E+03  0.57154292084E+03  0.00000000000E+00 0. -1.
         23    2    1    2    0    0  0.65191779267E+02  0.55168826425E+02 -0.43564944777E+03  0.45311702297E+03  0.90725011259E+02 0.  0.
         23    2    1    2    0    0 -0.42850082004E+02 -0.13311136600E+03  0.98525633055E+01  0.16982722152E+03  0.95861602734E+02 0.  0.
        -11    1    3    3    0    0 -0.10735712557E+02  0.39838619946E+02 -0.22332586500E+03  0.22710529087E+03  0.00000000000E+00 0. -1.
         11    1    3    3    0    0  0.75927491824E+02  0.15330206479E+02 -0.21232358277E+03  0.22601173210E+03  0.00000000000E+00 0.  1.
        -13    1    4    4    0    0 -0.48057440968E+02 -0.14350419544E+02  0.89627929197E+01  0.50948835418E+02  0.00000000000E+00 0.  1.
         13    1    4    4    0    0  0.52073589645E+01 -0.11876094645E+03  0.88977038589E+00  0.11887838610E+03  0.00000000000E+00 0. -1.
          3    1    1    2  501    0 -0.22341697263E+02  0.77942539572E+02 -0.12331024396E+02  0.82013688335E+02  0.00000000000E+00 0. -1.
<scales pt_clust_5="13000.00000" pt_clust_6="13000.00000" pt_clust_7="13000.00000" pt_clust_8="13000.00000" pt_clust_9="81.08138"></scales>
<clustering>
<clus scale="   81.081">  1  9  2 -1</clus>
<clus scale="   90.725">  5  6 -1 -1</clus>
<clus scale="   95.862">  7  8 -1 -1</clus>
<clus scale="  126.807">  2  5  1 -1</clus>
<clus scale="   81.081">  1  5  2 -1</clus>
</clustering>
</event>
<event>
 9    1  0.1671478E-005  0.1286430E+03  0.7546771E-02  0.1243944E+00
         21   -1    0    0  501  502  0.00000000000E+00  0.00000000000E+00  0.10398699612E+03  0.10398699612E+03  0.00000000000E+00 0.  1.
         -3   -1    0    0    0  501 -0.00000000000E+00 -0.00000000000E+00 -0.29540741444E+03  0.29540741444E+03  0.00000000000E+00 0.  1.
         23    2    1    2    0    0  0.15519863099E+02 -0.24523588374E+02 -0.79562499867E+01  0.96081053651E+02  0.91246887177E+02 0.  0.
         23    2    1    2    0    0  0.72777610715E+01 -0.69521096083E+02 -0.17049210231E+03  0.20567930117E+03  0.91379808359E+02 0.  0.
        -11    1    3    3    0    0  0.23625098845E+02  0.30415377000E+02  0.55970867893E+01  0.38917448966E+02  0.00000000000E+00 0. -1.
         11    1    3    3    0    0 -0.81052357458E+01 -0.54938965374E+02 -0.13553336776E+02  0.57163604686E+02  0.00000000000E+00 0.  1.
        -13    1    4    4    0    0  0.21352056464E+02  0.10252562072E+02 -0.96232110385E+01  0.25566218629E+02  0.00000000000E+00 0.  1.
         13    1    4    4    0    0 -0.14074295393E+02 -0.79773658155E+02 -0.16086889127E+03  0.18011308254E+03  0.00000000000E+00 0. -1.
         -3    1    1    2    0  502 -0.22797624170E+02  0.94044684458E+02 -0.12972066027E+02  0.97634055737E+02  0.00000000000E+00 0.  1.
<scales pt_clust_5="13000.00000" pt_clust_6="13000.00000" pt_clust_7="13000.00000" pt_clust_8="13000.00000" pt_clust_9="90.54692"></scales>
<clustering>
<clus scale="   91.247">  5  6 -1 -1</clus>
<clus scale="   91.380">  7  8 -1 -1</clus>
<clus scale="   95.751">  2  5  1 -1</clus>
<clus scale="   90.547">  1  9  2 -1</clus>
<clus scale="   90.547">  1  5  2 -1</clus>
</clustering>
</event>
<event>
 9    1  0.1671478E-005  0.1499323E+03  0.7546771E-02  0.1202289E+00
         21   -1    0    0  501  502  0.00000000000E+00  0.00000000000E+00  0.12076450795E+03  0.12076450795E+03  0.00000000000E+00 0. -1.
          2   -1    0    0  502    0 -0.00000000000E+00 -0.00000000000E+00 -0.38858797582E+03  0.38858797582E+03  0.00000000000E+00 0. -1.
         23    2    1    2    0    0  0.95593941391E+02 -0.48273581518E+01 -0.11823461675E+03  0.17924308999E+03  0.94800610187E+02 0.  0.
         23    2    1    2    0    0 -0.13855160676E+03  0.99016087389E+02 -0.93760800389E+02  0.21249286018E+03  0.85798570147E+02 0.  0.
        -11    1    4    4    0    0 -0.11727097648E+03  0.11469999148E+03 -0.84159244887E+02  0.18436742790E+03  0.00000000000E+00 0. -1.
         11    1    4    4    0    0 -0.21280630285E+02 -0.15683904093E+02 -0.96015555017E+01  0.28125432281E+02  0.00000000000E+00 0.  1.
        -13    1    3    3    0    0  0.13982672432E+02 -0.41504801586E+02 -0.51607705298E+02  0.67686918449E+02  0.00000000000E+00 0.  1.
         13    1    3    3    0    0  0.81611268959E+02  0.36677443434E+02 -0.66626911456E+02  0.11155617154E+03  0.00000000000E+00 0. -1.
          2    1    1    2  501    0  0.42957665370E+02 -0.94188729237E+02 -0.55828050722E+02  0.11761653360E+03  0.00000000000E+00 0. -1.
<scales pt_clust_5="13000.00000" pt_clust_6="13000.00000" pt_clust_7="13000.00000" pt_clust_8="13000.00000" pt_clust_9="103.52235"></scales>
<clustering>
<clus scale="   85.799">  5  6 -1 -1</clus>
<clus scale="   94.801">  7  8 -1 -1</clus>
<clus scale="  103.522">  1  9  2 -1</clus>
<clus scale="  144.409">  1  5  2 -1</clus>
<clus scale="  103.522">  1  5  2 -1</clus>
</clustering>
</event>
<event>
 9    1  0.1671478E-005  0.1037790E+03  0.7546771E-02  0.1274181E+00
         21   -1    0    0  501  502  0.00000000000E+00  0.00000000000E+00  0.75816042174E+02  0.75816042174E+02  0.00000000000E+00 0. -1.
         -2   -1    0    0    0  501 -0.00000000000E+00 -0.00000000000E+00 -0.34996209749E+03  0.34996209749E+03  0.00000000000E+00 0.  1.
         23    2    1    2    0    0  0.48682130449E+02 -0.24701274041E+01 -0.25562573838E+03  0.27630078764E+03  0.92852333172E+02 0.  0.
         23    2    1    2    0    0 -0.30703546312E+02  0.42731504448E+02 -0.19271515013E+02  0.10537777983E+03  0.89243464537E+02 0.  0.
        -13    1    4    4    0    0 -0.23954893238E+02  0.69111681942E+02 -0.25467027084E+02  0.77452120432E+02  0.00000000000E+00 0.  1.
         13    1    4    4    0    0 -0.67486530745E+01 -0.26380177495E+02  0.61955120718E+01  0.27925659398E+02  0.00000000000E+00 0. -1.
        -13    1    3    3    0    0 -0.17272302504E+01  0.39222945394E+02 -0.87915696515E+02  0.96283915912E+02  0.00000000000E+00 0.  1.
         13    1    3    3    0    0  0.50409360700E+02 -0.41693072798E+02 -0.16771004186E+03  0.18001687173E+03  0.00000000000E+00 0. -1.
         -2    1    1    2    0  502 -0.17978584137E+02 -0.40261377044E+02  0.75119807472E+00  0.44099572193E+02  0.00000000000E+00 0.  1.
<scales pt_clust_5="13000.00000" pt_clust_6="13000.00000" pt_clust_7="13000.00000" pt_clust_8="13000.00000" pt_clust_9="44.09317"></scales>
<clustering>
<clus scale="   44.093">  1  9  2 -1</clus>
<clus scale="   89.243">  5  6 -1 -1</clus>
<clus scale="   92.852">  7  8 -1 -1</clus>
<clus scale="  100.563">  1  5  2 -1</clus>
<clus scale="   44.093">  1  5  2 -1</clus>
</clustering>
</event>
<event>
 9    1  0.1671478E-005  0.1279731E+03  0.7546771E-02  0.1232567E+00
         21   -1    0    0  501  502  0.00000000000E+00  0.00000000000E+00  0.31168771590E+03  0.31168771590E+03  0.00000000000E+00 0. -1.
         -1   -1    0    0    0  501 -0.00000000000E+00 -0.00000000000E+00 -0.33929468065E+03  0.33929468065E+03  0.00000000000E+00 0.  1.
         23    2    1    2    0    0 -0.19632058882E+02 -0.79205048329E+02 -0.25345080647E+03  0.28010864821E+03  0.86975203837E+02 0.  0.
         23    2    1    2    0    0  0.57202856968E+02  0.16179350393E+03  0.19135179428E+03  0.27380614714E+03  0.94366266617E+02 0.  0.
        -11    1    3    3    0    0 -0.53314825226E+02 -0.38384111095E+02 -0.12576742513E+03  0.14189170447E+03  0.00000000000E+00 0. -1.
         11    1    3    3    0    0  0.33682766344E+02 -0.40820937235E+02 -0.12768338135E+03  0.13821694374E+03  0.00000000000E+00 0.  1.
        -13    1    4    4    0    0  0.27666907752E+02  0.35667850016E+01  0.59580073108E+02  0.65787269675E+02  0.00000000000E+00 0.  1.
         13    1    4    4    0    0  0.29535949216E+02  0.15822671893E+03  0.13177172118E+03  0.20801887746E+03  0.00000000000E+00 0. -1.
         -1    1    1    2    0  502 -0.37570798086E+02 -0.82588455599E+02  0.34492047439E+02  0.97067601205E+02  0.00000000000E+00 0.  1.
<scales pt_clust_5="13000.00000" pt_clust_6="13000.00000" pt_clust_7="13000.00000" pt_clust_8="13000.00000" pt_clust_9="90.73267"></scales>
<clustering>
<clus scale="   86.975">  5  6 -1 -1</clus>
<clus scale="   90.733">  1  9  2 -1</clus>
<clus scale="   94.366">  7  8 -1 -1</clus>
<clus scale="  122.625">  2  5  1 -1</clus>
<clus scale="   90.733">  1  5  2 -1</clus>
</clustering>
</event>
<event>
 9    1  0.1671478E-005  0.8957414E+02  0.7546771E-02  0.1304049E+00
         21   -1    0    0  501  502  0.00000000000E+00  0.00000000000E+00  0.59064837060E+02  0.59064837060E+02  0.00000000000E+00 0.  1.
         -2   -1    0    0    0  501 -0.00000000000E+00 -0.00000000000E+00 -0.39762392606E+03  0.39762392606E+03  0.00000000000E+00 0.  1.
         23    2    1    2    0    0  0.24181513588E+02  0.19248232216E+02 -0.19652956408E+03  0.21801935031E+03  0.89181430303E+02 0.  0.
         23    2    1    2    0    0  0.24797621005E+02  0.14768216270E+02 -0.15150216672E+03  0.17828890820E+03  0.89448342897E+02 0.  0.
        -13    1    4    4    0    0  0.52815505063E+02  0.31127701543E+02 -0.92902898646E+02  0.11130750179E+03  0.00000000000E+00 0.  1.
         13    1    4    4    0    0 -0.28017884059E+02 -0.16359485273E+02 -0.58599268078E+02  0.66981406411E+02  0.00000000000E+00 0. -1.
        -13    1    3    3    0    0  0.52366049551E+02  0.38244055562E+01 -0.16440338605E+03  0.17258418980E+03  0.00000000000E+00 0.  1.
         13    1    3    3    0    0 -0.28184535963E+02  0.15423826660E+02 -0.32126178029E+02  0.45435160515E+02  0.00000000000E+00 0. -1.
         -2    1    1    2    0  502 -0.48979134593E+02 -0.34016448486E+02  0.94726418060E+01  0.60380504601E+02  0.00000000000E+00 0.  1.
<scales pt_clust_5="13000.00000" pt_clust_6="13000.00000" pt_clust_7="13000.00000" pt_clust_8="13000.00000" pt_clust_9="59.63283"></scales>
<clustering>
<clus scale="   59.633">  1  9  2 -1</clus>
<clus scale="   89.181">  7  8 -1 -1</clus>
<clus scale="   89.308">  2  7  1 -1</clus>
<clus scale="   89.448">  5  6 -1 -1</clus>
<clus scale="   59.633">  1  5  2 -1</clus>
</clustering>
</event>
<event>
 9    1  0.1671478E-005  0.1374392E+03  0.7546771E-02  0.1217178E+00
          3   -1    0    0  502    0 -0.00000000000E+00  0.00000000000E+00  0.35744081791E+03  0.35744081791E+03  0.00000000000E+00 0. -1.
         21   -1    0    0  501  502  0.00000000000E+00 -0.00000000000E+00 -0.84078879364E+02  0.84078879364E+02  0.00000000000E+00 0.  1.
         23    2    1    2    0    0  0.85306611128E+02  0.26500249891E+02  0.15946214916E+03  0.20358371694E+03  0.89658639522E+02 0.  0.
         23    2    1    2    0    0 -0.12505822218E+03 -0.21178280277E+02  0.12046818177E+03  0.19729538830E+03  0.91240390918E+02 0.  0.
        -11    1    4    4    0    0 -0.22026164501E+02  0.83995778153E+01 -0.12353561665E+02  0.26614193880E+02  0.00000000000E+00 0.  1.
         11    1    4    4    0    0 -0.10303205768E+03 -0.29577858092E+02  0.13282174344E+03  0.17068119442E+03  0.00000000000E+00 0. -1.
        -11    1    3    3    0    0 -0.86950722613E+01 -0.19901216059E+02  0.26210657879E+02  0.34039113806E+02  0.00000000000E+00 0.  1.
         11    1    3    3    0    0  0.94001683390E+02  0.46401465950E+02  0.13325149129E+03  0.16954460314E+03  0.00000000000E+00 0. -1.
          3    1    1    2  501    0  0.39751611054E+02 -0.53219696148E+01 -0.65683923926E+01  0.40640592030E+02  0.00000000000E+00 0. -1.
<scales pt_clust_5="13000.00000" pt_clust_6="13000.00000" pt_clust_7="13000.00000" pt_clust_8="13000.00000" pt_clust_9="40.10628"></scales>
<clustering>
<clus scale="   40.106">  2  9  1 -1</clus>
<clus scale="   89.659">  7  8 -1 -1</clus>
<clus scale="   91.240">  5  6 -1 -1</clus>
<clus scale="  136.394">  1  7  2 -1</clus>
<clus scale="   40.106">  2  5  1 -1</clus>
</clustering>
</event>
<event>
 9    1  0.1671478E-005  0.1037699E+03  0.7546771E-02  0.1273715E+00
         -2   -1    0    0    0  501 -0.00000000000E+00  0.00000000000E+00  0.10271746515E+03  0.10271746515E+03  0.00000000000E+00 0.  1.
         21   -1    0    0  501  502  0.00000000000E+00 -0.00000000000E+00 -0.26307732087E+03  0.26307732087E+03  0.00000000000E+00 0. -1.
         23    2    1    2    0    0  0.53746214214E+02 -0.13757747308E+02  0.27806461133E+02  0.11016607912E+03  0.91024362419E+02 0.  0.
         23    2    1    2    0    0  0.59761789521E+01  0.46578310573E+02 -0.10787494390E+03  0.15031651298E+03  0.93556383131E+02 0.  0.
        -11    1    3    3    0    0  0.44777661082E+02 -0.39294835348E+02  0.47911128050E+02  0.76449978470E+02  0.00000000000E+00 0.  1.
         11    1    3    3    0    0  0.89685531313E+01  0.25537088041E+02 -0.20104666917E+02  0.33716100646E+02  0.00000000000E+00 0. -1.
        -11    1    4    4    0    0 -0.35733399016E+02  0.13161648454E+02 -0.83097645052E+02  0.91407458166E+02  0.00000000000E+00 0.  1.
         11    1    4    4    0    0  0.41709577968E+02  0.33416662120E+02 -0.24777298844E+02  0.58909054818E+02  0.00000000000E+00 0. -1.
         -2    1    1    2    0  502 -0.59722393166E+02 -0.32820563266E+02 -0.80291372951E+02  0.10531219392E+03  0.00000000000E+00 0.  1.
<scales pt_clust_5="13000.00000" pt_clust_6="13000.00000" pt_clust_7="13000.00000" pt_clust_8="13000.00000" pt_clust_9="68.14656"></scales>
<clustering>
<clus scale="   68.147">  2  9  1 -1</clus>
<clus scale="   91.024">  5  6 -1 -1</clus>
<clus scale="   93.556">  7  8 -1 -1</clus>
<clus scale="  101.493">  1  5  2 -1</clus>
<clus scale="   68.147">  2  5  1 -1</clus>
</clustering>
</event>
<event>
 9    1  0.1671478E-005  0.1113873E+03  0.7546771E-02  0.1258754E+00
         -2   -1    0    0    0  501 -0.00000000000E+00  0.00000000000E+00  0.35203531228E+03  0.35203531228E+03  0.00000000000E+00 0.  1.
         21   -1    0    0  501  502  0.00000000000E+00 -0.00000000000E+00 -0.20054314923E+03  0.20054314923E+03  0.00000000000E+00 0.  1.
         23    2    1    2    0    0  0.79548734413E+02 -0.12882950351E+02  0.23766199270E+03  0.26721512437E+03  0.91797213268E+02 0.  0.
         23    2    1    2    0    0 -0.52927112075E+01  0.59998282665E+02  0.53213958014E+02  0.12055541322E+03  0.89855860209E+02 0.  0.
        -13    1    4    4    0    0  0.77330119943E+01 -0.22223793200E+02  0.20160113449E+02  0.30985910233E+02  0.00000000000E+00 0.  1.
         13    1    4    4    0    0 -0.13025723202E+02  0.82222075865E+02  0.33053844565E+02  0.89569502985E+02  0.00000000000E+00 0. -1.
        -13    1    3    3    0    0 -0.15565548145E+02 -0.16240769758E+02  0.79541576793E+02  0.82661425889E+02  0.00000000000E+00 0. -1.
         13    1    3    3    0    0  0.95114282558E+02  0.33578194074E+01  0.15812041590E+03  0.18455369848E+03  0.00000000000E+00 0.  1.
         -2    1    1    2    0  502 -0.74256023205E+02 -0.47115332314E+02 -0.13938378766E+03  0.16480792391E+03  0.00000000000E+00 0.  1.
<scales pt_clust_5="13000.00000" pt_clust_6="13000.00000" pt_clust_7="13000.00000" pt_clust_8="13000.00000" pt_clust_9="87.94209"></scales>
<clustering>
<clus scale="   87.942">  2  9  1 -1</clus>
<clus scale="   89.856">  5  6 -1 -1</clus>
<clus scale="   91.797">  7  8 -1 -1</clus>
<clus scale="  109.793">  2  5  1 -1</clus>
<clus scale="   87.942">  2  5  1 -1</clus>
</clustering>
</event>
<event>
 9    1  0.1671478E-005  0.1205483E+03  0.7546771E-02  0.1242558E+00
         -1   -1    0    0    0  501 -0.00000000000E+00  0.00000000000E+00  0.56234533810E+02  0.56234533810E+02  0.00000000000E+00 0.  1.
         21   -1    0    0  501  502  0.00000000000E+00 -0.00000000000E+00 -0.34240939577E+03  0.34240939577E+03  0.00000000000E+00 0.  1.
         23    2    1    2    0    0 -0.53040866494E+02  0.74865170758E+02 -0.93447504079E+02  0.15918967579E+03  0.90502980884E+02 0.  0.
         23    2    1    2    0    0  0.29860510222E+02 -0.52422968984E+02 -0.15272924009E+03  0.18806523975E+03  0.91665128997E+02 0.  0.
        -13    1    3    3    0    0  0.16114449069E+02  0.48799489551E+02 -0.57131537883E+02  0.76844507091E+02  0.00000000000E+00 0. -1.
         13    1    3    3    0    0 -0.69155315564E+02  0.26065681207E+02 -0.36315966197E+02  0.82345168701E+02  0.00000000000E+00 0.  1.
        -13    1    4    4    0    0  0.33719067695E+02 -0.77121518470E+02 -0.10927704650E+03  0.13793540890E+03  0.00000000000E+00 0. -1.
         13    1    4    4    0    0 -0.38585574735E+01  0.24698549486E+02 -0.43452193595E+02  0.50129830847E+02  0.00000000000E+00 0.  1.
         -1    1    1    2    0  502  0.23180356272E+02 -0.22442201774E+02 -0.39998117784E+02  0.51389014036E+02  0.00000000000E+00 0.  1.
<scales pt_clust_5="13000.00000" pt_clust_6="13000.00000" pt_clust_7="13000.00000" pt_clust_8="13000.00000" pt_clust_9="32.26424"></scales>
<clustering>
<clus scale="   32.264">  2  9  1 -1</clus>
<clus scale="   90.503">  5  6 -1 -1</clus>
<clus scale="   91.665">  7  8 -1 -1</clus>
<clus scale="  119.667">  1  5  2 -1</clus>
<clus scale="   32.264">  2  5  1 -1</clus>
</clustering>
</event>
<event>
 9    1  0.1671478E-005  0.1142298E+03  0.7546771E-02  0.1253738E+00
          1   -1    0    0  502    0 -0.00000000000E+00  0.00000000000E+00  0.33204073516E+03  0.33204073516E+03  0.00000000000E+00 0. -1.
         21   -1    0    0  501  502  0.00000000000E+00 -0.00000000000E+00 -0.53182653862E+02  0.53182653862E+02  0.00000000000E+00 0.  1.
         23    2    1    2    0    0  0.15259762495E+02 -0.78285845209E+02  0.18422368569E+03  0.22092885949E+03  0.92247822064E+02 0.  0.
         23    2    1    2    0    0 -0.27165708898E+01  0.49310542414E+02  0.69968031439E+02  0.12422796805E+03  0.89989739814E+02 0.  0.
        -13    1    3    3    0    0  0.13521056494E+02 -0.45097695667E+02  0.16414376997E+02  0.49860333887E+02  0.00000000000E+00 0.  1.
         13    1    3    3    0    0  0.17387060007E+01 -0.33188149543E+02  0.16780930869E+03  0.17106852560E+03  0.00000000000E+00 0. -1.
        -13    1    4    4    0    0  0.14723410626E+02  0.72166449957E+02  0.54126323087E+02  0.91402593895E+02  0.00000000000E+00 0. -1.
         13    1    4    4    0    0 -0.17439981515E+02 -0.22855907543E+02  0.15841708352E+02  0.32825374154E+02  0.00000000000E+00 0.  1.
          1    1    1    2  501    0 -0.12543191605E+02  0.28975302795E+02  0.24666364177E+02  0.40066561487E+02  0.00000000000E+00 0. -1.
<scales pt_clust_5="13000.00000" pt_clust_6="13000.00000" pt_clust_7="13000.00000" pt_clust_8="13000.00000" pt_clust_9="31.57372"></scales>
<clustering>
<clus scale="   31.574">  2  9  1 -1</clus>
<clus scale="   89.990">  7  8 -1 -1</clus>
<clus scale="   92.248">  5  6 -1 -1</clus>
<clus scale="  112.414">  2  7  1 -1</clus>
<clus scale="   31.574">  2  5  1 -1</clus>
</clustering>
</event>
<event>
 9    1  0.1671478E-005  0.1367801E+03  0.7546771E-02  0.1220392E+00
         21   -1    0    0  501  502  0.00000000000E+00  0.00000000000E+00  0.80025815410E+03  0.80025815410E+03  0.00000000000E+00 0.  1.
         -1   -1    0    0    0  501 -0.00000000000E+00 -0.00000000000E+00 -0.35279579580E+02  0.35279579580E+02  0.00000000000E+00 0.  1.
         23    2    1    2    0    0  0.10729636684E+03  0.19806394655E+02  0.23838112689E+03  0.27760766575E+03  0.91299785434E+02 0.  0.
         23    2    1    2    0    0 -0.91661362267E+02  0.23989979146E+02  0.46220482492E+03  0.47850094489E+03  0.79702758136E+02 0.  0.
        -11    1    3    3    0    0  0.69041339716E+02 -0.32953719405E+02  0.11598622226E+03  0.13894408216E+03  0.00000000000E+00 0. -1.
         11    1    3    3    0    0  0.38255027129E+02  0.52760114060E+02  0.12239490462E+03  0.13866358359E+03  0.00000000000E+00 0.  1.
        -11    1    4    4    0    0  0.93338534715E+01  0.18650679015E+02  0.11459040349E+03  0.11647286903E+03  0.00000000000E+00 0.  1.
         11    1    4    4    0    0 -0.10099521574E+03  0.53393001305E+01  0.34761442143E+03  0.36202807586E+03  0.00000000000E+00 0. -1.
         -1    1    1    2    0  502 -0.15635004577E+02 -0.43796373801E+02  0.64392622714E+02  0.79429123035E+02  0.00000000000E+00 0.  1.
<scales pt_clust_5="13000.00000" pt_clust_6="13000.00000" pt_clust_7="13000.00000" pt_clust_8="13000.00000" pt_clust_9="46.50353"></scales>
<clustering>
<clus scale="   46.504">  1  9  2 -1</clus>
<clus scale="   79.703">  7  8 -1 -1</clus>
<clus scale="   91.300">  5  6 -1 -1</clus>
<clus scale="  129.328">  1  7  2 -1</clus>
<clus scale="   46.504">  1  5  2 -1</clus>
</clustering>
</event>
<event>
 9    1  0.1671478E-005  0.9572229E+02  0.7546771E-02  0.1293346E+00
         21   -1    0    0  501  502  0.00000000000E+00  0.00000000000E+00  0.21449638554E+03  0.21449638554E+03  0.00000000000E+00 0.  1.
          3   -1    0    0  502    0 -0.00000000000E+00 -0.00000000000E+00 -0.85388466188E+02  0.85388466188E+02  0.00000000000E+00 0. -1.
         23    2    1    2    0    0 -0.12289540125E+02 -0.14560304309E+02 -0.17923198305E+02  0.97478033299E+02  0.93902559498E+02 0.  0.
         23    2    1    2    0    0  0.34448833466E+02 -0.20021133338E+02  0.11829382413E+03  0.15227955888E+03  0.87224235836E+02 0.  0.
        -13    1    3    3    0    0 -0.37207689057E+02  0.27946876960E+02 -0.80244576403E+01  0.47221096739E+02  0.00000000000E+00 0. -1.
         13    1    3    3    0    0  0.24918148932E+02 -0.42507181269E+02 -0.98987406647E+01  0.50256936560E+02  0.00000000000E+00 0.  1.
        -13    1    4    4    0    0  0.27222427279E+02  0.86829044864E+01 -0.17627175435E+01  0.28627967976E+02  0.00000000000E+00 0. -1.
         13    1    4    4    0    0  0.72264061866E+01 -0.28704037825E+02  0.12005654167E+03  0.12365159090E+03  0.00000000000E+00 0.  1.
          3    1    1    2  501    0 -0.22159293341E+02  0.34581437647E+02  0.28737293532E+02  0.50127259557E+02  0.00000000000E+00 0. -1.
<scales pt_clust_5="13000.00000" pt_clust_6="13000.00000" pt_clust_7="13000.00000" pt_clust_8="13000.00000" pt_clust_9="41.07201"></scales>
<clustering>
<clus scale="   41.072">  1  9  2 -1</clus>
<clus scale="   87.224">  7  8 -1 -1</clus>
<clus scale="   89.180">  1  7  2 -1</clus>
<clus scale="   93.903">  5  6 -1 -1</clus>
<clus scale="   41.072">  1  5  2 -1</clus>
</clustering>
</event>
<event>
 9    1  0.1671478E-005  0.1560402E+03  0.7546771E-02  0.1194211E+00
         21   -1    0    0  501  502  0.00000000000E+00  0.00000000000E+00  0.39848122741E+03  0.39848122741E+03  0.00000000000E+00 0. -1.
          1   -1    0    0  502    0 -0.00000000000E+00 -0.00000000000E+00 -0.63146799427E+03  0.63146799427E+03  0.00000000000E+00 0. -1.
         23    2    1    2    0    0  0.92854550868E+02 -0.76210848208E+02 -0.56875741999E+03  0.58850823513E+03  0.91798033872E+02 0.  0.
         23    2    1    2    0    0 -0.13931157360E+03  0.76612298472E+02  0.12208466051E+03  0.22276286793E+03  0.97167238188E+02 0.  0.
        -11    1    4    4    0    0 -0.18991375312E+02  0.15575965060E+02  0.76511800128E+02  0.80357567053E+02  0.00000000000E+00 0.  1.
         11    1    4    4    0    0 -0.12032019829E+03  0.61036333412E+02  0.45572860385E+02  0.14240530087E+03  0.00000000000E+00 0. -1.
        -13    1    3    3    0    0  0.98044503828E+02 -0.44928054920E+02 -0.51434275559E+03  0.52552804404E+03  0.00000000000E+00 0. -1.
         13    1    3    3    0    0 -0.51899529598E+01 -0.31282793288E+02 -0.54414664404E+02  0.62980191091E+02  0.00000000000E+00 0.  1.
          1    1    1    2  501    0  0.46457022734E+02 -0.40145026355E+00  0.21368599262E+03  0.21867811862E+03  0.00000000000E+00 0. -1.
<scales pt_clust_5="13000.00000" pt_clust_6="13000.00000" pt_clust_7="13000.00000" pt_clust_8="13000.00000" pt_clust_9="46.45876"></scales>
<clustering>
<clus scale="   46.459">  1  9  2 -1</clus>
<clus scale="   91.798">  7  8 -1 -1</clus>
<clus scale="   97.167">  5  6 -1 -1</clus>
<clus scale="  152.755">  2  7  1 -1</clus>
<clus scale="   46.459">  1  5  2 -1</clus>
</clustering>
</event>
<event>
 9    1  0.1671478E-005  0.1367740E+03  0.7546771E-02  0.1218468E+00
         21   -1    0    0  501  502  0.00000000000E+00  0.00000000000E+00  0.70625508386E+02  0.70625508386E+02  0.00000000000E+00 0. -1.
         -1   -1    0    0    0  501 -0.00000000000E+00 -0.00000000000E+00 -0.49732032251E+03  0.49732032251E+03  0.00000000000E+00 0.  1.
         23    2    1    2    0    0 -0.10045810376E+03  0.46859921497E+02 -0.18335275550E+03  0.23282195224E+03  0.91105135113E+02 0.  0.
         23    2    1    2    0    0  0.10228614710E+03  0.35082724826E+02 -0.10569549978E+03  0.17492239866E+03  0.87937781472E+02 0.  0.
        -11    1    4    4    0    0  0.38643563862E+01 -0.24084765718E+02 -0.21656585913E+02  0.32619271962E+02  0.00000000000E+00 0.  1.
         11    1    4    4    0    0  0.98421790713E+02  0.59167490544E+02 -0.84038913865E+02  0.14230312670E+03  0.00000000000E+00 0. -1.
        -13    1    3    3    0    0 -0.46371334826E+02 -0.14399438107E+02 -0.11990492621E+03  0.12936319353E+03  0.00000000000E+00 0.  1.
         13    1    3    3    0    0 -0.54086768931E+02  0.61259359604E+02 -0.63447829287E+02  0.10345875871E+03  0.00000000000E+00 0. -1.
         -1    1    1    2    0  502 -0.18280433423E+01 -0.81942646324E+02 -0.13764655885E+03  0.16020148000E+03  0.00000000000E+00 0.  1.
<scales pt_clust_5="13000.00000" pt_clust_6="13000.00000" pt_clust_7="13000.00000" pt_clust_8="13000.00000" pt_clust_9="81.96308"></scales>
<clustering>
<clus scale="   81.963">  1  9  2 -1</clus>
<clus scale="   87.938">  5  6 -1 -1</clus>
<clus scale="   91.105">  7  8 -1 -1</clus>
<clus scale="  134.685">  1  5  2 -1</clus>
<clus scale="   81.963">  1  5  2 -1</clus>
</clustering>
</event>
<event>
 9    1  0.1671478E-005  0.1040159E+03  0.7546771E-02  0.1284456E+00
         21   -1    0    0  501  502  0.00000000000E+00  0.00000000000E+00  0.15196266235E+03  0.15196266235E+03  0.00000000000E+00 0.  1.
          1   -1    0    0  502    0 -0.00000000000E+00 -0.00000000000E+00 -0.20554445691E+03  0.20554445691E+03  0.00000000000E+00 0. -1.
         23    2    1    2    0    0  0.93579266120E+01 -0.94607679161E+01 -0.14632847162E+03  0.16805224105E+03  0.81562596785E+02 0.  0.
         23    2    1    2    0    0 -0.26046149411E+01 -0.23598176162E+02  0.18445955221E+02  0.10785158007E+03  0.10357631062E+03 0.  0.
        -11    1    3    3    0    0  0.17456596102E+02  0.21930864992E+02 -0.13107846783E+02  0.30943678418E+02  0.00000000000E+00 0.  1.
         11    1    3    3    0    0 -0.80986694904E+01 -0.31391632908E+02 -0.13322062484E+03  0.13710856263E+03  0.00000000000E+00 0. -1.
        -13    1    4    4    0    0 -0.92264285232E+01  0.23756631935E+02  0.46056018531E+02  0.52637072364E+02  0.00000000000E+00 0.  1.
         13    1    4    4    0    0  0.66218135821E+01 -0.47354808098E+02 -0.27610063310E+02  0.55214507705E+02  0.00000000000E+00 0. -1.
          1    1    1    2  501    0 -0.67533116709E+01  0.33058944079E+02  0.74300721835E+02  0.81603298140E+02  0.00000000000E+00 0. -1.
<scales pt_clust_5="13000.00000" pt_clust_6="13000.00000" pt_clust_7="13000.00000" pt_clust_8="13000.00000" pt_clust_9="33.74168"></scales>
<clustering>
<clus scale="   33.742">  1  9  2 -1</clus>
<clus scale="   81.563">  5  6 -1 -1</clus>
<clus scale="   82.120">  2  5  1 -1</clus>
<clus scale="  103.576">  7  8 -1 -1</clus>
<clus scale="   33.742">  1  5  2 -1</clus>
</clustering>
</event>
<event>
 9    1  0.1671478E-005  0.1054214E+03  0.7546771E-02  0.1269575E+00
          1   -1    0    0  502    0 -0.00000000000E+00  0.00000000000E+00  0.60387834427E+03  0.60387834427E+03  0.00000000000E+00 0. -1.
         21   -1    0    0  501  502  0.00000000000E+00 -0.00000000000E+00 -0.26601182671E+02  0.26601182671E+02  0.00000000000E+00 0.  1.
         23    2    1    2    0    0  0.40533734628E+02  0.56956787372E+02  0.29175510852E+03  0.31357250487E+03  0.91211913647E+02 0.  0.
         23    2    1    2    0    0 -0.91537496710E+01 -0.33103686161E+02  0.20269623421E+03  0.22518030751E+03  0.91873621659E+02 0.  0.
        -11    1    4    4    0    0 -0.45452072488E+02  0.38530386350E+01  0.81914147135E+02  0.93758542550E+02  0.00000000000E+00 0.  1.
         11    1    4    4    0    0  0.36298322817E+02 -0.36956724796E+02  0.12078208708E+03  0.13142176496E+03  0.00000000000E+00 0. -1.
        -13    1    3    3    0    0 -0.17922322890E+02  0.44136323403E+02  0.18655976473E+03  0.19254550246E+03  0.00000000000E+00 0.  1.
         13    1    3    3    0    0  0.58456057518E+02  0.12820463969E+02  0.10519534379E+03  0.12102700241E+03  0.00000000000E+00 0. -1.
          1    1    1    2  501    0 -0.31379984957E+02 -0.23853101211E+02  0.82825818862E+02  0.91726714557E+02  0.00000000000E+00 0. -1.
<scales pt_clust_5="13000.00000" pt_clust_6="13000.00000" pt_clust_7="13000.00000" pt_clust_8="13000.00000" pt_clust_9="39.41667"></scales>
<clustering>
<clus scale="   39.417">  2  9  1 -1</clus>
<clus scale="   91.212">  7  8 -1 -1</clus>
<clus scale="   91.874">  5  6 -1 -1</clus>
<clus scale="  104.845">  1  7  2 -1</clus>
<clus scale="   39.417">  2  5  1 -1</clus>
</clustering>
</event>
<event>
 9    1  0.1671478E-005  0.9530536E+02  0.7546771E-02  0.1292103E+00
         21   -1    0    0  501  502  0.00000000000E+00  0.00000000000E+00  0.14391081107E+03  0.14391081107E+03  0.00000000000E+00 0. -1.
          2   -1    0    0  502    0 -0.00000000000E+00 -0.00000000000E+00 -0.16665549285E+03  0.16665549285E+03  0.00000000000E+00 0. -1.
         23    2    1    2    0    0 -0.26224234666E+02 -0.26439239481E+02 -0.75443003184E+02  0.12248330231E+03  0.89015553400E+02 0.  0.
         23    2    1    2    0    0 -0.12156213836E+02  0.16812004205E+02 -0.27890637498E+02  0.98303701195E+02  0.91952775860E+02 0.  0.
        -11    1    3    3    0    0 -0.51480779207E+02 -0.42180812856E+02 -0.48661078904E+02  0.82446298892E+02  0.00000000000E+00 0. -1.
         11    1    3    3    0    0  0.25256544541E+02  0.15741573376E+02 -0.26781924280E+02  0.40037003417E+02  0.00000000000E+00 0.  1.
        -11    1    4    4    0    0  0.24981451880E+01 -0.37694113229E+02 -0.96864636596E+01  0.38998903571E+02  0.00000000000E+00 0.  1.
         11    1    4    4    0    0 -0.14654359023E+02  0.54506117434E+02 -0.18204173838E+02  0.59304797624E+02  0.00000000000E+00 0. -1.
          2    1    1    2  501    0  0.38380448501E+02  0.96272352754E+01  0.80588958902E+02  0.89779300415E+02  0.00000000000E+00 0. -1.
<scales pt_clust_5="13000.00000" pt_clust_6="13000.00000" pt_clust_7="13000.00000" pt_clust_8="13000.00000" pt_clust_9="39.56946"></scales>
<clustering>
<clus scale="   39.569">  1  9  2 -1</clus>
<clus scale="   89.016">  5  6 -1 -1</clus>
<clus scale="   91.953">  7  8 -1 -1</clus>
<clus scale="   92.475">  2  5  1 -1</clus>
<clus scale="   39.569">  1  5  2 -1</clus>
</clustering>
</event>
<event>
 9    1  0.1671478E-005  0.1116489E+03  0.7546771E-02  0.1259518E+00
         21   -1    0    0  501  502  0.00000000000E+00  0.00000000000E+00  0.43888481408E+03  0.43888481408E+03  0.00000000000E+00 0. -1.
         -1   -1    0    0    0  501 -0.00000000000E+00 -0.00000000000E+00 -0.63011213304E+02  0.63011213304E+02  0.00000000000E+00 0.  1.
         23    2    1    2    0    0  0.37522318980E+02  0.17645469885E+02  0.54940939299E+02  0.11786754098E+03  0.95681572813E+02 0.  0.
         23    2    1    2    0    0 -0.91098449215E+02  0.74677941139E+01  0.12536707197E+03  0.17970771517E+03  0.90682218539E+02 0.  0.
        -11    1    4    4    0    0  0.14867597520E+02 -0.14227056520E+02  0.19099736544E+02  0.28075870945E+02  0.00000000000E+00 0.  1.
         11    1    4    4    0    0 -0.10596604674E+03  0.21694850634E+02  0.10626733543E+03  0.15163184423E+03  0.00000000000E+00 0. -1.
        -13    1    3    3    0    0  0.90076748059E+01 -0.38707450876E+02  0.12066985946E+02  0.41533325277E+02  0.00000000000E+00 0.  1.
         13    1    3    3    0    0  0.28514644174E+02  0.56352920761E+02  0.42873953353E+02  0.76334215701E+02  0.00000000000E+00 0. -1.
         -1    1    1    2    0  502  0.53576130235E+02 -0.25113263999E+02  0.19556558950E+03  0.20432077123E+03  0.00000000000E+00 0.  1.
<scales pt_clust_5="13000.00000" pt_clust_6="13000.00000" pt_clust_7="13000.00000" pt_clust_8="13000.00000" pt_clust_9="59.16991"></scales>
<clustering>
<clus scale="   59.170">  1  9  2 -1</clus>
<clus scale="   90.682">  5  6 -1 -1</clus>
<clus scale="   95.682">  7  8 -1 -1</clus>
<clus scale="  107.395">  1  5  2 -1</clus>
<clus scale="   59.170">  1  5  2 -1</clus>
</clustering>
</event>
<event>
 9    1  0.1671478E-005  0.1394477E+03  0.7546771E-02  0.1231940E+00
         -4   -1    0    0    0  501 -0.00000000000E+00  0.00000000000E+00  0.58222314155E+03  0.58222314155E+03  0.00000000000E+00 0.  1.
         21   -1    0    0  501  502  0.00000000000E+00 -0.00000000000E+00 -0.84388837275E+02  0.84388837275E+02  0.00000000000E+00 0. -1.
         23    2    1    2    0    0  0.50732310812E+01 -0.31568011481E+02  0.31003657868E+03  0.32456146084E+03  0.90527259536E+02 0.  0.
         23    2    1    2    0    0 -0.79134050350E+02  0.10082738043E+03  0.18256474641E+03  0.24051604498E+03  0.89942885719E+02 0.  0.
        -11    1    3    3    0    0  0.42944948868E+02 -0.20174101746E+01  0.95786639948E+02  0.10499247101E+03  0.00000000000E+00 0. -1.
         11    1    3    3    0    0 -0.37871717786E+02 -0.29550601307E+02  0.21424993873E+03  0.21956898983E+03  0.00000000000E+00 0.  1.
        -11    1    4    4    0    0 -0.15806771505E+02  0.81424070860E+02  0.64227245837E+02  0.10490411073E+03  0.00000000000E+00 0. -1.
         11    1    4    4    0    0 -0.63327278845E+02  0.19403309569E+02  0.11833750057E+03  0.13561193424E+03  0.00000000000E+00 0.  1.
         -4    1    1    2    0  502  0.74060819269E+02 -0.69259368947E+02  0.52329791842E+01  0.10153447301E+03  0.00000000000E+00 0.  1.
<scales pt_clust_5="13000.00000" pt_clust_6="13000.00000" pt_clust_7="13000.00000" pt_clust_8="13000.00000" pt_clust_9="106.56422"></scales>
<clustering>
<clus scale="   89.943">  7  8 -1 -1</clus>
<clus scale="   90.527">  5  6 -1 -1</clus>
<clus scale="   96.008">  1  5  2 -1</clus>
<clus scale="  106.564">  2  9  1 -1</clus>
<clus scale="  106.564">  2  5  1 -1</clus>
</clustering>
</event>
<event>
 9    1  0.1671478E-005  0.1148663E+03  0.7546771E-02  0.1251841E+00
          1   -1    0    0  502    0 -0.00000000000E+00  0.00000000000E+00  0.72088641701E+03  0.72088641701E+03  0.00000000000E+00 0. -1.
         21   -1    0    0  501  502  0.00000000000E+00 -0.00000000000E+00 -0.35738571410E+02  0.35738571410E+02  0.00000000000E+00 0.  1.
         23    2    1    2    0    0  0.58731467131E+02 -0.35484972159E+02  0.54556500138E+03  0.55743280420E+03  0.91551034894E+02 0.  0.
         23    2    1    2    0    0 -0.71989148003E+02  0.18310309978E+02  0.12980829719E+03  0.17539561109E+03  0.91628169725E+02 0.  0.
        -13    1    4    4    0    0 -0.45720540249E+02 -0.12590574492E+02  0.12603686363E+03  0.13466321458E+03  0.00000000000E+00 0. -1.
         13    1    4    4    0    0 -0.26268607754E+02  0.30900884470E+02  0.37714335623E+01  0.40732396510E+02  0.00000000000E+00 0.  1.
        -13    1    3    3    0    0  0.74717523118E+02 -0.52275169222E+02  0.42892896855E+03  0.43851506432E+03  0.00000000000E+00 0. -1.
         13    1    3    3    0    0 -0.15986055987E+02  0.16790197063E+02  0.11663603283E+03  0.11891773988E+03  0.00000000000E+00 0.  1.
          1    1    1    2  501    0  0.13257680872E+02  0.17174662181E+02  0.97745470286E+01  0.23796573130E+02  0.00000000000E+00 0. -1.
<scales pt_clust_5="13000.00000" pt_clust_6="13000.00000" pt_clust_7="13000.00000" pt_clust_8="13000.00000" pt_clust_9="21.69643"></scales>
<clustering>
<clus scale="   21.696">  2  9  1 -1</clus>
<clus scale="   91.551">  7  8 -1 -1</clus>
<clus scale="   91.628">  5  6 -1 -1</clus>
<clus scale="  114.805">  1  7  2 -1</clus>
<clus scale="   21.696">  2  5  1 -1</clus>
</clustering>
</event>
<event>
 9    1  0.1671478E-005  0.1123084E+03  0.7546771E-02  0.1264111E+00
         21   -1    0    0  501  502  0.00000000000E+00  0.00000000000E+00  0.34326475438E+02  0.34326475438E+02  0.00000000000E+00 0.  1.
          1   -1    0    0  502    0 -0.00000000000E+00 -0.00000000000E+00 -0.55103226628E+03  0.55103226628E+03  0.00000000000E+00 0. -1.
         23    2    1    2    0    0 -0.12412171611E+02  0.37299752027E+02 -0.31263440458E+03  0.33141287600E+03  0.10270778912E+03 0.  0.
         23    2    1    2    0    0 -0.23989022480E+02 -0.58839156745E+02 -0.16594105873E+03  0.19699926999E+03  0.85057379684E+02 0.  0.
        -11    1    3    3    0    0 -0.53481790456E+02 -0.13594776879E+01 -0.14619532193E+03  0.15567665928E+03  0.00000000000E+00 0.  1.
         11    1    3    3    0    0  0.41069618845E+02  0.38659229714E+02 -0.16643908265E+03  0.17573621672E+03  0.00000000000E+00 0. -1.
        -13    1    4    4    0    0 -0.44782195893E+02 -0.46148576456E+02 -0.58838526686E+02  0.87161392833E+02  0.00000000000E+00 0.  1.
         13    1    4    4    0    0  0.20793173413E+02 -0.12690580290E+02 -0.10710253204E+03  0.10983787716E+03  0.00000000000E+00 0. -1.
          1    1    1    2  501    0  0.36401194091E+02  0.21539404718E+02 -0.38130327527E+02  0.56946595721E+02  0.00000000000E+00 0. -1.
<scales pt_clust_5="13000.00000" pt_clust_6="13000.00000" pt_clust_7="13000.00000" pt_clust_8="13000.00000" pt_clust_9="42.29649"></scales>
<clustering>
<clus scale="   42.296">  1  9  2 -1</clus>
<clus scale="   85.057">  7  8 -1 -1</clus>
<clus scale="   96.432">  1  7  2 -1</clus>
<clus scale="  102.708">  5  6 -1 -1</clus>
<clus scale="   42.296">  1  5  2 -1</clus>
</clustering>
</event>
<event>
 9    1  0.1671478E-005  0.9595689E+02  0.7546771E-02  0.1292172E+00
         21   -1    0    0  501  502  0.00000000000E+00  0.00000000000E+00  0.31057826636E+02  0.31057826636E+02  0.00000000000E+00 0. -1.
          1   -1    0    0  502    0 -0.00000000000E+00 -0.00000000000E+00 -0.84314661263E+03  0.84314661263E+03  0.00000000000E+00 0. -1.
         23    2    1    2    0    0  0.14026735753E+02 -0.17166549591E+02 -0.45761435134E+03  0.46807437079E+03  0.95871175531E+02 0.  0.
         23    2    1    2    0    0  0.43776478875E+02 -0.43793094060E+02 -0.24286352669E+03  0.26643653050E+03  0.90396443507E+02 0.  0.
        -11    1    4    4    0    0 -0.28292249571E+02 -0.10435225161E+02 -0.67324720519E+02  0.73769663839E+02  0.00000000000E+00 0.  1.
         11    1    4    4    0    0  0.72068728446E+02 -0.33357868899E+02 -0.17553880617E+03  0.19266686666E+03  0.00000000000E+00 0. -1.
        -11    1    3    3    0    0  0.89005970674E+01 -0.55968872377E+02 -0.32098335813E+03  0.32594792759E+03  0.00000000000E+00 0. -1.
         11    1    3    3    0    0  0.51261386861E+01  0.38802322786E+02 -0.13663099321E+03  0.14212644320E+03  0.00000000000E+00 0.  1.
          1    1    1    2  501    0 -0.57803214629E+02  0.60959643651E+02 -0.11161090796E+03  0.13969353797E+03  0.00000000000E+00 0. -1.
<scales pt_clust_5="13000.00000" pt_clust_6="13000.00000" pt_clust_7="13000.00000" pt_clust_8="13000.00000" pt_clust_9="84.00768"></scales>
<clustering>
<clus scale="   84.008">  1  9  2 -1</clus>
<clus scale="   90.396">  5  6 -1 -1</clus>
<clus scale="   90.487">  1  5  2 -1</clus>
<clus scale="   95.871">  7  8 -1 -1</clus>
<clus scale="   84.008">  1  5  2 -1</clus>
</clustering>
</event>
<event>
 9    1  0.1856951E-005  0.9865680E+02  0.7546771E-02  0.1283228E+00
         21   -1    0    0  501  502  0.00000000000E+00  0.00000000000E+00  0.78749418783E+02  0.78749418783E+02  0.00000000000E+00 0. -1.
          3   -1    0    0  502    0 -0.00000000000E+00 -0.00000000000E+00 -0.56939085169E+03  0.56939085169E+03  0.00000000000E+00 0. -1.
         23    2    1    2    0    0  0.39891361814E+02  0.29443198739E+01 -0.49096419713E+03  0.50102177297E+03  0.91525867172E+02 0.  0.
         23    2    1    2    0    0 -0.16152740923E+02 -0.10832145634E+02 -0.38421090886E+02  0.10100097127E+03  0.91360656493E+02 0.  0.
        -11    1    3    3    0    0  0.24689812006E+02 -0.43305554688E+02 -0.28937286770E+03  0.29363517236E+03  0.00000000000E+00 0.  1.
         11    1    3    3    0    0  0.15201549809E+02  0.46249874562E+02 -0.20159132943E+03  0.20738660061E+03  0.00000000000E+00 0. -1.
        -13    1    4    4    0    0 -0.48778324477E+02  0.72155387538E+01 -0.27262709031E+01  0.49384425595E+02  0.00000000000E+00 0.  1.
         13    1    4    4    0    0  0.32625583554E+02 -0.18047684388E+02 -0.35694819983E+02  0.51616545677E+02  0.00000000000E+00 0. -1.
          3    1    1    2  501    0 -0.23738620891E+02  0.78878257604E+01  0.38743855107E+02  0.46117526230E+02  0.00000000000E+00 0. -1.
<scales pt_clust_5="13000.00000" pt_clust_6="13000.00000" pt_clust_7="13000.00000" pt_clust_8="13000.00000" pt_clust_9="25.01479"></scales>
<clustering>
<clus scale="   25.015">  1  9  2 -1</clus>
<clus scale="   91.361">  7  8 -1 -1</clus>
<clus scale="   91.526">  5  6 -1 -1</clus>
<clus scale="   98.504">  1  7  2 -1</clus>
<clus scale="   25.015">  1  5  2 -1</clus>
</clustering>
</event>
<event>
 9    1  0.1671478E-005  0.1027907E+03  0.7546771E-02  0.1275590E+00
         21   -1    0    0  501  502  0.00000000000E+00  0.00000000000E+00  0.20809640795E+03  0.20809640795E+03  0.00000000000E+00 0.  1.
         -3   -1    0    0    0  501 -0.00000000000E+00 -0.00000000000E+00 -0.16182154338E+03  0.16182154338E+03  0.00000000000E+00 0.  1.
         23    2    1    2    0    0  0.33927922298E+02 -0.27053375447E+02 -0.89932411663E+02  0.13556330318E+03  0.91687411714E+02 0.  0.
         23    2    1    2    0    0 -0.21256726129E+02  0.56768753092E+02  0.15133868638E+02  0.10904569833E+03  0.89372202671E+02 0.  0.
        -11    1    3    3    0    0 -0.11368696157E+02 -0.44872564548E+02 -0.67792716052E+02  0.82089260267E+02  0.00000000000E+00 0. -1.
         11    1    3    3    0    0  0.45296618455E+02  0.17819189101E+02 -0.22139695611E+02  0.53474042912E+02  0.00000000000E+00 0.  1.
        -13    1    4    4    0    0 -0.56366356075E+02  0.37099270375E+02  0.13176296409E+02  0.68754176212E+02  0.00000000000E+00 0. -1.
         13    1    4    4    0    0  0.35109629946E+02  0.19669482716E+02  0.19575722286E+01  0.40291522114E+02  0.00000000000E+00 0.  1.
         -3    1    1    2    0  502 -0.12671196169E+02 -0.29715377644E+02  0.12107340759E+03  0.12530894983E+03  0.00000000000E+00 0.  1.
<scales pt_clust_5="13000.00000" pt_clust_6="13000.00000" pt_clust_7="13000.00000" pt_clust_8="13000.00000" pt_clust_9="32.30422"></scales>
<clustering>
<clus scale="   32.304">  1  9  2 -1</clus>
<clus scale="   89.372">  7  8 -1 -1</clus>
<clus scale="   91.687">  5  6 -1 -1</clus>
<clus scale="  100.731">  1  7  2 -1</clus>
<clus scale="   32.304">  1  5  2 -1</clus>
</clustering>
</event>
<event>
 9    1  0.1671478E-005  0.1049533E+03  0.7546771E-02  0.1271146E+00
          2   -1    0    0  502    0 -0.00000000000E+00  0.00000000000E+00  0.14299416708E+03  0.14299416708E+03  0.00000000000E+00 0. -1.
         21   -1    0    0  501  502  0.00000000000E+00 -0.00000000000E+00 -0.16295915154E+03  0.16295915154E+03  0.00000000000E+00 0. -1.
         23    2    1    2    0    0 -0.73940667681E+01 -0.31816382202E+02  0.44777994778E+02  0.10664698061E+03  0.91112870968E+02 0.  0.
         23    2    1    2    0    0  0.15590038676E+02  0.79303879725E+02 -0.62846504204E+01  0.12354610712E+03  0.93230837748E+02 0.  0.
        -13    1    4    4    0    0  0.53403805003E+02  0.51499314200E+02  0.76554707549E+01  0.74583858739E+02  0.00000000000E+00 0. -1.
         13    1    4    4    0    0 -0.37813766326E+02  0.27804565524E+02 -0.13940121175E+02  0.48962248377E+02  0.00000000000E+00 0.  1.
        -13    1    3    3    0    0  0.25068507764E+02 -0.51957690373E+02  0.19753384610E+02  0.60977273422E+02  0.00000000000E+00 0.  1.
         13    1    3    3    0    0 -0.32462574532E+02  0.20141308171E+02  0.25024610169E+02  0.45669707183E+02  0.00000000000E+00 0. -1.
          2    1    1    2  501    0 -0.81959719083E+01 -0.47487497523E+02 -0.58458328827E+02  0.75760230898E+02  0.00000000000E+00 0. -1.
<scales pt_clust_5="13000.00000" pt_clust_6="13000.00000" pt_clust_7="13000.00000" pt_clust_8="13000.00000" pt_clust_9="48.18959"></scales>
<clustering>
<clus scale="   48.190">  2  9  1 -1</clus>
<clus scale="   91.113">  7  8 -1 -1</clus>
<clus scale="   93.231">  5  6 -1 -1</clus>
<clus scale="  103.076">  1  7  2 -1</clus>
<clus scale="   48.190">  2  5  1 -1</clus>
</clustering>
</event>
<event>
 9    1  0.1671478E-005  0.1280105E+03  0.7546771E-02  0.1231044E+00
         21   -1    0    0  501  502  0.00000000000E+00  0.00000000000E+00  0.21950788953E+03  0.21950788953E+03  0.00000000000E+00 0. -1.
          2   -1    0    0  502    0 -0.00000000000E+00 -0.00000000000E+00 -0.45062991965E+03  0.45062991965E+03  0.00000000000E+00 0. -1.
         23    2    1    2    0    0 -0.37206325350E+02  0.45495822596E+02 -0.16763989390E+03  0.19889863564E+03  0.89461459366E+02 0.  0.
         23    2    1    2    0    0  0.71667725130E+02 -0.13067063974E+03 -0.22523034954E+03  0.28521545984E+03  0.91695524771E+02 0.  0.
        -11    1    3    3    0    0 -0.49351506454E+02 -0.97513074901E+01 -0.84483038046E+02  0.98326206601E+02  0.00000000000E+00 0.  1.
         11    1    3    3    0    0  0.12145181104E+02  0.55247130086E+02 -0.83156855853E+02  0.10057242904E+03  0.00000000000E+00 0. -1.
        -11    1    4    4    0    0  0.51816125806E+02 -0.10102491040E+02 -0.67954657199E+02  0.86051186242E+02  0.00000000000E+00 0.  1.
         11    1    4    4    0    0  0.19851599324E+02 -0.12056814870E+03 -0.15727569234E+03  0.19916427360E+03  0.00000000000E+00 0. -1.
          2    1    1    2  501    0 -0.34461399780E+02  0.85174817144E+02  0.16174821331E+03  0.18602371371E+03  0.00000000000E+00 0. -1.
<scales pt_clust_5="13000.00000" pt_clust_6="13000.00000" pt_clust_7="13000.00000" pt_clust_8="13000.00000" pt_clust_9="91.88219"></scales>
<clustering>
<clus scale="   89.461">  5  6 -1 -1</clus>
<clus scale="   91.696">  7  8 -1 -1</clus>
<clus scale="   91.882">  1  9  2 -1</clus>
<clus scale="  126.420">  2  5  1 -1</clus>
<clus scale="   91.882">  1  5  2 -1</clus>
</clustering>
</event>
<event>
 9    1  0.1671478E-005  0.1032700E+03  0.7546771E-02  0.1276313E+00
         21   -1    0    0  501  502  0.00000000000E+00  0.00000000000E+00  0.42960912565E+02  0.42960912565E+02  0.00000000000E+00 0.  1.
          1   -1    0    0  502    0 -0.00000000000E+00 -0.00000000000E+00 -0.33508411990E+03  0.33508411990E+03  0.00000000000E+00 0. -1.
         23    2    1    2    0    0 -0.37501726637E+02 -0.16709915870E+02 -0.14667276460E+03  0.17994147720E+03  0.95814584250E+02 0.  0.
         23    2    1    2    0    0  0.16541241651E+02  0.38209489538E+02 -0.13216038537E+03  0.16526761118E+03  0.90074625045E+02 0.  0.
        -11    1    3    3    0    0 -0.56455029993E+02  0.22154663454E+02 -0.78237186066E+02  0.98990185412E+02  0.00000000000E+00 0.  1.
         11    1    3    3    0    0  0.18953303356E+02 -0.38864579324E+02 -0.68435578530E+02  0.80951291793E+02  0.00000000000E+00 0. -1.
        -13    1    4    4    0    0 -0.22850357630E+02  0.52549623260E+02 -0.75235235666E+02  0.94572418993E+02  0.00000000000E+00 0.  1.
         13    1    4    4    0    0  0.39391599282E+02 -0.14340133721E+02 -0.56925149709E+02  0.70695192188E+02  0.00000000000E+00 0. -1.
          1    1    1    2  501    0  0.20960484985E+02 -0.21499573668E+02 -0.13290057362E+02  0.32835944077E+02  0.00000000000E+00 0. -1.
<scales pt_clust_5="13000.00000" pt_clust_6="13000.00000" pt_clust_7="13000.00000" pt_clust_8="13000.00000" pt_clust_9="30.02622"></scales>
<clustering>
<clus scale="   30.026">  1  9  2 -1</clus>
<clus scale="   90.075">  7  8 -1 -1</clus>
<clus scale="   95.815">  5  6 -1 -1</clus>
<clus scale="   97.968">  1  7  2 -1</clus>
<clus scale="   30.026">  1  5  2 -1</clus>
</clustering>
</event>
<event>
 9    1  0.1671478E-005  0.1027780E+03  0.7546771E-02  0.1275130E+00
         -1   -1    0    0    0  501 -0.00000000000E+00  0.00000000000E+00  0.29622096988E+03  0.29622096988E+03  0.00000000000E+00 0.  1.
         21   -1    0    0  501  502  0.00000000000E+00 -0.00000000000E+00 -0.69261420282E+02  0.69261420282E+02  0.00000000000E+00 0. -1.
         23    2    1    2    0    0  0.27725466584E+02 -0.23557901591E+02  0.15021976100E+03  0.17970919389E+03  0.91682831260E+02 0.  0.
         23    2    1    2    0    0 -0.53908219608E+02  0.33550161976E+02  0.10024906880E+03  0.14919358338E+03  0.90427540140E+02 0.  0.
        -11    1    4    4    0    0 -0.73890924639E+02  0.74322575888E+01  0.51438252368E+02  0.90338258803E+02  0.00000000000E+00 0.  1.
         11    1    4    4    0    0  0.19982705031E+02  0.26117904388E+02  0.48810816436E+02  0.58855324577E+02  0.00000000000E+00 0. -1.
        -13    1    3    3    0    0  0.49332995301E+02 -0.28221416591E+02  0.14670115581E+03  0.15732584624E+03  0.00000000000E+00 0.  1.
         13    1    3    3    0    0 -0.21607528717E+02  0.46635150001E+01  0.35186051930E+01  0.22383347647E+02  0.00000000000E+00 0. -1.
         -1    1    1    2    0  502  0.26182753024E+02 -0.99922603855E+01 -0.23509280209E+02  0.36579612893E+02  0.00000000000E+00 0.  1.
<scales pt_clust_5="13000.00000" pt_clust_6="13000.00000" pt_clust_7="13000.00000" pt_clust_8="13000.00000" pt_clust_9="28.02466"></scales>
<clustering>
<clus scale="   28.025">  2  9  1 -1</clus>
<clus scale="   90.428">  5  6 -1 -1</clus>
<clus scale="   91.683">  7  8 -1 -1</clus>
<clus scale="  101.660">  2  5  1 -1</clus>
<clus scale="   28.025">  2  5  1 -1</clus>
</clustering>
</event>
<event>
 9    1  0.1671478E-005  0.1087723E+03  0.7546771E-02  0.1263312E+00
         21   -1    0    0  501  502  0.00000000000E+00  0.00000000000E+00  0.17369499949E+03  0.17369499949E+03  0.00000000000E+00 0. -1.
          3   -1    0    0  502    0 -0.00000000000E+00 -0.00000000000E+00 -0.12454335970E+03  0.12454335970E+03  0.00000000000E+00 0. -1.
         23    2    1    2    0    0 -0.50525132899E+02 -0.25382381456E+02 -0.59301818335E+02  0.12364581447E+03  0.92598744246E+02 0.  0.
         23    2    1    2    0    0  0.32006058520E+02  0.45896572880E+02  0.84823361694E+02  0.13823089427E+03  0.93711761572E+02 0.  0.
        -11    1    3    3    0    0  0.30460571215E+01 -0.49585021912E+02 -0.25627008713E+02  0.55898984227E+02  0.00000000000E+00 0.  1.
         11    1    3    3    0    0 -0.53571190020E+02  0.24202640456E+02 -0.33674809622E+02  0.67746830245E+02  0.00000000000E+00 0. -1.
        -13    1    4    4    0    0  0.15179685381E+02  0.61675399758E+02  0.93964994054E+02  0.11341824320E+03  0.00000000000E+00 0. -1.
         13    1    4    4    0    0  0.16826373139E+02 -0.15778826878E+02 -0.91416323605E+01  0.24812651065E+02  0.00000000000E+00 0.  1.
          3    1    1    2  501    0  0.18519074379E+02 -0.20514191424E+02  0.23630096440E+02  0.36361650450E+02  0.00000000000E+00 0. -1.
<scales pt_clust_5="13000.00000" pt_clust_6="13000.00000" pt_clust_7="13000.00000" pt_clust_8="13000.00000" pt_clust_9="27.63672"></scales>
<clustering>
<clus scale="   27.637">  1  9  2 -1</clus>
<clus scale="   92.599">  5  6 -1 -1</clus>
<clus scale="   93.712">  7  8 -1 -1</clus>
<clus scale="  107.815">  2  5  1 -1</clus>
<clus scale="   27.637">  1  5  2 -1</clus>
</clustering>
</event>
<event>
 9    1  0.1671478E-005  0.2460463E+03  0.7546771E-02  0.1116010E+00
         21   -1    0    0  501  502  0.00000000000E+00  0.00000000000E+00  0.10094817683E+03  0.10094817683E+03  0.00000000000E+00 0. -1.
          1   -1    0    0  502    0 -0.00000000000E+00 -0.00000000000E+00 -0.94066448873E+03  0.94066448873E+03  0.00000000000E+00 0. -1.
         23    2    1    2    0    0  0.41929547803E+02 -0.20103223245E+03 -0.42024507948E+03  0.47713239186E+03  0.94219674505E+02 0.  0.
         23    2    1    2    0    0 -0.16979535038E+02  0.27632349365E+03 -0.28091748701E+03  0.40482934976E+03  0.91264397029E+02 0.  0.
        -11    1    3    3    0    0  0.85478445891E+01 -0.18459584754E+03 -0.37856385742E+03  0.42125916812E+03  0.00000000000E+00 0. -1.
         11    1    3    3    0    0  0.33381703214E+02 -0.16436384915E+02 -0.41681222061E+02  0.55873223739E+02  0.00000000000E+00 0.  1.
        -13    1    4    4    0    0 -0.27883181677E+02  0.25339601424E+02 -0.20112926045E+02  0.42709448777E+02  0.00000000000E+00 0.  1.
         13    1    4    4    0    0  0.10903646638E+02  0.25098389222E+03 -0.26080456096E+03  0.36211990098E+03  0.00000000000E+00 0. -1.
          1    1    1    2  501    0 -0.24950012765E+02 -0.75291261193E+02 -0.13855374541E+03  0.15965092394E+03  0.00000000000E+00 0. -1.
<scales pt_clust_5="13000.00000" pt_clust_6="13000.00000" pt_clust_7="13000.00000" pt_clust_8="13000.00000" pt_clust_9="79.31761"></scales>
<clustering>
<clus scale="   79.318">  1  9  2 -1</clus>
<clus scale="   91.264">  7  8 -1 -1</clus>
<clus scale="   94.220">  5  6 -1 -1</clus>
<clus scale="  244.930">  1  7  2 -1</clus>
<clus scale="   79.318">  1  5  2 -1</clus>
</clustering>
</event>
<event>
 9    1  0.1671478E-005  0.9724999E+02  0.7546771E-02  0.1287884E+00
          1   -1    0    0  502    0 -0.00000000000E+00  0.00000000000E+00  0.17642993310E+03  0.17642993310E+03  0.00000000000E+00 0. -1.
         21   -1    0    0  501  502  0.00000000000E+00 -0.00000000000E+00 -0.22505739762E+03  0.22505739762E+03  0.00000000000E+00 0. -1.
         23    2    1    2    0    0 -0.17370349874E+02 -0.28573424751E+02  0.14303313772E+03  0.17265401927E+03  0.90734570184E+02 0.  0.
         23    2    1    2    0    0  0.34235162641E+02  0.42186876050E+02 -0.16484320005E+03  0.19435257732E+03  0.87452071654E+02 0.  0.
        -13    1    3    3    0    0 -0.20156583031E+02 -0.60344827981E+02  0.10742035293E+03  0.12484758038E+03  0.00000000000E+00 0. -1.
         13    1    3    3    0    0  0.27862331569E+01  0.31771403231E+02  0.35612784794E+02  0.47806438889E+02  0.00000000000E+00 0.  1.
        -13    1    4    4    0    0 -0.19962394037E+02  0.36145200621E+02 -0.37315852364E+02  0.55654699184E+02  0.00000000000E+00 0.  1.
         13    1    4    4    0    0  0.54197556678E+02  0.60416754288E+01 -0.12752734768E+03  0.13869787813E+03  0.00000000000E+00 0. -1.
          1    1    1    2  501    0 -0.16864812767E+02 -0.13613451299E+02 -0.26817402194E+02  0.34480734134E+02  0.00000000000E+00 0. -1.
<scales pt_clust_5="13000.00000" pt_clust_6="13000.00000" pt_clust_7="13000.00000" pt_clust_8="13000.00000" pt_clust_9="21.67367"></scales>
<clustering>
<clus scale="   21.674">  2  9  1 -1</clus>
<clus scale="   87.452">  7  8 -1 -1</clus>
<clus scale="   90.735">  5  6 -1 -1</clus>
<clus scale="   94.195">  2  7  1 -1</clus>
<clus scale="   21.674">  2  5  1 -1</clus>
</clustering>
</event>
<event>
 9    1  0.1671478E-005  0.1352986E+03  0.7546771E-02  0.1230581E+00
         21   -1    0    0  501  502  0.00000000000E+00  0.00000000000E+00  0.29536951640E+02  0.29536951640E+02  0.00000000000E+00 0. -1.
         -1   -1    0    0    0  501 -0.00000000000E+00 -0.00000000000E+00 -0.67954062183E+03  0.67954062183E+03  0.00000000000E+00 0.  1.
         23    2    1    2    0    0  0.36126438075E+02  0.40081992137E+02 -0.22581543200E+03  0.24980536346E+03  0.92186900713E+02 0.  0.
         23    2    1    2    0    0 -0.21931504160E+02 -0.58301378907E+02 -0.26783003203E+03  0.30121737511E+03  0.12295909625E+03 0.  0.
        -11    1    4    4    0    0  0.37919749607E+02 -0.41554413620E+02 -0.51964870993E+02  0.76583448074E+02  0.00000000000E+00 0. -1.
         11    1    4    4    0    0 -0.59851253767E+02 -0.16746965287E+02 -0.21586516104E+03  0.22463392703E+03  0.00000000000E+00 0.  1.
        -13    1    3    3    0    0 -0.22109891855E+02  0.42860510545E+02 -0.11141578460E+03  0.12140571543E+03  0.00000000000E+00 0.  1.
         13    1    3    3    0    0  0.58236329931E+02 -0.27785184077E+01 -0.11439964740E+03  0.12839964803E+03  0.00000000000E+00 0. -1.
         -1    1    1    2    0  502 -0.14194933915E+02  0.18219386770E+02 -0.15635820616E+03  0.15805483490E+03  0.00000000000E+00 0.  1.
<scales pt_clust_5="13000.00000" pt_clust_6="13000.00000" pt_clust_7="13000.00000" pt_clust_8="13000.00000" pt_clust_9="23.09638"></scales>
<clustering>
<clus scale="   23.096">  1  9  2 -1</clus>
<clus scale="   92.187">  7  8 -1 -1</clus>
<clus scale="  108.098">  2  7  1 -1</clus>
<clus scale="  122.959">  5  6 -1 -1</clus>
<clus scale="   23.096">  1  5  2 -1</clus>
</clustering>
</event>
<event>
 9    1  0.1671478E-005  0.1094835E+03  0.7546771E-02  0.1262710E+00
         21   -1    0    0  501  502  0.00000000000E+00  0.00000000000E+00  0.31246920131E+03  0.31246920131E+03  0.00000000000E+00 0.  1.
         -4   -1    0    0    0  501 -0.00000000000E+00 -0.00000000000E+00 -0.87646062623E+02  0.87646062623E+02  0.00000000000E+00 0.  1.
         23    2    1    2    0    0 -0.10915140016E+02 -0.56239464573E+02  0.97505360094E+01  0.11378972498E+03  0.97831543494E+02 0.  0.
         23    2    1    2    0    0 -0.47950746251E+01  0.40041830787E+02  0.41441068327E+02  0.11123389464E+03  0.95022503757E+02 0.  0.
        -11    1    3    3    0    0 -0.32861515755E+01 -0.82709765816E+02 -0.42585653215E+01  0.82884495125E+02  0.00000000000E+00 0.  1.
         11    1    3    3    0    0 -0.76289884407E+01  0.26470301243E+02  0.14009101331E+02  0.30905229859E+02  0.00000000000E+00 0. -1.
        -11    1    4    4    0    0  0.24112960571E+02  0.44912988718E+02  0.58278269143E+02  0.77427179190E+02  0.00000000000E+00 0. -1.
         11    1    4    4    0    0 -0.28908035196E+02 -0.48711579311E+01 -0.16837200815E+02  0.33806715454E+02  0.00000000000E+00 0.  1.
         -4    1    1    2    0  502  0.15710214641E+02  0.16197633786E+02  0.17363153435E+03  0.17509164431E+03  0.00000000000E+00 0.  1.
<scales pt_clust_5="13000.00000" pt_clust_6="13000.00000" pt_clust_7="13000.00000" pt_clust_8="13000.00000" pt_clust_9="22.56489"></scales>
<clustering>
<clus scale="   22.565">  1  9  2 -1</clus>
<clus scale="   95.023">  7  8 -1 -1</clus>
<clus scale="   97.832">  5  6 -1 -1</clus>
<clus scale="  106.981">  1  7  2 -1</clus>
<clus scale="   22.565">  1  5  2 -1</clus>
</clustering>
</event>
<event>
 9    1  0.1671478E-005  0.5195916E+03  0.7546771E-02  0.1008985E+00
         -1   -1    0    0    0  501 -0.00000000000E+00  0.00000000000E+00  0.10988316842E+04  0.10988316842E+04  0.00000000000E+00 0.  1.
         21   -1    0    0  501  502  0.00000000000E+00 -0.00000000000E+00 -0.36468381927E+03  0.36468381927E+03  0.00000000000E+00 0.  1.
         23    2    1    2    0    0  0.43502876832E+03  0.19203227410E+03  0.32371863220E+03  0.58321005713E+03  0.95988511523E+02 0.  0.
         23    2    1    2    0    0 -0.55814807983E+03 -0.47138079203E+02  0.38419353801E+03  0.68836534046E+03  0.11176264925E+03 0.  0.
        -11    1    3    3    0    0  0.44659765630E+02  0.51951412937E+02  0.28874672144E+02  0.74345078275E+02  0.00000000000E+00 0. -1.
         11    1    3    3    0    0  0.39036900269E+03  0.14008086116E+03  0.29484396006E+03  0.50886497886E+03  0.00000000000E+00 0.  1.
        -13    1    4    4    0    0 -0.40601902525E+03  0.14541641356E+02  0.25756458851E+03  0.48104305987E+03  0.00000000000E+00 0.  1.
         13    1    4    4    0    0 -0.15212905458E+03 -0.61679720559E+02  0.12662894951E+03  0.20732228059E+03  0.00000000000E+00 0. -1.
         -1    1    1    2    0  502  0.12311931151E+03 -0.14489419489E+03  0.26235694757E+02  0.19194010592E+03  0.00000000000E+00 0.  1.
<scales pt_clust_5="13000.00000" pt_clust_6="13000.00000" pt_clust_7="13000.00000" pt_clust_8="13000.00000" pt_clust_9="190.13861"></scales>
<clustering>
<clus scale="   95.989">  5  6 -1 -1</clus>
<clus scale="  111.763">  7  8 -1 -1</clus>
<clus scale="  190.139">  2  9  1 -1</clus>
<clus scale="  516.428">  1  5  2 -1</clus>
<clus scale="  190.139">  2  5  1 -1</clus>
</clustering>
</event>
<event>
 9    1  0.1671478E-005  0.9495985E+02  0.7546771E-02  0.1292057E+00
         -3   -1    0    0    0  501 -0.00000000000E+00  0.00000000000E+00  0.91661264759E+02  0.91661264759E+02  0.00000000000E+00 0.  1.
         21   -1    0    0  501  502  0.00000000000E+00 -0.00000000000E+00 -0.21863503843E+03  0.21863503843E+03  0.00000000000E+00 0.  1.
         23    2    1    2    0    0  0.74934830921E+01  0.30734463287E+02  0.23467480775E+02  0.98553752966E+02  0.90340246000E+02 0.  0.
         23    2    1    2    0    0 -0.33202132314E+02  0.12540647886E+02 -0.93469054427E+02  0.13571951775E+03  0.91780574863E+02 0.  0.
        -11    1    3    3    0    0 -0.35149033803E+02  0.30418460627E+02 -0.57833148703E+01  0.46842118388E+02  0.00000000000E+00 0.  1.
         11    1    3    3    0    0  0.42642516895E+02  0.31600266039E+00  0.29250795645E+02  0.51711634578E+02  0.00000000000E+00 0. -1.
        -13    1    4    4    0    0  0.26766040358E+02 -0.46479938273E+01 -0.52453625385E+01  0.27668368062E+02  0.00000000000E+00 0. -1.
         13    1    4    4    0    0 -0.59968172672E+02  0.17188641713E+02 -0.88223691889E+02  0.10805114968E+03  0.00000000000E+00 0.  1.
         -3    1    1    2    0  502  0.25708649222E+02 -0.43275111173E+02 -0.56972200015E+02  0.76023032473E+02  0.00000000000E+00 0.  1.
<scales pt_clust_5="13000.00000" pt_clust_6="13000.00000" pt_clust_7="13000.00000" pt_clust_8="13000.00000" pt_clust_9="50.33557"></scales>
<clustering>
<clus scale="   50.336">  2  9  1 -1</clus>
<clus scale="   90.340">  5  6 -1 -1</clus>
<clus scale="   91.781">  7  8 -1 -1</clus>
<clus scale="   93.568">  1  5  2 -1</clus>
<clus scale="   50.336">  2  5  1 -1</clus>
</clustering>
</event>
<event>
 9    1  0.1671478E-005  0.9471766E+02  0.7546771E-02  0.1294751E+00
         21   -1    0    0  501  502  0.00000000000E+00  0.00000000000E+00  0.45236806832E+03  0.45236806832E+03  0.00000000000E+00 0. -1.
          2   -1    0    0  502    0 -0.00000000000E+00 -0.00000000000E+00 -0.43319621312E+02  0.43319621312E+02  0.00000000000E+00 0. -1.
         23    2    1    2    0    0 -0.35239779888E+00 -0.32760263531E+01  0.52836782583E+02  0.10825338738E+03  0.94425704930E+02 0.  0.
         23    2    1    2    0    0  0.61798985874E+01 -0.26110334689E+02  0.13442735586E+03  0.16363573768E+03  0.89364421993E+02 0.  0.
        -11    1    3    3    0    0  0.37330371040E+02  0.26698116862E+02  0.30995243677E+02  0.55380964027E+02  0.00000000000E+00 0. -1.
         11    1    3    3    0    0 -0.37682768839E+02 -0.29974143215E+02  0.21841538907E+02  0.52872423348E+02  0.00000000000E+00 0.  1.
        -11    1    4    4    0    0 -0.30620798480E+02  0.58734462662E+00  0.10524601190E+03  0.10961159289E+03  0.00000000000E+00 0.  1.
         11    1    4    4    0    0  0.36800697067E+02 -0.26697679316E+02  0.29181343953E+02  0.54024144791E+02  0.00000000000E+00 0. -1.
          2    1    1    2  501    0 -0.58275007885E+01  0.29386361043E+02  0.22178430856E+03  0.22379856458E+03  0.00000000000E+00 0. -1.
<scales pt_clust_5="13000.00000" pt_clust_6="13000.00000" pt_clust_7="13000.00000" pt_clust_8="13000.00000" pt_clust_9="29.95860"></scales>
<clustering>
<clus scale="   29.959">  1  9  2 -1</clus>
<clus scale="   89.364">  7  8 -1 -1</clus>
<clus scale="   89.673">  1  7  2 -1</clus>
<clus scale="   94.426">  5  6 -1 -1</clus>
<clus scale="   29.959">  1  5  2 -1</clus>
</clustering>
</event>
<event>
 9    1  0.1671478E-005  0.1812644E+03  0.7546771E-02  0.1167028E+00
          1   -1    0    0  502    0 -0.00000000000E+00  0.00000000000E+00  0.97751438679E+03  0.97751438679E+03  0.00000000000E+00 0. -1.
         21   -1    0    0  501  502  0.00000000000E+00 -0.00000000000E+00 -0.53051154664E+02  0.53051154664E+02  0.00000000000E+00 0. -1.
         23    2    1    2    0    0  0.14001030670E+03  0.34672822303E+02  0.43688743204E+03  0.46945690379E+03  0.93349159905E+02 0.  0.
         23    2    1    2    0    0 -0.14421832470E+03 -0.10922164152E+03  0.37711218339E+03  0.42777655421E+03  0.89726748065E+02 0.  0.
        -13    1    4    4    0    0 -0.10808678226E+03 -0.29112034856E+02  0.24146848955E+03  0.26615276537E+03  0.00000000000E+00 0.  1.
         13    1    4    4    0    0 -0.36131542442E+02 -0.80109606668E+02  0.13564369384E+03  0.16162378884E+03  0.00000000000E+00 0. -1.
        -13    1    3    3    0    0  0.11395971381E+03 -0.90449631438E+01  0.35588066303E+03  0.37379094966E+03  0.00000000000E+00 0.  1.
         13    1    3    3    0    0  0.26050592885E+02  0.43717785447E+02  0.81006769009E+02  0.95665954129E+02  0.00000000000E+00 0. -1.
          1    1    1    2  501    0  0.42080180038E+01  0.74548819221E+02  0.11046361669E+03  0.13333208345E+03  0.00000000000E+00 0. -1.
<scales pt_clust_5="13000.00000" pt_clust_6="13000.00000" pt_clust_7="13000.00000" pt_clust_8="13000.00000" pt_clust_9="74.66749"></scales>
<clustering>
<clus scale="   74.667">  2  9  1 -1</clus>
<clus scale="   89.727">  5  6 -1 -1</clus>
<clus scale="   93.349">  7  8 -1 -1</clus>
<clus scale="  179.426">  2  5  1 -1</clus>
<clus scale="   74.667">  2  5  1 -1</clus>
</clustering>
</event>
<event>
 9    1  0.1671478E-005  0.1383619E+03  0.7546771E-02  0.1215757E+00
         21   -1    0    0  501  502  0.00000000000E+00  0.00000000000E+00  0.12054132001E+03  0.12054132001E+03  0.00000000000E+00 0.  1.
          2   -1    0    0  502    0 -0.00000000000E+00 -0.00000000000E+00 -0.45889255756E+03  0.45889255756E+03  0.00000000000E+00 0. -1.
         23    2    1    2    0    0 -0.26218628060E+02 -0.97102262390E+02 -0.30571029694E+03  0.33457277037E+03  0.91454290197E+02 0.  0.
         23    2    1    2    0    0 -0.13908411609E+02  0.13222363304E+03  0.28902480822E+02  0.16342841898E+03  0.90537073551E+02 0.  0.
        -11    1    3    3    0    0 -0.22524416962E+02  0.11014690725E+01 -0.13507804124E+02  0.26287323292E+02  0.00000000000E+00 0.  1.
         11    1    3    3    0    0 -0.36942110981E+01 -0.98203731463E+02 -0.29220249282E+03  0.30828544708E+03  0.00000000000E+00 0. -1.
        -13    1    4    4    0    0 -0.46980279645E+02  0.11028029231E+03  0.30559292428E+02  0.12370432450E+03  0.00000000000E+00 0.  1.
         13    1    4    4    0    0  0.33071868036E+02  0.21943340730E+02 -0.16568116054E+01  0.39724094483E+02  0.00000000000E+00 0. -1.
          2    1    1    2  501    0  0.40127039669E+02 -0.35121370646E+02 -0.61543421431E+02  0.81432688216E+02  0.00000000000E+00 0. -1.
<scales pt_clust_5="13000.00000" pt_clust_6="13000.00000" pt_clust_7="13000.00000" pt_clust_8="13000.00000" pt_clust_9="53.32629"></scales>
<clustering>
<clus scale="   53.326">  1  9  2 -1</clus>
<clus scale="   90.537">  7  8 -1 -1</clus>
<clus scale="   91.454">  5  6 -1 -1</clus>
<clus scale="  137.757">  1  7  2 -1</clus>
<clus scale="   53.326">  1  5  2 -1</clus>
</clustering>
</event>
<event>
 9    1  0.1671478E-005  0.1061084E+03  0.7546771E-02  0.1268223E+00
         -1   -1    0    0    0  501 -0.00000000000E+00  0.00000000000E+00  0.66256243872E+02  0.66256243872E+02  0.00000000000E+00 0.  1.
         21   -1    0    0  501  502  0.00000000000E+00 -0.00000000000E+00 -0.28519286561E+03  0.28519286561E+03  0.00000000000E+00 0. -1.
         23    2    1    2    0    0  0.37917624142E+02 -0.30583477160E+02 -0.38059698613E+02  0.11065040413E+03  0.91770779557E+02 0.  0.
         23    2    1    2    0    0 -0.20417710937E+02  0.63776646382E+02 -0.97289591022E+02  0.14917515197E+03  0.91124189442E+02 0.  0.
        -11    1    4    4    0    0  0.19567128438E+02  0.69714855994E+02 -0.57602651579E+02  0.92526207804E+02  0.00000000000E+00 0. -1.
         11    1    4    4    0    0 -0.39984839375E+02 -0.59382096120E+01 -0.39686939443E+02  0.56648944170E+02  0.00000000000E+00 0.  1.
        -11    1    3    3    0    0 -0.82388342757E+01 -0.48958147934E+02 -0.35256947707E+02  0.60891961710E+02  0.00000000000E+00 0.  1.
         11    1    3    3    0    0  0.46156458418E+02  0.18374670774E+02 -0.28027509066E+01  0.49758442423E+02  0.00000000000E+00 0. -1.
         -1    1    1    2    0  502 -0.17499913205E+02 -0.33193169222E+02 -0.83587332101E+02  0.91623553375E+02  0.00000000000E+00 0.  1.
<scales pt_clust_5="13000.00000" pt_clust_6="13000.00000" pt_clust_7="13000.00000" pt_clust_8="13000.00000" pt_clust_9="37.52377"></scales>
<clustering>
<clus scale="   37.524">  2  9  1 -1</clus>
<clus scale="   91.124">  5  6 -1 -1</clus>
<clus scale="   91.771">  7  8 -1 -1</clus>
<clus scale="  105.550">  2  5  1 -1</clus>
<clus scale="   37.524">  2  5  1 -1</clus>
</clustering>
</event>
<event>
 9    1  0.1671478E-005  0.1001976E+03  0.7546771E-02  0.1281794E+00
         21   -1    0    0  501  502  0.00000000000E+00  0.00000000000E+00  0.43207656797E+02  0.43207656797E+02  0.00000000000E+00 0.  1.
          1   -1    0    0  502    0 -0.00000000000E+00 -0.00000000000E+00 -0.34721974651E+03  0.34721974651E+03  0.00000000000E+00 0. -1.
         23    2    1    2    0    0 -0.22367996099E+02 -0.36433961466E+02 -0.19618103696E+03  0.22038882488E+03  0.90865142242E+02 0.  0.
         23    2    1    2    0    0  0.13532071515E+02  0.50233127373E+01 -0.63119607601E+02  0.11468683279E+03  0.94660626035E+02 0.  0.
        -11    1    4    4    0    0  0.33420921147E+01 -0.44753944370E+02 -0.31742219095E+02  0.54969569668E+02  0.00000000000E+00 0.  1.
         11    1    4    4    0    0  0.10189979401E+02  0.49777257108E+02 -0.31377388505E+02  0.59717263122E+02  0.00000000000E+00 0. -1.
        -11    1    3    3    0    0  0.33432964540E+02 -0.79878581212E+01 -0.44091333849E+02  0.55907197353E+02  0.00000000000E+00 0.  1.
         11    1    3    3    0    0 -0.55800960639E+02 -0.28446103345E+02 -0.15208970311E+03  0.16448162753E+03  0.00000000000E+00 0. -1.
          1    1    1    2  501    0  0.88359245835E+01  0.31410648729E+02 -0.44711445159E+02  0.55351745636E+02  0.00000000000E+00 0. -1.
<scales pt_clust_5="13000.00000" pt_clust_6="13000.00000" pt_clust_7="13000.00000" pt_clust_8="13000.00000" pt_clust_9="32.62979"></scales>
<clustering>
<clus scale="   32.630">  1  9  2 -1</clus>
<clus scale="   90.865">  7  8 -1 -1</clus>
<clus scale="   94.661">  5  6 -1 -1</clus>
<clus scale="   96.620">  2  7  1 -1</clus>
<clus scale="   32.630">  1  5  2 -1</clus>
</clustering>
</event>
<event>
 9    1  0.1671478E-005  0.1326937E+03  0.7546771E-02  0.1224619E+00
          2   -1    0    0  502    0 -0.00000000000E+00  0.00000000000E+00  0.33866138054E+03  0.33866138054E+03  0.00000000000E+00 0. -1.
         21   -1    0    0  501  502  0.00000000000E+00 -0.00000000000E+00 -0.47576037776E+03  0.47576037776E+03  0.00000000000E+00 0. -1.
         23    2    1    2    0    0  0.66425503586E+02 -0.68824453429E+02  0.30955085538E+03  0.33586861592E+03  0.88525940679E+02 0.  0.
         23    2    1    2    0    0 -0.71288708202E+02  0.38065583770E+02 -0.24177731228E+03  0.27132737999E+03  0.92904304609E+02 0.  0.
        -13    1    4    4    0    0 -0.87948041751E+02  0.51096515664E+02 -0.20661072282E+03  0.23029047471E+03  0.00000000000E+00 0. -1.
         13    1    4    4    0    0  0.16659333550E+02 -0.13030931894E+02 -0.35166589465E+02  0.41036905280E+02  0.00000000000E+00 0.  1.
        -13    1    3    3    0    0 -0.20703468126E+02 -0.39290197408E+01  0.63356337658E+02  0.66768977153E+02  0.00000000000E+00 0.  1.
         13    1    3    3    0    0  0.87128971712E+02 -0.64895433688E+02  0.24619451773E+03  0.26909963876E+03  0.00000000000E+00 0. -1.
          2    1    1    2  501    0  0.48632046158E+01  0.30758869658E+02 -0.20487254032E+03  0.20722576239E+03  0.00000000000E+00 0. -1.
<scales pt_clust_5="13000.00000" pt_clust_6="13000.00000" pt_clust_7="13000.00000" pt_clust_8="13000.00000" pt_clust_9="31.14095"></scales>
<clustering>
<clus scale="   31.141">  2  9  1 -1</clus>
<clus scale="   88.526">  7  8 -1 -1</clus>
<clus scale="   92.904">  5  6 -1 -1</clus>
<clus scale="  129.666">  1  7  2 -1</clus>
<clus scale="   31.141">  2  5  1 -1</clus>
</clustering>
</event>
<event>
 9    1  0.1671478E-005  0.1028937E+03  0.7546771E-02  0.1275913E+00
         -1   -1    0    0    0  501 -0.00000000000E+00  0.00000000000E+00  0.37542833447E+03  0.37542833447E+03  0.00000000000E+00 0.  1.
         21   -1    0    0  501  502  0.00000000000E+00 -0.00000000000E+00 -0.94336890330E+02  0.94336890330E+02  0.00000000000E+00 0. -1.
         23    2    1    2    0    0 -0.32902810849E+02 -0.19350696716E+02  0.26138731670E+03  0.28031944695E+03  0.93800951929E+02 0.  0.
         23    2    1    2    0    0  0.32469933244E+02 -0.19973477903E+02  0.69994437397E+02  0.12560462053E+03  0.97077613524E+02 0.  0.
        -11    1    3    3    0    0 -0.28926680214E+02  0.26285757827E+02  0.47172303683E+02  0.61261081671E+02  0.00000000000E+00 0. -1.
         11    1    3    3    0    0 -0.39761306352E+01 -0.45636454543E+02  0.21421501301E+03  0.21905836528E+03  0.00000000000E+00 0.  1.
        -13    1    4    4    0    0  0.21287781851E+02 -0.53772697683E+02  0.68943425595E+02  0.89988158138E+02  0.00000000000E+00 0.  1.
         13    1    4    4    0    0  0.11182151393E+02  0.33799219780E+02  0.10510118016E+01  0.35616462392E+02  0.00000000000E+00 0. -1.
         -1    1    1    2    0  502  0.43287760468E+00  0.39324174620E+02 -0.50290309955E+02  0.63841157320E+02  0.00000000000E+00 0.  1.
<scales pt_clust_5="13000.00000" pt_clust_6="13000.00000" pt_clust_7="13000.00000" pt_clust_8="13000.00000" pt_clust_9="39.32656"></scales>
<clustering>
<clus scale="   39.327">  2  9  1 -1</clus>
<clus scale="   93.801">  5  6 -1 -1</clus>
<clus scale="   97.078">  7  8 -1 -1</clus>
<clus scale="   99.808">  1  5  2 -1</clus>
<clus scale="   39.327">  2  5  1 -1</clus>
</clustering>
</event>
<event>
 9    1  0.1671478E-005  0.1549475E+03  0.7546771E-02  0.1215074E+00
         21   -1    0    0  501  502  0.00000000000E+00  0.00000000000E+00  0.24789281023E+03  0.24789281023E+03  0.00000000000E+00 0. -1.
          1   -1    0    0  502    0 -0.00000000000E+00 -0.00000000000E+00 -0.40967653548E+03  0.40967653548E+03  0.00000000000E+00 0. -1.
         23    2    1    2    0    0 -0.19177254511E+02 -0.13525017216E+02 -0.22628512558E+03  0.24720052960E+03  0.96708068902E+02 0.  0.
         23    2    1    2    0    0 -0.67343236668E+02 -0.79175795403E+02 -0.12181542396E+03  0.18499535923E+03  0.92630272155E+02 0.  0.
        -13    1    3    3    0    0 -0.55332495155E+02 -0.25502931986E+02 -0.12693505312E+03  0.14079983051E+03  0.00000000000E+00 0. -1.
         13    1    3    3    0    0  0.36155240644E+02  0.11977914770E+02 -0.99350072462E+02  0.10640069909E+03  0.00000000000E+00 0.  1.
        -13    1    4    4    0    0 -0.60964111914E+02 -0.14416005125E+02 -0.23114763680E+02  0.66773770638E+02  0.00000000000E+00 0. -1.
         13    1    4    4    0    0 -0.63791247540E+01 -0.64759790278E+02 -0.98700660281E+02  0.11822158859E+03  0.00000000000E+00 0.  1.
          1    1    1    2  501    0  0.86520491180E+02  0.92700812619E+02  0.18631682430E+03  0.22537345689E+03  0.00000000000E+00 0. -1.
<scales pt_clust_5="13000.00000" pt_clust_6="13000.00000" pt_clust_7="13000.00000" pt_clust_8="13000.00000" pt_clust_9="124.21096"></scales>
<clustering>
<clus scale="   92.630">  7  8 -1 -1</clus>
<clus scale="   96.708">  5  6 -1 -1</clus>
<clus scale="   99.515">  2  5  1 -1</clus>
<clus scale="  124.211">  1  9  2 -1</clus>
<clus scale="  124.211">  1  5  2 -1</clus>
</clustering>
</event>
<event>
 9    1  0.1671478E-005  0.1296288E+03  0.7546771E-02  0.1229394E+00
         -2   -1    0    0    0  501 -0.00000000000E+00  0.00000000000E+00  0.32843609755E+03  0.32843609755E+03  0.00000000000E+00 0.  1.
         21   -1    0    0  501  502  0.00000000000E+00 -0.00000000000E+00 -0.14179572807E+03  0.14179572807E+03  0.00000000000E+00 0.  1.
         23    2    1    2    0    0  0.93937546700E+02 -0.34057440888E+02  0.13233799590E+03  0.18922664694E+03  0.91154850632E+02 0.  0.
         23    2    1    2    0    0 -0.36508621767E+02  0.74934789165E+02 -0.69614054038E+02  0.13844178907E+03  0.85859829669E+02 0.  0.
        -11    1    3    3    0    0  0.46543466304E+02 -0.55799534601E+02  0.11147189110E+03  0.13306338649E+03  0.00000000000E+00 0.  1.
         11    1    3    3    0    0  0.47394080395E+02  0.21742093713E+02  0.20866104801E+02  0.56163260456E+02  0.00000000000E+00 0. -1.
        -13    1    4    4    0    0 -0.26532520729E+02  0.36774966152E+02  0.12762939507E+02  0.47109079979E+02  0.00000000000E+00 0. -1.
         13    1    4    4    0    0 -0.99761010380E+01  0.38159823014E+02 -0.82376993545E+02  0.91332709091E+02  0.00000000000E+00 0.  1.
         -2    1    1    2    0  502 -0.57428924933E+02 -0.40877348277E+02  0.12391642762E+03  0.14256338960E+03  0.00000000000E+00 0.  1.
<scales pt_clust_5="13000.00000" pt_clust_6="13000.00000" pt_clust_7="13000.00000" pt_clust_8="13000.00000" pt_clust_9="70.49145"></scales>
<clustering>
<clus scale="   70.491">  2  9  1 -1</clus>
<clus scale="   85.860">  7  8 -1 -1</clus>
<clus scale="   91.155">  5  6 -1 -1</clus>
<clus scale="  125.962">  2  7  1 -1</clus>
<clus scale="   70.491">  2  5  1 -1</clus>
</clustering>
</event>
<event>
 9    1  0.1671478E-005  0.2388689E+03  0.7546771E-02  0.1152752E+00
         21   -1    0    0  501  502  0.00000000000E+00  0.00000000000E+00  0.66666929367E+03  0.66666929367E+03  0.00000000000E+00 0. -1.
         -1   -1    0    0    0  501 -0.00000000000E+00 -0.00000000000E+00 -0.15093063506E+03  0.15093063506E+03  0.00000000000E+00 0.  1.
         23    2    1    2    0    0  0.58921608416E+02  0.54319688787E+00  0.25948087183E+02  0.11235958366E+03  0.92083233062E+02 0.  0.
         23    2    1    2    0    0 -0.22371081828E+03  0.85644075622E+02  0.44678184677E+03  0.51436478344E+03  0.87038347508E+02 0.  0.
        -11    1    3    3    0    0  0.28347131797E+02  0.27498109220E+02 -0.25282466938E+02  0.46892526337E+02  0.00000000000E+00 0.  1.
         11    1    3    3    0    0  0.30574476619E+02 -0.26954912332E+02  0.51230554121E+02  0.65467057326E+02  0.00000000000E+00 0. -1.
        -13    1    4    4    0    0 -0.70193920382E+02  0.42786436470E+02  0.23733407121E+03  0.25116792582E+03  0.00000000000E+00 0.  1.
         13    1    4    4    0    0 -0.15351689790E+03  0.42857639151E+02  0.20944777556E+03  0.26319685762E+03  0.00000000000E+00 0. -1.
         -1    1    1    2    0  502  0.16478920986E+03 -0.86187272509E+02  0.43008724658E+02  0.19087556163E+03  0.00000000000E+00 0.  1.
<scales pt_clust_5="13000.00000" pt_clust_6="13000.00000" pt_clust_7="13000.00000" pt_clust_8="13000.00000" pt_clust_9="222.44718"></scales>
<clustering>
<clus scale="   87.038">  7  8 -1 -1</clus>
<clus scale="   92.083">  5  6 -1 -1</clus>
<clus scale="  109.322">  2  5  1 -1</clus>
<clus scale="  222.447">  1  9  2 -1</clus>
<clus scale="  222.447">  1  5  2 -1</clus>
</clustering>
</event>
<event>
 9    1  0.1671478E-005  0.2180804E+03  0.7546771E-02  0.1136046E+00
          2   -1    0    0  502    0 -0.00000000000E+00  0.00000000000E+00  0.77738681031E+03  0.77738681031E+03  0.00000000000E+00 0.  1.
         21   -1    0    0  501  502  0.00000000000E+00 -0.00000000000E+00 -0.13943762552E+03  0.13943762552E+03  0.00000000000E+00 0.  1.
         23    2    1    2    0    0 -0.11915148905E+03 -0.15555495316E+03  0.62049186606E+03  0.65551049583E+03  0.79305948729E+02 0.  0.
         23    2    1    2    0    0  0.12888174623E+03  0.17548144061E+03  0.27744789300E+02  0.23686859571E+03  0.89065805958E+02 0.  0.
        -11    1    3    3    0    0 -0.53424696674E+02 -0.54358736289E+02  0.36611524626E+03  0.37396449560E+03  0.00000000000E+00 0. -1.
         11    1    3    3    0    0 -0.65726792379E+02 -0.10119621687E+03  0.25437661980E+03  0.28154600023E+03  0.00000000000E+00 0.  1.
        -11    1    4    4    0    0  0.12095748204E+03  0.94664131056E+02  0.24993631121E+02  0.15561713198E+03  0.00000000000E+00 0.  1.
         11    1    4    4    0    0  0.79242641868E+01  0.80817309550E+02  0.27511581790E+01  0.81251463723E+02  0.00000000000E+00 0. -1.
          2    1    1    2  501    0 -0.97302571741E+01 -0.19926487443E+02 -0.10287470571E+02  0.24445344286E+02  0.00000000000E+00 0.  1.
<scales pt_clust_5="13000.00000" pt_clust_6="13000.00000" pt_clust_7="13000.00000" pt_clust_8="13000.00000" pt_clust_9="22.17527"></scales>
<clustering>
<clus scale="   22.175">  2  9  1 -1</clus>
<clus scale="   79.306">  5  6 -1 -1</clus>
<clus scale="   89.066">  7  8 -1 -1</clus>
<clus scale="  214.280">  1  5  2 -1</clus>
<clus scale="   22.175">  2  5  1 -1</clus>
</clustering>
</event>
<event>
 9    1  0.1671478E-005  0.1915074E+03  0.7546771E-02  0.1157189E+00
         21   -1    0    0  501  502  0.00000000000E+00  0.00000000000E+00  0.86594972366E+02  0.86594972366E+02  0.00000000000E+00 0. -1.
          1   -1    0    0  502    0 -0.00000000000E+00 -0.00000000000E+00 -0.97863294542E+03  0.97863294542E+03  0.00000000000E+00 0. -1.
         23    2    1    2    0    0  0.18210852253E+03  0.34215771233E+02 -0.72933935067E+03  0.75804953087E+03  0.91482073915E+02 0.  0.
         23    2    1    2    0    0 -0.12176749563E+03 -0.52613576440E+02 -0.17989517684E+03  0.24179306555E+03  0.92228523145E+02 0.  0.
        -11    1    4    4    0    0 -0.42488430055E+02  0.37906189143E+01 -0.67565418768E+01  0.43188960840E+02  0.00000000000E+00 0.  1.
         11    1    4    4    0    0 -0.79279065574E+02 -0.56404195354E+02 -0.17313863496E+03  0.19860410471E+03  0.00000000000E+00 0. -1.
        -13    1    3    3    0    0  0.52440228251E+02 -0.26762355633E+02 -0.14726628556E+03  0.15859873922E+03  0.00000000000E+00 0.  1.
         13    1    3    3    0    0  0.12966829428E+03  0.60978126866E+02 -0.58207306511E+03  0.59945079166E+03  0.00000000000E+00 0. -1.
          1    1    1    2  501    0 -0.60341026900E+02  0.18397805206E+02  0.17196554456E+02  0.65385321357E+02  0.00000000000E+00 0. -1.
<scales pt_clust_5="13000.00000" pt_clust_6="13000.00000" pt_clust_7="13000.00000" pt_clust_8="13000.00000" pt_clust_9="63.08343"></scales>
<clustering>
<clus scale="   63.083">  1  9  2 -1</clus>
<clus scale="   91.482">  7  8 -1 -1</clus>
<clus scale="   92.229">  5  6 -1 -1</clus>
<clus scale="  191.149">  2  7  1 -1</clus>
<clus scale="   63.083">  1  5  2 -1</clus>
</clustering>
</event>
<event>
 9    1  0.1671478E-005  0.1038718E+03  0.7546771E-02  0.1272631E+00
         21   -1    0    0  501  502  0.00000000000E+00  0.00000000000E+00  0.14851221360E+03  0.14851221360E+03  0.00000000000E+00 0. -1.
         -3   -1    0    0    0  501 -0.00000000000E+00 -0.00000000000E+00 -0.19987497546E+03  0.19987497546E+03  0.00000000000E+00 0.  1.
         23    2    1    2    0    0  0.16080378779E+02 -0.36561329608E+02 -0.85355800608E+02  0.13077930153E+03  0.90676918826E+02 0.  0.
         23    2    1    2    0    0  0.24546544322E+02  0.98854348009E+02  0.41292920742E+02  0.14288001254E+03  0.91295551495E+02 0.  0.
        -11    1    3    3    0    0  0.37205127496E+02 -0.26917203542E+02 -0.95091486217E+02  0.10559899673E+03  0.00000000000E+00 0.  1.
         11    1    3    3    0    0 -0.21124748717E+02 -0.96441260658E+01  0.97356856086E+01  0.25180304808E+02  0.00000000000E+00 0. -1.
        -11    1    4    4    0    0  0.42737481382E+02  0.14366548282E+02 -0.40759524370E+01  0.45271441469E+02  0.00000000000E+00 0.  1.
         11    1    4    4    0    0 -0.18190937060E+02  0.84487799727E+02  0.45368873179E+02  0.97608571075E+02  0.00000000000E+00 0. -1.
         -3    1    1    2    0  502 -0.40626923100E+02 -0.62293018401E+02 -0.72998819998E+01  0.74727874982E+02  0.00000000000E+00 0.  1.
<scales pt_clust_5="13000.00000" pt_clust_6="13000.00000" pt_clust_7="13000.00000" pt_clust_8="13000.00000" pt_clust_9="74.37047"></scales>
<clustering>
<clus scale="   74.370">  1  9  2 -1</clus>
<clus scale="   90.677">  5  6 -1 -1</clus>
<clus scale="   91.296">  7  8 -1 -1</clus>
<clus scale="  103.328">  2  5  1 -1</clus>
<clus scale="   74.370">  1  5  2 -1</clus>
</clustering>
</event>
<event>
 9    1  0.1671478E-005  0.1162457E+03  0.7546771E-02  0.1249815E+00
         21   -1    0    0  501  502  0.00000000000E+00  0.00000000000E+00  0.58183069379E+02  0.58183069379E+02  0.00000000000E+00 0. -1.
          1   -1    0    0  502    0 -0.00000000000E+00 -0.00000000000E+00 -0.73775946927E+03  0.73775946927E+03  0.00000000000E+00 0. -1.
         23    2    1    2    0    0 -0.66093625664E+02 -0.13919472807E+02 -0.39871231697E+03  0.41445602175E+03  0.90775344599E+02 0.  0.
         23    2    1    2    0    0  0.73684228473E+02  0.33019633889E+02 -0.31741061840E+03  0.33955702062E+03  0.89609195013E+02 0.  0.
        -11    1    4    4    0    0  0.38370698850E+02  0.50969651185E+02 -0.27160792468E+03  0.27900014448E+03  0.00000000000E+00 0. -1.
         11    1    4    4    0    0  0.35313529623E+02 -0.17950017296E+02 -0.45802693717E+02  0.60556876134E+02  0.00000000000E+00 0.  1.
        -11    1    3    3    0    0 -0.62535866356E+02  0.29066197181E+02 -0.27191128715E+03  0.28051974348E+03  0.00000000000E+00 0.  1.
         11    1    3    3    0    0 -0.35577593087E+01 -0.42985669988E+02 -0.12680102981E+03  0.13393627827E+03  0.00000000000E+00 0. -1.
          1    1    1    2  501    0 -0.75906028086E+01 -0.19100161082E+02  0.36546535467E+02  0.41929496288E+02  0.00000000000E+00 0. -1.
<scales pt_clust_5="13000.00000" pt_clust_6="13000.00000" pt_clust_7="13000.00000" pt_clust_8="13000.00000" pt_clust_9="20.55318"></scales>
<clustering>
<clus scale="   20.553">  1  9  2 -1</clus>
<clus scale="   89.609">  5  6 -1 -1</clus>
<clus scale="   90.775">  7  8 -1 -1</clus>
<clus scale="  115.337">  1  5  2 -1</clus>
<clus scale="   20.553">  1  5  2 -1</clus>
</clustering>
</event>
<event>
 9    1  0.1671478E-005  0.9125701E+02  0.7546771E-02  0.1300388E+00
         21   -1    0    0  501  502  0.00000000000E+00  0.00000000000E+00  0.18893505276E+02  0.18893505276E+02  0.00000000000E+00 0.  1.
          1   -1    0    0  502    0 -0.00000000000E+00 -0.00000000000E+00 -0.76273967181E+03  0.76273967181E+03  0.00000000000E+00 0. -1.
         23    2    1    2    0    0  0.52146805298E+01 -0.38205196244E+01 -0.53001690412E+03  0.53773575571E+03  0.90554044921E+02 0.  0.
         23    2    1    2    0    0 -0.27657083031E+02  0.61296091942E+01 -0.16058362520E+03  0.18606930359E+03  0.89622534579E+02 0.  0.
        -11    1    3    3    0    0 -0.71175714592E+01 -0.46148904923E+02 -0.27099160671E+03  0.27498514897E+03  0.00000000000E+00 0.  1.
         11    1    3    3    0    0  0.12332251989E+02  0.42328385299E+02 -0.25902529741E+03  0.26275060674E+03  0.00000000000E+00 0. -1.
        -11    1    4    4    0    0  0.17906186614E+02  0.34894062614E+02 -0.80497419466E+02  0.89543629955E+02  0.00000000000E+00 0. -1.
         11    1    4    4    0    0 -0.45563269645E+02 -0.28764453420E+02 -0.80086205737E+02  0.96525673635E+02  0.00000000000E+00 0.  1.
          1    1    1    2  501    0  0.22442402501E+02 -0.23090895698E+01 -0.53245637205E+02  0.57828117781E+02  0.00000000000E+00 0. -1.
<scales pt_clust_5="13000.00000" pt_clust_6="13000.00000" pt_clust_7="13000.00000" pt_clust_8="13000.00000" pt_clust_9="22.56088"></scales>
<clustering>
<clus scale="   22.561">  1  9  2 -1</clus>
<clus scale="   89.623">  7  8 -1 -1</clus>
<clus scale="   90.333">  1  7  2 -1</clus>
<clus scale="   90.554">  5  6 -1 -1</clus>
<clus scale="   22.561">  1  5  2 -1</clus>
</clustering>
</event>
<event>
 9    1  0.1671478E-005  0.9842075E+02  0.7546771E-02  0.1285680E+00
         21   -1    0    0  501  502  0.00000000000E+00  0.00000000000E+00  0.92556193847E+02  0.92556193847E+02  0.00000000000E+00 0.  1.
          2   -1    0    0  502    0 -0.00000000000E+00 -0.00000000000E+00 -0.14719791182E+03  0.14719791182E+03  0.00000000000E+00 0. -1.
         23    2    1    2    0    0 -0.37589448980E+01 -0.40345762266E+02 -0.65878810593E+02  0.11783627093E+03  0.88901399657E+02 0.  0.
         23    2    1    2    0    0  0.67098370604E+01  0.18313570730E+02 -0.40401151646E+01  0.94945287475E+02  0.92832517455E+02 0.  0.
        -11    1    4    4    0    0  0.16544439206E+02  0.41701794771E+02 -0.33555042455E+02  0.56024093299E+02  0.00000000000E+00 0.  1.
         11    1    4    4    0    0 -0.98346021452E+01 -0.23388224041E+02  0.29514927290E+02  0.38921194176E+02  0.00000000000E+00 0. -1.
        -11    1    3    3    0    0 -0.24223889294E+02  0.33756895135E+01 -0.65114322886E+02  0.69556215661E+02  0.00000000000E+00 0. -1.
         11    1    3    3    0    0  0.20464944396E+02 -0.43721451779E+02 -0.76448770673E+00  0.48280055264E+02  0.00000000000E+00 0.  1.
          2    1    1    2  501    0 -0.29508921624E+01  0.22032191536E+02  0.15277207783E+02  0.26972547267E+02  0.00000000000E+00 0. -1.
<scales pt_clust_5="13000.00000" pt_clust_6="13000.00000" pt_clust_7="13000.00000" pt_clust_8="13000.00000" pt_clust_9="22.22893"></scales>
<clustering>
<clus scale="   22.229">  1  9  2 -1</clus>
<clus scale="   88.901">  7  8 -1 -1</clus>
<clus scale="   92.833">  5  6 -1 -1</clus>
<clus scale="   94.722">  2  7  1 -1</clus>
<clus scale="   22.229">  1  5  2 -1</clus>
</clustering>
</event>
<event>
 9    1  0.1671478E-005  0.1045668E+03  0.7546771E-02  0.1270994E+00
         21   -1    0    0  501  502  0.00000000000E+00  0.00000000000E+00  0.78689817980E+02  0.78689817980E+02  0.00000000000E+00 0.  1.
          2   -1    0    0  502    0 -0.00000000000E+00 -0.00000000000E+00 -0.21262534396E+03  0.21262534396E+03  0.00000000000E+00 0. -1.
         23    2    1    2    0    0 -0.41356006565E+02  0.27407720688E+02 -0.11897779149E+03  0.15823776716E+03  0.91771311725E+02 0.  0.
         23    2    1    2    0    0  0.54423056351E+02 -0.75491752209E+01 -0.19993036731E+02  0.10877793209E+03  0.91728173875E+02 0.  0.
        -11    1    4    4    0    0  0.63334943556E+02 -0.38865536829E+02 -0.15517541968E+02  0.75912048694E+02  0.00000000000E+00 0.  1.
         11    1    4    4    0    0 -0.89118872046E+01  0.31316361608E+02 -0.44754947624E+01  0.32865883394E+02  0.00000000000E+00 0. -1.
        -11    1    3    3    0    0  0.19727946284E+02 -0.18102655333E+02 -0.20413779187E+02  0.33669279401E+02  0.00000000000E+00 0.  1.
         11    1    3    3    0    0 -0.61083952849E+02  0.45510376022E+02 -0.98564012307E+02  0.12456848776E+03  0.00000000000E+00 0. -1.
          2    1    1    2  501    0 -0.13067049786E+02 -0.19858545467E+02  0.50353022458E+01  0.24299462687E+02  0.00000000000E+00 0. -1.
<scales pt_clust_5="13000.00000" pt_clust_6="13000.00000" pt_clust_7="13000.00000" pt_clust_8="13000.00000" pt_clust_9="23.77203"></scales>
<clustering>
<clus scale="   23.772">  1  9  2 -1</clus>
<clus scale="   91.728">  5  6 -1 -1</clus>
<clus scale="   91.771">  7  8 -1 -1</clus>
<clus scale="  104.529">  1  5  2 -1</clus>
<clus scale="   23.772">  1  5  2 -1</clus>
</clustering>
</event>
<event>
 9    1  0.1671478E-005  0.1363093E+03  0.7546771E-02  0.1218474E+00
         21   -1    0    0  501  502  0.00000000000E+00  0.00000000000E+00  0.25009006558E+03  0.25009006558E+03  0.00000000000E+00 0.  1.
         -4   -1    0    0    0  501 -0.00000000000E+00 -0.00000000000E+00 -0.11707684248E+03  0.11707684248E+03  0.00000000000E+00 0.  1.
         23    2    1    2    0    0 -0.68959313207E+02  0.55658739253E+02  0.27441859072E+02  0.13122458482E+03  0.92809233908E+02 0.  0.
         23    2    1    2    0    0  0.56602762658E+02 -0.10400264130E+03  0.43660176759E+02  0.15642620968E+03  0.92425785921E+02 0.  0.
        -11    1    3    3    0    0  0.90992663504E+01  0.23344726803E+02  0.38588979615E+02  0.46009588842E+02  0.00000000000E+00 0. -1.
         11    1    3    3    0    0 -0.78058579557E+02  0.32314012450E+02 -0.11147120544E+02  0.85214995978E+02  0.00000000000E+00 0.  1.
        -11    1    4    4    0    0 -0.18473015054E+02 -0.83550499837E+01  0.26898176362E+02  0.33683394084E+02  0.00000000000E+00 0. -1.
         11    1    4    4    0    0  0.75075777712E+02 -0.95647591318E+02  0.16762000397E+02  0.12274281560E+03  0.00000000000E+00 0.  1.
         -4    1    1    2    0  502  0.12356550549E+02  0.48343902048E+02  0.61911187270E+02  0.79516113561E+02  0.00000000000E+00 0.  1.
<scales pt_clust_5="13000.00000" pt_clust_6="13000.00000" pt_clust_7="13000.00000" pt_clust_8="13000.00000" pt_clust_9="49.89807"></scales>
<clustering>
<clus scale="   49.898">  1  9  2 -1</clus>
<clus scale="   92.426">  7  8 -1 -1</clus>
<clus scale="   92.809">  5  6 -1 -1</clus>
<clus scale="  136.049">  1  7  2 -1</clus>
<clus scale="   49.898">  1  5  2 -1</clus>
</clustering>
</event>
<event>
 9    1  0.1671478E-005  0.1087270E+03  0.7546771E-02  0.1268603E+00
         -1   -1    0    0    0  501 -0.00000000000E+00  0.00000000000E+00  0.37221333552E+03  0.37221333552E+03  0.00000000000E+00 0.  1.
         21   -1    0    0  501  502  0.00000000000E+00 -0.00000000000E+00 -0.14685870707E+03  0.14685870707E+03  0.00000000000E+00 0. -1.
         23    2    1    2    0    0  0.89489412347E-01  0.34816411887E+02  0.29805367889E+03  0.31709338722E+03  0.10246965491E+03 0.  0.
         23    2    1    2    0    0 -0.29221116174E+02 -0.41085533672E+02  0.19324593935E+02  0.10525066207E+03  0.90345820198E+02 0.  0.
        -11    1    4    4    0    0 -0.43361467678E+02  0.14630147103E+02  0.11949247357E+02  0.47297384662E+02  0.00000000000E+00 0.  1.
         11    1    4    4    0    0  0.14140351504E+02 -0.55715680775E+02  0.73753465782E+01  0.57953277405E+02  0.00000000000E+00 0. -1.
        -11    1    3    3    0    0  0.41994533292E+02  0.44899050980E+02  0.13327247384E+03  0.14676858617E+03  0.00000000000E+00 0.  1.
         11    1    3    3    0    0 -0.41905043879E+02 -0.10082639093E+02  0.16478120505E+03  0.17032480105E+03  0.00000000000E+00 0. -1.
         -1    1    1    2    0  502  0.29131626761E+02  0.62691217844E+01 -0.92023644373E+02  0.96727993308E+02  0.00000000000E+00 0.  1.
<scales pt_clust_5="13000.00000" pt_clust_6="13000.00000" pt_clust_7="13000.00000" pt_clust_8="13000.00000" pt_clust_9="29.79855"></scales>
<clustering>
<clus scale="   29.799">  2  9  1 -1</clus>
<clus scale="   90.346">  5  6 -1 -1</clus>
<clus scale="   97.385">  2  5  1 -1</clus>
<clus scale="  102.470">  7  8 -1 -1</clus>
<clus scale="   29.799">  2  5  1 -1</clus>
</clustering>
</event>
<event>
 9    1  0.1671478E-005  0.1199885E+03  0.7546771E-02  0.1243969E+00
          1   -1    0    0  502    0 -0.00000000000E+00  0.00000000000E+00  0.14679734558E+03  0.14679734558E+03  0.00000000000E+00 0. -1.
         21   -1    0    0  501  502  0.00000000000E+00 -0.00000000000E+00 -0.12894006068E+03  0.12894006068E+03  0.00000000000E+00 0. -1.
         23    2    1    2    0    0  0.43066500422E+02 -0.73629067301E+02  0.46424717978E+02  0.13247121183E+03  0.90096639862E+02 0.  0.
         23    2    1    2    0    0 -0.25502633163E+02  0.58020682453E+02 -0.90315800377E+01  0.11270869674E+03  0.92762584016E+02 0.  0.
        -13    1    4    4    0    0  0.19017712649E+01  0.66976021889E+02 -0.33485067065E+02  0.74904298664E+02  0.00000000000E+00 0. -1.
         13    1    4    4    0    0 -0.27404404428E+02 -0.89553394356E+01  0.24453487027E+02  0.37804398081E+02  0.00000000000E+00 0.  1.
        -13    1    3    3    0    0  0.52551439715E+00 -0.80740784437E+02  0.33786052552E+02  0.87526269108E+02  0.00000000000E+00 0. -1.
         13    1    3    3    0    0  0.42540986025E+02  0.71117171364E+01  0.12638665426E+02  0.44944942723E+02  0.00000000000E+00 0.  1.
          1    1    1    2  501    0 -0.17563867259E+02  0.15608384847E+02 -0.19535853047E+02  0.30557497687E+02  0.00000000000E+00 0. -1.
<scales pt_clust_5="13000.00000" pt_clust_6="13000.00000" pt_clust_7="13000.00000" pt_clust_8="13000.00000" pt_clust_9="23.49704"></scales>
<clustering>
<clus scale="   23.497">  2  9  1 -1</clus>
<clus scale="   90.097">  7  8 -1 -1</clus>
<clus scale="   92.763">  5  6 -1 -1</clus>
<clus scale="  117.940">  1  7  2 -1</clus>
<clus scale="   23.497">  2  5  1 -1</clus>
</clustering>
</event>
<event>
 9    1  0.1671478E-005  0.1186650E+03  0.7546771E-02  0.1245336E+00
         21   -1    0    0  501  502  0.00000000000E+00  0.00000000000E+00  0.11803107116E+03  0.11803107116E+03  0.00000000000E+00 0. -1.
          4   -1    0    0  502    0 -0.00000000000E+00 -0.00000000000E+00 -0.27708777141E+03  0.27708777141E+03  0.00000000000E+00 0. -1.
         23    2    1    2    0    0  0.35641252445E+01 -0.80909639330E+02 -0.19934918284E+03  0.23359862443E+03  0.90934855322E+02 0.  0.
         23    2    1    2    0    0 -0.93357824258E+01  0.61146519497E+02 -0.66802056782E+01  0.11023351055E+03  0.90998615480E+02 0.  0.
        -11    1    3    3    0    0 -0.93783776558E+01 -0.97608119056E+02 -0.17986970879E+03  0.20486193158E+03  0.00000000000E+00 0. -1.
         11    1    3    3    0    0  0.12942502900E+02  0.16698479726E+02 -0.19479474053E+02  0.28736692848E+02  0.00000000000E+00 0.  1.
        -13    1    4    4    0    0  0.20400433957E+02  0.53046611147E+02  0.28402595040E+02  0.63536037528E+02  0.00000000000E+00 0.  1.
         13    1    4    4    0    0 -0.29736216383E+02  0.80999083506E+01 -0.35082800718E+02  0.46697473018E+02  0.00000000000E+00 0. -1.
          4    1    1    2  501    0  0.57716571813E+01  0.19763119832E+02  0.46972688269E+02  0.51286707589E+02  0.00000000000E+00 0. -1.
<scales pt_clust_5="13000.00000" pt_clust_6="13000.00000" pt_clust_7="13000.00000" pt_clust_8="13000.00000" pt_clust_9="20.58866"></scales>
<clustering>
<clus scale="   20.589">  1  9  2 -1</clus>
<clus scale="   90.935">  5  6 -1 -1</clus>
<clus scale="   90.999">  7  8 -1 -1</clus>
<clus scale="  118.616">  2  5  1 -1</clus>
<clus scale="   20.589">  1  5  2 -1</clus>
</clustering>
</event>
<event>
 9    1  0.1671478E-005  0.1230494E+03  0.7546771E-02  0.1238153E+00
         21   -1    0    0  501  502  0.00000000000E+00  0.00000000000E+00  0.46790898500E+03  0.46790898500E+03  0.00000000000E+00 0.  1.
          1   -1    0    0  502    0 -0.00000000000E+00 -0.00000000000E+00 -0.10031727230E+03  0.10031727230E+03  0.00000000000E+00 0. -1.
         23    2    1    2    0    0 -0.84229631686E+02 -0.10725028906E+02 -0.33972438811E+02  0.12893051062E+03  0.90880651792E+02 0.  0.
         23    2    1    2    0    0  0.76539489162E+02 -0.15678778925E+02  0.18139883331E+03  0.21741950484E+03  0.90893271735E+02 0.  0.
        -11    1    3    3    0    0 -0.48996074987E+02 -0.50623638733E+02 -0.12588742705E+02  0.71567063693E+02  0.00000000000E+00 0.  1.
         11    1    3    3    0    0 -0.35233556699E+02  0.39898609827E+02 -0.21383696106E+02  0.57363446924E+02  0.00000000000E+00 0. -1.
        -13    1    4    4    0    0  0.79617949040E+02 -0.37662161961E+02  0.17214803446E+03  0.19337115096E+03  0.00000000000E+00 0.  1.
         13    1    4    4    0    0 -0.30784598783E+01  0.21983383036E+02  0.92507988474E+01  0.24048353878E+02  0.00000000000E+00 0. -1.
          1    1    1    2  501    0  0.76901425242E+01  0.26403807830E+02  0.22016531820E+03  0.22187624185E+03  0.00000000000E+00 0. -1.
<scales pt_clust_5="13000.00000" pt_clust_6="13000.00000" pt_clust_7="13000.00000" pt_clust_8="13000.00000" pt_clust_9="27.50090"></scales>
<clustering>
<clus scale="   27.501">  1  9  2 -1</clus>
<clus scale="   90.881">  5  6 -1 -1</clus>
<clus scale="   90.893">  7  8 -1 -1</clus>
<clus scale="  123.040">  2  5  1 -1</clus>
<clus scale="   27.501">  1  5  2 -1</clus>
</clustering>
</event>
<event>
 9    1  0.1671478E-005  0.1247562E+03  0.7546771E-02  0.1235919E+00
          2   -1    0    0  502    0 -0.00000000000E+00  0.00000000000E+00  0.33635141996E+03  0.33635141996E+03  0.00000000000E+00 0. -1.
         21   -1    0    0  501  502  0.00000000000E+00 -0.00000000000E+00 -0.75381280016E+02  0.75381280016E+02  0.00000000000E+00 0.  1.
         23    2    1    2    0    0  0.59339691858E+02  0.43596155359E+02  0.12866300487E+03  0.17339894343E+03  0.89951103213E+02 0.  0.
         23    2    1    2    0    0 -0.10232473438E+03 -0.29053272925E+02  0.13453782250E+03  0.19290045074E+03  0.88293342212E+02 0.  0.
        -11    1    3    3    0    0  0.53207028106E+02 -0.15862146023E+02  0.50939246542E+02  0.75348539167E+02  0.00000000000E+00 0. -1.
         11    1    3    3    0    0  0.61326637515E+01  0.59458301382E+02  0.77723758325E+02  0.98050404262E+02  0.00000000000E+00 0.  1.
        -13    1    4    4    0    0  0.71076166555E+01 -0.26712531939E+02  0.37749405521E+02  0.46787767571E+02  0.00000000000E+00 0. -1.
         13    1    4    4    0    0 -0.10943235103E+03 -0.23407409860E+01  0.96788416979E+02  0.14611268317E+03  0.00000000000E+00 0.  1.
          2    1    1    2  501    0  0.42985042521E+02 -0.14542882433E+02 -0.22306874240E+01  0.45433305806E+02  0.00000000000E+00 0. -1.
<scales pt_clust_5="13000.00000" pt_clust_6="13000.00000" pt_clust_7="13000.00000" pt_clust_8="13000.00000" pt_clust_9="45.37851"></scales>
<clustering>
<clus scale="   45.379">  2  9  1 -1</clus>
<clus scale="   88.293">  7  8 -1 -1</clus>
<clus scale="   89.951">  5  6 -1 -1</clus>
<clus scale="  123.566">  2  7  1 -1</clus>
<clus scale="   45.379">  2  5  1 -1</clus>
</clustering>
</event>
<event>
 9    1  0.1671478E-005  0.8940534E+02  0.7546771E-02  0.1310532E+00
         21   -1    0    0  501  502  0.00000000000E+00  0.00000000000E+00  0.16759802858E+03  0.16759802858E+03  0.00000000000E+00 0.  1.
          1   -1    0    0  502    0 -0.00000000000E+00 -0.00000000000E+00 -0.92139677895E+02  0.92139677895E+02  0.00000000000E+00 0. -1.
         23    2    1    2    0    0 -0.23968071421E+02  0.13396977689E+02 -0.26551768419E+02  0.95786156982E+02  0.87841015502E+02 0.  0.
         23    2    1    2    0    0 -0.53710441388E+00 -0.98769859731E+00  0.24645203118E+02  0.81855117928E+02  0.78048768502E+02 0.  0.
        -13    1    3    3    0    0 -0.32254227979E+01 -0.33676303988E+02 -0.28607315548E+02  0.44304348606E+02  0.00000000000E+00 0. -1.
         13    1    3    3    0    0 -0.20742648623E+02  0.47073281677E+02  0.20555471295E+01  0.51481808377E+02  0.00000000000E+00 0.  1.
        -13    1    4    4    0    0  0.21318169339E+02  0.31719514151E+02  0.16780675922E+02  0.41739465813E+02  0.00000000000E+00 0.  1.
         13    1    4    4    0    0 -0.21855273753E+02 -0.32707212749E+02  0.78645271959E+01  0.40115652115E+02  0.00000000000E+00 0. -1.
          1    1    1    2  501    0  0.24505175835E+02 -0.12409279092E+02  0.77364915986E+02  0.82096431566E+02  0.00000000000E+00 0. -1.
<scales pt_clust_5="13000.00000" pt_clust_6="13000.00000" pt_clust_7="13000.00000" pt_clust_8="13000.00000" pt_clust_9="27.46805"></scales>
<clustering>
<clus scale="   27.468">  1  9  2 -1</clus>
<clus scale="   78.049">  7  8 -1 -1</clus>
<clus scale="   79.805">  1  7  2 -1</clus>
<clus scale="   87.841">  5  6 -1 -1</clus>
<clus scale="   27.468">  1  5  2 -1</clus>
</clustering>
</event>
<event>
 9    1  0.1671478E-005  0.1826722E+03  0.7546771E-02  0.1165665E+00
         -4   -1    0    0    0  501 -0.00000000000E+00  0.00000000000E+00  0.66582471513E+03  0.66582471513E+03  0.00000000000E+00 0.  1.
         21   -1    0    0  501  502  0.00000000000E+00 -0.00000000000E+00 -0.72520047286E+02  0.72520047286E+02  0.00000000000E+00 0. -1.
         23    2    1    2    0    0  0.32141185760E+02 -0.14904841709E+03  0.43043797530E+03  0.46638268818E+03  0.94802293203E+02 0.  0.
         23    2    1    2    0    0 -0.52266571319E+02  0.15895977910E+03  0.12505018240E+03  0.22799214496E+03  0.91339280676E+02 0.  0.
        -11    1    4    4    0    0  0.19098126734E-01  0.94264922248E+02  0.24311477478E+02  0.97349493416E+02  0.00000000000E+00 0. -1.
         11    1    4    4    0    0 -0.52285669446E+02  0.64694856857E+02  0.10073870492E+03  0.13064265154E+03  0.00000000000E+00 0.  1.
        -11    1    3    3    0    0  0.37283348284E+02 -0.11076295128E+03  0.40136928203E+03  0.41803801262E+03  0.00000000000E+00 0.  1.
         11    1    3    3    0    0 -0.51421625248E+01 -0.38285465801E+02  0.29068693277E+02  0.48344675569E+02  0.00000000000E+00 0. -1.
         -4    1    1    2    0  502  0.20125385559E+02 -0.99113620186E+01  0.37816510147E+02  0.43969929277E+02  0.00000000000E+00 0.  1.
<scales pt_clust_5="13000.00000" pt_clust_6="13000.00000" pt_clust_7="13000.00000" pt_clust_8="13000.00000" pt_clust_9="22.43361"></scales>
<clustering>
<clus scale="   22.434">  2  9  1 -1</clus>
<clus scale="   91.339">  5  6 -1 -1</clus>
<clus scale="   94.802">  7  8 -1 -1</clus>
<clus scale="  180.899">  2  5  1 -1</clus>
<clus scale="   22.434">  2  5  1 -1</clus>
</clustering>
</event>
<event>
 9    1  0.1671478E-005  0.1020186E+03  0.7546771E-02  0.1277346E+00
          1   -1    0    0  502    0 -0.00000000000E+00  0.00000000000E+00  0.47431610121E+03  0.47431610121E+03  0.00000000000E+00 0. -1.
         21   -1    0    0  501  502  0.00000000000E+00 -0.00000000000E+00 -0.66176614614E+02  0.66176614614E+02  0.00000000000E+00 0.  1.
         23    2    1    2    0    0 -0.41372490931E+02  0.16249681567E+02  0.36037801556E+03  0.37474588140E+03  0.92662971942E+02 0.  0.
         23    2    1    2    0    0  0.44299128267E+02  0.26593723672E+02  0.61511540842E+02  0.12065595954E+03  0.90025285406E+02 0.  0.
        -11    1    3    3    0    0 -0.44338749566E+02  0.49633898156E+02  0.19617022611E+03  0.20715261565E+03  0.00000000000E+00 0.  1.
         11    1    3    3    0    0  0.29662586353E+01 -0.33384216589E+02  0.16420778945E+03  0.16759326575E+03  0.00000000000E+00 0. -1.
        -11    1    4    4    0    0  0.14091756421E+02 -0.32945401128E+02  0.30437178098E+02  0.47014879189E+02  0.00000000000E+00 0. -1.
         11    1    4    4    0    0  0.30207371845E+02  0.59539124800E+02  0.31074362743E+02  0.73641080354E+02  0.00000000000E+00 0.  1.
          1    1    1    2  501    0 -0.29266373361E+01 -0.42843405238E+02 -0.13750069803E+02  0.45090874887E+02  0.00000000000E+00 0. -1.
<scales pt_clust_5="13000.00000" pt_clust_6="13000.00000" pt_clust_7="13000.00000" pt_clust_8="13000.00000" pt_clust_9="42.94325"></scales>
<clustering>
<clus scale="   42.943">  2  9  1 -1</clus>
<clus scale="   90.025">  7  8 -1 -1</clus>
<clus scale="   92.663">  5  6 -1 -1</clus>
<clus scale="   99.629">  2  7  1 -1</clus>
<clus scale="   42.943">  2  5  1 -1</clus>
</clustering>
</event>
<event>
 9    1  0.1671478E-005  0.1669774E+03  0.7546771E-02  0.1181574E+00
          2   -1    0    0  502    0 -0.00000000000E+00  0.00000000000E+00  0.10347947273E+04  0.10347947273E+04  0.00000000000E+00 0. -1.
         21   -1    0    0  501  502  0.00000000000E+00 -0.00000000000E+00 -0.12128587255E+03  0.12128587255E+03  0.00000000000E+00 0. -1.
         23    2    1    2    0    0 -0.12037093110E+03  0.18518910056E+02  0.58020987282E+03  0.59933928214E+03  0.87931607060E+02 0.  0.
         23    2    1    2    0    0  0.19062888229E+03 -0.13307474138E+03  0.34027662202E+03  0.42217569930E+03  0.91629056675E+02 0.  0.
        -11    1    4    4    0    0  0.18282843097E+03 -0.10288977484E+03  0.32649924587E+03  0.38809058027E+03  0.00000000000E+00 0. -1.
         11    1    4    4    0    0  0.78004513209E+01 -0.30184966538E+02  0.13777376148E+02  0.34085119029E+02  0.00000000000E+00 0.  1.
        -13    1    3    3    0    0 -0.98751732307E+02  0.50259954712E+02  0.45929443826E+03  0.47247153216E+03  0.00000000000E+00 0.  1.
         13    1    3    3    0    0 -0.21619198794E+02 -0.31741044656E+02  0.12091543456E+03  0.12686774999E+03  0.00000000000E+00 0. -1.
          2    1    1    2  501    0 -0.70257951189E+02  0.11455583132E+03 -0.69776400839E+01  0.13456561841E+03  0.00000000000E+00 0. -1.
<scales pt_clust_5="13000.00000" pt_clust_6="13000.00000" pt_clust_7="13000.00000" pt_clust_8="13000.00000" pt_clust_9="134.38459"></scales>
<clustering>
<clus scale="   87.932">  7  8 -1 -1</clus>
<clus scale="   91.629">  5  6 -1 -1</clus>
<clus scale="  134.385">  2  9  1 -1</clus>
<clus scale="  164.977">  1  7  2 -1</clus>
<clus scale="  134.385">  2  5  1 -1</clus>
</clustering>
</event>
<event>
 9    1  0.1671478E-005  0.9852105E+02  0.7546771E-02  0.1283938E+00
         21   -1    0    0  501  502  0.00000000000E+00  0.00000000000E+00  0.46130710827E+02  0.46130710827E+02  0.00000000000E+00 0. -1.
         -1   -1    0    0    0  501 -0.00000000000E+00 -0.00000000000E+00 -0.44644396224E+03  0.44644396224E+03  0.00000000000E+00 0.  1.
         23    2    1    2    0    0  0.22415702347E+02 -0.40201322934E+00 -0.23053217303E+03  0.24905498172E+03  0.91546031005E+02 0.  0.
         23    2    1    2    0    0 -0.70729374064E+02  0.10675738002E+02 -0.82150232890E+02  0.14292682193E+03  0.92535398229E+02 0.  0.
        -11    1    4    4    0    0 -0.50567592515E+02  0.11650058556E+02  0.62354163946E+01  0.52265530656E+02  0.00000000000E+00 0. -1.
         11    1    4    4    0    0 -0.20161781549E+02 -0.97432055375E+00 -0.88385649285E+02  0.90661291273E+02  0.00000000000E+00 0.  1.
        -11    1    3    3    0    0  0.11678281317E+02  0.45311097924E+02 -0.12790268949E+03  0.13619315632E+03  0.00000000000E+00 0.  1.
         11    1    3    3    0    0  0.10737421030E+02 -0.45713111153E+02 -0.10262948355E+03  0.11286182541E+03  0.00000000000E+00 0. -1.
         -1    1    1    2    0  502  0.48313671717E+02 -0.10273724773E+02 -0.87630845492E+02  0.10059286941E+03  0.00000000000E+00 0.  1.
<scales pt_clust_5="13000.00000" pt_clust_6="13000.00000" pt_clust_7="13000.00000" pt_clust_8="13000.00000" pt_clust_9="49.39395"></scales>
<clustering>
<clus scale="   49.394">  1  9  2 -1</clus>
<clus scale="   91.546">  7  8 -1 -1</clus>
<clus scale="   92.535">  5  6 -1 -1</clus>
<clus scale="   97.592">  2  7  1 -1</clus>
<clus scale="   49.394">  1  5  2 -1</clus>
</clustering>
</event>
<event>
 9    1  0.1671478E-005  0.9439547E+02  0.7546771E-02  0.1294711E+00
         21   -1    0    0  501  502  0.00000000000E+00  0.00000000000E+00  0.11051276880E+03  0.11051276880E+03  0.00000000000E+00 0. -1.
          3   -1    0    0  502    0 -0.00000000000E+00 -0.00000000000E+00 -0.15292674065E+03  0.15292674065E+03  0.00000000000E+00 0. -1.
         23    2    1    2    0    0 -0.57507726296E+01 -0.48691851017E+02 -0.45672957181E+02  0.10884136232E+03  0.85769781355E+02 0.  0.
         23    2    1    2    0    0 -0.26184367001E+02  0.26987835399E+01 -0.17057181457E+02  0.95033375394E+02  0.89707806191E+02 0.  0.
        -11    1    3    3    0    0  0.20726601925E+02 -0.59556283955E+02 -0.11217136053E+02  0.64049723864E+02  0.00000000000E+00 0. -1.
         11    1    3    3    0    0 -0.26477374555E+02  0.10864432938E+02 -0.34455821128E+02  0.44791638461E+02  0.00000000000E+00 0.  1.
        -11    1    4    4    0    0  0.10082510788E+02  0.39988119119E+02 -0.42152219705E+01  0.41454490598E+02  0.00000000000E+00 0.  1.
         11    1    4    4    0    0 -0.36266877789E+02 -0.37289335579E+02 -0.12841959486E+02  0.53578884796E+02  0.00000000000E+00 0. -1.
          3    1    1    2  501    0  0.31935139631E+02  0.45993067477E+02  0.20316166788E+02  0.59564771737E+02  0.00000000000E+00 0. -1.
<scales pt_clust_5="13000.00000" pt_clust_6="13000.00000" pt_clust_7="13000.00000" pt_clust_8="13000.00000" pt_clust_9="55.99299"></scales>
<clustering>
<clus scale="   55.993">  1  9  2 -1</clus>
<clus scale="   85.770">  5  6 -1 -1</clus>
<clus scale="   89.708">  7  8 -1 -1</clus>
<clus scale="   90.661">  2  5  1 -1</clus>
<clus scale="   55.993">  1  5  2 -1</clus>
</clustering>
</event>
<event>
 9    1  0.1671478E-005  0.1118353E+03  0.7546771E-02  0.1263690E+00
         -4   -1    0    0    0  501 -0.00000000000E+00  0.00000000000E+00  0.51525978168E+02  0.51525978168E+02  0.00000000000E+00 0.  1.
         21   -1    0    0  501  502  0.00000000000E+00 -0.00000000000E+00 -0.38724865463E+03  0.38724865463E+03  0.00000000000E+00 0.  1.
         23    2    1    2    0    0  0.27756041570E+02 -0.10506916811E+02 -0.66387752034E+02  0.11693480252E+03  0.91573037935E+02 0.  0.
         23    2    1    2    0    0 -0.52613463703E+02 -0.34048052635E+02 -0.16595904918E+03  0.20655926678E+03  0.10581530246E+03 0.  0.
        -11    1    3    3    0    0  0.51424660514E+02  0.16009935100E+02 -0.17780142458E+02  0.56718138164E+02  0.00000000000E+00 0.  1.
         11    1    3    3    0    0 -0.23668618944E+02 -0.26516851911E+02 -0.48607609576E+02  0.60216664360E+02  0.00000000000E+00 0. -1.
        -13    1    4    4    0    0 -0.71774477160E+01  0.21550757473E+02 -0.11810855546E+03  0.12027294698E+03  0.00000000000E+00 0. -1.
         13    1    4    4    0    0 -0.45436015987E+02 -0.55598810108E+02 -0.47850493725E+02  0.86286319796E+02  0.00000000000E+00 0.  1.
         -4    1    1    2    0  502  0.24857422133E+02  0.44554969445E+02 -0.10337587524E+03  0.11528056349E+03  0.00000000000E+00 0.  1.
<scales pt_clust_5="13000.00000" pt_clust_6="13000.00000" pt_clust_7="13000.00000" pt_clust_8="13000.00000" pt_clust_9="51.01996"></scales>
<clustering>
<clus scale="   51.020">  2  9  1 -1</clus>
<clus scale="   91.573">  5  6 -1 -1</clus>
<clus scale="   98.468">  1  5  2 -1</clus>
<clus scale="  105.815">  7  8 -1 -1</clus>
<clus scale="   51.020">  2  5  1 -1</clus>
</clustering>
</event>
<event>
 9    1  0.1671478E-005  0.2148746E+03  0.7546771E-02  0.1155328E+00
          4   -1    0    0  502    0 -0.00000000000E+00  0.00000000000E+00  0.47783668095E+03  0.47783668095E+03  0.00000000000E+00 0. -1.
         21   -1    0    0  501  502  0.00000000000E+00 -0.00000000000E+00 -0.41993778569E+03  0.41993778569E+03  0.00000000000E+00 0. -1.
         23    2    1    2    0    0 -0.61138355068E+01  0.10767718189E+03  0.28603394861E+03  0.31905505797E+03  0.91372620500E+02 0.  0.
         23    2    1    2    0    0 -0.14623097791E+03 -0.21093373687E+03  0.16057033399E+02  0.27294067567E+03  0.91445305317E+02 0.  0.
        -11    1    3    3    0    0 -0.39676521661E+02  0.21425962097E+02  0.13046013556E+03  0.13803313078E+03  0.00000000000E+00 0.  1.
         11    1    3    3    0    0  0.33562686154E+02  0.86251219797E+02  0.15557381305E+03  0.18102192720E+03  0.00000000000E+00 0. -1.
        -11    1    4    4    0    0 -0.33699313062E+01 -0.51216590574E+02 -0.21029355290E+02  0.55468273553E+02  0.00000000000E+00 0.  1.
         11    1    4    4    0    0 -0.14286104660E+03 -0.15971714630E+03  0.37086388689E+02  0.21747240212E+03  0.00000000000E+00 0. -1.
          4    1    1    2  501    0  0.15234481342E+03  0.10325655498E+03 -0.24419208674E+03  0.30577873299E+03  0.00000000000E+00 0. -1.
<scales pt_clust_5="13000.00000" pt_clust_6="13000.00000" pt_clust_7="13000.00000" pt_clust_8="13000.00000" pt_clust_9="194.44502"></scales>
<clustering>
<clus scale="   91.373">  5  6 -1 -1</clus>
<clus scale="   91.445">  7  8 -1 -1</clus>
<clus scale="  141.353">  1  5  2 -1</clus>
<clus scale="  194.445">  2  9  1 -1</clus>
<clus scale="  194.445">  2  5  1 -1</clus>
</clustering>
</event>
<event>
 9    1  0.1671478E-005  0.2184323E+03  0.7546771E-02  0.1135251E+00
          1   -1    0    0  502    0 -0.00000000000E+00  0.00000000000E+00  0.23681153440E+03  0.23681153440E+03  0.00000000000E+00 0. -1.
         21   -1    0    0  501  502  0.00000000000E+00 -0.00000000000E+00 -0.24665653008E+03  0.24665653008E+03  0.00000000000E+00 0. -1.
         23    2    1    2    0    0 -0.17008096054E+03 -0.92843981351E+02  0.11526558923E+02  0.21373339711E+03  0.89451469903E+02 0.  0.
         23    2    1    2    0    0  0.16204180497E+03  0.12648476610E+03 -0.42571806522E+02  0.22916643963E+03  0.91918201281E+02 0.  0.
        -11    1    3    3    0    0 -0.19381921931E+02  0.10311748676E+02 -0.18435977744E+02  0.28668385617E+02  0.00000000000E+00 0.  1.
         11    1    3    3    0    0 -0.15069903861E+03 -0.10315573003E+03  0.29962536667E+02  0.18506501149E+03  0.00000000000E+00 0. -1.
        -13    1    4    4    0    0  0.32822225191E+02  0.23573554629E+02  0.28381154172E+02  0.49381179173E+02  0.00000000000E+00 0.  1.
         13    1    4    4    0    0  0.12921957978E+03  0.10291121147E+03 -0.70952960695E+02  0.17978526045E+03  0.00000000000E+00 0. -1.
          1    1    1    2  501    0  0.80391555627E+01 -0.33640784747E+02  0.21200251923E+02  0.40568227742E+02  0.00000000000E+00 0. -1.
<scales pt_clust_5="13000.00000" pt_clust_6="13000.00000" pt_clust_7="13000.00000" pt_clust_8="13000.00000" pt_clust_9="34.58803"></scales>
<clustering>
<clus scale="   34.588">  2  9  1 -1</clus>
<clus scale="   89.451">  5  6 -1 -1</clus>
<clus scale="   91.918">  7  8 -1 -1</clus>
<clus scale="  217.406">  1  5  2 -1</clus>
<clus scale="   34.588">  2  5  1 -1</clus>
</clustering>
</event>
<event>
 9    1  0.1671478E-005  0.1499432E+03  0.7546771E-02  0.1200556E+00
         21   -1    0    0  501  502  0.00000000000E+00  0.00000000000E+00  0.12853947482E+03  0.12853947482E+03  0.00000000000E+00 0.  1.
          2   -1    0    0  502    0 -0.00000000000E+00 -0.00000000000E+00 -0.51308424691E+03  0.51308424691E+03  0.00000000000E+00 0.  1.
         23    2    1    2    0    0  0.89713857068E+02 -0.10767220290E+03 -0.39885003502E+03  0.43246084257E+03  0.91099673407E+02 0.  0.
         23    2    1    2    0    0 -0.48142552350E+02  0.48013487200E+02 -0.37762529393E+02  0.11972915659E+03  0.91027808997E+02 0.  0.
        -13    1    3    3    0    0  0.41805473383E+02  0.32500187639E+01 -0.15121718630E+03  0.15692322218E+03  0.00000000000E+00 0.  1.
         13    1    3    3    0    0  0.47908383685E+02 -0.11092222166E+03 -0.24763284872E+03  0.27553762039E+03  0.00000000000E+00 0. -1.
        -13    1    4    4    0    0  0.12919749763E+02  0.49683898895E+02 -0.86445417599E+01  0.52058984292E+02  0.00000000000E+00 0.  1.
         13    1    4    4    0    0 -0.61062302112E+02 -0.16704116946E+01 -0.29117987633E+02  0.67670172294E+02  0.00000000000E+00 0. -1.
          2    1    1    2  501    0 -0.41571304718E+02  0.59658715699E+02  0.52067792329E+02  0.89433722571E+02  0.00000000000E+00 0.  1.
<scales pt_clust_5="13000.00000" pt_clust_6="13000.00000" pt_clust_7="13000.00000" pt_clust_8="13000.00000" pt_clust_9="72.71407"></scales>
<clustering>
<clus scale="   72.714">  1  9  2 -1</clus>
<clus scale="   91.028">  7  8 -1 -1</clus>
<clus scale="   91.100">  5  6 -1 -1</clus>
<clus scale="  149.900">  1  7  2 -1</clus>
<clus scale="   72.714">  1  5  2 -1</clus>
</clustering>
</event>
<event>
 9    1  0.1671478E-005  0.1200613E+03  0.7546771E-02  0.1243513E+00
         21   -1    0    0  501  502  0.00000000000E+00  0.00000000000E+00  0.14751042416E+03  0.14751042416E+03  0.00000000000E+00 0.  1.
          1   -1    0    0  502    0 -0.00000000000E+00 -0.00000000000E+00 -0.12520698324E+03  0.12520698324E+03  0.00000000000E+00 0. -1.
         23    2    1    2    0    0  0.36775363005E+02  0.72243618594E+02 -0.11849520847E+02  0.12334883591E+03  0.92211476645E+02 0.  0.
         23    2    1    2    0    0 -0.10736863910E+02 -0.67280179208E+02  0.39189898960E+02  0.12238691287E+03  0.93812608427E+02 0.  0.
        -11    1    4    4    0    0  0.19596545747E+01 -0.38220312960E+02 -0.28446733536E+02  0.47684895068E+02  0.00000000000E+00 0. -1.
         11    1    4    4    0    0 -0.12696518485E+02 -0.29059866248E+02  0.67636632496E+02  0.74702017800E+02  0.00000000000E+00 0.  1.
        -11    1    3    3    0    0 -0.29483910597E+02  0.16864462422E+02 -0.14550875009E+02  0.36951847592E+02  0.00000000000E+00 0. -1.
         11    1    3    3    0    0  0.66259273603E+02  0.55379156172E+02  0.27013541620E+01  0.86396988321E+02  0.00000000000E+00 0.  1.
          1    1    1    2  501    0 -0.26038499095E+02 -0.49634393864E+01 -0.50369372000E+01  0.26981658623E+02  0.00000000000E+00 0. -1.
<scales pt_clust_5="13000.00000" pt_clust_6="13000.00000" pt_clust_7="13000.00000" pt_clust_8="13000.00000" pt_clust_9="26.50735"></scales>
<clustering>
<clus scale="   26.507">  1  9  2 -1</clus>
<clus scale="   92.211">  7  8 -1 -1</clus>
<clus scale="   93.813">  5  6 -1 -1</clus>
<clus scale="  118.814">  2  7  1 -1</clus>
<clus scale="   26.507">  1  5  2 -1</clus>
</clustering>
</event>
<event>
 9    1  0.1671478E-005  0.9547048E+02  0.7546771E-02  0.1290600E+00
         21   -1    0    0  501  502  0.00000000000E+00  0.00000000000E+00  0.98771286266E+02  0.98771286266E+02  0.00000000000E+00 0.  1.
          2   -1    0    0  502    0 -0.00000000000E+00 -0.00000000000E+00 -0.31106977861E+03  0.31106977861E+03  0.00000000000E+00 0. -1.
         23    2    1    2    0    0  0.98184124066E+00  0.19273333362E+02 -0.23840026157E+03  0.25709722051E+03  0.94296716200E+02 0.  0.
         23    2    1    2    0    0  0.32865669064E+02  0.12566947754E+02  0.81712215372E+00  0.99840433946E+02  0.93431066477E+02 0.  0.
        -11    1    3    3    0    0 -0.34355949996E+02  0.15669879009E+02 -0.37992678094E+02  0.53566033987E+02  0.00000000000E+00 0. -1.
         11    1    3    3    0    0  0.35337791237E+02  0.36034543526E+01 -0.20040758348E+03  0.20353118653E+03  0.00000000000E+00 0.  1.
        -13    1    4    4    0    0 -0.19222650664E+02 -0.87921568530E+01 -0.29194204766E+02  0.36043222838E+02  0.00000000000E+00 0. -1.
         13    1    4    4    0    0  0.52088319728E+02  0.21359104607E+02  0.30011326919E+02  0.63797211108E+02  0.00000000000E+00 0.  1.
          2    1    1    2  501    0 -0.33847510304E+02 -0.31840281115E+02  0.25284647080E+02  0.52903410413E+02  0.00000000000E+00 0. -1.
<scales pt_clust_5="13000.00000" pt_clust_6="13000.00000" pt_clust_7="13000.00000" pt_clust_8="13000.00000" pt_clust_9="46.46996"></scales>
<clustering>
<clus scale="   46.470">  1  9  2 -1</clus>
<clus scale="   93.431">  7  8 -1 -1</clus>
<clus scale="   94.297">  5  6 -1 -1</clus>
<clus scale="   94.616">  1  7  2 -1</clus>
<clus scale="   46.470">  1  5  2 -1</clus>
</clustering>
</event>
<event>
 9    1  0.1671478E-005  0.1087015E+03  0.7546771E-02  0.1266628E+00
          1   -1    0    0  502    0 -0.00000000000E+00  0.00000000000E+00  0.27171081950E+03  0.27171081950E+03  0.00000000000E+00 0. -1.
         21   -1    0    0  501  502  0.00000000000E+00 -0.00000000000E+00 -0.20509111488E+03  0.20509111488E+03  0.00000000000E+00 0. -1.
         23    2    1    2    0    0 -0.40347849497E+02 -0.41713913675E+02  0.11361978029E+03  0.15552147046E+03  0.88935222198E+02 0.  0.
         23    2    1    2    0    0  0.61150833027E+02 -0.57112065085E+02  0.85843621491E+02  0.15440690077E+03  0.97319840202E+02 0.  0.
        -11    1    4    4    0    0  0.47373857464E+02  0.18105620586E+02  0.24241849070E+02  0.56211770246E+02  0.00000000000E+00 0.  1.
         11    1    4    4    0    0  0.13776975563E+02 -0.75217685672E+02  0.61601772421E+02  0.98195130525E+02  0.00000000000E+00 0. -1.
        -11    1    3    3    0    0 -0.52649102559E+01  0.27037746718E+02  0.41997364859E+02  0.50224871156E+02  0.00000000000E+00 0.  1.
         11    1    3    3    0    0 -0.35082939241E+02 -0.68751660393E+02  0.71622415436E+02  0.10529659931E+03  0.00000000000E+00 0. -1.
          1    1    1    2  501    0 -0.20802983530E+02  0.98825978761E+02 -0.13284369717E+03  0.16687356315E+03  0.00000000000E+00 0. -1.
<scales pt_clust_5="13000.00000" pt_clust_6="13000.00000" pt_clust_7="13000.00000" pt_clust_8="13000.00000" pt_clust_9="100.99177"></scales>
<clustering>
<clus scale="   88.935">  7  8 -1 -1</clus>
<clus scale="   97.320">  5  6 -1 -1</clus>
<clus scale="  100.992">  2  9  1 -1</clus>
<clus scale="  101.264">  1  7  2 -1</clus>
<clus scale="  100.992">  2  5  1 -1</clus>
</clustering>
</event>
<event>
 9    1  0.1671478E-005  0.1417915E+03  0.7546771E-02  0.1212922E+00
         -1   -1    0    0    0  501 -0.00000000000E+00  0.00000000000E+00  0.49877100777E+02  0.49877100777E+02  0.00000000000E+00 0.  1.
         21   -1    0    0  501  502  0.00000000000E+00 -0.00000000000E+00 -0.83667292404E+03  0.83667292404E+03  0.00000000000E+00 0.  1.
         23    2    1    2    0    0 -0.73080395345E+02 -0.63503795244E+02 -0.17171776187E+03  0.22051108410E+03  0.98816356300E+02 0.  0.
         23    2    1    2    0    0  0.10746353245E+03  0.53210843292E+02 -0.61187406580E+03  0.63000547620E+03  0.90206557408E+02 0.  0.
        -13    1    3    3    0    0 -0.48088038817E+02  0.73530911713E+01 -0.22826845145E+02  0.53736321853E+02  0.00000000000E+00 0.  1.
         13    1    3    3    0    0 -0.24992356529E+02 -0.70856886415E+02 -0.14889091673E+03  0.16677476224E+03  0.00000000000E+00 0. -1.
        -13    1    4    4    0    0  0.27308839141E+02 -0.22141242310E+01 -0.32567914986E+02  0.42559888720E+02  0.00000000000E+00 0. -1.
         13    1    4    4    0    0  0.80154693312E+02  0.55424967523E+02 -0.57930615081E+03  0.58744558748E+03  0.00000000000E+00 0.  1.
         -1    1    1    2    0  502 -0.34383137108E+02  0.10292951952E+02 -0.32039955918E+01  0.36033464516E+02  0.00000000000E+00 0.  1.
<scales pt_clust_5="13000.00000" pt_clust_6="13000.00000" pt_clust_7="13000.00000" pt_clust_8="13000.00000" pt_clust_9="35.89075"></scales>
<clustering>
<clus scale="   35.891">  2  9  1 -1</clus>
<clus scale="   90.207">  7  8 -1 -1</clus>
<clus scale="   98.816">  5  6 -1 -1</clus>
<clus scale="  135.932">  2  7  1 -1</clus>
<clus scale="   35.891">  2  5  1 -1</clus>
</clustering>
</event>
<event>
 9    1  0.1671478E-005  0.1017887E+03  0.7546771E-02  0.1278431E+00
         21   -1    0    0  501  502  0.00000000000E+00  0.00000000000E+00  0.57567354826E+02  0.57567354826E+02  0.00000000000E+00 0. -1.
          1   -1    0    0  502    0 -0.00000000000E+00 -0.00000000000E+00 -0.34685009639E+03  0.34685009639E+03  0.00000000000E+00 0. -1.
         23    2    1    2    0    0  0.46744869988E+02 -0.23987024178E+02 -0.21911768840E+03  0.24330706121E+03  0.91789457274E+02 0.  0.
         23    2    1    2    0    0 -0.33553817844E+02 -0.54231772526E+01 -0.83834117991E+02  0.12609886136E+03  0.87849268375E+02 0.  0.
        -11    1    4    4    0    0  0.42067066427E+01  0.26225317657E+02  0.25180306694E+01  0.26679657896E+02  0.00000000000E+00 0.  1.
         11    1    4    4    0    0 -0.37760524486E+02 -0.31648494910E+02 -0.86352148661E+02  0.99419203466E+02  0.00000000000E+00 0. -1.
        -13    1    3    3    0    0  0.66978002514E+02 -0.18063679606E+02 -0.20842846413E+03  0.21966969295E+03  0.00000000000E+00 0. -1.
         13    1    3    3    0    0 -0.20233132526E+02 -0.59233445719E+01 -0.10689224267E+02  0.23637368258E+02  0.00000000000E+00 0.  1.
          1    1    1    2  501    0 -0.13191052144E+02  0.29410201430E+02  0.13669064825E+02  0.35011528645E+02  0.00000000000E+00 0. -1.
<scales pt_clust_5="13000.00000" pt_clust_6="13000.00000" pt_clust_7="13000.00000" pt_clust_8="13000.00000" pt_clust_9="32.23296"></scales>
<clustering>
<clus scale="   32.233">  1  9  2 -1</clus>
<clus scale="   87.849">  5  6 -1 -1</clus>
<clus scale="   91.789">  7  8 -1 -1</clus>
<clus scale="   98.250">  1  5  2 -1</clus>
<clus scale="   32.233">  1  5  2 -1</clus>
</clustering>
</event>
<event>
 9    1  0.1671478E-005  0.2014035E+03  0.7546771E-02  0.1149121E+00
          2   -1    0    0  502    0 -0.00000000000E+00  0.00000000000E+00  0.43062534432E+03  0.43062534432E+03  0.00000000000E+00 0. -1.
         21   -1    0    0  501  502  0.00000000000E+00 -0.00000000000E+00 -0.15733278026E+03  0.15733278026E+03  0.00000000000E+00 0. -1.
         23    2    1    2    0    0  0.25160633600E+01  0.18090005003E+03  0.24032749793E+03  0.31654476080E+03  0.98550092106E+02 0.  0.
         23    2    1    2    0    0  0.15179671341E+02 -0.16705677707E+03  0.88706061816E+02  0.21131482941E+03  0.92988184950E+02 0.  0.
        -11    1    3    3    0    0  0.20527073105E+02  0.15229545214E+03  0.23715822397E+03  0.28259385816E+03  0.00000000000E+00 0.  1.
         11    1    3    3    0    0 -0.18011009745E+02  0.28604597894E+02  0.31692739551E+01  0.33950902641E+02  0.00000000000E+00 0. -1.
        -13    1    4    4    0    0  0.18762737663E+02 -0.21587234596E+02  0.54933589541E+02  0.61933418136E+02  0.00000000000E+00 0.  1.
         13    1    4    4    0    0 -0.35830663227E+01 -0.14546954247E+03  0.33772472275E+02  0.14938141128E+03  0.00000000000E+00 0. -1.
          2    1    1    2  501    0 -0.17695734701E+02 -0.13843272961E+02 -0.55740995686E+02  0.60098534365E+02  0.00000000000E+00 0. -1.
<scales pt_clust_5="13000.00000" pt_clust_6="13000.00000" pt_clust_7="13000.00000" pt_clust_8="13000.00000" pt_clust_9="22.46720"></scales>
<clustering>
<clus scale="   22.467">  2  9  1 -1</clus>
<clus scale="   92.988">  7  8 -1 -1</clus>
<clus scale="   98.550">  5  6 -1 -1</clus>
<clus scale="  198.741">  2  7  1 -1</clus>
<clus scale="   22.467">  2  5  1 -1</clus>
</clustering>
</event>
<event>
 9    1  0.1671478E-005  0.1178256E+03  0.7546771E-02  0.1248010E+00
          3   -1    0    0  502    0 -0.00000000000E+00  0.00000000000E+00  0.32700968520E+03  0.32700968520E+03  0.00000000000E+00 0. -1.
         21   -1    0    0  501  502  0.00000000000E+00 -0.00000000000E+00 -0.14715130342E+03  0.14715130342E+03  0.00000000000E+00 0. -1.
         23    2    1    2    0    0  0.77072975122E+02 -0.14525014855E+02  0.26318069937E+03  0.28867874434E+03  0.88995041215E+02 0.  0.
         23    2    1    2    0    0 -0.20180081341E+02  0.31537047559E+02 -0.75949308628E+02  0.12564436430E+03  0.92824499713E+02 0.  0.
        -11    1    3    3    0    0  0.24404280551E+01 -0.32891930839E+02  0.35884982762E+02  0.48739786532E+02  0.00000000000E+00 0.  1.
         11    1    3    3    0    0  0.74632547067E+02  0.18366915984E+02  0.22729571661E+03  0.23993895781E+03  0.00000000000E+00 0. -1.
        -13    1    4    4    0    0 -0.56513019713E+02  0.98526824279E+01 -0.49303188897E+02  0.75641266407E+02  0.00000000000E+00 0.  1.
         13    1    4    4    0    0  0.36332938373E+02  0.21684365131E+02 -0.26646119731E+02  0.50003097891E+02  0.00000000000E+00 0. -1.
          3    1    1    2  501    0 -0.56892893781E+02 -0.17012032704E+02 -0.73730089587E+01  0.59837879981E+02  0.00000000000E+00 0. -1.
<scales pt_clust_5="13000.00000" pt_clust_6="13000.00000" pt_clust_7="13000.00000" pt_clust_8="13000.00000" pt_clust_9="59.38190"></scales>
<clustering>
<clus scale="   59.382">  2  9  1 -1</clus>
<clus scale="   88.995">  5  6 -1 -1</clus>
<clus scale="   92.824">  7  8 -1 -1</clus>
<clus scale="  114.833">  1  5  2 -1</clus>
<clus scale="   59.382">  2  5  1 -1</clus>
</clustering>
</event>
<event>
 9    1  0.1671478E-005  0.1845300E+03  0.7546771E-02  0.1163573E+00
          2   -1    0    0  502    0 -0.00000000000E+00  0.00000000000E+00  0.41262716568E+03  0.41262716568E+03  0.00000000000E+00 0. -1.
         21   -1    0    0  501  502  0.00000000000E+00 -0.00000000000E+00 -0.41835633620E+03  0.41835633620E+03  0.00000000000E+00 0.  1.
         23    2    1    2    0    0 -0.15659535615E+03 -0.64528650650E+01  0.33171761821E+03  0.37826117761E+03  0.92093404893E+02 0.  0.
         23    2    1    2    0    0  0.18561987474E+03  0.40615600746E+02 -0.14689233028E+03  0.25696605534E+03  0.91377415032E+02 0.  0.
        -11    1    4    4    0    0  0.15557888147E+03  0.67148744848E+02 -0.10694225007E+03  0.20037561515E+03  0.00000000000E+00 0.  1.
         11    1    4    4    0    0  0.30040993272E+02 -0.26533144103E+02 -0.39950080205E+02  0.56590440192E+02  0.00000000000E+00 0. -1.
        -13    1    3    3    0    0 -0.69649597598E+02 -0.48828059132E+02  0.15511259286E+03  0.17690438736E+03  0.00000000000E+00 0. -1.
         13    1    3    3    0    0 -0.86945758551E+02  0.42375194067E+02  0.17660502535E+03  0.20135679025E+03  0.00000000000E+00 0.  1.
          2    1    1    2  501    0 -0.29024518596E+02 -0.34162735681E+02 -0.19055445845E+03  0.19575626893E+03  0.00000000000E+00 0. -1.
<scales pt_clust_5="13000.00000" pt_clust_6="13000.00000" pt_clust_7="13000.00000" pt_clust_8="13000.00000" pt_clust_9="44.82762"></scales>
<clustering>
<clus scale="   44.828">  2  9  1 -1</clus>
<clus scale="   91.377">  5  6 -1 -1</clus>
<clus scale="   92.093">  7  8 -1 -1</clus>
<clus scale="  184.174">  2  5  1 -1</clus>
<clus scale="   44.828">  2  5  1 -1</clus>
</clustering>
</event>
<event>
 9    1  0.1671478E-005  0.1679681E+03  0.7546771E-02  0.1180136E+00
          2   -1    0    0  502    0 -0.00000000000E+00  0.00000000000E+00  0.11585482726E+03  0.11585482726E+03  0.00000000000E+00 0. -1.
         21   -1    0    0  501  502  0.00000000000E+00 -0.00000000000E+00 -0.41673425208E+03  0.41673425208E+03  0.00000000000E+00 0. -1.
         23    2    1    2    0    0 -0.11863636105E+03  0.93034348107E+02 -0.29319391295E+02  0.17799064544E+03  0.89950358908E+02 0.  0.
         23    2    1    2    0    0  0.96075189198E+02 -0.83545769912E+02 -0.11024150706E+03  0.19143377298E+03  0.91012976589E+02 0.  0.
        -11    1    4    4    0    0  0.54957842143E+02 -0.96761425806E+02 -0.64933655328E+02  0.12883911491E+03  0.00000000000E+00 0.  1.
         11    1    4    4    0    0  0.41117347056E+02  0.13215655895E+02 -0.45307851733E+02  0.62594658065E+02  0.00000000000E+00 0. -1.
        -13    1    3    3    0    0 -0.98099912063E+02  0.71318156998E+02 -0.59865337968E+02  0.13525431954E+03  0.00000000000E+00 0. -1.
         13    1    3    3    0    0 -0.20536448985E+02  0.21716191110E+02  0.30545946673E+02  0.42736325900E+02  0.00000000000E+00 0.  1.
          2    1    1    2  501    0  0.22561171850E+02 -0.94885781960E+01 -0.16131852646E+03  0.16316466092E+03  0.00000000000E+00 0. -1.
<scales pt_clust_5="13000.00000" pt_clust_6="13000.00000" pt_clust_7="13000.00000" pt_clust_8="13000.00000" pt_clust_9="24.47529"></scales>
<clustering>
<clus scale="   24.475">  2  9  1 -1</clus>
<clus scale="   89.950">  7  8 -1 -1</clus>
<clus scale="   91.013">  5  6 -1 -1</clus>
<clus scale="  167.395">  1  7  2 -1</clus>
<clus scale="   24.475">  2  5  1 -1</clus>
</clustering>
</event>
<event>
 9    1  0.1671478E-005  0.1163767E+03  0.7546771E-02  0.1249438E+00
          1   -1    0    0  502    0 -0.00000000000E+00  0.00000000000E+00  0.60765426797E+03  0.60765426797E+03  0.00000000000E+00 0. -1.
         21   -1    0    0  501  502  0.00000000000E+00 -0.00000000000E+00 -0.66174156310E+02  0.66174156310E+02  0.00000000000E+00 0.  1.
         23    2    1    2    0    0  0.77262131836E+02 -0.37037551050E+02  0.46469334356E+03  0.48088877993E+03  0.89291085287E+02 0.  0.
         23    2    1    2    0    0 -0.30403578927E+02  0.33741795193E+02  0.98710618086E+02  0.14110103725E+03  0.90015722159E+02 0.  0.
        -11    1    4    4    0    0  0.19570659610E+02  0.73477337125E+01 -0.63125806651E+01  0.21836862937E+02  0.00000000000E+00 0.  1.
         11    1    4    4    0    0 -0.49974238537E+02  0.26394061480E+02  0.10502319875E+03  0.11926417431E+03  0.00000000000E+00 0. -1.
        -13    1    3    3    0    0  0.68752951563E+02  0.14778961524E+02  0.23664294706E+03  0.24687095910E+03  0.00000000000E+00 0.  1.
         13    1    3    3    0    0  0.85091802727E+01 -0.51816512574E+02  0.22805039650E+03  0.23401782084E+03  0.00000000000E+00 0. -1.
          1    1    1    2  501    0 -0.46858552909E+02  0.32957558574E+01 -0.21923849988E+02  0.51838607096E+02  0.00000000000E+00 0. -1.
<scales pt_clust_5="13000.00000" pt_clust_6="13000.00000" pt_clust_7="13000.00000" pt_clust_8="13000.00000" pt_clust_9="46.97431"></scales>
<clustering>
<clus scale="   46.974">  2  9  1 -1</clus>
<clus scale="   89.291">  7  8 -1 -1</clus>
<clus scale="   90.016">  5  6 -1 -1</clus>
<clus scale="  115.817">  1  7  2 -1</clus>
<clus scale="   46.974">  2  5  1 -1</clus>
</clustering>
</event>
<event>
 9    1  0.1671478E-005  0.1511689E+03  0.7546771E-02  0.1199173E+00
         21   -1    0    0  501  502  0.00000000000E+00  0.00000000000E+00  0.63614209463E+02  0.63614209463E+02  0.00000000000E+00 0.  1.
          2   -1    0    0  502    0 -0.00000000000E+00 -0.00000000000E+00 -0.62526859045E+03  0.62526859045E+03  0.00000000000E+00 0. -1.
         23    2    1    2    0    0  0.24604201679E+02 -0.12327096961E+03 -0.48660630002E+03  0.51063599535E+03  0.90345613279E+02 0.  0.
         23    2    1    2    0    0 -0.26402434932E+02  0.99577615450E+02 -0.68459816263E+02  0.15358886657E+03  0.91049455908E+02 0.  0.
        -11    1    4    4    0    0 -0.48211177395E+02  0.10263967949E+03 -0.66548195233E+02  0.13148339713E+03  0.00000000000E+00 0.  1.
         11    1    4    4    0    0  0.21808742463E+02 -0.30620640415E+01 -0.19116210292E+01  0.22105469436E+02  0.00000000000E+00 0. -1.
        -11    1    3    3    0    0 -0.27114908466E+02 -0.12155906152E+02 -0.63010688720E+02  0.69665853963E+02  0.00000000000E+00 0.  1.
         11    1    3    3    0    0  0.51719110145E+02 -0.11111506346E+03 -0.42359561130E+03  0.44097014139E+03  0.00000000000E+00 0. -1.
          2    1    1    2  501    0  0.17982332527E+01  0.23693354165E+02 -0.65882647039E+01  0.24657937996E+02  0.00000000000E+00 0. -1.
<scales pt_clust_5="13000.00000" pt_clust_6="13000.00000" pt_clust_7="13000.00000" pt_clust_8="13000.00000" pt_clust_9="23.76150"></scales>
<clustering>
<clus scale="   23.761">  1  9  2 -1</clus>
<clus scale="   90.346">  7  8 -1 -1</clus>
<clus scale="   91.049">  5  6 -1 -1</clus>
<clus scale="  150.746">  2  7  1 -1</clus>
<clus scale="   23.761">  1  5  2 -1</clus>
</clustering>
</event>
<event>
 9    1  0.1671478E-005  0.1030153E+03  0.7546771E-02  0.1274737E+00
         -1   -1    0    0    0  501 -0.00000000000E+00  0.00000000000E+00  0.24468278723E+03  0.24468278723E+03  0.00000000000E+00 0.  1.
         21   -1    0    0  501  502  0.00000000000E+00 -0.00000000000E+00 -0.25321656141E+03  0.25321656141E+03  0.00000000000E+00 0.  1.
         23    2    1    2    0    0  0.41398411606E+02 -0.26501848142E+02  0.20521657067E+03  0.22898209204E+03  0.88897588042E+02 0.  0.
         23    2    1    2    0    0 -0.19146496528E+02  0.67820613170E+02 -0.16809549110E+03  0.20344395106E+03  0.90372137262E+02 0.  0.
        -11    1    3    3    0    0  0.38777235838E+02  0.53666193697E+01  0.18922170355E+03  0.19322869279E+03  0.00000000000E+00 0.  1.
         11    1    3    3    0    0  0.26211757679E+01 -0.31868467512E+02  0.15994867121E+02  0.35753399253E+02  0.00000000000E+00 0. -1.
        -11    1    4    4    0    0 -0.52582603203E+02  0.36447016620E+02 -0.12546955909E+03  0.14084007043E+03  0.00000000000E+00 0.  1.
         11    1    4    4    0    0  0.33436106675E+02  0.31373596550E+02 -0.42625932015E+02  0.62603880632E+02  0.00000000000E+00 0. -1.
         -1    1    1    2    0  502 -0.22251915078E+02 -0.41318765028E+02 -0.45654853741E+02  0.65473305539E+02  0.00000000000E+00 0.  1.
<scales pt_clust_5="13000.00000" pt_clust_6="13000.00000" pt_clust_7="13000.00000" pt_clust_8="13000.00000" pt_clust_9="46.92961"></scales>
<clustering>
<clus scale="   46.930">  2  9  1 -1</clus>
<clus scale="   88.898">  5  6 -1 -1</clus>
<clus scale="   90.372">  7  8 -1 -1</clus>
<clus scale="  101.724">  1  5  2 -1</clus>
<clus scale="   46.930">  2  5  1 -1</clus>
</clustering>
</event>
<event>
 9    1  0.1671478E-005  0.1095217E+03  0.7546771E-02  0.1263564E+00
          1   -1    0    0  502    0 -0.00000000000E+00  0.00000000000E+00  0.95669301968E+03  0.95669301968E+03  0.00000000000E+00 0. -1.
         21   -1    0    0  501  502  0.00000000000E+00 -0.00000000000E+00 -0.38158203922E+02  0.38158203922E+02  0.00000000000E+00 0. -1.
         23    2    1    2    0    0  0.22413910762E+02  0.17720054737E+02  0.40398116563E+03  0.41595382228E+03  0.94870524135E+02 0.  0.
         23    2    1    2    0    0 -0.46113517627E+02 -0.81721766502E+02  0.48912973680E+03  0.50606701039E+03  0.89727453747E+02 0.  0.
        -13    1    3    3    0    0  0.20185846770E+01  0.55749389388E+02  0.21672118263E+03  0.22378592472E+03  0.00000000000E+00 0.  1.
         13    1    3    3    0    0  0.20395326085E+02 -0.38029334651E+02  0.18725998300E+03  0.19216789756E+03  0.00000000000E+00 0. -1.
        -13    1    4    4    0    0 -0.36661844162E+02  0.67298850912E+01  0.20420068941E+03  0.20757481477E+03  0.00000000000E+00 0.  1.
         13    1    4    4    0    0 -0.94516734648E+01 -0.88451651593E+02  0.28492904739E+03  0.29849219562E+03  0.00000000000E+00 0. -1.
          1    1    1    2  501    0  0.23699606865E+02  0.64001711765E+02  0.25423913330E+02  0.72830390932E+02  0.00000000000E+00 0. -1.
<scales pt_clust_5="13000.00000" pt_clust_6="13000.00000" pt_clust_7="13000.00000" pt_clust_8="13000.00000" pt_clust_9="68.24874"></scales>
<clustering>
<clus scale="   68.249">  2  9  1 -1</clus>
<clus scale="   89.727">  7  8 -1 -1</clus>
<clus scale="   94.871">  5  6 -1 -1</clus>
<clus scale="  105.098">  2  7  1 -1</clus>
<clus scale="   68.249">  2  5  1 -1</clus>
</clustering>
</event>
<event>
 9    1  0.1671478E-005  0.1007129E+03  0.7546771E-02  0.1279447E+00
          1   -1    0    0  502    0 -0.00000000000E+00  0.00000000000E+00  0.17361263777E+03  0.17361263777E+03  0.00000000000E+00 0. -1.
         21   -1    0    0  501  502  0.00000000000E+00 -0.00000000000E+00 -0.11547002347E+03  0.11547002347E+03  0.00000000000E+00 0. -1.
         23    2    1    2    0    0  0.55992258299E+02  0.50996346538E+01  0.68228812725E+02  0.12773101313E+03  0.92189487283E+02 0.  0.
         23    2    1    2    0    0 -0.24158761333E+02  0.65025128772E+01  0.38773085726E+02  0.10189400770E+03  0.90846619118E+02 0.  0.
        -11    1    3    3    0    0  0.37338510620E+02  0.44598033664E+02  0.59459143307E+02  0.83177753665E+02  0.00000000000E+00 0. -1.
         11    1    3    3    0    0  0.18653747679E+02 -0.39498399011E+02  0.87696694178E+01  0.44553259461E+02  0.00000000000E+00 0.  1.
        -13    1    4    4    0    0  0.32984796269E+02  0.37032651822E+01  0.28538043209E+02  0.43773632110E+02  0.00000000000E+00 0.  1.
         13    1    4    4    0    0 -0.57143557602E+02  0.27992476950E+01  0.10235042517E+02  0.58120375587E+02  0.00000000000E+00 0. -1.
          1    1    1    2  501    0 -0.31833496966E+02 -0.11602147531E+02 -0.48859284144E+02  0.59457640413E+02  0.00000000000E+00 0. -1.
<scales pt_clust_5="13000.00000" pt_clust_6="13000.00000" pt_clust_7="13000.00000" pt_clust_8="13000.00000" pt_clust_9="33.88187"></scales>
<clustering>
<clus scale="   33.882">  2  9  1 -1</clus>
<clus scale="   90.847">  7  8 -1 -1</clus>
<clus scale="   92.189">  5  6 -1 -1</clus>
<clus scale="   99.485">  2  7  1 -1</clus>
<clus scale="   33.882">  2  5  1 -1</clus>
</clustering>
</event>
<event>
 9    1  0.1671478E-005  0.9150499E+02  0.7546771E-02  0.1299597E+00
         -4   -1    0    0    0  501 -0.00000000000E+00  0.00000000000E+00  0.33087754009E+03  0.33087754009E+03  0.00000000000E+00 0.  1.
         21   -1    0    0  501  502  0.00000000000E+00 -0.00000000000E+00 -0.36036144804E+02  0.36036144804E+02  0.00000000000E+00 0. -1.
         23    2    1    2    0    0  0.18577851089E+02  0.53170838614E+01  0.17516918380E+03  0.19822909811E+03  0.90758605378E+02 0.  0.
         23    2    1    2    0    0  0.79736888017E+01 -0.11895917283E+02  0.87510155504E+02  0.12646299084E+03  0.90165227080E+02 0.  0.
        -13    1    4    4    0    0 -0.34923511467E+02 -0.26555233067E+02  0.56521112994E+02  0.71550459611E+02  0.00000000000E+00 0. -1.
         13    1    4    4    0    0  0.42897200269E+02  0.14659315783E+02  0.30989042510E+02  0.54912531228E+02  0.00000000000E+00 0.  1.
        -13    1    3    3    0    0 -0.11103530133E+02  0.43232147384E+02  0.83093471176E+02  0.94323018934E+02  0.00000000000E+00 0.  1.
         13    1    3    3    0    0  0.29681381222E+02 -0.37915063523E+02  0.92075712626E+02  0.10390607917E+03  0.00000000000E+00 0. -1.
         -4    1    1    2    0  502 -0.26551539890E+02  0.65788334218E+01  0.32162055984E+02  0.42221595954E+02  0.00000000000E+00 0.  1.
<scales pt_clust_5="13000.00000" pt_clust_6="13000.00000" pt_clust_7="13000.00000" pt_clust_8="13000.00000" pt_clust_9="27.35444"></scales>
<clustering>
<clus scale="   27.354">  2  9  1 -1</clus>
<clus scale="   90.165">  5  6 -1 -1</clus>
<clus scale="   90.759">  7  8 -1 -1</clus>
<clus scale="   90.916">  2  5  1 -1</clus>
<clus scale="   27.354">  2  5  1 -1</clus>
</clustering>
</event>
<event>
 9    1  0.1671478E-005  0.2082342E+03  0.7546771E-02  0.1160144E+00
         21   -1    0    0  501  502  0.00000000000E+00  0.00000000000E+00  0.29143033315E+03  0.29143033315E+03  0.00000000000E+00 0.  1.
         -1   -1    0    0    0  501 -0.00000000000E+00 -0.00000000000E+00 -0.93767462963E+03  0.93767462963E+03  0.00000000000E+00 0.  1.
         23    2    1    2    0    0  0.97465925860E+02  0.41134495990E+02 -0.63455747130E+03  0.64955577944E+03  0.89821337976E+02 0.  0.
         23    2    1    2    0    0 -0.20363461163E+02  0.14068082534E+03 -0.23020677985E+03  0.28501128811E+03  0.89613099994E+02 0.  0.
        -13    1    3    3    0    0  0.11285037587E+03  0.24878306944E+02 -0.55541157354E+03  0.56730604925E+03  0.00000000000E+00 0.  1.
         13    1    3    3    0    0 -0.15384450009E+02  0.16256189046E+02 -0.79145897763E+02  0.82249730194E+02  0.00000000000E+00 0. -1.
        -13    1    4    4    0    0  0.21491817544E+02  0.86248793161E+02 -0.78897235164E+02  0.11885085721E+03  0.00000000000E+00 0.  1.
         13    1    4    4    0    0 -0.41855278707E+02  0.54432032180E+02 -0.15130954469E+03  0.16616043090E+03  0.00000000000E+00 0. -1.
         -1    1    1    2    0  502 -0.77102464697E+02 -0.18181532133E+03  0.21851995468E+03  0.29453789523E+03  0.00000000000E+00 0.  1.
<scales pt_clust_5="13000.00000" pt_clust_6="13000.00000" pt_clust_7="13000.00000" pt_clust_8="13000.00000" pt_clust_9="187.96538"></scales>
<clustering>
<clus scale="   89.613">  7  8 -1 -1</clus>
<clus scale="   89.821">  5  6 -1 -1</clus>
<clus scale="  138.779">  2  5  1 -1</clus>
<clus scale="  187.965">  1  9  2 -1</clus>
<clus scale="  187.965">  1  5  2 -1</clus>
</clustering>
</event>
<event>
 9    1  0.1671478E-005  0.1946758E+03  0.7546771E-02  0.1154497E+00
         21   -1    0    0  501  502  0.00000000000E+00  0.00000000000E+00  0.95032613995E+02  0.95032613995E+02  0.00000000000E+00 0. -1.
          1   -1    0    0  502    0 -0.00000000000E+00 -0.00000000000E+00 -0.16729858881E+04  0.16729858881E+04  0.00000000000E+00 0. -1.
         23    2    1    2    0    0 -0.11637544411E+03 -0.38592400311E+02 -0.57919563344E+03  0.59908482885E+03  0.91664786034E+02 0.  0.
         23    2    1    2    0    0  0.25701441140E+03  0.78072701505E+02 -0.98146214337E+03  0.10218379646E+04  0.93451230903E+02 0.  0.
        -11    1    3    3    0    0 -0.83656260721E+02 -0.68232092024E+02 -0.44033861508E+03  0.45337852206E+03  0.00000000000E+00 0.  1.
         11    1    3    3    0    0 -0.32719183389E+02  0.29639691713E+02 -0.13885701836E+03  0.14570630678E+03  0.00000000000E+00 0. -1.
        -13    1    4    4    0    0  0.18306861990E+03  0.14782576952E+02 -0.56279993772E+03  0.59201048476E+03  0.00000000000E+00 0.  1.
         13    1    4    4    0    0  0.73945791499E+02  0.63290124552E+02 -0.41866220565E+03  0.42982747979E+03  0.00000000000E+00 0. -1.
          1    1    1    2  501    0 -0.14063896729E+03 -0.39480301194E+02 -0.17295497342E+02  0.14709570874E+03  0.00000000000E+00 0. -1.
<scales pt_clust_5="13000.00000" pt_clust_6="13000.00000" pt_clust_7="13000.00000" pt_clust_8="13000.00000" pt_clust_9="146.07537"></scales>
<clustering>
<clus scale="   91.665">  5  6 -1 -1</clus>
<clus scale="   93.451">  7  8 -1 -1</clus>
<clus scale="  146.075">  1  9  2 -1</clus>
<clus scale="  193.825">  2  5  1 -1</clus>
<clus scale="  146.075">  1  5  2 -1</clus>
</clustering>
</event>
<event>
 9    1  0.1801887E-005  0.1888759E+03  0.7546771E-02  0.1183269E+00
         21   -1    0    0  501  502  0.00000000000E+00  0.00000000000E+00  0.90796861790E+03  0.90796861790E+03  0.00000000000E+00 0.  1.
         -4   -1    0    0    0  501 -0.00000000000E+00 -0.00000000000E+00 -0.41616894886E+03  0.41616894886E+03  0.00000000000E+00 0.  1.
         23    2    1    2    0    0 -0.55604531800E+02 -0.28251375039E+02 -0.88064355741E+02  0.14071250961E+03  0.90303241696E+02 0.  0.
         23    2    1    2    0    0  0.99403406876E+02  0.18564222758E+03 -0.24873928302E+03  0.33886975189E+03  0.92829972874E+02 0.  0.
        -11    1    4    4    0    0  0.32511133054E+02  0.15818486710E+02 -0.84687933091E+01  0.37133795314E+02  0.00000000000E+00 0. -1.
         11    1    4    4    0    0  0.66892273821E+02  0.16982374087E+03 -0.24027048972E+03  0.30173595657E+03  0.00000000000E+00 0.  1.
        -11    1    3    3    0    0 -0.37879865608E+02  0.30007580483E+02 -0.32169631146E+02  0.58053632728E+02  0.00000000000E+00 0.  1.
         11    1    3    3    0    0 -0.17724666193E+02 -0.58258955522E+02 -0.55894724595E+02  0.82658876883E+02  0.00000000000E+00 0. -1.
         -4    1    1    2    0  502 -0.43798875075E+02 -0.15739085254E+03  0.82860330781E+03  0.84455530525E+03  0.00000000000E+00 0.  1.
<scales pt_clust_5="13000.00000" pt_clust_6="13000.00000" pt_clust_7="13000.00000" pt_clust_8="13000.00000" pt_clust_9="164.48925"></scales>
<clustering>
<clus scale="   90.303">  7  8 -1 -1</clus>
<clus scale="   92.830">  5  6 -1 -1</clus>
<clus scale="  109.748">  2  7  1 -1</clus>
<clus scale="  164.489">  1  9  2 -1</clus>
<clus scale="  164.489">  1  5  2 -1</clus>
</clustering>
</event>
<event>
 9    1  0.1671478E-005  0.9623980E+02  0.7546771E-02  0.1288561E+00
         -4   -1    0    0    0  501 -0.00000000000E+00  0.00000000000E+00  0.50282612136E+02  0.50282612136E+02  0.00000000000E+00 0.  1.
         21   -1    0    0  501  502  0.00000000000E+00 -0.00000000000E+00 -0.37235382278E+03  0.37235382278E+03  0.00000000000E+00 0. -1.
         23    2    1    2    0    0  0.20825607221E+02  0.23119054118E+02 -0.20407578412E+02  0.98972078259E+02  0.91710448907E+02 0.  0.
         23    2    1    2    0    0 -0.19800406892E+02 -0.17662156807E+01 -0.26505945142E+03  0.28127496178E+03  0.91999541886E+02 0.  0.
        -13    1    3    3    0    0 -0.13445427917E+01 -0.31074604306E+02  0.10415975163E+02  0.32801392755E+02  0.00000000000E+00 0. -1.
         13    1    3    3    0    0  0.22170150013E+02  0.54193658424E+02 -0.30823553575E+02  0.66170685503E+02  0.00000000000E+00 0.  1.
        -13    1    4    4    0    0 -0.43893124067E+02 -0.32332379590E+02 -0.13760291226E+03  0.14800861655E+03  0.00000000000E+00 0. -1.
         13    1    4    4    0    0  0.24092717175E+02  0.30566163909E+02 -0.12745653916E+03  0.13326634524E+03  0.00000000000E+00 0.  1.
         -4    1    1    2    0  502 -0.10252003288E+01 -0.21352838437E+02 -0.36604180813E+02  0.42389394877E+02  0.00000000000E+00 0.  1.
<scales pt_clust_5="13000.00000" pt_clust_6="13000.00000" pt_clust_7="13000.00000" pt_clust_8="13000.00000" pt_clust_9="21.37744"></scales>
<clustering>
<clus scale="   21.377">  2  9  1 -1</clus>
<clus scale="   91.710">  5  6 -1 -1</clus>
<clus scale="   92.000">  7  8 -1 -1</clus>
<clus scale="   95.963">  1  5  2 -1</clus>
<clus scale="   21.377">  2  5  1 -1</clus>
</clustering>
</event>
<event>
 9    1  0.1671478E-005  0.1021769E+03  0.7546771E-02  0.1276503E+00
          1   -1    0    0  502    0 -0.00000000000E+00  0.00000000000E+00  0.20182973072E+03  0.20182973072E+03  0.00000000000E+00 0. -1.
         21   -1    0    0  501  502  0.00000000000E+00 -0.00000000000E+00 -0.71940565173E+02  0.71940565173E+02  0.00000000000E+00 0. -1.
         23    2    1    2    0    0  0.39901354204E+02  0.16218822908E+02  0.78015625169E+02  0.12696849942E+03  0.90440001049E+02 0.  0.
         23    2    1    2    0    0 -0.27026970997E+02 -0.44829997609E+02  0.42484423515E+02  0.11405268082E+03  0.91994031947E+02 0.  0.
        -13    1    3    3    0    0 -0.41734450327E+01  0.41442683708E+02  0.11362523885E+02  0.43174305153E+02  0.00000000000E+00 0.  1.
         13    1    3    3    0    0  0.44074799237E+02 -0.25223860801E+02  0.66653101285E+02  0.83794194264E+02  0.00000000000E+00 0. -1.
        -13    1    4    4    0    0 -0.41447267698E+02  0.14462521345E+02  0.10409441439E+02  0.45115374257E+02  0.00000000000E+00 0.  1.
         13    1    4    4    0    0  0.14420296701E+02 -0.59292518954E+02  0.32074982076E+02  0.68937306562E+02  0.00000000000E+00 0. -1.
          1    1    1    2  501    0 -0.12874383207E+02  0.28611174701E+02  0.93891168601E+01  0.32749115655E+02  0.00000000000E+00 0. -1.
<scales pt_clust_5="13000.00000" pt_clust_6="13000.00000" pt_clust_7="13000.00000" pt_clust_8="13000.00000" pt_clust_9="31.37434"></scales>
<clustering>
<clus scale="   31.374">  2  9  1 -1</clus>
<clus scale="   90.440">  5  6 -1 -1</clus>
<clus scale="   91.994">  7  8 -1 -1</clus>
<clus scale="  100.780">  1  5  2 -1</clus>
<clus scale="   31.374">  2  5  1 -1</clus>
</clustering>
</event>
<event>
 9    1  0.1671478E-005  0.9956709E+02  0.7546771E-02  0.1284869E+00
         21   -1    0    0  501  502  0.00000000000E+00  0.00000000000E+00  0.24345515455E+03  0.24345515455E+03  0.00000000000E+00 0. -1.
         -3   -1    0    0    0  501 -0.00000000000E+00 -0.00000000000E+00 -0.93655559204E+02  0.93655559204E+02  0.00000000000E+00 0.  1.
         23    2    1    2    0    0  0.29447216884E+02  0.11628389052E+02 -0.15948013373E+02  0.10010828163E+03  0.93621423329E+02 0.  0.
         23    2    1    2    0    0 -0.10698915777E+02 -0.62649683236E+02  0.14118531690E+03  0.17735364811E+03  0.86496087677E+02 0.  0.
        -11    1    3    3    0    0 -0.34026893698E+02  0.78304309607E+01 -0.17813735657E+01  0.34961670949E+02  0.00000000000E+00 0.  1.
         11    1    3    3    0    0  0.63474110581E+02  0.37979580916E+01 -0.14166639807E+02  0.65146610681E+02  0.00000000000E+00 0. -1.
        -13    1    4    4    0    0  0.19961450311E+02 -0.44684099599E+02  0.13180891153E+03  0.14060127102E+03  0.00000000000E+00 0. -1.
         13    1    4    4    0    0 -0.30660366088E+02 -0.17965583637E+02  0.93764053700E+01  0.36752377090E+02  0.00000000000E+00 0.  1.
         -3    1    1    2    0  502 -0.18748301106E+02  0.51021294184E+02  0.24562291825E+02  0.59648784013E+02  0.00000000000E+00 0.  1.
<scales pt_clust_5="13000.00000" pt_clust_6="13000.00000" pt_clust_7="13000.00000" pt_clust_8="13000.00000" pt_clust_9="54.35692"></scales>
<clustering>
<clus scale="   54.357">  1  9  2 -1</clus>
<clus scale="   86.496">  7  8 -1 -1</clus>
<clus scale="   92.899">  1  7  2 -1</clus>
<clus scale="   93.621">  5  6 -1 -1</clus>
<clus scale="   54.357">  1  5  2 -1</clus>
</clustering>
</event>
<event>
 9    1  0.1671478E-005  0.9784408E+02  0.7546771E-02  0.1294692E+00
          3   -1    0    0  502    0 -0.00000000000E+00  0.00000000000E+00  0.39380655396E+03  0.39380655396E+03  0.00000000000E+00 0. -1.
         21   -1    0    0  501  502  0.00000000000E+00 -0.00000000000E+00 -0.60239684179E+02  0.60239684179E+02  0.00000000000E+00 0. -1.
         23    2    1    2    0    0 -0.79864073230E+01 -0.38348615052E+02  0.21024976301E+03  0.22682244252E+03  0.75558312618E+02 0.  0.
         23    2    1    2    0    0  0.14637402974E+01  0.16641928723E+02  0.15899430181E+03  0.18495575021E+03  0.93007231982E+02 0.  0.
        -13    1    4    4    0    0 -0.33333770190E+02 -0.22674006718E+02  0.86629681437E+02  0.95550785039E+02  0.00000000000E+00 0. -1.
         13    1    4    4    0    0  0.34797510488E+02  0.39315935441E+02  0.72364620373E+02  0.89404965172E+02  0.00000000000E+00 0.  1.
        -13    1    3    3    0    0 -0.11567889633E+02  0.21057039130E+02  0.42392517857E+02  0.48727205314E+02  0.00000000000E+00 0.  1.
         13    1    3    3    0    0  0.35814823101E+01 -0.59405654181E+02  0.16785724516E+03  0.17809523721E+03  0.00000000000E+00 0. -1.
          3    1    1    2  501    0  0.65226670256E+01  0.21706686329E+02 -0.35677195041E+02  0.42268045407E+02  0.00000000000E+00 0. -1.
<scales pt_clust_5="13000.00000" pt_clust_6="13000.00000" pt_clust_7="13000.00000" pt_clust_8="13000.00000" pt_clust_9="22.66551"></scales>
<clustering>
<clus scale="   22.666">  2  9  1 -1</clus>
<clus scale="   75.558">  7  8 -1 -1</clus>
<clus scale="   81.438">  1  7  2 -1</clus>
<clus scale="   93.007">  5  6 -1 -1</clus>
<clus scale="   22.666">  2  5  1 -1</clus>
</clustering>
</event>
<event>
 9    1  0.1671478E-005  0.1091555E+03  0.7546771E-02  0.1274299E+00
          2   -1    0    0  502    0 -0.00000000000E+00  0.00000000000E+00  0.14854433453E+03  0.14854433453E+03  0.00000000000E+00 0. -1.
         21   -1    0    0  501  502  0.00000000000E+00 -0.00000000000E+00 -0.88590471235E+02  0.88590471235E+02  0.00000000000E+00 0.  1.
         23    2    1    2    0    0  0.56300133350E+01  0.72699996263E+01  0.48093112569E+02  0.11911827842E+03  0.10858944163E+03 0.  0.
         23    2    1    2    0    0  0.22659163846E+02 -0.83634668025E+01  0.12300965262E+02  0.89702802667E+02  0.85509612190E+02 0.  0.
        -13    1    3    3    0    0 -0.43201918566E+02  0.32071362548E+02  0.28957159394E+02  0.61102333373E+02  0.00000000000E+00 0.  1.
         13    1    3    3    0    0  0.48831931901E+02 -0.24801362922E+02  0.19135953175E+02  0.58015945049E+02  0.00000000000E+00 0. -1.
        -13    1    4    4    0    0  0.44677994535E+02  0.10501767639E+02  0.30833217298E+02  0.55291026471E+02  0.00000000000E+00 0.  1.
         13    1    4    4    0    0 -0.22018830690E+02 -0.18865234442E+02 -0.18532252036E+02  0.34411776197E+02  0.00000000000E+00 0. -1.
          2    1    1    2  501    0 -0.28289177181E+02  0.10934671762E+01 -0.44021453813E+00  0.28313724673E+02  0.00000000000E+00 0. -1.
<scales pt_clust_5="13000.00000" pt_clust_6="13000.00000" pt_clust_7="13000.00000" pt_clust_8="13000.00000" pt_clust_9="28.31030"></scales>
<clustering>
<clus scale="   28.310">  2  9  1 -1</clus>
<clus scale="   85.510">  7  8 -1 -1</clus>
<clus scale="   86.227">  2  7  1 -1</clus>
<clus scale="  108.589">  5  6 -1 -1</clus>
<clus scale="   28.310">  2  5  1 -1</clus>
</clustering>
</event>
<event>
 9    1  0.1671478E-005  0.1564643E+03  0.7546771E-02  0.1193007E+00
         -1   -1    0    0    0  501 -0.00000000000E+00  0.00000000000E+00  0.38132784296E+03  0.38132784296E+03  0.00000000000E+00 0.  1.
         21   -1    0    0  501  502  0.00000000000E+00 -0.00000000000E+00 -0.26865780552E+03  0.26865780552E+03  0.00000000000E+00 0.  1.
         23    2    1    2    0    0  0.52892908349E+02  0.11460967284E+03  0.26303655210E+03  0.30607806248E+03  0.92533862611E+02 0.  0.
         23    2    1    2    0    0 -0.10045681207E+03 -0.89453953917E+02  0.21487034542E+02  0.16382766622E+03  0.91017748829E+02 0.  0.
        -11    1    3    3    0    0 -0.13305066951E+02  0.28067454086E+02  0.13226697596E+03  0.13586522629E+03  0.00000000000E+00 0. -1.
         11    1    3    3    0    0  0.66197975300E+02  0.86542218749E+02  0.13076957614E+03  0.17021283619E+03  0.00000000000E+00 0.  1.
        -13    1    4    4    0    0 -0.18803670341E+02 -0.77463242205E+02  0.68022339476E+01  0.80002514323E+02  0.00000000000E+00 0. -1.
         13    1    4    4    0    0 -0.81653141730E+02 -0.11990711712E+02  0.14684800595E+02  0.83825151895E+02  0.00000000000E+00 0.  1.
         -1    1    1    2    0  502  0.47563903722E+02 -0.25155718918E+02 -0.17185354921E+03  0.18007991978E+03  0.00000000000E+00 0.  1.
<scales pt_clust_5="13000.00000" pt_clust_6="13000.00000" pt_clust_7="13000.00000" pt_clust_8="13000.00000" pt_clust_9="53.80646"></scales>
<clustering>
<clus scale="   53.806">  2  9  1 -1</clus>
<clus scale="   91.018">  7  8 -1 -1</clus>
<clus scale="   92.534">  5  6 -1 -1</clus>
<clus scale="  155.572">  2  7  1 -1</clus>
<clus scale="   53.806">  2  5  1 -1</clus>
</clustering>
</event>
<event>
 9    1  0.1671478E-005  0.1803005E+03  0.7546771E-02  0.1167829E+00
         21   -1    0    0  501  502  0.00000000000E+00  0.00000000000E+00  0.58085692373E+02  0.58085692373E+02  0.00000000000E+00 0. -1.
          4   -1    0    0  502    0 -0.00000000000E+00 -0.00000000000E+00 -0.78915983405E+03  0.78915983405E+03  0.00000000000E+00 0. -1.
         23    2    1    2    0    0 -0.14985717579E+03  0.45460716099E+02 -0.41806959572E+03  0.45896803238E+03  0.10651581122E+03 0.  0.
         23    2    1    2    0    0  0.10626569775E+03 -0.83581767791E+02 -0.21648691293E+03  0.27572046394E+03  0.10429228323E+03 0.  0.
        -11    1    4    4    0    0  0.28404838670E+02  0.30236884016E+01  0.14677184873E+01  0.28603002447E+02  0.00000000000E+00 0.  1.
         11    1    4    4    0    0  0.77860859083E+02 -0.86605456192E+02 -0.21795463142E+03  0.24711746149E+03  0.00000000000E+00 0. -1.
        -13    1    3    3    0    0 -0.98387742467E+02 -0.87935756860E+01 -0.14220501372E+03  0.17314658752E+03  0.00000000000E+00 0. -1.
         13    1    3    3    0    0 -0.51469433323E+02  0.54254291785E+02 -0.27586458200E+03  0.28582144486E+03  0.00000000000E+00 0.  1.
          4    1    1    2  501    0  0.43591478037E+02  0.38121051692E+02 -0.96517633032E+02  0.11255703010E+03  0.00000000000E+00 0. -1.
<scales pt_clust_5="13000.00000" pt_clust_6="13000.00000" pt_clust_7="13000.00000" pt_clust_8="13000.00000" pt_clust_9="57.90882"></scales>
<clustering>
<clus scale="   57.909">  1  9  2 -1</clus>
<clus scale="  104.292">  5  6 -1 -1</clus>
<clus scale="  106.516">  7  8 -1 -1</clus>
<clus scale="  178.996">  1  5  2 -1</clus>
<clus scale="   57.909">  1  5  2 -1</clus>
</clustering>
</event>
<event>
 9    1  0.1671478E-005  0.1677852E+03  0.7546771E-02  0.1180679E+00
         21   -1    0    0  501  502  0.00000000000E+00  0.00000000000E+00  0.10419939438E+03  0.10419939438E+03  0.00000000000E+00 0. -1.
          1   -1    0    0  502    0 -0.00000000000E+00 -0.00000000000E+00 -0.83464991093E+03  0.83464991093E+03  0.00000000000E+00 0. -1.
         23    2    1    2    0    0 -0.12636283394E+03  0.14265350079E+02 -0.49394893745E+03  0.51742079559E+03  0.86992303611E+02 0.  0.
         23    2    1    2    0    0  0.17959222246E+03 -0.90053739813E+02 -0.24367781271E+03  0.32853746520E+03  0.90525947715E+02 0.  0.
        -11    1    3    3    0    0 -0.17544776768E+02 -0.27437106532E+02 -0.62062299762E+02  0.70088109251E+02  0.00000000000E+00 0.  1.
         11    1    3    3    0    0 -0.10881805717E+03  0.41702456611E+02 -0.43188663769E+03  0.44733268634E+03  0.00000000000E+00 0. -1.
        -11    1    4    4    0    0  0.13502756441E+03 -0.20025419244E+02 -0.13733445242E+03  0.19363422318E+03  0.00000000000E+00 0. -1.
         11    1    4    4    0    0  0.44564658056E+02 -0.70028320569E+02 -0.10634336029E+03  0.13490324202E+03  0.00000000000E+00 0.  1.
          1    1    1    2  501    0 -0.53229388530E+02  0.75788389735E+02  0.71762336135E+01  0.92891044513E+02  0.00000000000E+00 0. -1.
<scales pt_clust_5="13000.00000" pt_clust_6="13000.00000" pt_clust_7="13000.00000" pt_clust_8="13000.00000" pt_clust_9="92.61343"></scales>
<clustering>
<clus scale="   86.992">  5  6 -1 -1</clus>
<clus scale="   90.526">  7  8 -1 -1</clus>
<clus scale="   92.613">  1  9  2 -1</clus>
<clus scale="  165.905">  2  5  1 -1</clus>
<clus scale="   92.613">  1  5  2 -1</clus>
</clustering>
</event>
<event>
 9    1  0.1671478E-005  0.1002184E+03  0.7546771E-02  0.1280808E+00
          2   -1    0    0  502    0 -0.00000000000E+00  0.00000000000E+00  0.35598530494E+03  0.35598530494E+03  0.00000000000E+00 0. -1.
         21   -1    0    0  501  502  0.00000000000E+00 -0.00000000000E+00 -0.54654152650E+02  0.54654152650E+02  0.00000000000E+00 0.  1.
         23    2    1    2    0    0 -0.39147912463E+02  0.25895406695E+02  0.24225868571E+03  0.26363441900E+03  0.92793884190E+02 0.  0.
         23    2    1    2    0    0  0.14478712749E+02  0.62317571442E+01  0.29229036097E+02  0.96692471431E+02  0.90810955067E+02 0.  0.
        -11    1    3    3    0    0 -0.52824693764E+02  0.50661543754E+02  0.14622408604E+03  0.16351918428E+03  0.00000000000E+00 0.  1.
         11    1    3    3    0    0  0.13676781301E+02 -0.24766137058E+02  0.96034599663E+02  0.10011523473E+03  0.00000000000E+00 0. -1.
        -13    1    4    4    0    0  0.32138288617E+02  0.19981946158E+02  0.52295669543E+02  0.64552186798E+02  0.00000000000E+00 0. -1.
         13    1    4    4    0    0 -0.17659575868E+02 -0.13750189013E+02 -0.23066633445E+02  0.32140284632E+02  0.00000000000E+00 0.  1.
          2    1    1    2  501    0  0.24669199713E+02 -0.32127163840E+02  0.29843430481E+02  0.50312567155E+02  0.00000000000E+00 0. -1.
<scales pt_clust_5="13000.00000" pt_clust_6="13000.00000" pt_clust_7="13000.00000" pt_clust_8="13000.00000" pt_clust_9="40.50585"></scales>
<clustering>
<clus scale="   40.506">  2  9  1 -1</clus>
<clus scale="   90.811">  7  8 -1 -1</clus>
<clus scale="   92.794">  5  6 -1 -1</clus>
<clus scale="   98.385">  2  7  1 -1</clus>
<clus scale="   40.506">  2  5  1 -1</clus>
</clustering>
</event>
<event>
 9    1  0.1671478E-005  0.1342621E+03  0.7546771E-02  0.1222042E+00
          2   -1    0    0  502    0 -0.00000000000E+00  0.00000000000E+00  0.22457176631E+03  0.22457176631E+03  0.00000000000E+00 0. -1.
         21   -1    0    0  501  502  0.00000000000E+00 -0.00000000000E+00 -0.12438902924E+03  0.12438902924E+03  0.00000000000E+00 0. -1.
         23    2    1    2    0    0 -0.92560014598E+02  0.41838787005E+02  0.12045286091E+03  0.18201439667E+03  0.91118101895E+02 0.  0.
         23    2    1    2    0    0  0.67945376529E+02 -0.67579640374E+02 -0.17761975267E+02  0.13124257907E+03  0.87895078427E+02 0.  0.
        -11    1    4    4    0    0 -0.16563110466E+02 -0.33223937449E+02  0.43452416662E+01  0.37377102256E+02  0.00000000000E+00 0.  1.
         11    1    4    4    0    0  0.84508486995E+02 -0.34355702925E+02 -0.22107216933E+02  0.93865476817E+02  0.00000000000E+00 0. -1.
        -11    1    3    3    0    0 -0.46989929965E+02  0.27562540731E+02  0.22430318314E+01  0.54523191043E+02  0.00000000000E+00 0.  1.
         11    1    3    3    0    0 -0.45570084633E+02  0.14276246274E+02  0.11820982908E+03  0.12749120563E+03  0.00000000000E+00 0. -1.
          2    1    1    2  501    0  0.24614638069E+02  0.25740853368E+02 -0.25081485834E+01  0.35703819805E+02  0.00000000000E+00 0. -1.
<scales pt_clust_5="13000.00000" pt_clust_6="13000.00000" pt_clust_7="13000.00000" pt_clust_8="13000.00000" pt_clust_9="35.61561"></scales>
<clustering>
<clus scale="   35.616">  2  9  1 -1</clus>
<clus scale="   87.895">  5  6 -1 -1</clus>
<clus scale="   91.118">  7  8 -1 -1</clus>
<clus scale="  132.096">  2  5  1 -1</clus>
<clus scale="   35.616">  2  5  1 -1</clus>
</clustering>
</event>
<event>
 9    1  0.1671478E-005  0.1394437E+03  0.7546771E-02  0.1217319E+00
         21   -1    0    0  501  502  0.00000000000E+00  0.00000000000E+00  0.12773269397E+03  0.12773269397E+03  0.00000000000E+00 0.  1.
         -3   -1    0    0    0  501 -0.00000000000E+00 -0.00000000000E+00 -0.27486930266E+03  0.27486930266E+03  0.00000000000E+00 0.  1.
         23    2    1    2    0    0  0.14388602324E+02  0.10571657506E+03 -0.11952487133E+03  0.17790488369E+03  0.77336451010E+02 0.  0.
         23    2    1    2    0    0  0.27210364538E+02 -0.10328910611E+03 -0.76537963372E+02  0.16043093023E+03  0.92037927815E+02 0.  0.
        -11    1    3    3    0    0 -0.13514370777E+02  0.95995662316E+02 -0.67677136230E+02  0.11822859286E+03  0.00000000000E+00 0.  1.
         11    1    3    3    0    0  0.27902973100E+02  0.97209127450E+01 -0.51847735099E+02  0.59676290831E+02  0.00000000000E+00 0. -1.
        -13    1    4    4    0    0  0.54262602673E+02 -0.99139623704E+02 -0.67334980312E+02  0.13155643128E+03  0.00000000000E+00 0.  1.
         13    1    4    4    0    0 -0.27052238136E+02 -0.41494824109E+01 -0.92029830607E+01  0.28874498951E+02  0.00000000000E+00 0. -1.
         -3    1    1    2    0  502 -0.41598966861E+02 -0.24274689461E+01  0.48926226004E+02  0.64266182712E+02  0.00000000000E+00 0.  1.
<scales pt_clust_5="13000.00000" pt_clust_6="13000.00000" pt_clust_7="13000.00000" pt_clust_8="13000.00000" pt_clust_9="41.66973"></scales>
<clustering>
<clus scale="   41.670">  1  9  2 -1</clus>
<clus scale="   77.336">  5  6 -1 -1</clus>
<clus scale="   92.038">  7  8 -1 -1</clus>
<clus scale="  130.209">  2  5  1 -1</clus>
<clus scale="   41.670">  1  5  2 -1</clus>
</clustering>
</event>
<event>
 9    1  0.1671478E-005  0.1104516E+03  0.7546771E-02  0.1260958E+00
         21   -1    0    0  501  502  0.00000000000E+00  0.00000000000E+00  0.14179195891E+03  0.14179195891E+03  0.00000000000E+00 0. -1.
          3   -1    0    0  502    0 -0.00000000000E+00 -0.00000000000E+00 -0.52169653519E+03  0.52169653519E+03  0.00000000000E+00 0. -1.
         23    2    1    2    0    0 -0.22214236968E+02  0.56655491008E+02 -0.46666556819E+03  0.47986143167E+03  0.93738594412E+02 0.  0.
         23    2    1    2    0    0 -0.25029612523E+02 -0.44201226335E+02  0.28794618813E+02  0.10781683598E+03  0.90637244748E+02 0.  0.
        -11    1    3    3    0    0  0.34448991942E+02  0.35013208478E+02 -0.16489188272E+03  0.17205229089E+03  0.00000000000E+00 0.  1.
         11    1    3    3    0    0 -0.56663228910E+02  0.21642282530E+02 -0.30177368548E+03  0.30780914078E+03  0.00000000000E+00 0. -1.
        -13    1    4    4    0    0 -0.58052569824E+02 -0.29423427206E+02  0.29896159343E+02  0.71621360468E+02  0.00000000000E+00 0. -1.
         13    1    4    4    0    0  0.33022957301E+02 -0.14777799129E+02 -0.11015405300E+01  0.36195475512E+02  0.00000000000E+00 0.  1.
          3    1    1    2  501    0  0.47243849491E+02 -0.12454264673E+02  0.57966373107E+02  0.75810226451E+02  0.00000000000E+00 0. -1.
<scales pt_clust_5="13000.00000" pt_clust_6="13000.00000" pt_clust_7="13000.00000" pt_clust_8="13000.00000" pt_clust_9="48.85786"></scales>
<clustering>
<clus scale="   48.858">  1  9  2 -1</clus>
<clus scale="   90.637">  7  8 -1 -1</clus>
<clus scale="   93.739">  5  6 -1 -1</clus>
<clus scale="  107.832">  1  7  2 -1</clus>
<clus scale="   48.858">  1  5  2 -1</clus>
</clustering>
</event>
<event>
 9    1  0.1671478E-005  0.9633232E+02  0.7546771E-02  0.1289703E+00
         21   -1    0    0  501  502  0.00000000000E+00  0.00000000000E+00  0.81157503683E+02  0.81157503683E+02  0.00000000000E+00 0. -1.
          1   -1    0    0  502    0 -0.00000000000E+00 -0.00000000000E+00 -0.48072032903E+03  0.48072032903E+03  0.00000000000E+00 0. -1.
         23    2    1    2    0    0 -0.31043087260E+02  0.39215275373E+00 -0.38364306045E+03  0.39564900895E+03  0.91609570457E+02 0.  0.
         23    2    1    2    0    0  0.19282193267E+02  0.40545269259E+02 -0.50299426310E+02  0.11149170412E+03  0.88795528969E+02 0.  0.
        -11    1    3    3    0    0  0.11721312861E+02 -0.32302639279E+02 -0.77042803034E+02  0.84359013620E+02  0.00000000000E+00 0.  1.
         11    1    3    3    0    0 -0.42764400121E+02  0.32694792032E+02 -0.30660025741E+03  0.31128999533E+03  0.00000000000E+00 0. -1.
        -13    1    4    4    0    0  0.35025205982E+02  0.20284956435E+02  0.13547386270E+02  0.42682270165E+02  0.00000000000E+00 0.  1.
         13    1    4    4    0    0 -0.15743012715E+02  0.20260312824E+02 -0.63846812580E+02  0.68809433959E+02  0.00000000000E+00 0. -1.
          1    1    1    2  501    0  0.11760893993E+02 -0.40937422013E+02  0.34379661408E+02  0.54737119646E+02  0.00000000000E+00 0. -1.
<scales pt_clust_5="13000.00000" pt_clust_6="13000.00000" pt_clust_7="13000.00000" pt_clust_8="13000.00000" pt_clust_9="42.59332"></scales>
<clustering>
<clus scale="   42.593">  1  9  2 -1</clus>
<clus scale="   88.796">  7  8 -1 -1</clus>
<clus scale="   91.610">  5  6 -1 -1</clus>
<clus scale="   93.660">  1  7  2 -1</clus>
<clus scale="   42.593">  1  5  2 -1</clus>
</clustering>
</event>
<event>
 9    1  0.1671478E-005  0.1079633E+03  0.7546771E-02  0.1266996E+00
          2   -1    0    0  502    0 -0.00000000000E+00  0.00000000000E+00  0.65084234094E+02  0.65084234094E+02  0.00000000000E+00 0. -1.
         21   -1    0    0  501  502  0.00000000000E+00 -0.00000000000E+00 -0.97207686752E+03  0.97207686752E+03  0.00000000000E+00 0. -1.
         23    2    1    2    0    0  0.34379841222E+02  0.32862320706E+01 -0.87905110037E+01  0.98815023782E+02  0.92164868783E+02 0.  0.
         23    2    1    2    0    0 -0.12802433337E+03 -0.21603352873E+02 -0.41394947557E+03  0.44478206596E+03  0.98081512491E+02 0.  0.
        -11    1    3    3    0    0  0.11680611927E+02  0.40420274836E+02 -0.28724928966E+02  0.50944645027E+02  0.00000000000E+00 0. -1.
         11    1    3    3    0    0  0.22699229295E+02 -0.37134042765E+02  0.19934417963E+02  0.47870378756E+02  0.00000000000E+00 0.  1.
        -11    1    4    4    0    0 -0.91371034482E+02  0.22531127184E+02 -0.32959826746E+03  0.34277009138E+03  0.00000000000E+00 0. -1.
         11    1    4    4    0    0 -0.36653298883E+02 -0.44134480057E+02 -0.84351208110E+02  0.10201197458E+03  0.00000000000E+00 0.  1.
          2    1    1    2  501    0  0.93644492143E+02  0.18317120802E+02 -0.48425264686E+03  0.49356401187E+03  0.00000000000E+00 0. -1.
<scales pt_clust_5="13000.00000" pt_clust_6="13000.00000" pt_clust_7="13000.00000" pt_clust_8="13000.00000" pt_clust_9="95.41912"></scales>
<clustering>
<clus scale="   92.165">  5  6 -1 -1</clus>
<clus scale="   95.419">  2  9  1 -1</clus>
<clus scale="   98.082">  7  8 -1 -1</clus>
<clus scale="  102.618">  1  5  2 -1</clus>
<clus scale="   95.419">  2  5  1 -1</clus>
</clustering>
</event>
<event>
 9    1  0.1671478E-005  0.3136466E+03  0.7546771E-02  0.1078676E+00
          2   -1    0    0  502    0 -0.00000000000E+00  0.00000000000E+00  0.23640801515E+04  0.23640801515E+04  0.00000000000E+00 0. -1.
         21   -1    0    0  501  502  0.00000000000E+00 -0.00000000000E+00 -0.65488209278E+02  0.65488209278E+02  0.00000000000E+00 0. -1.
         23    2    1    2    0    0 -0.20989135103E+03  0.14745053444E+03  0.87864258856E+03  0.91988435378E+03  0.91533526964E+02 0.  0.
         23    2    1    2    0    0  0.25497595827E+03 -0.25100951565E+03  0.12666887365E+04  0.13193004437E+04  0.89636986504E+02 0.  0.
        -13    1    3    3    0    0 -0.11704121047E+03  0.12764154263E+03  0.64092041040E+03  0.66390509925E+03  0.00000000000E+00 0. -1.
         13    1    3    3    0    0 -0.92850140554E+02  0.19808991810E+02  0.23772217817E+03  0.25597925453E+03  0.00000000000E+00 0.  1.
        -13    1    4    4    0    0  0.10346726176E+03 -0.59881546554E+02  0.52896649132E+03  0.54230694520E+03  0.00000000000E+00 0.  1.
         13    1    4    4    0    0  0.15150869651E+03 -0.19112796910E+03  0.73772224519E+03  0.77699349851E+03  0.00000000000E+00 0. -1.
          2    1    1    2  501    0 -0.45084607242E+02  0.10355898121E+03  0.15326061720E+03  0.19038356332E+03  0.00000000000E+00 0. -1.
<scales pt_clust_5="13000.00000" pt_clust_6="13000.00000" pt_clust_7="13000.00000" pt_clust_8="13000.00000" pt_clust_9="112.94726"></scales>
<clustering>
<clus scale="   89.637">  7  8 -1 -1</clus>
<clus scale="   91.534">  5  6 -1 -1</clus>
<clus scale="  112.947">  2  9  1 -1</clus>
<clus scale="  313.098">  2  7  1 -1</clus>
<clus scale="  112.947">  2  5  1 -1</clus>
</clustering>
</event>
<event>
 9    1  0.1671478E-005  0.9414529E+02  0.7546771E-02  0.1293912E+00
         21   -1    0    0  501  502  0.00000000000E+00  0.00000000000E+00  0.34761675432E+03  0.34761675432E+03  0.00000000000E+00 0.  1.
          2   -1    0    0  502    0 -0.00000000000E+00 -0.00000000000E+00 -0.76737288776E+02  0.76737288776E+02  0.00000000000E+00 0. -1.
         23    2    1    2    0    0 -0.13489978399E+02  0.20255336521E+02 -0.21589878598E+02  0.96748292226E+02  0.91114493995E+02 0.  0.
         23    2    1    2    0    0 -0.14369973349E+02 -0.30612237338E+02  0.12496991123E+03  0.15748960721E+03  0.89676599283E+02 0.  0.
        -11    1    3    3    0    0 -0.37508440260E+02 -0.16983003796E+02 -0.30886638265E+02  0.51471253453E+02  0.00000000000E+00 0. -1.
         11    1    3    3    0    0  0.24018461862E+02  0.37238340317E+02  0.92967596669E+01  0.45277038773E+02  0.00000000000E+00 0.  1.
        -13    1    4    4    0    0 -0.14898875232E+02  0.29099660940E+02  0.65543336988E+02  0.73244083539E+02  0.00000000000E+00 0. -1.
         13    1    4    4    0    0  0.52890188285E+00 -0.59711898278E+02  0.59426574238E+02  0.84245523672E+02  0.00000000000E+00 0.  1.
          2    1    1    2  501    0  0.27859951748E+02  0.10356900817E+02  0.16749943291E+03  0.17011614365E+03  0.00000000000E+00 0. -1.
<scales pt_clust_5="13000.00000" pt_clust_6="13000.00000" pt_clust_7="13000.00000" pt_clust_8="13000.00000" pt_clust_9="29.72276"></scales>
<clustering>
<clus scale="   29.723">  1  9  2 -1</clus>
<clus scale="   89.677">  7  8 -1 -1</clus>
<clus scale="   91.114">  5  6 -1 -1</clus>
<clus scale="   92.754">  1  7  2 -1</clus>
<clus scale="   29.723">  1  5  2 -1</clus>
</clustering>
</event>
<event>
 9    1  0.1671478E-005  0.1207204E+03  0.7546771E-02  0.1242710E+00
         21   -1    0    0  501  502  0.00000000000E+00  0.00000000000E+00  0.96821785895E+02  0.96821785895E+02  0.00000000000E+00 0. -1.
          2   -1    0    0  502    0 -0.00000000000E+00 -0.00000000000E+00 -0.62320222962E+03  0.62320222962E+03  0.00000000000E+00 0. -1.
         23    2    1    2    0    0  0.19273701442E+02 -0.73350243447E+02 -0.49276002526E+03  0.50745083360E+03  0.94563059638E+02 0.  0.
         23    2    1    2    0    0 -0.47139794365E+02  0.60580063548E+02 -0.88978228886E+02  0.14929535163E+03  0.92086223131E+02 0.  0.
        -11    1    4    4    0    0  0.14968116284E+02  0.43125670373E+02 -0.89789299951E+01  0.46524070480E+02  0.00000000000E+00 0.  1.
         11    1    4    4    0    0 -0.62107910649E+02  0.17454393176E+02 -0.79999298891E+02  0.10277128115E+03  0.00000000000E+00 0. -1.
        -13    1    3    3    0    0  0.55937044641E+02 -0.53616230127E+02 -0.36287967600E+03  0.37105971535E+03  0.00000000000E+00 0.  1.
         13    1    3    3    0    0 -0.36663343198E+02 -0.19734013320E+02 -0.12988034926E+03  0.13639111826E+03  0.00000000000E+00 0. -1.
          2    1    1    2  501    0  0.27866092923E+02  0.12770179898E+02  0.55357810426E+02  0.63277830278E+02  0.00000000000E+00 0. -1.
<scales pt_clust_5="13000.00000" pt_clust_6="13000.00000" pt_clust_7="13000.00000" pt_clust_8="13000.00000" pt_clust_9="30.65284"></scales>
<clustering>
<clus scale="   30.653">  1  9  2 -1</clus>
<clus scale="   92.086">  5  6 -1 -1</clus>
<clus scale="   94.563">  7  8 -1 -1</clus>
<clus scale="  118.790">  1  5  2 -1</clus>
<clus scale="   30.653">  1  5  2 -1</clus>
</clustering>
</event>
<event>
 9    1  0.1671478E-005  0.1008660E+03  0.7546771E-02  0.1280439E+00
         -4   -1    0    0    0  501 -0.00000000000E+00  0.00000000000E+00  0.86391776480E+02  0.86391776480E+02  0.00000000000E+00 0. -1.
         21   -1    0    0  501  502  0.00000000000E+00 -0.00000000000E+00 -0.27441343478E+03  0.27441343478E+03  0.00000000000E+00 0.  1.
         23    2    1    2    0    0 -0.24829567512E+02  0.16200348328E+02  0.26962630268E+02  0.10295192449E+03  0.94832255145E+02 0.  0.
         23    2    1    2    0    0  0.39089680997E+02 -0.33358362159E+02 -0.11468345674E+03  0.15510113283E+03  0.90902599899E+02 0.  0.
        -13    1    4    4    0    0  0.67777953098E+02 -0.12465085618E+02 -0.77049668847E+02  0.10337253385E+03  0.00000000000E+00 0.  1.
         13    1    4    4    0    0 -0.28688272102E+02 -0.20893276541E+02 -0.37633787896E+02  0.51728598978E+02  0.00000000000E+00 0. -1.
        -13    1    3    3    0    0  0.31749406738E+02  0.20137969163E+02 -0.48732249320E+01  0.37911884040E+02  0.00000000000E+00 0.  1.
         13    1    3    3    0    0 -0.56578974250E+02 -0.39376208353E+01  0.31835855200E+02  0.65040040447E+02  0.00000000000E+00 0. -1.
         -4    1    1    2    0  502 -0.14260113485E+02  0.17158013830E+02 -0.10030083182E+03  0.10275215394E+03  0.00000000000E+00 0. -1.
<scales pt_clust_5="13000.00000" pt_clust_6="13000.00000" pt_clust_7="13000.00000" pt_clust_8="13000.00000" pt_clust_9="22.31027"></scales>
<clustering>
<clus scale="   22.310">  2  9  1 -1</clus>
<clus scale="   90.903">  5  6 -1 -1</clus>
<clus scale="   94.832">  7  8 -1 -1</clus>
<clus scale="   97.181">  2  5  1 -1</clus>
<clus scale="   22.310">  2  5  1 -1</clus>
</clustering>
</event>
<event>
 9    1  0.1671478E-005  0.1384275E+03  0.7546771E-02  0.1215779E+00
         21   -1    0    0  501  502  0.00000000000E+00  0.00000000000E+00  0.23228838266E+03  0.23228838266E+03  0.00000000000E+00 0. -1.
          1   -1    0    0  502    0 -0.00000000000E+00 -0.00000000000E+00 -0.32123222193E+03  0.32123222193E+03  0.00000000000E+00 0. -1.
         23    2    1    2    0    0 -0.33539897923E+02  0.10221301212E+03 -0.27380818959E+03  0.30818026538E+03  0.91824434026E+02 0.  0.
         23    2    1    2    0    0  0.13106158102E+02 -0.73190943325E+02  0.10228022458E+03  0.15545176360E+03  0.90417481179E+02 0.  0.
        -11    1    4    4    0    0  0.20049670913E+02  0.13065377555E+02  0.47069977220E+02  0.52804130045E+02  0.00000000000E+00 0.  1.
         11    1    4    4    0    0 -0.69435128109E+01 -0.86256320879E+02  0.55210247360E+02  0.10264763356E+03  0.00000000000E+00 0. -1.
        -13    1    3    3    0    0  0.22407577785E+02  0.76736078938E+02 -0.15219870367E+03  0.17191559194E+03  0.00000000000E+00 0.  1.
         13    1    3    3    0    0 -0.55947475708E+02  0.25476933184E+02 -0.12160948592E+03  0.13626467344E+03  0.00000000000E+00 0. -1.
          1    1    1    2  501    0  0.20433739820E+02 -0.29022068797E+02  0.82584125743E+02  0.89888575609E+02  0.00000000000E+00 0. -1.
<scales pt_clust_5="13000.00000" pt_clust_6="13000.00000" pt_clust_7="13000.00000" pt_clust_8="13000.00000" pt_clust_9="35.49392"></scales>
<clustering>
<clus scale="   35.494">  1  9  2 -1</clus>
<clus scale="   90.417">  5  6 -1 -1</clus>
<clus scale="   91.824">  7  8 -1 -1</clus>
<clus scale="  137.498">  1  5  2 -1</clus>
<clus scale="   35.494">  1  5  2 -1</clus>
</clustering>
</event>
<event>
 9    1  0.1671478E-005  0.1323576E+03  0.7546771E-02  0.1225241E+00
         21   -1    0    0  501  502  0.00000000000E+00  0.00000000000E+00  0.21252603160E+03  0.21252603160E+03  0.00000000000E+00 0. -1.
         -3   -1    0    0    0  501 -0.00000000000E+00 -0.00000000000E+00 -0.16821081694E+03  0.16821081694E+03  0.00000000000E+00 0.  1.
         23    2    1    2    0    0  0.10014813256E+03 -0.14461043464E+01 -0.84458761863E+02  0.15736512577E+03  0.87170870595E+02 0.  0.
         23    2    1    2    0    0 -0.79849935270E+02  0.34248271177E+02  0.50891458601E+02  0.13645978136E+03  0.92099810686E+02 0.  0.
        -11    1    3    3    0    0  0.95570300059E+02  0.30626000385E+02 -0.62522670094E+02  0.11824008808E+03  0.00000000000E+00 0.  1.
         11    1    3    3    0    0  0.45778325011E+01 -0.32072104732E+02 -0.21936091769E+02  0.39125037692E+02  0.00000000000E+00 0. -1.
        -13    1    4    4    0    0 -0.46432948222E+02  0.46000065099E+02 -0.98945316693E+01  0.66105419042E+02  0.00000000000E+00 0.  1.
         13    1    4    4    0    0 -0.33416987048E+02 -0.11751793922E+02  0.60785990270E+02  0.70354362316E+02  0.00000000000E+00 0. -1.
         -3    1    1    2    0  502 -0.20298197290E+02 -0.32802166831E+02  0.77882517921E+02  0.86911941410E+02  0.00000000000E+00 0.  1.
<scales pt_clust_5="13000.00000" pt_clust_6="13000.00000" pt_clust_7="13000.00000" pt_clust_8="13000.00000" pt_clust_9="38.57459"></scales>
<clustering>
<clus scale="   38.575">  1  9  2 -1</clus>
<clus scale="   87.171">  5  6 -1 -1</clus>
<clus scale="   92.100">  7  8 -1 -1</clus>
<clus scale="  128.976">  2  5  1 -1</clus>
<clus scale="   38.575">  1  5  2 -1</clus>
</clustering>
</event>
<event>
 9    1  0.1671478E-005  0.1453556E+03  0.7546771E-02  0.1215390E+00
          3   -1    0    0  502    0 -0.00000000000E+00  0.00000000000E+00  0.37604740560E+03  0.37604740560E+03  0.00000000000E+00 0. -1.
         21   -1    0    0  501  502  0.00000000000E+00 -0.00000000000E+00 -0.64985429865E+02  0.64985429865E+02  0.00000000000E+00 0. -1.
         23    2    1    2    0    0  0.51530363124E+02  0.36798003760E+02  0.18042848898E+03  0.22911967951E+03  0.12622169582E+03 0.  0.
         23    2    1    2    0    0 -0.55821285436E+02 -0.66424696919E+02  0.76554572464E+02  0.15010149094E+03  0.95611708220E+02 0.  0.
        -11    1    3    3    0    0  0.92032528511E+02  0.10011458850E+02  0.12197846491E+03  0.15313053749E+03  0.00000000000E+00 0. -1.
         11    1    3    3    0    0 -0.40502165387E+02  0.26786544910E+02  0.58450024080E+02  0.75989142015E+02  0.00000000000E+00 0.  1.
        -13    1    4    4    0    0 -0.22707611166E+02  0.25322442151E+01 -0.17562605831E+02  0.28818275265E+02  0.00000000000E+00 0. -1.
         13    1    4    4    0    0 -0.33113674270E+02 -0.68956941134E+02  0.94117178295E+02  0.12128321567E+03  0.00000000000E+00 0.  1.
          3    1    1    2  501    0  0.42909223116E+01  0.29626693159E+02  0.54078914289E+02  0.61811665019E+02  0.00000000000E+00 0. -1.
<scales pt_clust_5="13000.00000" pt_clust_6="13000.00000" pt_clust_7="13000.00000" pt_clust_8="13000.00000" pt_clust_9="29.93583"></scales>
<clustering>
<clus scale="   29.936">  2  9  1 -1</clus>
<clus scale="   95.612">  7  8 -1 -1</clus>
<clus scale="  119.741">  2  7  1 -1</clus>
<clus scale="  126.222">  5  6 -1 -1</clus>
<clus scale="   29.936">  2  5  1 -1</clus>
</clustering>
</event>
<event>
 9    1  0.1671478E-005  0.2304469E+03  0.7546771E-02  0.1155821E+00
          2   -1    0    0  502    0 -0.00000000000E+00  0.00000000000E+00  0.26472710825E+03  0.26472710825E+03  0.00000000000E+00 0. -1.
         21   -1    0    0  501  502  0.00000000000E+00 -0.00000000000E+00 -0.48119718852E+03  0.48119718852E+03  0.00000000000E+00 0. -1.
         23    2    1    2    0    0 -0.50854475793E+02  0.41161989215E+02  0.81289417299E+02  0.13942292988E+03  0.92467815735E+02 0.  0.
         23    2    1    2    0    0 -0.19628571121E+03  0.53333795398E+01 -0.27870879885E+03  0.35430497423E+03  0.96420406766E+02 0.  0.
        -13    1    3    3    0    0 -0.13273666804E+02  0.16468224518E+02 -0.19681036241E+02  0.28891795318E+02  0.00000000000E+00 0.  1.
         13    1    3    3    0    0 -0.37580808989E+02  0.24693764697E+02  0.10097045354E+03  0.11053113456E+03  0.00000000000E+00 0. -1.
        -13    1    4    4    0    0 -0.42593681499E+02 -0.11361810989E+02 -0.11436751172E+02  0.45542416822E+02  0.00000000000E+00 0.  1.
         13    1    4    4    0    0 -0.15369202971E+03  0.16695190528E+02 -0.26727204768E+03  0.30876255741E+03  0.00000000000E+00 0. -1.
          2    1    1    2  501    0  0.24714018701E+03 -0.46495368755E+02 -0.19050698717E+02  0.25219639266E+03  0.00000000000E+00 0. -1.
<scales pt_clust_5="13000.00000" pt_clust_6="13000.00000" pt_clust_7="13000.00000" pt_clust_8="13000.00000" pt_clust_9="209.30585"></scales>
<clustering>
<clus scale="   92.468">  5  6 -1 -1</clus>
<clus scale="   96.420">  7  8 -1 -1</clus>
<clus scale="  113.273">  1  5  2 -1</clus>
<clus scale="  209.306">  2  9  1 -1</clus>
<clus scale="  209.306">  2  5  1 -1</clus>
</clustering>
</event>
<event>
 9    1  0.1671478E-005  0.1092589E+03  0.7546771E-02  0.1264369E+00
         -4   -1    0    0    0  501 -0.00000000000E+00  0.00000000000E+00  0.39107226466E+03  0.39107226466E+03  0.00000000000E+00 0.  1.
         21   -1    0    0  501  502  0.00000000000E+00 -0.00000000000E+00 -0.63127267856E+02  0.63127267856E+02  0.00000000000E+00 0. -1.
         23    2    1    2    0    0 -0.51073132906E+02 -0.13374638586E+02  0.29175751561E+03  0.31087886970E+03  0.93465918129E+02 0.  0.
         23    2    1    2    0    0  0.74127442510E+02  0.80978387693E+01  0.31540382262E+02  0.11921793816E+03  0.87508104418E+02 0.  0.
        -11    1    3    3    0    0 -0.27133012668E+02  0.37168710997E+02  0.18156956403E+03  0.18731049100E+03  0.00000000000E+00 0.  1.
         11    1    3    3    0    0 -0.23940120238E+02 -0.50543349583E+02  0.11018795157E+03  0.12356837871E+03  0.00000000000E+00 0. -1.
        -11    1    4    4    0    0  0.47211408100E+01  0.23758057627E+02  0.40818406314E+02  0.47464479001E+02  0.00000000000E+00 0.  1.
         11    1    4    4    0    0  0.69406301700E+02 -0.15660218858E+02 -0.92780240520E+01  0.71753459155E+02  0.00000000000E+00 0. -1.
         -4    1    1    2    0  502 -0.23054309604E+02  0.52767998165E+01  0.46470989391E+01  0.24102724663E+02  0.00000000000E+00 0.  1.
<scales pt_clust_5="13000.00000" pt_clust_6="13000.00000" pt_clust_7="13000.00000" pt_clust_8="13000.00000" pt_clust_9="23.65049"></scales>
<clustering>
<clus scale="   23.650">  2  9  1 -1</clus>
<clus scale="   87.508">  7  8 -1 -1</clus>
<clus scale="   93.466">  5  6 -1 -1</clus>
<clus scale="  104.208">  2  7  1 -1</clus>
<clus scale="   23.650">  2  5  1 -1</clus>
</clustering>
</event>
<event>
 9    1  0.1671478E-005  0.1125257E+03  0.7546771E-02  0.1256217E+00
          3   -1    0    0  502    0 -0.00000000000E+00  0.00000000000E+00  0.52198738079E+02  0.52198738079E+02  0.00000000000E+00 0. -1.
         21   -1    0    0  501  502  0.00000000000E+00 -0.00000000000E+00 -0.54268667966E+03  0.54268667966E+03  0.00000000000E+00 0.  1.
         23    2    1    2    0    0  0.48788564616E+02  0.10849737441E+02 -0.55240494087E+02  0.12083815157E+03  0.95143606444E+02 0.  0.
         23    2    1    2    0    0 -0.95877769708E+02 -0.27774751174E+02 -0.33154020593E+03  0.35889935573E+03  0.94476747769E+02 0.  0.
        -13    1    4    4    0    0 -0.91653498300E+00 -0.41378998318E+02 -0.93150762883E+02  0.10193196831E+03  0.00000000000E+00 0. -1.
         13    1    4    4    0    0 -0.94961234725E+02  0.13604247144E+02 -0.23838944304E+03  0.25696738742E+03  0.00000000000E+00 0.  1.
        -13    1    3    3    0    0  0.72461421326E+02  0.89197326134E+01 -0.62388908650E+02  0.96034343508E+02  0.00000000000E+00 0. -1.
         13    1    3    3    0    0 -0.23672856709E+02  0.19300048275E+01  0.71484145637E+01  0.24803808058E+02  0.00000000000E+00 0.  1.
          3    1    1    2  501    0  0.47089205092E+02  0.16925013733E+02 -0.10370724156E+03  0.11514791044E+03  0.00000000000E+00 0. -1.
<scales pt_clust_5="13000.00000" pt_clust_6="13000.00000" pt_clust_7="13000.00000" pt_clust_8="13000.00000" pt_clust_9="50.03848"></scales>
<clustering>
<clus scale="   50.038">  2  9  1 -1</clus>
<clus scale="   94.477">  5  6 -1 -1</clus>
<clus scale="   95.144">  7  8 -1 -1</clus>
<clus scale="  111.962">  2  5  1 -1</clus>
<clus scale="   50.038">  2  5  1 -1</clus>
</clustering>
</event>
<event>
 9    1  0.1671478E-005  0.1873102E+03  0.7546771E-02  0.1161124E+00
         21   -1    0    0  501  502  0.00000000000E+00  0.00000000000E+00  0.80356706508E+02  0.80356706508E+02  0.00000000000E+00 0. -1.
          2   -1    0    0  502    0 -0.00000000000E+00 -0.00000000000E+00 -0.83133204306E+03  0.83133204306E+03  0.00000000000E+00 0. -1.
         23    2    1    2    0    0 -0.13603770866E+03  0.47428901362E+02 -0.30563433444E+03  0.35047747095E+03  0.93093245712E+02 0.  0.
         23    2    1    2    0    0  0.21114366336E+03  0.14157282837E+02 -0.23296656103E+03  0.32768041183E+03  0.91208324760E+02 0.  0.
        -11    1    3    3    0    0 -0.10685906212E+03  0.88838348336E+01 -0.13107299713E+03  0.16934554099E+03  0.00000000000E+00 0.  1.
         11    1    3    3    0    0 -0.29178646541E+02  0.38545066528E+02 -0.17456133731E+03  0.18113192996E+03  0.00000000000E+00 0. -1.
        -13    1    4    4    0    0  0.15441232391E+03 -0.29991375178E+02 -0.14357639153E+03  0.21297142664E+03  0.00000000000E+00 0. -1.
         13    1    4    4    0    0  0.56731339447E+02  0.44148658015E+02 -0.89390169500E+02  0.11470898519E+03  0.00000000000E+00 0.  1.
          2    1    1    2  501    0 -0.75105954696E+02 -0.61586184199E+02 -0.21237444108E+03  0.23353086678E+03  0.00000000000E+00 0. -1.
<scales pt_clust_5="13000.00000" pt_clust_6="13000.00000" pt_clust_7="13000.00000" pt_clust_8="13000.00000" pt_clust_9="97.12761"></scales>
<clustering>
<clus scale="   91.208">  7  8 -1 -1</clus>
<clus scale="   93.093">  5  6 -1 -1</clus>
<clus scale="   97.128">  1  9  2 -1</clus>
<clus scale="  186.381">  1  7  2 -1</clus>
<clus scale="   97.128">  1  5  2 -1</clus>
</clustering>
</event>
<event>
 9    1  0.1671478E-005  0.1068487E+03  0.7546771E-02  0.1266704E+00
         21   -1    0    0  501  502  0.00000000000E+00  0.00000000000E+00  0.46960386431E+02  0.46960386431E+02  0.00000000000E+00 0. -1.
         -2   -1    0    0    0  501 -0.00000000000E+00 -0.00000000000E+00 -0.35419883994E+03  0.35419883994E+03  0.00000000000E+00 0.  1.
         23    2    1    2    0    0 -0.45740789098E+02 -0.40814546622E+02 -0.22066254314E+03  0.24676323451E+03  0.91880841095E+02 0.  0.
         23    2    1    2    0    0  0.40260086662E+02  0.14539623540E+02 -0.66798796855E+02  0.12105616730E+03  0.91434354321E+02 0.  0.
        -13    1    4    4    0    0  0.35638108111E+02  0.50111748667E+02 -0.57057747237E+02  0.83885926257E+02  0.00000000000E+00 0.  1.
         13    1    4    4    0    0  0.46219785514E+01 -0.35572125127E+02 -0.97410496184E+01  0.37170241046E+02  0.00000000000E+00 0. -1.
        -13    1    3    3    0    0 -0.27251541769E+02 -0.62252358973E+02 -0.88381007715E+02  0.11148634558E+03  0.00000000000E+00 0. -1.
         13    1    3    3    0    0 -0.18489247329E+02  0.21437812351E+02 -0.13228153542E+03  0.13527688893E+03  0.00000000000E+00 0.  1.
         -2    1    1    2    0  502  0.54807024358E+01  0.26274923082E+02 -0.19777113511E+02  0.33339824549E+02  0.00000000000E+00 0.  1.
<scales pt_clust_5="13000.00000" pt_clust_6="13000.00000" pt_clust_7="13000.00000" pt_clust_8="13000.00000" pt_clust_9="26.84045"></scales>
<clustering>
<clus scale="   26.840">  1  9  2 -1</clus>
<clus scale="   91.434">  5  6 -1 -1</clus>
<clus scale="   91.881">  7  8 -1 -1</clus>
<clus scale="  106.465">  1  5  2 -1</clus>
<clus scale="   26.840">  1  5  2 -1</clus>
</clustering>
</event>
<event>
 9    1  0.1671478E-005  0.1197155E+03  0.7546771E-02  0.1243751E+00
         21   -1    0    0  501  502  0.00000000000E+00  0.00000000000E+00  0.18871422677E+03  0.18871422677E+03  0.00000000000E+00 0.  1.
          3   -1    0    0  502    0 -0.00000000000E+00 -0.00000000000E+00 -0.22294441025E+03  0.22294441025E+03  0.00000000000E+00 0. -1.
         23    2    1    2    0    0 -0.32858069181E+02  0.66932065090E+02 -0.13768499575E+03  0.18158130647E+03  0.91951393451E+02 0.  0.
         23    2    1    2    0    0 -0.25617053557E+02 -0.99750801334E+02  0.69005424106E+02  0.15469052949E+03  0.92525431957E+02 0.  0.
        -11    1    4    4    0    0 -0.43656233149E+01 -0.74292219370E+02  0.88962541719E+02  0.11598588860E+03  0.00000000000E+00 0.  1.
         11    1    4    4    0    0 -0.21251430242E+02 -0.25458581965E+02 -0.19957117613E+02  0.38704640890E+02  0.00000000000E+00 0. -1.
        -13    1    3    3    0    0  0.19843460732E+02  0.58569810758E+02 -0.94497164570E+02  0.11293316509E+03  0.00000000000E+00 0.  1.
         13    1    3    3    0    0 -0.52701529914E+02  0.83622543323E+01 -0.43187831181E+02  0.68648141380E+02  0.00000000000E+00 0. -1.
          3    1    1    2  501    0  0.58475122738E+02  0.32818736244E+02  0.34449388163E+02  0.75386801051E+02  0.00000000000E+00 0. -1.
<scales pt_clust_5="13000.00000" pt_clust_6="13000.00000" pt_clust_7="13000.00000" pt_clust_8="13000.00000" pt_clust_9="67.05527"></scales>
<clustering>
<clus scale="   67.055">  1  9  2 -1</clus>
<clus scale="   91.951">  7  8 -1 -1</clus>
<clus scale="   92.525">  5  6 -1 -1</clus>
<clus scale="  119.272">  2  7  1 -1</clus>
<clus scale="   67.055">  1  5  2 -1</clus>
</clustering>
</event>
<event>
 9    1  0.1671478E-005  0.9681612E+02  0.7546771E-02  0.1287544E+00
         -4   -1    0    0    0  501 -0.00000000000E+00  0.00000000000E+00  0.50974206709E+03  0.50974206709E+03  0.00000000000E+00 0.  1.
         21   -1    0    0  501  502  0.00000000000E+00 -0.00000000000E+00 -0.50562622001E+02  0.50562622001E+02  0.00000000000E+00 0.  1.
         23    2    1    2    0    0  0.24245644858E+02 -0.28812228083E+02  0.26351893508E+03  0.28122147535E+03  0.90693402574E+02 0.  0.
         23    2    1    2    0    0 -0.41553285422E+01  0.32425516937E+02  0.22433745504E+03  0.24388315917E+03  0.89905621014E+02 0.  0.
        -11    1    3    3    0    0 -0.20066757431E+02 -0.46334343827E+02  0.14032776519E+03  0.14913560224E+03  0.00000000000E+00 0. -1.
         11    1    3    3    0    0  0.44312402289E+02  0.17522115744E+02  0.12319116989E+03  0.13208587311E+03  0.00000000000E+00 0.  1.
        -11    1    4    4    0    0 -0.39029973782E+02  0.43291593770E+02  0.15323394047E+03  0.16394554418E+03  0.00000000000E+00 0.  1.
         11    1    4    4    0    0  0.34874645240E+02 -0.10866076833E+02  0.71103514565E+02  0.79937614987E+02  0.00000000000E+00 0. -1.
         -4    1    1    2    0  502 -0.20090316316E+02 -0.36132888539E+01 -0.28676945026E+02  0.35200054574E+02  0.00000000000E+00 0.  1.
<scales pt_clust_5="13000.00000" pt_clust_6="13000.00000" pt_clust_7="13000.00000" pt_clust_8="13000.00000" pt_clust_9="20.41266"></scales>
<clustering>
<clus scale="   20.413">  2  9  1 -1</clus>
<clus scale="   89.906">  7  8 -1 -1</clus>
<clus scale="   90.693">  5  6 -1 -1</clus>
<clus scale="   96.079">  2  7  1 -1</clus>
<clus scale="   20.413">  2  5  1 -1</clus>
</clustering>
</event>
<event>
 9    1  0.1671478E-005  0.1976100E+03  0.7546771E-02  0.1170292E+00
         21   -1    0    0  501  502  0.00000000000E+00  0.00000000000E+00  0.53340372814E+03  0.53340372814E+03  0.00000000000E+00 0.  1.
         -2   -1    0    0    0  501 -0.00000000000E+00 -0.00000000000E+00 -0.37877739021E+03  0.37877739021E+03  0.00000000000E+00 0.  1.
         23    2    1    2    0    0  0.57486321265E+02  0.70396444462E+02 -0.10319333445E+03  0.16480476276E+03  0.90837266731E+02 0.  0.
         23    2    1    2    0    0 -0.22216890683E+03 -0.10148362046E+03 -0.15276914307E+03  0.30390150640E+03  0.96745884312E+02 0.  0.
        -13    1    4    4    0    0 -0.18156981801E+03 -0.11994906155E+03 -0.11955411341E+03  0.24829128501E+03  0.00000000000E+00 0.  1.
         13    1    4    4    0    0 -0.40599088820E+02  0.18465441083E+02 -0.33215029665E+02  0.55610221390E+02  0.00000000000E+00 0. -1.
        -13    1    3    3    0    0  0.18016576661E+02  0.69725618728E+02 -0.23300173359E+02  0.75691195130E+02  0.00000000000E+00 0.  1.
         13    1    3    3    0    0  0.39469744604E+02  0.67082573371E+00 -0.79893161089E+02  0.89113567626E+02  0.00000000000E+00 0. -1.
         -2    1    1    2    0  502  0.16468258557E+03  0.31087176001E+02  0.41058881544E+03  0.44347484919E+03  0.00000000000E+00 0.  1.
<scales pt_clust_5="13000.00000" pt_clust_6="13000.00000" pt_clust_7="13000.00000" pt_clust_8="13000.00000" pt_clust_9="172.30772"></scales>
<clustering>
<clus scale="   90.837">  7  8 -1 -1</clus>
<clus scale="   96.746">  5  6 -1 -1</clus>
<clus scale="  128.498">  2  7  1 -1</clus>
<clus scale="  172.308">  1  9  2 -1</clus>
<clus scale="  172.308">  1  5  2 -1</clus>
</clustering>
</event>
<event>
 9    1  0.1671478E-005  0.9625212E+02  0.7546771E-02  0.1293223E+00
          2   -1    0    0  502    0 -0.00000000000E+00  0.00000000000E+00  0.21325849936E+03  0.21325849936E+03  0.00000000000E+00 0. -1.
         21   -1    0    0  501  502  0.00000000000E+00 -0.00000000000E+00 -0.93765001488E+02  0.93765001488E+02  0.00000000000E+00 0.  1.
         23    2    1    2    0    0  0.13950855953E+02 -0.99485105031E+01  0.78731004256E+02  0.11663389713E+03  0.84328498650E+02 0.  0.
         23    2    1    2    0    0 -0.37732879774E+02  0.38501254584E+02 -0.29018130768E+02  0.11133152766E+03  0.92986774956E+02 0.  0.
        -11    1    4    4    0    0 -0.55602684867E+02  0.57122169979E+02 -0.12500181343E+02  0.80689871739E+02  0.00000000000E+00 0.  1.
         11    1    4    4    0    0  0.17869805093E+02 -0.18620915396E+02 -0.16517949425E+02  0.30641655919E+02  0.00000000000E+00 0. -1.
        -13    1    3    3    0    0 -0.30607357034E+02  0.73817030135E+01  0.10243020607E+02  0.33109202877E+02  0.00000000000E+00 0.  1.
         13    1    3    3    0    0  0.44558212987E+02 -0.17330213517E+02  0.68487983649E+02  0.83524694249E+02  0.00000000000E+00 0. -1.
          2    1    1    2  501    0  0.23782023821E+02 -0.28552744081E+02  0.69780624379E+02  0.79058076060E+02  0.00000000000E+00 0. -1.
<scales pt_clust_5="13000.00000" pt_clust_6="13000.00000" pt_clust_7="13000.00000" pt_clust_8="13000.00000" pt_clust_9="37.15973"></scales>
<clustering>
<clus scale="   37.160">  2  9  1 -1</clus>
<clus scale="   84.328">  7  8 -1 -1</clus>
<clus scale="   87.916">  1  7  2 -1</clus>
<clus scale="   92.987">  5  6 -1 -1</clus>
<clus scale="   37.160">  2  5  1 -1</clus>
</clustering>
</event>
<event>
 9    1  0.1671478E-005  0.1733720E+03  0.7546771E-02  0.1174594E+00
         21   -1    0    0  501  502  0.00000000000E+00  0.00000000000E+00  0.64936262997E+03  0.64936262997E+03  0.00000000000E+00 0.  1.
         -1   -1    0    0    0  501 -0.00000000000E+00 -0.00000000000E+00 -0.12655891558E+03  0.12655891558E+03  0.00000000000E+00 0.  1.
         23    2    1    2    0    0 -0.12551675163E+03  0.10458532807E+02  0.22625145672E+02  0.15693138859E+03  0.90839020586E+02 0.  0.
         23    2    1    2    0    0  0.22594078032E+03 -0.60364343573E+02  0.32386463182E+03  0.41003518613E+03  0.92452495551E+02 0.  0.
        -11    1    4    4    0    0  0.18669542467E+03 -0.84999544548E+02  0.26311576400E+03  0.33363154741E+03  0.00000000000E+00 0.  1.
         11    1    4    4    0    0  0.39245355650E+02  0.24635200975E+02  0.60748867821E+02  0.76403638714E+02  0.00000000000E+00 0. -1.
        -13    1    3    3    0    0 -0.40640202351E+02  0.29697525960E+02  0.44510724750E+02  0.67192065849E+02  0.00000000000E+00 0. -1.
         13    1    3    3    0    0 -0.84876549276E+02 -0.19238993153E+02 -0.21885579079E+02  0.89739322741E+02  0.00000000000E+00 0.  1.
         -1    1    1    2    0  502 -0.10042402869E+03  0.49905810766E+02  0.17631393690E+03  0.20895497082E+03  0.00000000000E+00 0.  1.
<scales pt_clust_5="13000.00000" pt_clust_6="13000.00000" pt_clust_7="13000.00000" pt_clust_8="13000.00000" pt_clust_9="112.14087"></scales>
<clustering>
<clus scale="   90.839">  7  8 -1 -1</clus>
<clus scale="   92.452">  5  6 -1 -1</clus>
<clus scale="  112.141">  1  9  2 -1</clus>
<clus scale="  172.517">  2  7  1 -1</clus>
<clus scale="  112.141">  1  5  2 -1</clus>
</clustering>
</event>
<event>
 9    1  0.1671478E-005  0.9907964E+02  0.7546771E-02  0.1283743E+00
         21   -1    0    0  501  502  0.00000000000E+00  0.00000000000E+00  0.11632249025E+03  0.11632249025E+03  0.00000000000E+00 0.  1.
          1   -1    0    0  502    0 -0.00000000000E+00 -0.00000000000E+00 -0.24918094997E+03  0.24918094997E+03  0.00000000000E+00 0. -1.
         23    2    1    2    0    0  0.47984961013E+01  0.38219034182E+02 -0.20358585689E+03  0.22640453647E+03  0.91258385201E+02 0.  0.
         23    2    1    2    0    0  0.15067987424E+02 -0.40580802119E+02  0.49926814596E+02  0.11023856157E+03  0.88238358411E+02 0.  0.
        -11    1    4    4    0    0 -0.26304232007E+02  0.10183473038E+02  0.53315197075E+00  0.28211699623E+02  0.00000000000E+00 0. -1.
         11    1    4    4    0    0  0.41372219431E+02 -0.50764275156E+02  0.49393662625E+02  0.82026861944E+02  0.00000000000E+00 0.  1.
        -13    1    3    3    0    0 -0.25265316030E+02 -0.20859796479E+02 -0.66590598291E+02  0.74214385964E+02  0.00000000000E+00 0.  1.
         13    1    3    3    0    0  0.30063812131E+02  0.59078830661E+02 -0.13699525860E+03  0.15219015050E+03  0.00000000000E+00 0. -1.
          1    1    1    2  501    0 -0.19866483525E+02  0.23617679367E+01  0.20800582578E+02  0.28860342185E+02  0.00000000000E+00 0. -1.
<scales pt_clust_5="13000.00000" pt_clust_6="13000.00000" pt_clust_7="13000.00000" pt_clust_8="13000.00000" pt_clust_9="20.00638"></scales>
<clustering>
<clus scale="   20.006">  1  9  2 -1</clus>
<clus scale="   88.238">  5  6 -1 -1</clus>
<clus scale="   91.258">  7  8 -1 -1</clus>
<clus scale="   96.305">  1  5  2 -1</clus>
<clus scale="   20.006">  1  5  2 -1</clus>
</clustering>
</event>
<event>
 9    1  0.1671478E-005  0.1016934E+03  0.7546771E-02  0.1277117E+00
          3   -1    0    0  502    0 -0.00000000000E+00  0.00000000000E+00  0.32697143764E+03  0.32697143764E+03  0.00000000000E+00 0. -1.
         21   -1    0    0  501  502  0.00000000000E+00 -0.00000000000E+00 -0.49709458064E+02  0.49709458064E+02  0.00000000000E+00 0.  1.
         23    2    1    2    0    0  0.11153864995E+02  0.61207082451E+02  0.17285749359E+03  0.20464475796E+03  0.90161234609E+02 0.  0.
         23    2    1    2    0    0  0.65401685046E+01 -0.24561009412E+02  0.84702680102E+02  0.12682358810E+03  0.90904683562E+02 0.  0.
        -11    1    3    3    0    0 -0.19528178804E+02 -0.11441270410E+02  0.78363012341E+02  0.81566010931E+02  0.00000000000E+00 0. -1.
         11    1    3    3    0    0  0.30682043799E+02  0.72648352861E+02  0.94494481244E+02  0.12307874703E+03  0.00000000000E+00 0.  1.
        -13    1    4    4    0    0 -0.11507333415E+02 -0.39333326315E+02  0.93349967308E+02  0.10194972132E+03  0.00000000000E+00 0. -1.
         13    1    4    4    0    0  0.18047501920E+02  0.14772316903E+02 -0.86472872054E+01  0.24873866773E+02  0.00000000000E+00 0.  1.
          3    1    1    2  501    0 -0.17694033499E+02 -0.36646073038E+02  0.19701805893E+02  0.45212549652E+02  0.00000000000E+00 0. -1.
<scales pt_clust_5="13000.00000" pt_clust_6="13000.00000" pt_clust_7="13000.00000" pt_clust_8="13000.00000" pt_clust_9="40.69415"></scales>
<clustering>
<clus scale="   40.694">  2  9  1 -1</clus>
<clus scale="   90.161">  5  6 -1 -1</clus>
<clus scale="   90.905">  7  8 -1 -1</clus>
<clus scale="  101.029">  1  5  2 -1</clus>
<clus scale="   40.694">  2  5  1 -1</clus>
</clustering>
</event>
<event>
 9    1  0.1671478E-005  0.1540016E+03  0.7546771E-02  0.1195942E+00
          1   -1    0    0  502    0 -0.00000000000E+00  0.00000000000E+00  0.44932527805E+03  0.44932527805E+03  0.00000000000E+00 0. -1.
         21   -1    0    0  501  502  0.00000000000E+00 -0.00000000000E+00 -0.89365239478E+02  0.89365239478E+02  0.00000000000E+00 0. -1.
         23    2    1    2    0    0  0.61967649503E+02  0.10878955793E+03  0.24253252475E+03  0.28723684763E+03  0.89486443509E+02 0.  0.
         23    2    1    2    0    0 -0.37022133477E+02 -0.11850833012E+03  0.14603519148E+03  0.21227290264E+03  0.91206608140E+02 0.  0.
        -13    1    4    4    0    0 -0.24019991439E+02 -0.82220597519E+02  0.15080315793E+03  0.17343234729E+03  0.00000000000E+00 0. -1.
         13    1    4    4    0    0 -0.13002142038E+02 -0.36287732606E+02 -0.47679664571E+01  0.38840555343E+02  0.00000000000E+00 0.  1.
        -13    1    3    3    0    0  0.45656579778E+02  0.38626092714E+02  0.18685854470E+03  0.19619534664E+03  0.00000000000E+00 0. -1.
         13    1    3    3    0    0  0.16311069725E+02  0.70163465221E+02  0.55673980050E+02  0.91041500987E+02  0.00000000000E+00 0.  1.
          1    1    1    2  501    0 -0.24945516026E+02  0.97187721899E+01 -0.28607677655E+02  0.39180767265E+02  0.00000000000E+00 0. -1.
<scales pt_clust_5="13000.00000" pt_clust_6="13000.00000" pt_clust_7="13000.00000" pt_clust_8="13000.00000" pt_clust_9="26.77188"></scales>
<clustering>
<clus scale="   26.772">  2  9  1 -1</clus>
<clus scale="   89.486">  7  8 -1 -1</clus>
<clus scale="   91.207">  5  6 -1 -1</clus>
<clus scale="  152.989">  1  7  2 -1</clus>
<clus scale="   26.772">  2  5  1 -1</clus>
</clustering>
</event>
<event>
 9    1  0.1671478E-005  0.9848037E+02  0.7546771E-02  0.1284227E+00
         21   -1    0    0  501  502  0.00000000000E+00  0.00000000000E+00  0.64132141999E+03  0.64132141999E+03  0.00000000000E+00 0.  1.
         -3   -1    0    0    0  501 -0.00000000000E+00 -0.00000000000E+00 -0.53388802386E+02  0.53388802386E+02  0.00000000000E+00 0.  1.
         23    2    1    2    0    0 -0.51506504692E+02  0.14075074113E+02  0.37080267676E+02  0.11214877037E+03  0.91385845232E+02 0.  0.
         23    2    1    2    0    0 -0.23716880242E+02 -0.31781224198E+02  0.19471780474E+03  0.21813878576E+03  0.89983163710E+02 0.  0.
        -11    1    3    3    0    0 -0.77088278590E+02  0.12500839173E+02  0.17857421495E+02  0.80110930455E+02  0.00000000000E+00 0.  1.
         11    1    3    3    0    0  0.25581773898E+02  0.15742349400E+01  0.19222846181E+02  0.32037839920E+02  0.00000000000E+00 0. -1.
        -13    1    4    4    0    0  0.29347708243E+02 -0.27535026227E+02  0.51573792614E+02  0.65416524923E+02  0.00000000000E+00 0.  1.
         13    1    4    4    0    0 -0.53064588485E+02 -0.42461979708E+01  0.14314401213E+03  0.15272226084E+03  0.00000000000E+00 0. -1.
         -3    1    1    2    0  502  0.75223384934E+02  0.17706150085E+02  0.35613454519E+03  0.36442266624E+03  0.00000000000E+00 0.  1.
<scales pt_clust_5="13000.00000" pt_clust_6="13000.00000" pt_clust_7="13000.00000" pt_clust_8="13000.00000" pt_clust_9="77.27914"></scales>
<clustering>
<clus scale="   77.279">  1  9  2 -1</clus>
<clus scale="   89.983">  7  8 -1 -1</clus>
<clus scale="   91.386">  5  6 -1 -1</clus>
<clus scale="   97.180">  1  7  2 -1</clus>
<clus scale="   77.279">  1  5  2 -1</clus>
</clustering>
</event>
<event>
 9    1  0.1671478E-005  0.1010163E+03  0.7546771E-02  0.1278426E+00
          4   -1    0    0  502    0 -0.00000000000E+00  0.00000000000E+00  0.25473269418E+03  0.25473269418E+03  0.00000000000E+00 0. -1.
         21   -1    0    0  501  502  0.00000000000E+00 -0.00000000000E+00 -0.90344762295E+02  0.90344762295E+02  0.00000000000E+00 0. -1.
         23    2    1    2    0    0  0.72892532995E+01 -0.39435945295E+02  0.17987609994E+03  0.20545880857E+03  0.90827218910E+02 0.  0.
         23    2    1    2    0    0 -0.17579381707E+01  0.60377004515E+02 -0.29983529992E+02  0.11355643529E+03  0.91365085809E+02 0.  0.
        -13    1    4    4    0    0 -0.25735503770E+02  0.38483112323E+02  0.22784883151E+02  0.51598614212E+02  0.00000000000E+00 0.  1.
         13    1    4    4    0    0  0.23977565600E+02  0.21893892192E+02 -0.52768413144E+02  0.61957821081E+02  0.00000000000E+00 0. -1.
        -13    1    3    3    0    0  0.33197679203E+02 -0.36152746042E+02  0.17095495988E+03  0.17786147772E+03  0.00000000000E+00 0. -1.
         13    1    3    3    0    0 -0.25908425904E+02 -0.32831992525E+01  0.89211400686E+01  0.27597330854E+02  0.00000000000E+00 0.  1.
          4    1    1    2  501    0 -0.55313151288E+01 -0.20941059220E+02  0.14495361929E+02  0.26062212603E+02  0.00000000000E+00 0. -1.
<scales pt_clust_5="13000.00000" pt_clust_6="13000.00000" pt_clust_7="13000.00000" pt_clust_8="13000.00000" pt_clust_9="21.65927"></scales>
<clustering>
<clus scale="   21.659">  2  9  1 -1</clus>
<clus scale="   90.827">  7  8 -1 -1</clus>
<clus scale="   91.365">  5  6 -1 -1</clus>
<clus scale="  100.530">  1  7  2 -1</clus>
<clus scale="   21.659">  2  5  1 -1</clus>
</clustering>
</event>
<event>
 9    1  0.1671478E-005  0.1088074E+03  0.7546771E-02  0.1263413E+00
         21   -1    0    0  501  502  0.00000000000E+00  0.00000000000E+00  0.12255101889E+03  0.12255101889E+03  0.00000000000E+00 0. -1.
          1   -1    0    0  502    0 -0.00000000000E+00 -0.00000000000E+00 -0.45425665436E+03  0.45425665436E+03  0.00000000000E+00 0. -1.
         23    2    1    2    0    0  0.16990798889E+02 -0.44384019594E+02 -0.30617875751E+03  0.32293749450E+03  0.91019587767E+02 0.  0.
         23    2    1    2    0    0 -0.13691728451E+02  0.99360604549E+02 -0.94204277994E+02  0.16583669629E+03  0.92560092259E+02 0.  0.
        -11    1    4    4    0    0  0.24293295359E+02  0.69569408656E+02 -0.91505208100E+02  0.11748731816E+03  0.00000000000E+00 0.  1.
         11    1    4    4    0    0 -0.37985023810E+02  0.29791195894E+02 -0.26990698937E+01  0.48349378123E+02  0.00000000000E+00 0. -1.
        -13    1    3    3    0    0  0.47879740531E+02 -0.50785465410E+01 -0.19794567629E+03  0.20371733345E+03  0.00000000000E+00 0. -1.
         13    1    3    3    0    0 -0.30888941642E+02 -0.39305473053E+02 -0.10823308122E+03  0.11922016104E+03  0.00000000000E+00 0.  1.
          1    1    1    2  501    0 -0.32990704376E+01 -0.54976584956E+02  0.68677400035E+02  0.88033482464E+02  0.00000000000E+00 0. -1.
<scales pt_clust_5="13000.00000" pt_clust_6="13000.00000" pt_clust_7="13000.00000" pt_clust_8="13000.00000" pt_clust_9="55.07548"></scales>
<clustering>
<clus scale="   55.075">  1  9  2 -1</clus>
<clus scale="   91.020">  7  8 -1 -1</clus>
<clus scale="   92.560">  5  6 -1 -1</clus>
<clus scale="  107.500">  2  7  1 -1</clus>
<clus scale="   55.075">  1  5  2 -1</clus>
</clustering>
</event>
<event>
 9    1  0.1671478E-005  0.2813276E+03  0.7546771E-02  0.1094994E+00
         21   -1    0    0  501  502  0.00000000000E+00  0.00000000000E+00  0.13334045350E+03  0.13334045350E+03  0.00000000000E+00 0.  1.
          2   -1    0    0  502    0 -0.00000000000E+00 -0.00000000000E+00 -0.10580187295E+04  0.10580187295E+04  0.00000000000E+00 0. -1.
         23    2    1    2    0    0  0.16966073985E+03  0.22312422991E+03 -0.70323819145E+03  0.76255921196E+03  0.91560959045E+02 0.  0.
         23    2    1    2    0    0 -0.87794562490E+02 -0.22797802567E+03 -0.22829117583E+03  0.34650435886E+03  0.90920538711E+02 0.  0.
        -11    1    3    3    0    0  0.94937185003E+02  0.18735529412E+03 -0.46228344400E+03  0.50776082749E+03  0.00000000000E+00 0. -1.
         11    1    3    3    0    0  0.74723554842E+02  0.35768935792E+02 -0.24095474745E+03  0.25479838448E+03  0.00000000000E+00 0.  1.
        -13    1    4    4    0    0 -0.10364239496E+03 -0.19359509461E+03 -0.17328920136E+03  0.27973193239E+03  0.00000000000E+00 0.  1.
         13    1    4    4    0    0  0.15847832467E+02 -0.34382931060E+02 -0.55001974465E+02  0.66772426474E+02  0.00000000000E+00 0. -1.
          2    1    1    2  501    0 -0.81866177356E+02  0.48537957609E+01  0.68510912926E+01  0.82295612155E+02  0.00000000000E+00 0. -1.
<scales pt_clust_5="13000.00000" pt_clust_6="13000.00000" pt_clust_7="13000.00000" pt_clust_8="13000.00000" pt_clust_9="82.00994"></scales>
<clustering>
<clus scale="   82.010">  1  9  2 -1</clus>
<clus scale="   90.921">  7  8 -1 -1</clus>
<clus scale="   91.561">  5  6 -1 -1</clus>
<clus scale="  281.120">  1  7  2 -1</clus>
<clus scale="   82.010">  1  5  2 -1</clus>
</clustering>
</event>
<event>
 9    1  0.1671478E-005  0.9681632E+02  0.7546771E-02  0.1290674E+00
          2   -1    0    0  502    0 -0.00000000000E+00  0.00000000000E+00  0.22093862090E+03  0.22093862090E+03  0.00000000000E+00 0. -1.
         21   -1    0    0  501  502  0.00000000000E+00 -0.00000000000E+00 -0.16653656790E+03  0.16653656790E+03  0.00000000000E+00 0. -1.
         23    2    1    2    0    0  0.28325522809E+02  0.22197375524E+01  0.15350507496E+03  0.18211528629E+03  0.93781165402E+02 0.  0.
         23    2    1    2    0    0 -0.94499000383E+01  0.26444638942E+02  0.87582358519E+01  0.92169856344E+02  0.87349620398E+02 0.  0.
        -13    1    4    4    0    0 -0.14360470255E+02  0.57704473309E+02  0.10895994557E+02  0.60454545265E+02  0.00000000000E+00 0. -1.
         13    1    4    4    0    0  0.49105702162E+01 -0.31259834368E+02 -0.21377587048E+01  0.31715311079E+02  0.00000000000E+00 0.  1.
        -13    1    3    3    0    0  0.50789814114E+02  0.24296829926E+02  0.13327982015E+03  0.14468397154E+03  0.00000000000E+00 0. -1.
         13    1    3    3    0    0 -0.22464291305E+02 -0.22077092374E+02  0.20225254812E+02  0.37431314748E+02  0.00000000000E+00 0.  1.
          2    1    1    2  501    0 -0.18875622771E+02 -0.28664376494E+02 -0.10786125781E+03  0.11319004617E+03  0.00000000000E+00 0. -1.
<scales pt_clust_5="13000.00000" pt_clust_6="13000.00000" pt_clust_7="13000.00000" pt_clust_8="13000.00000" pt_clust_9="34.32107"></scales>
<clustering>
<clus scale="   34.321">  2  9  1 -1</clus>
<clus scale="   87.350">  5  6 -1 -1</clus>
<clus scale="   90.600">  2  5  1 -1</clus>
<clus scale="   93.781">  7  8 -1 -1</clus>
<clus scale="   34.321">  2  5  1 -1</clus>
</clustering>
</event>
<event>
 9    1  0.1671478E-005  0.9567016E+02  0.7546771E-02  0.1290285E+00
          1   -1    0    0  502    0 -0.00000000000E+00  0.00000000000E+00  0.37366107694E+03  0.37366107694E+03  0.00000000000E+00 0. -1.
         21   -1    0    0  501  502  0.00000000000E+00 -0.00000000000E+00 -0.19569972536E+03  0.19569972536E+03  0.00000000000E+00 0. -1.
         23    2    1    2    0    0  0.40193409869E+02  0.85206105258E+01  0.19704352074E+03  0.22057392072E+03  0.90214158729E+02 0.  0.
         23    2    1    2    0    0 -0.22619679589E+02  0.92094359266E+01  0.15093659939E+03  0.17694517476E+03  0.89057701644E+02 0.  0.
        -11    1    3    3    0    0  0.62668391288E+01 -0.38325148642E+02  0.10403957569E+03  0.11105099550E+03  0.00000000000E+00 0.  1.
         11    1    3    3    0    0  0.33926570740E+02  0.46845759168E+02  0.93003945045E+02  0.10952292522E+03  0.00000000000E+00 0. -1.
        -13    1    4    4    0    0 -0.53938607837E+02  0.22168263937E+02  0.90781266417E+02  0.10789830246E+03  0.00000000000E+00 0. -1.
         13    1    4    4    0    0  0.31318928248E+02 -0.12958828010E+02  0.60155332972E+02  0.69046872304E+02  0.00000000000E+00 0.  1.
          1    1    1    2  501    0 -0.17573730280E+02 -0.17730046452E+02 -0.17001876854E+03  0.17184170681E+03  0.00000000000E+00 0. -1.
<scales pt_clust_5="13000.00000" pt_clust_6="13000.00000" pt_clust_7="13000.00000" pt_clust_8="13000.00000" pt_clust_9="24.96378"></scales>
<clustering>
<clus scale="   24.964">  2  9  1 -1</clus>
<clus scale="   89.058">  7  8 -1 -1</clus>
<clus scale="   90.214">  5  6 -1 -1</clus>
<clus scale="   94.580">  2  7  1 -1</clus>
<clus scale="   24.964">  2  5  1 -1</clus>
</clustering>
</event>
<event>
 9    1  0.1671478E-005  0.9696633E+02  0.7546771E-02  0.1287441E+00
          1   -1    0    0  502    0 -0.00000000000E+00  0.00000000000E+00  0.20432567938E+03  0.20432567938E+03  0.00000000000E+00 0. -1.
         21   -1    0    0  501  502  0.00000000000E+00 -0.00000000000E+00 -0.10551862629E+03  0.10551862629E+03  0.00000000000E+00 0.  1.
         23    2    1    2    0    0  0.27546380025E+02  0.13282598915E+02  0.11953174642E+03  0.15259181148E+03  0.89784141364E+02 0.  0.
         23    2    1    2    0    0 -0.55095393951E+02  0.16289063672E+02 -0.36819859543E+02  0.11374978426E+03  0.91008105861E+02 0.  0.
        -11    1    3    3    0    0  0.32370051622E+02 -0.61296477116E+01  0.12702797651E+03  0.13123071150E+03  0.00000000000E+00 0. -1.
         11    1    3    3    0    0 -0.48236715968E+01  0.19412246627E+02 -0.74962300901E+01  0.21361099980E+02  0.00000000000E+00 0.  1.
        -11    1    4    4    0    0  0.95782672899E+01  0.34489744708E+02 -0.29081638641E+02  0.46119707288E+02  0.00000000000E+00 0.  1.
         11    1    4    4    0    0 -0.64673661241E+02 -0.18200681036E+02 -0.77382209017E+01  0.67630076972E+02  0.00000000000E+00 0. -1.
          1    1    1    2  501    0  0.27549013926E+02 -0.29571662587E+02  0.16095166204E+02  0.43502709934E+02  0.00000000000E+00 0. -1.
<scales pt_clust_5="13000.00000" pt_clust_6="13000.00000" pt_clust_7="13000.00000" pt_clust_8="13000.00000" pt_clust_9="40.41575"></scales>
<clustering>
<clus scale="   40.416">  2  9  1 -1</clus>
<clus scale="   89.784">  5  6 -1 -1</clus>
<clus scale="   91.008">  7  8 -1 -1</clus>
<clus scale="   95.819">  1  5  2 -1</clus>
<clus scale="   40.416">  2  5  1 -1</clus>
</clustering>
</event>
<event>
 9    1  0.1671478E-005  0.2391785E+03  0.7546771E-02  0.1150706E+00
         -2   -1    0    0    0  501 -0.00000000000E+00  0.00000000000E+00  0.16025080287E+03  0.16025080287E+03  0.00000000000E+00 0.  1.
         21   -1    0    0  501  502  0.00000000000E+00 -0.00000000000E+00 -0.68496258516E+03  0.68496258516E+03  0.00000000000E+00 0.  1.
         23    2    1    2    0    0  0.88257315137E+01 -0.67522275707E+02  0.22037939749E+02  0.11639523009E+03  0.91787948803E+02 0.  0.
         23    2    1    2    0    0  0.14356806759E+03  0.19063243716E+03 -0.43112522791E+03  0.50133408048E+03  0.92273408892E+02 0.  0.
        -11    1    3    3    0    0  0.20225115183E+02  0.17841027109E+02  0.12570758462E+02  0.29755360875E+02  0.00000000000E+00 0. -1.
         11    1    3    3    0    0 -0.11399383669E+02 -0.85363302816E+02  0.94671812867E+01  0.86639869213E+02  0.00000000000E+00 0.  1.
        -11    1    4    4    0    0  0.11842850751E+03  0.99778339574E+02 -0.20973925545E+03  0.26071360477E+03  0.00000000000E+00 0.  1.
         11    1    4    4    0    0  0.25139560081E+02  0.90854097583E+02 -0.22138597246E+03  0.24062047571E+03  0.00000000000E+00 0. -1.
         -2    1    1    2    0  502 -0.15239379910E+03 -0.12311016145E+03 -0.11562449413E+03  0.22748407747E+03  0.00000000000E+00 0.  1.
<scales pt_clust_5="13000.00000" pt_clust_6="13000.00000" pt_clust_7="13000.00000" pt_clust_8="13000.00000" pt_clust_9="220.66274"></scales>
<clustering>
<clus scale="   91.788">  5  6 -1 -1</clus>
<clus scale="   92.273">  7  8 -1 -1</clus>
<clus scale="  114.290">  1  5  2 -1</clus>
<clus scale="  220.663">  2  9  1 -1</clus>
<clus scale="  220.663">  2  5  1 -1</clus>
</clustering>
</event>
<event>
 9    1  0.1671478E-005  0.9740124E+02  0.7546771E-02  0.1297689E+00
         21   -1    0    0  501  502  0.00000000000E+00  0.00000000000E+00  0.34606384868E+02  0.34606384868E+02  0.00000000000E+00 0.  1.
          2   -1    0    0  502    0 -0.00000000000E+00 -0.00000000000E+00 -0.39673491946E+03  0.39673491946E+03  0.00000000000E+00 0. -1.
         23    2    1    2    0    0  0.20023686873E+02 -0.33045767534E+02 -0.18934713533E+03  0.20644177951E+03  0.72614735979E+02 0.  0.
         23    2    1    2    0    0  0.86281226767E+00  0.17060000515E+02 -0.17453976538E+03  0.19853890182E+03  0.93068672350E+02 0.  0.
        -11    1    3    3    0    0 -0.73392411140E+01 -0.44721887407E+02 -0.69601514601E+02  0.83055899900E+02  0.00000000000E+00 0. -1.
         11    1    3    3    0    0  0.27362927987E+02  0.11676119873E+02 -0.11974562073E+03  0.12338587961E+03  0.00000000000E+00 0.  1.
        -13    1    4    4    0    0 -0.45810647792E+02  0.38763549361E+01 -0.79373438976E+02  0.91726683106E+02  0.00000000000E+00 0. -1.
         13    1    4    4    0    0  0.46673460060E+02  0.13183645579E+02 -0.95166326404E+02  0.10681221871E+03  0.00000000000E+00 0.  1.
          2    1    1    2  501    0 -0.20886499141E+02  0.15985767019E+02  0.17583661200E+01  0.26360623000E+02  0.00000000000E+00 0. -1.
<scales pt_clust_5="13000.00000" pt_clust_6="13000.00000" pt_clust_7="13000.00000" pt_clust_8="13000.00000" pt_clust_9="26.30191"></scales>
<clustering>
<clus scale="   26.302">  1  9  2 -1</clus>
<clus scale="   72.615">  5  6 -1 -1</clus>
<clus scale="   78.090">  2  5  1 -1</clus>
<clus scale="   93.069">  7  8 -1 -1</clus>
<clus scale="   26.302">  1  5  2 -1</clus>
</clustering>
</event>
<event>
 9    1  0.1671478E-005  0.1054343E+03  0.7546771E-02  0.1269922E+00
         -1   -1    0    0    0  501 -0.00000000000E+00  0.00000000000E+00  0.92372355662E+02  0.92372355662E+02  0.00000000000E+00 0.  1.
         21   -1    0    0  501  502  0.00000000000E+00 -0.00000000000E+00 -0.53343234389E+03  0.53343234389E+03  0.00000000000E+00 0.  1.
         23    2    1    2    0    0 -0.17633960764E+02 -0.14486370853E+02 -0.17733830611E+02  0.95864058817E+02  0.91403596822E+02 0.  0.
         23    2    1    2    0    0  0.80927353997E+02  0.60756724534E+02 -0.43576331636E+02  0.14218178579E+03  0.89867387467E+02 0.  0.
        -11    1    4    4    0    0  0.18864515450E+02 -0.15268902299E+02  0.14375612282E+02  0.28207579638E+02  0.00000000000E+00 0.  1.
         11    1    4    4    0    0  0.62062838547E+02  0.76025626833E+02 -0.57951943918E+02  0.11397420615E+03  0.00000000000E+00 0. -1.
        -11    1    3    3    0    0  0.22552160835E+02  0.26671182531E+02  0.21698410850E+01  0.34995144610E+02  0.00000000000E+00 0. -1.
         11    1    3    3    0    0 -0.40186121600E+02 -0.41157553384E+02 -0.19903671696E+02  0.60868914207E+02  0.00000000000E+00 0.  1.
         -1    1    1    2    0  502 -0.63293393233E+02 -0.46270353681E+02 -0.37974982598E+03  0.38775885495E+03  0.00000000000E+00 0.  1.
<scales pt_clust_5="13000.00000" pt_clust_6="13000.00000" pt_clust_7="13000.00000" pt_clust_8="13000.00000" pt_clust_9="78.40280"></scales>
<clustering>
<clus scale="   78.403">  2  9  1 -1</clus>
<clus scale="   89.867">  5  6 -1 -1</clus>
<clus scale="   91.404">  7  8 -1 -1</clus>
<clus scale="  104.105">  2  5  1 -1</clus>
<clus scale="   78.403">  2  5  1 -1</clus>
</clustering>
</event>
<event>
 9    1  0.1671478E-005  0.1021158E+03  0.7546771E-02  0.1278612E+00
         21   -1    0    0  501  502  0.00000000000E+00  0.00000000000E+00  0.43887247327E+03  0.43887247327E+03  0.00000000000E+00 0.  1.
         -1   -1    0    0    0  501 -0.00000000000E+00 -0.00000000000E+00 -0.55646377984E+02  0.55646377984E+02  0.00000000000E+00 0.  1.
         23    2    1    2    0    0  0.28413874731E+02 -0.68189127272E+01  0.59576815306E+02  0.11656039060E+03  0.95828398126E+02 0.  0.
         23    2    1    2    0    0  0.22064083832E+02 -0.41882638773E+02  0.12633472548E+03  0.16854762321E+03  0.10102900179E+03 0.  0.
        -11    1    4    4    0    0  0.22808131646E+02  0.27291256488E+02  0.17627851377E+02  0.39695902737E+02  0.00000000000E+00 0. -1.
         11    1    4    4    0    0 -0.74404781462E+00 -0.69173895261E+02  0.10870687410E+03  0.12885172048E+03  0.00000000000E+00 0.  1.
        -13    1    3    3    0    0  0.60629083041E+02 -0.48875966352E+01  0.17042344890E+02  0.63168155194E+02  0.00000000000E+00 0.  1.
         13    1    3    3    0    0 -0.32215208310E+02 -0.19313160920E+01  0.42534470416E+02  0.53392235408E+02  0.00000000000E+00 0. -1.
         -1    1    1    2    0  502 -0.50477958563E+02  0.48701551500E+02  0.19731455450E+03  0.20941083744E+03  0.00000000000E+00 0.  1.
<scales pt_clust_5="13000.00000" pt_clust_6="13000.00000" pt_clust_7="13000.00000" pt_clust_8="13000.00000" pt_clust_9="70.14175"></scales>
<clustering>
<clus scale="   70.142">  1  9  2 -1</clus>
<clus scale="   95.828">  7  8 -1 -1</clus>
<clus scale="   96.973">  2  7  1 -1</clus>
<clus scale="  101.029">  5  6 -1 -1</clus>
<clus scale="   70.142">  1  5  2 -1</clus>
</clustering>
</event>
<event>
 9    1  0.1671478E-005  0.1101118E+03  0.7546771E-02  0.1261259E+00
         21   -1    0    0  501  502  0.00000000000E+00  0.00000000000E+00  0.10877399268E+03  0.10877399268E+03  0.00000000000E+00 0. -1.
          1   -1    0    0  502    0 -0.00000000000E+00 -0.00000000000E+00 -0.22307404213E+03  0.22307404213E+03  0.00000000000E+00 0. -1.
         23    2    1    2    0    0  0.37191034678E+02  0.63651368583E+02 -0.12213507212E+03  0.16945481761E+03  0.91451022886E+02 0.  0.
         23    2    1    2    0    0 -0.23707078883E+02 -0.36659557999E+02 -0.39037172821E+02  0.10664936002E+03  0.89130445692E+02 0.  0.
        -11    1    4    4    0    0 -0.54915432925E+02 -0.11665028537E+02 -0.94998421409E+01  0.56938779973E+02  0.00000000000E+00 0.  1.
         11    1    4    4    0    0  0.31208354042E+02 -0.24994529462E+02 -0.29537330680E+02  0.49710580048E+02  0.00000000000E+00 0. -1.
        -13    1    3    3    0    0  0.53467905264E+02  0.78649455738E+02 -0.10306984422E+03  0.14024245637E+03  0.00000000000E+00 0. -1.
         13    1    3    3    0    0 -0.16276870586E+02 -0.14998087155E+02 -0.19065227903E+02  0.29212361243E+02  0.00000000000E+00 0.  1.
          1    1    1    2  501    0 -0.13483955794E+02 -0.26991810583E+02  0.46872195494E+02  0.55743857176E+02  0.00000000000E+00 0. -1.
<scales pt_clust_5="13000.00000" pt_clust_6="13000.00000" pt_clust_7="13000.00000" pt_clust_8="13000.00000" pt_clust_9="30.17242"></scales>
<clustering>
<clus scale="   30.172">  1  9  2 -1</clus>
<clus scale="   89.130">  5  6 -1 -1</clus>
<clus scale="   91.451">  7  8 -1 -1</clus>
<clus scale="  108.192">  1  5  2 -1</clus>
<clus scale="   30.172">  1  5  2 -1</clus>
</clustering>
</event>
<event>
 9    1  0.1671478E-005  0.1379012E+03  0.7546771E-02  0.1216877E+00
         -3   -1    0    0    0  501 -0.00000000000E+00  0.00000000000E+00  0.28910689783E+03  0.28910689783E+03  0.00000000000E+00 0.  1.
         21   -1    0    0  501  502  0.00000000000E+00 -0.00000000000E+00 -0.96542902866E+02  0.96542902866E+02  0.00000000000E+00 0.  1.
         23    2    1    2    0    0 -0.10344085853E+03  0.44516867487E+02  0.13950799939E+03  0.20220080188E+03  0.93492885723E+02 0.  0.
         23    2    1    2    0    0  0.80546887672E+02 -0.14515675232E+02  0.47011717578E+01  0.12211063868E+03  0.90500834922E+02 0.  0.
        -11    1    4    4    0    0  0.60012034533E+02 -0.50745598814E+02  0.12966500284E+02  0.79653563746E+02  0.00000000000E+00 0. -1.
         11    1    4    4    0    0  0.20534853139E+02  0.36229923582E+02 -0.82653285264E+01  0.42457074933E+02  0.00000000000E+00 0.  1.
        -13    1    3    3    0    0 -0.36602589806E+02  0.78736480247E+01 -0.60184052301E+01  0.37920510482E+02  0.00000000000E+00 0. -1.
         13    1    3    3    0    0 -0.66838268727E+02  0.36643219462E+02  0.14552640462E+03  0.16428029139E+03  0.00000000000E+00 0.  1.
         -3    1    1    2    0  502  0.22893970861E+02 -0.30001192255E+02  0.48354823819E+02  0.61338360143E+02  0.00000000000E+00 0.  1.
<scales pt_clust_5="13000.00000" pt_clust_6="13000.00000" pt_clust_7="13000.00000" pt_clust_8="13000.00000" pt_clust_9="37.73867"></scales>
<clustering>
<clus scale="   37.739">  2  9  1 -1</clus>
<clus scale="   90.501">  5  6 -1 -1</clus>
<clus scale="   93.493">  7  8 -1 -1</clus>
<clus scale="  135.891">  2  5  1 -1</clus>
<clus scale="   37.739">  2  5  1 -1</clus>
</clustering>
</event>
<event>
 9    1  0.1671478E-005  0.1376530E+03  0.7546771E-02  0.1217507E+00
          3   -1    0    0  502    0 -0.00000000000E+00  0.00000000000E+00  0.56370767055E+03  0.56370767055E+03  0.00000000000E+00 0. -1.
         21   -1    0    0  501  502  0.00000000000E+00 -0.00000000000E+00 -0.24729551707E+03  0.24729551707E+03  0.00000000000E+00 0. -1.
         23    2    1    2    0    0 -0.33635663544E+02  0.94591016456E+02  0.34607675090E+03  0.37215178348E+03  0.93000076251E+02 0.  0.
         23    2    1    2    0    0  0.13523830257E+03 -0.45624353461E+02  0.15095334959E+03  0.22591086520E+03  0.88757113254E+02 0.  0.
        -11    1    3    3    0    0 -0.38884935691E+02  0.27843634932E+02  0.52419226674E+02  0.70958308569E+02  0.00000000000E+00 0.  1.
         11    1    3    3    0    0  0.52492721471E+01  0.66747381524E+02  0.29365752422E+03  0.30119347491E+03  0.00000000000E+00 0. -1.
        -13    1    4    4    0    0  0.91174620093E+02 -0.68321747798E+02  0.79414853832E+02  0.13887905379E+03  0.00000000000E+00 0. -1.
         13    1    4    4    0    0  0.44063682476E+02  0.22697394337E+02  0.71538495757E+02  0.87031811415E+02  0.00000000000E+00 0.  1.
          3    1    1    2  501    0 -0.10160263903E+03 -0.48966662995E+02 -0.18061794701E+03  0.21294053894E+03  0.00000000000E+00 0. -1.
<scales pt_clust_5="13000.00000" pt_clust_6="13000.00000" pt_clust_7="13000.00000" pt_clust_8="13000.00000" pt_clust_9="112.78666"></scales>
<clustering>
<clus scale="   88.757">  7  8 -1 -1</clus>
<clus scale="   93.000">  5  6 -1 -1</clus>
<clus scale="  112.787">  2  9  1 -1</clus>
<clus scale="  134.823">  2  7  1 -1</clus>
<clus scale="  112.787">  2  5  1 -1</clus>
</clustering>
</event>
<event>
 9    1  0.1671478E-005  0.1193728E+03  0.7546771E-02  0.1244308E+00
         21   -1    0    0  501  502  0.00000000000E+00  0.00000000000E+00  0.11252375439E+03  0.11252375439E+03  0.00000000000E+00 0.  1.
          1   -1    0    0  502    0 -0.00000000000E+00 -0.00000000000E+00 -0.71833282717E+03  0.71833282717E+03  0.00000000000E+00 0. -1.
         23    2    1    2    0    0 -0.76747750265E+02 -0.11547752305E+02 -0.64202892474E+03  0.65316711786E+03  0.91665565528E+02 0.  0.
         23    2    1    2    0    0  0.60021975650E+02  0.40087491195E+02 -0.14487295591E+02  0.11714623084E+03  0.91124712099E+02 0.  0.
        -11    1    3    3    0    0 -0.14847211368E+02  0.38013926130E+02 -0.21954923524E+03  0.22331001984E+03  0.00000000000E+00 0.  1.
         11    1    3    3    0    0 -0.61900538897E+02 -0.49561678435E+02 -0.42247968949E+03  0.42985709802E+03  0.00000000000E+00 0. -1.
        -11    1    4    4    0    0  0.47356519670E+02 -0.18994455126E+02  0.99191534340E+01  0.51979023516E+02  0.00000000000E+00 0.  1.
         11    1    4    4    0    0  0.12665455979E+02  0.59081946321E+02 -0.24406449025E+02  0.65167207323E+02  0.00000000000E+00 0. -1.
          1    1    1    2  501    0  0.16725774615E+02 -0.28539738890E+02  0.50707147548E+02  0.60543232858E+02  0.00000000000E+00 0. -1.
<scales pt_clust_5="13000.00000" pt_clust_6="13000.00000" pt_clust_7="13000.00000" pt_clust_8="13000.00000" pt_clust_9="33.07973"></scales>
<clustering>
<clus scale="   33.080">  1  9  2 -1</clus>
<clus scale="   91.125">  7  8 -1 -1</clus>
<clus scale="   91.666">  5  6 -1 -1</clus>
<clus scale="  118.958">  1  7  2 -1</clus>
<clus scale="   33.080">  1  5  2 -1</clus>
</clustering>
</event>
<event>
 9    1  0.1671478E-005  0.9811531E+02  0.7546771E-02  0.1288083E+00
         21   -1    0    0  501  502  0.00000000000E+00  0.00000000000E+00  0.13049265555E+03  0.13049265555E+03  0.00000000000E+00 0.  1.
          1   -1    0    0  502    0 -0.00000000000E+00 -0.00000000000E+00 -0.11207843821E+03  0.11207843821E+03  0.00000000000E+00 0. -1.
         23    2    1    2    0    0 -0.78265851367E+01  0.40430890450E+02 -0.91339901569E+01  0.95840569520E+02  0.86058542006E+02 0.  0.
         23    2    1    2    0    0 -0.27274284829E+02 -0.14287776605E+02  0.30771760796E+02  0.10284516485E+03  0.93178320957E+02 0.  0.
        -11    1    4    4    0    0 -0.42733262053E+02  0.58200382756E+01  0.53548073635E+02  0.68756095885E+02  0.00000000000E+00 0.  1.
         11    1    4    4    0    0  0.15458977224E+02 -0.20107814881E+02 -0.22776312840E+02  0.34089068961E+02  0.00000000000E+00 0. -1.
        -11    1    3    3    0    0 -0.37365873591E+02  0.44907045837E+02 -0.23150606518E+02  0.62839492815E+02  0.00000000000E+00 0.  1.
         11    1    3    3    0    0  0.29539288455E+02 -0.44761553872E+01  0.14016616361E+02  0.33001076705E+02  0.00000000000E+00 0. -1.
          1    1    1    2  501    0  0.35100869966E+02 -0.26143113845E+02 -0.32235532987E+01  0.43885359401E+02  0.00000000000E+00 0. -1.
<scales pt_clust_5="13000.00000" pt_clust_6="13000.00000" pt_clust_7="13000.00000" pt_clust_8="13000.00000" pt_clust_9="43.76683"></scales>
<clustering>
<clus scale="   43.767">  1  9  2 -1</clus>
<clus scale="   86.059">  7  8 -1 -1</clus>
<clus scale="   91.381">  2  7  1 -1</clus>
<clus scale="   93.178">  5  6 -1 -1</clus>
<clus scale="   43.767">  1  5  2 -1</clus>
</clustering>
</event>
<event>
 9    1  0.1671478E-005  0.9451084E+02  0.7546771E-02  0.1292443E+00
          2   -1    0    0  502    0 -0.00000000000E+00  0.00000000000E+00  0.65094385406E+03  0.65094385406E+03  0.00000000000E+00 0. -1.
         21   -1    0    0  501  502  0.00000000000E+00 -0.00000000000E+00 -0.25126681349E+02  0.25126681349E+02  0.00000000000E+00 0.  1.
         23    2    1    2    0    0  0.66403491187E+01  0.15569392207E+02  0.21370913844E+03  0.23326090842E+03  0.91937779688E+02 0.  0.
         23    2    1    2    0    0 -0.31117725898E+02  0.36316757709E+02  0.24458687859E+03  0.26573717817E+03  0.92229533948E+02 0.  0.
        -11    1    3    3    0    0  0.48920437735E+02  0.13085874847E+02  0.12815133768E+03  0.13779410255E+03  0.00000000000E+00 0. -1.
         11    1    3    3    0    0 -0.42280088616E+02  0.24835173600E+01  0.85557800758E+02  0.95466805867E+02  0.00000000000E+00 0.  1.
        -11    1    4    4    0    0 -0.33525603636E+02 -0.20135907713E+02  0.15469356362E+03  0.15956039454E+03  0.00000000000E+00 0.  1.
         11    1    4    4    0    0  0.24078777387E+01  0.56452665422E+02  0.89893314963E+02  0.10617678364E+03  0.00000000000E+00 0. -1.
          2    1    1    2  501    0  0.24477376779E+02 -0.51886149916E+02  0.16752115569E+03  0.17707244882E+03  0.00000000000E+00 0. -1.
<scales pt_clust_5="13000.00000" pt_clust_6="13000.00000" pt_clust_7="13000.00000" pt_clust_8="13000.00000" pt_clust_9="57.37001"></scales>
<clustering>
<clus scale="   57.370">  2  9  1 -1</clus>
<clus scale="   91.938">  5  6 -1 -1</clus>
<clus scale="   92.230">  7  8 -1 -1</clus>
<clus scale="   94.226">  1  5  2 -1</clus>
<clus scale="   57.370">  2  5  1 -1</clus>
</clustering>
</event>
<event>
 9    1  0.1671478E-005  0.1200511E+03  0.7546771E-02  0.1243569E+00
         21   -1    0    0  501  502  0.00000000000E+00  0.00000000000E+00  0.88882961735E+02  0.88882961735E+02  0.00000000000E+00 0. -1.
         -1   -1    0    0    0  501 -0.00000000000E+00 -0.00000000000E+00 -0.24121044200E+03  0.24121044200E+03  0.00000000000E+00 0.  1.
         23    2    1    2    0    0  0.78201627323E+02  0.23805619042E+02 -0.62448604731E+02  0.13792544538E+03  0.91877082208E+02 0.  0.
         23    2    1    2    0    0 -0.62533482223E+02 -0.36874072873E+02 -0.17583400342E+02  0.11704864666E+03  0.90117013205E+02 0.  0.
        -11    1    3    3    0    0  0.52779829028E+02 -0.24998102199E+02 -0.58648760998E+02  0.82766494625E+02  0.00000000000E+00 0.  1.
         11    1    3    3    0    0  0.25421798294E+02  0.48803721241E+02 -0.37998437328E+01  0.55158950750E+02  0.00000000000E+00 0. -1.
        -13    1    4    4    0    0 -0.26924581940E+02 -0.64646501125E+02 -0.16149269873E+02  0.71867253585E+02  0.00000000000E+00 0.  1.
         13    1    4    4    0    0 -0.35608900282E+02  0.27772428252E+02 -0.14341304684E+01  0.45181393079E+02  0.00000000000E+00 0. -1.
         -1    1    1    2    0  502 -0.15668145100E+02  0.13068453830E+02 -0.72295475196E+02  0.75119311699E+02  0.00000000000E+00 0.  1.
<scales pt_clust_5="13000.00000" pt_clust_6="13000.00000" pt_clust_7="13000.00000" pt_clust_8="13000.00000" pt_clust_9="20.40283"></scales>
<clustering>
<clus scale="   20.403">  1  9  2 -1</clus>
<clus scale="   90.117">  7  8 -1 -1</clus>
<clus scale="   91.877">  5  6 -1 -1</clus>
<clus scale="  118.709">  1  7  2 -1</clus>
<clus scale="   20.403">  1  5  2 -1</clus>
</clustering>
</event>
<event>
 9    1  0.1671478E-005  0.1184653E+03  0.7546771E-02  0.1247877E+00
         21   -1    0    0  501  502  0.00000000000E+00  0.00000000000E+00  0.49462582104E+02  0.49462582104E+02  0.00000000000E+00 0.  1.
          1   -1    0    0  502    0 -0.00000000000E+00 -0.00000000000E+00 -0.47398254048E+03  0.47398254048E+03  0.00000000000E+00 0. -1.
         23    2    1    2    0    0 -0.62158673718E+02 -0.61755964231E+02 -0.27148556946E+03  0.30145876829E+03  0.97444726461E+02 0.  0.
         23    2    1    2    0    0  0.54806717324E+01  0.44028342913E+02 -0.92454817289E+02  0.13715387841E+03  0.91075575104E+02 0.  0.
        -13    1    3    3    0    0 -0.68215836126E+02 -0.81013849518E+02 -0.19014668593E+03  0.21765203027E+03  0.00000000000E+00 0.  1.
         13    1    3    3    0    0  0.60571624088E+01  0.19257885288E+02 -0.81338883536E+02  0.83806738017E+02  0.00000000000E+00 0. -1.
        -13    1    4    4    0    0  0.29409247772E+02  0.60922191691E+02 -0.81411156500E+02  0.10584986395E+03  0.00000000000E+00 0. -1.
         13    1    4    4    0    0 -0.23928576040E+02 -0.16893848778E+02 -0.11043660789E+02  0.31304014462E+02  0.00000000000E+00 0.  1.
          1    1    1    2  501    0  0.56678001985E+02  0.17727621317E+02 -0.60579571618E+02  0.84832475881E+02  0.00000000000E+00 0. -1.
<scales pt_clust_5="13000.00000" pt_clust_6="13000.00000" pt_clust_7="13000.00000" pt_clust_8="13000.00000" pt_clust_9="59.38573"></scales>
<clustering>
<clus scale="   59.386">  1  9  2 -1</clus>
<clus scale="   91.076">  7  8 -1 -1</clus>
<clus scale="   97.445">  5  6 -1 -1</clus>
<clus scale="  113.284">  1  7  2 -1</clus>
<clus scale="   59.386">  1  5  2 -1</clus>
</clustering>
</event>
<event>
 9    1  0.1671478E-005  0.1005757E+03  0.7546771E-02  0.1280701E+00
          1   -1    0    0  502    0 -0.00000000000E+00  0.00000000000E+00  0.15302018194E+02  0.15302018194E+02  0.00000000000E+00 0. -1.
         21   -1    0    0  501  502  0.00000000000E+00 -0.00000000000E+00 -0.11012108840E+04  0.11012108840E+04  0.00000000000E+00 0.  1.
         23    2    1    2    0    0  0.34220098433E+01 -0.27801003373E+02 -0.27194263869E+03  0.28722891233E+03  0.88108134721E+02 0.  0.
         23    2    1    2    0    0 -0.21874996983E+02  0.64599741368E+02 -0.51424166236E+03  0.52674560458E+03  0.91459294511E+02 0.  0.
        -13    1    3    3    0    0 -0.20752118658E+02 -0.47970284377E+02 -0.10438461085E+03  0.11673879216E+03  0.00000000000E+00 0.  1.
         13    1    3    3    0    0  0.24174128502E+02  0.20169281004E+02 -0.16755802783E+03  0.17049012017E+03  0.00000000000E+00 0. -1.
        -13    1    4    4    0    0  0.18341857853E+02 -0.15705630734E+02 -0.99040574030E+02  0.10194177696E+03  0.00000000000E+00 0.  1.
         13    1    4    4    0    0 -0.40216854836E+02  0.80305372102E+02 -0.41520108833E+03  0.42480382761E+03  0.00000000000E+00 0. -1.
          1    1    1    2  501    0  0.18452987139E+02 -0.36798737995E+02 -0.29972456477E+03  0.30253838530E+03  0.00000000000E+00 0. -1.
<scales pt_clust_5="13000.00000" pt_clust_6="13000.00000" pt_clust_7="13000.00000" pt_clust_8="13000.00000" pt_clust_9="41.16625"></scales>
<clustering>
<clus scale="   41.166">  2  9  1 -1</clus>
<clus scale="   88.108">  5  6 -1 -1</clus>
<clus scale="   91.459">  7  8 -1 -1</clus>
<clus scale="   97.538">  1  5  2 -1</clus>
<clus scale="   41.166">  2  5  1 -1</clus>
</clustering>
</event>
<event>
 9    1  0.1671478E-005  0.9836970E+02  0.7546771E-02  0.1285735E+00
          1   -1    0    0  502    0 -0.00000000000E+00  0.00000000000E+00  0.39496686436E+03  0.39496686436E+03  0.00000000000E+00 0. -1.
         21   -1    0    0  501  502  0.00000000000E+00 -0.00000000000E+00 -0.27920288324E+03  0.27920288324E+03  0.00000000000E+00 0.  1.
         23    2    1    2    0    0  0.33829840033E+02  0.10471553740E+02  0.33861675073E+03  0.35253612362E+03  0.91467497325E+02 0.  0.
         23    2    1    2    0    0 -0.63903572534E+02 -0.17364904717E+02 -0.25465817939E+03  0.27732186746E+03  0.87586661899E+02 0.  0.
        -11    1    3    3    0    0 -0.29555886433E+02  0.11210003403E+02  0.74692386075E+02  0.81105900752E+02  0.00000000000E+00 0.  1.
         11    1    3    3    0    0  0.63385726466E+02 -0.73844966244E+00  0.26392436465E+03  0.27143022286E+03  0.00000000000E+00 0. -1.
        -11    1    4    4    0    0 -0.60215060355E+02  0.11910065522E+02 -0.23237872922E+03  0.24034886509E+03  0.00000000000E+00 0.  1.
         11    1    4    4    0    0 -0.36885121792E+01 -0.29274970239E+02 -0.22279450169E+02  0.36973002373E+02  0.00000000000E+00 0. -1.
          1    1    1    2  501    0  0.30073732501E+02  0.68933509768E+01  0.31805409784E+02  0.44311756518E+02  0.00000000000E+00 0. -1.
<scales pt_clust_5="13000.00000" pt_clust_6="13000.00000" pt_clust_7="13000.00000" pt_clust_8="13000.00000" pt_clust_9="30.85366"></scales>
<clustering>
<clus scale="   30.854">  2  9  1 -1</clus>
<clus scale="   87.587">  7  8 -1 -1</clus>
<clus scale="   91.467">  5  6 -1 -1</clus>
<clus scale="   94.772">  2  7  1 -1</clus>
<clus scale="   30.854">  2  5  1 -1</clus>
</clustering>
</event>
<event>
 9    1  0.1671478E-005  0.1218223E+03  0.7546771E-02  0.1240688E+00
         21   -1    0    0  501  502  0.00000000000E+00  0.00000000000E+00  0.39705653219E+03  0.39705653219E+03  0.00000000000E+00 0.  1.
         -1   -1    0    0    0  501 -0.00000000000E+00 -0.00000000000E+00 -0.76525482493E+02  0.76525482493E+02  0.00000000000E+00 0.  1.
         23    2    1    2    0    0  0.39006057479E+02 -0.65228334844E+02  0.26806938814E+02  0.12091820162E+03  0.90146499254E+02 0.  0.
         23    2    1    2    0    0 -0.79568757232E+02  0.51423189232E+02  0.13739892505E+03  0.19057285594E+03  0.92000094003E+02 0.  0.
        -11    1    3    3    0    0  0.54918472029E+02 -0.25844566374E+02  0.44131902266E+02  0.75044020272E+02  0.00000000000E+00 0. -1.
         11    1    3    3    0    0 -0.15912414550E+02 -0.39383768471E+02 -0.17324963451E+02  0.45874181348E+02  0.00000000000E+00 0.  1.
        -13    1    4    4    0    0 -0.98926288392E+02  0.44096536206E+02  0.12846255163E+03  0.16802839704E+03  0.00000000000E+00 0.  1.
         13    1    4    4    0    0  0.19357531159E+02  0.73266530262E+01  0.89363734260E+01  0.22544458901E+02  0.00000000000E+00 0. -1.
         -1    1    1    2    0  502  0.40562699754E+02  0.13805145613E+02  0.15632518583E+03  0.16209095712E+03  0.00000000000E+00 0.  1.
<scales pt_clust_5="13000.00000" pt_clust_6="13000.00000" pt_clust_7="13000.00000" pt_clust_8="13000.00000" pt_clust_9="42.84757"></scales>
<clustering>
<clus scale="   42.848">  1  9  2 -1</clus>
<clus scale="   90.146">  5  6 -1 -1</clus>
<clus scale="   92.000">  7  8 -1 -1</clus>
<clus scale="  120.429">  2  5  1 -1</clus>
<clus scale="   42.848">  1  5  2 -1</clus>
</clustering>
</event>
<event>
 9    1  0.1671478E-005  0.1007651E+03  0.7546771E-02  0.1279149E+00
         21   -1    0    0  501  502  0.00000000000E+00  0.00000000000E+00  0.68334489137E+02  0.68334489137E+02  0.00000000000E+00 0.  1.
         -1   -1    0    0    0  501 -0.00000000000E+00 -0.00000000000E+00 -0.35869322679E+03  0.35869322679E+03  0.00000000000E+00 0.  1.
         23    2    1    2    0    0  0.47965255669E+02 -0.80708557704E+00 -0.21995916820E+03  0.24321927616E+03  0.92044899276E+02 0.  0.
         23    2    1    2    0    0 -0.28659322028E+02 -0.15565432349E+02 -0.10379860063E+03  0.14190052045E+03  0.91093187380E+02 0.  0.
        -11    1    3    3    0    0  0.15958111665E+02 -0.33402995043E+02 -0.17589377734E+03  0.17974716219E+03  0.00000000000E+00 0. -1.
         11    1    3    3    0    0  0.32007144005E+02  0.32595909466E+02 -0.44065390860E+02  0.63472113978E+02  0.00000000000E+00 0.  1.
        -13    1    4    4    0    0 -0.79860308908E+01  0.28870274148E+02 -0.33596163437E+01  0.30142270000E+02  0.00000000000E+00 0. -1.
         13    1    4    4    0    0 -0.20673291137E+02 -0.44435706497E+02 -0.10043898429E+03  0.11175825045E+03  0.00000000000E+00 0.  1.
         -1    1    1    2    0  502 -0.19305933642E+02  0.16372517926E+02  0.33399031185E+02  0.41907919312E+02  0.00000000000E+00 0.  1.
<scales pt_clust_5="13000.00000" pt_clust_6="13000.00000" pt_clust_7="13000.00000" pt_clust_8="13000.00000" pt_clust_9="25.31360"></scales>
<clustering>
<clus scale="   25.314">  1  9  2 -1</clus>
<clus scale="   91.093">  7  8 -1 -1</clus>
<clus scale="   92.045">  5  6 -1 -1</clus>
<clus scale="   99.896">  1  7  2 -1</clus>
<clus scale="   25.314">  1  5  2 -1</clus>
</clustering>
</event>
<event>
 9    1  0.1671478E-005  0.1067387E+03  0.7546771E-02  0.1266968E+00
          1   -1    0    0  502    0 -0.00000000000E+00  0.00000000000E+00  0.34171778415E+03  0.34171778415E+03  0.00000000000E+00 0. -1.
         21   -1    0    0  501  502  0.00000000000E+00 -0.00000000000E+00 -0.10626755656E+03  0.10626755656E+03  0.00000000000E+00 0.  1.
         23    2    1    2    0    0 -0.24147433646E+02 -0.43444398819E+02  0.22889008114E+03  0.25125096818E+03  0.90916804973E+02 0.  0.
         23    2    1    2    0    0  0.75858280183E+01  0.10123977563E+03 -0.25678760125E+01  0.13592390340E+03  0.90341997820E+02 0.  0.
        -11    1    3    3    0    0  0.17440310409E+02 -0.56811487428E+02  0.14399640232E+03  0.15577764092E+03  0.00000000000E+00 0.  1.
         11    1    3    3    0    0 -0.41587744055E+02  0.13367088610E+02  0.84893678817E+02  0.95473327252E+02  0.00000000000E+00 0. -1.
        -13    1    4    4    0    0  0.71763247110E+01  0.51965865876E+02 -0.46354250996E+02  0.70004767252E+02  0.00000000000E+00 0.  1.
         13    1    4    4    0    0  0.40950330725E+00  0.49273909757E+02  0.43786374984E+02  0.65919136143E+02  0.00000000000E+00 0. -1.
          1    1    1    2  501    0  0.16561605628E+02 -0.57795376814E+02  0.91280224632E+01  0.60810469133E+02  0.00000000000E+00 0. -1.
<scales pt_clust_5="13000.00000" pt_clust_6="13000.00000" pt_clust_7="13000.00000" pt_clust_8="13000.00000" pt_clust_9="60.12148"></scales>
<clustering>
<clus scale="   60.121">  2  9  1 -1</clus>
<clus scale="   90.342">  7  8 -1 -1</clus>
<clus scale="   90.917">  5  6 -1 -1</clus>
<clus scale="  106.249">  2  7  1 -1</clus>
<clus scale="   60.121">  2  5  1 -1</clus>
</clustering>
</event>
<event>
 9    1  0.1834858E-005  0.1601812E+03  0.7546771E-02  0.1213281E+00
          1   -1    0    0  502    0 -0.00000000000E+00  0.00000000000E+00  0.11968253520E+04  0.11968253520E+04  0.00000000000E+00 0. -1.
         21   -1    0    0  501  502  0.00000000000E+00 -0.00000000000E+00 -0.64889947820E+02  0.64889947820E+02  0.00000000000E+00 0. -1.
         23    2    1    2    0    0 -0.64765138174E+01 -0.21514396903E+02  0.32557575050E+03  0.33875416548E+03  0.90829515091E+02 0.  0.
         23    2    1    2    0    0  0.13745284765E+03 -0.69328949521E+01  0.76575079968E+03  0.78291425838E+03  0.87401935931E+02 0.  0.
        -11    1    4    4    0    0  0.99240344913E+01 -0.20268272507E+02  0.40032424108E+02  0.45955242475E+02  0.00000000000E+00 0.  1.
         11    1    4    4    0    0  0.12752881316E+03  0.13335377555E+02  0.72571837557E+03  0.73695901590E+03  0.00000000000E+00 0. -1.
        -11    1    3    3    0    0  0.38782419502E+02 -0.25945246350E+02  0.13531133993E+03  0.14313067660E+03  0.00000000000E+00 0.  1.
         11    1    3    3    0    0 -0.45258933319E+02  0.44308494473E+01  0.19026441057E+03  0.19562348888E+03  0.00000000000E+00 0. -1.
          1    1    1    2  501    0 -0.13097633383E+03  0.28447291855E+02  0.40608853979E+02  0.14004687594E+03  0.00000000000E+00 0. -1.
<scales pt_clust_5="13000.00000" pt_clust_6="13000.00000" pt_clust_7="13000.00000" pt_clust_8="13000.00000" pt_clust_9="134.23456"></scales>
<clustering>
<clus scale="   87.402">  5  6 -1 -1</clus>
<clus scale="   90.830">  7  8 -1 -1</clus>
<clus scale="   93.567">  1  7  2 -1</clus>
<clus scale="  134.235">  2  9  1 -1</clus>
<clus scale="  134.235">  2  5  1 -1</clus>
</clustering>
</event>
<event>
 9    1  0.1671478E-005  0.1380959E+03  0.7546771E-02  0.1218676E+00
         -2   -1    0    0    0  501 -0.00000000000E+00  0.00000000000E+00  0.12037580344E+03  0.12037580344E+03  0.00000000000E+00 0.  1.
         21   -1    0    0  501  502  0.00000000000E+00 -0.00000000000E+00 -0.20569331103E+03  0.20569331103E+03  0.00000000000E+00 0.  1.
         23    2    1    2    0    0  0.47836644930E+02 -0.36839754721E+02  0.76072238409E+01  0.13506848542E+03  0.12058239413E+03 0.  0.
         23    2    1    2    0    0 -0.54606213591E+02  0.61293015081E+02 -0.90649795604E+02  0.16552585064E+03  0.11154707314E+03 0.  0.
        -11    1    3    3    0    0  0.71256903299E+02  0.17019937918E+02  0.17962319745E+02  0.75431223543E+02  0.00000000000E+00 0. -1.
         11    1    3    3    0    0 -0.23420258370E+02 -0.53859692639E+02 -0.10355095904E+02  0.59637261879E+02  0.00000000000E+00 0.  1.
        -13    1    4    4    0    0 -0.30003691245E+02  0.35520823076E+02 -0.11387010142E+03  0.12299735915E+03  0.00000000000E+00 0.  1.
         13    1    4    4    0    0 -0.24602522345E+02  0.25772192005E+02  0.23220305815E+02  0.42528491493E+02  0.00000000000E+00 0. -1.
         -2    1    1    2    0  502  0.67695686610E+01 -0.24453260361E+02 -0.22749358297E+01  0.25474778412E+02  0.00000000000E+00 0.  1.
<scales pt_clust_5="13000.00000" pt_clust_6="13000.00000" pt_clust_7="13000.00000" pt_clust_8="13000.00000" pt_clust_9="25.37301"></scales>
<clustering>
<clus scale="   25.373">  2  9  1 -1</clus>
<clus scale="  111.547">  7  8 -1 -1</clus>
<clus scale="  120.582">  5  6 -1 -1</clus>
<clus scale="  130.281">  2  7  1 -1</clus>
<clus scale="   25.373">  2  5  1 -1</clus>
</clustering>
</event>
<event>
 9    1  0.1671478E-005  0.9142112E+02  0.7546771E-02  0.1305180E+00
         21   -1    0    0  501  502  0.00000000000E+00  0.00000000000E+00  0.19695172229E+03  0.19695172229E+03  0.00000000000E+00 0. -1.
          1   -1    0    0  502    0 -0.00000000000E+00 -0.00000000000E+00 -0.45515343891E+03  0.45515343891E+03  0.00000000000E+00 0. -1.
         23    2    1    2    0    0  0.97126276149E+01  0.13536213387E+02 -0.20646029357E+03  0.22222705153E+03  0.80507424538E+02 0.  0.
         23    2    1    2    0    0  0.57345566736E+02  0.10728905187E+02 -0.22134126844E+03  0.24589521653E+03  0.89826927849E+02 0.  0.
        -11    1    3    3    0    0  0.43557558170E+02  0.61159895494E+01 -0.82222265691E+02  0.93247880283E+02  0.00000000000E+00 0.  1.
         11    1    3    3    0    0 -0.33844930555E+02  0.74202238373E+01 -0.12423802788E+03  0.12897917125E+03  0.00000000000E+00 0. -1.
        -13    1    4    4    0    0  0.30825789307E+02 -0.39529126194E+02 -0.97132507506E+02  0.10930464363E+03  0.00000000000E+00 0.  1.
         13    1    4    4    0    0  0.26519777429E+02  0.50258031380E+02 -0.12420876094E+03  0.13659057290E+03  0.00000000000E+00 0. -1.
          1    1    1    2  501    0 -0.67058194351E+02 -0.24265118573E+02  0.16959984539E+03  0.18398289314E+03  0.00000000000E+00 0. -1.
<scales pt_clust_5="13000.00000" pt_clust_6="13000.00000" pt_clust_7="13000.00000" pt_clust_8="13000.00000" pt_clust_9="71.31337"></scales>
<clustering>
<clus scale="   71.313">  1  9  2 -1</clus>
<clus scale="   80.507">  5  6 -1 -1</clus>
<clus scale="   82.282">  2  5  1 -1</clus>
<clus scale="   89.827">  7  8 -1 -1</clus>
<clus scale="   71.313">  1  5  2 -1</clus>
</clustering>
</event>
<event>
 9    1  0.1671478E-005  0.1145655E+03  0.7546771E-02  0.1252395E+00
         21   -1    0    0  501  502  0.00000000000E+00  0.00000000000E+00  0.46437418224E+03  0.46437418224E+03  0.00000000000E+00 0.  1.
          3   -1    0    0  502    0 -0.00000000000E+00 -0.00000000000E+00 -0.47073886174E+02  0.47073886174E+02  0.00000000000E+00 0. -1.
         23    2    1    2    0    0 -0.19242762180E+02  0.52306060218E+02  0.94565994143E+02  0.14320109651E+03  0.91965313909E+02 0.  0.
         23    2    1    2    0    0  0.39485749333E+02 -0.79621246405E+02  0.17599287369E+03  0.21761847299E+03  0.92117538594E+02 0.  0.
        -11    1    4    4    0    0  0.55943782086E+02 -0.17850965955E+02  0.11568186248E+03  0.12973302219E+03  0.00000000000E+00 0.  1.
         11    1    4    4    0    0 -0.16458032753E+02 -0.61770280450E+02  0.60311011214E+02  0.87885450802E+02  0.00000000000E+00 0. -1.
        -11    1    3    3    0    0  0.21322994627E+02  0.16120376282E+02 -0.73249376181E+01  0.27716264944E+02  0.00000000000E+00 0.  1.
         11    1    3    3    0    0 -0.40565756807E+02  0.36185683936E+02  0.10189093176E+03  0.11548483157E+03  0.00000000000E+00 0. -1.
          3    1    1    2  501    0 -0.20242987153E+02  0.27315186187E+02  0.14674142823E+03  0.15062849891E+03  0.00000000000E+00 0. -1.
<scales pt_clust_5="13000.00000" pt_clust_6="13000.00000" pt_clust_7="13000.00000" pt_clust_8="13000.00000" pt_clust_9="33.99850"></scales>
<clustering>
<clus scale="   33.998">  1  9  2 -1</clus>
<clus scale="   91.965">  7  8 -1 -1</clus>
<clus scale="   92.118">  5  6 -1 -1</clus>
<clus scale="  114.443">  2  7  1 -1</clus>
<clus scale="   33.998">  1  5  2 -1</clus>
</clustering>
</event>
<event>
 9    1  0.1671478E-005  0.4295856E+03  0.7546771E-02  0.1040606E+00
          1   -1    0    0  502    0 -0.00000000000E+00  0.00000000000E+00  0.20003478089E+04  0.20003478089E+04  0.00000000000E+00 0. -1.
         21   -1    0    0  501  502  0.00000000000E+00 -0.00000000000E+00 -0.22259415065E+03  0.22259415065E+03  0.00000000000E+00 0. -1.
         23    2    1    2    0    0  0.30275599063E+03 -0.16272312693E+03  0.65492486692E+03  0.74448169838E+03  0.84772707946E+02 0.  0.
         23    2    1    2    0    0 -0.44192469578E+03 -0.19209505667E+03  0.30937572312E+03  0.58014530188E+03  0.93044536134E+02 0.  0.
        -11    1    3    3    0    0  0.24554117312E+03 -0.14426793032E+03  0.59477404779E+03  0.65943905810E+03  0.00000000000E+00 0. -1.
         11    1    3    3    0    0  0.57214817512E+02 -0.18455196606E+02  0.60150819129E+02  0.85042640285E+02  0.00000000000E+00 0.  1.
        -13    1    4    4    0    0 -0.36048166410E+03 -0.17228225901E+03  0.21423268485E+03  0.45334738356E+03  0.00000000000E+00 0. -1.
         13    1    4    4    0    0 -0.81443031684E+02 -0.19812797655E+02  0.95143038267E+02  0.12679791832E+03  0.00000000000E+00 0.  1.
          1    1    1    2  501    0  0.13916870515E+03  0.35481818359E+03  0.81345306820E+03  0.89831495928E+03  0.00000000000E+00 0. -1.
<scales pt_clust_5="13000.00000" pt_clust_6="13000.00000" pt_clust_7="13000.00000" pt_clust_8="13000.00000" pt_clust_9="419.38841"></scales>
<clustering>
<clus scale="   84.773">  5  6 -1 -1</clus>
<clus scale="   93.045">  7  8 -1 -1</clus>
<clus scale="  354.015">  1  5  2 -1</clus>
<clus scale="  419.388">  2  9  1 -1</clus>
<clus scale="  419.388">  2  5  1 -1</clus>
</clustering>
</event>
<event>
 9    1  0.1671478E-005  0.1063659E+03  0.7546771E-02  0.1271170E+00
         21   -1    0    0  501  502  0.00000000000E+00  0.00000000000E+00  0.14389778813E+03  0.14389778813E+03  0.00000000000E+00 0.  1.
          1   -1    0    0  502    0 -0.00000000000E+00 -0.00000000000E+00 -0.13918692717E+03  0.13918692717E+03  0.00000000000E+00 0. -1.
         23    2    1    2    0    0 -0.29541484035E+01  0.47721174864E+02 -0.51404564962E+02  0.12142152170E+03  0.99069264205E+02 0.  0.
         23    2    1    2    0    0  0.31459660464E+02 -0.18170627730E+02  0.79775843122E+01  0.98393525918E+02  0.91092053125E+02 0.  0.
        -11    1    3    3    0    0 -0.23674764397E+02 -0.23279906257E+02 -0.29149434472E+02  0.44183006175E+02  0.00000000000E+00 0. -1.
         11    1    3    3    0    0  0.20720615994E+02  0.71001081122E+02 -0.22255130490E+02  0.77238515526E+02  0.00000000000E+00 0.  1.
        -13    1    4    4    0    0  0.42747012712E+02  0.18706812763E+02 -0.19981004962E+02  0.50759161723E+02  0.00000000000E+00 0.  1.
         13    1    4    4    0    0 -0.11287352248E+02 -0.36877440493E+02  0.27958589274E+02  0.47634364195E+02  0.00000000000E+00 0. -1.
          1    1    1    2  501    0 -0.28505512060E+02 -0.29550547135E+02  0.48137841606E+02  0.63269667679E+02  0.00000000000E+00 0. -1.
<scales pt_clust_5="13000.00000" pt_clust_6="13000.00000" pt_clust_7="13000.00000" pt_clust_8="13000.00000" pt_clust_9="41.05848"></scales>
<clustering>
<clus scale="   41.058">  1  9  2 -1</clus>
<clus scale="   91.092">  7  8 -1 -1</clus>
<clus scale="   98.978">  1  7  2 -1</clus>
<clus scale="   99.069">  5  6 -1 -1</clus>
<clus scale="   41.058">  1  5  2 -1</clus>
</clustering>
</event>
<event>
 9    1  0.1671478E-005  0.1143597E+03  0.7546771E-02  0.1257341E+00
          1   -1    0    0  502    0 -0.00000000000E+00  0.00000000000E+00  0.39851022515E+02  0.39851022515E+02  0.00000000000E+00 0. -1.
         21   -1    0    0  501  502  0.00000000000E+00 -0.00000000000E+00 -0.43947887560E+03  0.43947887560E+03  0.00000000000E+00 0. -1.
         23    2    1    2    0    0 -0.58240066027E+02  0.53615654245E+02 -0.15318427432E+03  0.19789320109E+03  0.97106917725E+02 0.  0.
         23    2    1    2    0    0  0.26450256880E+02 -0.28419760641E+02 -0.19188867576E+03  0.21345388697E+03  0.85052919374E+02 0.  0.
        -11    1    3    3    0    0 -0.83066430227E+02  0.23735832649E+02 -0.10316733143E+03  0.13456195546E+03  0.00000000000E+00 0. -1.
         11    1    3    3    0    0  0.24826364200E+02  0.29879821596E+02 -0.50016942888E+02  0.63331245636E+02  0.00000000000E+00 0.  1.
        -13    1    4    4    0    0  0.44916444306E+02  0.10124137945E+02 -0.65728777728E+02  0.80251214071E+02  0.00000000000E+00 0. -1.
         13    1    4    4    0    0 -0.18466187426E+02 -0.38543898586E+02 -0.12615989804E+03  0.13320267290E+03  0.00000000000E+00 0.  1.
          1    1    1    2  501    0  0.31789809147E+02 -0.25195893604E+02 -0.54554903008E+02  0.67982810050E+02  0.00000000000E+00 0. -1.
<scales pt_clust_5="13000.00000" pt_clust_6="13000.00000" pt_clust_7="13000.00000" pt_clust_8="13000.00000" pt_clust_9="40.56386"></scales>
<clustering>
<clus scale="   40.564">  2  9  1 -1</clus>
<clus scale="   85.053">  7  8 -1 -1</clus>
<clus scale="   97.107">  5  6 -1 -1</clus>
<clus scale="  104.319">  2  7  1 -1</clus>
<clus scale="   40.564">  2  5  1 -1</clus>
</clustering>
</event>
<event>
 9    1  0.1671478E-005  0.9927022E+02  0.7546771E-02  0.1284052E+00
         21   -1    0    0  501  502  0.00000000000E+00  0.00000000000E+00  0.34740387613E+02  0.34740387613E+02  0.00000000000E+00 0. -1.
          2   -1    0    0  502    0 -0.00000000000E+00 -0.00000000000E+00 -0.56412763320E+03  0.56412763320E+03  0.00000000000E+00 0. -1.
         23    2    1    2    0    0 -0.20698158156E+02 -0.17843222508E+02 -0.25660000022E+03  0.27267070357E+03  0.88084948374E+02 0.  0.
         23    2    1    2    0    0  0.48238019298E+02  0.93369345351E+01 -0.27785384613E+03  0.29693178581E+03  0.92475081841E+02 0.  0.
        -13    1    3    3    0    0  0.32624962390E+02 -0.20868198788E+02 -0.10196442444E+03  0.10907159916E+03  0.00000000000E+00 0. -1.
         13    1    3    3    0    0 -0.53323120546E+02  0.30249762806E+01 -0.15463557578E+03  0.16359910440E+03  0.00000000000E+00 0.  1.
        -13    1    4    4    0    0 -0.24591747010E+02  0.84104127641E+01 -0.12418415142E+03  0.12687471193E+03  0.00000000000E+00 0.  1.
         13    1    4    4    0    0  0.72829766308E+02  0.92652177103E+00 -0.15366969471E+03  0.17005707387E+03  0.00000000000E+00 0. -1.
          2    1    1    2  501    0 -0.27539861142E+02  0.85062879724E+01  0.50666007678E+01  0.29265531434E+02  0.00000000000E+00 0. -1.
<scales pt_clust_5="13000.00000" pt_clust_6="13000.00000" pt_clust_7="13000.00000" pt_clust_8="13000.00000" pt_clust_9="28.82362"></scales>
<clustering>
<clus scale="   28.824">  1  9  2 -1</clus>
<clus scale="   88.085">  5  6 -1 -1</clus>
<clus scale="   92.475">  7  8 -1 -1</clus>
<clus scale="   95.194">  2  5  1 -1</clus>
<clus scale="   28.824">  1  5  2 -1</clus>
</clustering>
</event>
<event>
 9    1  0.1671478E-005  0.9883552E+02  0.7546771E-02  0.1283399E+00
         -1   -1    0    0    0  501 -0.00000000000E+00  0.00000000000E+00  0.17653204591E+03  0.17653204591E+03  0.00000000000E+00 0.  1.
         21   -1    0    0  501  502  0.00000000000E+00 -0.00000000000E+00 -0.82051370185E+02  0.82051370185E+02  0.00000000000E+00 0. -1.
         23    2    1    2    0    0 -0.27384601781E+02 -0.13068394227E+02  0.59015676374E+02  0.11313787222E+03  0.91633120267E+02 0.  0.
         23    2    1    2    0    0  0.21477161474E+02  0.34302072595E+02  0.55614141931E+02  0.11558327848E+03  0.92890585278E+02 0.  0.
        -11    1    3    3    0    0  0.39989133157E+01  0.26435483812E+02  0.56635361131E+02  0.62628988835E+02  0.00000000000E+00 0.  1.
         11    1    3    3    0    0 -0.31383515097E+02 -0.39503878039E+02  0.23803152430E+01  0.50508883383E+02  0.00000000000E+00 0. -1.
        -13    1    4    4    0    0  0.11547163454E+02 -0.28154480880E+02 -0.13629175081E+01  0.30460947484E+02  0.00000000000E+00 0. -1.
         13    1    4    4    0    0  0.99299980195E+01  0.62456553475E+02  0.56977059439E+02  0.85122331001E+02  0.00000000000E+00 0.  1.
         -1    1    1    2    0  502  0.59074403074E+01 -0.21233678368E+02 -0.20149142576E+02  0.29862265396E+02  0.00000000000E+00 0.  1.
<scales pt_clust_5="13000.00000" pt_clust_6="13000.00000" pt_clust_7="13000.00000" pt_clust_8="13000.00000" pt_clust_9="22.04012"></scales>
<clustering>
<clus scale="   22.040">  2  9  1 -1</clus>
<clus scale="   91.633">  5  6 -1 -1</clus>
<clus scale="   92.891">  7  8 -1 -1</clus>
<clus scale="   97.655">  1  5  2 -1</clus>
<clus scale="   22.040">  2  5  1 -1</clus>
</clustering>
</event>
<event>
 9    1  0.2051462E-005  0.1049494E+03  0.7546771E-02  0.1270306E+00
         -1   -1    0    0    0  501 -0.00000000000E+00  0.00000000000E+00  0.27624411138E+03  0.27624411138E+03  0.00000000000E+00 0.  1.
         21   -1    0    0  501  502  0.00000000000E+00 -0.00000000000E+00 -0.27276330140E+03  0.27276330140E+03  0.00000000000E+00 0.  1.
         23    2    1    2    0    0  0.30319580226E+02 -0.46625845923E+02  0.20110341857E+03  0.22805775426E+03  0.92057090246E+02 0.  0.
         23    2    1    2    0    0  0.30735729298E+01  0.40946422747E+02  0.18401511632E+02  0.10228603776E+03  0.91857288794E+02 0.  0.
        -13    1    4    4    0    0  0.28745211003E+02  0.34419200074E+02  0.45854644303E+02  0.64137484309E+02  0.00000000000E+00 0.  1.
         13    1    4    4    0    0 -0.25671638073E+02  0.65272226733E+01 -0.27453132672E+02  0.38148553454E+02  0.00000000000E+00 0. -1.
        -13    1    3    3    0    0 -0.49414757299E+01  0.22943104761E+02  0.19858462490E+02  0.30743499654E+02  0.00000000000E+00 0. -1.
         13    1    3    3    0    0  0.35261055956E+02 -0.69568950684E+02  0.18124495608E+03  0.19731425460E+03  0.00000000000E+00 0.  1.
         -1    1    1    2    0  502 -0.33393153155E+02  0.56794231757E+01 -0.21602412022E+03  0.21866362076E+03  0.00000000000E+00 0.  1.
<scales pt_clust_5="13000.00000" pt_clust_6="13000.00000" pt_clust_7="13000.00000" pt_clust_8="13000.00000" pt_clust_9="33.87268"></scales>
<clustering>
<clus scale="   33.873">  2  9  1 -1</clus>
<clus scale="   91.857">  5  6 -1 -1</clus>
<clus scale="   92.057">  7  8 -1 -1</clus>
<clus scale="  104.774">  2  5  1 -1</clus>
<clus scale="   33.873">  2  5  1 -1</clus>
</clustering>
</event>
<event>
 9    1  0.1671478E-005  0.2284358E+03  0.7546771E-02  0.1127862E+00
         21   -1    0    0  501  502  0.00000000000E+00  0.00000000000E+00  0.41349111647E+03  0.41349111647E+03  0.00000000000E+00 0. -1.
         -3   -1    0    0    0  501 -0.00000000000E+00 -0.00000000000E+00 -0.25244764573E+03  0.25244764573E+03  0.00000000000E+00 0.  1.
         23    2    1    2    0    0 -0.51703076999E+02 -0.18661841005E+03 -0.86603024693E+02  0.23088142854E+03  0.91140062633E+02 0.  0.
         23    2    1    2    0    0  0.94593459447E+02  0.24834994487E+03  0.17513528622E+03  0.33061480037E+03  0.89488323602E+02 0.  0.
        -11    1    4    4    0    0  0.26904940805E+01  0.72180893079E+02  0.87461227830E+02  0.11343185821E+03  0.00000000000E+00 0. -1.
         11    1    4    4    0    0  0.91902965367E+02  0.17616905179E+03  0.87674058391E+02  0.21718294216E+03  0.00000000000E+00 0.  1.
        -11    1    3    3    0    0 -0.45893363366E+02 -0.59310013222E+02  0.30665602108E+01  0.75055194764E+02  0.00000000000E+00 0. -1.
         11    1    3    3    0    0 -0.58097136324E+01 -0.12730839683E+03 -0.89669584904E+02  0.15582623377E+03  0.00000000000E+00 0.  1.
         -3    1    1    2    0  502 -0.42890382449E+02 -0.61731534817E+02  0.72511209217E+02  0.10444253329E+03  0.00000000000E+00 0.  1.
<scales pt_clust_5="13000.00000" pt_clust_6="13000.00000" pt_clust_7="13000.00000" pt_clust_8="13000.00000" pt_clust_9="75.16893"></scales>
<clustering>
<clus scale="   75.169">  1  9  2 -1</clus>
<clus scale="   89.488">  5  6 -1 -1</clus>
<clus scale="   91.140">  7  8 -1 -1</clus>
<clus scale="  227.782">  1  5  2 -1</clus>
<clus scale="   75.169">  1  5  2 -1</clus>
</clustering>
</event>
<event>
 9    1  0.1671478E-005  0.1001003E+03  0.7546771E-02  0.1285647E+00
         21   -1    0    0  501  502  0.00000000000E+00  0.00000000000E+00  0.20362043047E+03  0.20362043047E+03  0.00000000000E+00 0.  1.
          3   -1    0    0  502    0 -0.00000000000E+00 -0.00000000000E+00 -0.15830430928E+03  0.15830430928E+03  0.00000000000E+00 0. -1.
         23    2    1    2    0    0  0.18995505450E+02 -0.19786919464E+02 -0.10504813193E+03  0.13910827013E+03  0.86969243923E+02 0.  0.
         23    2    1    2    0    0  0.34853063202E+02  0.25353319396E+02  0.75722343233E+02  0.13060981115E+03  0.97301195699E+02 0.  0.
        -11    1    4    4    0    0 -0.30654616030E+02 -0.95898386676E+01  0.20956589343E+02  0.38351650896E+02  0.00000000000E+00 0.  1.
         11    1    4    4    0    0  0.65507679232E+02  0.34943158064E+02  0.54765753891E+02  0.92258160252E+02  0.00000000000E+00 0. -1.
        -13    1    3    3    0    0 -0.26192834962E+02 -0.19546951991E+02 -0.10519581956E+02  0.34333795887E+02  0.00000000000E+00 0.  1.
         13    1    3    3    0    0  0.45188340412E+02 -0.23996747276E+00 -0.94528549973E+02  0.10477447425E+03  0.00000000000E+00 0. -1.
          3    1    1    2  501    0 -0.53848568652E+02 -0.55663999325E+01  0.74641909887E+02  0.92206658467E+02  0.00000000000E+00 0. -1.
<scales pt_clust_5="13000.00000" pt_clust_6="13000.00000" pt_clust_7="13000.00000" pt_clust_8="13000.00000" pt_clust_9="54.13551"></scales>
<clustering>
<clus scale="   54.136">  1  9  2 -1</clus>
<clus scale="   86.969">  7  8 -1 -1</clus>
<clus scale="   90.090">  2  7  1 -1</clus>
<clus scale="   97.301">  5  6 -1 -1</clus>
<clus scale="   54.136">  1  5  2 -1</clus>
</clustering>
</event>
<event>
 9    1  0.1671478E-005  0.9452929E+02  0.7546771E-02  0.1292964E+00
         21   -1    0    0  501  502  0.00000000000E+00  0.00000000000E+00  0.21587871031E+03  0.21587871031E+03  0.00000000000E+00 0. -1.
         -3   -1    0    0    0  501 -0.00000000000E+00 -0.00000000000E+00 -0.82972024291E+02  0.82972024291E+02  0.00000000000E+00 0.  1.
         23    2    1    2    0    0 -0.11968571284E+02  0.26736529665E+02 -0.21906838844E+02  0.97778025095E+02  0.90678243732E+02 0.  0.
         23    2    1    2    0    0  0.95539995945E+01  0.85375540573E+01  0.10887308815E+03  0.14310189905E+03  0.91981712596E+02 0.  0.
        -11    1    3    3    0    0 -0.23839348353E+02  0.57129398862E+02 -0.20154616097E+02  0.65102160442E+02  0.00000000000E+00 0.  1.
         11    1    3    3    0    0  0.11870777068E+02 -0.30392869197E+02 -0.17522227473E+01  0.32675864653E+02  0.00000000000E+00 0. -1.
        -13    1    4    4    0    0  0.81869274151E+01 -0.36586370169E+02  0.82985668045E+02  0.91061569081E+02  0.00000000000E+00 0. -1.
         13    1    4    4    0    0  0.13670721794E+01  0.45123924227E+02  0.25887420103E+02  0.52040329972E+02  0.00000000000E+00 0.  1.
         -3    1    1    2    0  502  0.24145716895E+01 -0.35274083722E+02  0.45940436711E+02  0.57970810449E+02  0.00000000000E+00 0.  1.
<scales pt_clust_5="13000.00000" pt_clust_6="13000.00000" pt_clust_7="13000.00000" pt_clust_8="13000.00000" pt_clust_9="35.35663"></scales>
<clustering>
<clus scale="   35.357">  1  9  2 -1</clus>
<clus scale="   90.678">  5  6 -1 -1</clus>
<clus scale="   91.982">  7  8 -1 -1</clus>
<clus scale="   93.261">  2  5  1 -1</clus>
<clus scale="   35.357">  1  5  2 -1</clus>
</clustering>
</event>
<event>
 9    1  0.1671478E-005  0.1627610E+03  0.7546771E-02  0.1203791E+00
         21   -1    0    0  501  502  0.00000000000E+00  0.00000000000E+00  0.48779672067E+03  0.48779672067E+03  0.00000000000E+00 0. -1.
          3   -1    0    0  502    0 -0.00000000000E+00 -0.00000000000E+00 -0.11907450627E+03  0.11907450627E+03  0.00000000000E+00 0. -1.
         23    2    1    2    0    0 -0.32338403376E+02 -0.49112990154E+02  0.26243685433E+01  0.10930952499E+03  0.92107691364E+02 0.  0.
         23    2    1    2    0    0  0.13925160422E+03 -0.36407617281E+02  0.95414648218E+02  0.19422426559E+03  0.88896492473E+02 0.  0.
        -11    1    3    3    0    0 -0.50800900634E+02  0.58901035709E+01  0.37616656001E+01  0.51279381367E+02  0.00000000000E+00 0. -1.
         11    1    3    3    0    0  0.18462497258E+02 -0.55003093725E+02 -0.11372970568E+01  0.58030143623E+02  0.00000000000E+00 0.  1.
        -13    1    4    4    0    0  0.13613871523E+02 -0.36389237038E+02  0.43385898622E+02  0.58239593657E+02  0.00000000000E+00 0.  1.
         13    1    4    4    0    0  0.12563773270E+03 -0.18380242892E-01  0.52028749596E+02  0.13598467193E+03  0.00000000000E+00 0. -1.
          3    1    1    2  501    0 -0.10691320085E+03  0.85520607435E+02  0.27068319764E+03  0.30333743636E+03  0.00000000000E+00 0. -1.
<scales pt_clust_5="13000.00000" pt_clust_6="13000.00000" pt_clust_7="13000.00000" pt_clust_8="13000.00000" pt_clust_9="136.33985"></scales>
<clustering>
<clus scale="   88.896">  7  8 -1 -1</clus>
<clus scale="   92.108">  5  6 -1 -1</clus>
<clus scale="  109.278">  2  5  1 -1</clus>
<clus scale="  136.340">  1  9  2 -1</clus>
<clus scale="  136.340">  1  5  2 -1</clus>
</clustering>
</event>
<event>
 9    1  0.1671478E-005  0.2249728E+03  0.7546771E-02  0.1130666E+00
         21   -1    0    0  501  502  0.00000000000E+00  0.00000000000E+00  0.12152193819E+03  0.12152193819E+03  0.00000000000E+00 0.  1.
          2   -1    0    0  502    0 -0.00000000000E+00 -0.00000000000E+00 -0.76720518521E+03  0.76720518521E+03  0.00000000000E+00 0. -1.
         23    2    1    2    0    0 -0.13866716883E+03 -0.14770622336E+03 -0.50083936425E+03  0.54732530872E+03  0.87631116911E+02 0.  0.
         23    2    1    2    0    0  0.12012357606E+03  0.17351997130E+03 -0.18093584597E+03  0.29330977559E+03  0.93562760387E+02 0.  0.
        -11    1    3    3    0    0 -0.52653966800E+02 -0.10855051852E+03 -0.34006006380E+03  0.36082752429E+03  0.00000000000E+00 0. -1.
         11    1    3    3    0    0 -0.86013202032E+02 -0.39155704840E+02 -0.16077930045E+03  0.18649778443E+03  0.00000000000E+00 0.  1.
        -13    1    4    4    0    0  0.13545699151E+03  0.15114287692E+03 -0.16688036655E+03  0.26275810650E+03  0.00000000000E+00 0.  1.
         13    1    4    4    0    0 -0.15333415447E+02  0.22377094379E+02 -0.14055479427E+02  0.30551669088E+02  0.00000000000E+00 0. -1.
          2    1    1    2  501    0  0.18543592769E+02 -0.25813747941E+02  0.36091963206E+02  0.48092039088E+02  0.00000000000E+00 0. -1.
<scales pt_clust_5="13000.00000" pt_clust_6="13000.00000" pt_clust_7="13000.00000" pt_clust_8="13000.00000" pt_clust_9="31.78387"></scales>
<clustering>
<clus scale="   31.784">  1  9  2 -1</clus>
<clus scale="   87.631">  5  6 -1 -1</clus>
<clus scale="   93.563">  7  8 -1 -1</clus>
<clus scale="  222.571">  2  5  1 -1</clus>
<clus scale="   31.784">  1  5  2 -1</clus>
</clustering>
</event>
<event>
 9    1  0.1671478E-005  0.1040594E+03  0.7546771E-02  0.1273354E+00
         21   -1    0    0  501  502  0.00000000000E+00  0.00000000000E+00  0.73492691834E+03  0.73492691834E+03  0.00000000000E+00 0.  1.
         -2   -1    0    0    0  501 -0.00000000000E+00 -0.00000000000E+00 -0.20649390543E+02  0.20649390543E+02  0.00000000000E+00 0.  1.
         23    2    1    2    0    0  0.40423055924E+02 -0.12566947658E+02  0.23754585023E+03  0.25820289452E+03  0.91917093916E+02 0.  0.
         23    2    1    2    0    0 -0.45955887120E+02 -0.21090415944E+02  0.35141351592E+03  0.36749627247E+03  0.94896269198E+02 0.  0.
        -11    1    3    3    0    0  0.66244883361E+02 -0.22367294233E+02  0.19787417577E+03  0.20986393177E+03  0.00000000000E+00 0. -1.
         11    1    3    3    0    0 -0.25821827437E+02  0.98003465743E+01  0.39671674468E+02  0.48338962755E+02  0.00000000000E+00 0.  1.
        -13    1    4    4    0    0 -0.56885303800E+02 -0.47140142425E+02  0.19446952131E+03  0.20803010728E+03  0.00000000000E+00 0.  1.
         13    1    4    4    0    0  0.10929416680E+02  0.26049726480E+02  0.15694399461E+03  0.15946616520E+03  0.00000000000E+00 0. -1.
         -2    1    1    2    0  502  0.55328311960E+01  0.33657363603E+02  0.12531816165E+03  0.12987714188E+03  0.00000000000E+00 0.  1.
<scales pt_clust_5="13000.00000" pt_clust_6="13000.00000" pt_clust_7="13000.00000" pt_clust_8="13000.00000" pt_clust_9="34.10909"></scales>
<clustering>
<clus scale="   34.109">  1  9  2 -1</clus>
<clus scale="   91.917">  5  6 -1 -1</clus>
<clus scale="   94.896">  7  8 -1 -1</clus>
<clus scale="  101.350">  2  5  1 -1</clus>
<clus scale="   34.109">  1  5  2 -1</clus>
</clustering>
</event>
<event>
 9    1  0.1671478E-005  0.1212147E+03  0.7546771E-02  0.1242636E+00
         21   -1    0    0  501  502  0.00000000000E+00  0.00000000000E+00  0.37281247552E+03  0.37281247552E+03  0.00000000000E+00 0. -1.
         -1   -1    0    0    0  501 -0.00000000000E+00 -0.00000000000E+00 -0.11647147409E+03  0.11647147409E+03  0.00000000000E+00 0.  1.
         23    2    1    2    0    0 -0.70870788509E+02 -0.42967932747E+02 -0.48279835235E+02  0.13252772787E+03  0.91453508705E+02 0.  0.
         23    2    1    2    0    0  0.75820296290E+02  0.37299338330E+01  0.11367927160E+03  0.16176186424E+03  0.86494474949E+02 0.  0.
        -13    1    3    3    0    0 -0.19723390247E+02 -0.64059494333E+02 -0.17749316919E+02  0.69337357811E+02  0.00000000000E+00 0.  1.
         13    1    3    3    0    0 -0.51147398262E+02  0.21091561586E+02 -0.30530518316E+02  0.63190370055E+02  0.00000000000E+00 0. -1.
        -13    1    4    4    0    0  0.33350984972E+02 -0.19071045501E+02  0.14534438048E+00  0.38418928930E+02  0.00000000000E+00 0.  1.
         13    1    4    4    0    0  0.42469311318E+02  0.22800979334E+02  0.11353392722E+03  0.12334293531E+03  0.00000000000E+00 0. -1.
         -1    1    1    2    0  502 -0.49495077812E+01  0.39237998914E+02  0.19094156507E+03  0.19499435750E+03  0.00000000000E+00 0.  1.
<scales pt_clust_5="13000.00000" pt_clust_6="13000.00000" pt_clust_7="13000.00000" pt_clust_8="13000.00000" pt_clust_9="39.54893"></scales>
<clustering>
<clus scale="   39.549">  1  9  2 -1</clus>
<clus scale="   86.494">  7  8 -1 -1</clus>
<clus scale="   91.454">  5  6 -1 -1</clus>
<clus scale="  117.518">  1  7  2 -1</clus>
<clus scale="   39.549">  1  5  2 -1</clus>
</clustering>
</event>
<event>
 9    1  0.1671478E-005  0.1126131E+03  0.7546771E-02  0.1255827E+00
         21   -1    0    0  501  502  0.00000000000E+00  0.00000000000E+00  0.22563269301E+03  0.22563269301E+03  0.00000000000E+00 0. -1.
         -3   -1    0    0    0  501 -0.00000000000E+00 -0.00000000000E+00 -0.11239816173E+03  0.11239816173E+03  0.00000000000E+00 0.  1.
         23    2    1    2    0    0  0.58647667441E+02 -0.26654920315E+02 -0.29980010335E+02  0.11552616746E+03  0.91090398372E+02 0.  0.
         23    2    1    2    0    0 -0.51777615962E+02  0.51401519788E+02  0.51969005615E+02  0.12771365588E+03  0.91032755649E+02 0.  0.
        -13    1    4    4    0    0 -0.64242589487E+02  0.11487465201E+01  0.22141404582E+02  0.67960810173E+02  0.00000000000E+00 0.  1.
         13    1    4    4    0    0  0.12464973524E+02  0.50252773268E+02  0.29827601033E+02  0.59752845702E+02  0.00000000000E+00 0. -1.
        -13    1    3    3    0    0  0.15957678191E+02 -0.38366291211E+02 -0.51608650593E+02  0.66257623037E+02  0.00000000000E+00 0.  1.
         13    1    3    3    0    0  0.42689989250E+02  0.11711370896E+02  0.21628640257E+02  0.49268544425E+02  0.00000000000E+00 0. -1.
         -3    1    1    2    0  502 -0.68700514787E+01 -0.24746599473E+02  0.91245536009E+02  0.94791031403E+02  0.00000000000E+00 0.  1.
<scales pt_clust_5="13000.00000" pt_clust_6="13000.00000" pt_clust_7="13000.00000" pt_clust_8="13000.00000" pt_clust_9="25.68252"></scales>
<clustering>
<clus scale="   25.683">  1  9  2 -1</clus>
<clus scale="   91.033">  5  6 -1 -1</clus>
<clus scale="   91.090">  7  8 -1 -1</clus>
<clus scale="  112.566">  1  5  2 -1</clus>
<clus scale="   25.683">  1  5  2 -1</clus>
</clustering>
</event>
<event>
 9    1  0.1671478E-005  0.1195394E+03  0.7546771E-02  0.1243867E+00
          1   -1    0    0  502    0 -0.00000000000E+00  0.00000000000E+00  0.47274643171E+03  0.47274643171E+03  0.00000000000E+00 0. -1.
         21   -1    0    0  501  502  0.00000000000E+00 -0.00000000000E+00 -0.82198276711E+02  0.82198276711E+02  0.00000000000E+00 0.  1.
         23    2    1    2    0    0 -0.32597504683E+02 -0.65833515072E+02  0.19299320939E+03  0.22600692416E+03  0.91848254614E+02 0.  0.
         23    2    1    2    0    0 -0.68549483593E+02  0.95833038795E+02  0.15474227460E+03  0.21507993667E+03  0.91821591054E+02 0.  0.
        -11    1    4    4    0    0 -0.80906610954E+02  0.36480739158E+02  0.91218742383E+02  0.12726972534E+03  0.00000000000E+00 0.  1.
         11    1    4    4    0    0  0.12357127361E+02  0.59352299636E+02  0.63523532214E+02  0.87810211329E+02  0.00000000000E+00 0. -1.
        -13    1    3    3    0    0 -0.34945620206E+02 -0.31868788266E+02  0.22913755233E+02  0.52553365411E+02  0.00000000000E+00 0.  1.
         13    1    3    3    0    0  0.23481155228E+01 -0.33964726806E+02  0.17007945416E+03  0.17345355875E+03  0.00000000000E+00 0. -1.
          1    1    1    2  501    0  0.10114698828E+03 -0.29999523722E+02  0.42812671006E+02  0.11385784760E+03  0.00000000000E+00 0. -1.
<scales pt_clust_5="13000.00000" pt_clust_6="13000.00000" pt_clust_7="13000.00000" pt_clust_8="13000.00000" pt_clust_9="105.50206"></scales>
<clustering>
<clus scale="   91.822">  5  6 -1 -1</clus>
<clus scale="   91.848">  7  8 -1 -1</clus>
<clus scale="  105.502">  2  9  1 -1</clus>
<clus scale="  119.519">  2  5  1 -1</clus>
<clus scale="  105.502">  2  5  1 -1</clus>
</clustering>
</event>
<event>
 9    1  0.1671478E-005  0.1663987E+03  0.7546771E-02  0.1182565E+00
         21   -1    0    0  501  502  0.00000000000E+00  0.00000000000E+00  0.14281548688E+04  0.14281548688E+04  0.00000000000E+00 0. -1.
          1   -1    0    0  502    0 -0.00000000000E+00 -0.00000000000E+00 -0.45287385486E+02  0.45287385486E+02  0.00000000000E+00 0. -1.
         23    2    1    2    0    0  0.79931838529E+02 -0.15821010074E+03  0.27155945321E+03  0.33835118972E+03  0.96526971193E+02 0.  0.
         23    2    1    2    0    0 -0.30058243684E+02  0.70956952429E+02  0.42021356428E+03  0.43672722814E+03  0.90624748703E+02 0.  0.
        -11    1    4    4    0    0 -0.32097845282E+01  0.84555773014E+02  0.35435603698E+03  0.36431879228E+03  0.00000000000E+00 0.  1.
         11    1    4    4    0    0 -0.26848459156E+02 -0.13598820584E+02  0.65857527305E+02  0.72408435856E+02  0.00000000000E+00 0. -1.
        -13    1    3    3    0    0  0.42707229157E+02 -0.22724798309E+02  0.13082975878E+03  0.13948745342E+03  0.00000000000E+00 0.  1.
         13    1    3    3    0    0  0.37224609372E+02 -0.13548530243E+03  0.14072969443E+03  0.19886373629E+03  0.00000000000E+00 0. -1.
          1    1    1    2  501    0 -0.49873594844E+02  0.87253148308E+02  0.69109446580E+03  0.69836383642E+03  0.00000000000E+00 0. -1.
<scales pt_clust_5="13000.00000" pt_clust_6="13000.00000" pt_clust_7="13000.00000" pt_clust_8="13000.00000" pt_clust_9="100.50118"></scales>
<clustering>
<clus scale="   90.625">  5  6 -1 -1</clus>
<clus scale="   96.527">  7  8 -1 -1</clus>
<clus scale="  100.501">  1  9  2 -1</clus>
<clus scale="  163.046">  1  5  2 -1</clus>
<clus scale="  100.501">  1  5  2 -1</clus>
</clustering>
</event>
<event>
 9    1  0.1671478E-005  0.1043048E+03  0.7546771E-02  0.1275161E+00
         -1   -1    0    0    0  501 -0.00000000000E+00  0.00000000000E+00  0.33784457564E+03  0.33784457564E+03  0.00000000000E+00 0.  1.
         21   -1    0    0  501  502  0.00000000000E+00 -0.00000000000E+00 -0.40370183986E+02  0.40370183986E+02  0.00000000000E+00 0. -1.
         23    2    1    2    0    0  0.43314887257E+02 -0.50983545886E+02  0.15122017917E+03  0.18841518177E+03  0.90317422041E+02 0.  0.
         23    2    1    2    0    0 -0.27455135192E+02  0.26591899934E+02  0.97436716013E+02  0.13296972576E+03  0.82012930386E+02 0.  0.
        -13    1    4    4    0    0  0.25668420863E+02  0.16761353923E+02  0.59569031632E+02  0.66994629221E+02  0.00000000000E+00 0.  1.
         13    1    4    4    0    0 -0.53123556055E+02  0.98305460111E+01  0.37867684381E+02  0.65975096538E+02  0.00000000000E+00 0. -1.
        -13    1    3    3    0    0 -0.63950287387E+01  0.22323054704E+02  0.23955903193E+02  0.33363160247E+02  0.00000000000E+00 0.  1.
         13    1    3    3    0    0  0.49709915995E+02 -0.73306600590E+02  0.12726427598E+03  0.15505202153E+03  0.00000000000E+00 0. -1.
         -1    1    1    2    0  502 -0.15859752064E+02  0.24391645952E+02  0.48817496471E+02  0.56829852098E+02  0.00000000000E+00 0.  1.
<scales pt_clust_5="13000.00000" pt_clust_6="13000.00000" pt_clust_7="13000.00000" pt_clust_8="13000.00000" pt_clust_9="29.09441"></scales>
<clustering>
<clus scale="   29.094">  2  9  1 -1</clus>
<clus scale="   82.013">  5  6 -1 -1</clus>
<clus scale="   90.317">  7  8 -1 -1</clus>
<clus scale="   97.203">  2  5  1 -1</clus>
<clus scale="   29.094">  2  5  1 -1</clus>
</clustering>
</event>
<event>
 9    1  0.1671478E-005  0.1048753E+03  0.7546771E-02  0.1270577E+00
         -3   -1    0    0    0  501 -0.00000000000E+00  0.00000000000E+00  0.22635759374E+03  0.22635759374E+03  0.00000000000E+00 0.  1.
         21   -1    0    0  501  502  0.00000000000E+00 -0.00000000000E+00 -0.23621842530E+03  0.23621842530E+03  0.00000000000E+00 0.  1.
         23    2    1    2    0    0 -0.37931922379E+01 -0.42763565572E+02  0.13941284899E+03  0.17223846404E+03  0.91580757714E+02 0.  0.
         23    2    1    2    0    0 -0.33160008419E+02  0.81017079707E+02  0.57271535276E+01  0.12646526037E+03  0.91089562681E+02 0.  0.
        -13    1    3    3    0    0  0.28969522390E+02 -0.57060016600E+02  0.75166378836E+02  0.98717086815E+02  0.00000000000E+00 0.  1.
         13    1    3    3    0    0 -0.32762714627E+02  0.14296451028E+02  0.64246470158E+02  0.73521377228E+02  0.00000000000E+00 0. -1.
        -13    1    4    4    0    0 -0.18224634598E+02  0.99722440632E+02 -0.17466029410E+01  0.10138911724E+03  0.00000000000E+00 0.  1.
         13    1    4    4    0    0 -0.14935373821E+02 -0.18705360926E+02  0.74737564685E+01  0.25076143131E+02  0.00000000000E+00 0. -1.
         -3    1    1    2    0  502  0.36953200657E+02 -0.38253514135E+02 -0.15500083408E+03  0.16387229463E+03  0.00000000000E+00 0.  1.
<scales pt_clust_5="13000.00000" pt_clust_6="13000.00000" pt_clust_7="13000.00000" pt_clust_8="13000.00000" pt_clust_9="53.18713"></scales>
<clustering>
<clus scale="   53.187">  2  9  1 -1</clus>
<clus scale="   91.090">  7  8 -1 -1</clus>
<clus scale="   91.581">  5  6 -1 -1</clus>
<clus scale="  104.447">  2  7  1 -1</clus>
<clus scale="   53.187">  2  5  1 -1</clus>
</clustering>
</event>
<event>
 9    1  0.1671478E-005  0.1071739E+03  0.7546771E-02  0.1270746E+00
         21   -1    0    0  501  502  0.00000000000E+00  0.00000000000E+00  0.75842271151E+02  0.75842271151E+02  0.00000000000E+00 0. -1.
          1   -1    0    0  502    0 -0.00000000000E+00 -0.00000000000E+00 -0.27855782817E+03  0.27855782817E+03  0.00000000000E+00 0. -1.
         23    2    1    2    0    0 -0.58475898734E+02 -0.44861079626E+02 -0.14333955685E+03  0.18469899635E+03  0.90197247722E+02 0.  0.
         23    2    1    2    0    0  0.43544623619E+02  0.11692762661E+02 -0.85801876615E+02  0.12474104099E+03  0.78520763692E+02 0.  0.
        -11    1    4    4    0    0 -0.57007581290E+01 -0.24220593356E+02 -0.44917195952E+02  0.51348712525E+02  0.00000000000E+00 0.  1.
         11    1    4    4    0    0  0.49245381748E+02  0.35913356018E+02 -0.40884680664E+02  0.73392328461E+02  0.00000000000E+00 0. -1.
        -13    1    3    3    0    0 -0.19639304138E+02 -0.81866618644E+01 -0.12710010705E+03  0.12886877400E+03  0.00000000000E+00 0. -1.
         13    1    3    3    0    0 -0.38836594596E+02 -0.36674417762E+02 -0.16239449800E+02  0.55830222351E+02  0.00000000000E+00 0.  1.
          1    1    1    2  501    0  0.14931275114E+02  0.33168316965E+02  0.26425876454E+02  0.44960061979E+02  0.00000000000E+00 0. -1.
<scales pt_clust_5="13000.00000" pt_clust_6="13000.00000" pt_clust_7="13000.00000" pt_clust_8="13000.00000" pt_clust_9="36.37417"></scales>
<clustering>
<clus scale="   36.374">  1  9  2 -1</clus>
<clus scale="   78.521">  5  6 -1 -1</clus>
<clus scale="   90.197">  7  8 -1 -1</clus>
<clus scale="   97.551">  1  5  2 -1</clus>
<clus scale="   36.374">  1  5  2 -1</clus>
</clustering>
</event>
<event>
 9    1  0.1671478E-005  0.2017804E+03  0.7546771E-02  0.1148695E+00
         21   -1    0    0  501  502  0.00000000000E+00  0.00000000000E+00  0.13797350197E+03  0.13797350197E+03  0.00000000000E+00 0. -1.
          1   -1    0    0  502    0 -0.00000000000E+00 -0.00000000000E+00 -0.79933682591E+03  0.79933682591E+03  0.00000000000E+00 0. -1.
         23    2    1    2    0    0  0.18127727551E+03 -0.88580717037E+01 -0.66792760301E+03  0.69901510610E+03  0.97749269281E+02 0.  0.
         23    2    1    2    0    0 -0.15280499424E+03  0.15349736280E+02 -0.39311149268E+02  0.18391353888E+03  0.93240777878E+02 0.  0.
        -11    1    3    3    0    0  0.14096113054E+03  0.11957555195E+02 -0.60570715576E+03  0.62200818483E+03  0.00000000000E+00 0. -1.
         11    1    3    3    0    0  0.40316144973E+02 -0.20815626899E+02 -0.62220447246E+02  0.77006921275E+02  0.00000000000E+00 0.  1.
        -11    1    4    4    0    0 -0.34489332517E+02 -0.21158627261E+02 -0.44294076897E+02  0.59993056375E+02  0.00000000000E+00 0. -1.
         11    1    4    4    0    0 -0.11831566172E+03  0.36508363541E+02  0.49829276293E+01  0.12392048251E+03  0.00000000000E+00 0.  1.
          1    1    1    2  501    0 -0.28472281274E+02 -0.64916645761E+01  0.45875428337E+02  0.54381682899E+02  0.00000000000E+00 0. -1.
<scales pt_clust_5="13000.00000" pt_clust_6="13000.00000" pt_clust_7="13000.00000" pt_clust_8="13000.00000" pt_clust_9="29.20295"></scales>
<clustering>
<clus scale="   29.203">  1  9  2 -1</clus>
<clus scale="   93.241">  7  8 -1 -1</clus>
<clus scale="   97.749">  5  6 -1 -1</clus>
<clus scale="  199.635">  1  7  2 -1</clus>
<clus scale="   29.203">  1  5  2 -1</clus>
</clustering>
</event>
<event>
 9    1  0.1671478E-005  0.1233426E+03  0.7546771E-02  0.1238983E+00
         21   -1    0    0  501  502  0.00000000000E+00  0.00000000000E+00  0.94566542646E+02  0.94566542646E+02  0.00000000000E+00 0.  1.
         -1   -1    0    0    0  501 -0.00000000000E+00 -0.00000000000E+00 -0.64002573604E+03  0.64002573604E+03  0.00000000000E+00 0.  1.
         23    2    1    2    0    0  0.31746001302E+00 -0.82044054812E+02 -0.53489068530E+03  0.54926952808E+03  0.94115044192E+02 0.  0.
         23    2    1    2    0    0  0.24377824486E+02  0.67787869796E+02 -0.58790462529E+02  0.12930085508E+03  0.89849424163E+02 0.  0.
        -13    1    4    4    0    0  0.55565519057E+02  0.40875261416E+02 -0.54444892234E+02  0.87878098490E+02  0.00000000000E+00 0. -1.
         13    1    4    4    0    0 -0.31187694571E+02  0.26912608380E+02 -0.43455702950E+01  0.41422756592E+02  0.00000000000E+00 0.  1.
        -13    1    3    3    0    0  0.23570919981E+02 -0.94536893377E+02 -0.38942932600E+03  0.40143245064E+03  0.00000000000E+00 0.  1.
         13    1    3    3    0    0 -0.23253459968E+02  0.12492838565E+02 -0.14546135930E+03  0.14783707744E+03  0.00000000000E+00 0. -1.
         -1    1    1    2    0  502 -0.24695284499E+02  0.14256185016E+02  0.48221954440E+02  0.56021895521E+02  0.00000000000E+00 0.  1.
<scales pt_clust_5="13000.00000" pt_clust_6="13000.00000" pt_clust_7="13000.00000" pt_clust_8="13000.00000" pt_clust_9="28.51484"></scales>
<clustering>
<clus scale="   28.515">  1  9  2 -1</clus>
<clus scale="   89.849">  5  6 -1 -1</clus>
<clus scale="   94.115">  7  8 -1 -1</clus>
<clus scale="  120.119">  1  5  2 -1</clus>
<clus scale="   28.515">  1  5  2 -1</clus>
</clustering>
</event>
<event>
 9    1  0.1671478E-005  0.1169687E+03  0.7546771E-02  0.1248956E+00
          1   -1    0    0  502    0 -0.00000000000E+00  0.00000000000E+00  0.80484612268E+03  0.80484612268E+03  0.00000000000E+00 0. -1.
         21   -1    0    0  501  502  0.00000000000E+00 -0.00000000000E+00 -0.58982424008E+02  0.58982424008E+02  0.00000000000E+00 0. -1.
         23    2    1    2    0    0  0.34375094306E+02 -0.75106934848E+02  0.65843648118E+03  0.67002418920E+03  0.92580319708E+02 0.  0.
         23    2    1    2    0    0 -0.20804205122E+02  0.28829421239E+02  0.10453109669E+03  0.14263483547E+03  0.90299477491E+02 0.  0.
        -11    1    4    4    0    0  0.33513543317E+02 -0.34571282360E+01  0.40376312658E+02  0.52586651778E+02  0.00000000000E+00 0. -1.
         11    1    4    4    0    0 -0.54317748439E+02  0.32286549475E+02  0.64154784035E+02  0.90048183697E+02  0.00000000000E+00 0.  1.
        -13    1    3    3    0    0 -0.97265051295E+01 -0.79126707676E+02  0.41280072760E+03  0.42042844989E+03  0.00000000000E+00 0. -1.
         13    1    3    3    0    0  0.44101599435E+02  0.40197728277E+01  0.24563575357E+03  0.24959573931E+03  0.00000000000E+00 0.  1.
          1    1    1    2  501    0 -0.13570889184E+02  0.46277513609E+02 -0.17103879201E+02  0.51169522011E+02  0.00000000000E+00 0. -1.
<scales pt_clust_5="13000.00000" pt_clust_6="13000.00000" pt_clust_7="13000.00000" pt_clust_8="13000.00000" pt_clust_9="48.22631"></scales>
<clustering>
<clus scale="   48.226">  2  9  1 -1</clus>
<clus scale="   90.299">  5  6 -1 -1</clus>
<clus scale="   92.580">  7  8 -1 -1</clus>
<clus scale="  115.172">  2  5  1 -1</clus>
<clus scale="   48.226">  2  5  1 -1</clus>
</clustering>
</event>
<event>
 9    1  0.1671478E-005  0.9494470E+02  0.7546771E-02  0.1291684E+00
         21   -1    0    0  501  502  0.00000000000E+00  0.00000000000E+00  0.25921914376E+03  0.25921914376E+03  0.00000000000E+00 0.  1.
         -2   -1    0    0    0  501 -0.00000000000E+00 -0.00000000000E+00 -0.66022991694E+02  0.66022991694E+02  0.00000000000E+00 0.  1.
         23    2    1    2    0    0 -0.92468143313E+01  0.13962575979E+02  0.31225163453E+02  0.96960937489E+02  0.90254947027E+02 0.  0.
         23    2    1    2    0    0  0.15107134972E+02 -0.37141863761E+02  0.45401699558E+02  0.10928530774E+03  0.90962742890E+02 0.  0.
        -11    1    4    4    0    0  0.19090738951E+02 -0.57016864402E+02  0.62181780934E+00  0.60131238115E+02  0.00000000000E+00 0.  1.
         11    1    4    4    0    0 -0.39836039786E+01  0.19875000641E+02  0.44779881748E+02  0.49154069623E+02  0.00000000000E+00 0. -1.
        -13    1    3    3    0    0 -0.31043221733E+02  0.26846869031E+02 -0.15455579648E+02  0.43855569026E+02  0.00000000000E+00 0. -1.
         13    1    3    3    0    0  0.21796407402E+02 -0.12884293052E+02  0.46680743101E+02  0.53105368462E+02  0.00000000000E+00 0.  1.
         -2    1    1    2    0  502 -0.58603206408E+01  0.23179287782E+02  0.11656928905E+03  0.11899589022E+03  0.00000000000E+00 0.  1.
<scales pt_clust_5="13000.00000" pt_clust_6="13000.00000" pt_clust_7="13000.00000" pt_clust_8="13000.00000" pt_clust_9="23.90863"></scales>
<clustering>
<clus scale="   23.909">  1  9  2 -1</clus>
<clus scale="   90.255">  7  8 -1 -1</clus>
<clus scale="   90.963">  5  6 -1 -1</clus>
<clus scale="   94.267">  2  7  1 -1</clus>
<clus scale="   23.909">  1  5  2 -1</clus>
</clustering>
</event>
<event>
 9    1  0.1671478E-005  0.2681448E+03  0.7546771E-02  0.1102365E+00
         -1   -1    0    0    0  501 -0.00000000000E+00  0.00000000000E+00  0.82920752062E+03  0.82920752062E+03  0.00000000000E+00 0.  1.
         21   -1    0    0  501  502  0.00000000000E+00 -0.00000000000E+00 -0.28560515793E+03  0.28560515793E+03  0.00000000000E+00 0.  1.
         23    2    1    2    0    0  0.11724562942E+03  0.25087756201E+03  0.56481835593E+03  0.63570408495E+03  0.91726875476E+02 0.  0.
         23    2    1    2    0    0 -0.11880475642E+03 -0.17463900556E+03  0.16131821158E+03  0.28128674369E+03  0.92115766152E+02 0.  0.
        -11    1    4    4    0    0 -0.86950695045E+02 -0.51153862224E+02  0.52947132284E+02  0.11393217195E+03  0.00000000000E+00 0.  1.
         11    1    4    4    0    0 -0.31854061379E+02 -0.12348514334E+03  0.10837107930E+03  0.16735457173E+03  0.00000000000E+00 0. -1.
        -13    1    3    3    0    0  0.94581546920E+02  0.94502841716E+02  0.26114089409E+03  0.29337863364E+03  0.00000000000E+00 0. -1.
         13    1    3    3    0    0  0.22664082496E+02  0.15637472030E+03  0.30367746184E+03  0.34232545131E+03  0.00000000000E+00 0.  1.
         -1    1    1    2    0  502  0.15591270081E+01 -0.76238556453E+02 -0.18253420483E+03  0.19782184990E+03  0.00000000000E+00 0.  1.
<scales pt_clust_5="13000.00000" pt_clust_6="13000.00000" pt_clust_7="13000.00000" pt_clust_8="13000.00000" pt_clust_9="76.25450"></scales>
<clustering>
<clus scale="   76.254">  2  9  1 -1</clus>
<clus scale="   91.727">  7  8 -1 -1</clus>
<clus scale="   92.116">  5  6 -1 -1</clus>
<clus scale="  268.011">  1  7  2 -1</clus>
<clus scale="   76.254">  2  5  1 -1</clus>
</clustering>
</event>
<event>
 9    1  0.1671478E-005  0.1030257E+03  0.7546771E-02  0.1275920E+00
         21   -1    0    0  501  502  0.00000000000E+00  0.00000000000E+00  0.41109755919E+02  0.41109755919E+02  0.00000000000E+00 0. -1.
          1   -1    0    0  502    0 -0.00000000000E+00 -0.00000000000E+00 -0.69205365876E+03  0.69205365876E+03  0.00000000000E+00 0. -1.
         23    2    1    2    0    0  0.11145748939E+02  0.49231369555E+02 -0.49165985950E+03  0.50232644914E+03  0.89746802728E+02 0.  0.
         23    2    1    2    0    0  0.26499366027E+02 -0.54469360623E+02 -0.16174142722E+03  0.19274982904E+03  0.85574994411E+02 0.  0.
        -11    1    3    3    0    0  0.15080675840E+02 -0.24624527914E+02 -0.14976137345E+03  0.15251971393E+03  0.00000000000E+00 0.  1.
         11    1    3    3    0    0 -0.39349269007E+01  0.73855897470E+02 -0.34189848605E+03  0.34980673522E+03  0.00000000000E+00 0. -1.
        -13    1    4    4    0    0 -0.15458041272E+02 -0.27422178935E+02 -0.10032672967E+02  0.33039089945E+02  0.00000000000E+00 0. -1.
         13    1    4    4    0    0  0.41957407299E+02 -0.27047181687E+02 -0.15170875426E+03  0.15971073910E+03  0.00000000000E+00 0.  1.
          1    1    1    2  501    0 -0.37645114966E+02  0.52379910673E+01  0.24573838760E+01  0.38087136500E+02  0.00000000000E+00 0. -1.
<scales pt_clust_5="13000.00000" pt_clust_6="13000.00000" pt_clust_7="13000.00000" pt_clust_8="13000.00000" pt_clust_9="38.00778"></scales>
<clustering>
<clus scale="   38.008">  1  9  2 -1</clus>
<clus scale="   85.575">  7  8 -1 -1</clus>
<clus scale="   89.747">  5  6 -1 -1</clus>
<clus scale="   99.413">  1  7  2 -1</clus>
<clus scale="   38.008">  1  5  2 -1</clus>
</clustering>
</event>
<event>
 9    1  0.1671478E-005  0.1617006E+03  0.7546771E-02  0.1210677E+00
          1   -1    0    0  502    0 -0.00000000000E+00  0.00000000000E+00  0.36314443096E+03  0.36314443096E+03  0.00000000000E+00 0. -1.
         21   -1    0    0  501  502  0.00000000000E+00 -0.00000000000E+00 -0.28585250340E+03  0.28585250340E+03  0.00000000000E+00 0. -1.
         23    2    1    2    0    0  0.31005147820E+02  0.14840912425E+02  0.26405692225E+03  0.28101297240E+03  0.89781181764E+02 0.  0.
         23    2    1    2    0    0  0.62803270168E+02 -0.11147471131E+03 -0.29894452324E+02  0.16123174931E+03  0.93440551698E+02 0.  0.
        -13    1    4    4    0    0 -0.24623298136E+02 -0.22853298057E+02 -0.19787322948E+01  0.33652569362E+02  0.00000000000E+00 0.  1.
         13    1    4    4    0    0  0.87426568304E+02 -0.88621413249E+02 -0.27915720029E+02  0.12757917995E+03  0.00000000000E+00 0. -1.
        -13    1    3    3    0    0  0.58627338421E+02  0.28536078805E+02  0.18523629018E+03  0.19637707556E+03  0.00000000000E+00 0. -1.
         13    1    3    3    0    0 -0.27622190601E+02 -0.13695166379E+02  0.78820632066E+02  0.84635896847E+02  0.00000000000E+00 0.  1.
          1    1    1    2  501    0 -0.93808417988E+02  0.96633798880E+02 -0.15687054236E+03  0.20675221264E+03  0.00000000000E+00 0. -1.
<scales pt_clust_5="13000.00000" pt_clust_6="13000.00000" pt_clust_7="13000.00000" pt_clust_8="13000.00000" pt_clust_9="131.96951"></scales>
<clustering>
<clus scale="   89.781">  7  8 -1 -1</clus>
<clus scale="   93.441">  5  6 -1 -1</clus>
<clus scale="   96.137">  1  7  2 -1</clus>
<clus scale="  131.970">  2  9  1 -1</clus>
<clus scale="  131.970">  2  5  1 -1</clus>
</clustering>
</event>
<event>
 9    1  0.1671478E-005  0.2100813E+03  0.7546771E-02  0.1165540E+00
         21   -1    0    0  501  502  0.00000000000E+00  0.00000000000E+00  0.48081578714E+03  0.48081578714E+03  0.00000000000E+00 0. -1.
          1   -1    0    0  502    0 -0.00000000000E+00 -0.00000000000E+00 -0.15234329699E+03  0.15234329699E+03  0.00000000000E+00 0. -1.
         23    2    1    2    0    0 -0.70650624863E+02 -0.18451920940E+02  0.16753226895E+02  0.12044207591E+03  0.94306091308E+02 0.  0.
         23    2    1    2    0    0  0.14756703595E+03  0.16219581778E+03  0.23027752658E+03  0.33047760895E+03  0.90023315661E+02 0.  0.
        -11    1    3    3    0    0 -0.53916123817E+02  0.27134921879E+02  0.33551213520E+02  0.69057485630E+02  0.00000000000E+00 0. -1.
         11    1    3    3    0    0 -0.16734501046E+02 -0.45586842819E+02 -0.16797986625E+02  0.51384590279E+02  0.00000000000E+00 0.  1.
        -13    1    4    4    0    0  0.28425358409E+02  0.23336380758E+02  0.98084461648E+02  0.10475280084E+03  0.00000000000E+00 0.  1.
         13    1    4    4    0    0  0.11914167755E+03  0.13885943702E+03  0.13219306493E+03  0.22572480810E+03  0.00000000000E+00 0. -1.
          1    1    1    2  501    0 -0.76916411092E+02 -0.14374389684E+03  0.81441736676E+02  0.18223939927E+03  0.00000000000E+00 0. -1.
<scales pt_clust_5="13000.00000" pt_clust_6="13000.00000" pt_clust_7="13000.00000" pt_clust_8="13000.00000" pt_clust_9="189.81569"></scales>
<clustering>
<clus scale="   90.023">  7  8 -1 -1</clus>
<clus scale="   94.306">  5  6 -1 -1</clus>
<clus scale="  119.271">  2  5  1 -1</clus>
<clus scale="  189.816">  1  9  2 -1</clus>
<clus scale="  189.816">  1  5  2 -1</clus>
</clustering>
</event>
<event>
 9    1  0.1671478E-005  0.9781245E+02  0.7546771E-02  0.1287250E+00
          1   -1    0    0  502    0 -0.00000000000E+00  0.00000000000E+00  0.29081628786E+03  0.29081628786E+03  0.00000000000E+00 0. -1.
         21   -1    0    0  501  502  0.00000000000E+00 -0.00000000000E+00 -0.55726758005E+02  0.55726758005E+02  0.00000000000E+00 0. -1.
         23    2    1    2    0    0 -0.15560821058E+02  0.56435277185E+02  0.11167716328E+03  0.15605770527E+03  0.91951829306E+02 0.  0.
         23    2    1    2    0    0  0.19325314079E+02 -0.12805826919E+01  0.72147645217E+02  0.11509115389E+03  0.87553317117E+02 0.  0.
        -13    1    4    4    0    0 -0.32607852266E+02  0.81599150389E+01  0.13595083617E+02  0.36258551287E+02  0.00000000000E+00 0.  1.
         13    1    4    4    0    0  0.51933166345E+02 -0.94404977308E+01  0.58552561600E+02  0.78832602608E+02  0.00000000000E+00 0. -1.
        -13    1    3    3    0    0  0.33443947867E+02  0.44341226444E+02  0.40228179362E+02  0.68578046241E+02  0.00000000000E+00 0. -1.
         13    1    3    3    0    0 -0.49004768926E+02  0.12094050741E+02  0.71448983919E+02  0.87479659029E+02  0.00000000000E+00 0.  1.
          1    1    1    2  501    0 -0.37644930203E+01 -0.55154694493E+02  0.51264721357E+02  0.75394186700E+02  0.00000000000E+00 0. -1.
<scales pt_clust_5="13000.00000" pt_clust_6="13000.00000" pt_clust_7="13000.00000" pt_clust_8="13000.00000" pt_clust_9="55.28304"></scales>
<clustering>
<clus scale="   55.283">  2  9  1 -1</clus>
<clus scale="   87.553">  5  6 -1 -1</clus>
<clus scale="   91.952">  7  8 -1 -1</clus>
<clus scale="   93.689">  2  5  1 -1</clus>
<clus scale="   55.283">  2  5  1 -1</clus>
</clustering>
</event>
<event>
 9    1  0.1671478E-005  0.1256586E+03  0.7546771E-02  0.1234732E+00
          2   -1    0    0  502    0 -0.00000000000E+00  0.00000000000E+00  0.37596319321E+03  0.37596319321E+03  0.00000000000E+00 0.  1.
         21   -1    0    0  501  502  0.00000000000E+00 -0.00000000000E+00 -0.72314082123E+02  0.72314082123E+02  0.00000000000E+00 0.  1.
         23    2    1    2    0    0  0.45670716593E+02 -0.70508524685E+02  0.22872705810E+03  0.26011851069E+03  0.91040134514E+02 0.  0.
         23    2    1    2    0    0 -0.81619469857E+02  0.55649658386E+02  0.66216033113E+02  0.14829783701E+03  0.88594938252E+02 0.  0.
        -13    1    3    3    0    0  0.73109149398E+02 -0.50595836227E+02  0.17995905658E+03  0.20072406038E+03  0.00000000000E+00 0.  1.
         13    1    3    3    0    0 -0.27438432805E+02 -0.19912688458E+02  0.48768001514E+02  0.59394450313E+02  0.00000000000E+00 0. -1.
        -13    1    4    4    0    0 -0.61138045494E+02 -0.68757793745E+01  0.11204428906E+02  0.62535399383E+02  0.00000000000E+00 0.  1.
         13    1    4    4    0    0 -0.20481424362E+02  0.62525437761E+02  0.55011604207E+02  0.85762437632E+02  0.00000000000E+00 0. -1.
          2    1    1    2  501    0  0.35948753264E+02  0.14858866298E+02  0.87060198755E+01  0.39860927623E+02  0.00000000000E+00 0.  1.
<scales pt_clust_5="13000.00000" pt_clust_6="13000.00000" pt_clust_7="13000.00000" pt_clust_8="13000.00000" pt_clust_9="38.89857"></scales>
<clustering>
<clus scale="   38.899">  2  9  1 -1</clus>
<clus scale="   88.595">  7  8 -1 -1</clus>
<clus scale="   91.040">  5  6 -1 -1</clus>
<clus scale="  123.899">  2  7  1 -1</clus>
<clus scale="   38.899">  2  5  1 -1</clus>
</clustering>
</event>
<event>
 9    1  0.1671478E-005  0.1206943E+03  0.7546771E-02  0.1242279E+00
         21   -1    0    0  501  502  0.00000000000E+00  0.00000000000E+00  0.43944210115E+03  0.43944210115E+03  0.00000000000E+00 0.  1.
          3   -1    0    0  502    0 -0.00000000000E+00 -0.00000000000E+00 -0.84215484039E+02  0.84215484039E+02  0.00000000000E+00 0. -1.
         23    2    1    2    0    0  0.27993753213E+02 -0.10536190082E+03  0.39935835319E+02  0.14834548463E+03  0.92340302711E+02 0.  0.
         23    2    1    2    0    0 -0.48515725558E+02  0.13514254657E+02  0.12320572642E+03  0.16141069816E+03  0.91309100044E+02 0.  0.
        -13    1    4    4    0    0 -0.17353810281E+01  0.46811639522E+02  0.54086797852E+02  0.71552238567E+02  0.00000000000E+00 0.  1.
         13    1    4    4    0    0 -0.46780344530E+02 -0.33297384865E+02  0.69118928571E+02  0.89858459590E+02  0.00000000000E+00 0. -1.
        -13    1    3    3    0    0  0.44073387032E+01 -0.94903299005E+02 -0.64951376202E+01  0.95227346961E+02  0.00000000000E+00 0. -1.
         13    1    3    3    0    0  0.23586414509E+02 -0.10458601811E+02  0.46430972939E+02  0.53118137668E+02  0.00000000000E+00 0.  1.
          3    1    1    2  501    0  0.20521972345E+02  0.91847646158E+02  0.19208505537E+03  0.21390140240E+03  0.00000000000E+00 0. -1.
<scales pt_clust_5="13000.00000" pt_clust_6="13000.00000" pt_clust_7="13000.00000" pt_clust_8="13000.00000" pt_clust_9="94.11239"></scales>
<clustering>
<clus scale="   91.309">  5  6 -1 -1</clus>
<clus scale="   92.340">  7  8 -1 -1</clus>
<clus scale="   94.112">  1  9  2 -1</clus>
<clus scale="  119.907">  1  5  2 -1</clus>
<clus scale="   94.112">  1  5  2 -1</clus>
</clustering>
</event>
<event>
 9    1  0.1671478E-005  0.9380811E+02  0.7546771E-02  0.1294492E+00
          2   -1    0    0  502    0 -0.00000000000E+00  0.00000000000E+00  0.31982334345E+03  0.31982334345E+03  0.00000000000E+00 0. -1.
         21   -1    0    0  501  502  0.00000000000E+00 -0.00000000000E+00 -0.43501867452E+02  0.43501867452E+02  0.00000000000E+00 0.  1.
         23    2    1    2    0    0  0.46512852924E+00  0.30370081468E+02  0.16131051262E+03  0.18766207712E+03  0.90958317458E+02 0.  0.
         23    2    1    2    0    0  0.22205793180E+02 -0.87063736916E+01  0.10979326597E+03  0.14387459352E+03  0.89869011427E+02 0.  0.
        -11    1    4    4    0    0  0.27890163305E+02  0.13685627742E+02 -0.61714892848E+00  0.31073115208E+02  0.00000000000E+00 0.  1.
         11    1    4    4    0    0 -0.56843701250E+01 -0.22392001434E+02  0.11041041489E+03  0.11280147831E+03  0.00000000000E+00 0. -1.
        -13    1    3    3    0    0  0.23161371010E+02  0.42114755954E+02  0.36740017238E+02  0.60497360627E+02  0.00000000000E+00 0.  1.
         13    1    3    3    0    0 -0.22696242481E+02 -0.11744674486E+02  0.12457049538E+03  0.12716471649E+03  0.00000000000E+00 0. -1.
          2    1    1    2  501    0 -0.22670921710E+02 -0.21663707776E+02  0.52176974136E+01  0.31788540264E+02  0.00000000000E+00 0. -1.
<scales pt_clust_5="13000.00000" pt_clust_6="13000.00000" pt_clust_7="13000.00000" pt_clust_8="13000.00000" pt_clust_9="31.35741"></scales>
<clustering>
<clus scale="   31.357">  2  9  1 -1</clus>
<clus scale="   89.869">  5  6 -1 -1</clus>
<clus scale="   90.958">  7  8 -1 -1</clus>
<clus scale="   92.752">  2  5  1 -1</clus>
<clus scale="   31.357">  2  5  1 -1</clus>
</clustering>
</event>
<event>
 9    1  0.1671478E-005  0.2125960E+03  0.7546771E-02  0.1139710E+00
         21   -1    0    0  501  502  0.00000000000E+00  0.00000000000E+00  0.14424102436E+03  0.14424102436E+03  0.00000000000E+00 0.  1.
          1   -1    0    0  502    0 -0.00000000000E+00 -0.00000000000E+00 -0.51668189788E+03  0.51668189788E+03  0.00000000000E+00 0. -1.
         23    2    1    2    0    0  0.11133789697E+03 -0.13173450187E+03 -0.20121915869E+03  0.27984765472E+03  0.89863528431E+02 0.  0.
         23    2    1    2    0    0 -0.14049848950E+03  0.16536852811E+03 -0.21470993797E+03  0.31884333497E+03  0.92055087559E+02 0.  0.
        -13    1    3    3    0    0 -0.48763393536E+01 -0.30979491299E+02 -0.70559971356E+01  0.32144901029E+02  0.00000000000E+00 0. -1.
         13    1    3    3    0    0  0.11621423633E+03 -0.10075501057E+03 -0.19416316155E+03  0.24770275369E+03  0.00000000000E+00 0.  1.
        -13    1    4    4    0    0 -0.86948939107E+02  0.14528380890E+03 -0.19523464764E+03  0.25842614183E+03  0.00000000000E+00 0. -1.
         13    1    4    4    0    0 -0.53549550393E+02  0.20084719209E+02 -0.19475290334E+02  0.60417193138E+02  0.00000000000E+00 0.  1.
          1    1    1    2  501    0  0.29160592525E+02 -0.33634026243E+02  0.43488223137E+02  0.62231932553E+02  0.00000000000E+00 0. -1.
<scales pt_clust_5="13000.00000" pt_clust_6="13000.00000" pt_clust_7="13000.00000" pt_clust_8="13000.00000" pt_clust_9="44.51503"></scales>
<clustering>
<clus scale="   44.515">  1  9  2 -1</clus>
<clus scale="   89.864">  5  6 -1 -1</clus>
<clus scale="   92.055">  7  8 -1 -1</clus>
<clus scale="  211.656">  2  5  1 -1</clus>
<clus scale="   44.515">  1  5  2 -1</clus>
</clustering>
</event>
<event>
 9    1  0.1671478E-005  0.1038695E+03  0.7546771E-02  0.1277740E+00
         -3   -1    0    0    0  501 -0.00000000000E+00  0.00000000000E+00  0.45291232089E+03  0.45291232089E+03  0.00000000000E+00 0.  1.
         21   -1    0    0  501  502  0.00000000000E+00 -0.00000000000E+00 -0.45162158752E+02  0.45162158752E+02  0.00000000000E+00 0.  1.
         23    2    1    2    0    0 -0.40049354106E+02 -0.74172770951E+01  0.25253585683E+03  0.27135115534E+03  0.90543490973E+02 0.  0.
         23    2    1    2    0    0 -0.18749871722E+02  0.17799644014E+02  0.11183432412E+03  0.15291976565E+03  0.10104035659E+03 0.  0.
        -11    1    3    3    0    0  0.10849515864E+02 -0.28221356012E+02  0.31839396709E+02  0.43907904897E+02  0.00000000000E+00 0. -1.
         11    1    3    3    0    0 -0.50898869970E+02  0.20804078917E+02  0.22069646012E+03  0.22744325044E+03  0.00000000000E+00 0.  1.
        -11    1    4    4    0    0  0.19152025781E+02  0.43014630627E+02  0.21497449929E+02  0.51760978477E+02  0.00000000000E+00 0. -1.
         11    1    4    4    0    0 -0.37901897503E+02 -0.25214986613E+02  0.90336874188E+02  0.10115878717E+03  0.00000000000E+00 0.  1.
         -3    1    1    2    0  502  0.58799225829E+02 -0.10382366919E+02  0.43379981192E+02  0.73803558648E+02  0.00000000000E+00 0.  1.
<scales pt_clust_5="13000.00000" pt_clust_6="13000.00000" pt_clust_7="13000.00000" pt_clust_8="13000.00000" pt_clust_9="59.70881"></scales>
<clustering>
<clus scale="   59.709">  2  9  1 -1</clus>
<clus scale="   90.543">  5  6 -1 -1</clus>
<clus scale="   93.690">  1  5  2 -1</clus>
<clus scale="  101.040">  7  8 -1 -1</clus>
<clus scale="   59.709">  2  5  1 -1</clus>
</clustering>
</event>
<event>
 9    1  0.1671478E-005  0.1368444E+03  0.7546771E-02  0.1230842E+00
          3   -1    0    0  502    0 -0.00000000000E+00  0.00000000000E+00  0.47548054608E+03  0.47548054608E+03  0.00000000000E+00 0. -1.
         21   -1    0    0  501  502  0.00000000000E+00 -0.00000000000E+00 -0.79624446903E+02  0.79624446903E+02  0.00000000000E+00 0. -1.
         23    2    1    2    0    0 -0.29565191788E+02 -0.84669107477E+01  0.22947029153E+03  0.25190342939E+03  0.99261945871E+02 0.  0.
         23    2    1    2    0    0 -0.14642453525E+01 -0.91183867343E+02  0.14789579009E+03  0.19720635478E+03  0.93276684984E+02 0.  0.
        -11    1    3    3    0    0  0.32423196408E+02  0.17334905084E+02  0.82570203674E+02  0.90385845874E+02  0.00000000000E+00 0.  1.
         11    1    3    3    0    0 -0.61988388196E+02 -0.25801815831E+02  0.14690008786E+03  0.16151758352E+03  0.00000000000E+00 0. -1.
        -13    1    4    4    0    0  0.43040638936E+02 -0.22465473601E+02  0.57028954777E+02  0.74896567258E+02  0.00000000000E+00 0.  1.
         13    1    4    4    0    0 -0.44504884288E+02 -0.68718393742E+02  0.90866835309E+02  0.12230978752E+03  0.00000000000E+00 0. -1.
          3    1    1    2  501    0  0.31029437140E+02  0.99650778091E+02  0.18490017562E+02  0.10599520882E+03  0.00000000000E+00 0. -1.
<scales pt_clust_5="13000.00000" pt_clust_6="13000.00000" pt_clust_7="13000.00000" pt_clust_8="13000.00000" pt_clust_9="100.12911"></scales>
<clustering>
<clus scale="   93.277">  7  8 -1 -1</clus>
<clus scale="   99.262">  5  6 -1 -1</clus>
<clus scale="  103.917">  1  5  2 -1</clus>
<clus scale="  100.129">  2  9  1 -1</clus>
<clus scale="  100.129">  2  5  1 -1</clus>
</clustering>
</event>
<event>
 9    1  0.1671478E-005  0.1283338E+03  0.7546771E-02  0.1231153E+00
         21   -1    0    0  501  502  0.00000000000E+00  0.00000000000E+00  0.28222940248E+03  0.28222940248E+03  0.00000000000E+00 0. -1.
          2   -1    0    0  502    0 -0.00000000000E+00 -0.00000000000E+00 -0.11735400339E+03  0.11735400339E+03  0.00000000000E+00 0. -1.
         23    2    1    2    0    0  0.92636742223E+02  0.81705480356E+02  0.25822820232E+01  0.15179191862E+03  0.88185978753E+02 0.  0.
         23    2    1    2    0    0 -0.22008011730E+02 -0.40967300760E+02  0.72279210602E+02  0.12633976760E+03  0.92600109503E+02 0.  0.
        -11    1    3    3    0    0  0.17138745114E+02  0.73662195055E+02  0.53268602740E+01  0.75817089135E+02  0.00000000000E+00 0.  1.
         11    1    3    3    0    0  0.75497997109E+02  0.80432853003E+01 -0.27445782509E+01  0.75974829488E+02  0.00000000000E+00 0. -1.
        -11    1    4    4    0    0 -0.47663859821E+02 -0.41071967819E+02  0.16657713612E+02  0.65086323420E+02  0.00000000000E+00 0. -1.
         11    1    4    4    0    0  0.25655848091E+02  0.10466705851E+00  0.55621496991E+02  0.61253444180E+02  0.00000000000E+00 0.  1.
          2    1    1    2  501    0 -0.70628730493E+02 -0.40738179595E+02  0.90013906468E+02  0.12145171965E+03  0.00000000000E+00 0. -1.
<scales pt_clust_5="13000.00000" pt_clust_6="13000.00000" pt_clust_7="13000.00000" pt_clust_8="13000.00000" pt_clust_9="81.53537"></scales>
<clustering>
<clus scale="   81.535">  1  9  2 -1</clus>
<clus scale="   88.186">  5  6 -1 -1</clus>
<clus scale="   92.600">  7  8 -1 -1</clus>
<clus scale="  125.186">  2  5  1 -1</clus>
<clus scale="   81.535">  1  5  2 -1</clus>
</clustering>
</event>
<event>
 9    1  0.1671478E-005  0.1183711E+03  0.7546771E-02  0.1246178E+00
         21   -1    0    0  501  502  0.00000000000E+00  0.00000000000E+00  0.84580407511E+02  0.84580407511E+02  0.00000000000E+00 0.  1.
          2   -1    0    0  502    0 -0.00000000000E+00 -0.00000000000E+00 -0.28011217727E+03  0.28011217727E+03  0.00000000000E+00 0. -1.
         23    2    1    2    0    0 -0.63401307316E+02  0.87325782507E+01 -0.14363662130E+03  0.18212937694E+03  0.91889320788E+02 0.  0.
         23    2    1    2    0    0  0.97131433421E+02 -0.22050922101E+02 -0.56284298116E+02  0.14603425597E+03  0.90759700192E+02 0.  0.
        -11    1    3    3    0    0  0.13665434192E+02  0.27865788176E+02 -0.27657092132E+02  0.41571155716E+02  0.00000000000E+00 0.  1.
         11    1    3    3    0    0 -0.77066741507E+02 -0.19133209926E+02 -0.11597952917E+03  0.14055822123E+03  0.00000000000E+00 0. -1.
        -13    1    4    4    0    0  0.10419375639E+03 -0.42702710448E+02 -0.50778490022E+02  0.12352455383E+03  0.00000000000E+00 0.  1.
         13    1    4    4    0    0 -0.70623229692E+01  0.20651788348E+02 -0.55058080934E+01  0.22509702140E+02  0.00000000000E+00 0. -1.
          2    1    1    2  501    0 -0.33730126105E+02  0.13318343850E+02  0.43891496536E+01  0.36528951869E+02  0.00000000000E+00 0. -1.
<scales pt_clust_5="13000.00000" pt_clust_6="13000.00000" pt_clust_7="13000.00000" pt_clust_8="13000.00000" pt_clust_9="36.26430"></scales>
<clustering>
<clus scale="   36.264">  1  9  2 -1</clus>
<clus scale="   90.760">  7  8 -1 -1</clus>
<clus scale="   91.889">  5  6 -1 -1</clus>
<clus scale="  117.496">  1  7  2 -1</clus>
<clus scale="   36.264">  1  5  2 -1</clus>
</clustering>
</event>
<event>
 9    1  0.1671478E-005  0.1814753E+03  0.7546771E-02  0.1166758E+00
         21   -1    0    0  501  502  0.00000000000E+00  0.00000000000E+00  0.17995541247E+03  0.17995541247E+03  0.00000000000E+00 0.  1.
          1   -1    0    0  502    0 -0.00000000000E+00 -0.00000000000E+00 -0.27981151734E+03  0.27981151734E+03  0.00000000000E+00 0. -1.
         23    2    1    2    0    0 -0.11142360576E+03  0.47797937696E+02 -0.14784482969E+02  0.15133432196E+03  0.89351179620E+02 0.  0.
         23    2    1    2    0    0  0.18896608951E+03 -0.49665265150E+02 -0.80764188722E+02  0.23074813270E+03  0.92450121789E+02 0.  0.
        -11    1    4    4    0    0  0.79709730568E+02 -0.11650413424E+02  0.13303967813E+02  0.81647834263E+02  0.00000000000E+00 0.  1.
         11    1    4    4    0    0  0.10925635894E+03 -0.38014851726E+02 -0.94068156535E+02  0.14910029844E+03  0.00000000000E+00 0. -1.
        -13    1    3    3    0    0 -0.32455469115E+02 -0.20582238369E+02  0.17175417658E+02  0.42094904484E+02  0.00000000000E+00 0.  1.
         13    1    3    3    0    0 -0.78968136644E+02  0.68380176064E+02 -0.31959900627E+02  0.10923941748E+03  0.00000000000E+00 0. -1.
          1    1    1    2  501    0 -0.77542483749E+02  0.18673274544E+01 -0.43074331843E+01  0.77684475145E+02  0.00000000000E+00 0. -1.
<scales pt_clust_5="13000.00000" pt_clust_6="13000.00000" pt_clust_7="13000.00000" pt_clust_8="13000.00000" pt_clust_9="77.56496"></scales>
<clustering>
<clus scale="   77.565">  1  9  2 -1</clus>
<clus scale="   89.351">  7  8 -1 -1</clus>
<clus scale="   92.450">  5  6 -1 -1</clus>
<clus scale="  179.916">  2  7  1 -1</clus>
<clus scale="   77.565">  1  5  2 -1</clus>
</clustering>
</event>
<event>
 9    1  0.1671478E-005  0.9506653E+02  0.7546771E-02  0.1292536E+00
         21   -1    0    0  501  502  0.00000000000E+00  0.00000000000E+00  0.41781021173E+02  0.41781021173E+02  0.00000000000E+00 0. -1.
          2   -1    0    0  502    0 -0.00000000000E+00 -0.00000000000E+00 -0.60598588651E+03  0.60598588651E+03  0.00000000000E+00 0. -1.
         23    2    1    2    0    0 -0.28944515964E+02  0.17457721399E+02 -0.40013635083E+03  0.41116520670E+03  0.88346878303E+02 0.  0.
         23    2    1    2    0    0 -0.33953722904E+02 -0.36391257088E+02 -0.87981767033E+02  0.13608374056E+03  0.91108804307E+02 0.  0.
        -11    1    4    4    0    0 -0.54643639454E+02 -0.30927063724E+02 -0.94726688227E+02  0.11364662804E+03  0.00000000000E+00 0. -1.
         11    1    4    4    0    0  0.20689916550E+02 -0.54641933644E+01  0.67449211947E+01  0.22437112512E+02  0.00000000000E+00 0.  1.
        -13    1    3    3    0    0  0.50206205422E+01 -0.33024012073E+02 -0.15901884127E+03  0.16248933467E+03  0.00000000000E+00 0.  1.
         13    1    3    3    0    0 -0.33965136506E+02  0.50481733473E+02 -0.24111750956E+03  0.24867587203E+03  0.00000000000E+00 0. -1.
          2    1    1    2  501    0  0.62898238868E+02  0.18933535689E+02 -0.76086747473E+02  0.10051796042E+03  0.00000000000E+00 0. -1.
<scales pt_clust_5="13000.00000" pt_clust_6="13000.00000" pt_clust_7="13000.00000" pt_clust_8="13000.00000" pt_clust_9="65.68613"></scales>
<clustering>
<clus scale="   65.686">  1  9  2 -1</clus>
<clus scale="   88.347">  7  8 -1 -1</clus>
<clus scale="   91.109">  5  6 -1 -1</clus>
<clus scale="   92.423">  2  7  1 -1</clus>
<clus scale="   65.686">  1  5  2 -1</clus>
</clustering>
</event>
<event>
 9    1  0.1671478E-005  0.2187761E+03  0.7546771E-02  0.1134852E+00
         21   -1    0    0  501  502  0.00000000000E+00  0.00000000000E+00  0.27371781324E+03  0.27371781324E+03  0.00000000000E+00 0. -1.
          1   -1    0    0  502    0 -0.00000000000E+00 -0.00000000000E+00 -0.27927477496E+03  0.27927477496E+03  0.00000000000E+00 0. -1.
         23    2    1    2    0    0 -0.18111424299E+03 -0.64331551246E+02 -0.55068177532E+02  0.21997373212E+03  0.91733424368E+02 0.  0.
         23    2    1    2    0    0  0.18722984469E+03  0.86052371215E+02 -0.50185344820E+02  0.23080046827E+03  0.91050875802E+02 0.  0.
        -11    1    4    4    0    0  0.16488106889E+03  0.56487432720E+02 -0.77522824360E+01  0.17446115560E+03  0.00000000000E+00 0.  1.
         11    1    4    4    0    0  0.22348775805E+02  0.29564938495E+02 -0.42433062384E+02  0.56339312664E+02  0.00000000000E+00 0. -1.
        -11    1    3    3    0    0 -0.11699580001E+03 -0.70261075050E+02 -0.19276640071E+01  0.13648572004E+03  0.00000000000E+00 0.  1.
         11    1    3    3    0    0 -0.64118442977E+02  0.59295238042E+01 -0.53140513525E+02  0.83488012074E+02  0.00000000000E+00 0. -1.
          1    1    1    2  501    0 -0.61156017038E+01 -0.21720819969E+02  0.99696560634E+02  0.10221838781E+03  0.00000000000E+00 0. -1.
<scales pt_clust_5="13000.00000" pt_clust_6="13000.00000" pt_clust_7="13000.00000" pt_clust_8="13000.00000" pt_clust_9="22.56534"></scales>
<clustering>
<clus scale="   22.565">  1  9  2 -1</clus>
<clus scale="   91.051">  5  6 -1 -1</clus>
<clus scale="   91.733">  7  8 -1 -1</clus>
<clus scale="  218.491">  1  5  2 -1</clus>
<clus scale="   22.565">  1  5  2 -1</clus>
</clustering>
</event>
<event>
 9    1  0.1671478E-005  0.1247138E+03  0.7546771E-02  0.1236152E+00
         -3   -1    0    0    0  501 -0.00000000000E+00  0.00000000000E+00  0.21310254774E+03  0.21310254774E+03  0.00000000000E+00 0.  1.
         21   -1    0    0  501  502  0.00000000000E+00 -0.00000000000E+00 -0.16537088336E+03  0.16537088336E+03  0.00000000000E+00 0.  1.
         23    2    1    2    0    0 -0.81094952261E+02  0.43696545513E+02  0.11144084311E+03  0.16938452883E+03  0.88239887360E+02 0.  0.
         23    2    1    2    0    0  0.58946303982E+02 -0.48200357735E+02  0.22149749883E+02  0.12030488024E+03  0.90469395656E+02 0.  0.
        -13    1    4    4    0    0  0.17250606539E+02 -0.15364372670E+02  0.53772903106E+02  0.58524973148E+02  0.00000000000E+00 0.  1.
         13    1    4    4    0    0  0.41695697442E+02 -0.32835985064E+02 -0.31623153222E+02  0.61779907090E+02  0.00000000000E+00 0. -1.
        -13    1    3    3    0    0 -0.10014704681E+03  0.34922025848E+02  0.87013707172E+02  0.13718733218E+03  0.00000000000E+00 0.  1.
         13    1    3    3    0    0  0.19052094549E+02  0.87745196652E+01  0.24427135935E+02  0.32197196649E+02  0.00000000000E+00 0. -1.
         -3    1    1    2    0  502  0.22148648280E+02  0.45038122213E+01 -0.85858928618E+02  0.88784022034E+02  0.00000000000E+00 0.  1.
<scales pt_clust_5="13000.00000" pt_clust_6="13000.00000" pt_clust_7="13000.00000" pt_clust_8="13000.00000" pt_clust_9="22.60192"></scales>
<clustering>
<clus scale="   22.602">  2  9  1 -1</clus>
<clus scale="   88.240">  7  8 -1 -1</clus>
<clus scale="   90.469">  5  6 -1 -1</clus>
<clus scale="  123.106">  1  7  2 -1</clus>
<clus scale="   22.602">  2  5  1 -1</clus>
</clustering>
</event>
<event>
 9    1  0.1671478E-005  0.2044938E+03  0.7546771E-02  0.1146058E+00
          2   -1    0    0  502    0 -0.00000000000E+00  0.00000000000E+00  0.78899234057E+03  0.78899234057E+03  0.00000000000E+00 0. -1.
         21   -1    0    0  501  502  0.00000000000E+00 -0.00000000000E+00 -0.65942270278E+02  0.65942270278E+02  0.00000000000E+00 0.  1.
         23    2    1    2    0    0  0.17153943007E+03  0.25017547767E+02  0.40217243784E+03  0.44740431474E+03  0.91522113857E+02 0.  0.
         23    2    1    2    0    0 -0.19874286360E+03 -0.97441916107E+01  0.26965855406E+03  0.34755783414E+03  0.92125117044E+02 0.  0.
        -11    1    3    3    0    0  0.89172846310E+02  0.10648877879E+02  0.31096222375E+03  0.32367066552E+03  0.00000000000E+00 0. -1.
         11    1    3    3    0    0  0.82366583763E+02  0.14368669887E+02  0.91210214092E+02  0.12373364922E+03  0.00000000000E+00 0.  1.
        -13    1    4    4    0    0 -0.15244327547E+03  0.74282032370E+01  0.25294602375E+03  0.29542481509E+03  0.00000000000E+00 0.  1.
         13    1    4    4    0    0 -0.46299588125E+02 -0.17172394848E+02  0.16712530309E+02  0.52133019044E+02  0.00000000000E+00 0. -1.
          2    1    1    2  501    0  0.27203433523E+02 -0.15273356156E+02  0.51219078385E+02  0.59972461966E+02  0.00000000000E+00 0. -1.
<scales pt_clust_5="13000.00000" pt_clust_6="13000.00000" pt_clust_7="13000.00000" pt_clust_8="13000.00000" pt_clust_9="31.19781"></scales>
<clustering>
<clus scale="   31.198">  2  9  1 -1</clus>
<clus scale="   91.522">  5  6 -1 -1</clus>
<clus scale="   92.125">  7  8 -1 -1</clus>
<clus scale="  204.223">  1  5  2 -1</clus>
<clus scale="   31.198">  2  5  1 -1</clus>
</clustering>
</event>
<event>
 9    1  0.1671478E-005  0.1102715E+03  0.7546771E-02  0.1260142E+00
         -1   -1    0    0    0  501 -0.00000000000E+00  0.00000000000E+00  0.11535443358E+03  0.11535443358E+03  0.00000000000E+00 0.  1.
         21   -1    0    0  501  502  0.00000000000E+00 -0.00000000000E+00 -0.16533404026E+03  0.16533404026E+03  0.00000000000E+00 0. -1.
         23    2    1    2    0    0 -0.68728605718E+02  0.22388682728E+02  0.33067585370E+02  0.11926003716E+03  0.88907912489E+02 0.  0.
         23    2    1    2    0    0  0.53686748904E+02 -0.66919322536E+00 -0.41103805507E+02  0.11185786724E+03  0.89106367945E+02 0.  0.
        -13    1    4    4    0    0 -0.33297272691E+01  0.35445508163E+02 -0.71736360408E+01  0.36317105979E+02  0.00000000000E+00 0. -1.
         13    1    4    4    0    0  0.57016476173E+02 -0.36114701389E+02 -0.33930169466E+02  0.75540761259E+02  0.00000000000E+00 0.  1.
        -13    1    3    3    0    0 -0.24530158794E+02  0.42488066003E+02 -0.14631520766E+02  0.51196150666E+02  0.00000000000E+00 0.  1.
         13    1    3    3    0    0 -0.44198446924E+02 -0.20099383275E+02  0.47699106136E+02  0.68063886495E+02  0.00000000000E+00 0. -1.
         -1    1    1    2    0  502  0.15041856814E+02 -0.21719489503E+02 -0.41943386545E+02  0.49570569449E+02  0.00000000000E+00 0.  1.
<scales pt_clust_5="13000.00000" pt_clust_6="13000.00000" pt_clust_7="13000.00000" pt_clust_8="13000.00000" pt_clust_9="26.41957"></scales>
<clustering>
<clus scale="   26.420">  2  9  1 -1</clus>
<clus scale="   88.908">  7  8 -1 -1</clus>
<clus scale="   89.106">  5  6 -1 -1</clus>
<clus scale="  110.111">  1  7  2 -1</clus>
<clus scale="   26.420">  2  5  1 -1</clus>
</clustering>
</event>
<event>
 9    1  0.1671478E-005  0.1452403E+03  0.7546771E-02  0.1225299E+00
         21   -1    0    0  501  502  0.00000000000E+00  0.00000000000E+00  0.30523011724E+03  0.30523011724E+03  0.00000000000E+00 0. -1.
          1   -1    0    0  502    0 -0.00000000000E+00 -0.00000000000E+00 -0.27795534993E+03  0.27795534993E+03  0.00000000000E+00 0. -1.
         23    2    1    2    0    0  0.13129145543E+02  0.30498707629E+02 -0.14316334415E+03  0.17320650985E+03  0.91663549550E+02 0.  0.
         23    2    1    2    0    0  0.78147605169E+02  0.41393095576E+02 -0.68418740653E+02  0.14436180353E+03  0.91316864216E+02 0.  0.
        -13    1    4    4    0    0  0.61448316291E+02 -0.17611555420E+02 -0.22551889417E+02  0.67783848929E+02  0.00000000000E+00 0. -1.
         13    1    4    4    0    0  0.16699288878E+02  0.59004650997E+02 -0.45866851237E+02  0.76577954599E+02  0.00000000000E+00 0.  1.
        -13    1    3    3    0    0  0.12842858863E+02 -0.21826297935E+02 -0.54733939513E+01  0.25909155653E+02  0.00000000000E+00 0.  1.
         13    1    3    3    0    0  0.28628667959E+00  0.52325005564E+02 -0.13768995020E+03  0.14729735420E+03  0.00000000000E+00 0. -1.
          1    1    1    2  501    0 -0.91276750712E+02 -0.71891803205E+02  0.23885685211E+03  0.26561715379E+03  0.00000000000E+00 0. -1.
<scales pt_clust_5="13000.00000" pt_clust_6="13000.00000" pt_clust_7="13000.00000" pt_clust_8="13000.00000" pt_clust_9="112.94241"></scales>
<clustering>
<clus scale="   91.317">  5  6 -1 -1</clus>
<clus scale="   91.664">  7  8 -1 -1</clus>
<clus scale="   97.492">  2  7  1 -1</clus>
<clus scale="  112.942">  1  9  2 -1</clus>
<clus scale="  112.942">  1  5  2 -1</clus>
</clustering>
</event>
<event>
 9    1  0.1671478E-005  0.9604878E+02  0.7546771E-02  0.1289106E+00
         21   -1    0    0  501  502  0.00000000000E+00  0.00000000000E+00  0.42773191788E+02  0.42773191788E+02  0.00000000000E+00 0. -1.
         -2   -1    0    0    0  501 -0.00000000000E+00 -0.00000000000E+00 -0.46616331390E+03  0.46616331390E+03  0.00000000000E+00 0.  1.
         23    2    1    2    0    0 -0.27449735239E+02 -0.33405782017E+02 -0.34867914218E+03  0.36237633483E+03  0.88713187389E+02 0.  0.
         23    2    1    2    0    0  0.36456577932E+01  0.56165264811E+01 -0.52817169988E+02  0.10391962982E+03  0.89245727210E+02 0.  0.
        -11    1    3    3    0    0 -0.58640480544E+02 -0.27498941136E+02 -0.19573683160E+03  0.20617421024E+03  0.00000000000E+00 0. -1.
         11    1    3    3    0    0  0.31190745305E+02 -0.59068408810E+01 -0.15294231058E+03  0.15620212459E+03  0.00000000000E+00 0.  1.
        -13    1    4    4    0    0 -0.32593982012E+02  0.11658174398E+02  0.54439855204E+01  0.35041656240E+02  0.00000000000E+00 0. -1.
         13    1    4    4    0    0  0.36239639806E+02 -0.60416479166E+01 -0.58261155509E+02  0.68877973577E+02  0.00000000000E+00 0.  1.
         -2    1    1    2    0  502  0.23804077445E+02  0.27789255536E+02 -0.21893809940E+02  0.42640541037E+02  0.00000000000E+00 0.  1.
<scales pt_clust_5="13000.00000" pt_clust_6="13000.00000" pt_clust_7="13000.00000" pt_clust_8="13000.00000" pt_clust_9="36.59067"></scales>
<clustering>
<clus scale="   36.591">  1  9  2 -1</clus>
<clus scale="   88.713">  5  6 -1 -1</clus>
<clus scale="   89.246">  7  8 -1 -1</clus>
<clus scale="   95.554">  2  5  1 -1</clus>
<clus scale="   36.591">  1  5  2 -1</clus>
</clustering>
</event>
<event>
 9    1  0.1671478E-005  0.1308753E+03  0.7546771E-02  0.1227102E+00
         -3   -1    0    0    0  501 -0.00000000000E+00  0.00000000000E+00  0.11684111583E+03  0.11684111583E+03  0.00000000000E+00 0.  1.
         21   -1    0    0  501  502  0.00000000000E+00 -0.00000000000E+00 -0.33047863990E+03  0.33047863990E+03  0.00000000000E+00 0. -1.
         23    2    1    2    0    0 -0.31422020091E+02 -0.69184733889E+02  0.65992182529E+01  0.11973311358E+03  0.92296251577E+02 0.  0.
         23    2    1    2    0    0  0.36634262011E+02  0.13709058730E+03 -0.11803344666E+03  0.20477016916E+03  0.88673724221E+02 0.  0.
        -11    1    4    4    0    0  0.88095963790E+01  0.19353400111E+02 -0.72418775787E+02  0.75476103309E+02  0.00000000000E+00 0.  1.
         11    1    4    4    0    0  0.27824665632E+02  0.11773718719E+03 -0.45614670872E+02  0.12929406585E+03  0.00000000000E+00 0. -1.
        -11    1    3    3    0    0  0.21440183245E+02 -0.44941661492E+02  0.28754112243E+02  0.57499855357E+02  0.00000000000E+00 0. -1.
         11    1    3    3    0    0 -0.52862203336E+02 -0.24243072398E+02 -0.22154893991E+02  0.62233258219E+02  0.00000000000E+00 0.  1.
         -3    1    1    2    0  502 -0.52122419208E+01 -0.67905853414E+02 -0.10220329567E+03  0.12281647299E+03  0.00000000000E+00 0.  1.
<scales pt_clust_5="13000.00000" pt_clust_6="13000.00000" pt_clust_7="13000.00000" pt_clust_8="13000.00000" pt_clust_9="68.10560"></scales>
<clustering>
<clus scale="   68.106">  2  9  1 -1</clus>
<clus scale="   88.674">  5  6 -1 -1</clus>
<clus scale="   92.296">  7  8 -1 -1</clus>
<clus scale="  128.346">  2  5  1 -1</clus>
<clus scale="   68.106">  2  5  1 -1</clus>
</clustering>
</event>
<event>
 9    1  0.1671478E-005  0.2969704E+03  0.7546771E-02  0.1118442E+00
         21   -1    0    0  501  502  0.00000000000E+00  0.00000000000E+00  0.15857587910E+03  0.15857587910E+03  0.00000000000E+00 0. -1.
          1   -1    0    0  502    0 -0.00000000000E+00 -0.00000000000E+00 -0.10412753646E+04  0.10412753646E+04  0.00000000000E+00 0. -1.
         23    2    1    2    0    0 -0.18282468571E+02  0.93692423578E+02 -0.29241115098E+03  0.32043036681E+03  0.89770929956E+02 0.  0.
         23    2    1    2    0    0 -0.11300315373E+03  0.18298533959E+03 -0.51198640322E+03  0.56332327850E+03  0.94602810499E+02 0.  0.
        -11    1    4    4    0    0 -0.95237676023E+01  0.46944915448E+02 -0.21852849390E+03  0.22371685203E+03  0.00000000000E+00 0. -1.
         11    1    4    4    0    0 -0.10347938613E+03  0.13604042414E+03 -0.29345790932E+03  0.33960642647E+03  0.00000000000E+00 0.  1.
        -11    1    3    3    0    0  0.27203021238E+02  0.78458345401E+02 -0.18864093206E+03  0.20610947959E+03  0.00000000000E+00 0.  1.
         11    1    3    3    0    0 -0.45485489809E+02  0.15234078177E+02 -0.10377021892E+03  0.11432088722E+03  0.00000000000E+00 0. -1.
          1    1    1    2  501    0  0.13128562230E+03 -0.27667776316E+03 -0.78301931287E+02  0.31609759837E+03  0.00000000000E+00 0. -1.
<scales pt_clust_5="13000.00000" pt_clust_6="13000.00000" pt_clust_7="13000.00000" pt_clust_8="13000.00000" pt_clust_9="281.49908"></scales>
<clustering>
<clus scale="   89.771">  7  8 -1 -1</clus>
<clus scale="   94.603">  5  6 -1 -1</clus>
<clus scale="  131.039">  2  7  1 -1</clus>
<clus scale="  281.499">  1  9  2 -1</clus>
<clus scale="  281.499">  1  5  2 -1</clus>
</clustering>
</event>
<event>
 9    1  0.1671478E-005  0.1015260E+03  0.7546771E-02  0.1278535E+00
         -4   -1    0    0    0  501 -0.00000000000E+00  0.00000000000E+00  0.30046593892E+03  0.30046593892E+03  0.00000000000E+00 0.  1.
         21   -1    0    0  501  502  0.00000000000E+00 -0.00000000000E+00 -0.18600326976E+03  0.18600326976E+03  0.00000000000E+00 0. -1.
         23    2    1    2    0    0  0.21090147367E+02 -0.35041855954E+02  0.25866336781E+03  0.27754161345E+03  0.91923247150E+02 0.  0.
         23    2    1    2    0    0 -0.36275685958E+02  0.56738588246E+02 -0.73903537130E+02  0.13380742689E+03  0.88924135653E+02 0.  0.
        -11    1    3    3    0    0  0.28125248436E-01  0.27226188227E+02  0.13263552628E+03  0.13540106701E+03  0.00000000000E+00 0. -1.
         11    1    3    3    0    0  0.21062022119E+02 -0.62268044181E+02  0.12602784153E+03  0.14214054644E+03  0.00000000000E+00 0.  1.
        -13    1    4    4    0    0 -0.61181943492E+02  0.15363280308E+02 -0.45526296285E+02  0.77793985916E+02  0.00000000000E+00 0.  1.
         13    1    4    4    0    0  0.24906257534E+02  0.41375307938E+02 -0.28377240846E+02  0.56013440970E+02  0.00000000000E+00 0. -1.
         -4    1    1    2    0  502  0.15185538591E+02 -0.21696732292E+02 -0.70297161512E+02  0.75120168338E+02  0.00000000000E+00 0.  1.
<scales pt_clust_5="13000.00000" pt_clust_6="13000.00000" pt_clust_7="13000.00000" pt_clust_8="13000.00000" pt_clust_9="26.48299"></scales>
<clustering>
<clus scale="   26.483">  2  9  1 -1</clus>
<clus scale="   88.924">  7  8 -1 -1</clus>
<clus scale="   91.923">  5  6 -1 -1</clus>
<clus scale="   98.819">  2  7  1 -1</clus>
<clus scale="   26.483">  2  5  1 -1</clus>
</clustering>
</event>
<event>
 9    1  0.1671478E-005  0.1159561E+03  0.7546771E-02  0.1250199E+00
         -1   -1    0    0    0  501 -0.00000000000E+00  0.00000000000E+00  0.65804322308E+02  0.65804322308E+02  0.00000000000E+00 0.  1.
         21   -1    0    0  501  502  0.00000000000E+00 -0.00000000000E+00 -0.46029919281E+03  0.46029919281E+03  0.00000000000E+00 0. -1.
         23    2    1    2    0    0  0.65771793057E+02  0.14999212176E+02 -0.57845816594E+02  0.12796029152E+03  0.92069498649E+02 0.  0.
         23    2    1    2    0    0 -0.76989978203E+02  0.26152082177E+02 -0.10069126985E+03  0.15836133820E+03  0.91258936370E+02 0.  0.
        -11    1    3    3    0    0  0.73507562220E+02 -0.93762387555E+01 -0.67875239650E+02  0.10049041603E+03  0.00000000000E+00 0.  1.
         11    1    3    3    0    0 -0.77357691628E+01  0.24375450932E+02  0.10029423056E+02  0.27469875492E+02  0.00000000000E+00 0. -1.
        -13    1    4    4    0    0  0.34151884460E+01  0.20263725588E+02 -0.68560580140E+02  0.71573984352E+02  0.00000000000E+00 0. -1.
         13    1    4    4    0    0 -0.80405166649E+02  0.58883565887E+01 -0.32130689710E+02  0.86787353851E+02  0.00000000000E+00 0.  1.
         -1    1    1    2    0  502  0.11218185146E+02 -0.41151294353E+02 -0.23595778405E+03  0.23978188539E+03  0.00000000000E+00 0.  1.
<scales pt_clust_5="13000.00000" pt_clust_6="13000.00000" pt_clust_7="13000.00000" pt_clust_8="13000.00000" pt_clust_9="42.65298"></scales>
<clustering>
<clus scale="   42.653">  2  9  1 -1</clus>
<clus scale="   91.259">  7  8 -1 -1</clus>
<clus scale="   92.069">  5  6 -1 -1</clus>
<clus scale="  115.314">  2  7  1 -1</clus>
<clus scale="   42.653">  2  5  1 -1</clus>
</clustering>
</event>
<event>
 9    1  0.1671478E-005  0.1392140E+03  0.7546771E-02  0.1214412E+00
          3   -1    0    0  502    0 -0.00000000000E+00  0.00000000000E+00  0.98901663714E+02  0.98901663714E+02  0.00000000000E+00 0. -1.
         21   -1    0    0  501  502  0.00000000000E+00 -0.00000000000E+00 -0.36069503375E+03  0.36069503375E+03  0.00000000000E+00 0. -1.
         23    2    1    2    0    0 -0.77611479203E+02 -0.94447731421E+02 -0.13258935074E+02  0.15293476810E+03  0.90935846944E+02 0.  0.
         23    2    1    2    0    0  0.66842906257E+02  0.35270127919E+02 -0.14765282233E+03  0.18920959568E+03  0.91032736513E+02 0.  0.
        -11    1    4    4    0    0  0.17333226006E+02  0.40276329648E+02 -0.12869320607E+03  0.13595795211E+03  0.00000000000E+00 0.  1.
         11    1    4    4    0    0  0.49509680251E+02 -0.50062017290E+01 -0.18959616255E+02  0.53251643570E+02  0.00000000000E+00 0. -1.
        -13    1    3    3    0    0 -0.17352269308E+02  0.17426891041E+02 -0.75895136533E+01  0.25737103547E+02  0.00000000000E+00 0.  1.
         13    1    3    3    0    0 -0.60259209894E+02 -0.11187462246E+03 -0.56694214211E+01  0.12719766455E+03  0.00000000000E+00 0. -1.
          3    1    1    2  501    0  0.10768572946E+02  0.59177603502E+02 -0.10088161263E+03  0.11745233368E+03  0.00000000000E+00 0. -1.
<scales pt_clust_5="13000.00000" pt_clust_6="13000.00000" pt_clust_7="13000.00000" pt_clust_8="13000.00000" pt_clust_9="60.14940"></scales>
<clustering>
<clus scale="   60.149">  2  9  1 -1</clus>
<clus scale="   90.936">  7  8 -1 -1</clus>
<clus scale="   91.033">  5  6 -1 -1</clus>
<clus scale="  139.151">  1  7  2 -1</clus>
<clus scale="   60.149">  2  5  1 -1</clus>
</clustering>
</event>
<event>
 9    1  0.1671478E-005  0.1148463E+03  0.7546771E-02  0.1261529E+00
         21   -1    0    0  501  502  0.00000000000E+00  0.00000000000E+00  0.50899933724E+02  0.50899933724E+02  0.00000000000E+00 0.  1.
         -1   -1    0    0    0  501 -0.00000000000E+00 -0.00000000000E+00 -0.67608837085E+03  0.67608837085E+03  0.00000000000E+00 0.  1.
         23    2    1    2    0    0 -0.23682650725E+02  0.35031699305E+02 -0.57986909309E+03  0.59135051711E+03  0.10797768780E+03 0.  0.
         23    2    1    2    0    0  0.35172647554E+01 -0.28175670811E+02 -0.60715507033E+02  0.10935681045E+03  0.86407752091E+02 0.  0.
        -13    1    3    3    0    0  0.35922783231E+02  0.42317468748E+02 -0.30328110246E+03  0.30831905816E+03  0.00000000000E+00 0.  1.
         13    1    3    3    0    0 -0.59605433956E+02 -0.72857694429E+01 -0.27658799063E+03  0.28303145894E+03  0.00000000000E+00 0. -1.
        -13    1    4    4    0    0 -0.26888984565E+02 -0.51482229755E+01  0.98888267733E+01  0.29108599858E+02  0.00000000000E+00 0.  1.
         13    1    4    4    0    0  0.30406249321E+02 -0.23027447835E+02 -0.70604333807E+02  0.80248210596E+02  0.00000000000E+00 0. -1.
         -1    1    1    2    0  502  0.20165385970E+02 -0.68560284947E+01  0.15396162993E+02  0.26280977016E+02  0.00000000000E+00 0.  1.
<scales pt_clust_5="13000.00000" pt_clust_6="13000.00000" pt_clust_7="13000.00000" pt_clust_8="13000.00000" pt_clust_9="21.29901"></scales>
<clustering>
<clus scale="   21.299">  1  9  2 -1</clus>
<clus scale="   86.408">  7  8 -1 -1</clus>
<clus scale="   94.851">  1  7  2 -1</clus>
<clus scale="  107.978">  5  6 -1 -1</clus>
<clus scale="   21.299">  1  5  2 -1</clus>
</clustering>
</event>
<event>
 9    1  0.1671478E-005  0.9840580E+02  0.7546771E-02  0.1287721E+00
         21   -1    0    0  501  502  0.00000000000E+00  0.00000000000E+00  0.15446855882E+03  0.15446855882E+03  0.00000000000E+00 0. -1.
          1   -1    0    0  502    0 -0.00000000000E+00 -0.00000000000E+00 -0.17997914073E+03  0.17997914073E+03  0.00000000000E+00 0. -1.
         23    2    1    2    0    0  0.14086462054E+02 -0.24137461665E+02 -0.94758696981E+02  0.13792462955E+03  0.96244206649E+02 0.  0.
         23    2    1    2    0    0  0.18990543287E+02  0.14511645286E+02 -0.25685516304E+02  0.95532283350E+02  0.88856304397E+02 0.  0.
        -13    1    3    3    0    0 -0.38962959694E+02  0.52809057549E+01 -0.32652718234E+02  0.51109687944E+02  0.00000000000E+00 0.  1.
         13    1    3    3    0    0  0.53049421748E+02 -0.29418367420E+02 -0.62105978747E+02  0.86814941603E+02  0.00000000000E+00 0. -1.
        -13    1    4    4    0    0 -0.25795402282E+02 -0.77477278904E+00  0.17730359623E+02  0.31310840042E+02  0.00000000000E+00 0.  1.
         13    1    4    4    0    0  0.44785945569E+02  0.15286418075E+02 -0.43415875927E+02  0.64221443308E+02  0.00000000000E+00 0. -1.
          1    1    1    2  501    0 -0.33077005342E+02  0.96258163788E+01  0.94933631371E+02  0.10099078665E+03  0.00000000000E+00 0. -1.
<scales pt_clust_5="13000.00000" pt_clust_6="13000.00000" pt_clust_7="13000.00000" pt_clust_8="13000.00000" pt_clust_9="34.44916"></scales>
<clustering>
<clus scale="   34.449">  1  9  2 -1</clus>
<clus scale="   88.856">  7  8 -1 -1</clus>
<clus scale="   91.193">  1  7  2 -1</clus>
<clus scale="   96.244">  5  6 -1 -1</clus>
<clus scale="   34.449">  1  5  2 -1</clus>
</clustering>
</event>
<event>
 9    1  0.1671478E-005  0.1076258E+03  0.7546771E-02  0.1265757E+00
         21   -1    0    0  501  502  0.00000000000E+00  0.00000000000E+00  0.13784679504E+02  0.13784679504E+02  0.00000000000E+00 0.  1.
          4   -1    0    0  502    0 -0.00000000000E+00 -0.00000000000E+00 -0.11316411113E+04  0.11316411113E+04  0.00000000000E+00 0. -1.
         23    2    1    2    0    0 -0.37297473821E+02 -0.61175411188E+02 -0.62590966905E+03  0.63641751458E+03  0.90170985201E+02 0.  0.
         23    2    1    2    0    0  0.25179483938E+02  0.37374784046E+02 -0.43418778861E+03  0.44537326522E+03  0.88359655407E+02 0.  0.
        -11    1    3    3    0    0 -0.20958078406E+02 -0.84268411289E+02 -0.46419460973E+03  0.47224680189E+03  0.00000000000E+00 0.  1.
         11    1    3    3    0    0 -0.16339395415E+02  0.23093000101E+02 -0.16171505932E+03  0.16417071269E+03  0.00000000000E+00 0. -1.
        -13    1    4    4    0    0  0.31103234515E+02 -0.22585211800E+02 -0.14784784176E+03  0.15276284660E+03  0.00000000000E+00 0.  1.
         13    1    4    4    0    0 -0.59237505763E+01  0.59959995846E+02 -0.28633994684E+03  0.29261041861E+03  0.00000000000E+00 0. -1.
          4    1    1    2  501    0  0.12117989883E+02  0.23800627142E+02 -0.57758974127E+02  0.63635010987E+02  0.00000000000E+00 0. -1.
<scales pt_clust_5="13000.00000" pt_clust_6="13000.00000" pt_clust_7="13000.00000" pt_clust_8="13000.00000" pt_clust_9="26.70797"></scales>
<clustering>
<clus scale="   26.708">  1  9  2 -1</clus>
<clus scale="   88.360">  7  8 -1 -1</clus>
<clus scale="   90.171">  5  6 -1 -1</clus>
<clus scale="  106.113">  1  7  2 -1</clus>
<clus scale="   26.708">  1  5  2 -1</clus>
</clustering>
</event>
<event>
 9    1  0.1671478E-005  0.1156222E+03  0.7546771E-02  0.1250868E+00
          2   -1    0    0  502    0 -0.00000000000E+00  0.00000000000E+00  0.33154989656E+03  0.33154989656E+03  0.00000000000E+00 0. -1.
         21   -1    0    0  501  502  0.00000000000E+00 -0.00000000000E+00 -0.26078215414E+03  0.26078215414E+03  0.00000000000E+00 0.  1.
         23    2    1    2    0    0  0.44786129888E+02 -0.58223560270E+02  0.29954547804E+03  0.32144116288E+03  0.90560186514E+02 0.  0.
         23    2    1    2    0    0 -0.51310288342E+02  0.18518682398E+02 -0.16272992096E+03  0.19355166237E+03  0.89473636026E+02 0.  0.
        -13    1    3    3    0    0 -0.58190260874E+01 -0.38459263330E+02  0.22962030617E+03  0.23289152197E+03  0.00000000000E+00 0. -1.
         13    1    3    3    0    0  0.50605155976E+02 -0.19764296940E+02  0.69925171871E+02  0.88549640914E+02  0.00000000000E+00 0.  1.
        -13    1    4    4    0    0 -0.57018181728E+02 -0.21569823838E+01 -0.16236534674E+03  0.17209948124E+03  0.00000000000E+00 0.  1.
         13    1    4    4    0    0  0.57078933866E+01  0.20675664782E+02 -0.36457422232E+00  0.21452181135E+02  0.00000000000E+00 0. -1.
          2    1    1    2  501    0  0.65241584532E+01  0.39704877872E+02 -0.66047814665E+02  0.77339225445E+02  0.00000000000E+00 0. -1.
<scales pt_clust_5="13000.00000" pt_clust_6="13000.00000" pt_clust_7="13000.00000" pt_clust_8="13000.00000" pt_clust_9="40.23732"></scales>
<clustering>
<clus scale="   40.237">  2  9  1 -1</clus>
<clus scale="   89.474">  7  8 -1 -1</clus>
<clus scale="   90.560">  5  6 -1 -1</clus>
<clus scale="  114.773">  2  7  1 -1</clus>
<clus scale="   40.237">  2  5  1 -1</clus>
</clustering>
</event>
<event>
 9    1  0.1671478E-005  0.1549934E+03  0.7546771E-02  0.1207030E+00
         21   -1    0    0  501  502  0.00000000000E+00  0.00000000000E+00  0.25230590068E+03  0.25230590068E+03  0.00000000000E+00 0. -1.
          3   -1    0    0  502    0 -0.00000000000E+00 -0.00000000000E+00 -0.52050124400E+03  0.52050124400E+03  0.00000000000E+00 0. -1.
         23    2    1    2    0    0  0.17010450450E+02 -0.72893086852E+02 -0.11016046611E+03  0.16144619464E+03  0.91251235251E+02 0.  0.
         23    2    1    2    0    0  0.78992017107E+02  0.15205209804E+03 -0.33980923777E+03  0.39107808419E+03  0.90067588924E+02 0.  0.
        -13    1    3    3    0    0 -0.37432545007E+02 -0.21570512383E+02 -0.40077712100E+02  0.58929665172E+02  0.00000000000E+00 0.  1.
         13    1    3    3    0    0  0.54442995457E+02 -0.51322574469E+02 -0.70082754008E+02  0.10251652947E+03  0.00000000000E+00 0. -1.
        -13    1    4    4    0    0  0.26606757882E+02  0.38445617215E+02 -0.19114518386E+03  0.19678024891E+03  0.00000000000E+00 0.  1.
         13    1    4    4    0    0  0.52385259225E+02  0.11360648083E+03 -0.14866405392E+03  0.19429783529E+03  0.00000000000E+00 0. -1.
          3    1    1    2  501    0 -0.96002467557E+02 -0.79159011193E+02  0.18177436056E+03  0.22028286585E+03  0.00000000000E+00 0. -1.
<scales pt_clust_5="13000.00000" pt_clust_6="13000.00000" pt_clust_7="13000.00000" pt_clust_8="13000.00000" pt_clust_9="126.13796"></scales>
<clustering>
<clus scale="   90.068">  7  8 -1 -1</clus>
<clus scale="   91.251">  5  6 -1 -1</clus>
<clus scale="  118.023">  2  5  1 -1</clus>
<clus scale="  126.138">  1  9  2 -1</clus>
<clus scale="  126.138">  1  5  2 -1</clus>
</clustering>
</event>
<event>
 9    1  0.1671478E-005  0.1401306E+03  0.7546771E-02  0.1220432E+00
          1   -1    0    0  502    0 -0.00000000000E+00  0.00000000000E+00  0.33190296081E+03  0.33190296081E+03  0.00000000000E+00 0. -1.
         21   -1    0    0  501  502  0.00000000000E+00 -0.00000000000E+00 -0.17867412149E+03  0.17867412149E+03  0.00000000000E+00 0.  1.
         23    2    1    2    0    0 -0.25391563940E+02  0.74648631631E+02  0.27425014255E+03  0.29925866315E+03  0.90141317163E+02 0.  0.
         23    2    1    2    0    0  0.50734400261E+02 -0.74215904576E+02 -0.11259303653E+03  0.18460732997E+03  0.11541531329E+03 0.  0.
        -13    1    3    3    0    0 -0.46628432385E+02  0.36324344265E+02  0.22805253466E+03  0.23558783342E+03  0.00000000000E+00 0. -1.
         13    1    3    3    0    0  0.21236868445E+02  0.38324287367E+02  0.46197607887E+02  0.63670829726E+02  0.00000000000E+00 0.  1.
        -13    1    4    4    0    0  0.81449047930E+02 -0.29400751906E+02 -0.92431364213E+02  0.12665665680E+03  0.00000000000E+00 0.  1.
         13    1    4    4    0    0 -0.30714647669E+02 -0.44815152670E+02 -0.20161672316E+02  0.57950673170E+02  0.00000000000E+00 0. -1.
          1    1    1    2  501    0 -0.25342836322E+02 -0.43272705590E+00 -0.84282667040E+01  0.26711089180E+02  0.00000000000E+00 0. -1.
<scales pt_clust_5="13000.00000" pt_clust_6="13000.00000" pt_clust_7="13000.00000" pt_clust_8="13000.00000" pt_clust_9="25.34653"></scales>
<clustering>
<clus scale="   25.347">  2  9  1 -1</clus>
<clus scale="   90.141">  5  6 -1 -1</clus>
<clus scale="  115.415">  7  8 -1 -1</clus>
<clus scale="  120.172">  1  5  2 -1</clus>
<clus scale="   25.347">  2  5  1 -1</clus>
</clustering>
</event>
<event>
 9    1  0.1671478E-005  0.1296238E+03  0.7546771E-02  0.1228679E+00
         21   -1    0    0  501  502  0.00000000000E+00  0.00000000000E+00  0.53416760854E+02  0.53416760854E+02  0.00000000000E+00 0.  1.
          1   -1    0    0  502    0 -0.00000000000E+00 -0.00000000000E+00 -0.63947441336E+03  0.63947441336E+03  0.00000000000E+00 0. -1.
         23    2    1    2    0    0  0.30642812197E+02 -0.67668010448E+02 -0.32862845062E+03  0.34998683082E+03  0.94742712700E+02 0.  0.
         23    2    1    2    0    0 -0.23842516351E+02  0.11415094200E+03 -0.25580546691E+03  0.29589856221E+03  0.92307199452E+02 0.  0.
        -11    1    3    3    0    0  0.46123237654E+02 -0.47439095705E+01 -0.74696543624E+02  0.87917184663E+02  0.00000000000E+00 0.  1.
         11    1    3    3    0    0 -0.15480425457E+02 -0.62924100877E+02 -0.25393190700E+03  0.26206964615E+03  0.00000000000E+00 0. -1.
        -13    1    4    4    0    0 -0.32748724558E+02  0.64198458079E+02 -0.22563733537E+03  0.23686732171E+03  0.00000000000E+00 0. -1.
         13    1    4    4    0    0  0.89062082071E+01  0.49952483922E+02 -0.30168131542E+02  0.59031240503E+02  0.00000000000E+00 0.  1.
          1    1    1    2  501    0 -0.68002958466E+01 -0.46482931553E+02 -0.16237349690E+01  0.47005781183E+02  0.00000000000E+00 0. -1.
<scales pt_clust_5="13000.00000" pt_clust_6="13000.00000" pt_clust_7="13000.00000" pt_clust_8="13000.00000" pt_clust_9="46.97773"></scales>
<clustering>
<clus scale="   46.978">  1  9  2 -1</clus>
<clus scale="   92.307">  7  8 -1 -1</clus>
<clus scale="   94.743">  5  6 -1 -1</clus>
<clus scale="  127.855">  1  7  2 -1</clus>
<clus scale="   46.978">  1  5  2 -1</clus>
</clustering>
</event>
<event>
 9    1  0.1671478E-005  0.9677902E+02  0.7546771E-02  0.1288842E+00
         21   -1    0    0  501  502  0.00000000000E+00  0.00000000000E+00  0.12820871360E+03  0.12820871360E+03  0.00000000000E+00 0.  1.
          2   -1    0    0  502    0 -0.00000000000E+00 -0.00000000000E+00 -0.14153721456E+03  0.14153721456E+03  0.00000000000E+00 0. -1.
         23    2    1    2    0    0  0.19672464433E+02  0.45507474675E+01 -0.32748045524E+02  0.99587794355E+02  0.91856296134E+02 0.  0.
         23    2    1    2    0    0 -0.71344466898E+01  0.46925920687E+02  0.39979578053E+02  0.11332711912E+03  0.94824716743E+02 0.  0.
        -13    1    4    4    0    0  0.74528676431E+01  0.61422034208E+02  0.58868829411E+02  0.85403457767E+02  0.00000000000E+00 0.  1.
         13    1    4    4    0    0 -0.14587314333E+02 -0.14496113521E+02 -0.18889251357E+02  0.27923661356E+02  0.00000000000E+00 0. -1.
        -13    1    3    3    0    0  0.38329960343E+02  0.26715543829E+02 -0.47883086596E+02  0.66900643674E+02  0.00000000000E+00 0.  1.
         13    1    3    3    0    0 -0.18657495910E+02 -0.22164796362E+02  0.15135041072E+02  0.32687150681E+02  0.00000000000E+00 0. -1.
          2    1    1    2  501    0 -0.12538017743E+02 -0.51476668154E+02 -0.20560033490E+02  0.56831014686E+02  0.00000000000E+00 0. -1.
<scales pt_clust_5="13000.00000" pt_clust_6="13000.00000" pt_clust_7="13000.00000" pt_clust_8="13000.00000" pt_clust_9="52.98162"></scales>
<clustering>
<clus scale="   52.982">  1  9  2 -1</clus>
<clus scale="   91.856">  7  8 -1 -1</clus>
<clus scale="   93.872">  2  7  1 -1</clus>
<clus scale="   94.825">  5  6 -1 -1</clus>
<clus scale="   52.982">  1  5  2 -1</clus>
</clustering>
</event>
<event>
 9    1  0.1671478E-005  0.1059334E+03  0.7546771E-02  0.1268529E+00
         21   -1    0    0  501  502  0.00000000000E+00  0.00000000000E+00  0.10072228953E+03  0.10072228953E+03  0.00000000000E+00 0. -1.
          1   -1    0    0  502    0 -0.00000000000E+00 -0.00000000000E+00 -0.47397379851E+03  0.47397379851E+03  0.00000000000E+00 0. -1.
         23    2    1    2    0    0  0.55210431960E+02 -0.33545841793E+01 -0.32413941164E+03  0.34137001402E+03  0.91693419943E+02 0.  0.
         23    2    1    2    0    0 -0.44807081185E+02 -0.16189419192E+02 -0.12022082191E+03  0.15885024920E+03  0.92252825603E+02 0.  0.
        -13    1    4    4    0    0 -0.62541857136E+02 -0.35466310255E+02 -0.61731807874E+02  0.94763701703E+02  0.00000000000E+00 0.  1.
         13    1    4    4    0    0  0.17734775951E+02  0.19276891063E+02 -0.58489014032E+02  0.64086547492E+02  0.00000000000E+00 0. -1.
        -13    1    3    3    0    0  0.47432522469E+02 -0.40518186549E+02 -0.13869431147E+03  0.15207787368E+03  0.00000000000E+00 0.  1.
         13    1    3    3    0    0  0.77779094906E+01  0.37163602369E+02 -0.18544510017E+03  0.18929214034E+03  0.00000000000E+00 0. -1.
          1    1    1    2  501    0 -0.10403350774E+02  0.19544003371E+02  0.71108724564E+02  0.74475824831E+02  0.00000000000E+00 0. -1.
<scales pt_clust_5="13000.00000" pt_clust_6="13000.00000" pt_clust_7="13000.00000" pt_clust_8="13000.00000" pt_clust_9="22.14041"></scales>
<clustering>
<clus scale="   22.140">  1  9  2 -1</clus>
<clus scale="   91.693">  7  8 -1 -1</clus>
<clus scale="   92.253">  5  6 -1 -1</clus>
<clus scale="  105.447">  2  7  1 -1</clus>
<clus scale="   22.140">  1  5  2 -1</clus>
</clustering>
</event>
<event>
 9    1  0.1671478E-005  0.1122152E+03  0.7546771E-02  0.1257978E+00
         21   -1    0    0  501  502  0.00000000000E+00  0.00000000000E+00  0.20543621210E+03  0.20543621210E+03  0.00000000000E+00 0.  1.
         -1   -1    0    0    0  501 -0.00000000000E+00 -0.00000000000E+00 -0.19559956748E+03  0.19559956748E+03  0.00000000000E+00 0.  1.
         23    2    1    2    0    0 -0.63568586610E+02  0.26108089512E+02 -0.12204462204E+03  0.16735479023E+03  0.91597699232E+02 0.  0.
         23    2    1    2    0    0  0.32304031626E+02 -0.17512051596E+02  0.45613155480E+01  0.10229707018E+03  0.95360697135E+02 0.  0.
        -11    1    4    4    0    0  0.53377621066E+02 -0.11876392837E+02  0.34943845412E+02  0.64894464091E+02  0.00000000000E+00 0. -1.
         11    1    4    4    0    0 -0.21073589439E+02 -0.56356587582E+01 -0.30382529864E+02  0.37402606092E+02  0.00000000000E+00 0.  1.
        -13    1    3    3    0    0 -0.62793484639E+02  0.53893632694E+02 -0.70142944687E+02  0.10847846813E+03  0.00000000000E+00 0.  1.
         13    1    3    3    0    0 -0.77510197111E+00 -0.27785543182E+02 -0.51901677350E+02  0.58876322106E+02  0.00000000000E+00 0. -1.
         -1    1    1    2    0  502  0.31264554984E+02 -0.85960379161E+01  0.12731995111E+03  0.13138391917E+03  0.00000000000E+00 0.  1.
<scales pt_clust_5="13000.00000" pt_clust_6="13000.00000" pt_clust_7="13000.00000" pt_clust_8="13000.00000" pt_clust_9="32.42475"></scales>
<clustering>
<clus scale="   32.425">  1  9  2 -1</clus>
<clus scale="   91.598">  7  8 -1 -1</clus>
<clus scale="   95.361">  5  6 -1 -1</clus>
<clus scale="  109.035">  2  7  1 -1</clus>
<clus scale="   32.425">  1  5  2 -1</clus>
</clustering>
</event>
<event>
 9    1  0.1671478E-005  0.1065851E+03  0.7546771E-02  0.1267226E+00
         21   -1    0    0  501  502  0.00000000000E+00  0.00000000000E+00  0.95040097905E+02  0.95040097905E+02  0.00000000000E+00 0. -1.
          2   -1    0    0  502    0 -0.00000000000E+00 -0.00000000000E+00 -0.75497538340E+03  0.75497538340E+03  0.00000000000E+00 0. -1.
         23    2    1    2    0    0 -0.51672014824E+01 -0.23349435825E+02 -0.30534855520E+03  0.32003258200E+03  0.92796644643E+02 0.  0.
         23    2    1    2    0    0  0.44402769143E+02  0.80695884618E+02 -0.41679427030E+03  0.43672077949E+03  0.92326289743E+02 0.  0.
        -11    1    3    3    0    0 -0.41537057452E+02  0.10131741687E+02 -0.18601010236E+03  0.19086051848E+03  0.00000000000E+00 0.  1.
         11    1    3    3    0    0  0.36369855969E+02 -0.33481177512E+02 -0.11933845283E+03  0.12917206353E+03  0.00000000000E+00 0. -1.
        -13    1    4    4    0    0  0.70778335195E+02  0.42077880748E+02 -0.23502078788E+03  0.24902789305E+03  0.00000000000E+00 0. -1.
         13    1    4    4    0    0 -0.26375566052E+02  0.38618003869E+02 -0.18177348242E+03  0.18769288643E+03  0.00000000000E+00 0.  1.
          2    1    1    2  501    0 -0.39235567660E+02 -0.57346448793E+02  0.62207540005E+02  0.93262119814E+02  0.00000000000E+00 0. -1.
<scales pt_clust_5="13000.00000" pt_clust_6="13000.00000" pt_clust_7="13000.00000" pt_clust_8="13000.00000" pt_clust_9="69.48413"></scales>
<clustering>
<clus scale="   69.484">  1  9  2 -1</clus>
<clus scale="   92.326">  7  8 -1 -1</clus>
<clus scale="   92.797">  5  6 -1 -1</clus>
<clus scale="  106.176">  1  7  2 -1</clus>
<clus scale="   69.484">  1  5  2 -1</clus>
</clustering>
</event>
<event>
 9    1  0.3305447E-005  0.9409625E+02  0.7546771E-02  0.1297593E+00
          1   -1    0    0  502    0 -0.00000000000E+00  0.00000000000E+00  0.37533033738E+03  0.37533033738E+03  0.00000000000E+00 0. -1.
         21   -1    0    0  501  502  0.00000000000E+00 -0.00000000000E+00 -0.25228664200E+03  0.25228664200E+03  0.00000000000E+00 0. -1.
         23    2    1    2    0    0  0.15411220799E+02 -0.10191104346E+02  0.27550179972E+03  0.28931605691E+03  0.86378092140E+02 0.  0.
         23    2    1    2    0    0  0.24692457272E+02 -0.23392649648E+02  0.62088788212E+02  0.11746944232E+03  0.93739632780E+02 0.  0.
        -11    1    3    3    0    0  0.49686897589E+02 -0.11798403769E+02  0.12660684278E+03  0.13651843378E+03  0.00000000000E+00 0.  1.
         11    1    3    3    0    0 -0.34275676790E+02  0.16072994229E+01  0.14889495694E+03  0.15279762313E+03  0.00000000000E+00 0. -1.
        -13    1    4    4    0    0  0.35121127934E+02 -0.52561883432E+02  0.58770761767E+02  0.86314817128E+02  0.00000000000E+00 0. -1.
         13    1    4    4    0    0 -0.10428670662E+02  0.29169233784E+02  0.33180264452E+01  0.31154625191E+02  0.00000000000E+00 0.  1.
          1    1    1    2  501    0 -0.40103678071E+02  0.33583753995E+02 -0.21454689254E+03  0.22083148015E+03  0.00000000000E+00 0. -1.
<scales pt_clust_5="13000.00000" pt_clust_6="13000.00000" pt_clust_7="13000.00000" pt_clust_8="13000.00000" pt_clust_9="52.30845"></scales>
<clustering>
<clus scale="   52.308">  2  9  1 -1</clus>
<clus scale="   86.378">  5  6 -1 -1</clus>
<clus scale="   86.765">  1  5  2 -1</clus>
<clus scale="   93.740">  7  8 -1 -1</clus>
<clus scale="   52.308">  2  5  1 -1</clus>
</clustering>
</event>
<event>
 9    1  0.1671478E-005  0.1063747E+03  0.7546771E-02  0.1267670E+00
         21   -1    0    0  501  502  0.00000000000E+00  0.00000000000E+00  0.40224406031E+03  0.40224406031E+03  0.00000000000E+00 0.  1.
         -4   -1    0    0    0  501 -0.00000000000E+00 -0.00000000000E+00 -0.49718823779E+02  0.49718823779E+02  0.00000000000E+00 0.  1.
         23    2    1    2    0    0  0.42823590070E+02 -0.27117083773E+02  0.42232164995E+02  0.11309714673E+03  0.91859744939E+02 0.  0.
         23    2    1    2    0    0 -0.63843100434E+02  0.17842639083E+02  0.26685198033E+03  0.28972345876E+03  0.91298422262E+02 0.  0.
        -11    1    4    4    0    0  0.99819269015E+00 -0.31081153566E+02  0.86624325836E+02  0.92036994313E+02  0.00000000000E+00 0. -1.
         11    1    4    4    0    0 -0.64841293124E+02  0.48923792650E+02  0.18022765450E+03  0.19768646445E+03  0.00000000000E+00 0.  1.
        -11    1    3    3    0    0  0.67668537689E+02 -0.95320607621E+01  0.10521523343E+02  0.69141837037E+02  0.00000000000E+00 0.  1.
         11    1    3    3    0    0 -0.24844947619E+02 -0.17585023011E+02  0.31710641652E+02  0.43955309696E+02  0.00000000000E+00 0. -1.
         -4    1    1    2    0  502  0.21019510364E+02  0.92744446896E+01  0.43441091201E+02  0.49142278589E+02  0.00000000000E+00 0.  1.
<scales pt_clust_5="13000.00000" pt_clust_6="13000.00000" pt_clust_7="13000.00000" pt_clust_8="13000.00000" pt_clust_9="22.97466"></scales>
<clustering>
<clus scale="   22.975">  1  9  2 -1</clus>
<clus scale="   91.298">  5  6 -1 -1</clus>
<clus scale="   91.860">  7  8 -1 -1</clus>
<clus scale="  105.890">  1  5  2 -1</clus>
<clus scale="   22.975">  1  5  2 -1</clus>
</clustering>
</event>
<event>
 9    1  0.1671478E-005  0.1106934E+03  0.7546771E-02  0.1263589E+00
         21   -1    0    0  501  502  0.00000000000E+00  0.00000000000E+00  0.20910068963E+03  0.20910068963E+03  0.00000000000E+00 0.  1.
          3   -1    0    0  502    0 -0.00000000000E+00 -0.00000000000E+00 -0.15382979035E+03  0.15382979035E+03  0.00000000000E+00 0. -1.
         23    2    1    2    0    0  0.73091611219E+02 -0.30117723164E+00 -0.95792009241E+02  0.15117250294E+03  0.91293714313E+02 0.  0.
         23    2    1    2    0    0 -0.17960875897E+02  0.26945810600E+02  0.98180913898E+02  0.13085161252E+03  0.80212111760E+02 0.  0.
        -11    1    3    3    0    0  0.86928286207E+02  0.19684428624E+02 -0.58344794688E+02  0.10652754921E+03  0.00000000000E+00 0. -1.
         11    1    3    3    0    0 -0.13836674988E+02 -0.19985605856E+02 -0.37447214553E+02  0.44644953734E+02  0.00000000000E+00 0.  1.
        -13    1    4    4    0    0 -0.32460071504E+02 -0.19796460602E+01  0.58850717978E+01  0.33048590146E+02  0.00000000000E+00 0. -1.
         13    1    4    4    0    0  0.14499195607E+02  0.28925456660E+02  0.92295842100E+02  0.97803022372E+02  0.00000000000E+00 0.  1.
          3    1    1    2  501    0 -0.55130735322E+02 -0.26644633368E+02  0.52881994628E+02  0.80906364523E+02  0.00000000000E+00 0. -1.
<scales pt_clust_5="13000.00000" pt_clust_6="13000.00000" pt_clust_7="13000.00000" pt_clust_8="13000.00000" pt_clust_9="61.23181"></scales>
<clustering>
<clus scale="   61.232">  1  9  2 -1</clus>
<clus scale="   80.212">  7  8 -1 -1</clus>
<clus scale="   91.294">  5  6 -1 -1</clus>
<clus scale="  101.747">  1  7  2 -1</clus>
<clus scale="   61.232">  1  5  2 -1</clus>
</clustering>
</event>
<event>
 9    1  0.1671478E-005  0.9869325E+02  0.7546771E-02  0.1283409E+00
         -2   -1    0    0    0  501 -0.00000000000E+00  0.00000000000E+00  0.23693497179E+03  0.23693497179E+03  0.00000000000E+00 0.  1.
         21   -1    0    0  501  502  0.00000000000E+00 -0.00000000000E+00 -0.68564805145E+03  0.68564805145E+03  0.00000000000E+00 0.  1.
         23    2    1    2    0    0 -0.37932558653E+02 -0.16217616844E+02  0.20060293466E+03  0.22395154568E+03  0.90613836237E+02 0.  0.
         23    2    1    2    0    0 -0.18282385017E+02  0.64604533661E+02 -0.12059510258E+03  0.16473334483E+03  0.89921659019E+02 0.  0.
        -11    1    3    3    0    0 -0.35179076015E+02  0.34100617028E+02  0.10553421997E+03  0.11635244327E+03  0.00000000000E+00 0.  1.
         11    1    3    3    0    0 -0.27534826385E+01 -0.50318233872E+02  0.95068714689E+02  0.10759910241E+03  0.00000000000E+00 0. -1.
        -13    1    4    4    0    0 -0.15276959721E+02  0.20389893931E+02  0.95813728978E+01  0.27220139225E+02  0.00000000000E+00 0.  1.
         13    1    4    4    0    0 -0.30054252964E+01  0.44214639730E+02 -0.13017647548E+03  0.13751320560E+03  0.00000000000E+00 0. -1.
         -2    1    1    2    0  502  0.56214943670E+02 -0.48386916817E+02 -0.52872091175E+03  0.53389813273E+03  0.00000000000E+00 0.  1.
<scales pt_clust_5="13000.00000" pt_clust_6="13000.00000" pt_clust_7="13000.00000" pt_clust_8="13000.00000" pt_clust_9="74.17151"></scales>
<clustering>
<clus scale="   74.172">  2  9  1 -1</clus>
<clus scale="   89.922">  7  8 -1 -1</clus>
<clus scale="   90.614">  5  6 -1 -1</clus>
<clus scale="   98.058">  2  7  1 -1</clus>
<clus scale="   74.172">  2  5  1 -1</clus>
</clustering>
</event>
<event>
 9    1  0.1671478E-005  0.9559505E+02  0.7546771E-02  0.1292933E+00
          2   -1    0    0  502    0 -0.00000000000E+00  0.00000000000E+00  0.24966396511E+03  0.24966396511E+03  0.00000000000E+00 0. -1.
         21   -1    0    0  501  502  0.00000000000E+00 -0.00000000000E+00 -0.10801546929E+03  0.10801546929E+03  0.00000000000E+00 0. -1.
         23    2    1    2    0    0 -0.19947192817E+02 -0.33851035434E+01  0.12746212599E+03  0.15705339389E+03  0.89497628687E+02 0.  0.
         23    2    1    2    0    0 -0.20355443239E+01  0.33817263894E+01  0.84390300787E+02  0.12706088120E+03  0.94906085949E+02 0.  0.
        -11    1    3    3    0    0 -0.13886161217E+01 -0.44934001078E+02  0.50206631635E+02  0.67392125413E+02  0.00000000000E+00 0.  1.
         11    1    3    3    0    0 -0.18558576695E+02  0.41548897534E+02  0.77255494360E+02  0.89661268472E+02  0.00000000000E+00 0. -1.
        -11    1    4    4    0    0  0.22470255173E+02  0.31165028830E+02  0.41040209518E+01  0.38639544219E+02  0.00000000000E+00 0.  1.
         11    1    4    4    0    0 -0.24505799497E+02 -0.27783302440E+02  0.80286279836E+02  0.88421336980E+02  0.00000000000E+00 0. -1.
          2    1    1    2  501    0  0.21982737141E+02  0.33771539639E-02 -0.70203930956E+02  0.73565159317E+02  0.00000000000E+00 0. -1.
<scales pt_clust_5="13000.00000" pt_clust_6="13000.00000" pt_clust_7="13000.00000" pt_clust_8="13000.00000" pt_clust_9="21.98274"></scales>
<clustering>
<clus scale="   21.983">  2  9  1 -1</clus>
<clus scale="   89.498">  5  6 -1 -1</clus>
<clus scale="   90.228">  1  5  2 -1</clus>
<clus scale="   94.906">  7  8 -1 -1</clus>
<clus scale="   21.983">  2  5  1 -1</clus>
</clustering>
</event>
<event>
 9    1  0.1671478E-005  0.9655594E+02  0.7546771E-02  0.1288956E+00
         -1   -1    0    0    0  501 -0.00000000000E+00  0.00000000000E+00  0.16146940024E+03  0.16146940024E+03  0.00000000000E+00 0.  1.
         21   -1    0    0  501  502  0.00000000000E+00 -0.00000000000E+00 -0.34956868256E+03  0.34956868256E+03  0.00000000000E+00 0.  1.
         23    2    1    2    0    0  0.21827176063E+02  0.32539504270E+02  0.10740254764E+03  0.14447530097E+03  0.88332102872E+02 0.  0.
         23    2    1    2    0    0 -0.18120193897E+01  0.57874516850E+02 -0.22751075501E+03  0.25167985017E+03  0.90713065337E+02 0.  0.
        -11    1    4    4    0    0 -0.11995680491E+02 -0.22999743435E+02 -0.61067193670E+02  0.66348222970E+02  0.00000000000E+00 0. -1.
         11    1    4    4    0    0  0.10183661101E+02  0.80874260286E+02 -0.16644356134E+03  0.18533162720E+03  0.00000000000E+00 0.  1.
        -13    1    3    3    0    0  0.38941642764E+02  0.16993094293E+02  0.11296784152E+03  0.12069362043E+03  0.00000000000E+00 0.  1.
         13    1    3    3    0    0 -0.17114466701E+02  0.15546409977E+02 -0.55652938744E+01  0.23781680545E+02  0.00000000000E+00 0. -1.
         -1    1    1    2    0  502 -0.20015156674E+02 -0.90414021120E+02 -0.67991074956E+02  0.11488293165E+03  0.00000000000E+00 0.  1.
<scales pt_clust_5="13000.00000" pt_clust_6="13000.00000" pt_clust_7="13000.00000" pt_clust_8="13000.00000" pt_clust_9="92.60292"></scales>
<clustering>
<clus scale="   88.332">  7  8 -1 -1</clus>
<clus scale="   90.713">  5  6 -1 -1</clus>
<clus scale="   92.603">  2  9  1 -1</clus>
<clus scale="   94.323">  1  7  2 -1</clus>
<clus scale="   92.603">  2  5  1 -1</clus>
</clustering>
</event>
<event>
 9    1  0.1671478E-005  0.1243777E+03  0.7546771E-02  0.1236059E+00
         21   -1    0    0  501  502  0.00000000000E+00  0.00000000000E+00  0.31012090566E+03  0.31012090566E+03  0.00000000000E+00 0. -1.
         -3   -1    0    0    0  501 -0.00000000000E+00 -0.00000000000E+00 -0.74983824162E+02  0.74983824162E+02  0.00000000000E+00 0.  1.
         23    2    1    2    0    0 -0.98714028342E+02  0.19664672607E+02  0.62177877057E+02  0.14894444768E+03  0.90483155105E+02 0.  0.
         23    2    1    2    0    0  0.61349672970E+02  0.17123045486E+01  0.15455989101E+03  0.18934570174E+03  0.90533532435E+02 0.  0.
        -13    1    4    4    0    0  0.47239586296E+02  0.19704386084E+02  0.23526609628E+02  0.56332430313E+02  0.00000000000E+00 0. -1.
         13    1    4    4    0    0  0.14110086675E+02 -0.17992081535E+02  0.13103328139E+03  0.13301327142E+03  0.00000000000E+00 0.  1.
        -13    1    3    3    0    0 -0.95911161756E+02 -0.17906088445E+02  0.42245846728E+02  0.10632163711E+03  0.00000000000E+00 0.  1.
         13    1    3    3    0    0 -0.28028665862E+01  0.37570761052E+02  0.19932030330E+02  0.42622810562E+02  0.00000000000E+00 0. -1.
         -3    1    1    2    0  502  0.37364355372E+02 -0.21376977156E+02  0.18399313432E+02  0.46814580415E+02  0.00000000000E+00 0.  1.
<scales pt_clust_5="13000.00000" pt_clust_6="13000.00000" pt_clust_7="13000.00000" pt_clust_8="13000.00000" pt_clust_9="43.04732"></scales>
<clustering>
<clus scale="   43.047">  1  9  2 -1</clus>
<clus scale="   90.483">  7  8 -1 -1</clus>
<clus scale="   90.534">  5  6 -1 -1</clus>
<clus scale="  124.341">  2  7  1 -1</clus>
<clus scale="   43.047">  1  5  2 -1</clus>
</clustering>
</event>
<event>
 9    1  0.1671478E-005  0.1367878E+03  0.7546771E-02  0.1217740E+00
          4   -1    0    0  502    0 -0.00000000000E+00  0.00000000000E+00  0.67321279142E+02  0.67321279142E+02  0.00000000000E+00 0. -1.
         21   -1    0    0  501  502  0.00000000000E+00 -0.00000000000E+00 -0.53144357777E+03  0.53144357777E+03  0.00000000000E+00 0.  1.
         23    2    1    2    0    0 -0.61598431934E+02 -0.46967416765E+02 -0.12268521423E+03  0.17132394368E+03  0.91103934238E+02 0.  0.
         23    2    1    2    0    0  0.85446655603E+02  0.12414604810E+03 -0.24210314693E+03  0.29940767520E+03  0.91201151315E+02 0.  0.
        -13    1    4    4    0    0  0.13727162059E+02  0.87202283003E+02 -0.16839750941E+03  0.19013257036E+03  0.00000000000E+00 0. -1.
         13    1    4    4    0    0  0.71719493544E+02  0.36943765102E+02 -0.73705637529E+02  0.10927510484E+03  0.00000000000E+00 0.  1.
        -13    1    3    3    0    0 -0.10488336155E+02 -0.51937726884E+02 -0.10392521918E+03  0.11665326336E+03  0.00000000000E+00 0.  1.
         13    1    3    3    0    0 -0.51110095779E+02  0.49703101190E+01 -0.18759995049E+02  0.54670680327E+02  0.00000000000E+00 0. -1.
          4    1    1    2  501    0 -0.23848223669E+02 -0.77178631340E+02 -0.99333937460E+02  0.12803323802E+03  0.00000000000E+00 0. -1.
<scales pt_clust_5="13000.00000" pt_clust_6="13000.00000" pt_clust_7="13000.00000" pt_clust_8="13000.00000" pt_clust_9="80.77920"></scales>
<clustering>
<clus scale="   80.779">  2  9  1 -1</clus>
<clus scale="   91.104">  7  8 -1 -1</clus>
<clus scale="   91.201">  5  6 -1 -1</clus>
<clus scale="  136.723">  1  7  2 -1</clus>
<clus scale="   80.779">  2  5  1 -1</clus>
</clustering>
</event>
<event>
 9    1  0.1671478E-005  0.1039244E+03  0.7546771E-02  0.1273931E+00
         21   -1    0    0  501  502  0.00000000000E+00  0.00000000000E+00  0.30388650698E+02  0.30388650698E+02  0.00000000000E+00 0.  1.
          2   -1    0    0  502    0 -0.00000000000E+00 -0.00000000000E+00 -0.69822057018E+03  0.69822057018E+03  0.00000000000E+00 0. -1.
         23    2    1    2    0    0  0.22111790284E+02 -0.29119190551E+02 -0.46551819056E+03  0.47655889542E+03  0.95206809287E+02 0.  0.
         23    2    1    2    0    0 -0.90903500522E+01  0.59540704464E+02 -0.18413430690E+03  0.21429429548E+03  0.91590786364E+02 0.  0.
        -11    1    3    3    0    0  0.40771414043E+02  0.21347498478E+02 -0.26399085184E+03  0.26797237497E+03  0.00000000000E+00 0.  1.
         11    1    3    3    0    0 -0.18659623758E+02 -0.50466689029E+02 -0.20152733872E+03  0.20858652045E+03  0.00000000000E+00 0. -1.
        -11    1    4    4    0    0 -0.22545271012E+02  0.13833621348E+02 -0.25622488083E+01  0.26574864883E+02  0.00000000000E+00 0.  1.
         11    1    4    4    0    0  0.13454920960E+02  0.45707083116E+02 -0.18157205809E+03  0.18771943060E+03  0.00000000000E+00 0. -1.
          2    1    1    2  501    0 -0.13021440232E+02 -0.30421513913E+02 -0.18179422025E+02  0.37756029977E+02  0.00000000000E+00 0. -1.
<scales pt_clust_5="13000.00000" pt_clust_6="13000.00000" pt_clust_7="13000.00000" pt_clust_8="13000.00000" pt_clust_9="33.09118"></scales>
<clustering>
<clus scale="   33.091">  1  9  2 -1</clus>
<clus scale="   91.591">  7  8 -1 -1</clus>
<clus scale="   95.207">  5  6 -1 -1</clus>
<clus scale="  100.622">  1  7  2 -1</clus>
<clus scale="   33.091">  1  5  2 -1</clus>
</clustering>
</event>
<event>
 9    1  0.1671478E-005  0.1202452E+03  0.7546771E-02  0.1244460E+00
          3   -1    0    0  502    0 -0.00000000000E+00  0.00000000000E+00  0.33433949969E+02  0.33433949969E+02  0.00000000000E+00 0. -1.
         21   -1    0    0  501  502  0.00000000000E+00 -0.00000000000E+00 -0.72267982732E+03  0.72267982732E+03  0.00000000000E+00 0.  1.
         23    2    1    2    0    0  0.76048577141E+01  0.66814737585E+02 -0.12797501682E+03  0.17099435730E+03  0.91320437356E+02 0.  0.
         23    2    1    2    0    0  0.19106841346E+02 -0.86761902812E+02 -0.46856584768E+03  0.48660229622E+03  0.96618538143E+02 0.  0.
        -11    1    3    3    0    0  0.41935207968E+02  0.13045815063E+02 -0.79679026226E+02  0.90980779170E+02  0.00000000000E+00 0.  1.
         11    1    3    3    0    0 -0.34330350254E+02  0.53768922521E+02 -0.48295990593E+02  0.80013578129E+02  0.00000000000E+00 0. -1.
        -11    1    4    4    0    0 -0.27280194716E+02 -0.43098317722E+02 -0.96784135315E+02  0.10940220685E+03  0.00000000000E+00 0. -1.
         11    1    4    4    0    0  0.46387036062E+02 -0.43663585090E+02 -0.37178171237E+03  0.37720008938E+03  0.00000000000E+00 0.  1.
          3    1    1    2  501    0 -0.26711699060E+02  0.19947165227E+02 -0.92705012853E+02  0.98517123767E+02  0.00000000000E+00 0. -1.
<scales pt_clust_5="13000.00000" pt_clust_6="13000.00000" pt_clust_7="13000.00000" pt_clust_8="13000.00000" pt_clust_9="33.33773"></scales>
<clustering>
<clus scale="   33.338">  2  9  1 -1</clus>
<clus scale="   91.320">  5  6 -1 -1</clus>
<clus scale="   96.619">  7  8 -1 -1</clus>
<clus scale="  116.031">  1  5  2 -1</clus>
<clus scale="   33.338">  2  5  1 -1</clus>
</clustering>
</event>
<event>
 9    1  0.1671478E-005  0.1048218E+03  0.7546771E-02  0.1270681E+00
         21   -1    0    0  501  502  0.00000000000E+00  0.00000000000E+00  0.28012303733E+03  0.28012303733E+03  0.00000000000E+00 0. -1.
         -1   -1    0    0    0  501 -0.00000000000E+00 -0.00000000000E+00 -0.94668943767E+02  0.94668943767E+02  0.00000000000E+00 0.  1.
         23    2    1    2    0    0  0.56340678690E+01 -0.52023548713E+02 -0.19806186382E+02  0.10461930443E+03  0.88400913451E+02 0.  0.
         23    2    1    2    0    0  0.18640729984E+02  0.63617490378E+02  0.67532405697E+02  0.12984216452E+03  0.88902755704E+02 0.  0.
        -11    1    3    3    0    0  0.46560685860E+02 -0.22171800564E+02 -0.15147006202E+02  0.53748655843E+02  0.00000000000E+00 0. -1.
         11    1    3    3    0    0 -0.40926617991E+02 -0.29851748149E+02 -0.46591801798E+01  0.50870648587E+02  0.00000000000E+00 0.  1.
        -13    1    4    4    0    0  0.63483256390E+01  0.46841335701E+02 -0.11058566791E+02  0.48545894452E+02  0.00000000000E+00 0.  1.
         13    1    4    4    0    0  0.12292404345E+02  0.16776154677E+02  0.78590972489E+02  0.81296270069E+02  0.00000000000E+00 0. -1.
         -1    1    1    2    0  502 -0.24274797853E+02 -0.11593941665E+02  0.13772787425E+03  0.14033051214E+03  0.00000000000E+00 0.  1.
<scales pt_clust_5="13000.00000" pt_clust_6="13000.00000" pt_clust_7="13000.00000" pt_clust_8="13000.00000" pt_clust_9="26.90140"></scales>
<clustering>
<clus scale="   26.901">  1  9  2 -1</clus>
<clus scale="   88.401">  5  6 -1 -1</clus>
<clus scale="   88.903">  7  8 -1 -1</clus>
<clus scale="  104.397">  2  5  1 -1</clus>
<clus scale="   26.901">  1  5  2 -1</clus>
</clustering>
</event>
<event>
 9    1  0.1671478E-005  0.2354114E+03  0.7546771E-02  0.1153805E+00
          1   -1    0    0  502    0 -0.00000000000E+00  0.00000000000E+00  0.61017641871E+03  0.61017641871E+03  0.00000000000E+00 0. -1.
         21   -1    0    0  501  502  0.00000000000E+00 -0.00000000000E+00 -0.20591969602E+03  0.20591969602E+03  0.00000000000E+00 0. -1.
         23    2    1    2    0    0 -0.51473091970E+02 -0.42725881005E+02  0.12999383013E+03  0.17120383554E+03  0.89091959956E+02 0.  0.
         23    2    1    2    0    0  0.21640722672E+03  0.16643478022E+03  0.32389274006E+03  0.43283030166E+03  0.88898476534E+02 0.  0.
        -13    1    3    3    0    0 -0.56875370602E+02 -0.82962087697E+01  0.12284617585E+03  0.13562749641E+03  0.00000000000E+00 0.  1.
         13    1    3    3    0    0  0.54022786323E+01 -0.34429672235E+02  0.71476542799E+01  0.35576339137E+02  0.00000000000E+00 0. -1.
        -13    1    4    4    0    0  0.20792034691E+03  0.12056198963E+03  0.26655534327E+03  0.35891198785E+03  0.00000000000E+00 0. -1.
         13    1    4    4    0    0  0.84868798160E+01  0.45872790586E+02  0.57337396795E+02  0.73918313809E+02  0.00000000000E+00 0.  1.
          1    1    1    2  501    0 -0.16493413475E+03 -0.12370889921E+03 -0.49629847494E+02  0.21206197753E+03  0.00000000000E+00 0. -1.
<scales pt_clust_5="13000.00000" pt_clust_6="13000.00000" pt_clust_7="13000.00000" pt_clust_8="13000.00000" pt_clust_9="217.98074"></scales>
<clustering>
<clus scale="   88.898">  7  8 -1 -1</clus>
<clus scale="   89.092">  5  6 -1 -1</clus>
<clus scale="  111.411">  1  5  2 -1</clus>
<clus scale="  217.981">  2  9  1 -1</clus>
<clus scale="  217.981">  2  5  1 -1</clus>
</clustering>
</event>
<event>
 9    1  0.1671478E-005  0.1066497E+03  0.7546771E-02  0.1267518E+00
         -1   -1    0    0    0  501 -0.00000000000E+00  0.00000000000E+00  0.13191103339E+03  0.13191103339E+03  0.00000000000E+00 0.  1.
         21   -1    0    0  501  502  0.00000000000E+00 -0.00000000000E+00 -0.14945727636E+03  0.14945727636E+03  0.00000000000E+00 0.  1.
         23    2    1    2    0    0  0.19252005297E+01 -0.45548928488E+02  0.18509084950E+02  0.10408175183E+03  0.91717029797E+02 0.  0.
         23    2    1    2    0    0 -0.42872760657E+02  0.50337036488E+02  0.10941610218E+02  0.11476983333E+03  0.93169227539E+02 0.  0.
        -13    1    3    3    0    0 -0.29216552056E+02  0.15026468009E+02 -0.20977895958E+01  0.32921153930E+02  0.00000000000E+00 0.  1.
         13    1    3    3    0    0  0.31141752586E+02 -0.60575396497E+02  0.20606874546E+02  0.71160597900E+02  0.00000000000E+00 0. -1.
        -13    1    4    4    0    0 -0.28409959985E+02 -0.24357695142E+02  0.97793710109E+01  0.38678924963E+02  0.00000000000E+00 0.  1.
         13    1    4    4    0    0 -0.14462800672E+02  0.74694731629E+02  0.11622392072E+01  0.76090908369E+02  0.00000000000E+00 0. -1.
         -1    1    1    2    0  502  0.40947560128E+02 -0.47881079995E+01 -0.46996938139E+02  0.62516724587E+02  0.00000000000E+00 0.  1.
<scales pt_clust_5="13000.00000" pt_clust_6="13000.00000" pt_clust_7="13000.00000" pt_clust_8="13000.00000" pt_clust_9="41.22655"></scales>
<clustering>
<clus scale="   41.227">  2  9  1 -1</clus>
<clus scale="   91.717">  5  6 -1 -1</clus>
<clus scale="   93.169">  7  8 -1 -1</clus>
<clus scale="  105.383">  1  5  2 -1</clus>
<clus scale="   41.227">  2  5  1 -1</clus>
</clustering>
</event>
<event>
 9    1  0.1671478E-005  0.1600260E+03  0.7546771E-02  0.1188734E+00
         21   -1    0    0  501  502  0.00000000000E+00  0.00000000000E+00  0.87413865183E+02  0.87413865183E+02  0.00000000000E+00 0.  1.
          1   -1    0    0  502    0 -0.00000000000E+00 -0.00000000000E+00 -0.87646309115E+03  0.87646309115E+03  0.00000000000E+00 0. -1.
         23    2    1    2    0    0  0.11013989561E+03  0.91221107462E+02 -0.67527853686E+03  0.69624858565E+03  0.91153187660E+02 0.  0.
         23    2    1    2    0    0 -0.10367444941E+03  0.10087906867E+02 -0.46128039524E+02  0.14564129587E+03  0.90738270363E+02 0.  0.
        -11    1    4    4    0    0 -0.35739271839E+02  0.27738393300E+01 -0.65459073420E+02  0.74631628879E+02  0.00000000000E+00 0. -1.
         11    1    4    4    0    0 -0.67935177568E+02  0.73140675367E+01  0.19331033895E+02  0.71009666994E+02  0.00000000000E+00 0.  1.
        -13    1    3    3    0    0  0.90578621438E+02  0.18556032762E+02 -0.32010886683E+03  0.33319438716E+03  0.00000000000E+00 0. -1.
         13    1    3    3    0    0  0.19561274175E+02  0.72665074700E+02 -0.35516967003E+03  0.36305419849E+03  0.00000000000E+00 0.  1.
          1    1    1    2  501    0 -0.64654462065E+01 -0.10130901433E+03 -0.67642649584E+02  0.12198707481E+03  0.00000000000E+00 0. -1.
<scales pt_clust_5="13000.00000" pt_clust_6="13000.00000" pt_clust_7="13000.00000" pt_clust_8="13000.00000" pt_clust_9="101.51511"></scales>
<clustering>
<clus scale="   90.738">  5  6 -1 -1</clus>
<clus scale="   91.153">  7  8 -1 -1</clus>
<clus scale="  101.515">  1  9  2 -1</clus>
<clus scale="  159.790">  1  5  2 -1</clus>
<clus scale="  101.515">  1  5  2 -1</clus>
</clustering>
</event>
<event>
 9    1  0.1671478E-005  0.1391792E+03  0.7546771E-02  0.1215721E+00
          1   -1    0    0  502    0 -0.00000000000E+00  0.00000000000E+00  0.93221389676E+02  0.93221389676E+02  0.00000000000E+00 0. -1.
         21   -1    0    0  501  502  0.00000000000E+00 -0.00000000000E+00 -0.32970705782E+03  0.32970705782E+03  0.00000000000E+00 0.  1.
         23    2    1    2    0    0 -0.82505983568E+01 -0.90624468719E+02 -0.34028628235E+02  0.13731791984E+03  0.97043273163E+02 0.  0.
         23    2    1    2    0    0 -0.19332571235E+02  0.11509708380E+03 -0.10600347433E+03  0.18234857703E+03  0.91614300006E+02 0.  0.
        -11    1    3    3    0    0 -0.92314398891E+01 -0.11112011491E+03 -0.34731191537E+02  0.11678679328E+03  0.00000000000E+00 0. -1.
         11    1    3    3    0    0  0.98084153232E+00  0.20495646186E+02  0.70256330251E+00  0.20531126562E+02  0.00000000000E+00 0.  1.
        -13    1    4    4    0    0 -0.31638037722E+02  0.15682206502E+02 -0.65270666731E+02  0.74210221447E+02  0.00000000000E+00 0. -1.
         13    1    4    4    0    0  0.12305466487E+02  0.99414877299E+02 -0.40732807600E+02  0.10813835559E+03  0.00000000000E+00 0.  1.
          1    1    1    2  501    0  0.27583169592E+02 -0.24472615081E+02 -0.96453565578E+02  0.10326195062E+03  0.00000000000E+00 0. -1.
<scales pt_clust_5="13000.00000" pt_clust_6="13000.00000" pt_clust_7="13000.00000" pt_clust_8="13000.00000" pt_clust_9="36.87465"></scales>
<clustering>
<clus scale="   36.875">  2  9  1 -1</clus>
<clus scale="   91.614">  7  8 -1 -1</clus>
<clus scale="   97.043">  5  6 -1 -1</clus>
<clus scale="  135.450">  2  7  1 -1</clus>
<clus scale="   36.875">  2  5  1 -1</clus>
</clustering>
</event>
<event>
 9    1  0.1671478E-005  0.1429606E+03  0.7546771E-02  0.1209420E+00
         21   -1    0    0  501  502  0.00000000000E+00  0.00000000000E+00  0.34775952708E+02  0.34775952708E+02  0.00000000000E+00 0.  1.
          1   -1    0    0  502    0 -0.00000000000E+00 -0.00000000000E+00 -0.84349214928E+03  0.84349214928E+03  0.00000000000E+00 0. -1.
         23    2    1    2    0    0  0.10927895140E+03 -0.15868904891E+02 -0.51680659744E+03  0.53637128907E+03  0.91713626156E+02 0.  0.
         23    2    1    2    0    0 -0.10055060917E+03  0.47383006551E+02 -0.25175540132E+03  0.29011185213E+03  0.91807027714E+02 0.  0.
        -13    1    3    3    0    0  0.15176192524E+02 -0.42883415422E+02 -0.17561993312E+03  0.18141572437E+03  0.00000000000E+00 0. -1.
         13    1    3    3    0    0  0.94102758876E+02  0.27014510531E+02 -0.34118666432E+03  0.35495556471E+03  0.00000000000E+00 0.  1.
        -13    1    4    4    0    0 -0.96601389354E-01  0.42741379942E+02 -0.61167700435E+02  0.74621193154E+02  0.00000000000E+00 0.  1.
         13    1    4    4    0    0 -0.10045400778E+03  0.46416266084E+01 -0.19058770089E+03  0.21549065898E+03  0.00000000000E+00 0. -1.
          1    1    1    2  501    0 -0.87283422292E+01 -0.31514101660E+02 -0.40154197809E+02  0.51784960782E+02  0.00000000000E+00 0. -1.
<scales pt_clust_5="13000.00000" pt_clust_6="13000.00000" pt_clust_7="13000.00000" pt_clust_8="13000.00000" pt_clust_9="32.70050"></scales>
<clustering>
<clus scale="   32.700">  1  9  2 -1</clus>
<clus scale="   91.714">  5  6 -1 -1</clus>
<clus scale="   91.807">  7  8 -1 -1</clus>
<clus scale="  142.901">  2  5  1 -1</clus>
<clus scale="   32.700">  1  5  2 -1</clus>
</clustering>
</event>
<event>
 9    1  0.1671478E-005  0.1021252E+03  0.7546771E-02  0.1280254E+00
         21   -1    0    0  501  502  0.00000000000E+00  0.00000000000E+00  0.34431657816E+03  0.34431657816E+03  0.00000000000E+00 0.  1.
          3   -1    0    0  502    0 -0.00000000000E+00 -0.00000000000E+00 -0.39939352262E+02  0.39939352262E+02  0.00000000000E+00 0. -1.
         23    2    1    2    0    0 -0.34202025856E+02  0.13548155462E+02  0.89533081682E+02  0.12678569948E+03  0.81884734767E+02 0.  0.
         23    2    1    2    0    0  0.47813925648E+02 -0.38393513525E+02  0.14356621157E+03  0.18076873608E+03  0.91136411327E+02 0.  0.
        -11    1    3    3    0    0  0.58120945061E+01  0.39702842174E+02  0.53735469865E+02  0.67064124842E+02  0.00000000000E+00 0.  1.
         11    1    3    3    0    0 -0.40014120362E+02 -0.26154686711E+02  0.35797611816E+02  0.59721574636E+02  0.00000000000E+00 0. -1.
        -13    1    4    4    0    0  0.60186725978E+02  0.48521522440E+01  0.10674198058E+03  0.12263700821E+03  0.00000000000E+00 0.  1.
         13    1    4    4    0    0 -0.12372800330E+02 -0.43245665769E+02  0.36824230994E+02  0.58131727861E+02  0.00000000000E+00 0. -1.
          3    1    1    2  501    0 -0.13611899793E+02  0.24845358063E+02  0.71277932638E+02  0.76701494864E+02  0.00000000000E+00 0. -1.
<scales pt_clust_5="13000.00000" pt_clust_6="13000.00000" pt_clust_7="13000.00000" pt_clust_8="13000.00000" pt_clust_9="28.32977"></scales>
<clustering>
<clus scale="   28.330">  1  9  2 -1</clus>
<clus scale="   81.885">  5  6 -1 -1</clus>
<clus scale="   91.136">  7  8 -1 -1</clus>
<clus scale="   93.962">  2  5  1 -1</clus>
<clus scale="   28.330">  1  5  2 -1</clus>
</clustering>
</event>
<event>
 9    1  0.1671478E-005  0.1681466E+03  0.7546771E-02  0.1206053E+00
         21   -1    0    0  501  502  0.00000000000E+00  0.00000000000E+00  0.34032689789E+03  0.34032689789E+03  0.00000000000E+00 0.  1.
          1   -1    0    0  502    0 -0.00000000000E+00 -0.00000000000E+00 -0.15028551896E+03  0.15028551896E+03  0.00000000000E+00 0. -1.
         23    2    1    2    0    0  0.10718838188E+02 -0.15732866514E+02 -0.35523060969E+02  0.10085909667E+03  0.92456762540E+02 0.  0.
         23    2    1    2    0    0 -0.91511856060E-01  0.15152235123E+03  0.92935451950E+02  0.19964237186E+03  0.90890302652E+02 0.  0.
        -11    1    4    4    0    0  0.30919545114E+02  0.27703124749E+02  0.49961863537E+02  0.64958980896E+02  0.00000000000E+00 0.  1.
         11    1    4    4    0    0 -0.31011056970E+02  0.12381922648E+03  0.42973588413E+02  0.13468339097E+03  0.00000000000E+00 0. -1.
        -13    1    3    3    0    0 -0.18726259302E+02 -0.39752737794E+02  0.62538532749E+01  0.44385398842E+02  0.00000000000E+00 0.  1.
         13    1    3    3    0    0  0.29445097490E+02  0.24019871280E+02 -0.41776914244E+02  0.56473697827E+02  0.00000000000E+00 0. -1.
          1    1    1    2  501    0 -0.10627326332E+02 -0.13578948472E+03  0.13262898795E+03  0.19011094832E+03  0.00000000000E+00 0. -1.
<scales pt_clust_5="13000.00000" pt_clust_6="13000.00000" pt_clust_7="13000.00000" pt_clust_8="13000.00000" pt_clust_9="141.46465"></scales>
<clustering>
<clus scale="   90.890">  5  6 -1 -1</clus>
<clus scale="   92.457">  7  8 -1 -1</clus>
<clus scale="   94.396">  2  7  1 -1</clus>
<clus scale="  141.465">  1  9  2 -1</clus>
<clus scale="  141.465">  1  5  2 -1</clus>
</clustering>
</event>
<event>
 9    1  0.1671478E-005  0.1000211E+03  0.7546771E-02  0.1281769E+00
         -1   -1    0    0    0  501 -0.00000000000E+00  0.00000000000E+00  0.36032648253E+02  0.36032648253E+02  0.00000000000E+00 0.  1.
         21   -1    0    0  501  502  0.00000000000E+00 -0.00000000000E+00 -0.51183584392E+03  0.51183584392E+03  0.00000000000E+00 0. -1.
         23    2    1    2    0    0 -0.21257515959E+02  0.14010290710E+02 -0.72498961621E+02  0.12025137974E+03  0.92499322505E+02 0.  0.
         23    2    1    2    0    0  0.15775571769E+02 -0.47019325171E+02 -0.28358167858E+03  0.30330645980E+03  0.95480650023E+02 0.  0.
        -13    1    4    4    0    0  0.33510024846E+02  0.19485550259E+02 -0.10265714592E+03  0.10973193720E+03  0.00000000000E+00 0.  1.
         13    1    4    4    0    0 -0.17734453076E+02 -0.66504875430E+02 -0.18092453266E+03  0.19357452260E+03  0.00000000000E+00 0. -1.
        -13    1    3    3    0    0  0.33141142145E+02  0.23261177191E+02 -0.26263001828E+02  0.48261402094E+02  0.00000000000E+00 0.  1.
         13    1    3    3    0    0 -0.54398658105E+02 -0.92508864812E+01 -0.46235959793E+02  0.71989977651E+02  0.00000000000E+00 0. -1.
         -1    1    1    2    0  502  0.54819441897E+01  0.33009034461E+02 -0.11972255546E+03  0.12431065262E+03  0.00000000000E+00 0.  1.
<scales pt_clust_5="13000.00000" pt_clust_6="13000.00000" pt_clust_7="13000.00000" pt_clust_8="13000.00000" pt_clust_9="33.46114"></scales>
<clustering>
<clus scale="   33.461">  2  9  1 -1</clus>
<clus scale="   92.499">  7  8 -1 -1</clus>
<clus scale="   95.481">  5  6 -1 -1</clus>
<clus scale="   97.179">  1  7  2 -1</clus>
<clus scale="   33.461">  2  5  1 -1</clus>
</clustering>
</event>
<event>
 9    1  0.1671478E-005  0.9791005E+02  0.7546771E-02  0.1287124E+00
          2   -1    0    0  502    0 -0.00000000000E+00  0.00000000000E+00  0.41269213261E+03  0.41269213261E+03  0.00000000000E+00 0. -1.
         21   -1    0    0  501  502  0.00000000000E+00 -0.00000000000E+00 -0.57133936126E+02  0.57133936126E+02  0.00000000000E+00 0.  1.
         23    2    1    2    0    0  0.25214483251E+02  0.11398263794E+02  0.22674662775E+03  0.24720951498E+03  0.94513599644E+02 0.  0.
         23    2    1    2    0    0 -0.57040060454E+01 -0.29635229445E+02  0.15717917864E+03  0.18365545869E+03  0.90073585467E+02 0.  0.
        -13    1    4    4    0    0  0.25229858219E+02 -0.32248791062E+02  0.14438464024E+03  0.15007816166E+03  0.00000000000E+00 0. -1.
         13    1    4    4    0    0 -0.30933864264E+02  0.26135616176E+01  0.12794538399E+02  0.33577297024E+02  0.00000000000E+00 0.  1.
        -13    1    3    3    0    0 -0.31270098975E+02  0.14271205060E+01  0.34480068730E+02  0.46569634983E+02  0.00000000000E+00 0.  1.
         13    1    3    3    0    0  0.56484582226E+02  0.99711432884E+01  0.19226655902E+03  0.20063988000E+03  0.00000000000E+00 0. -1.
          2    1    1    2  501    0 -0.19510477206E+02  0.18236965650E+02 -0.28367609907E+02  0.38961095066E+02  0.00000000000E+00 0. -1.
<scales pt_clust_5="13000.00000" pt_clust_6="13000.00000" pt_clust_7="13000.00000" pt_clust_8="13000.00000" pt_clust_9="26.70666"></scales>
<clustering>
<clus scale="   26.707">  2  9  1 -1</clus>
<clus scale="   90.074">  5  6 -1 -1</clus>
<clus scale="   93.631">  2  5  1 -1</clus>
<clus scale="   94.514">  7  8 -1 -1</clus>
<clus scale="   26.707">  2  5  1 -1</clus>
</clustering>
</event>
<event>
 9    1  0.1671478E-005  0.9372020E+02  0.7546771E-02  0.1299174E+00
         21   -1    0    0  501  502  0.00000000000E+00  0.00000000000E+00  0.71703045493E+02  0.71703045493E+02  0.00000000000E+00 0.  1.
         -2   -1    0    0    0  501 -0.00000000000E+00 -0.00000000000E+00 -0.22599585038E+03  0.22599585038E+03  0.00000000000E+00 0.  1.
         23    2    1    2    0    0  0.27310571452E+02 -0.10216675938E+02 -0.15874432692E+03  0.18422999089E+03  0.88829502054E+02 0.  0.
         23    2    1    2    0    0 -0.35610770340E+02 -0.85097793449E+01 -0.99473212410E+01  0.88430931487E+02  0.79878264472E+02 0.  0.
        -13    1    4    4    0    0 -0.12877362935E+02 -0.31586997454E+02  0.23845506755E+02  0.41619383425E+02  0.00000000000E+00 0.  1.
         13    1    4    4    0    0 -0.22733407405E+02  0.23077218109E+02 -0.33792827996E+02  0.46811548061E+02  0.00000000000E+00 0. -1.
        -13    1    3    3    0    0  0.57434750447E+02 -0.41922537225E+01 -0.12988946989E+03  0.14208307408E+03  0.00000000000E+00 0.  1.
         13    1    3    3    0    0 -0.30124178995E+02 -0.60244222156E+01 -0.28854857030E+02  0.42146916819E+02  0.00000000000E+00 0. -1.
         -2    1    1    2    0  502  0.83001988884E+01  0.18726455283E+02  0.14398843273E+02  0.25037973493E+02  0.00000000000E+00 0.  1.
<scales pt_clust_5="13000.00000" pt_clust_6="13000.00000" pt_clust_7="13000.00000" pt_clust_8="13000.00000" pt_clust_9="20.48349"></scales>
<clustering>
<clus scale="   20.483">  1  9  2 -1</clus>
<clus scale="   79.878">  5  6 -1 -1</clus>
<clus scale="   85.284">  1  5  2 -1</clus>
<clus scale="   88.830">  7  8 -1 -1</clus>
<clus scale="   20.483">  1  5  2 -1</clus>
</clustering>
</event>
<event>
 9    1  0.1671478E-005  0.4691980E+03  0.7546771E-02  0.1022150E+00
         21   -1    0    0  501  502  0.00000000000E+00  0.00000000000E+00  0.14034787250E+04  0.14034787250E+04  0.00000000000E+00 0. -1.
          2   -1    0    0  502    0 -0.00000000000E+00 -0.00000000000E+00 -0.26114374403E+03  0.26114374403E+03  0.00000000000E+00 0. -1.
         23    2    1    2    0    0  0.15936709496E+03  0.47069362748E+03  0.12750667019E+03  0.52422772020E+03  0.10773295583E+03 0.  0.
         23    2    1    2    0    0 -0.89182795150E+02 -0.35523427791E+03  0.68931857003E+03  0.78795569216E+03  0.10755983764E+03 0.  0.
        -11    1    4    4    0    0 -0.71742875083E+02 -0.29669141651E+03  0.47106952120E+03  0.56131927685E+03  0.00000000000E+00 0. -1.
         11    1    4    4    0    0 -0.17439920067E+02 -0.58542861398E+02  0.21824904883E+03  0.22663641531E+03  0.00000000000E+00 0.  1.
        -13    1    3    3    0    0  0.81394472542E+02  0.14123258874E+03  0.16122407314E+01  0.16301626791E+03  0.00000000000E+00 0.  1.
         13    1    3    3    0    0  0.77972622419E+02  0.32946103874E+03  0.12589442946E+03  0.36121145229E+03  0.00000000000E+00 0. -1.
          2    1    1    2  501    0 -0.70184299810E+02 -0.11545934957E+03  0.32550974078E+03  0.35243905670E+03  0.00000000000E+00 0. -1.
<scales pt_clust_5="13000.00000" pt_clust_6="13000.00000" pt_clust_7="13000.00000" pt_clust_8="13000.00000" pt_clust_9="135.11735"></scales>
<clustering>
<clus scale="  107.560">  5  6 -1 -1</clus>
<clus scale="  107.733">  7  8 -1 -1</clus>
<clus scale="  135.117">  1  9  2 -1</clus>
<clus scale="  469.158">  1  5  2 -1</clus>
<clus scale="  135.117">  1  5  2 -1</clus>
</clustering>
</event>
<event>
 9    1  0.1671478E-005  0.1391851E+03  0.7546771E-02  0.1231217E+00
         -3   -1    0    0    0  501 -0.00000000000E+00  0.00000000000E+00  0.88108582900E+02  0.88108582900E+02  0.00000000000E+00 0.  1.
         21   -1    0    0  501  502  0.00000000000E+00 -0.00000000000E+00 -0.47456730184E+03  0.47456730184E+03  0.00000000000E+00 0.  1.
         23    2    1    2    0    0  0.28509051886E+02  0.20327307771E+02  0.39780569141E+01  0.98081404230E+02  0.91532351867E+02 0.  0.
         23    2    1    2    0    0 -0.20071598302E+02 -0.11995791748E+03 -0.21408724558E+03  0.26187150243E+03  0.89165935427E+02 0.  0.
        -11    1    3    3    0    0  0.52427820796E+02  0.39183538119E+02 -0.67271145595E+01  0.65797265317E+02  0.00000000000E+00 0. -1.
         11    1    3    3    0    0 -0.23918768909E+02 -0.18856230348E+02  0.10705171474E+02  0.32284138913E+02  0.00000000000E+00 0.  1.
        -13    1    4    4    0    0 -0.39216174443E+02 -0.18369703490E+02 -0.37667478942E+02  0.57395063499E+02  0.00000000000E+00 0. -1.
         13    1    4    4    0    0  0.19144576141E+02 -0.10158821399E+03 -0.17641976663E+03  0.20447643893E+03  0.00000000000E+00 0.  1.
         -3    1    1    2    0  502 -0.84374535838E+01  0.99630609708E+02 -0.17634953028E+03  0.20272297809E+03  0.00000000000E+00 0.  1.
<scales pt_clust_5="13000.00000" pt_clust_6="13000.00000" pt_clust_7="13000.00000" pt_clust_8="13000.00000" pt_clust_9="106.87336"></scales>
<clustering>
<clus scale="   89.166">  7  8 -1 -1</clus>
<clus scale="   91.532">  5  6 -1 -1</clus>
<clus scale="   98.001">  1  5  2 -1</clus>
<clus scale="  106.873">  2  9  1 -1</clus>
<clus scale="  106.873">  2  5  1 -1</clus>
</clustering>
</event>
<event>
 9    1  0.1671478E-005  0.1356933E+03  0.7546771E-02  0.1238443E+00
          4   -1    0    0  502    0 -0.00000000000E+00  0.00000000000E+00  0.68799355996E+03  0.68799355996E+03  0.00000000000E+00 0. -1.
         21   -1    0    0  501  502  0.00000000000E+00 -0.00000000000E+00 -0.94235873959E+02  0.94235873959E+02  0.00000000000E+00 0. -1.
         23    2    1    2    0    0  0.51292046906E+01  0.26705463917E+02 -0.10059120927E+02  0.91763247780E+02  0.87062145538E+02 0.  0.
         23    2    1    2    0    0 -0.11320242926E+03 -0.58449778009E+02  0.54296040608E+03  0.56243874818E+03  0.72802310074E+02 0.  0.
        -13    1    3    3    0    0  0.22059998656E+02 -0.24393074918E+02 -0.17771701018E+02  0.37383137933E+02  0.00000000000E+00 0. -1.
         13    1    3    3    0    0 -0.16930793965E+02  0.51098538835E+02  0.77125800911E+01  0.54380109847E+02  0.00000000000E+00 0.  1.
        -13    1    4    4    0    0 -0.72710134326E+00 -0.30604034990E+02  0.12741919298E+03  0.13104497844E+03  0.00000000000E+00 0.  1.
         13    1    4    4    0    0 -0.11247532791E+03 -0.27845743019E+02  0.41554121309E+03  0.43139376974E+03  0.00000000000E+00 0. -1.
          4    1    1    2  501    0  0.10807322457E+03  0.31744314092E+02  0.60856400854E+02  0.12802743796E+03  0.00000000000E+00 0. -1.
<scales pt_clust_5="13000.00000" pt_clust_6="13000.00000" pt_clust_7="13000.00000" pt_clust_8="13000.00000" pt_clust_9="114.50984"></scales>
<clustering>
<clus scale="   72.802">  7  8 -1 -1</clus>
<clus scale="   87.062">  5  6 -1 -1</clus>
<clus scale="   91.210">  1  5  2 -1</clus>
<clus scale="  114.510">  2  9  1 -1</clus>
<clus scale="  114.510">  2  5  1 -1</clus>
</clustering>
</event>
<event>
 9    1  0.1671478E-005  0.1137663E+03  0.7546771E-02  0.1254581E+00
         21   -1    0    0  501  502  0.00000000000E+00  0.00000000000E+00  0.42957090118E+02  0.42957090118E+02  0.00000000000E+00 0.  1.
          2   -1    0    0  502    0 -0.00000000000E+00 -0.00000000000E+00 -0.73532426978E+03  0.73532426978E+03  0.00000000000E+00 0. -1.
         23    2    1    2    0    0  0.58777739749E+02  0.47730736779E+02 -0.55994903795E+03  0.57208462018E+03  0.89469780522E+02 0.  0.
         23    2    1    2    0    0 -0.41045829772E+02 -0.37721638926E+02 -0.14800837947E+03  0.18055189258E+03  0.87090891237E+02 0.  0.
        -13    1    4    4    0    0  0.20430585633E+02 -0.31786468561E+02 -0.33726838031E+02  0.50648672406E+02  0.00000000000E+00 0.  1.
         13    1    4    4    0    0 -0.61476415405E+02 -0.59351703645E+01 -0.11428154144E+03  0.12990322017E+03  0.00000000000E+00 0. -1.
        -13    1    3    3    0    0  0.90846499167E+01  0.62589968250E+02 -0.36026438312E+03  0.36577378356E+03  0.00000000000E+00 0. -1.
         13    1    3    3    0    0  0.49693089832E+02 -0.14859231471E+02 -0.19968465483E+03  0.20631083663E+03  0.00000000000E+00 0.  1.
          2    1    1    2  501    0 -0.17731909977E+02 -0.10009097853E+02  0.15590237756E+02  0.25644847135E+02  0.00000000000E+00 0. -1.
<scales pt_clust_5="13000.00000" pt_clust_6="13000.00000" pt_clust_7="13000.00000" pt_clust_8="13000.00000" pt_clust_9="20.36179"></scales>
<clustering>
<clus scale="   20.362">  1  9  2 -1</clus>
<clus scale="   87.091">  5  6 -1 -1</clus>
<clus scale="   89.470">  7  8 -1 -1</clus>
<clus scale="  111.905">  1  5  2 -1</clus>
<clus scale="   20.362">  1  5  2 -1</clus>
</clustering>
</event>
<event>
 9    1  0.1671478E-005  0.9454087E+02  0.7546771E-02  0.1296001E+00
         21   -1    0    0  501  502  0.00000000000E+00  0.00000000000E+00  0.19444355985E+03  0.19444355985E+03  0.00000000000E+00 0.  1.
          1   -1    0    0  502    0 -0.00000000000E+00 -0.00000000000E+00 -0.13056679736E+03  0.13056679736E+03  0.00000000000E+00 0. -1.
         23    2    1    2    0    0  0.15956297154E+02 -0.76160828947E+01 -0.84545422491E+02  0.12623798767E+03  0.92062440380E+02 0.  0.
         23    2    1    2    0    0 -0.29887044973E+02  0.26587899865E+02  0.71632131794E+02  0.11845607081E+03  0.85443118676E+02 0.  0.
        -11    1    4    4    0    0 -0.49030561629E+02 -0.10450622670E+02  0.52472722281E+02  0.72571330920E+02  0.00000000000E+00 0.  1.
         11    1    4    4    0    0  0.19143516657E+02  0.37038522535E+02  0.19159409514E+02  0.45884739887E+02  0.00000000000E+00 0. -1.
        -11    1    3    3    0    0 -0.82012940495E+01 -0.46907065508E+02 -0.43435933508E+02  0.64453194944E+02  0.00000000000E+00 0.  1.
         11    1    3    3    0    0  0.24157591204E+02  0.39290982614E+02 -0.41109488983E+02  0.61784792724E+02  0.00000000000E+00 0. -1.
          1    1    1    2  501    0  0.13930747818E+02 -0.18971816970E+02  0.76790053192E+02  0.80316298740E+02  0.00000000000E+00 0. -1.
<scales pt_clust_5="13000.00000" pt_clust_6="13000.00000" pt_clust_7="13000.00000" pt_clust_8="13000.00000" pt_clust_9="23.53711"></scales>
<clustering>
<clus scale="   23.537">  1  9  2 -1</clus>
<clus scale="   85.443">  5  6 -1 -1</clus>
<clus scale="   88.108">  1  5  2 -1</clus>
<clus scale="   92.062">  7  8 -1 -1</clus>
<clus scale="   23.537">  1  5  2 -1</clus>
</clustering>
</event>
<event>
 9    1  0.1671478E-005  0.9703062E+02  0.7546771E-02  0.1286737E+00
         21   -1    0    0  501  502  0.00000000000E+00  0.00000000000E+00  0.36028967824E+02  0.36028967824E+02  0.00000000000E+00 0. -1.
          2   -1    0    0  502    0 -0.00000000000E+00 -0.00000000000E+00 -0.62382006786E+03  0.62382006786E+03  0.00000000000E+00 0. -1.
         23    2    1    2    0    0  0.60549735377E+02  0.64367251513E+01 -0.31743026652E+03  0.33504124299E+03  0.88221077481E+02 0.  0.
         23    2    1    2    0    0 -0.80180791596E+01 -0.35231584494E+02 -0.23884025114E+03  0.25711535632E+03  0.88080002006E+02 0.  0.
        -13    1    3    3    0    0  0.42055800916E+02  0.38825635022E+02 -0.10715441937E+03  0.12148329069E+03  0.00000000000E+00 0.  1.
         13    1    3    3    0    0  0.18493934461E+02 -0.32388909871E+02 -0.21027584715E+03  0.21355795230E+03  0.00000000000E+00 0. -1.
        -13    1    4    4    0    0  0.22161652339E+02  0.11586187476E+02 -0.22236381459E+02  0.33463939323E+02  0.00000000000E+00 0.  1.
         13    1    4    4    0    0 -0.30179731499E+02 -0.46817771970E+02 -0.21660386968E+03  0.22365141700E+03  0.00000000000E+00 0. -1.
          2    1    1    2  501    0 -0.52531656217E+02  0.28794859343E+02 -0.31520582378E+02  0.67692436379E+02  0.00000000000E+00 0. -1.
<scales pt_clust_5="13000.00000" pt_clust_6="13000.00000" pt_clust_7="13000.00000" pt_clust_8="13000.00000" pt_clust_9="59.90592"></scales>
<clustering>
<clus scale="   59.906">  1  9  2 -1</clus>
<clus scale="   88.080">  7  8 -1 -1</clus>
<clus scale="   88.221">  5  6 -1 -1</clus>
<clus scale="   96.902">  1  7  2 -1</clus>
<clus scale="   59.906">  1  5  2 -1</clus>
</clustering>
</event>
<event>
 9    1  0.1671478E-005  0.1041412E+03  0.7546771E-02  0.1272053E+00
          2   -1    0    0  502    0 -0.00000000000E+00  0.00000000000E+00  0.54667984374E+02  0.54667984374E+02  0.00000000000E+00 0. -1.
         21   -1    0    0  501  502  0.00000000000E+00 -0.00000000000E+00 -0.27183655804E+03  0.27183655804E+03  0.00000000000E+00 0.  1.
         23    2    1    2    0    0  0.82398320687E+01  0.54906524125E+02 -0.51686978350E+02  0.11752824611E+03  0.89770394226E+02 0.  0.
         23    2    1    2    0    0 -0.25404732031E+02 -0.43935611965E+02 -0.11292518628E+03  0.15260989820E+03  0.89229731163E+02 0.  0.
        -11    1    4    4    0    0  0.31772570988E+02 -0.35518629252E+01 -0.27526967543E+02  0.42188220388E+02  0.00000000000E+00 0. -1.
         11    1    4    4    0    0 -0.57177303019E+02 -0.40383749040E+02 -0.85398218740E+02  0.11042167781E+03  0.00000000000E+00 0.  1.
        -13    1    3    3    0    0  0.38814298744E+02  0.51644006260E+02 -0.57203109207E+02  0.86289332321E+02  0.00000000000E+00 0. -1.
         13    1    3    3    0    0 -0.30574466675E+02  0.32625178649E+01  0.55161308569E+01  0.31238913792E+02  0.00000000000E+00 0.  1.
          2    1    1    2  501    0  0.17164899963E+02 -0.10970912160E+02 -0.52556409034E+02  0.56366398101E+02  0.00000000000E+00 0. -1.
<scales pt_clust_5="13000.00000" pt_clust_6="13000.00000" pt_clust_7="13000.00000" pt_clust_8="13000.00000" pt_clust_9="20.37142"></scales>
<clustering>
<clus scale="   20.371">  2  9  1 -1</clus>
<clus scale="   89.230">  5  6 -1 -1</clus>
<clus scale="   89.770">  7  8 -1 -1</clus>
<clus scale="  103.676">  2  5  1 -1</clus>
<clus scale="   20.371">  2  5  1 -1</clus>
</clustering>
</event>
<event>
 9    1  0.1671478E-005  0.1630585E+03  0.7546771E-02  0.1199582E+00
         21   -1    0    0  501  502  0.00000000000E+00  0.00000000000E+00  0.61543044365E+02  0.61543044365E+02  0.00000000000E+00 0. -1.
          1   -1    0    0  502    0 -0.00000000000E+00 -0.00000000000E+00 -0.79166262501E+03  0.79166262501E+03  0.00000000000E+00 0. -1.
         23    2    1    2    0    0 -0.52837773555E+02 -0.56082127543E+02 -0.26873878341E+03  0.29392898633E+03  0.90756156531E+02 0.  0.
         23    2    1    2    0    0 -0.61950184256E+02  0.13114366863E+03 -0.31536232772E+03  0.35894719533E+03  0.91395865011E+02 0.  0.
        -13    1    4    4    0    0 -0.25104417348E+02 -0.80094242625E+01 -0.35234553554E+02  0.43998368283E+02  0.00000000000E+00 0.  1.
         13    1    4    4    0    0 -0.36845766908E+02  0.13915309290E+03 -0.28012777417E+03  0.31494882705E+03  0.00000000000E+00 0. -1.
        -13    1    3    3    0    0  0.23705822487E+02  0.88852090480E-01 -0.44539583018E+02  0.50455409718E+02  0.00000000000E+00 0.  1.
         13    1    3    3    0    0 -0.76543596042E+02 -0.56170979634E+02 -0.22419920040E+03  0.24347357661E+03  0.00000000000E+00 0. -1.
          1    1    1    2  501    0  0.11478795781E+03 -0.75061541091E+02 -0.14601846951E+03  0.20032948772E+03  0.00000000000E+00 0. -1.
<scales pt_clust_5="13000.00000" pt_clust_6="13000.00000" pt_clust_7="13000.00000" pt_clust_8="13000.00000" pt_clust_9="135.03651"></scales>
<clustering>
<clus scale="   90.756">  7  8 -1 -1</clus>
<clus scale="   91.396">  5  6 -1 -1</clus>
<clus scale="  119.053">  2  7  1 -1</clus>
<clus scale="  135.037">  1  9  2 -1</clus>
<clus scale="  135.037">  1  5  2 -1</clus>
</clustering>
</event>
<event>
 9    1  0.1671478E-005  0.1367417E+03  0.7546771E-02  0.1232234E+00
         21   -1    0    0  501  502  0.00000000000E+00  0.00000000000E+00  0.22601776790E+03  0.22601776790E+03  0.00000000000E+00 0. -1.
          2   -1    0    0  502    0 -0.00000000000E+00 -0.00000000000E+00 -0.67711095214E+03  0.67711095214E+03  0.00000000000E+00 0. -1.
         23    2    1    2    0    0 -0.44332598960E+01  0.41162785441E+02 -0.40028674483E+02  0.10883467951E+03  0.92350766017E+02 0.  0.
         23    2    1    2    0    0  0.10292893916E+03 -0.55221295240E+01  0.16177806170E+03  0.21195370460E+03  0.90151934055E+02 0.  0.
        -11    1    3    3    0    0  0.21005130869E+02  0.63687776974E+02 -0.29492172953E+02  0.73260744769E+02  0.00000000000E+00 0.  1.
         11    1    3    3    0    0 -0.25438390765E+02 -0.22524991532E+02 -0.10536501530E+02  0.35573934738E+02  0.00000000000E+00 0. -1.
        -11    1    4    4    0    0  0.49723617751E+02  0.20011504941E+02  0.13850687333E+03  0.14851616899E+03  0.00000000000E+00 0. -1.
         11    1    4    4    0    0  0.53205321412E+02 -0.25533634465E+02  0.23271188367E+02  0.63437535604E+02  0.00000000000E+00 0.  1.
          2    1    1    2  501    0 -0.98495679266E+02 -0.35640655917E+02 -0.57284257145E+03  0.58234033593E+03  0.00000000000E+00 0. -1.
<scales pt_clust_5="13000.00000" pt_clust_6="13000.00000" pt_clust_7="13000.00000" pt_clust_8="13000.00000" pt_clust_9="102.81501"></scales>
<clustering>
<clus scale="   90.152">  7  8 -1 -1</clus>
<clus scale="   92.351">  5  6 -1 -1</clus>
<clus scale="  101.206">  2  5  1 -1</clus>
<clus scale="  102.815">  1  9  2 -1</clus>
<clus scale="  102.815">  1  5  2 -1</clus>
</clustering>
</event>
<event>
 9    1  0.2174541E-005  0.1091012E+03  0.7546771E-02  0.1264102E+00
         21   -1    0    0  501  502  0.00000000000E+00  0.00000000000E+00  0.13109809039E+03  0.13109809039E+03  0.00000000000E+00 0. -1.
          1   -1    0    0  502    0 -0.00000000000E+00 -0.00000000000E+00 -0.42113929202E+03  0.42113929202E+03  0.00000000000E+00 0. -1.
         23    2    1    2    0    0  0.40965709869E+00  0.77387828421E+02 -0.26674630252E+03  0.29312880663E+03  0.93711597777E+02 0.  0.
         23    2    1    2    0    0 -0.48644724091E+02 -0.12889922750E+02 -0.10340838032E+03  0.14550940591E+03  0.89147264669E+02 0.  0.
        -11    1    3    3    0    0  0.20828545116E+02 -0.79602656331E+01 -0.15930918962E+02  0.27404165734E+02  0.00000000000E+00 0.  1.
         11    1    3    3    0    0 -0.20418888017E+02  0.85348094054E+02 -0.25081538356E+03  0.26572464089E+03  0.00000000000E+00 0. -1.
        -13    1    4    4    0    0  0.14922709945E+02 -0.32569098726E+02 -0.36558932201E+02  0.51185827996E+02  0.00000000000E+00 0.  1.
         13    1    4    4    0    0 -0.63567434037E+02  0.19679175976E+02 -0.66849448119E+02  0.94323577916E+02  0.00000000000E+00 0. -1.
          1    1    1    2  501    0  0.48235066992E+02 -0.64497905671E+02  0.80113481217E+02  0.11359916988E+03  0.00000000000E+00 0. -1.
<scales pt_clust_5="13000.00000" pt_clust_6="13000.00000" pt_clust_7="13000.00000" pt_clust_8="13000.00000" pt_clust_9="80.53944"></scales>
<clustering>
<clus scale="   80.539">  1  9  2 -1</clus>
<clus scale="   89.147">  7  8 -1 -1</clus>
<clus scale="   93.712">  5  6 -1 -1</clus>
<clus scale="  105.207">  1  7  2 -1</clus>
<clus scale="   80.539">  1  5  2 -1</clus>
</clustering>
</event>
<event>
 9    1  0.1671478E-005  0.9827927E+02  0.7546771E-02  0.1285068E+00
         -4   -1    0    0    0  501 -0.00000000000E+00  0.00000000000E+00  0.43054906921E+02  0.43054906921E+02  0.00000000000E+00 0.  1.
         21   -1    0    0  501  502  0.00000000000E+00 -0.00000000000E+00 -0.38485203472E+03  0.38485203472E+03  0.00000000000E+00 0. -1.
         23    2    1    2    0    0 -0.13172933828E+01 -0.43691341658E+02 -0.56439697512E+02  0.11435324889E+03  0.89333965983E+02 0.  0.
         23    2    1    2    0    0  0.19566174748E+02  0.14982589010E+02 -0.19048103009E+03  0.21276309069E+03  0.91530305192E+02 0.  0.
        -11    1    4    4    0    0  0.41325793008E+02  0.34900576814E+02 -0.68586041227E+02  0.87349393134E+02  0.00000000000E+00 0. -1.
         11    1    4    4    0    0 -0.21759618260E+02 -0.19917987804E+02 -0.12189498886E+03  0.12541369756E+03  0.00000000000E+00 0.  1.
        -13    1    3    3    0    0  0.20797234193E+02 -0.33322003562E+02 -0.74334627422E+02  0.84074477134E+02  0.00000000000E+00 0. -1.
         13    1    3    3    0    0 -0.22114527576E+02 -0.10369338096E+02  0.17894929909E+02  0.30278771754E+02  0.00000000000E+00 0.  1.
         -4    1    1    2    0  502 -0.18248881365E+02  0.28708752648E+02 -0.94876400195E+02  0.10079060206E+03  0.00000000000E+00 0.  1.
<scales pt_clust_5="13000.00000" pt_clust_6="13000.00000" pt_clust_7="13000.00000" pt_clust_8="13000.00000" pt_clust_9="34.01785"></scales>
<clustering>
<clus scale="   34.018">  2  9  1 -1</clus>
<clus scale="   89.334">  7  8 -1 -1</clus>
<clus scale="   91.530">  5  6 -1 -1</clus>
<clus scale="   96.237">  1  7  2 -1</clus>
<clus scale="   34.018">  2  5  1 -1</clus>
</clustering>
</event>
<event>
 9    1  0.1671478E-005  0.2348627E+03  0.7546771E-02  0.1161577E+00
         21   -1    0    0  501  502  0.00000000000E+00  0.00000000000E+00  0.13223198089E+03  0.13223198089E+03  0.00000000000E+00 0.  1.
          2   -1    0    0  502    0 -0.00000000000E+00 -0.00000000000E+00 -0.59219134676E+03  0.59219134676E+03  0.00000000000E+00 0. -1.
         23    2    1    2    0    0  0.63317787500E+01 -0.32185403743E+02 -0.12283185503E+03  0.15440426090E+03  0.87618602692E+02 0.  0.
         23    2    1    2    0    0  0.18801839638E+03 -0.90835316249E+02 -0.13460589059E+03  0.26355357965E+03  0.87975971211E+02 0.  0.
        -13    1    4    4    0    0  0.43269427524E+02 -0.49347987560E+02 -0.79777515869E+02  0.10330498184E+03  0.00000000000E+00 0. -1.
         13    1    4    4    0    0  0.14474896885E+03 -0.41487328689E+02 -0.54828374719E+02  0.16024859781E+03  0.00000000000E+00 0.  1.
        -13    1    3    3    0    0  0.13588059532E+02  0.26919657610E+02 -0.22095187123E+02  0.37383159600E+02  0.00000000000E+00 0.  1.
         13    1    3    3    0    0 -0.72562807820E+01 -0.59105061354E+02 -0.10073666790E+03  0.11702110130E+03  0.00000000000E+00 0. -1.
          2    1    1    2  501    0 -0.19435017513E+03  0.12302071999E+03 -0.20252162025E+03  0.30646548711E+03  0.00000000000E+00 0. -1.
<scales pt_clust_5="13000.00000" pt_clust_6="13000.00000" pt_clust_7="13000.00000" pt_clust_8="13000.00000" pt_clust_9="217.76305"></scales>
<clustering>
<clus scale="   87.619">  7  8 -1 -1</clus>
<clus scale="   87.976">  5  6 -1 -1</clus>
<clus scale="   93.558">  2  7  1 -1</clus>
<clus scale="  217.763">  1  9  2 -1</clus>
<clus scale="  217.763">  1  5  2 -1</clus>
</clustering>
</event>
<event>
 9    1  0.1671478E-005  0.1080440E+03  0.7546771E-02  0.1265582E+00
         21   -1    0    0  501  502  0.00000000000E+00  0.00000000000E+00  0.30389092296E+03  0.30389092296E+03  0.00000000000E+00 0.  1.
          2   -1    0    0  502    0 -0.00000000000E+00 -0.00000000000E+00 -0.19834069269E+03  0.19834069269E+03  0.00000000000E+00 0. -1.
         23    2    1    2    0    0 -0.46916421450E+02  0.33329855787E+02 -0.13998569183E+03  0.17637142120E+03  0.90547525706E+02 0.  0.
         23    2    1    2    0    0  0.48821389994E+02  0.70483197247E+01  0.35179626015E+02  0.11165515888E+03  0.93787320495E+02 0.  0.
        -11    1    4    4    0    0  0.61784292381E+02 -0.25415505395E+02  0.78173013974E+01  0.67263339945E+02  0.00000000000E+00 0.  1.
         11    1    4    4    0    0 -0.12962902386E+02  0.32463825120E+02  0.27362324617E+02  0.44391818933E+02  0.00000000000E+00 0. -1.
        -11    1    3    3    0    0 -0.17521984905E+02  0.25382413249E+02  0.22385595995E+01  0.30924068400E+02  0.00000000000E+00 0.  1.
         11    1    3    3    0    0 -0.29394436544E+02  0.79474425379E+01 -0.14222425143E+03  0.14544735280E+03  0.00000000000E+00 0. -1.
          2    1    1    2  501    0 -0.19049685445E+01 -0.40378175511E+02  0.21035629609E+03  0.21420503558E+03  0.00000000000E+00 0. -1.
<scales pt_clust_5="13000.00000" pt_clust_6="13000.00000" pt_clust_7="13000.00000" pt_clust_8="13000.00000" pt_clust_9="40.42309"></scales>
<clustering>
<clus scale="   40.423">  1  9  2 -1</clus>
<clus scale="   90.548">  7  8 -1 -1</clus>
<clus scale="   93.787">  5  6 -1 -1</clus>
<clus scale="  105.244">  2  7  1 -1</clus>
<clus scale="   40.423">  1  5  2 -1</clus>
</clustering>
</event>
<event>
 9    1  0.1671478E-005  0.1544048E+03  0.7546771E-02  0.1195883E+00
         -2   -1    0    0    0  501 -0.00000000000E+00  0.00000000000E+00  0.85118846630E+03  0.85118846630E+03  0.00000000000E+00 0.  1.
         21   -1    0    0  501  502  0.00000000000E+00 -0.00000000000E+00 -0.43924587067E+02  0.43924587067E+02  0.00000000000E+00 0. -1.
         23    2    1    2    0    0 -0.12387742717E+03 -0.17128823260E+02  0.42704706106E+03  0.45365735119E+03  0.88299413277E+02 0.  0.
         23    2    1    2    0    0  0.12344018153E+03 -0.27028075782E+02  0.36064662227E+03  0.39315440318E+03  0.92392658195E+02 0.  0.
        -11    1    4    4    0    0  0.80048648374E+02 -0.12039601119E+02  0.32528721322E+03  0.33520815800E+03  0.00000000000E+00 0.  1.
         11    1    4    4    0    0  0.43391533160E+02 -0.14988474663E+02  0.35359409045E+02  0.57946245182E+02  0.00000000000E+00 0. -1.
        -11    1    3    3    0    0 -0.80831654055E+02  0.31576155385E+02  0.21437192556E+03  0.23127069065E+03  0.00000000000E+00 0.  1.
         11    1    3    3    0    0 -0.43045773118E+02 -0.48704978645E+02  0.21267513550E+03  0.22238666054E+03  0.00000000000E+00 0. -1.
         -2    1    1    2    0  502  0.43724563990E+00  0.44156899042E+02  0.19570195909E+02  0.48301298996E+02  0.00000000000E+00 0.  1.
<scales pt_clust_5="13000.00000" pt_clust_6="13000.00000" pt_clust_7="13000.00000" pt_clust_8="13000.00000" pt_clust_9="44.15906"></scales>
<clustering>
<clus scale="   44.159">  2  9  1 -1</clus>
<clus scale="   88.299">  7  8 -1 -1</clus>
<clus scale="   92.393">  5  6 -1 -1</clus>
<clus scale="  151.991">  1  7  2 -1</clus>
<clus scale="   44.159">  2  5  1 -1</clus>
</clustering>
</event>
<event>
 9    1  0.1671478E-005  0.9255065E+02  0.7546771E-02  0.1298051E+00
          1   -1    0    0  502    0 -0.00000000000E+00  0.00000000000E+00  0.47022316506E+02  0.47022316506E+02  0.00000000000E+00 0. -1.
         21   -1    0    0  501  502  0.00000000000E+00 -0.00000000000E+00 -0.33758304763E+03  0.33758304763E+03  0.00000000000E+00 0.  1.
         23    2    1    2    0    0  0.31182935872E+01 -0.30846025940E+02 -0.64256188815E+02  0.11450066774E+03  0.89556373529E+02 0.  0.
         23    2    1    2    0    0  0.34566264975E+01 -0.21684016993E+02 -0.15177551243E+03  0.17868691214E+03  0.91711839677E+02 0.  0.
        -11    1    3    3    0    0 -0.34652383714E+02  0.28907429548E+01 -0.28277154735E+01  0.34887534546E+02  0.00000000000E+00 0.  1.
         11    1    3    3    0    0  0.37770677301E+02 -0.33736768895E+02 -0.61428473341E+02  0.79613133190E+02  0.00000000000E+00 0. -1.
        -13    1    4    4    0    0 -0.37911182722E+02 -0.82478021911E+01 -0.29011093791E+02  0.48445098610E+02  0.00000000000E+00 0.  1.
         13    1    4    4    0    0  0.41367809219E+02 -0.13436214802E+02 -0.12276441864E+03  0.13024181353E+03  0.00000000000E+00 0. -1.
          1    1    1    2  501    0 -0.65749200846E+01  0.52530042933E+02 -0.74529029882E+02  0.91417784265E+02  0.00000000000E+00 0. -1.
<scales pt_clust_5="13000.00000" pt_clust_6="13000.00000" pt_clust_7="13000.00000" pt_clust_8="13000.00000" pt_clust_9="52.93992"></scales>
<clustering>
<clus scale="   52.940">  2  9  1 -1</clus>
<clus scale="   89.556">  5  6 -1 -1</clus>
<clus scale="   90.415">  1  5  2 -1</clus>
<clus scale="   91.712">  7  8 -1 -1</clus>
<clus scale="   52.940">  2  5  1 -1</clus>
</clustering>
</event>
<event>
 9    1  0.1671478E-005  0.1370782E+03  0.7546771E-02  0.1217974E+00
          1   -1    0    0  502    0 -0.00000000000E+00  0.00000000000E+00  0.93951725323E+03  0.93951725323E+03  0.00000000000E+00 0. -1.
         21   -1    0    0  501  502  0.00000000000E+00 -0.00000000000E+00 -0.47856198969E+02  0.47856198969E+02  0.00000000000E+00 0.  1.
         23    2    1    2    0    0 -0.11094927102E+03 -0.67142358782E+01  0.57069732282E+03  0.58840889921E+03  0.90414471690E+02 0.  0.
         23    2    1    2    0    0  0.86231134387E+02  0.10078966048E+02  0.34286771809E+03  0.36576677717E+03  0.93218394532E+02 0.  0.
        -11    1    4    4    0    0  0.26599630437E+02  0.34559280106E+02  0.52118067915E+02  0.67957171690E+02  0.00000000000E+00 0.  1.
         11    1    4    4    0    0  0.59631503949E+02 -0.24480314058E+02  0.29074965018E+03  0.29780960548E+03  0.00000000000E+00 0. -1.
        -13    1    3    3    0    0 -0.41568499944E+02 -0.40537892100E+02  0.34565286248E+03  0.35049559515E+03  0.00000000000E+00 0. -1.
         13    1    3    3    0    0 -0.69380771079E+02  0.33823656222E+02  0.22504446034E+03  0.23791330406E+03  0.00000000000E+00 0.  1.
          1    1    1    2  501    0  0.24718136636E+02 -0.33647301703E+01 -0.21903986652E+02  0.33197775816E+02  0.00000000000E+00 0. -1.
<scales pt_clust_5="13000.00000" pt_clust_6="13000.00000" pt_clust_7="13000.00000" pt_clust_8="13000.00000" pt_clust_9="24.94610"></scales>
<clustering>
<clus scale="   24.946">  2  9  1 -1</clus>
<clus scale="   90.414">  7  8 -1 -1</clus>
<clus scale="   93.218">  5  6 -1 -1</clus>
<clus scale="  135.187">  1  7  2 -1</clus>
<clus scale="   24.946">  2  5  1 -1</clus>
</clustering>
</event>
<event>
 9    1  0.1671478E-005  0.1037241E+03  0.7546771E-02  0.1272715E+00
         21   -1    0    0  501  502  0.00000000000E+00  0.00000000000E+00  0.35020332401E+03  0.35020332401E+03  0.00000000000E+00 0. -1.
          1   -1    0    0  502    0 -0.00000000000E+00 -0.00000000000E+00 -0.96537057208E+02  0.96537057208E+02  0.00000000000E+00 0. -1.
         23    2    1    2    0    0 -0.10008970955E+02 -0.17794565946E+02  0.29441395872E+02  0.98137834495E+02  0.91364176194E+02 0.  0.
         23    2    1    2    0    0  0.97107598780E+02  0.37696882307E+01  0.32239962607E+02  0.13731820469E+03  0.91502884437E+02 0.  0.
        -11    1    3    3    0    0  0.26695957414E+02  0.13952870085E+02  0.38382539678E+02  0.48791147537E+02  0.00000000000E+00 0. -1.
         11    1    3    3    0    0 -0.36704928370E+02 -0.31747436031E+02 -0.89411438061E+01  0.49346686958E+02  0.00000000000E+00 0.  1.
        -13    1    4    4    0    0  0.69042568869E+02  0.45218630410E+02  0.12334510813E+02  0.83449032404E+02  0.00000000000E+00 0. -1.
         13    1    4    4    0    0  0.28065029912E+02 -0.41448942179E+02  0.19905451794E+02  0.53869172287E+02  0.00000000000E+00 0.  1.
          1    1    1    2  501    0 -0.87098627825E+02  0.14024877715E+02  0.19198490832E+03  0.21128434203E+03  0.00000000000E+00 0. -1.
<scales pt_clust_5="13000.00000" pt_clust_6="13000.00000" pt_clust_7="13000.00000" pt_clust_8="13000.00000" pt_clust_9="88.22057"></scales>
<clustering>
<clus scale="   88.221">  1  9  2 -1</clus>
<clus scale="   91.364">  5  6 -1 -1</clus>
<clus scale="   91.503">  7  8 -1 -1</clus>
<clus scale="  103.602">  2  5  1 -1</clus>
<clus scale="   88.221">  1  5  2 -1</clus>
</clustering>
</event>
<event>
 9    1  0.1671478E-005  0.1940630E+03  0.7546771E-02  0.1155035E+00
         21   -1    0    0  501  502  0.00000000000E+00  0.00000000000E+00  0.14892172155E+03  0.14892172155E+03  0.00000000000E+00 0.  1.
         -3   -1    0    0    0  501 -0.00000000000E+00 -0.00000000000E+00 -0.95848330477E+03  0.95848330477E+03  0.00000000000E+00 0.  1.
         23    2    1    2    0    0 -0.16009812906E+03 -0.68135645866E+01 -0.42056097787E+03  0.45924348939E+03  0.91406842468E+02 0.  0.
         23    2    1    2    0    0  0.16891669246E+03 -0.12086713578E+03 -0.45156241044E+03  0.50570414764E+03  0.93200648651E+02 0.  0.
        -13    1    3    3    0    0 -0.12484408834E+03 -0.33855735446E+02 -0.36986848435E+03  0.39183536458E+03  0.00000000000E+00 0.  1.
         13    1    3    3    0    0 -0.35254040719E+02  0.27042170859E+02 -0.50692493516E+02  0.67408124812E+02  0.00000000000E+00 0. -1.
        -13    1    4    4    0    0  0.14748303276E+03 -0.13557313879E+03 -0.38007184791E+03  0.42963464768E+03  0.00000000000E+00 0.  1.
         13    1    4    4    0    0  0.21433659696E+02  0.14706003006E+02 -0.71490562531E+02  0.76069499955E+02  0.00000000000E+00 0. -1.
         -3    1    1    2    0  502 -0.88185634010E+01  0.12768070037E+03  0.62561805098E+02  0.14245738929E+03  0.00000000000E+00 0.  1.
<scales pt_clust_5="13000.00000" pt_clust_6="13000.00000" pt_clust_7="13000.00000" pt_clust_8="13000.00000" pt_clust_9="127.98488"></scales>
<clustering>
<clus scale="   91.407">  5  6 -1 -1</clus>
<clus scale="   93.201">  7  8 -1 -1</clus>
<clus scale="  127.985">  1  9  2 -1</clus>
<clus scale="  193.208">  2  5  1 -1</clus>
<clus scale="  127.985">  1  5  2 -1</clus>
</clustering>
</event>
<event>
 9    1  0.1671478E-005  0.4235563E+03  0.7546771E-02  0.1036088E+00
         21   -1    0    0  501  502  0.00000000000E+00  0.00000000000E+00  0.51043422733E+03  0.51043422733E+03  0.00000000000E+00 0.  1.
          1   -1    0    0  502    0 -0.00000000000E+00 -0.00000000000E+00 -0.91865185078E+03  0.91865185078E+03  0.00000000000E+00 0. -1.
         23    2    1    2    0    0 -0.45527389385E+03  0.36243204625E+02 -0.42445746964E+03  0.62883845172E+03  0.81766536698E+02 0.  0.
         23    2    1    2    0    0  0.32119528115E+03 -0.23176925347E+03 -0.22269289181E+03  0.46365237471E+03  0.92184624659E+02 0.  0.
        -11    1    3    3    0    0 -0.42425028598E+03  0.12223048856E+02 -0.39474828218E+03  0.57962394219E+03  0.00000000000E+00 0.  1.
         11    1    3    3    0    0 -0.31023607870E+02  0.24020155769E+02 -0.29709187460E+02  0.49214509527E+02  0.00000000000E+00 0. -1.
        -13    1    4    4    0    0  0.17092692079E+03 -0.66912028271E+02 -0.96990489758E+02  0.20760632669E+03  0.00000000000E+00 0. -1.
         13    1    4    4    0    0  0.15026836037E+03 -0.16485722520E+03 -0.12570240205E+03  0.25604604803E+03  0.00000000000E+00 0.  1.
          1    1    1    2  501    0  0.13407861270E+03  0.19552604884E+03  0.23893273801E+03  0.33659525168E+03  0.00000000000E+00 0. -1.
<scales pt_clust_5="13000.00000" pt_clust_6="13000.00000" pt_clust_7="13000.00000" pt_clust_8="13000.00000" pt_clust_9="237.08123"></scales>
<clustering>
<clus scale="   81.767">  5  6 -1 -1</clus>
<clus scale="   92.185">  7  8 -1 -1</clus>
<clus scale="  237.081">  1  9  2 -1</clus>
<clus scale="  421.412">  2  5  1 -1</clus>
<clus scale="  237.081">  1  5  2 -1</clus>
</clustering>
</event>
<event>
 9    1  0.1671478E-005  0.1114409E+03  0.7546771E-02  0.1261460E+00
         -1   -1    0    0    0  501 -0.00000000000E+00  0.00000000000E+00  0.18831711524E+03  0.18831711524E+03  0.00000000000E+00 0.  1.
         21   -1    0    0  501  502  0.00000000000E+00 -0.00000000000E+00 -0.17433694958E+03  0.17433694958E+03  0.00000000000E+00 0.  1.
         23    2    1    2    0    0 -0.48154338630E+02  0.65433163966E+01  0.11176764913E+03  0.15303284126E+03  0.92549380294E+02 0.  0.
         23    2    1    2    0    0  0.45086355500E+02  0.15104876486E+02 -0.21842808603E+01  0.11154967251E+03  0.10088419901E+03 0.  0.
        -11    1    4    4    0    0 -0.31024111941E+02  0.13882959148E+02  0.75277147410E+01  0.34812333527E+02  0.00000000000E+00 0.  1.
         11    1    4    4    0    0  0.76110467441E+02  0.12219173382E+01 -0.97119956012E+01  0.76737338986E+02  0.00000000000E+00 0. -1.
        -11    1    3    3    0    0  0.44238275728E+01 -0.35678076296E+02  0.28450590816E+02  0.45846826460E+02  0.00000000000E+00 0. -1.
         11    1    3    3    0    0 -0.52578166203E+02  0.42221392693E+02  0.83317058315E+02  0.10718601480E+03  0.00000000000E+00 0.  1.
         -1    1    1    2    0  502  0.30679831297E+01 -0.21648192883E+02 -0.95603202616E+02  0.98071551053E+02  0.00000000000E+00 0.  1.
<scales pt_clust_5="13000.00000" pt_clust_6="13000.00000" pt_clust_7="13000.00000" pt_clust_8="13000.00000" pt_clust_9="21.86451"></scales>
<clustering>
<clus scale="   21.865">  2  9  1 -1</clus>
<clus scale="   92.549">  7  8 -1 -1</clus>
<clus scale="  100.884">  5  6 -1 -1</clus>
<clus scale="  103.956">  1  7  2 -1</clus>
<clus scale="   21.865">  2  5  1 -1</clus>
</clustering>
</event>
<event>
 9    1  0.1671478E-005  0.1794049E+03  0.7546771E-02  0.1172064E+00
          2   -1    0    0  502    0 -0.00000000000E+00  0.00000000000E+00  0.10113515703E+04  0.10113515703E+04  0.00000000000E+00 0. -1.
         21   -1    0    0  501  502  0.00000000000E+00 -0.00000000000E+00 -0.86526525021E+02  0.86526525021E+02  0.00000000000E+00 0. -1.
         23    2    1    2    0    0 -0.11206152772E+03  0.13264908472E+03  0.73490960341E+03  0.75740943942E+03  0.58509555383E+02 0.  0.
         23    2    1    2    0    0  0.87980550060E+02 -0.76700443954E+02  0.22546253753E+03  0.26994390923E+03  0.91721442460E+02 0.  0.
        -11    1    3    3    0    0 -0.82626515661E+02  0.12950349432E+03  0.62024761427E+03  0.63898779263E+03  0.00000000000E+00 0. -1.
         11    1    3    3    0    0 -0.29435012056E+02  0.31455903938E+01  0.11466198914E+03  0.11842164679E+03  0.00000000000E+00 0.  1.
        -13    1    4    4    0    0  0.70403189121E+02 -0.24252630174E+01  0.12851676368E+03  0.14655732492E+03  0.00000000000E+00 0. -1.
         13    1    4    4    0    0  0.17577360939E+02 -0.74275180937E+02  0.96945773847E+02  0.12338658431E+03  0.00000000000E+00 0.  1.
          2    1    1    2  501    0  0.24080977656E+02 -0.55948640762E+02 -0.35547095640E+02  0.70524746695E+02  0.00000000000E+00 0. -1.
<scales pt_clust_5="13000.00000" pt_clust_6="13000.00000" pt_clust_7="13000.00000" pt_clust_8="13000.00000" pt_clust_9="60.91095"></scales>
<clustering>
<clus scale="   58.510">  5  6 -1 -1</clus>
<clus scale="   60.911">  2  9  1 -1</clus>
<clus scale="   91.721">  7  8 -1 -1</clus>
<clus scale="  164.914">  1  5  2 -1</clus>
<clus scale="   60.911">  2  5  1 -1</clus>
</clustering>
</event>
<event>
 9    1  0.1671478E-005  0.1118170E+03  0.7546771E-02  0.1263180E+00
          3   -1    0    0  502    0 -0.00000000000E+00  0.00000000000E+00  0.11983760198E+03  0.11983760198E+03  0.00000000000E+00 0. -1.
         21   -1    0    0  501  502  0.00000000000E+00 -0.00000000000E+00 -0.14769353513E+03  0.14769353513E+03  0.00000000000E+00 0. -1.
         23    2    1    2    0    0 -0.26545480007E+02 -0.21874065522E+02  0.35491722630E+02  0.10324225140E+03  0.90643051847E+02 0.  0.
         23    2    1    2    0    0  0.40288090916E+02  0.46064004605E+02 -0.63713859257E+02  0.13646539541E+03  0.10401117965E+03 0.  0.
        -11    1    4    4    0    0  0.36141717735E+02  0.93007413359E+01 -0.85669205580E+02  0.93444851837E+02  0.00000000000E+00 0. -1.
         11    1    4    4    0    0  0.41463731807E+01  0.36763263269E+02  0.21955346323E+02  0.43020543568E+02  0.00000000000E+00 0.  1.
        -13    1    3    3    0    0  0.26681506366E+02 -0.32974476193E+02  0.12613566124E+02  0.44252919819E+02  0.00000000000E+00 0.  1.
         13    1    3    3    0    0 -0.53226986373E+02  0.11100410672E+02  0.22878156507E+02  0.58989331583E+02  0.00000000000E+00 0. -1.
          3    1    1    2  501    0 -0.13742610909E+02 -0.24189939083E+02  0.36620346971E+00  0.27823490299E+02  0.00000000000E+00 0. -1.
<scales pt_clust_5="13000.00000" pt_clust_6="13000.00000" pt_clust_7="13000.00000" pt_clust_8="13000.00000" pt_clust_9="27.82109"></scales>
<clustering>
<clus scale="   27.821">  2  9  1 -1</clus>
<clus scale="   90.643">  7  8 -1 -1</clus>
<clus scale="   99.503">  1  7  2 -1</clus>
<clus scale="  104.011">  5  6 -1 -1</clus>
<clus scale="   27.821">  2  5  1 -1</clus>
</clustering>
</event>
<event>
 9    1  0.1671478E-005  0.1171887E+03  0.7546771E-02  0.1248069E+00
         -2   -1    0    0    0  501 -0.00000000000E+00  0.00000000000E+00  0.68349083069E+02  0.68349083069E+02  0.00000000000E+00 0.  1.
         21   -1    0    0  501  502  0.00000000000E+00 -0.00000000000E+00 -0.24826923143E+03  0.24826923143E+03  0.00000000000E+00 0. -1.
         23    2    1    2    0    0 -0.67365571071E+02  0.40460625319E+02 -0.75482070163E+02  0.14180800298E+03  0.90756732133E+02 0.  0.
         23    2    1    2    0    0  0.47808903200E+02 -0.48351800082E+02 -0.10301599294E+03  0.15367370290E+03  0.91540834401E+02 0.  0.
        -11    1    4    4    0    0  0.71420597686E+02 -0.37813061649E+02 -0.98527808147E+02  0.12743020985E+03  0.00000000000E+00 0.  1.
         11    1    4    4    0    0 -0.23611694486E+02 -0.10538738433E+02 -0.44881847979E+01  0.26243493042E+02  0.00000000000E+00 0. -1.
        -13    1    3    3    0    0  0.17114053594E+02  0.30399487773E+02 -0.24431086293E+02  0.42589877491E+02  0.00000000000E+00 0.  1.
         13    1    3    3    0    0 -0.84479624665E+02  0.10061137546E+02 -0.51050983870E+02  0.99218125493E+02  0.00000000000E+00 0. -1.
         -2    1    1    2    0  502  0.19556667870E+02  0.78911747631E+01 -0.14220852498E+01  0.21136608616E+02  0.00000000000E+00 0.  1.
<scales pt_clust_5="13000.00000" pt_clust_6="13000.00000" pt_clust_7="13000.00000" pt_clust_8="13000.00000" pt_clust_9="21.08873"></scales>
<clustering>
<clus scale="   21.089">  2  9  1 -1</clus>
<clus scale="   90.757">  7  8 -1 -1</clus>
<clus scale="   91.541">  5  6 -1 -1</clus>
<clus scale="  116.577">  1  7  2 -1</clus>
<clus scale="   21.089">  2  5  1 -1</clus>
</clustering>
</event>
<event>
 9    1  0.1671478E-005  0.1305922E+03  0.7546771E-02  0.1230951E+00
         21   -1    0    0  501  502  0.00000000000E+00  0.00000000000E+00  0.23367794082E+03  0.23367794082E+03  0.00000000000E+00 0.  1.
         -3   -1    0    0    0  501 -0.00000000000E+00 -0.00000000000E+00 -0.98029066118E+02  0.98029066118E+02  0.00000000000E+00 0.  1.
         23    2    1    2    0    0 -0.44311421926E+02 -0.47270070832E+02  0.32658050817E+02  0.12831645781E+03  0.10583290298E+03 0.  0.
         23    2    1    2    0    0  0.71871547622E+02  0.53839144932E+02  0.40003748419E+02  0.13432474761E+03  0.91535048195E+02 0.  0.
        -13    1    4    4    0    0  0.21657906692E+02  0.37524546699E+02  0.63225528278E+02  0.76646095486E+02  0.00000000000E+00 0. -1.
         13    1    4    4    0    0  0.50213640930E+02  0.16314598234E+02 -0.23221779859E+02  0.57678652124E+02  0.00000000000E+00 0.  1.
        -13    1    3    3    0    0 -0.55958253278E+02 -0.70118158747E+02  0.44417053800E+02  0.10010373102E+03  0.00000000000E+00 0.  1.
         13    1    3    3    0    0  0.11646831352E+02  0.22848087916E+02 -0.11759002983E+02  0.28212726793E+02  0.00000000000E+00 0. -1.
         -3    1    1    2    0  502 -0.27560125697E+02 -0.65690741008E+01  0.62987075463E+02  0.69065801511E+02  0.00000000000E+00 0.  1.
<scales pt_clust_5="13000.00000" pt_clust_6="13000.00000" pt_clust_7="13000.00000" pt_clust_8="13000.00000" pt_clust_9="28.33219"></scales>
<clustering>
<clus scale="   28.332">  1  9  2 -1</clus>
<clus scale="   91.535">  5  6 -1 -1</clus>
<clus scale="  105.833">  7  8 -1 -1</clus>
<clus scale="  119.300">  1  5  2 -1</clus>
<clus scale="   28.332">  1  5  2 -1</clus>
</clustering>
</event>
<event>
 9    1  0.1671478E-005  0.9589127E+02  0.7546771E-02  0.1289435E+00
         -4   -1    0    0    0  501 -0.00000000000E+00  0.00000000000E+00  0.13697829731E+03  0.13697829731E+03  0.00000000000E+00 0.  1.
         21   -1    0    0  501  502  0.00000000000E+00 -0.00000000000E+00 -0.15895515332E+03  0.15895515332E+03  0.00000000000E+00 0. -1.
         23    2    1    2    0    0  0.33676188366E+02 -0.33854490848E+01  0.84337871497E+02  0.12858576609E+03  0.90971840390E+02 0.  0.
         23    2    1    2    0    0 -0.18684376049E+02 -0.13271927862E+02 -0.48192133002E+02  0.10505435717E+03  0.90491360360E+02 0.  0.
        -11    1    4    4    0    0 -0.31114648593E+02  0.11781461083E+02  0.14586691755E+02  0.36327617025E+02  0.00000000000E+00 0.  1.
         11    1    4    4    0    0  0.12430272545E+02 -0.25053388945E+02 -0.62778824757E+02  0.68726740146E+02  0.00000000000E+00 0. -1.
        -13    1    3    3    0    0  0.60974791141E+02  0.53104626860E+01  0.32357026910E+02  0.69232242193E+02  0.00000000000E+00 0.  1.
         13    1    3    3    0    0 -0.27298602775E+02 -0.86959117707E+01  0.51980844588E+02  0.59353523897E+02  0.00000000000E+00 0. -1.
         -4    1    1    2    0  502 -0.14991812317E+02  0.16657376947E+02 -0.58122594503E+02  0.62293327372E+02  0.00000000000E+00 0.  1.
<scales pt_clust_5="13000.00000" pt_clust_6="13000.00000" pt_clust_7="13000.00000" pt_clust_8="13000.00000" pt_clust_9="22.41032"></scales>
<clustering>
<clus scale="   22.410">  2  9  1 -1</clus>
<clus scale="   90.491">  5  6 -1 -1</clus>
<clus scale="   90.972">  7  8 -1 -1</clus>
<clus scale="   95.436">  2  5  1 -1</clus>
<clus scale="   22.410">  2  5  1 -1</clus>
</clustering>
</event>
<event>
 9    1  0.1671478E-005  0.9596153E+02  0.7546771E-02  0.1289082E+00
          1   -1    0    0  502    0 -0.00000000000E+00  0.00000000000E+00  0.79332263579E+02  0.79332263579E+02  0.00000000000E+00 0. -1.
         21   -1    0    0  501  502  0.00000000000E+00 -0.00000000000E+00 -0.38943985916E+03  0.38943985916E+03  0.00000000000E+00 0. -1.
         23    2    1    2    0    0 -0.74597296837E+01  0.44030648002E+02  0.76675606352E+01  0.10080807956E+03  0.90050718424E+02 0.  0.
         23    2    1    2    0    0 -0.16643614279E+02 -0.12000938909E+02 -0.67023483561E+02  0.11402847104E+03  0.89940605007E+02 0.  0.
        -13    1    3    3    0    0 -0.44010315003E+02  0.44157096423E+02  0.13516475893E+02  0.63792257459E+02  0.00000000000E+00 0. -1.
         13    1    3    3    0    0  0.36550585319E+02 -0.12644842082E+00 -0.58489152576E+01  0.37015822104E+02  0.00000000000E+00 0.  1.
        -13    1    4    4    0    0 -0.31533052643E+02  0.50298571858E+01 -0.81253874014E+02  0.87303063604E+02  0.00000000000E+00 0.  1.
         13    1    4    4    0    0  0.14889438365E+02 -0.17030796094E+02  0.14230390453E+02  0.26725407440E+02  0.00000000000E+00 0. -1.
          1    1    1    2  501    0  0.24103343962E+02 -0.32029709093E+02 -0.25075167265E+03  0.25393557213E+03  0.00000000000E+00 0. -1.
<scales pt_clust_5="13000.00000" pt_clust_6="13000.00000" pt_clust_7="13000.00000" pt_clust_8="13000.00000" pt_clust_9="40.08583"></scales>
<clustering>
<clus scale="   40.086">  2  9  1 -1</clus>
<clus scale="   89.941">  7  8 -1 -1</clus>
<clus scale="   90.051">  5  6 -1 -1</clus>
<clus scale="   95.858">  2  7  1 -1</clus>
<clus scale="   40.086">  2  5  1 -1</clus>
</clustering>
</event>
<event>
 9    1  0.1671478E-005  0.9808828E+02  0.7546771E-02  0.1284438E+00
         21   -1    0    0  501  502  0.00000000000E+00  0.00000000000E+00  0.29209602978E+03  0.29209602978E+03  0.00000000000E+00 0.  1.
         -3   -1    0    0    0  501 -0.00000000000E+00 -0.00000000000E+00 -0.87710928184E+02  0.87710928184E+02  0.00000000000E+00 0.  1.
         23    2    1    2    0    0  0.17701611320E+02 -0.39456064682E+02 -0.20036081081E+02  0.10220614318E+03  0.90413069164E+02 0.  0.
         23    2    1    2    0    0 -0.21873028581E+02  0.19148079439E+02  0.60761333596E+02  0.11263305676E+03  0.90272850229E+02 0.  0.
        -11    1    4    4    0    0 -0.12230536055E+01  0.47952652404E+02  0.60476045364E+02  0.77190056326E+02  0.00000000000E+00 0. -1.
         11    1    4    4    0    0 -0.20649974976E+02 -0.28804572965E+02  0.28528823233E+00  0.35443000431E+02  0.00000000000E+00 0.  1.
        -13    1    3    3    0    0 -0.28116816282E+02  0.42388261737E+01  0.12454931616E+02  0.31042685559E+02  0.00000000000E+00 0. -1.
         13    1    3    3    0    0  0.45818427602E+02 -0.43694890856E+02 -0.32491012697E+02  0.71163457623E+02  0.00000000000E+00 0.  1.
         -3    1    1    2    0  502  0.41714172615E+01  0.20307985243E+02  0.16365984909E+03  0.16496775803E+03  0.00000000000E+00 0.  1.
<scales pt_clust_5="13000.00000" pt_clust_6="13000.00000" pt_clust_7="13000.00000" pt_clust_8="13000.00000" pt_clust_9="20.73198"></scales>
<clustering>
<clus scale="   20.732">  1  9  2 -1</clus>
<clus scale="   90.273">  5  6 -1 -1</clus>
<clus scale="   90.413">  7  8 -1 -1</clus>
<clus scale="   97.959">  1  5  2 -1</clus>
<clus scale="   20.732">  1  5  2 -1</clus>
</clustering>
</event>
<event>
 9    1  0.1671478E-005  0.9107291E+02  0.7546771E-02  0.1305299E+00
         21   -1    0    0  501  502  0.00000000000E+00  0.00000000000E+00  0.91426059783E+02  0.91426059783E+02  0.00000000000E+00 0.  1.
         -4   -1    0    0    0  501 -0.00000000000E+00 -0.00000000000E+00 -0.26845516558E+03  0.26845516558E+03  0.00000000000E+00 0.  1.
         23    2    1    2    0    0 -0.11009572702E+02 -0.12897343938E+01 -0.21722738745E+03  0.23266235480E+03  0.82590310407E+02 0.  0.
         23    2    1    2    0    0 -0.11116937664E+02  0.12133924873E+02  0.17636487150E+02  0.93809089064E+02  0.90654735542E+02 0.  0.
        -13    1    4    4    0    0 -0.49672861805E+02 -0.41011072553E+01  0.49182983575E+01  0.50083948919E+02  0.00000000000E+00 0.  1.
         13    1    4    4    0    0  0.38555924141E+02  0.16235032129E+02  0.12718188793E+02  0.43725140145E+02  0.00000000000E+00 0. -1.
        -13    1    3    3    0    0 -0.40498345476E+01  0.40627523796E+02 -0.10456764914E+03  0.11225591341E+03  0.00000000000E+00 0.  1.
         13    1    3    3    0    0 -0.69597381546E+01 -0.41917258190E+02 -0.11265973832E+03  0.12040644139E+03  0.00000000000E+00 0. -1.
         -4    1    1    2    0  502  0.22126510367E+02 -0.10844190480E+02  0.22561794511E+02  0.33409781498E+02  0.00000000000E+00 0.  1.
<scales pt_clust_5="13000.00000" pt_clust_6="13000.00000" pt_clust_7="13000.00000" pt_clust_8="13000.00000" pt_clust_9="24.64100"></scales>
<clustering>
<clus scale="   24.641">  1  9  2 -1</clus>
<clus scale="   82.590">  7  8 -1 -1</clus>
<clus scale="   83.049">  2  7  1 -1</clus>
<clus scale="   90.655">  5  6 -1 -1</clus>
<clus scale="   24.641">  1  5  2 -1</clus>
</clustering>
</event>
<event>
 9    1  0.1671478E-005  0.2068440E+03  0.7546771E-02  0.1164368E+00
         -3   -1    0    0    0  501 -0.00000000000E+00  0.00000000000E+00  0.46970902871E+03  0.46970902871E+03  0.00000000000E+00 0.  1.
         21   -1    0    0  501  502  0.00000000000E+00 -0.00000000000E+00 -0.24489151804E+03  0.24489151804E+03  0.00000000000E+00 0. -1.
         23    2    1    2    0    0  0.80877285023E+02 -0.41522630634E+02  0.27957815185E+03  0.30764768457E+03  0.90652582654E+02 0.  0.
         23    2    1    2    0    0 -0.22484578001E+03  0.38868258733E+02 -0.84270418935E+02  0.25996714783E+03  0.91733571385E+02 0.  0.
        -13    1    3    3    0    0  0.40071091458E+02 -0.65399512554E+02  0.13182080914E+03  0.15251070236E+03  0.00000000000E+00 0.  1.
         13    1    3    3    0    0  0.40806193565E+02  0.23876881920E+02  0.14775734271E+03  0.15513698220E+03  0.00000000000E+00 0. -1.
        -13    1    4    4    0    0 -0.15309536498E+03  0.55982340661E+02 -0.89599777056E+02  0.18601164827E+03  0.00000000000E+00 0. -1.
         13    1    4    4    0    0 -0.71750415032E+02 -0.17114081928E+02  0.53293581209E+01  0.73955499562E+02  0.00000000000E+00 0.  1.
         -3    1    1    2    0  502  0.14396849499E+03  0.26543719017E+01  0.29509777752E+02  0.14698571435E+03  0.00000000000E+00 0.  1.
<scales pt_clust_5="13000.00000" pt_clust_6="13000.00000" pt_clust_7="13000.00000" pt_clust_8="13000.00000" pt_clust_9="185.38994"></scales>
<clustering>
<clus scale="   90.653">  5  6 -1 -1</clus>
<clus scale="   91.734">  7  8 -1 -1</clus>
<clus scale="  128.387">  1  5  2 -1</clus>
<clus scale="  185.390">  2  9  1 -1</clus>
<clus scale="  185.390">  2  5  1 -1</clus>
</clustering>
</event>
<event>
 9    1  0.1671478E-005  0.1342391E+03  0.7546771E-02  0.1222384E+00
         -4   -1    0    0    0  501 -0.00000000000E+00  0.00000000000E+00  0.12528459652E+03  0.12528459652E+03  0.00000000000E+00 0.  1.
         21   -1    0    0  501  502  0.00000000000E+00 -0.00000000000E+00 -0.30652328412E+03  0.30652328412E+03  0.00000000000E+00 0.  1.
         23    2    1    2    0    0  0.19763721479E+00  0.10637862148E+03  0.53510590387E+02  0.15078646600E+03  0.92502566864E+02 0.  0.
         23    2    1    2    0    0 -0.83577339213E+01 -0.61077402419E+02 -0.17810258320E+03  0.20803076005E+03  0.88067963438E+02 0.  0.
        -11    1    4    4    0    0 -0.18881948035E+02 -0.36228773773E+02 -0.17631490563E+03  0.18098618168E+03  0.00000000000E+00 0.  1.
         11    1    4    4    0    0  0.10524214114E+02 -0.24848628646E+02 -0.17876775644E+01  0.27044578373E+02  0.00000000000E+00 0. -1.
        -11    1    3    3    0    0 -0.39054826919E+02  0.36577223628E+02  0.45622522140E+02  0.70317759637E+02  0.00000000000E+00 0.  1.
         11    1    3    3    0    0  0.39252464134E+02  0.69801397854E+02  0.78880682468E+01  0.80468706363E+02  0.00000000000E+00 0. -1.
         -4    1    1    2    0  502  0.81600967065E+01 -0.45301219063E+02 -0.56646694788E+02  0.72990654588E+02  0.00000000000E+00 0.  1.
<scales pt_clust_5="13000.00000" pt_clust_6="13000.00000" pt_clust_7="13000.00000" pt_clust_8="13000.00000" pt_clust_9="46.03029"></scales>
<clustering>
<clus scale="   46.030">  2  9  1 -1</clus>
<clus scale="   88.068">  5  6 -1 -1</clus>
<clus scale="   92.503">  7  8 -1 -1</clus>
<clus scale="  131.223">  2  5  1 -1</clus>
<clus scale="   46.030">  2  5  1 -1</clus>
</clustering>
</event>
<event>
 9    1  0.1671478E-005  0.2469559E+03  0.7546771E-02  0.1153875E+00
         -1   -1    0    0    0  501 -0.00000000000E+00  0.00000000000E+00  0.19634683503E+03  0.19634683503E+03  0.00000000000E+00 0.  1.
         21   -1    0    0  501  502  0.00000000000E+00 -0.00000000000E+00 -0.10362434469E+04  0.10362434469E+04  0.00000000000E+00 0.  1.
         23    2    1    2    0    0  0.30523179347E+02 -0.13918210364E+01 -0.19509492534E+03  0.21758855277E+03  0.91373665586E+02 0.  0.
         23    2    1    2    0    0 -0.44464386940E+02  0.22997869784E+03  0.72727664694E+02  0.26181205358E+03  0.91591238796E+02 0.  0.
        -13    1    4    4    0    0 -0.68032569868E+02  0.12522071826E+03  0.26708223746E+02  0.14498961363E+03  0.00000000000E+00 0. -1.
         13    1    4    4    0    0  0.23568182928E+02  0.10475797958E+03  0.46019440948E+02  0.11682243995E+03  0.00000000000E+00 0.  1.
        -13    1    3    3    0    0  0.20716777800E+02  0.37323221354E+02 -0.15587093919E+03  0.16161051147E+03  0.00000000000E+00 0. -1.
         13    1    3    3    0    0  0.98064015470E+01 -0.38715042390E+02 -0.39223986147E+02  0.55978041301E+02  0.00000000000E+00 0.  1.
         -1    1    1    2    0  502  0.13941207592E+02 -0.22858687680E+03 -0.71752935121E+03  0.75318967556E+03  0.00000000000E+00 0.  1.
<scales pt_clust_5="13000.00000" pt_clust_6="13000.00000" pt_clust_7="13000.00000" pt_clust_8="13000.00000" pt_clust_9="229.34309"></scales>
<clustering>
<clus scale="   91.374">  7  8 -1 -1</clus>
<clus scale="   91.591">  5  6 -1 -1</clus>
<clus scale="   96.347">  1  7  2 -1</clus>
<clus scale="  229.343">  2  9  1 -1</clus>
<clus scale="  229.343">  2  5  1 -1</clus>
</clustering>
</event>
<event>
 9    1  0.1671478E-005  0.1086684E+03  0.7546771E-02  0.1264643E+00
          3   -1    0    0  502    0 -0.00000000000E+00  0.00000000000E+00  0.61706352089E+02  0.61706352089E+02  0.00000000000E+00 0. -1.
         21   -1    0    0  501  502  0.00000000000E+00 -0.00000000000E+00 -0.41749277745E+03  0.41749277745E+03  0.00000000000E+00 0.  1.
         23    2    1    2    0    0  0.59441991306E+02 -0.14954039635E+02 -0.12096753293E+02  0.11099596900E+03  0.91743119977E+02 0.  0.
         23    2    1    2    0    0 -0.49471180419E+02 -0.96380130303E+01 -0.22723122377E+03  0.24875963286E+03  0.87789731155E+02 0.  0.
        -13    1    3    3    0    0  0.12839585521E+02 -0.40375976536E+02 -0.33243607919E+02  0.53853615524E+02  0.00000000000E+00 0.  1.
         13    1    3    3    0    0  0.46602405785E+02  0.25421936901E+02  0.21146854626E+02  0.57142353480E+02  0.00000000000E+00 0. -1.
        -13    1    4    4    0    0 -0.72137700766E+02  0.23469336077E+01 -0.19252580994E+03  0.20561017354E+03  0.00000000000E+00 0.  1.
         13    1    4    4    0    0  0.22666520347E+02 -0.11984946638E+02 -0.34705413835E+02  0.43149459325E+02  0.00000000000E+00 0. -1.
          3    1    1    2  501    0 -0.99708108865E+01  0.24592052665E+02 -0.11645844830E+03  0.11944352768E+03  0.00000000000E+00 0. -1.
<scales pt_clust_5="13000.00000" pt_clust_6="13000.00000" pt_clust_7="13000.00000" pt_clust_8="13000.00000" pt_clust_9="26.53651"></scales>
<clustering>
<clus scale="   26.537">  2  9  1 -1</clus>
<clus scale="   87.790">  7  8 -1 -1</clus>
<clus scale="   91.743">  5  6 -1 -1</clus>
<clus scale="  105.352">  2  7  1 -1</clus>
<clus scale="   26.537">  2  5  1 -1</clus>
</clustering>
</event>
<event>
 9    1  0.1671478E-005  0.1390770E+03  0.7546771E-02  0.1214979E+00
         21   -1    0    0  501  502  0.00000000000E+00  0.00000000000E+00  0.15005138031E+03  0.15005138031E+03  0.00000000000E+00 0.  1.
          2   -1    0    0  502    0 -0.00000000000E+00 -0.00000000000E+00 -0.16024328216E+03  0.16024328216E+03  0.00000000000E+00 0. -1.
         23    2    1    2    0    0 -0.81462486830E+02  0.83325900333E+02 -0.27323935772E+02  0.15110051392E+03  0.92224863317E+02 0.  0.
         23    2    1    2    0    0  0.68145186327E+02 -0.60617919359E+02  0.12398968051E+01  0.12844414180E+03  0.90432635992E+02 0.  0.
        -13    1    4    4    0    0  0.89973821475E+02 -0.53398714388E+02  0.66057302345E+01  0.10483485547E+03  0.00000000000E+00 0. -1.
         13    1    4    4    0    0 -0.21828635148E+02 -0.72192049715E+01 -0.53658334294E+01  0.23609286335E+02  0.00000000000E+00 0.  1.
        -13    1    3    3    0    0 -0.39290461091E+02  0.91038290956E+02  0.19734651538E+01  0.99174620330E+02  0.00000000000E+00 0. -1.
         13    1    3    3    0    0 -0.42172025739E+02 -0.77123906230E+01 -0.29297400925E+02  0.51925893589E+02  0.00000000000E+00 0.  1.
          2    1    1    2  501    0  0.13317300502E+02 -0.22707980974E+02  0.15892137113E+02  0.30750006742E+02  0.00000000000E+00 0. -1.
<scales pt_clust_5="13000.00000" pt_clust_6="13000.00000" pt_clust_7="13000.00000" pt_clust_8="13000.00000" pt_clust_9="26.32495"></scales>
<clustering>
<clus scale="   26.325">  1  9  2 -1</clus>
<clus scale="   90.433">  5  6 -1 -1</clus>
<clus scale="   92.225">  7  8 -1 -1</clus>
<clus scale="  137.895">  1  5  2 -1</clus>
<clus scale="   26.325">  1  5  2 -1</clus>
</clustering>
</event>
<event>
 9    1  0.1671478E-005  0.1327010E+03  0.7546771E-02  0.1227594E+00
         21   -1    0    0  501  502  0.00000000000E+00  0.00000000000E+00  0.78412010967E+02  0.78412010967E+02  0.00000000000E+00 0.  1.
         -4   -1    0    0    0  501 -0.00000000000E+00 -0.00000000000E+00 -0.43389679185E+03  0.43389679185E+03  0.00000000000E+00 0.  1.
         23    2    1    2    0    0 -0.53709806857E+02 -0.68346234970E+02 -0.22278057116E+03  0.25487201460E+03  0.88162405548E+02 0.  0.
         23    2    1    2    0    0 -0.15541810174E+02  0.98570377917E+02 -0.70430165107E+02  0.15952181535E+03  0.10261156928E+03 0.  0.
        -13    1    3    3    0    0  0.70722850220E+01 -0.51153391521E+02 -0.14927016041E+03  0.15795020567E+03  0.00000000000E+00 0.  1.
         13    1    3    3    0    0 -0.60782091879E+02 -0.17192843449E+02 -0.73510410750E+02  0.96921808937E+02  0.00000000000E+00 0. -1.
        -13    1    4    4    0    0 -0.44221479574E+02  0.41502346207E+01 -0.20199107552E+02  0.48793110672E+02  0.00000000000E+00 0.  1.
         13    1    4    4    0    0  0.28679669401E+02  0.94420143297E+02 -0.50231057555E+02  0.11072870468E+03  0.00000000000E+00 0. -1.
         -4    1    1    2    0  502  0.69251617031E+02 -0.30224142948E+02 -0.62274044613E+02  0.97914972863E+02  0.00000000000E+00 0.  1.
<scales pt_clust_5="13000.00000" pt_clust_6="13000.00000" pt_clust_7="13000.00000" pt_clust_8="13000.00000" pt_clust_9="75.55981"></scales>
<clustering>
<clus scale="   75.560">  1  9  2 -1</clus>
<clus scale="   88.162">  5  6 -1 -1</clus>
<clus scale="  102.612">  7  8 -1 -1</clus>
<clus scale="  121.873">  2  5  1 -1</clus>
<clus scale="   75.560">  1  5  2 -1</clus>
</clustering>
</event>
<event>
 9    1  0.1671478E-005  0.1092831E+03  0.7546771E-02  0.1262401E+00
          2   -1    0    0  502    0 -0.00000000000E+00  0.00000000000E+00  0.11232478971E+03  0.11232478971E+03  0.00000000000E+00 0. -1.
         21   -1    0    0  501  502  0.00000000000E+00 -0.00000000000E+00 -0.23768609607E+03  0.23768609607E+03  0.00000000000E+00 0. -1.
         23    2    1    2    0    0  0.44636917452E+02 -0.36629674015E+02  0.58063835545E+02  0.12229479555E+03  0.90831825936E+02 0.  0.
         23    2    1    2    0    0 -0.38002753596E+02  0.55516167529E+02 -0.16449610699E+03  0.20016577027E+03  0.92092954321E+02 0.  0.
        -11    1    3    3    0    0 -0.17257518082E+02 -0.17859852044E+02  0.51636244066E+02  0.57298324117E+02  0.00000000000E+00 0.  1.
         11    1    3    3    0    0  0.61894435533E+02 -0.18769821971E+02  0.64275914797E+01  0.64996471435E+02  0.00000000000E+00 0. -1.
        -11    1    4    4    0    0 -0.41912418676E+02  0.78649124456E+02 -0.11589629465E+03  0.14619947582E+03  0.00000000000E+00 0. -1.
         11    1    4    4    0    0  0.39096650798E+01 -0.23132956927E+02 -0.48599812340E+02  0.53966294450E+02  0.00000000000E+00 0.  1.
          2    1    1    2  501    0 -0.66341638556E+01 -0.18886493514E+02 -0.18929034911E+02  0.27550319961E+02  0.00000000000E+00 0. -1.
<scales pt_clust_5="13000.00000" pt_clust_6="13000.00000" pt_clust_7="13000.00000" pt_clust_8="13000.00000" pt_clust_9="20.01779"></scales>
<clustering>
<clus scale="   20.018">  2  9  1 -1</clus>
<clus scale="   90.832">  5  6 -1 -1</clus>
<clus scale="   92.093">  7  8 -1 -1</clus>
<clus scale="  108.222">  1  5  2 -1</clus>
<clus scale="   20.018">  2  5  1 -1</clus>
</clustering>
</event>
<event>
 9    1  0.1671478E-005  0.1044346E+03  0.7546771E-02  0.1271996E+00
         21   -1    0    0  501  502  0.00000000000E+00  0.00000000000E+00  0.51674162046E+02  0.51674162046E+02  0.00000000000E+00 0. -1.
         -1   -1    0    0    0  501 -0.00000000000E+00 -0.00000000000E+00 -0.35181910659E+03  0.35181910659E+03  0.00000000000E+00 0.  1.
         23    2    1    2    0    0  0.36949689255E+02  0.32657589379E+02 -0.12524138119E+03  0.16228136664E+03  0.90653409840E+02 0.  0.
         23    2    1    2    0    0  0.41523375800E+01 -0.66492933498E+02 -0.13407098654E+03  0.17411863519E+03  0.88902854718E+02 0.  0.
        -11    1    3    3    0    0  0.79233079833E+01  0.51066574584E+02 -0.11553421306E+03  0.12656511461E+03  0.00000000000E+00 0.  1.
         11    1    3    3    0    0  0.29026381271E+02 -0.18408985205E+02 -0.97071681353E+01  0.35716252032E+02  0.00000000000E+00 0. -1.
        -11    1    4    4    0    0 -0.16192854384E+02 -0.59872776577E+02 -0.13895847081E+03  0.15217231850E+03  0.00000000000E+00 0.  1.
         11    1    4    4    0    0  0.20345191964E+02 -0.66201569211E+01  0.48874842733E+01  0.21946316689E+02  0.00000000000E+00 0. -1.
         -1    1    1    2    0  502 -0.41102026835E+02  0.33835344119E+02 -0.40832576821E+02  0.67093266811E+02  0.00000000000E+00 0.  1.
<scales pt_clust_5="13000.00000" pt_clust_6="13000.00000" pt_clust_7="13000.00000" pt_clust_8="13000.00000" pt_clust_9="53.23727"></scales>
<clustering>
<clus scale="   53.237">  1  9  2 -1</clus>
<clus scale="   88.903">  7  8 -1 -1</clus>
<clus scale="   90.653">  5  6 -1 -1</clus>
<clus scale="  102.919">  1  7  2 -1</clus>
<clus scale="   53.237">  1  5  2 -1</clus>
</clustering>
</event>
<event>
 9    1  0.1671478E-005  0.1155557E+03  0.7546771E-02  0.1250874E+00
         21   -1    0    0  501  502  0.00000000000E+00  0.00000000000E+00  0.45983640883E+02  0.45983640883E+02  0.00000000000E+00 0.  1.
          1   -1    0    0  502    0 -0.00000000000E+00 -0.00000000000E+00 -0.48582315621E+03  0.48582315621E+03  0.00000000000E+00 0. -1.
         23    2    1    2    0    0 -0.67467174494E+02 -0.31717381519E+02 -0.24263405220E+03  0.26934880751E+03  0.90109294151E+02 0.  0.
         23    2    1    2    0    0  0.69645759968E+02  0.71461237174E+01 -0.20639729759E+03  0.23613342376E+03  0.90871064698E+02 0.  0.
        -13    1    3    3    0    0  0.16113383871E+02 -0.25291163835E+02 -0.39466905920E+02  0.49567335724E+02  0.00000000000E+00 0.  1.
         13    1    3    3    0    0 -0.83580558365E+02 -0.64262176847E+01 -0.20316714628E+03  0.21978147178E+03  0.00000000000E+00 0. -1.
        -13    1    4    4    0    0  0.20194628729E+01  0.34490132272E+02 -0.10967463764E+03  0.11498771063E+03  0.00000000000E+00 0. -1.
         13    1    4    4    0    0  0.67626297095E+02 -0.27344008555E+02 -0.96722659957E+02  0.12114571314E+03  0.00000000000E+00 0.  1.
          1    1    1    2  501    0 -0.21785854734E+01  0.24571257802E+02  0.91918344705E+01  0.26324565819E+02  0.00000000000E+00 0. -1.
<scales pt_clust_5="13000.00000" pt_clust_6="13000.00000" pt_clust_7="13000.00000" pt_clust_8="13000.00000" pt_clust_9="24.66765"></scales>
<clustering>
<clus scale="   24.668">  1  9  2 -1</clus>
<clus scale="   90.109">  5  6 -1 -1</clus>
<clus scale="   90.871">  7  8 -1 -1</clus>
<clus scale="  114.958">  2  5  1 -1</clus>
<clus scale="   24.668">  1  5  2 -1</clus>
</clustering>
</event>
<event>
 9    1  0.1671478E-005  0.1093563E+03  0.7546771E-02  0.1262132E+00
          1   -1    0    0  502    0 -0.00000000000E+00  0.00000000000E+00  0.11668319681E+03  0.11668319681E+03  0.00000000000E+00 0. -1.
         21   -1    0    0  501  502  0.00000000000E+00 -0.00000000000E+00 -0.19151897865E+03  0.19151897865E+03  0.00000000000E+00 0.  1.
         23    2    1    2    0    0  0.37415596886E+02  0.46092029126E+02  0.56671734815E+02  0.12300179115E+03  0.91615244686E+02 0.  0.
         23    2    1    2    0    0 -0.49062519702E+02 -0.28474117855E+02 -0.11690306520E+03  0.15952293095E+03  0.92538276504E+02 0.  0.
        -11    1    3    3    0    0  0.24458751792E+02  0.28732305911E+02 -0.20434242742E+02  0.42910770427E+02  0.00000000000E+00 0.  1.
         11    1    3    3    0    0  0.12956845093E+02  0.17359723214E+02  0.77105977556E+02  0.80091020719E+02  0.00000000000E+00 0. -1.
        -11    1    4    4    0    0 -0.56604398524E+02  0.18519238812E+02 -0.77456682533E+02  0.97706488052E+02  0.00000000000E+00 0. -1.
         11    1    4    4    0    0  0.75418788213E+01 -0.46993356667E+02 -0.39446382670E+02  0.61816442900E+02  0.00000000000E+00 0.  1.
          1    1    1    2  501    0  0.11646922817E+02 -0.17617911271E+02 -0.14604451451E+02  0.25677453355E+02  0.00000000000E+00 0. -1.
<scales pt_clust_5="13000.00000" pt_clust_6="13000.00000" pt_clust_7="13000.00000" pt_clust_8="13000.00000" pt_clust_9="21.11970"></scales>
<clustering>
<clus scale="   21.120">  2  9  1 -1</clus>
<clus scale="   91.615">  5  6 -1 -1</clus>
<clus scale="   92.538">  7  8 -1 -1</clus>
<clus scale="  108.576">  1  5  2 -1</clus>
<clus scale="   21.120">  2  5  1 -1</clus>
</clustering>
</event>
<event>
 9    1  0.1671478E-005  0.3212313E+03  0.7546771E-02  0.1075212E+00
         21   -1    0    0  501  502  0.00000000000E+00  0.00000000000E+00  0.12955930325E+03  0.12955930325E+03  0.00000000000E+00 0.  1.
          2   -1    0    0  502    0 -0.00000000000E+00 -0.00000000000E+00 -0.15402836385E+04  0.15402836385E+04  0.00000000000E+00 0.  1.
         23    2    1    2    0    0  0.15420636110E+03  0.27646979430E+03 -0.11063954543E+04  0.11546703299E+04  0.94538459842E+02 0.  0.
         23    2    1    2    0    0 -0.12618535976E+03 -0.25585775036E+03 -0.34819910161E+03  0.45918485304E+03  0.90676245286E+02 0.  0.
        -11    1    3    3    0    0  0.13255544290E+03  0.26714489882E+03 -0.10738030398E+04  0.11144461901E+04  0.00000000000E+00 0.  1.
         11    1    3    3    0    0  0.21650918197E+02  0.93248954830E+01 -0.32592414554E+02  0.40224139779E+02  0.00000000000E+00 0. -1.
        -11    1    4    4    0    0 -0.64525022955E+02 -0.17781711072E+03 -0.16629823809E+03  0.25186803577E+03  0.00000000000E+00 0.  1.
         11    1    4    4    0    0 -0.61660336804E+02 -0.78040639639E+02 -0.18190086353E+03  0.20731681727E+03  0.00000000000E+00 0. -1.
          2    1    1    2  501    0 -0.28021001342E+02 -0.20612043938E+02  0.43870220713E+02  0.55987758813E+02  0.00000000000E+00 0.  1.
<scales pt_clust_5="13000.00000" pt_clust_6="13000.00000" pt_clust_7="13000.00000" pt_clust_8="13000.00000" pt_clust_9="34.78553"></scales>
<clustering>
<clus scale="   34.786">  1  9  2 -1</clus>
<clus scale="   90.676">  7  8 -1 -1</clus>
<clus scale="   94.538">  5  6 -1 -1</clus>
<clus scale="  320.116">  1  7  2 -1</clus>
<clus scale="   34.786">  1  5  2 -1</clus>
</clustering>
</event>
<event>
 9    1  0.1671478E-005  0.1227769E+03  0.7546771E-02  0.1238638E+00
         21   -1    0    0  501  502  0.00000000000E+00  0.00000000000E+00  0.35715502474E+02  0.35715502474E+02  0.00000000000E+00 0. -1.
          1   -1    0    0  502    0 -0.00000000000E+00 -0.00000000000E+00 -0.77819070991E+03  0.77819070991E+03  0.00000000000E+00 0. -1.
         23    2    1    2    0    0  0.29439292233E+02 -0.83818758702E+02 -0.57912527239E+03  0.59303839103E+03  0.91739827112E+02 0.  0.
         23    2    1    2    0    0 -0.34057591017E+01  0.63010008933E+02 -0.14471968760E+03  0.18268621539E+03  0.91916292856E+02 0.  0.
        -11    1    4    4    0    0  0.10893943247E+02 -0.19396789858E+02 -0.10643700592E+02  0.24661748084E+02  0.00000000000E+00 0.  1.
         11    1    4    4    0    0 -0.14299702349E+02  0.82406798791E+02 -0.13407598701E+03  0.15802446730E+03  0.00000000000E+00 0. -1.
        -11    1    3    3    0    0  0.34027564078E+01 -0.95093628213E+02 -0.50014666665E+03  0.50911792842E+03  0.00000000000E+00 0. -1.
         11    1    3    3    0    0  0.26036535825E+02  0.11274869510E+02 -0.78978605746E+02  0.83920462617E+02  0.00000000000E+00 0.  1.
          1    1    1    2  501    0 -0.26033533131E+02  0.20808749769E+02 -0.18630247443E+02  0.38181605964E+02  0.00000000000E+00 0. -1.
<scales pt_clust_5="13000.00000" pt_clust_6="13000.00000" pt_clust_7="13000.00000" pt_clust_8="13000.00000" pt_clust_9="33.32790"></scales>
<clustering>
<clus scale="   33.328">  1  9  2 -1</clus>
<clus scale="   91.740">  7  8 -1 -1</clus>
<clus scale="   91.916">  5  6 -1 -1</clus>
<clus scale="  122.645">  2  7  1 -1</clus>
<clus scale="   33.328">  1  5  2 -1</clus>
</clustering>
</event>
<event>
 9    1  0.1671478E-005  0.1588816E+03  0.7546771E-02  0.1190997E+00
         -1   -1    0    0    0  501 -0.00000000000E+00  0.00000000000E+00  0.49513415580E+03  0.49513415580E+03  0.00000000000E+00 0.  1.
         21   -1    0    0  501  502  0.00000000000E+00 -0.00000000000E+00 -0.13205349270E+03  0.13205349270E+03  0.00000000000E+00 0. -1.
         23    2    1    2    0    0 -0.50054607197E+02  0.10683799747E+03  0.33180192014E+03  0.36520339282E+03  0.96753204133E+02 0.  0.
         23    2    1    2    0    0  0.44163861560E+02 -0.13912963066E+03 -0.40685229643E+02  0.18288770829E+03  0.10239690003E+03 0.  0.
        -11    1    4    4    0    0  0.50816820253E+02 -0.70216134454E+02  0.22074004628E+02  0.89442251977E+02  0.00000000000E+00 0. -1.
         11    1    4    4    0    0 -0.66529586927E+01 -0.68913496210E+02 -0.62759234271E+02  0.93445456313E+02  0.00000000000E+00 0.  1.
        -11    1    3    3    0    0 -0.54911342495E+02  0.38692031594E+02  0.24875985218E+03  0.25766993015E+03  0.00000000000E+00 0.  1.
         11    1    3    3    0    0  0.48567352979E+01  0.68145965878E+02  0.83042067960E+02  0.10753346267E+03  0.00000000000E+00 0. -1.
         -1    1    1    2    0  502  0.58907456369E+01  0.32291633193E+02  0.71963972598E+02  0.79096547399E+02  0.00000000000E+00 0.  1.
<scales pt_clust_5="13000.00000" pt_clust_6="13000.00000" pt_clust_7="13000.00000" pt_clust_8="13000.00000" pt_clust_9="32.82456"></scales>
<clustering>
<clus scale="   32.825">  2  9  1 -1</clus>
<clus scale="   96.753">  7  8 -1 -1</clus>
<clus scale="  102.397">  5  6 -1 -1</clus>
<clus scale="  155.304">  1  7  2 -1</clus>
<clus scale="   32.825">  2  5  1 -1</clus>
</clustering>
</event>
<event>
 9    1  0.1671478E-005  0.1100883E+03  0.7546771E-02  0.1261276E+00
          1   -1    0    0  502    0 -0.00000000000E+00  0.00000000000E+00  0.81789768614E+02  0.81789768614E+02  0.00000000000E+00 0. -1.
         21   -1    0    0  501  502  0.00000000000E+00 -0.00000000000E+00 -0.40028009367E+03  0.40028009367E+03  0.00000000000E+00 0. -1.
         23    2    1    2    0    0  0.14137756673E+02  0.42482361849E+02 -0.35456290037E+02  0.10819468998E+03  0.91892955140E+02 0.  0.
         23    2    1    2    0    0 -0.29810932717E+02 -0.72472865295E+02 -0.35803349290E+02  0.12433942194E+03  0.89651570618E+02 0.  0.
        -13    1    4    4    0    0 -0.46567153542E+02 -0.57815751906E+02 -0.57003439167E+02  0.93597826013E+02  0.00000000000E+00 0.  1.
         13    1    4    4    0    0  0.16756220826E+02 -0.14657113389E+02  0.21200089878E+02  0.30741595926E+02  0.00000000000E+00 0. -1.
        -13    1    3    3    0    0 -0.13174349944E+02  0.62067670786E+02 -0.38875264488E+02  0.74412669904E+02  0.00000000000E+00 0.  1.
         13    1    3    3    0    0  0.27312106617E+02 -0.19585308937E+02  0.34189744514E+01  0.33782020074E+02  0.00000000000E+00 0. -1.
          1    1    1    2  501    0  0.15673176044E+02  0.29990503446E+02 -0.24723068573E+03  0.24953575036E+03  0.00000000000E+00 0. -1.
<scales pt_clust_5="13000.00000" pt_clust_6="13000.00000" pt_clust_7="13000.00000" pt_clust_8="13000.00000" pt_clust_9="33.83901"></scales>
<clustering>
<clus scale="   33.839">  2  9  1 -1</clus>
<clus scale="   89.652">  5  6 -1 -1</clus>
<clus scale="   91.893">  7  8 -1 -1</clus>
<clus scale="  108.224">  2  5  1 -1</clus>
<clus scale="   33.839">  2  5  1 -1</clus>
</clustering>
</event>
<event>
 9    1  0.1671478E-005  0.1053471E+03  0.7546771E-02  0.1272345E+00
         21   -1    0    0  501  502  0.00000000000E+00  0.00000000000E+00  0.33671339000E+03  0.33671339000E+03  0.00000000000E+00 0. -1.
          1   -1    0    0  502    0 -0.00000000000E+00 -0.00000000000E+00 -0.15818924638E+03  0.15818924638E+03  0.00000000000E+00 0. -1.
         23    2    1    2    0    0 -0.99750853444E+01  0.43492392750E+02 -0.78560778566E+02  0.13111892515E+03  0.95022555478E+02 0.  0.
         23    2    1    2    0    0 -0.31681127622E+02 -0.49189964199E+02  0.29751208247E+01  0.10621916873E+03  0.88601997929E+02 0.  0.
        -11    1    3    3    0    0  0.13317428894E+02  0.64495112956E+02 -0.27870215101E+02  0.71510295744E+02  0.00000000000E+00 0.  1.
         11    1    3    3    0    0 -0.23292514238E+02 -0.21002720206E+02 -0.50690563465E+02  0.59608629409E+02  0.00000000000E+00 0. -1.
        -13    1    4    4    0    0  0.21977903304E+02  0.81859196269E+01 -0.11847498783E+02  0.26275477944E+02  0.00000000000E+00 0.  1.
         13    1    4    4    0    0 -0.53659030926E+02 -0.57375883826E+02  0.14822619608E+02  0.79943690788E+02  0.00000000000E+00 0. -1.
          1    1    1    2  501    0  0.41656212966E+02  0.56975714490E+01  0.25410980137E+03  0.25756454250E+03  0.00000000000E+00 0. -1.
<scales pt_clust_5="13000.00000" pt_clust_6="13000.00000" pt_clust_7="13000.00000" pt_clust_8="13000.00000" pt_clust_9="42.04405"></scales>
<clustering>
<clus scale="   42.044">  1  9  2 -1</clus>
<clus scale="   88.602">  7  8 -1 -1</clus>
<clus scale="   95.023">  5  6 -1 -1</clus>
<clus scale="   99.594">  1  7  2 -1</clus>
<clus scale="   42.044">  1  5  2 -1</clus>
</clustering>
</event>
<event>
 9    1  0.1671478E-005  0.1032679E+03  0.7546771E-02  0.1276364E+00
         -4   -1    0    0    0  501 -0.00000000000E+00  0.00000000000E+00  0.13481232792E+03  0.13481232792E+03  0.00000000000E+00 0.  1.
         21   -1    0    0  501  502  0.00000000000E+00 -0.00000000000E+00 -0.16226175239E+03  0.16226175239E+03  0.00000000000E+00 0.  1.
         23    2    1    2    0    0  0.13782053836E+02 -0.39039255658E+02  0.28407942200E+02  0.10757958761E+03  0.95143827969E+02 0.  0.
         23    2    1    2    0    0 -0.60951479610E+02 -0.12320677214E+01 -0.32159606089E+01  0.10814431232E+03  0.89265049304E+02 0.  0.
        -11    1    4    4    0    0 -0.67834024523E+02 -0.30497393499E+02  0.10477745461E+02  0.75108781399E+02  0.00000000000E+00 0.  1.
         11    1    4    4    0    0  0.68825449131E+01  0.29265325778E+02 -0.13693706070E+02  0.33035530922E+02  0.00000000000E+00 0. -1.
        -13    1    3    3    0    0  0.25749742718E+02 -0.67590011577E+02  0.24554400950E+02  0.76383097090E+02  0.00000000000E+00 0.  1.
         13    1    3    3    0    0 -0.11967688882E+02  0.28550755920E+02  0.38535412502E+01  0.31196490523E+02  0.00000000000E+00 0. -1.
         -4    1    1    2    0  502  0.47169425774E+02  0.40271323379E+02 -0.52641406061E+02  0.81350180373E+02  0.00000000000E+00 0.  1.
<scales pt_clust_5="13000.00000" pt_clust_6="13000.00000" pt_clust_7="13000.00000" pt_clust_8="13000.00000" pt_clust_9="62.02205"></scales>
<clustering>
<clus scale="   62.022">  2  9  1 -1</clus>
<clus scale="   89.265">  5  6 -1 -1</clus>
<clus scale="   95.144">  7  8 -1 -1</clus>
<clus scale="   97.878">  2  5  1 -1</clus>
<clus scale="   62.022">  2  5  1 -1</clus>
</clustering>
</event>
<event>
 9    1  0.1671478E-005  0.9654743E+02  0.7546771E-02  0.1290042E+00
         -2   -1    0    0    0  501 -0.00000000000E+00  0.00000000000E+00  0.42190119925E+03  0.42190119925E+03  0.00000000000E+00 0.  1.
         21   -1    0    0  501  502  0.00000000000E+00 -0.00000000000E+00 -0.38236460518E+02  0.38236460518E+02  0.00000000000E+00 0. -1.
         23    2    1    2    0    0  0.41797780280E+01 -0.25307133576E+02  0.20080937824E+03  0.22174978844E+03  0.90502158690E+02 0.  0.
         23    2    1    2    0    0 -0.32595489989E+02 -0.11861313259E+02  0.93467647326E+02  0.13749629888E+03  0.94688301231E+02 0.  0.
        -13    1    3    3    0    0  0.89996438551E+01  0.30938107052E+02  0.40264655857E+02  0.51569395661E+02  0.00000000000E+00 0.  1.
         13    1    3    3    0    0 -0.48198658271E+01 -0.56245240628E+02  0.16054472239E+03  0.17018039278E+03  0.00000000000E+00 0. -1.
        -13    1    4    4    0    0  0.33763865165E+02 -0.30876748630E+01  0.31385898431E+02  0.46201806754E+02  0.00000000000E+00 0.  1.
         13    1    4    4    0    0 -0.66359355155E+02 -0.87736383963E+01  0.62081748894E+02  0.91294492129E+02  0.00000000000E+00 0. -1.
         -2    1    1    2    0  502  0.28415711961E+02  0.37168446836E+02  0.89387713161E+02  0.10089157245E+03  0.00000000000E+00 0.  1.
<scales pt_clust_5="13000.00000" pt_clust_6="13000.00000" pt_clust_7="13000.00000" pt_clust_8="13000.00000" pt_clust_9="46.78620"></scales>
<clustering>
<clus scale="   46.786">  2  9  1 -1</clus>
<clus scale="   90.502">  5  6 -1 -1</clus>
<clus scale="   92.446">  1  5  2 -1</clus>
<clus scale="   94.688">  7  8 -1 -1</clus>
<clus scale="   46.786">  2  5  1 -1</clus>
</clustering>
</event>
<event>
 9    1  0.1671478E-005  0.1044166E+03  0.7546771E-02  0.1271949E+00
         21   -1    0    0  501  502  0.00000000000E+00  0.00000000000E+00  0.38280526976E+03  0.38280526976E+03  0.00000000000E+00 0. -1.
         -3   -1    0    0    0  501 -0.00000000000E+00 -0.00000000000E+00 -0.50376205932E+02  0.50376205932E+02  0.00000000000E+00 0.  1.
         23    2    1    2    0    0  0.34847265435E+02  0.37610590927E+02  0.35582407964E+02  0.11055662842E+03  0.91256626454E+02 0.  0.
         23    2    1    2    0    0 -0.14161158931E+02 -0.37639453732E+02  0.20636561173E+03  0.22980924954E+03  0.92780701499E+02 0.  0.
        -11    1    3    3    0    0  0.45471126181E+02 -0.47157332026E+01  0.46878926922E+02  0.65478967961E+02  0.00000000000E+00 0.  1.
         11    1    3    3    0    0 -0.10623860746E+02  0.42326324130E+02 -0.11296518958E+02  0.45077660455E+02  0.00000000000E+00 0. -1.
        -13    1    4    4    0    0  0.31986084563E+00 -0.62737508616E+02  0.88809327936E+02  0.10873451166E+03  0.00000000000E+00 0.  1.
         13    1    4    4    0    0 -0.14481019777E+02  0.25098054884E+02  0.11755628379E+03  0.12107473788E+03  0.00000000000E+00 0. -1.
         -3    1    1    2    0  502 -0.20686106504E+02  0.28862805267E-01  0.90481044130E+02  0.92815597731E+02  0.00000000000E+00 0.  1.
<scales pt_clust_5="13000.00000" pt_clust_6="13000.00000" pt_clust_7="13000.00000" pt_clust_8="13000.00000" pt_clust_9="20.68613"></scales>
<clustering>
<clus scale="   20.686">  1  9  2 -1</clus>
<clus scale="   91.257">  5  6 -1 -1</clus>
<clus scale="   92.781">  7  8 -1 -1</clus>
<clus scale="  103.065">  2  5  1 -1</clus>
<clus scale="   20.686">  1  5  2 -1</clus>
</clustering>
</event>
<event>
 9    1  0.1671478E-005  0.1246346E+03  0.7546771E-02  0.1236786E+00
         21   -1    0    0  501  502  0.00000000000E+00  0.00000000000E+00  0.16643452591E+03  0.16643452591E+03  0.00000000000E+00 0.  1.
         -1   -1    0    0    0  501 -0.00000000000E+00 -0.00000000000E+00 -0.20096141592E+03  0.20096141592E+03  0.00000000000E+00 0.  1.
         23    2    1    2    0    0 -0.48546452606E+02  0.25186168705E+02 -0.33403929161E+02  0.11559453671E+03  0.96203811151E+02 0.  0.
         23    2    1    2    0    0  0.81241023953E+02 -0.65768680088E+02 -0.77289479440E+02  0.15951265293E+03  0.92439166799E+02 0.  0.
        -11    1    4    4    0    0  0.57079131716E+02 -0.67945617880E+02 -0.11609242074E+02  0.89495300257E+02  0.00000000000E+00 0.  1.
         11    1    4    4    0    0  0.24161892237E+02  0.21769377916E+01 -0.65680237366E+02  0.70017352671E+02  0.00000000000E+00 0. -1.
        -13    1    3    3    0    0 -0.28814990005E+02  0.62204335425E+02 -0.23729004397E+02  0.72544804393E+02  0.00000000000E+00 0. -1.
         13    1    3    3    0    0 -0.19731462601E+02 -0.37018166720E+02 -0.96749247640E+01  0.43049732321E+02  0.00000000000E+00 0.  1.
         -1    1    1    2    0  502 -0.32694571347E+02  0.40582511383E+02  0.76166518589E+02  0.92288752184E+02  0.00000000000E+00 0.  1.
<scales pt_clust_5="13000.00000" pt_clust_6="13000.00000" pt_clust_7="13000.00000" pt_clust_8="13000.00000" pt_clust_9="52.11406"></scales>
<clustering>
<clus scale="   52.114">  1  9  2 -1</clus>
<clus scale="   92.439">  5  6 -1 -1</clus>
<clus scale="   96.204">  7  8 -1 -1</clus>
<clus scale="  121.752">  1  5  2 -1</clus>
<clus scale="   52.114">  1  5  2 -1</clus>
</clustering>
</event>
<event>
 9    1  0.1671478E-005  0.1050626E+03  0.7546771E-02  0.1270441E+00
         -2   -1    0    0    0  501 -0.00000000000E+00  0.00000000000E+00  0.19831385102E+03  0.19831385102E+03  0.00000000000E+00 0.  1.
         21   -1    0    0  501  502  0.00000000000E+00 -0.00000000000E+00 -0.25372983598E+03  0.25372983598E+03  0.00000000000E+00 0.  1.
         23    2    1    2    0    0 -0.36060483018E+02 -0.39278858040E+02  0.15462065351E+03  0.18669953397E+03  0.90033229241E+02 0.  0.
         23    2    1    2    0    0 -0.80833935309E+01  0.61725041381E+02 -0.16451816207E+03  0.19808016061E+03  0.91072511717E+02 0.  0.
        -11    1    3    3    0    0 -0.58589223492E+02 -0.50572160201E+02  0.99221215383E+02  0.12583755433E+03  0.00000000000E+00 0.  1.
         11    1    3    3    0    0  0.22528740474E+02  0.11293302161E+02  0.55399438127E+02  0.60861979641E+02  0.00000000000E+00 0. -1.
        -13    1    4    4    0    0 -0.15365413134E+02 -0.21619906488E+02 -0.43801810638E+02  0.51206590323E+02  0.00000000000E+00 0. -1.
         13    1    4    4    0    0  0.72820196032E+01  0.83344947868E+02 -0.12071635143E+03  0.14687357028E+03  0.00000000000E+00 0.  1.
         -2    1    1    2    0  502  0.44143876548E+02 -0.22446183341E+02 -0.45518476393E+02  0.67263992421E+02  0.00000000000E+00 0.  1.
<scales pt_clust_5="13000.00000" pt_clust_6="13000.00000" pt_clust_7="13000.00000" pt_clust_8="13000.00000" pt_clust_9="49.52285"></scales>
<clustering>
<clus scale="   49.523">  2  9  1 -1</clus>
<clus scale="   90.033">  5  6 -1 -1</clus>
<clus scale="   91.073">  7  8 -1 -1</clus>
<clus scale="  104.163">  1  5  2 -1</clus>
<clus scale="   49.523">  2  5  1 -1</clus>
</clustering>
</event>
<event>
 9    1  0.1671478E-005  0.9360130E+02  0.7546771E-02  0.1294424E+00
         21   -1    0    0  501  502  0.00000000000E+00  0.00000000000E+00  0.82781502600E+02  0.82781502600E+02  0.00000000000E+00 0. -1.
          2   -1    0    0  502    0 -0.00000000000E+00 -0.00000000000E+00 -0.21146975811E+03  0.21146975811E+03  0.00000000000E+00 0. -1.
         23    2    1    2    0    0  0.75161644470E+01 -0.26080082882E+02 -0.14220201365E+03  0.17081154650E+03  0.90655988666E+02 0.  0.
         23    2    1    2    0    0 -0.16677351614E+02  0.16686745769E+01  0.24291236139E+02  0.95226273479E+02  0.90537619120E+02 0.  0.
        -11    1    3    3    0    0 -0.49274281170E+01  0.32896017318E+02 -0.38629377484E+02  0.50977017449E+02  0.00000000000E+00 0.  1.
         11    1    3    3    0    0  0.12443592564E+02 -0.58976100201E+02 -0.10357263617E+03  0.11983452905E+03  0.00000000000E+00 0. -1.
        -11    1    4    4    0    0  0.19770572242E+02  0.24565198255E+02 -0.16790796332E+02  0.35724716004E+02  0.00000000000E+00 0.  1.
         11    1    4    4    0    0 -0.36447923856E+02 -0.22896523679E+02  0.41082032471E+02  0.59501557475E+02  0.00000000000E+00 0. -1.
          2    1    1    2  501    0  0.91611871670E+01  0.24411408305E+02 -0.10777477998E+02  0.28213440729E+02  0.00000000000E+00 0. -1.
<scales pt_clust_5="13000.00000" pt_clust_6="13000.00000" pt_clust_7="13000.00000" pt_clust_8="13000.00000" pt_clust_9="26.07382"></scales>
<clustering>
<clus scale="   26.074">  1  9  2 -1</clus>
<clus scale="   90.538">  7  8 -1 -1</clus>
<clus scale="   90.656">  5  6 -1 -1</clus>
<clus scale="   93.487">  1  7  2 -1</clus>
<clus scale="   26.074">  1  5  2 -1</clus>
</clustering>
</event>
<event>
 9    1  0.1671478E-005  0.1156971E+03  0.7546771E-02  0.1256389E+00
         21   -1    0    0  501  502  0.00000000000E+00  0.00000000000E+00  0.48369575030E+03  0.48369575030E+03  0.00000000000E+00 0. -1.
         -1   -1    0    0    0  501 -0.00000000000E+00 -0.00000000000E+00 -0.69284077562E+02  0.69284077562E+02  0.00000000000E+00 0.  1.
         23    2    1    2    0    0 -0.27873390287E+02  0.17571532932E+02  0.44506689415E+02  0.11511604970E+03  0.10092162722E+03 0.  0.
         23    2    1    2    0    0  0.91236243063E+02 -0.43387981545E+02  0.11988619053E+03  0.17865201747E+03  0.85657899083E+02 0.  0.
        -11    1    4    4    0    0  0.53121942404E+02 -0.46957677048E+02  0.12112555351E+03  0.14035086003E+03  0.00000000000E+00 0. -1.
         11    1    4    4    0    0  0.38114300659E+02  0.35696955029E+01 -0.12393629770E+01  0.38301157441E+02  0.00000000000E+00 0.  1.
        -13    1    3    3    0    0 -0.25466603283E+02 -0.35594311564E+02  0.43759950580E+02  0.61890517636E+02  0.00000000000E+00 0. -1.
         13    1    3    3    0    0 -0.24067870031E+01  0.53165844496E+02  0.74673883427E+00  0.53225532064E+02  0.00000000000E+00 0.  1.
         -1    1    1    2    0  502 -0.63362852776E+02  0.25816448613E+02  0.25001879279E+03  0.25921176069E+03  0.00000000000E+00 0.  1.
<scales pt_clust_5="13000.00000" pt_clust_6="13000.00000" pt_clust_7="13000.00000" pt_clust_8="13000.00000" pt_clust_9="68.42032"></scales>
<clustering>
<clus scale="   68.420">  1  9  2 -1</clus>
<clus scale="   85.658">  5  6 -1 -1</clus>
<clus scale="  100.922">  7  8 -1 -1</clus>
<clus scale="  102.654">  1  5  2 -1</clus>
<clus scale="   68.420">  1  5  2 -1</clus>
</clustering>
</event>
<event>
 9    1  0.1671478E-005  0.1080538E+03  0.7546771E-02  0.1264356E+00
         21   -1    0    0  501  502  0.00000000000E+00  0.00000000000E+00  0.33991866706E+03  0.33991866706E+03  0.00000000000E+00 0.  1.
          2   -1    0    0  502    0 -0.00000000000E+00 -0.00000000000E+00 -0.12939534214E+03  0.12939534214E+03  0.00000000000E+00 0.  1.
         23    2    1    2    0    0  0.26478575680E+01  0.73215215367E+02 -0.21075320292E+02  0.11855208124E+03  0.90790681960E+02 0.  0.
         23    2    1    2    0    0  0.85497804226E+02 -0.11226292239E+02  0.39872805808E+02  0.13082766100E+03  0.89945161490E+02 0.  0.
        -11    1    4    4    0    0  0.93506591433E+02  0.16249461310E+02  0.37715424133E+02  0.10212727771E+03  0.00000000000E+00 0.  1.
         11    1    4    4    0    0 -0.80087872068E+01 -0.27475753549E+02  0.21573816754E+01  0.28700383296E+02  0.00000000000E+00 0. -1.
        -13    1    3    3    0    0  0.19264904137E+02  0.89868771721E+02 -0.23597502968E+02  0.94891384268E+02  0.00000000000E+00 0.  1.
         13    1    3    3    0    0 -0.16617046569E+02 -0.16653556353E+02  0.25221826765E+01  0.23660696975E+02  0.00000000000E+00 0. -1.
          2    1    1    2  501    0 -0.88145661794E+02 -0.61988923128E+02  0.19172583941E+03  0.21993426696E+03  0.00000000000E+00 0.  1.
<scales pt_clust_5="13000.00000" pt_clust_6="13000.00000" pt_clust_7="13000.00000" pt_clust_8="13000.00000" pt_clust_9="107.76031"></scales>
<clustering>
<clus scale="   89.945">  5  6 -1 -1</clus>
<clus scale="   90.791">  7  8 -1 -1</clus>
<clus scale="  107.760">  1  9  2 -1</clus>
<clus scale="  107.760">  1  5  2 -1</clus>
<clus scale="  107.760">  1  5  2 -1</clus>
</clustering>
</event>
<event>
 9    1  0.1671478E-005  0.1203167E+03  0.7546771E-02  0.1242875E+00
         21   -1    0    0  501  502  0.00000000000E+00  0.00000000000E+00  0.33773634358E+02  0.33773634358E+02  0.00000000000E+00 0. -1.
          1   -1    0    0  502    0 -0.00000000000E+00 -0.00000000000E+00 -0.88423320287E+03  0.88423320287E+03  0.00000000000E+00 0. -1.
         23    2    1    2    0    0 -0.42196971797E+01 -0.83734761697E+02 -0.60693308138E+03  0.61963989212E+03  0.92501429591E+02 0.  0.
         23    2    1    2    0    0 -0.20749307115E+02  0.63094905963E+02 -0.24057393265E+03  0.26583738320E+03  0.91554335409E+02 0.  0.
        -11    1    4    4    0    0  0.26626984229E+02  0.43285702719E+02 -0.17680163927E+03  0.18396050663E+03  0.00000000000E+00 0.  1.
         11    1    4    4    0    0 -0.47376291345E+02  0.19809203244E+02 -0.63772293371E+02  0.81876876568E+02  0.00000000000E+00 0. -1.
        -13    1    3    3    0    0  0.41815824183E+02 -0.20652890060E+02 -0.21439208976E+03  0.21940618308E+03  0.00000000000E+00 0.  1.
         13    1    3    3    0    0 -0.46035521363E+02 -0.63081871637E+02 -0.39254099161E+03  0.40023370904E+03  0.00000000000E+00 0. -1.
          1    1    1    2  501    0  0.24969004295E+02  0.20639855734E+02 -0.29525544922E+01  0.32529561913E+02  0.00000000000E+00 0. -1.
<scales pt_clust_5="13000.00000" pt_clust_6="13000.00000" pt_clust_7="13000.00000" pt_clust_8="13000.00000" pt_clust_9="32.39529"></scales>
<clustering>
<clus scale="   32.395">  1  9  2 -1</clus>
<clus scale="   91.554">  5  6 -1 -1</clus>
<clus scale="   92.501">  7  8 -1 -1</clus>
<clus scale="  119.590">  1  5  2 -1</clus>
<clus scale="   32.395">  1  5  2 -1</clus>
</clustering>
</event>
<event>
 9    1  0.1671478E-005  0.1189678E+03  0.7546771E-02  0.1244997E+00
          1   -1    0    0  502    0 -0.00000000000E+00  0.00000000000E+00  0.30702501223E+03  0.30702501223E+03  0.00000000000E+00 0. -1.
         21   -1    0    0  501  502  0.00000000000E+00 -0.00000000000E+00 -0.74786944092E+02  0.74786944092E+02  0.00000000000E+00 0.  1.
         23    2    1    2    0    0 -0.17832937735E+02  0.96692623971E+02  0.15616052923E+03  0.20508935541E+03  0.89487740038E+02 0.  0.
         23    2    1    2    0    0  0.83032756537E+01 -0.56958824767E+02  0.83915822203E+02  0.13511697696E+03  0.88890270235E+02 0.  0.
        -11    1    3    3    0    0  0.11372209039E+02  0.99816020721E+02  0.13750300924E+03  0.17029281453E+03  0.00000000000E+00 0. -1.
         11    1    3    3    0    0 -0.29205146774E+02 -0.31233967503E+01  0.18657519990E+02  0.34796540885E+02  0.00000000000E+00 0.  1.
        -13    1    4    4    0    0 -0.30551033647E+02 -0.41411102424E+02  0.13497770116E+02  0.53201831350E+02  0.00000000000E+00 0.  1.
         13    1    4    4    0    0  0.38854309301E+02 -0.15547722343E+02  0.70418052087E+02  0.81915145614E+02  0.00000000000E+00 0. -1.
          1    1    1    2  501    0  0.95296620818E+01 -0.39733799204E+02 -0.78382832944E+01  0.41605623942E+02  0.00000000000E+00 0. -1.
<scales pt_clust_5="13000.00000" pt_clust_6="13000.00000" pt_clust_7="13000.00000" pt_clust_8="13000.00000" pt_clust_9="40.86061"></scales>
<clustering>
<clus scale="   40.861">  2  9  1 -1</clus>
<clus scale="   88.890">  7  8 -1 -1</clus>
<clus scale="   89.488">  5  6 -1 -1</clus>
<clus scale="  118.519">  2  7  1 -1</clus>
<clus scale="   40.861">  2  5  1 -1</clus>
</clustering>
</event>
<event>
 9    1  0.1671478E-005  0.9002211E+02  0.7546771E-02  0.1303911E+00
         -2   -1    0    0    0  501 -0.00000000000E+00  0.00000000000E+00  0.91456489312E+03  0.91456489312E+03  0.00000000000E+00 0.  1.
         21   -1    0    0  501  502  0.00000000000E+00 -0.00000000000E+00 -0.12512101089E+02  0.12512101089E+02  0.00000000000E+00 0. -1.
         23    2    1    2    0    0 -0.45450676524E+01 -0.11927064023E+02  0.43652879875E+03  0.44585192630E+03  0.89797748060E+02 0.  0.
         23    2    1    2    0    0 -0.16974977493E+02 -0.73813639416E+01  0.39297515158E+03  0.40312729479E+03  0.87974494306E+02 0.  0.
        -11    1    3    3    0    0 -0.21564279675E+02  0.33489383817E+02  0.14757135191E+03  0.15285241539E+03  0.00000000000E+00 0.  1.
         11    1    3    3    0    0  0.17019212023E+02 -0.45416447840E+02  0.28895744683E+03  0.29299951091E+03  0.00000000000E+00 0. -1.
        -13    1    4    4    0    0  0.29370981512E+02 -0.21818162796E+02  0.10753634040E+03  0.11359027815E+03  0.00000000000E+00 0. -1.
         13    1    4    4    0    0 -0.46345959005E+02  0.14436798854E+02  0.28543881118E+03  0.28953701664E+03  0.00000000000E+00 0.  1.
         -2    1    1    2    0  502  0.21520045146E+02  0.19308427965E+02  0.72548841702E+02  0.78097773117E+02  0.00000000000E+00 0.  1.
<scales pt_clust_5="13000.00000" pt_clust_6="13000.00000" pt_clust_7="13000.00000" pt_clust_8="13000.00000" pt_clust_9="28.91241"></scales>
<clustering>
<clus scale="   28.912">  2  9  1 -1</clus>
<clus scale="   87.974">  7  8 -1 -1</clus>
<clus scale="   88.203">  2  7  1 -1</clus>
<clus scale="   89.798">  5  6 -1 -1</clus>
<clus scale="   28.912">  2  5  1 -1</clus>
</clustering>
</event>
<event>
 9    1  0.1671478E-005  0.2153328E+03  0.7546771E-02  0.1137535E+00
         21   -1    0    0  501  502  0.00000000000E+00  0.00000000000E+00  0.95794746842E+02  0.95794746842E+02  0.00000000000E+00 0.  1.
         -1   -1    0    0    0  501 -0.00000000000E+00 -0.00000000000E+00 -0.12773233516E+04  0.12773233516E+04  0.00000000000E+00 0.  1.
         23    2    1    2    0    0  0.19518140562E+03 -0.47807576095E+02 -0.98372170141E+03  0.10081187967E+04  0.90629890653E+02 0.  0.
         23    2    1    2    0    0 -0.17410367780E+03  0.28786938227E+02 -0.24144800260E+03  0.31293587096E+03  0.92146312665E+02 0.  0.
        -13    1    4    4    0    0 -0.14050383156E+03  0.38593480133E+02 -0.12710564642E+03  0.19335622241E+03  0.00000000000E+00 0. -1.
         13    1    4    4    0    0 -0.33599846243E+02 -0.98065419064E+01 -0.11434235618E+03  0.11957964855E+03  0.00000000000E+00 0.  1.
        -13    1    3    3    0    0  0.13037208632E+03  0.12399067562E+02 -0.63384749783E+03  0.64723509506E+03  0.00000000000E+00 0.  1.
         13    1    3    3    0    0  0.64809319299E+02 -0.60206643656E+02 -0.34987420358E+03  0.36088370168E+03  0.00000000000E+00 0. -1.
         -1    1    1    2    0  502 -0.21077727811E+02  0.19020637868E+02  0.43641099263E+02  0.52063430730E+02  0.00000000000E+00 0.  1.
<scales pt_clust_5="13000.00000" pt_clust_6="13000.00000" pt_clust_7="13000.00000" pt_clust_8="13000.00000" pt_clust_9="28.39111"></scales>
<clustering>
<clus scale="   28.391">  1  9  2 -1</clus>
<clus scale="   90.630">  7  8 -1 -1</clus>
<clus scale="   92.146">  5  6 -1 -1</clus>
<clus scale="  214.688">  2  7  1 -1</clus>
<clus scale="   28.391">  1  5  2 -1</clus>
</clustering>
</event>
<event>
 9    1  0.1671478E-005  0.1207198E+03  0.7546771E-02  0.1242939E+00
         21   -1    0    0  501  502  0.00000000000E+00  0.00000000000E+00  0.44801841085E+02  0.44801841085E+02  0.00000000000E+00 0.  1.
          3   -1    0    0  502    0 -0.00000000000E+00 -0.00000000000E+00 -0.45641468830E+03  0.45641468830E+03  0.00000000000E+00 0. -1.
         23    2    1    2    0    0  0.65381745411E+02 -0.54423376784E+02 -0.28330531269E+03  0.30916498210E+03  0.89913343758E+02 0.  0.
         23    2    1    2    0    0 -0.38825384946E+02  0.45066423536E+02 -0.81097530551E+02  0.13708267127E+03  0.93147497305E+02 0.  0.
        -13    1    3    3    0    0  0.57545255544E+02  0.28732683174E+01 -0.19717926309E+03  0.20542486193E+03  0.00000000000E+00 0. -1.
         13    1    3    3    0    0  0.78364898672E+01 -0.57296645101E+02 -0.86126049595E+02  0.10374012017E+03  0.00000000000E+00 0.  1.
        -13    1    4    4    0    0 -0.59252744612E+02  0.57138349629E+02 -0.77549387919E+02  0.11309105318E+03  0.00000000000E+00 0.  1.
         13    1    4    4    0    0  0.20427359666E+02 -0.12071926092E+02 -0.35481426320E+01  0.23991618091E+02  0.00000000000E+00 0. -1.
          3    1    1    2  501    0 -0.26556360465E+02  0.93569532472E+01 -0.47210003982E+02  0.54968876023E+02  0.00000000000E+00 0. -1.
<scales pt_clust_5="13000.00000" pt_clust_6="13000.00000" pt_clust_7="13000.00000" pt_clust_8="13000.00000" pt_clust_9="28.15659"></scales>
<clustering>
<clus scale="   28.157">  1  9  2 -1</clus>
<clus scale="   89.913">  5  6 -1 -1</clus>
<clus scale="   93.147">  7  8 -1 -1</clus>
<clus scale="  118.242">  2  5  1 -1</clus>
<clus scale="   28.157">  1  5  2 -1</clus>
</clustering>
</event>
<event>
 9    1  0.1671478E-005  0.9413336E+02  0.7546771E-02  0.1294446E+00
          1   -1    0    0  502    0 -0.00000000000E+00  0.00000000000E+00  0.17489683807E+03  0.17489683807E+03  0.00000000000E+00 0. -1.
         21   -1    0    0  501  502  0.00000000000E+00 -0.00000000000E+00 -0.85426704684E+02  0.85426704684E+02  0.00000000000E+00 0.  1.
         23    2    1    2    0    0 -0.29569755620E+02 -0.27551418909E+02  0.47872386316E+02  0.11108509215E+03  0.91731571420E+02 0.  0.
         23    2    1    2    0    0 -0.17198351047E+02  0.93857012654E+01  0.16018209040E+02  0.92921829040E+02  0.89409220018E+02 0.  0.
        -11    1    3    3    0    0 -0.22437266333E+02  0.68050578565E+01 -0.22470878057E+02  0.32475838613E+02  0.00000000000E+00 0.  1.
         11    1    3    3    0    0 -0.71324892870E+01 -0.34356476765E+02  0.70343264373E+02  0.78609253538E+02  0.00000000000E+00 0. -1.
        -13    1    4    4    0    0 -0.21306513559E+02  0.45607109057E+02  0.23745641774E+02  0.55658165796E+02  0.00000000000E+00 0.  1.
         13    1    4    4    0    0  0.41081625117E+01 -0.36221407792E+02 -0.77274327338E+01  0.37263663243E+02  0.00000000000E+00 0. -1.
          1    1    1    2  501    0  0.46768106667E+02  0.18165717644E+02  0.25579538032E+02  0.56316621567E+02  0.00000000000E+00 0. -1.
<scales pt_clust_5="13000.00000" pt_clust_6="13000.00000" pt_clust_7="13000.00000" pt_clust_8="13000.00000" pt_clust_9="50.17222"></scales>
<clustering>
<clus scale="   50.172">  2  9  1 -1</clus>
<clus scale="   89.409">  7  8 -1 -1</clus>
<clus scale="   91.732">  5  6 -1 -1</clus>
<clus scale="   91.872">  2  7  1 -1</clus>
<clus scale="   50.172">  2  5  1 -1</clus>
</clustering>
</event>
<event>
 9    1  0.1671478E-005  0.9565747E+02  0.7546771E-02  0.1290146E+00
         21   -1    0    0  501  502  0.00000000000E+00  0.00000000000E+00  0.58605956914E+02  0.58605956914E+02  0.00000000000E+00 0. -1.
          1   -1    0    0  502    0 -0.00000000000E+00 -0.00000000000E+00 -0.50661826056E+03  0.50661826056E+03  0.00000000000E+00 0. -1.
         23    2    1    2    0    0  0.13607467444E+02  0.48772276331E+02 -0.21585134509E+03  0.23906775401E+03  0.89429803320E+02 0.  0.
         23    2    1    2    0    0  0.54610792398E+02  0.37897529130E+00 -0.21620707254E+03  0.24057549017E+03  0.90269518569E+02 0.  0.
        -13    1    4    4    0    0 -0.15428397126E+02  0.17089598248E+02 -0.16616402320E+02  0.28393566741E+02  0.00000000000E+00 0.  1.
         13    1    4    4    0    0  0.70039189525E+02 -0.16710622957E+02 -0.19959067022E+03  0.21218192343E+03  0.00000000000E+00 0. -1.
        -13    1    3    3    0    0 -0.33895003856E+02  0.41122243915E+02 -0.13267704690E+03  0.14297940063E+03  0.00000000000E+00 0.  1.
         13    1    3    3    0    0  0.47502471300E+02  0.76500324153E+01 -0.83174298189E+02  0.96088353378E+02  0.00000000000E+00 0. -1.
          1    1    1    2  501    0 -0.68218259843E+02 -0.49151251622E+02 -0.15953886017E+02  0.85580973300E+02  0.00000000000E+00 0. -1.
<scales pt_clust_5="13000.00000" pt_clust_6="13000.00000" pt_clust_7="13000.00000" pt_clust_8="13000.00000" pt_clust_9="84.08077"></scales>
<clustering>
<clus scale="   84.081">  1  9  2 -1</clus>
<clus scale="   89.430">  7  8 -1 -1</clus>
<clus scale="   90.270">  5  6 -1 -1</clus>
<clus scale="   94.865">  2  7  1 -1</clus>
<clus scale="   84.081">  1  5  2 -1</clus>
</clustering>
</event>
<event>
 9    1  0.1671478E-005  0.9875524E+02  0.7546771E-02  0.1283291E+00
          1   -1    0    0  502    0 -0.00000000000E+00  0.00000000000E+00  0.33535746933E+03  0.33535746933E+03  0.00000000000E+00 0. -1.
         21   -1    0    0  501  502  0.00000000000E+00 -0.00000000000E+00 -0.64252518464E+02  0.64252518464E+02  0.00000000000E+00 0.  1.
         23    2    1    2    0    0 -0.31962884268E+02 -0.25394615160E+02  0.25012283579E+03  0.26972674883E+03  0.92328617456E+02 0.  0.
         23    2    1    2    0    0  0.13638040406E+02  0.93962557149E+01  0.37613604358E+02  0.10041539473E+03  0.91619771328E+02 0.  0.
        -11    1    3    3    0    0  0.11837687135E+02 -0.17500192674E+02  0.65482024183E+01  0.22119370137E+02  0.00000000000E+00 0.  1.
         11    1    3    3    0    0 -0.43800571403E+02 -0.78944224859E+01  0.24357463337E+03  0.24760737870E+03  0.00000000000E+00 0. -1.
        -13    1    4    4    0    0  0.75855085490E+01  0.42194004364E+02 -0.83004549431E+01  0.43666594743E+02  0.00000000000E+00 0.  1.
         13    1    4    4    0    0  0.60525318565E+01 -0.32797748649E+02  0.45914059302E+02  0.56748799986E+02  0.00000000000E+00 0. -1.
          1    1    1    2  501    0  0.18324843863E+02  0.15998359445E+02 -0.16631489288E+02  0.29467844228E+02  0.00000000000E+00 0. -1.
<scales pt_clust_5="13000.00000" pt_clust_6="13000.00000" pt_clust_7="13000.00000" pt_clust_8="13000.00000" pt_clust_9="24.32586"></scales>
<clustering>
<clus scale="   24.326">  2  9  1 -1</clus>
<clus scale="   91.620">  7  8 -1 -1</clus>
<clus scale="   92.329">  5  6 -1 -1</clus>
<clus scale="   98.093">  2  7  1 -1</clus>
<clus scale="   24.326">  2  5  1 -1</clus>
</clustering>
</event>
<event>
 9    1  0.1671478E-005  0.1071291E+03  0.7546771E-02  0.1267478E+00
          4   -1    0    0  502    0 -0.00000000000E+00  0.00000000000E+00  0.15508498845E+03  0.15508498845E+03  0.00000000000E+00 0. -1.
         21   -1    0    0  501  502  0.00000000000E+00 -0.00000000000E+00 -0.10493438543E+03  0.10493438543E+03  0.00000000000E+00 0. -1.
         23    2    1    2    0    0 -0.45625905995E+02 -0.46906758165E+02  0.64204785331E+02  0.12986853967E+03  0.91987041897E+02 0.  0.
         23    2    1    2    0    0  0.14803851887E+02  0.36505163331E+02 -0.12616218060E+02  0.97589201329E+02  0.88389491895E+02 0.  0.
        -11    1    4    4    0    0  0.37143489442E+02 -0.11115710601E+02 -0.21362041590E+02  0.44266631349E+02  0.00000000000E+00 0.  1.
         11    1    4    4    0    0 -0.22339637555E+02  0.47620873932E+02  0.87458235306E+01  0.53322569981E+02  0.00000000000E+00 0. -1.
        -13    1    3    3    0    0 -0.62515053236E+02 -0.23603916858E+02  0.87534539953E+01  0.67393617865E+02  0.00000000000E+00 0. -1.
         13    1    3    3    0    0  0.16889147241E+02 -0.23302841307E+02  0.55451331336E+02  0.62474921804E+02  0.00000000000E+00 0.  1.
          4    1    1    2  501    0  0.30822054108E+02  0.10401594834E+02 -0.14379642458E+01  0.32561632878E+02  0.00000000000E+00 0. -1.
<scales pt_clust_5="13000.00000" pt_clust_6="13000.00000" pt_clust_7="13000.00000" pt_clust_8="13000.00000" pt_clust_9="32.52987"></scales>
<clustering>
<clus scale="   32.530">  2  9  1 -1</clus>
<clus scale="   88.389">  5  6 -1 -1</clus>
<clus scale="   91.987">  7  8 -1 -1</clus>
<clus scale="  104.056">  2  5  1 -1</clus>
<clus scale="   32.530">  2  5  1 -1</clus>
</clustering>
</event>
<event>
 9    1  0.1671478E-005  0.1484402E+03  0.7546771E-02  0.1202489E+00
         21   -1    0    0  501  502  0.00000000000E+00  0.00000000000E+00  0.80938303507E+02  0.80938303507E+02  0.00000000000E+00 0. -1.
          1   -1    0    0  502    0 -0.00000000000E+00 -0.00000000000E+00 -0.46160163630E+03  0.46160163630E+03  0.00000000000E+00 0. -1.
         23    2    1    2    0    0 -0.75519149668E+02  0.97573770731E+02 -0.25037022355E+03  0.29370702560E+03  0.91404514911E+02 0.  0.
         23    2    1    2    0    0  0.87312574356E+02 -0.67947770956E+02 -0.15308410829E+03  0.20963834358E+03  0.90956614205E+02 0.  0.
        -11    1    4    4    0    0  0.10619395667E+03 -0.59550472950E+02 -0.13814248118E+03  0.18413788412E+03  0.00000000000E+00 0.  1.
         11    1    4    4    0    0 -0.18881382312E+02 -0.83972980056E+01 -0.14941627115E+02  0.25500459459E+02  0.00000000000E+00 0. -1.
        -13    1    3    3    0    0  0.78802028521E+01  0.20358486731E+02 -0.37401274976E+01  0.22148456665E+02  0.00000000000E+00 0.  1.
         13    1    3    3    0    0 -0.83399352520E+02  0.77215284000E+02 -0.24663009605E+03  0.27155856894E+03  0.00000000000E+00 0. -1.
          1    1    1    2  501    0 -0.11793424688E+02 -0.29625999775E+02  0.22790999054E+02  0.39194570624E+02  0.00000000000E+00 0. -1.
<scales pt_clust_5="13000.00000" pt_clust_6="13000.00000" pt_clust_7="13000.00000" pt_clust_8="13000.00000" pt_clust_9="31.88706"></scales>
<clustering>
<clus scale="   31.887">  1  9  2 -1</clus>
<clus scale="   90.957">  5  6 -1 -1</clus>
<clus scale="   91.405">  7  8 -1 -1</clus>
<clus scale="  148.165">  1  5  2 -1</clus>
<clus scale="   31.887">  1  5  2 -1</clus>
</clustering>
</event>
<event>
 9    1  0.1671478E-005  0.1091383E+03  0.7546771E-02  0.1262314E+00
         -1   -1    0    0    0  501 -0.00000000000E+00  0.00000000000E+00  0.45792688854E+02  0.45792688854E+02  0.00000000000E+00 0.  1.
         21   -1    0    0  501  502  0.00000000000E+00 -0.00000000000E+00 -0.84507409407E+03  0.84507409407E+03  0.00000000000E+00 0.  1.
         23    2    1    2    0    0  0.47133158803E+02  0.18206897680E+02 -0.74232167693E+02  0.12830929162E+03  0.91650607277E+02 0.  0.
         23    2    1    2    0    0 -0.44165003389E+02 -0.96583232773E+02 -0.31006589324E+03  0.34022724625E+03  0.91295413718E+02 0.  0.
        -11    1    4    4    0    0 -0.27929021305E+02  0.32401946061E+01 -0.13632608763E+03  0.13919529899E+03  0.00000000000E+00 0. -1.
         11    1    4    4    0    0 -0.16235982084E+02 -0.99823427379E+02 -0.17373980561E+03  0.20103194726E+03  0.00000000000E+00 0.  1.
        -11    1    3    3    0    0 -0.26558193131E+02  0.57610174199E+01 -0.33694722559E+02  0.43288119299E+02  0.00000000000E+00 0. -1.
         11    1    3    3    0    0  0.73691351933E+02  0.12445880261E+02 -0.40537445134E+02  0.85021172323E+02  0.00000000000E+00 0.  1.
         -1    1    1    2    0  502 -0.29681554140E+01  0.78376335092E+02 -0.41498334429E+03  0.42233024505E+03  0.00000000000E+00 0.  1.
<scales pt_clust_5="13000.00000" pt_clust_6="13000.00000" pt_clust_7="13000.00000" pt_clust_8="13000.00000" pt_clust_9="78.43252"></scales>
<clustering>
<clus scale="   78.433">  2  9  1 -1</clus>
<clus scale="   91.295">  5  6 -1 -1</clus>
<clus scale="   91.651">  7  8 -1 -1</clus>
<clus scale="  108.840">  2  5  1 -1</clus>
<clus scale="   78.433">  2  5  1 -1</clus>
</clustering>
</event>
<event>
 9    1  0.1671478E-005  0.9924247E+02  0.7546771E-02  0.1283162E+00
         21   -1    0    0  501  502  0.00000000000E+00  0.00000000000E+00  0.11011349335E+03  0.11011349335E+03  0.00000000000E+00 0. -1.
         -1   -1    0    0    0  501 -0.00000000000E+00 -0.00000000000E+00 -0.35187552335E+03  0.35187552335E+03  0.00000000000E+00 0.  1.
         23    2    1    2    0    0 -0.16423978841E+02 -0.34797631044E+02 -0.30763119880E+03  0.32349464786E+03  0.92364552237E+02 0.  0.
         23    2    1    2    0    0  0.13909340365E+02  0.14390911552E+02  0.29382550866E+02  0.96613216819E+02  0.89834354698E+02 0.  0.
        -11    1    4    4    0    0 -0.34410086146E+02 -0.83696216648E+01 -0.48726475946E+00  0.35416691295E+02  0.00000000000E+00 0.  1.
         11    1    4    4    0    0  0.48319426510E+02  0.22760533217E+02  0.29869815625E+02  0.61196525523E+02  0.00000000000E+00 0. -1.
        -13    1    3    3    0    0  0.34793713280E+02 -0.84162346431E+01 -0.17909255429E+03  0.18263509654E+03  0.00000000000E+00 0. -1.
         13    1    3    3    0    0 -0.51217692122E+02 -0.26381396401E+02 -0.12853864451E+03  0.14085955131E+03  0.00000000000E+00 0.  1.
         -1    1    1    2    0  502  0.25146384767E+01  0.20406719491E+02  0.36486617926E+02  0.41881152023E+02  0.00000000000E+00 0.  1.
<scales pt_clust_5="13000.00000" pt_clust_6="13000.00000" pt_clust_7="13000.00000" pt_clust_8="13000.00000" pt_clust_9="20.56107"></scales>
<clustering>
<clus scale="   20.561">  1  9  2 -1</clus>
<clus scale="   89.834">  5  6 -1 -1</clus>
<clus scale="   92.365">  7  8 -1 -1</clus>
<clus scale="   96.892">  1  5  2 -1</clus>
<clus scale="   20.561">  1  5  2 -1</clus>
</clustering>
</event>
<event>
 9    1  0.1671478E-005  0.1218848E+03  0.7546771E-02  0.1240409E+00
         -3   -1    0    0    0  501 -0.00000000000E+00  0.00000000000E+00  0.45273563580E+02  0.45273563580E+02  0.00000000000E+00 0.  1.
         21   -1    0    0  501  502  0.00000000000E+00 -0.00000000000E+00 -0.45335387991E+03  0.45335387991E+03  0.00000000000E+00 0. -1.
         23    2    1    2    0    0 -0.16797324171E+02  0.88631714372E+02 -0.13518856647E+03  0.18766326751E+03  0.93828687399E+02 0.  0.
         23    2    1    2    0    0  0.21421519381E+02 -0.60337654630E+02 -0.16799391367E+03  0.20221909316E+03  0.92580195237E+02 0.  0.
        -11    1    4    4    0    0  0.17268382588E+02 -0.32211311729E+02 -0.16983998367E+03  0.17372790707E+03  0.00000000000E+00 0. -1.
         11    1    4    4    0    0  0.41531367928E+01 -0.28126342901E+02  0.18460700090E+01  0.28491186088E+02  0.00000000000E+00 0.  1.
        -13    1    3    3    0    0 -0.53896248667E+02  0.36958147959E+02 -0.55793652278E+02  0.85928120865E+02  0.00000000000E+00 0.  1.
         13    1    3    3    0    0  0.37098924496E+02  0.51673566413E+02 -0.79394914188E+02  0.10173514665E+03  0.00000000000E+00 0. -1.
         -3    1    1    2    0  502 -0.46241952100E+01 -0.28294059742E+02 -0.10489783620E+03  0.10874508282E+03  0.00000000000E+00 0.  1.
<scales pt_clust_5="13000.00000" pt_clust_6="13000.00000" pt_clust_7="13000.00000" pt_clust_8="13000.00000" pt_clust_9="28.66944"></scales>
<clustering>
<clus scale="   28.669">  2  9  1 -1</clus>
<clus scale="   92.580">  5  6 -1 -1</clus>
<clus scale="   93.829">  7  8 -1 -1</clus>
<clus scale="  120.926">  2  5  1 -1</clus>
<clus scale="   28.669">  2  5  1 -1</clus>
</clustering>
</event>
<event>
 9    1  0.1671478E-005  0.9376975E+02  0.7546771E-02  0.1310687E+00
          1   -1    0    0  502    0 -0.00000000000E+00  0.00000000000E+00  0.52605796796E+03  0.52605796796E+03  0.00000000000E+00 0. -1.
         21   -1    0    0  501  502  0.00000000000E+00 -0.00000000000E+00 -0.22305050932E+02  0.22305050932E+02  0.00000000000E+00 0.  1.
         23    2    1    2    0    0 -0.92786036360E+01  0.78914342921E+01  0.30642397757E+03  0.31969189450E+03  0.90326552917E+02 0.  0.
         23    2    1    2    0    0  0.41854691624E+02 -0.10163631985E+02  0.16731049675E+03  0.18431493774E+03  0.64218995057E+02 0.  0.
        -11    1    4    4    0    0 -0.60683738742E+01 -0.24854898865E+02  0.39888865722E+02  0.47388951958E+02  0.00000000000E+00 0. -1.
         11    1    4    4    0    0  0.47923065499E+02  0.14691266880E+02  0.12742163103E+03  0.13692598578E+03  0.00000000000E+00 0.  1.
        -11    1    3    3    0    0  0.35607934395E+02 -0.16183292296E+02  0.15808323138E+03  0.16285002912E+03  0.00000000000E+00 0. -1.
         11    1    3    3    0    0 -0.44886538031E+02  0.24074726588E+02  0.14834074619E+03  0.15684186538E+03  0.00000000000E+00 0.  1.
          1    1    1    2  501    0 -0.32576087988E+02  0.22721976931E+01  0.30018442711E+02  0.44356186646E+02  0.00000000000E+00 0. -1.
<scales pt_clust_5="13000.00000" pt_clust_6="13000.00000" pt_clust_7="13000.00000" pt_clust_8="13000.00000" pt_clust_9="32.65524"></scales>
<clustering>
<clus scale="   32.655">  2  9  1 -1</clus>
<clus scale="   64.219">  5  6 -1 -1</clus>
<clus scale="   68.978">  2  5  1 -1</clus>
<clus scale="   90.327">  7  8 -1 -1</clus>
<clus scale="   32.655">  2  5  1 -1</clus>
</clustering>
</event>
<event>
 9    1  0.1671478E-005  0.1001554E+03  0.7546771E-02  0.1285419E+00
         21   -1    0    0  501  502  0.00000000000E+00  0.00000000000E+00  0.10216644360E+03  0.10216644360E+03  0.00000000000E+00 0. -1.
          1   -1    0    0  502    0 -0.00000000000E+00 -0.00000000000E+00 -0.61958570536E+03  0.61958570536E+03  0.00000000000E+00 0. -1.
         23    2    1    2    0    0  0.24112977242E+02  0.21239860152E+02 -0.51279632180E+03  0.52244881553E+03  0.94657962509E+02 0.  0.
         23    2    1    2    0    0  0.64704423253E+01 -0.54490693275E+02 -0.68096263727E+02  0.12139424356E+03  0.84192392520E+02 0.  0.
        -11    1    3    3    0    0  0.54974465401E+02 -0.99947385056E+01 -0.27154474566E+03  0.27723390042E+03  0.00000000000E+00 0. -1.
         11    1    3    3    0    0 -0.30861488159E+02  0.31234598657E+02 -0.24125157614E+03  0.24521491511E+03  0.00000000000E+00 0.  1.
        -13    1    4    4    0    0 -0.31969921248E+02 -0.40609889429E+02 -0.13910047424E+02  0.53523157637E+02  0.00000000000E+00 0.  1.
         13    1    4    4    0    0  0.38440363574E+02 -0.13880803846E+02 -0.54186216303E+02  0.67871085923E+02  0.00000000000E+00 0. -1.
          1    1    1    2  501    0 -0.30583419567E+02  0.33250833124E+02  0.63473323763E+02  0.77909089876E+02  0.00000000000E+00 0. -1.
<scales pt_clust_5="13000.00000" pt_clust_6="13000.00000" pt_clust_7="13000.00000" pt_clust_8="13000.00000" pt_clust_9="45.17702"></scales>
<clustering>
<clus scale="   45.177">  1  9  2 -1</clus>
<clus scale="   84.192">  7  8 -1 -1</clus>
<clus scale="   90.329">  1  7  2 -1</clus>
<clus scale="   94.658">  5  6 -1 -1</clus>
<clus scale="   45.177">  1  5  2 -1</clus>
</clustering>
</event>
<event>
 9    1  0.1671478E-005  0.1025913E+03  0.7546771E-02  0.1275571E+00
          3   -1    0    0  502    0 -0.00000000000E+00  0.00000000000E+00  0.33790667942E+03  0.33790667942E+03  0.00000000000E+00 0. -1.
         21   -1    0    0  501  502  0.00000000000E+00 -0.00000000000E+00 -0.75106185376E+02  0.75106185376E+02  0.00000000000E+00 0.  1.
         23    2    1    2    0    0  0.23378399095E+01  0.63193102646E+02  0.20151904479E+03  0.23050492659E+03  0.92324222469E+02 0.  0.
         23    2    1    2    0    0 -0.36239940706E+02 -0.13500729310E+01  0.53440551923E+02  0.11154743909E+03  0.90949340731E+02 0.  0.
        -11    1    4    4    0    0 -0.26978541036E+02  0.43801199378E+02  0.23282848254E+02  0.56466607532E+02  0.00000000000E+00 0.  1.
         11    1    4    4    0    0 -0.92613996696E+01 -0.45151272309E+02  0.30157703670E+02  0.55080831562E+02  0.00000000000E+00 0. -1.
        -13    1    3    3    0    0 -0.39402881632E+02  0.55317776997E+01  0.86970397160E+02  0.95640146526E+02  0.00000000000E+00 0.  1.
         13    1    3    3    0    0  0.41740721542E+02  0.57661324947E+02  0.11454864763E+03  0.13486478007E+03  0.00000000000E+00 0. -1.
          3    1    1    2  501    0  0.33902100796E+02 -0.61843029715E+02  0.78408973340E+01  0.70960499109E+02  0.00000000000E+00 0. -1.
<scales pt_clust_5="13000.00000" pt_clust_6="13000.00000" pt_clust_7="13000.00000" pt_clust_8="13000.00000" pt_clust_9="70.52597"></scales>
<clustering>
<clus scale="   70.526">  2  9  1 -1</clus>
<clus scale="   90.949">  5  6 -1 -1</clus>
<clus scale="   92.324">  7  8 -1 -1</clus>
<clus scale="  101.356">  2  5  1 -1</clus>
<clus scale="   70.526">  2  5  1 -1</clus>
</clustering>
</event>
<event>
 9    1  0.1671478E-005  0.1077562E+03  0.7546771E-02  0.1265058E+00
         21   -1    0    0  501  502  0.00000000000E+00  0.00000000000E+00  0.37098183346E+02  0.37098183346E+02  0.00000000000E+00 0. -1.
          1   -1    0    0  502    0 -0.00000000000E+00 -0.00000000000E+00 -0.54906583932E+03  0.54906583932E+03  0.00000000000E+00 0. -1.
         23    2    1    2    0    0  0.51795311512E+02  0.21465699586E+01 -0.34576126509E+03  0.36110628268E+03  0.90330132821E+02 0.  0.
         23    2    1    2    0    0 -0.77699179261E+02 -0.67480309853E+01 -0.10865457019E+03  0.16177744390E+03  0.91013336116E+02 0.  0.
        -11    1    4    4    0    0 -0.40808093006E+02 -0.42941830112E+02 -0.88087506226E+02  0.10615418023E+03  0.00000000000E+00 0. -1.
         11    1    4    4    0    0 -0.36891086256E+02  0.36193799127E+02 -0.20567063961E+02  0.55623263662E+02  0.00000000000E+00 0.  1.
        -13    1    3    3    0    0 -0.20292795028E+02  0.19591869736E+02 -0.68121388029E+02  0.73730335661E+02  0.00000000000E+00 0.  1.
         13    1    3    3    0    0  0.72088106540E+02 -0.17445299778E+02 -0.27763987706E+03  0.28737594702E+03  0.00000000000E+00 0. -1.
          1    1    1    2  501    0  0.25903867749E+02  0.46014610267E+01 -0.57551820690E+02  0.63280296085E+02  0.00000000000E+00 0. -1.
<scales pt_clust_5="13000.00000" pt_clust_6="13000.00000" pt_clust_7="13000.00000" pt_clust_8="13000.00000" pt_clust_9="26.30940"></scales>
<clustering>
<clus scale="   26.309">  1  9  2 -1</clus>
<clus scale="   90.330">  7  8 -1 -1</clus>
<clus scale="   91.013">  5  6 -1 -1</clus>
<clus scale="  107.180">  2  7  1 -1</clus>
<clus scale="   26.309">  1  5  2 -1</clus>
</clustering>
</event>
<event>
 9    1  0.1671478E-005  0.1297723E+03  0.7546771E-02  0.1228440E+00
         21   -1    0    0  501  502  0.00000000000E+00  0.00000000000E+00  0.16712410159E+03  0.16712410159E+03  0.00000000000E+00 0. -1.
          1   -1    0    0  502    0 -0.00000000000E+00 -0.00000000000E+00 -0.41683975434E+03  0.41683975434E+03  0.00000000000E+00 0. -1.
         23    2    1    2    0    0  0.83246607909E+02 -0.15863543804E+02 -0.25634137566E+03  0.28485860913E+03  0.90839840221E+02 0.  0.
         23    2    1    2    0    0 -0.10969279412E+03  0.24342496357E+02 -0.10927414992E+03  0.17992440136E+03  0.88356573905E+02 0.  0.
        -13    1    4    4    0    0 -0.21506143432E+02 -0.93457959041E+01 -0.76470691520E+02  0.79985153422E+02  0.00000000000E+00 0. -1.
         13    1    4    4    0    0 -0.88186650685E+02  0.33688292261E+02 -0.32803458401E+02  0.99939247934E+02  0.00000000000E+00 0.  1.
        -13    1    3    3    0    0  0.66759357997E+01 -0.33871706024E+02 -0.14157238435E+03  0.14572096829E+03  0.00000000000E+00 0.  1.
         13    1    3    3    0    0  0.76570672109E+02  0.18008162221E+02 -0.11476899131E+03  0.13913764084E+03  0.00000000000E+00 0. -1.
          1    1    1    2  501    0  0.26446186209E+02 -0.84789525534E+01  0.11589987282E+03  0.11918084545E+03  0.00000000000E+00 0. -1.
<scales pt_clust_5="13000.00000" pt_clust_6="13000.00000" pt_clust_7="13000.00000" pt_clust_8="13000.00000" pt_clust_9="27.77217"></scales>
<clustering>
<clus scale="   27.772">  1  9  2 -1</clus>
<clus scale="   88.357">  5  6 -1 -1</clus>
<clus scale="   90.840">  7  8 -1 -1</clus>
<clus scale="  128.046">  1  5  2 -1</clus>
<clus scale="   27.772">  1  5  2 -1</clus>
</clustering>
</event>
<event>
 9    1  0.1671478E-005  0.9793526E+02  0.7546771E-02  0.1285074E+00
          4   -1    0    0  502    0 -0.00000000000E+00  0.00000000000E+00  0.24916889354E+03  0.24916889354E+03  0.00000000000E+00 0. -1.
         21   -1    0    0  501  502  0.00000000000E+00 -0.00000000000E+00 -0.53313109804E+02  0.53313109804E+02  0.00000000000E+00 0.  1.
         23    2    1    2    0    0  0.37497174163E+02  0.31439760571E+02  0.10800096285E+03  0.14932217588E+03  0.90765674232E+02 0.  0.
         23    2    1    2    0    0 -0.65716905158E+01 -0.24316539424E+02  0.61331579173E+02  0.11180032832E+03  0.90018162626E+02 0.  0.
        -11    1    3    3    0    0  0.55680897133E+01  0.56877463344E+02  0.85115422081E+02  0.10252162960E+03  0.00000000000E+00 0.  1.
         11    1    3    3    0    0  0.31929084450E+02 -0.25437702772E+02  0.22885540765E+02  0.46800546281E+02  0.00000000000E+00 0. -1.
        -13    1    4    4    0    0  0.11854719985E+02  0.30694550211E+02  0.10146207295E+02  0.34433055645E+02  0.00000000000E+00 0.  1.
         13    1    4    4    0    0 -0.18426410500E+02 -0.55011089635E+02  0.51185371878E+02  0.77367272674E+02  0.00000000000E+00 0. -1.
          4    1    1    2  501    0 -0.30925483647E+02 -0.71232211470E+01  0.26523241716E+02  0.41359499144E+02  0.00000000000E+00 0. -1.
<scales pt_clust_5="13000.00000" pt_clust_6="13000.00000" pt_clust_7="13000.00000" pt_clust_8="13000.00000" pt_clust_9="31.73525"></scales>
<clustering>
<clus scale="   31.735">  2  9  1 -1</clus>
<clus scale="   90.018">  7  8 -1 -1</clus>
<clus scale="   90.766">  5  6 -1 -1</clus>
<clus scale="   97.243">  2  7  1 -1</clus>
<clus scale="   31.735">  2  5  1 -1</clus>
</clustering>
</event>
<event>
 9    1  0.1671478E-005  0.1000418E+03  0.7546771E-02  0.1281445E+00
         21   -1    0    0  501  502  0.00000000000E+00  0.00000000000E+00  0.14053259636E+03  0.14053259636E+03  0.00000000000E+00 0. -1.
          1   -1    0    0  502    0 -0.00000000000E+00 -0.00000000000E+00 -0.43789520793E+03  0.43789520793E+03  0.00000000000E+00 0. -1.
         23    2    1    2    0    0 -0.17937944886E+02  0.14167335993E+00 -0.17729120509E+03  0.20043902925E+03  0.91770600456E+02 0.  0.
         23    2    1    2    0    0  0.61548013965E+02  0.15764742361E+02 -0.23214016148E+03  0.25668643361E+03  0.89231079243E+02 0.  0.
        -11    1    4    4    0    0 -0.20286909522E+02 -0.17143011014E+01 -0.19575986303E+02  0.28243880150E+02  0.00000000000E+00 0.  1.
         11    1    4    4    0    0  0.81834923487E+02  0.17479043462E+02 -0.21256417518E+03  0.22844255346E+03  0.00000000000E+00 0. -1.
        -13    1    3    3    0    0 -0.20170440230E+02  0.30571471525E+02 -0.16241607338E+03  0.16649457175E+03  0.00000000000E+00 0.  1.
         13    1    3    3    0    0  0.22324953440E+01 -0.30429798165E+02 -0.14875131710E+02  0.33944457503E+02  0.00000000000E+00 0. -1.
          1    1    1    2  501    0 -0.43610069078E+02 -0.15906415721E+02  0.11206875500E+03  0.12130234142E+03  0.00000000000E+00 0. -1.
<scales pt_clust_5="13000.00000" pt_clust_6="13000.00000" pt_clust_7="13000.00000" pt_clust_8="13000.00000" pt_clust_9="46.42039"></scales>
<clustering>
<clus scale="   46.420">  1  9  2 -1</clus>
<clus scale="   89.231">  5  6 -1 -1</clus>
<clus scale="   91.771">  7  8 -1 -1</clus>
<clus scale="   97.718">  1  5  2 -1</clus>
<clus scale="   46.420">  1  5  2 -1</clus>
</clustering>
</event>
<event>
 9    1  0.1671478E-005  0.1346260E+03  0.7546771E-02  0.1238841E+00
         21   -1    0    0  501  502  0.00000000000E+00  0.00000000000E+00  0.62168225953E+03  0.62168225953E+03  0.00000000000E+00 0. -1.
          2   -1    0    0  502    0 -0.00000000000E+00 -0.00000000000E+00 -0.53221867029E+02  0.53221867029E+02  0.00000000000E+00 0. -1.
         23    2    1    2    0    0  0.25731189465E+01 -0.27508789983E+02  0.20134575648E+03  0.22163716851E+03  0.88428311899E+02 0.  0.
         23    2    1    2    0    0  0.69538261987E+02 -0.46881912423E+02  0.78408411972E+02  0.14653366728E+03  0.91053572058E+02 0.  0.
        -13    1    3    3    0    0  0.24603766139E+02  0.23481202476E+02  0.10564658932E+03  0.11098609828E+03  0.00000000000E+00 0. -1.
         13    1    3    3    0    0 -0.22030647192E+02 -0.50989992458E+02  0.95699167165E+02  0.11065107023E+03  0.00000000000E+00 0.  1.
        -13    1    4    4    0    0  0.28993123002E+02 -0.55792102540E+02  0.83699613238E+02  0.10468517155E+03  0.00000000000E+00 0.  1.
         13    1    4    4    0    0  0.40545138985E+02  0.89101901172E+01 -0.52912012655E+01  0.41848495721E+02  0.00000000000E+00 0. -1.
          2    1    1    2  501    0 -0.72111380934E+02  0.74390702405E+02  0.28870622405E+03  0.30673329078E+03  0.00000000000E+00 0. -1.
<scales pt_clust_5="13000.00000" pt_clust_6="13000.00000" pt_clust_7="13000.00000" pt_clust_8="13000.00000" pt_clust_9="99.16348"></scales>
<clustering>
<clus scale="   88.428">  5  6 -1 -1</clus>
<clus scale="   91.054">  7  8 -1 -1</clus>
<clus scale="   92.644">  2  5  1 -1</clus>
<clus scale="   99.163">  1  9  2 -1</clus>
<clus scale="   99.163">  1  5  2 -1</clus>
</clustering>
</event>
<event>
 9    1  0.2704707E-005  0.1127465E+03  0.7546771E-02  0.1256557E+00
          1   -1    0    0  502    0 -0.00000000000E+00  0.00000000000E+00  0.41354352265E+03  0.41354352265E+03  0.00000000000E+00 0. -1.
         21   -1    0    0  501  502  0.00000000000E+00 -0.00000000000E+00 -0.25768592885E+03  0.25768592885E+03  0.00000000000E+00 0. -1.
         23    2    1    2    0    0  0.75521403988E+02 -0.35976946259E+02  0.29236964773E+03  0.31802034016E+03  0.93054299839E+02 0.  0.
         23    2    1    2    0    0 -0.35420654981E+02 -0.19550325170E+02  0.79248211852E+02  0.12683808795E+03  0.90392386068E+02 0.  0.
        -11    1    3    3    0    0  0.77543359980E+02 -0.70444583114E+01  0.27108403802E+03  0.28204459353E+03  0.00000000000E+00 0. -1.
         11    1    3    3    0    0 -0.20219559919E+01 -0.28932487948E+02  0.21285609711E+02  0.35975746631E+02  0.00000000000E+00 0.  1.
        -11    1    4    4    0    0 -0.65932140716E+02 -0.11333025438E+02  0.59826554214E+02  0.89747987354E+02  0.00000000000E+00 0.  1.
         11    1    4    4    0    0  0.30511485735E+02 -0.82172997321E+01  0.19421657639E+02  0.37090100594E+02  0.00000000000E+00 0. -1.
          1    1    1    2  501    0 -0.40100749007E+02  0.55527271429E+02 -0.21576026578E+03  0.22637102339E+03  0.00000000000E+00 0. -1.
<scales pt_clust_5="13000.00000" pt_clust_6="13000.00000" pt_clust_7="13000.00000" pt_clust_8="13000.00000" pt_clust_9="68.49342"></scales>
<clustering>
<clus scale="   68.493">  2  9  1 -1</clus>
<clus scale="   90.392">  7  8 -1 -1</clus>
<clus scale="   93.054">  5  6 -1 -1</clus>
<clus scale="  110.560">  2  7  1 -1</clus>
<clus scale="   68.493">  2  5  1 -1</clus>
</clustering>
</event>
<event>
 9    1  0.1671478E-005  0.2400341E+03  0.7546771E-02  0.1155196E+00
          2   -1    0    0  502    0 -0.00000000000E+00  0.00000000000E+00  0.75855217115E+03  0.75855217115E+03  0.00000000000E+00 0. -1.
         21   -1    0    0  501  502  0.00000000000E+00 -0.00000000000E+00 -0.11367521859E+03  0.11367521859E+03  0.00000000000E+00 0. -1.
         23    2    1    2    0    0 -0.45309791542E+02  0.83529386153E+01  0.67602075763E+02  0.12213200798E+03  0.90683173377E+02 0.  0.
         23    2    1    2    0    0 -0.17991741855E+03  0.21482359478E+02  0.42892892323E+03  0.47875802141E+03  0.11134384855E+03 0.  0.
        -13    1    4    4    0    0 -0.17981754058E+03 -0.10611726552E+02  0.37457197339E+03  0.41563339602E+03  0.00000000000E+00 0. -1.
         13    1    4    4    0    0 -0.99877972615E-01  0.32094086030E+02  0.54356949846E+02  0.63124625387E+02  0.00000000000E+00 0.  1.
        -13    1    3    3    0    0  0.10219743314E+02  0.37585836368E+02  0.24997771208E+02  0.46282035546E+02  0.00000000000E+00 0.  1.
         13    1    3    3    0    0 -0.55529534855E+02 -0.29232897753E+02  0.42604304555E+02  0.75849972438E+02  0.00000000000E+00 0. -1.
          2    1    1    2  501    0  0.22522721009E+03 -0.29835298093E+02  0.14834595356E+03  0.27133736034E+03  0.00000000000E+00 0. -1.
<scales pt_clust_5="13000.00000" pt_clust_6="13000.00000" pt_clust_7="13000.00000" pt_clust_8="13000.00000" pt_clust_9="212.64735"></scales>
<clustering>
<clus scale="   90.683">  7  8 -1 -1</clus>
<clus scale="  101.716">  1  7  2 -1</clus>
<clus scale="  111.344">  5  6 -1 -1</clus>
<clus scale="  212.647">  2  9  1 -1</clus>
<clus scale="  212.647">  2  5  1 -1</clus>
</clustering>
</event>
<event>
 9    1  0.1671478E-005  0.1084416E+03  0.7546771E-02  0.1264879E+00
         21   -1    0    0  501  502  0.00000000000E+00  0.00000000000E+00  0.52731428144E+03  0.52731428144E+03  0.00000000000E+00 0. -1.
          1   -1    0    0  502    0 -0.00000000000E+00 -0.00000000000E+00 -0.40774354855E+02  0.40774354855E+02  0.00000000000E+00 0. -1.
         23    2    1    2    0    0 -0.14184377991E+02  0.60331747613E+02  0.65464581501E+02  0.12858125631E+03  0.91686485885E+02 0.  0.
         23    2    1    2    0    0  0.27414857837E+02 -0.37868131995E+02  0.32970756973E+03  0.34449301267E+03  0.88220090622E+02 0.  0.
        -11    1    4    4    0    0  0.29966984272E+02  0.23708207684E+02  0.12536831015E+03  0.13106224647E+03  0.00000000000E+00 0. -1.
         11    1    4    4    0    0 -0.25521264349E+01 -0.61576339679E+02  0.20433925958E+03  0.21343076620E+03  0.00000000000E+00 0.  1.
        -11    1    3    3    0    0 -0.30757842872E+02  0.31563624607E+02 -0.10823965176E+02  0.45381334473E+02  0.00000000000E+00 0. -1.
         11    1    3    3    0    0  0.16573464880E+02  0.28768123006E+02  0.76288546677E+02  0.83199921836E+02  0.00000000000E+00 0.  1.
          1    1    1    2  501    0 -0.13230479846E+02 -0.22463615618E+02  0.91367775355E+02  0.95014367318E+02  0.00000000000E+00 0. -1.
<scales pt_clust_5="13000.00000" pt_clust_6="13000.00000" pt_clust_7="13000.00000" pt_clust_8="13000.00000" pt_clust_9="26.07028"></scales>
<clustering>
<clus scale="   26.070">  1  9  2 -1</clus>
<clus scale="   88.220">  5  6 -1 -1</clus>
<clus scale="   91.686">  7  8 -1 -1</clus>
<clus scale="  105.527">  1  5  2 -1</clus>
<clus scale="   26.070">  1  5  2 -1</clus>
</clustering>
</event>
<event>
 9    1  0.1671478E-005  0.9382374E+02  0.7546771E-02  0.1295118E+00
          3   -1    0    0  502    0 -0.00000000000E+00  0.00000000000E+00  0.29012824301E+03  0.29012824301E+03  0.00000000000E+00 0. -1.
         21   -1    0    0  501  502  0.00000000000E+00 -0.00000000000E+00 -0.19353359799E+03  0.19353359799E+03  0.00000000000E+00 0. -1.
         23    2    1    2    0    0  0.29666431749E+02 -0.12856219208E+02  0.20281761466E+03  0.22403102485E+03  0.89496009595E+02 0.  0.
         23    2    1    2    0    0  0.12290742727E+02 -0.28327444764E+02  0.37920545492E+02  0.10395855907E+03  0.91738256736E+02 0.  0.
        -11    1    3    3    0    0  0.39201134516E+02  0.27458369596E+02  0.69199944326E+02  0.84138714650E+02  0.00000000000E+00 0.  1.
         11    1    3    3    0    0 -0.95347027669E+01 -0.40314588804E+02  0.13361767034E+03  0.13989231020E+03  0.00000000000E+00 0. -1.
        -13    1    4    4    0    0 -0.25619151015E+02 -0.35305228186E+02  0.47241874844E+02  0.64300814729E+02  0.00000000000E+00 0. -1.
         13    1    4    4    0    0  0.37909893742E+02  0.69777834215E+01 -0.93213293522E+01  0.39657744337E+02  0.00000000000E+00 0.  1.
          3    1    1    2  501    0 -0.41957174476E+02  0.41183663972E+02 -0.14414351514E+03  0.15567225708E+03  0.00000000000E+00 0. -1.
<scales pt_clust_5="13000.00000" pt_clust_6="13000.00000" pt_clust_7="13000.00000" pt_clust_8="13000.00000" pt_clust_9="58.79199"></scales>
<clustering>
<clus scale="   58.792">  2  9  1 -1</clus>
<clus scale="   89.496">  5  6 -1 -1</clus>
<clus scale="   91.633">  1  5  2 -1</clus>
<clus scale="   91.738">  7  8 -1 -1</clus>
<clus scale="   58.792">  2  5  1 -1</clus>
</clustering>
</event>
<event>
 9    1  0.1671478E-005  0.1294640E+03  0.7546771E-02  0.1228332E+00
          2   -1    0    0  502    0 -0.00000000000E+00  0.00000000000E+00  0.97649875270E+03  0.97649875270E+03  0.00000000000E+00 0. -1.
         21   -1    0    0  501  502  0.00000000000E+00 -0.00000000000E+00 -0.67908661097E+02  0.67908661097E+02  0.00000000000E+00 0. -1.
         23    2    1    2    0    0 -0.58393559594E+02 -0.57130987592E+02  0.43169525020E+03  0.44859833858E+03  0.90586548597E+02 0.  0.
         23    2    1    2    0    0  0.82669535931E+01  0.12237478295E+03  0.48943373591E+03  0.51258255698E+03  0.90286022406E+02 0.  0.
        -13    1    3    3    0    0 -0.20014732275E+02  0.96087334806E+01  0.20371376048E+02  0.30131548736E+02  0.00000000000E+00 0. -1.
         13    1    3    3    0    0 -0.38378827319E+02 -0.66739721072E+02  0.41132387415E+03  0.41846678985E+03  0.00000000000E+00 0.  1.
        -13    1    4    4    0    0  0.36439973681E+02  0.28654907062E+02  0.88828529759E+02  0.10019722092E+03  0.00000000000E+00 0.  1.
         13    1    4    4    0    0 -0.28173020088E+02  0.93719875885E+02  0.40060520615E+03  0.41238533606E+03  0.00000000000E+00 0. -1.
          2    1    1    2  501    0  0.50126606001E+02 -0.65243795356E+02 -0.12538894517E+02  0.83226518234E+02  0.00000000000E+00 0. -1.
<scales pt_clust_5="13000.00000" pt_clust_6="13000.00000" pt_clust_7="13000.00000" pt_clust_8="13000.00000" pt_clust_9="82.27654"></scales>
<clustering>
<clus scale="   82.277">  2  9  1 -1</clus>
<clus scale="   90.286">  7  8 -1 -1</clus>
<clus scale="   90.587">  5  6 -1 -1</clus>
<clus scale="  129.254">  2  7  1 -1</clus>
<clus scale="   82.277">  2  5  1 -1</clus>
</clustering>
</event>
<event>
 9    1  0.1671478E-005  0.1116951E+03  0.7546771E-02  0.1257470E+00
         21   -1    0    0  501  502  0.00000000000E+00  0.00000000000E+00  0.92647783784E+02  0.92647783784E+02  0.00000000000E+00 0. -1.
          1   -1    0    0  502    0 -0.00000000000E+00 -0.00000000000E+00 -0.39990263832E+03  0.39990263832E+03  0.00000000000E+00 0. -1.
         23    2    1    2    0    0  0.46264544025E+02 -0.48834776272E+02 -0.32779289766E+03  0.34684787134E+03  0.91268936093E+02 0.  0.
         23    2    1    2    0    0 -0.50488081850E+02  0.18845660161E+02 -0.49922511594E+01  0.10609218239E+03  0.91249237126E+02 0.  0.
        -11    1    4    4    0    0 -0.58128684355E+02  0.39494399032E+02  0.19723998636E+02  0.72991695568E+02  0.00000000000E+00 0.  1.
         11    1    4    4    0    0  0.76406025046E+01 -0.20648738872E+02 -0.24716249796E+02  0.33100486818E+02  0.00000000000E+00 0. -1.
        -11    1    3    3    0    0  0.40291371151E+02  0.13771817646E+02 -0.73973285175E+02  0.85352823445E+02  0.00000000000E+00 0.  1.
         11    1    3    3    0    0  0.59731728742E+01 -0.62606593918E+02 -0.25381961248E+03  0.26149504790E+03  0.00000000000E+00 0. -1.
          1    1    1    2  501    0  0.42235378254E+01  0.29989116112E+02  0.25530294278E+02  0.39610368375E+02  0.00000000000E+00 0. -1.
<scales pt_clust_5="13000.00000" pt_clust_6="13000.00000" pt_clust_7="13000.00000" pt_clust_8="13000.00000" pt_clust_9="30.28507"></scales>
<clustering>
<clus scale="   30.285">  1  9  2 -1</clus>
<clus scale="   91.249">  5  6 -1 -1</clus>
<clus scale="   91.269">  7  8 -1 -1</clus>
<clus scale="  111.679">  1  5  2 -1</clus>
<clus scale="   30.285">  1  5  2 -1</clus>
</clustering>
</event>
<event>
 9    1  0.1671478E-005  0.1141949E+03  0.7546771E-02  0.1253617E+00
          1   -1    0    0  502    0 -0.00000000000E+00  0.00000000000E+00  0.57476094625E+03  0.57476094625E+03  0.00000000000E+00 0. -1.
         21   -1    0    0  501  502  0.00000000000E+00 -0.00000000000E+00 -0.46879285619E+02  0.46879285619E+02  0.00000000000E+00 0.  1.
         23    2    1    2    0    0  0.39358812388E+02  0.49941124940E+02  0.42761353428E+03  0.44164324458E+03  0.90289471729E+02 0.  0.
         23    2    1    2    0    0 -0.50568648373E+02 -0.69133697084E+02  0.93747404219E+02  0.15683376071E+03  0.92041275691E+02 0.  0.
        -11    1    4    4    0    0 -0.76176934374E+01 -0.49111617397E+02 -0.22787680575E+01  0.49751110545E+02  0.00000000000E+00 0.  1.
         11    1    4    4    0    0 -0.42950954936E+02 -0.20022079687E+02  0.96026172277E+02  0.10708265017E+03  0.00000000000E+00 0. -1.
        -11    1    3    3    0    0 -0.28673954783E+02  0.23699724173E+02  0.16060226021E+03  0.16485435570E+03  0.00000000000E+00 0.  1.
         11    1    3    3    0    0  0.68032767171E+02  0.26241400767E+02  0.26701127407E+03  0.27678888888E+03  0.00000000000E+00 0. -1.
          1    1    1    2  501    0  0.11209835985E+02  0.19192572144E+02  0.65207221244E+01  0.23163226575E+02  0.00000000000E+00 0. -1.
<scales pt_clust_5="13000.00000" pt_clust_6="13000.00000" pt_clust_7="13000.00000" pt_clust_8="13000.00000" pt_clust_9="22.22645"></scales>
<clustering>
<clus scale="   22.226">  2  9  1 -1</clus>
<clus scale="   90.289">  7  8 -1 -1</clus>
<clus scale="   92.041">  5  6 -1 -1</clus>
<clus scale="  112.788">  1  7  2 -1</clus>
<clus scale="   22.226">  2  5  1 -1</clus>
</clustering>
</event>
<event>
 9    1  0.1671478E-005  0.9929078E+02  0.7546771E-02  0.1281991E+00
         21   -1    0    0  501  502  0.00000000000E+00  0.00000000000E+00  0.75557447248E+02  0.75557447248E+02  0.00000000000E+00 0. -1.
          1   -1    0    0  502    0 -0.00000000000E+00 -0.00000000000E+00 -0.78526742017E+03  0.78526742017E+03  0.00000000000E+00 0. -1.
         23    2    1    2    0    0 -0.95699791153E+01 -0.10079234917E+02 -0.30829205280E+03  0.32198345879E+03  0.91848693144E+02 0.  0.
         23    2    1    2    0    0  0.63325918501E+02 -0.34812957369E+02 -0.44242702237E+03  0.45768257414E+03  0.92247247094E+02 0.  0.
        -13    1    4    4    0    0  0.79862912454E+02 -0.16434013000E+02 -0.40284420724E+03  0.41101291571E+03  0.00000000000E+00 0. -1.
         13    1    4    4    0    0 -0.16536993953E+02 -0.18378944369E+02 -0.39582815125E+02  0.46669658434E+02  0.00000000000E+00 0.  1.
        -13    1    3    3    0    0  0.40566971829E+02  0.38794755487E+01 -0.14278427048E+03  0.14848595028E+03  0.00000000000E+00 0. -1.
         13    1    3    3    0    0 -0.50136950944E+02 -0.13958710466E+02 -0.16550778233E+03  0.17349750851E+03  0.00000000000E+00 0.  1.
          1    1    1    2  501    0 -0.53755939386E+02  0.44892192286E+02  0.41009102256E+02  0.81158834487E+02  0.00000000000E+00 0. -1.
<scales pt_clust_5="13000.00000" pt_clust_6="13000.00000" pt_clust_7="13000.00000" pt_clust_8="13000.00000" pt_clust_9="70.03578"></scales>
<clustering>
<clus scale="   70.036">  1  9  2 -1</clus>
<clus scale="   91.849">  7  8 -1 -1</clus>
<clus scale="   92.247">  5  6 -1 -1</clus>
<clus scale="   98.921">  2  7  1 -1</clus>
<clus scale="   70.036">  1  5  2 -1</clus>
</clustering>
</event>
<event>
 9    1  0.1671478E-005  0.1209819E+03  0.7546771E-02  0.1242288E+00
         21   -1    0    0  501  502  0.00000000000E+00  0.00000000000E+00  0.10290202978E+03  0.10290202978E+03  0.00000000000E+00 0.  1.
          2   -1    0    0  502    0 -0.00000000000E+00 -0.00000000000E+00 -0.24664448366E+03  0.24664448366E+03  0.00000000000E+00 0. -1.
         23    2    1    2    0    0  0.53208639027E+02  0.51814612779E+02 -0.10223412681E+03  0.15489768218E+03  0.89585500472E+02 0.  0.
         23    2    1    2    0    0 -0.92789012865E+02 -0.17965130377E+02 -0.51357819769E+02  0.14164500160E+03  0.92158200982E+02 0.  0.
        -11    1    4    4    0    0 -0.18810929126E+02  0.30098148539E+02 -0.38716549575E+02  0.52523526262E+02  0.00000000000E+00 0.  1.
         11    1    4    4    0    0 -0.73978083740E+02 -0.48063278916E+02 -0.12641270194E+02  0.89121475336E+02  0.00000000000E+00 0. -1.
        -13    1    3    3    0    0  0.29324306676E+02  0.66617438042E+02 -0.32494743575E+02  0.79710139715E+02  0.00000000000E+00 0.  1.
         13    1    3    3    0    0  0.23884332351E+02 -0.14802825263E+02 -0.69739383233E+02  0.75187542461E+02  0.00000000000E+00 0. -1.
          2    1    1    2  501    0  0.39580373838E+02 -0.33849482402E+02  0.98494926965E+01  0.53003829658E+02  0.00000000000E+00 0. -1.
<scales pt_clust_5="13000.00000" pt_clust_6="13000.00000" pt_clust_7="13000.00000" pt_clust_8="13000.00000" pt_clust_9="52.08064"></scales>
<clustering>
<clus scale="   52.081">  1  9  2 -1</clus>
<clus scale="   89.586">  7  8 -1 -1</clus>
<clus scale="   92.158">  5  6 -1 -1</clus>
<clus scale="  119.034">  2  7  1 -1</clus>
<clus scale="   52.081">  1  5  2 -1</clus>
</clustering>
</event>
<event>
 9    1  0.1671478E-005  0.1147078E+03  0.7546771E-02  0.1252448E+00
          1   -1    0    0  502    0 -0.00000000000E+00  0.00000000000E+00  0.32674968588E+02  0.32674968588E+02  0.00000000000E+00 0. -1.
         21   -1    0    0  501  502  0.00000000000E+00 -0.00000000000E+00 -0.67931824103E+03  0.67931824103E+03  0.00000000000E+00 0. -1.
         23    2    1    2    0    0  0.12669409228E+02 -0.79242786113E+02 -0.19175377448E+03  0.22594837247E+03  0.88561977815E+02 0.  0.
         23    2    1    2    0    0 -0.49185013680E+02  0.52066319719E+02 -0.22647289954E+03  0.25313693232E+03  0.87511513869E+02 0.  0.
        -11    1    4    4    0    0  0.42679202853E+01  0.56524934107E+02 -0.14400109633E+03  0.15475658003E+03  0.00000000000E+00 0. -1.
         11    1    4    4    0    0 -0.53452933966E+02 -0.44586143885E+01 -0.82471803211E+02  0.98380352290E+02  0.00000000000E+00 0.  1.
        -13    1    3    3    0    0  0.32888074320E+02 -0.78231827910E+02 -0.18670134343E+03  0.20508348536E+03  0.00000000000E+00 0. -1.
         13    1    3    3    0    0 -0.20218665092E+02 -0.10109582034E+01 -0.50524310526E+01  0.20864887111E+02  0.00000000000E+00 0.  1.
          1    1    1    2  501    0  0.36515604453E+02  0.27176466395E+02 -0.22841659842E+03  0.23290790482E+03  0.00000000000E+00 0. -1.
<scales pt_clust_5="13000.00000" pt_clust_6="13000.00000" pt_clust_7="13000.00000" pt_clust_8="13000.00000" pt_clust_9="45.51867"></scales>
<clustering>
<clus scale="   45.519">  2  9  1 -1</clus>
<clus scale="   87.512">  5  6 -1 -1</clus>
<clus scale="   88.562">  7  8 -1 -1</clus>
<clus scale="  113.899">  2  5  1 -1</clus>
<clus scale="   45.519">  2  5  1 -1</clus>
</clustering>
</event>
<event>
 9    1  0.1671478E-005  0.1091498E+03  0.7546771E-02  0.1262162E+00
          1   -1    0    0  502    0 -0.00000000000E+00  0.00000000000E+00  0.43609025244E+03  0.43609025244E+03  0.00000000000E+00 0. -1.
         21   -1    0    0  501  502  0.00000000000E+00 -0.00000000000E+00 -0.64493092098E+02  0.64493092098E+02  0.00000000000E+00 0. -1.
         23    2    1    2    0    0  0.12168439037E+02 -0.68639904392E+02  0.27898700816E+03  0.30186037868E+03  0.91795588719E+02 0.  0.
         23    2    1    2    0    0 -0.33111148728E+02  0.32811560396E+02  0.11266267226E+03  0.15263206780E+03  0.91818972630E+02 0.  0.
        -11    1    4    4    0    0 -0.55392421114E+02  0.75517025030E+01  0.10364875876E+03  0.11776422938E+03  0.00000000000E+00 0. -1.
         11    1    4    4    0    0  0.22281272386E+02  0.25259857893E+02  0.90139134971E+01  0.34867838425E+02  0.00000000000E+00 0.  1.
        -11    1    3    3    0    0  0.99774468679E+01  0.21253419455E+02  0.82488615681E+02  0.85764963717E+02  0.00000000000E+00 0.  1.
         11    1    3    3    0    0  0.21909921695E+01 -0.89893323846E+02  0.19649839248E+03  0.21609541496E+03  0.00000000000E+00 0. -1.
          1    1    1    2  501    0  0.20942709691E+02  0.35828343996E+02 -0.20052520078E+02  0.46090898062E+02  0.00000000000E+00 0. -1.
<scales pt_clust_5="13000.00000" pt_clust_6="13000.00000" pt_clust_7="13000.00000" pt_clust_8="13000.00000" pt_clust_9="41.50021"></scales>
<clustering>
<clus scale="   41.500">  2  9  1 -1</clus>
<clus scale="   91.796">  7  8 -1 -1</clus>
<clus scale="   91.819">  5  6 -1 -1</clus>
<clus scale="  109.130">  1  7  2 -1</clus>
<clus scale="   41.500">  2  5  1 -1</clus>
</clustering>
</event>
<event>
 9    1  0.1671478E-005  0.1182726E+03  0.7546771E-02  0.1247022E+00
         21   -1    0    0  501  502  0.00000000000E+00  0.00000000000E+00  0.18918729414E+03  0.18918729414E+03  0.00000000000E+00 0. -1.
          2   -1    0    0  502    0 -0.00000000000E+00 -0.00000000000E+00 -0.31079896227E+03  0.31079896227E+03  0.00000000000E+00 0. -1.
         23    2    1    2    0    0  0.64693821024E+02 -0.56184796968E+01 -0.17040197823E+03  0.20266938777E+03  0.88437485047E+02 0.  0.
         23    2    1    2    0    0 -0.94495880770E+02  0.29095805759E+02 -0.84250289088E+02  0.15897255673E+03  0.91641285387E+02 0.  0.
        -11    1    3    3    0    0  0.53803016648E+02  0.26581290773E+02 -0.51744200955E+02  0.79238828563E+02  0.00000000000E+00 0.  1.
         11    1    3    3    0    0  0.10890804377E+02 -0.32199770470E+02 -0.11865777727E+03  0.12343055921E+03  0.00000000000E+00 0. -1.
        -13    1    4    4    0    0 -0.51978679619E+02  0.55454785711E+02 -0.77402158896E+02  0.10848092272E+03  0.00000000000E+00 0.  1.
         13    1    4    4    0    0 -0.42517201151E+02 -0.26358979951E+02 -0.68481301916E+01  0.50491634009E+02  0.00000000000E+00 0. -1.
          2    1    1    2  501    0  0.29802059745E+02 -0.23477326062E+02  0.13304059919E+03  0.13834431190E+03  0.00000000000E+00 0. -1.
<scales pt_clust_5="13000.00000" pt_clust_6="13000.00000" pt_clust_7="13000.00000" pt_clust_8="13000.00000" pt_clust_9="37.93873"></scales>
<clustering>
<clus scale="   37.939">  1  9  2 -1</clus>
<clus scale="   88.437">  5  6 -1 -1</clus>
<clus scale="   91.641">  7  8 -1 -1</clus>
<clus scale="  115.808">  2  5  1 -1</clus>
<clus scale="   37.939">  1  5  2 -1</clus>
</clustering>
</event>
<event>
 9    1  0.1671478E-005  0.9498325E+02  0.7546771E-02  0.1291794E+00
         -2   -1    0    0    0  501 -0.00000000000E+00  0.00000000000E+00  0.40303622097E+03  0.40303622097E+03  0.00000000000E+00 0.  1.
         21   -1    0    0  501  502  0.00000000000E+00 -0.00000000000E+00 -0.50103586950E+02  0.50103586950E+02  0.00000000000E+00 0.  1.
         23    2    1    2    0    0  0.29614212261E+02  0.44069880159E+02  0.22717364566E+03  0.24989701163E+03  0.89562800499E+02 0.  0.
         23    2    1    2    0    0 -0.79779787438E+01 -0.42448642152E+00  0.12643515276E+03  0.15452417363E+03  0.88476234380E+02 0.  0.
        -11    1    4    4    0    0  0.28140055893E+02  0.29767174731E+02  0.48595616446E+02  0.63556914454E+02  0.00000000000E+00 0.  1.
         11    1    4    4    0    0 -0.36118034636E+02 -0.30191661152E+02  0.77839536310E+02  0.90967259176E+02  0.00000000000E+00 0. -1.
        -13    1    3    3    0    0  0.38090162060E+02  0.20364328159E+02  0.21930908850E+03  0.22352190632E+03  0.00000000000E+00 0.  1.
         13    1    3    3    0    0 -0.84759497997E+01  0.23705552000E+02  0.78645571615E+01  0.26375105307E+02  0.00000000000E+00 0. -1.
         -2    1    1    2    0  502 -0.21636233517E+02 -0.43645393737E+02 -0.67616440120E+00  0.48718622657E+02  0.00000000000E+00 0.  1.
<scales pt_clust_5="13000.00000" pt_clust_6="13000.00000" pt_clust_7="13000.00000" pt_clust_8="13000.00000" pt_clust_9="48.71393"></scales>
<clustering>
<clus scale="   48.714">  2  9  1 -1</clus>
<clus scale="   88.476">  5  6 -1 -1</clus>
<clus scale="   89.563">  7  8 -1 -1</clus>
<clus scale="   93.959">  2  5  1 -1</clus>
<clus scale="   48.714">  2  5  1 -1</clus>
</clustering>
</event>
<event>
 9    1  0.1671478E-005  0.1081431E+03  0.7546771E-02  0.1264224E+00
         21   -1    0    0  501  502  0.00000000000E+00  0.00000000000E+00  0.20164171879E+02  0.20164171879E+02  0.00000000000E+00 0.  1.
          1   -1    0    0  502    0 -0.00000000000E+00 -0.00000000000E+00 -0.75024833795E+03  0.75024833795E+03  0.00000000000E+00 0. -1.
         23    2    1    2    0    0 -0.50172405960E+02 -0.55099428488E+01 -0.27694166871E+03  0.29571068086E+03  0.90556552034E+02 0.  0.
         23    2    1    2    0    0  0.62420584600E+02  0.26615059718E+02 -0.32492001223E+03  0.34417807814E+03  0.90999144709E+02 0.  0.
        -11    1    3    3    0    0 -0.10463091319E+02 -0.32839428639E+02 -0.35405136240E+02  0.49410808792E+02  0.00000000000E+00 0.  1.
         11    1    3    3    0    0 -0.39709314641E+02  0.27329485790E+02 -0.24153653247E+03  0.24629987207E+03  0.00000000000E+00 0. -1.
        -13    1    4    4    0    0  0.77678157362E+02 -0.50410572315E+01 -0.20787074226E+03  0.22196746130E+03  0.00000000000E+00 0.  1.
         13    1    4    4    0    0 -0.15257572762E+02  0.31656116950E+02 -0.11704926997E+03  0.12221061684E+03  0.00000000000E+00 0. -1.
          1    1    1    2  501    0 -0.12248178640E+02 -0.21105116870E+02 -0.12822248512E+03  0.13052375083E+03  0.00000000000E+00 0. -1.
<scales pt_clust_5="13000.00000" pt_clust_6="13000.00000" pt_clust_7="13000.00000" pt_clust_8="13000.00000" pt_clust_9="24.40173"></scales>
<clustering>
<clus scale="   24.402">  1  9  2 -1</clus>
<clus scale="   90.557">  5  6 -1 -1</clus>
<clus scale="   90.999">  7  8 -1 -1</clus>
<clus scale="  107.771">  2  5  1 -1</clus>
<clus scale="   24.402">  1  5  2 -1</clus>
</clustering>
</event>
<event>
 9    1  0.1671478E-005  0.1033208E+03  0.7546771E-02  0.1278349E+00
         21   -1    0    0  501  502  0.00000000000E+00  0.00000000000E+00  0.13661301084E+03  0.13661301084E+03  0.00000000000E+00 0.  1.
          1   -1    0    0  502    0 -0.00000000000E+00 -0.00000000000E+00 -0.14126233023E+03  0.14126233023E+03  0.00000000000E+00 0. -1.
         23    2    1    2    0    0  0.40453958997E+02  0.17109157816E+02 -0.79605011032E+02  0.12894259758E+03  0.91432978782E+02 0.  0.
         23    2    1    2    0    0 -0.59804045931E+02 -0.26105892554E+02  0.74021314091E+02  0.12757296443E+03  0.80855827105E+02 0.  0.
        -11    1    4    4    0    0 -0.37057536842E+02  0.34251526483E+01 -0.74728215653E+01  0.37958342556E+02  0.00000000000E+00 0. -1.
         11    1    4    4    0    0 -0.22746509089E+02 -0.29531045203E+02  0.81494135656E+02  0.89614621869E+02  0.00000000000E+00 0.  1.
        -13    1    3    3    0    0 -0.50653725104E+01  0.39174050788E+02 -0.65396000833E+02  0.76399615043E+02  0.00000000000E+00 0.  1.
         13    1    3    3    0    0  0.45519331507E+02 -0.22064892972E+02 -0.14209010200E+02  0.52542982534E+02  0.00000000000E+00 0. -1.
          1    1    1    2  501    0  0.19350086934E+02  0.89967347386E+01  0.93437755881E+00  0.21359779066E+02  0.00000000000E+00 0. -1.
<scales pt_clust_5="13000.00000" pt_clust_6="13000.00000" pt_clust_7="13000.00000" pt_clust_8="13000.00000" pt_clust_9="21.33933"></scales>
<clustering>
<clus scale="   21.339">  1  9  2 -1</clus>
<clus scale="   80.856">  5  6 -1 -1</clus>
<clus scale="   91.433">  7  8 -1 -1</clus>
<clus scale="   94.090">  1  5  2 -1</clus>
<clus scale="   21.339">  1  5  2 -1</clus>
</clustering>
</event>
<event>
 9    1  0.2712669E-005  0.9326611E+02  0.7546771E-02  0.1295609E+00
          2   -1    0    0  502    0 -0.00000000000E+00  0.00000000000E+00  0.40949311010E+03  0.40949311010E+03  0.00000000000E+00 0. -1.
         21   -1    0    0  501  502  0.00000000000E+00 -0.00000000000E+00 -0.87926726982E+02  0.87926726982E+02  0.00000000000E+00 0. -1.
         23    2    1    2    0    0 -0.10469126381E+02  0.98414842821E+00  0.32713217533E+03  0.34000092879E+03  0.92057592225E+02 0.  0.
         23    2    1    2    0    0  0.36296679265E+02 -0.32398263252E+02  0.25216723461E+02  0.10641427742E+03  0.91219619104E+02 0.  0.
        -11    1    4    4    0    0 -0.16134477643E+02  0.18657032556E+02 -0.81591520507E+01  0.25980338620E+02  0.00000000000E+00 0.  1.
         11    1    4    4    0    0  0.52431156909E+02 -0.51055295808E+02  0.33375875512E+02  0.80433938801E+02  0.00000000000E+00 0. -1.
        -11    1    3    3    0    0 -0.20844020779E+02  0.38277003819E+02  0.93197142004E+02  0.10288493331E+03  0.00000000000E+00 0. -1.
         11    1    3    3    0    0  0.10374894398E+02 -0.37292855391E+02  0.23393503333E+03  0.23711599549E+03  0.00000000000E+00 0.  1.
          2    1    1    2  501    0 -0.25827552884E+02  0.31414114824E+02 -0.30782515680E+02  0.51004630866E+02  0.00000000000E+00 0. -1.
<scales pt_clust_5="13000.00000" pt_clust_6="13000.00000" pt_clust_7="13000.00000" pt_clust_8="13000.00000" pt_clust_9="40.66828"></scales>
<clustering>
<clus scale="   40.668">  2  9  1 -1</clus>
<clus scale="   91.220">  5  6 -1 -1</clus>
<clus scale="   92.058">  7  8 -1 -1</clus>
<clus scale="   92.439">  2  5  1 -1</clus>
<clus scale="   40.668">  2  5  1 -1</clus>
</clustering>
</event>
<event>
 9    1  0.1671478E-005  0.9587447E+02  0.7546771E-02  0.1293954E+00
          1   -1    0    0  502    0 -0.00000000000E+00  0.00000000000E+00  0.26147937982E+02  0.26147937982E+02  0.00000000000E+00 0. -1.
         21   -1    0    0  501  502  0.00000000000E+00 -0.00000000000E+00 -0.56572390621E+03  0.56572390621E+03  0.00000000000E+00 0.  1.
         23    2    1    2    0    0  0.98258302789E+01 -0.20284489674E+02 -0.10702278252E+03  0.13707499987E+03  0.82629729211E+02 0.  0.
         23    2    1    2    0    0 -0.26703635550E+01  0.46048997057E+02 -0.24675564618E+03  0.26708500069E+03  0.91205305222E+02 0.  0.
        -13    1    3    3    0    0 -0.21943092265E+02 -0.41545563536E+02 -0.65835414544E+02  0.80881610740E+02  0.00000000000E+00 0.  1.
         13    1    3    3    0    0  0.31768922544E+02  0.21261073862E+02 -0.41187367978E+02  0.56193389134E+02  0.00000000000E+00 0. -1.
        -13    1    4    4    0    0  0.12469768598E+02 -0.25860058019E+02 -0.71073642889E+02  0.76653117635E+02  0.00000000000E+00 0. -1.
         13    1    4    4    0    0 -0.15140132153E+02  0.71909055077E+02 -0.17568200330E+03  0.19043188306E+03  0.00000000000E+00 0.  1.
          1    1    1    2  501    0 -0.71554667239E+01 -0.25764507384E+02 -0.18579753952E+03  0.18771184362E+03  0.00000000000E+00 0. -1.
<scales pt_clust_5="13000.00000" pt_clust_6="13000.00000" pt_clust_7="13000.00000" pt_clust_8="13000.00000" pt_clust_9="26.73968"></scales>
<clustering>
<clus scale="   26.740">  2  9  1 -1</clus>
<clus scale="   82.630">  5  6 -1 -1</clus>
<clus scale="   87.756">  1  5  2 -1</clus>
<clus scale="   91.205">  7  8 -1 -1</clus>
<clus scale="   26.740">  2  5  1 -1</clus>
</clustering>
</event>
<event>
 9    1  0.1671478E-005  0.2571164E+03  0.7546771E-02  0.1130672E+00
          2   -1    0    0  502    0 -0.00000000000E+00  0.00000000000E+00  0.35949169651E+03  0.35949169651E+03  0.00000000000E+00 0. -1.
         21   -1    0    0  501  502  0.00000000000E+00 -0.00000000000E+00 -0.10845869977E+04  0.10845869977E+04  0.00000000000E+00 0. -1.
         23    2    1    2    0    0 -0.10611400133E+03 -0.53860543984E+02 -0.46562923271E+03  0.48891166388E+03  0.89793614731E+02 0.  0.
         23    2    1    2    0    0  0.38810245232E+02  0.27508883572E+03  0.25409062985E+03  0.39195105483E+03  0.10901136882E+03 0.  0.
        -13    1    3    3    0    0 -0.98614038298E+02 -0.41085613932E+01 -0.30159408503E+03  0.31733357993E+03  0.00000000000E+00 0. -1.
         13    1    3    3    0    0 -0.74999630312E+01 -0.49751982591E+02 -0.16403514768E+03  0.17157808395E+03  0.00000000000E+00 0.  1.
        -13    1    4    4    0    0  0.14733776351E+02  0.24518127867E+03  0.25430467091E+03  0.35355594920E+03  0.00000000000E+00 0. -1.
         13    1    4    4    0    0  0.24076468880E+02  0.29907557054E+02 -0.21404105081E+00  0.38395105629E+02  0.00000000000E+00 0.  1.
          2    1    1    2  501    0  0.67303756098E+02 -0.22122829174E+03 -0.51355669838E+03  0.56321597554E+03  0.00000000000E+00 0. -1.
<scales pt_clust_5="13000.00000" pt_clust_6="13000.00000" pt_clust_7="13000.00000" pt_clust_8="13000.00000" pt_clust_9="232.86345"></scales>
<clustering>
<clus scale="   89.794">  5  6 -1 -1</clus>
<clus scale="  109.011">  7  8 -1 -1</clus>
<clus scale="  149.077">  1  5  2 -1</clus>
<clus scale="  232.863">  2  9  1 -1</clus>
<clus scale="  232.863">  2  5  1 -1</clus>
</clustering>
</event>
<event>
 9    1  0.1671478E-005  0.1257685E+03  0.7546771E-02  0.1234488E+00
         21   -1    0    0  501  502  0.00000000000E+00  0.00000000000E+00  0.45609808955E+03  0.45609808955E+03  0.00000000000E+00 0.  1.
          3   -1    0    0  502    0 -0.00000000000E+00 -0.00000000000E+00 -0.55256182269E+02  0.55256182269E+02  0.00000000000E+00 0. -1.
         23    2    1    2    0    0  0.19533070875E+02  0.77386766227E+02  0.61345932472E+02  0.13667137147E+03  0.92441808206E+02 0.  0.
         23    2    1    2    0    0 -0.23884109085E+02 -0.99180377472E+02  0.28795670115E+03  0.31855634910E+03  0.90287805808E+02 0.  0.
        -11    1    4    4    0    0  0.25534919315E+02 -0.25129383992E+02  0.33783221798E+02  0.49242503179E+02  0.00000000000E+00 0. -1.
         11    1    4    4    0    0 -0.49419028400E+02 -0.74050993480E+02  0.25417347935E+03  0.26931384593E+03  0.00000000000E+00 0.  1.
        -11    1    3    3    0    0  0.52969317211E+02  0.39710548992E+02  0.14264595087E+02  0.67721155779E+02  0.00000000000E+00 0. -1.
         11    1    3    3    0    0 -0.33436246337E+02  0.37676217235E+02  0.47081337384E+02  0.68950215693E+02  0.00000000000E+00 0.  1.
          3    1    1    2  501    0  0.43510382102E+01  0.21793611245E+02  0.51539273658E+02  0.56126551237E+02  0.00000000000E+00 0. -1.
<scales pt_clust_5="13000.00000" pt_clust_6="13000.00000" pt_clust_7="13000.00000" pt_clust_8="13000.00000" pt_clust_9="22.22370"></scales>
<clustering>
<clus scale="   22.224">  1  9  2 -1</clus>
<clus scale="   90.288">  5  6 -1 -1</clus>
<clus scale="   92.442">  7  8 -1 -1</clus>
<clus scale="  124.194">  1  5  2 -1</clus>
<clus scale="   22.224">  1  5  2 -1</clus>
</clustering>
</event>
<event>
 9    1  0.1671478E-005  0.2306772E+03  0.7546771E-02  0.1126212E+00
         21   -1    0    0  501  502  0.00000000000E+00  0.00000000000E+00  0.82154087618E+02  0.82154087618E+02  0.00000000000E+00 0. -1.
          2   -1    0    0  502    0 -0.00000000000E+00 -0.00000000000E+00 -0.19779026935E+04  0.19779026935E+04  0.00000000000E+00 0. -1.
         23    2    1    2    0    0 -0.92549775441E+01  0.19579648706E+03 -0.87805621158E+03  0.90424254484E+03  0.90829236839E+02 0.  0.
         23    2    1    2    0    0  0.85693257604E+01 -0.22841636877E+03 -0.10679107216E+04  0.10959276168E+04  0.91523554439E+02 0.  0.
        -11    1    3    3    0    0 -0.42413031760E+02  0.12443655525E+03 -0.44174389545E+03  0.46089151729E+03  0.00000000000E+00 0. -1.
         11    1    3    3    0    0  0.33158054216E+02  0.71359931812E+02 -0.43631231613E+03  0.44335102756E+03  0.00000000000E+00 0.  1.
        -11    1    4    4    0    0 -0.16075897347E+02 -0.10063065046E+03 -0.29423503025E+03  0.31138274729E+03  0.00000000000E+00 0.  1.
         11    1    4    4    0    0  0.24645223108E+02 -0.12778571831E+03 -0.77367569139E+03  0.78454486951E+03  0.00000000000E+00 0. -1.
          2    1    1    2  501    0  0.68565178376E+00  0.32619881711E+02  0.50218327288E+02  0.59886619514E+02  0.00000000000E+00 0. -1.
<scales pt_clust_5="13000.00000" pt_clust_6="13000.00000" pt_clust_7="13000.00000" pt_clust_8="13000.00000" pt_clust_9="32.62709"></scales>
<clustering>
<clus scale="   32.627">  1  9  2 -1</clus>
<clus scale="   90.829">  5  6 -1 -1</clus>
<clus scale="   91.524">  7  8 -1 -1</clus>
<clus scale="  230.403">  2  5  1 -1</clus>
<clus scale="   32.627">  1  5  2 -1</clus>
</clustering>
</event>
<event>
 9    1  0.1671478E-005  0.9496915E+02  0.7546771E-02  0.1291348E+00
         21   -1    0    0  501  502  0.00000000000E+00  0.00000000000E+00  0.62660096664E+02  0.62660096664E+02  0.00000000000E+00 0.  1.
          3   -1    0    0  502    0 -0.00000000000E+00 -0.00000000000E+00 -0.43537188959E+03  0.43537188959E+03  0.00000000000E+00 0. -1.
         23    2    1    2    0    0  0.10945173145E+02  0.88900922195E+01 -0.26372897478E+03  0.27950506688E+03  0.91494697738E+02 0.  0.
         23    2    1    2    0    0 -0.24265174066E+00 -0.72455278138E+02 -0.99288188154E+02  0.15334208467E+03  0.91683283172E+02 0.  0.
        -11    1    3    3    0    0  0.26975879554E+01 -0.40452760137E+02 -0.89871669751E+02  0.98593203657E+02  0.00000000000E+00 0.  1.
         11    1    3    3    0    0  0.82475851896E+01  0.49342852357E+02 -0.17385730503E+03  0.18091186322E+03  0.00000000000E+00 0. -1.
        -13    1    4    4    0    0 -0.26493843156E+02  0.12505265086E+01  0.51196376237E+00  0.26528280167E+02  0.00000000000E+00 0.  1.
         13    1    4    4    0    0  0.26251191415E+02 -0.73705804647E+02 -0.99800151916E+02  0.12681380450E+03  0.00000000000E+00 0. -1.
          3    1    1    2  501    0 -0.10702521404E+02  0.63565185919E+02 -0.96946299860E+01  0.65184834708E+02  0.00000000000E+00 0. -1.
<scales pt_clust_5="13000.00000" pt_clust_6="13000.00000" pt_clust_7="13000.00000" pt_clust_8="13000.00000" pt_clust_9="64.45989"></scales>
<clustering>
<clus scale="   64.460">  1  9  2 -1</clus>
<clus scale="   91.495">  5  6 -1 -1</clus>
<clus scale="   91.683">  7  8 -1 -1</clus>
<clus scale="   94.787">  2  5  1 -1</clus>
<clus scale="   64.460">  1  5  2 -1</clus>
</clustering>
</event>
<event>
 9    1  0.1671478E-005  0.1068127E+03  0.7546771E-02  0.1267793E+00
         21   -1    0    0  501  502  0.00000000000E+00  0.00000000000E+00  0.25486662431E+03  0.25486662431E+03  0.00000000000E+00 0.  1.
          2   -1    0    0  502    0 -0.00000000000E+00 -0.00000000000E+00 -0.30439174817E+03  0.30439174817E+03  0.00000000000E+00 0. -1.
         23    2    1    2    0    0  0.15874270556E+02  0.45680333255E+02 -0.21129846005E+03  0.23447243008E+03  0.89395726597E+02 0.  0.
         23    2    1    2    0    0 -0.44347651518E+01 -0.14505884353E+03  0.14153090795E+03  0.22272367469E+03  0.92266473515E+02 0.  0.
        -11    1    3    3    0    0  0.41290560006E+01 -0.27311236829E+02 -0.61842781143E+02  0.67730955553E+02  0.00000000000E+00 0.  1.
         11    1    3    3    0    0  0.11745214555E+02  0.72991570084E+02 -0.14945567891E+03  0.16674147452E+03  0.00000000000E+00 0. -1.
        -13    1    4    4    0    0  0.23209348061E+02 -0.13273721806E+03  0.13692371736E+03  0.19210920663E+03  0.00000000000E+00 0.  1.
         13    1    4    4    0    0 -0.27644113213E+02 -0.12321625465E+02  0.46071905888E+01  0.30614468059E+02  0.00000000000E+00 0. -1.
          2    1    1    2  501    0 -0.11439505404E+02  0.99378510272E+02  0.20242428241E+02  0.10206226770E+03  0.00000000000E+00 0. -1.
<scales pt_clust_5="13000.00000" pt_clust_6="13000.00000" pt_clust_7="13000.00000" pt_clust_8="13000.00000" pt_clust_9="100.03475"></scales>
<clustering>
<clus scale="   89.396">  5  6 -1 -1</clus>
<clus scale="   92.266">  7  8 -1 -1</clus>
<clus scale="  100.035">  1  9  2 -1</clus>
<clus scale="  104.343">  2  5  1 -1</clus>
<clus scale="  100.035">  1  5  2 -1</clus>
</clustering>
</event>
<event>
 9    1  0.1671478E-005  0.1164514E+03  0.7546771E-02  0.1255531E+00
         21   -1    0    0  501  502  0.00000000000E+00  0.00000000000E+00  0.44268268671E+02  0.44268268671E+02  0.00000000000E+00 0. -1.
          2   -1    0    0  502    0 -0.00000000000E+00 -0.00000000000E+00 -0.45051473926E+03  0.45051473926E+03  0.00000000000E+00 0. -1.
         23    2    1    2    0    0  0.58548298122E+02  0.13435617616E+02 -0.22271019476E+03  0.24798897975E+03  0.91050997770E+02 0.  0.
         23    2    1    2    0    0 -0.93874801973E+02  0.76956153968E+01 -0.16052074445E+03  0.19963254423E+03  0.72211788356E+02 0.  0.
        -11    1    3    3    0    0  0.56884986471E+02 -0.30227651699E+02 -0.14851002882E+03  0.16187909461E+03  0.00000000000E+00 0. -1.
         11    1    3    3    0    0  0.16633116508E+01  0.43663269315E+02 -0.74200165939E+02  0.86109885137E+02  0.00000000000E+00 0.  1.
        -13    1    4    4    0    0 -0.79500823924E+02 -0.19327736494E+02 -0.84203272323E+02  0.11740584940E+03  0.00000000000E+00 0.  1.
         13    1    4    4    0    0 -0.14373978049E+02  0.27023351891E+02 -0.76317472125E+02  0.82226694838E+02  0.00000000000E+00 0. -1.
          2    1    1    2  501    0  0.35326503851E+02 -0.21131233013E+02 -0.23015531381E+02  0.47161483944E+02  0.00000000000E+00 0. -1.
<scales pt_clust_5="13000.00000" pt_clust_6="13000.00000" pt_clust_7="13000.00000" pt_clust_8="13000.00000" pt_clust_9="41.16419"></scales>
<clustering>
<clus scale="   41.164">  1  9  2 -1</clus>
<clus scale="   72.212">  7  8 -1 -1</clus>
<clus scale="   91.051">  5  6 -1 -1</clus>
<clus scale="  102.397">  1  7  2 -1</clus>
<clus scale="   41.164">  1  5  2 -1</clus>
</clustering>
</event>
<event>
 9    1  0.1671478E-005  0.2490135E+03  0.7546771E-02  0.1125267E+00
         21   -1    0    0  501  502  0.00000000000E+00  0.00000000000E+00  0.77295330697E+03  0.77295330697E+03  0.00000000000E+00 0. -1.
          1   -1    0    0  502    0 -0.00000000000E+00 -0.00000000000E+00 -0.14190389402E+04  0.14190389402E+04  0.00000000000E+00 0. -1.
         23    2    1    2    0    0 -0.96547525873E+02  0.13387756762E+03 -0.53278414285E+03  0.56481339949E+03  0.88941584798E+02 0.  0.
         23    2    1    2    0    0  0.17577024695E+03  0.82452914449E+02 -0.83845354916E+03  0.86631051125E+03  0.98974163287E+02 0.  0.
        -13    1    3    3    0    0 -0.10897187958E+03  0.88307441930E+02 -0.39996591509E+03  0.42384644398E+03  0.00000000000E+00 0. -1.
         13    1    3    3    0    0  0.12424353710E+02  0.45570125690E+02 -0.13281822776E+03  0.14096695551E+03  0.00000000000E+00 0.  1.
        -13    1    4    4    0    0  0.26501433632E+02 -0.12668431946E+01 -0.30479023474E+02  0.40409179008E+02  0.00000000000E+00 0.  1.
         13    1    4    4    0    0  0.14926881331E+03  0.83719757644E+02 -0.80797452569E+03  0.82590133225E+03  0.00000000000E+00 0. -1.
          1    1    1    2  501    0 -0.79222721073E+02 -0.21633048207E+03  0.72515205878E+03  0.76086833642E+03  0.00000000000E+00 0. -1.
<scales pt_clust_5="13000.00000" pt_clust_6="13000.00000" pt_clust_7="13000.00000" pt_clust_8="13000.00000" pt_clust_9="228.49915"></scales>
<clustering>
<clus scale="   88.942">  5  6 -1 -1</clus>
<clus scale="   98.974">  7  8 -1 -1</clus>
<clus scale="  187.497">  2  5  1 -1</clus>
<clus scale="  228.499">  1  9  2 -1</clus>
<clus scale="  228.499">  1  5  2 -1</clus>
</clustering>
</event>
<event>
 9    1  0.1671478E-005  0.1567343E+03  0.7546771E-02  0.1192827E+00
         -1   -1    0    0    0  501 -0.00000000000E+00  0.00000000000E+00  0.55264977808E+03  0.55264977808E+03  0.00000000000E+00 0.  1.
         21   -1    0    0  501  502  0.00000000000E+00 -0.00000000000E+00 -0.14743521720E+03  0.14743521720E+03  0.00000000000E+00 0. -1.
         23    2    1    2    0    0  0.12910123257E+03  0.38891615384E+02  0.45362579592E+03  0.48205344812E+03  0.91757714225E+02 0.  0.
         23    2    1    2    0    0 -0.99611496588E+02  0.10436296394E+02  0.11805860817E+02  0.13479101592E+03  0.89430828512E+02 0.  0.
        -13    1    3    3    0    0  0.11019744045E+02 -0.19176411754E+02  0.23593446803E+02  0.32339144370E+02  0.00000000000E+00 0. -1.
         13    1    3    3    0    0  0.11808148853E+03  0.58068027138E+02  0.43003234912E+03  0.44971430375E+03  0.00000000000E+00 0.  1.
        -13    1    4    4    0    0 -0.21674263106E+02  0.29874233801E+02  0.35329976282E+02  0.51092570404E+02  0.00000000000E+00 0.  1.
         13    1    4    4    0    0 -0.77937233482E+02 -0.19437937407E+02 -0.23524115465E+02  0.83698445517E+02  0.00000000000E+00 0. -1.
         -1    1    1    2    0  502 -0.29489735986E+02 -0.49327911778E+02 -0.60217095857E+02  0.83240531247E+02  0.00000000000E+00 0.  1.
<scales pt_clust_5="13000.00000" pt_clust_6="13000.00000" pt_clust_7="13000.00000" pt_clust_8="13000.00000" pt_clust_9="57.47075"></scales>
<clustering>
<clus scale="   57.471">  2  9  1 -1</clus>
<clus scale="   89.431">  7  8 -1 -1</clus>
<clus scale="   91.758">  5  6 -1 -1</clus>
<clus scale="  155.383">  2  7  1 -1</clus>
<clus scale="   57.471">  2  5  1 -1</clus>
</clustering>
</event>
<event>
 9    1  0.1671478E-005  0.1042688E+03  0.7546771E-02  0.1272197E+00
          3   -1    0    0  502    0 -0.00000000000E+00  0.00000000000E+00  0.19544473410E+03  0.19544473410E+03  0.00000000000E+00 0. -1.
         21   -1    0    0  501  502  0.00000000000E+00 -0.00000000000E+00 -0.50980885358E+03  0.50980885358E+03  0.00000000000E+00 0.  1.
         23    2    1    2    0    0 -0.20716205884E+02  0.40810043926E+02  0.16418321507E+03  0.19402246851E+03  0.92703663932E+02 0.  0.
         23    2    1    2    0    0  0.33780740516E+02 -0.71748293257E+02 -0.22468858181E+03  0.25516057482E+03  0.91285289806E+02 0.  0.
        -11    1    4    4    0    0  0.20704940995E+02 -0.90964670566E+02 -0.20281974560E+03  0.22324675827E+03  0.00000000000E+00 0.  1.
         11    1    4    4    0    0  0.13075799521E+02  0.19216377309E+02 -0.21868836207E+02  0.31913816554E+02  0.00000000000E+00 0. -1.
        -13    1    3    3    0    0  0.33953901350E+02  0.12656026352E+02  0.32444689917E+02  0.48638465475E+02  0.00000000000E+00 0.  1.
         13    1    3    3    0    0 -0.54670107234E+02  0.28154017574E+02  0.13173852515E+03  0.14538400304E+03  0.00000000000E+00 0. -1.
          3    1    1    2  501    0 -0.13064534632E+02  0.30938249331E+02 -0.25385875275E+03  0.25607054435E+03  0.00000000000E+00 0. -1.
<scales pt_clust_5="13000.00000" pt_clust_6="13000.00000" pt_clust_7="13000.00000" pt_clust_8="13000.00000" pt_clust_9="33.58359"></scales>
<clustering>
<clus scale="   33.584">  2  9  1 -1</clus>
<clus scale="   91.285">  5  6 -1 -1</clus>
<clus scale="   92.704">  7  8 -1 -1</clus>
<clus scale="  103.010">  2  5  1 -1</clus>
<clus scale="   33.584">  2  5  1 -1</clus>
</clustering>
</event>
<event>
 9    1  0.1671478E-005  0.9969096E+02  0.7546771E-02  0.1281850E+00
          1   -1    0    0  502    0 -0.00000000000E+00  0.00000000000E+00  0.14606298691E+03  0.14606298691E+03  0.00000000000E+00 0. -1.
         21   -1    0    0  501  502  0.00000000000E+00 -0.00000000000E+00 -0.15017646748E+03  0.15017646748E+03  0.00000000000E+00 0. -1.
         23    2    1    2    0    0  0.25853341893E+02  0.41666004707E+02  0.56213461855E+02  0.11927999108E+03  0.93076913056E+02 0.  0.
         23    2    1    2    0    0 -0.18575130679E+02 -0.98190249732E+01  0.15011358325E+02  0.94843313639E+02  0.91260421499E+02 0.  0.
        -11    1    3    3    0    0 -0.28676443314E+02 -0.85620338931E+01  0.24364023909E+02  0.38590834230E+02  0.00000000000E+00 0.  1.
         11    1    3    3    0    0  0.54529785207E+02  0.50228038600E+02  0.31849437946E+02  0.80689156854E+02  0.00000000000E+00 0. -1.
        -13    1    4    4    0    0 -0.27375635243E+02  0.13631609052E+02 -0.30312269078E+02  0.43059027241E+02  0.00000000000E+00 0.  1.
         13    1    4    4    0    0  0.88005045641E+01 -0.23450634025E+02  0.45323627403E+02  0.51784286398E+02  0.00000000000E+00 0. -1.
          1    1    1    2  501    0 -0.72782112137E+01 -0.31846979734E+02 -0.75338300744E+02  0.82116149664E+02  0.00000000000E+00 0. -1.
<scales pt_clust_5="13000.00000" pt_clust_6="13000.00000" pt_clust_7="13000.00000" pt_clust_8="13000.00000" pt_clust_9="32.66807"></scales>
<clustering>
<clus scale="   32.668">  2  9  1 -1</clus>
<clus scale="   91.260">  7  8 -1 -1</clus>
<clus scale="   93.077">  5  6 -1 -1</clus>
<clus scale="   97.997">  2  7  1 -1</clus>
<clus scale="   32.668">  2  5  1 -1</clus>
</clustering>
</event>
<event>
 9    1  0.1671478E-005  0.1885733E+03  0.7546771E-02  0.1172437E+00
         21   -1    0    0  501  502  0.00000000000E+00  0.00000000000E+00  0.26003008239E+03  0.26003008239E+03  0.00000000000E+00 0.  1.
          2   -1    0    0  502    0 -0.00000000000E+00 -0.00000000000E+00 -0.30222308553E+03  0.30222308553E+03  0.00000000000E+00 0. -1.
         23    2    1    2    0    0  0.10814874656E+02  0.10764654750E+03  0.27162312373E+02  0.14340323573E+03  0.90121895796E+02 0.  0.
         23    2    1    2    0    0  0.78689710709E+02  0.11102710873E+03  0.21576207795E+02  0.16567453712E+03  0.91996902473E+02 0.  0.
        -11    1    4    4    0    0  0.55897408869E+02  0.12516424071E+03  0.22099253076E+02  0.13884878270E+03  0.00000000000E+00 0.  1.
         11    1    4    4    0    0  0.22792301839E+02 -0.14137131985E+02 -0.52304528091E+00  0.26825754421E+02  0.00000000000E+00 0. -1.
        -13    1    3    3    0    0 -0.30002378716E+02  0.91197244731E+02  0.11499509736E+02  0.96691876077E+02  0.00000000000E+00 0.  1.
         13    1    3    3    0    0  0.40817253371E+02  0.16449302774E+02  0.15662802637E+02  0.46711359656E+02  0.00000000000E+00 0. -1.
          2    1    1    2  501    0 -0.89504585365E+02 -0.21867365623E+03 -0.90931523309E+02  0.25317539506E+03  0.00000000000E+00 0. -1.
<scales pt_clust_5="13000.00000" pt_clust_6="13000.00000" pt_clust_7="13000.00000" pt_clust_8="13000.00000" pt_clust_9="164.61014"></scales>
<clustering>
<clus scale="   90.122">  7  8 -1 -1</clus>
<clus scale="   91.997">  5  6 -1 -1</clus>
<clus scale="  140.807">  2  7  1 -1</clus>
<clus scale="  164.610">  1  9  2 -1</clus>
<clus scale="  164.610">  1  5  2 -1</clus>
</clustering>
</event>
<event>
 9    1  0.1671478E-005  0.1153005E+03  0.7546771E-02  0.1251504E+00
         21   -1    0    0  501  502  0.00000000000E+00  0.00000000000E+00  0.28196340786E+03  0.28196340786E+03  0.00000000000E+00 0.  1.
         -1   -1    0    0    0  501 -0.00000000000E+00 -0.00000000000E+00 -0.11941576257E+03  0.11941576257E+03  0.00000000000E+00 0.  1.
         23    2    1    2    0    0  0.47820221061E+02  0.52055095923E+02 -0.15545958390E+02  0.11675691899E+03  0.91618746748E+02 0.  0.
         23    2    1    2    0    0  0.14913232806E+02 -0.83715494071E+02  0.44301508387E+02  0.13349914994E+03  0.92890854924E+02 0.  0.
        -11    1    3    3    0    0  0.71870220756E+02  0.19957889403E+02 -0.26871024218E+01  0.74638237521E+02  0.00000000000E+00 0.  1.
         11    1    3    3    0    0 -0.24049999695E+02  0.32097206520E+02 -0.12858855968E+02  0.42118681467E+02  0.00000000000E+00 0. -1.
        -13    1    4    4    0    0  0.48589599651E+02 -0.60126988739E+02  0.49887943160E+02  0.92005493541E+02  0.00000000000E+00 0.  1.
         13    1    4    4    0    0 -0.33676366845E+02 -0.23588505332E+02 -0.55864347734E+01  0.41493656396E+02  0.00000000000E+00 0. -1.
         -1    1    1    2    0  502 -0.62733453867E+02  0.31660398148E+02  0.13379209529E+03  0.15112310150E+03  0.00000000000E+00 0.  1.
<scales pt_clust_5="13000.00000" pt_clust_6="13000.00000" pt_clust_7="13000.00000" pt_clust_8="13000.00000" pt_clust_9="70.26996"></scales>
<clustering>
<clus scale="   70.270">  1  9  2 -1</clus>
<clus scale="   91.619">  5  6 -1 -1</clus>
<clus scale="   92.891">  7  8 -1 -1</clus>
<clus scale="  114.278">  2  5  1 -1</clus>
<clus scale="   70.270">  1  5  2 -1</clus>
</clustering>
</event>
<event>
 9    1  0.1671478E-005  0.2433383E+03  0.7546771E-02  0.1117622E+00
         21   -1    0    0  501  502  0.00000000000E+00  0.00000000000E+00  0.41862908236E+03  0.41862908236E+03  0.00000000000E+00 0.  1.
          1   -1    0    0  502    0 -0.00000000000E+00 -0.00000000000E+00 -0.12881191430E+04  0.12881191430E+04  0.00000000000E+00 0. -1.
         23    2    1    2    0    0 -0.76683015318E+02  0.21108562393E+03 -0.12036719390E+04  0.12278960206E+04  0.92005843953E+02 0.  0.
         23    2    1    2    0    0  0.10394982371E+03 -0.22605558804E+03  0.35378775602E+03  0.44208307220E+03  0.91460219134E+02 0.  0.
        -11    1    3    3    0    0 -0.60433175325E+02  0.45090164360E+02 -0.41249012161E+03  0.41932492416E+03  0.00000000000E+00 0.  1.
         11    1    3    3    0    0 -0.16249839992E+02  0.16599545957E+03 -0.79118181739E+03  0.80857109648E+03  0.00000000000E+00 0. -1.
        -13    1    4    4    0    0  0.57047720124E+02 -0.32291164092E+02  0.94598637891E+02  0.11509154591E+03  0.00000000000E+00 0. -1.
         13    1    4    4    0    0  0.46902103591E+02 -0.19376442395E+03  0.25918911813E+03  0.32699152629E+03  0.00000000000E+00 0.  1.
          1    1    1    2  501    0 -0.27266808397E+02  0.14969964113E+02 -0.19605877648E+02  0.36769132489E+02  0.00000000000E+00 0. -1.
<scales pt_clust_5="13000.00000" pt_clust_6="13000.00000" pt_clust_7="13000.00000" pt_clust_8="13000.00000" pt_clust_9="31.10594"></scales>
<clustering>
<clus scale="   31.106">  1  9  2 -1</clus>
<clus scale="   91.460">  7  8 -1 -1</clus>
<clus scale="   92.006">  5  6 -1 -1</clus>
<clus scale="  243.133">  1  7  2 -1</clus>
<clus scale="   31.106">  1  5  2 -1</clus>
</clustering>
</event>
<event>
 9    1  0.1671478E-005  0.1369747E+03  0.7546771E-02  0.1217530E+00
          2   -1    0    0  502    0 -0.00000000000E+00  0.00000000000E+00  0.11716854348E+03  0.11716854348E+03  0.00000000000E+00 0. -1.
         21   -1    0    0  501  502  0.00000000000E+00 -0.00000000000E+00 -0.36240742784E+03  0.36240742784E+03  0.00000000000E+00 0. -1.
         23    2    1    2    0    0 -0.67630180670E+02 -0.63979701898E+02  0.23262270066E+02  0.13207512223E+03  0.90749441380E+02 0.  0.
         23    2    1    2    0    0  0.10746221020E+03  0.83220131150E+02 -0.15270727995E+03  0.22354518742E+03  0.90439043679E+02 0.  0.
        -13    1    4    4    0    0  0.10063634772E+03  0.38545837734E+02 -0.67685574586E+02  0.12725876432E+03  0.00000000000E+00 0. -1.
         13    1    4    4    0    0  0.68258624719E+01  0.44674293416E+02 -0.85021705359E+02  0.96286423097E+02  0.00000000000E+00 0.  1.
        -13    1    3    3    0    0 -0.35747555285E+02  0.13045060811E+02 -0.14285820023E+02  0.40646598556E+02  0.00000000000E+00 0.  1.
         13    1    3    3    0    0 -0.31882625385E+02 -0.77024762708E+02  0.37548090089E+02  0.91428523673E+02  0.00000000000E+00 0. -1.
          2    1    1    2  501    0 -0.39832029526E+02 -0.19240429252E+02 -0.11579387448E+03  0.12395566167E+03  0.00000000000E+00 0. -1.
<scales pt_clust_5="13000.00000" pt_clust_6="13000.00000" pt_clust_7="13000.00000" pt_clust_8="13000.00000" pt_clust_9="44.23556"></scales>
<clustering>
<clus scale="   44.236">  2  9  1 -1</clus>
<clus scale="   90.439">  5  6 -1 -1</clus>
<clus scale="   90.749">  7  8 -1 -1</clus>
<clus scale="  136.769">  2  5  1 -1</clus>
<clus scale="   44.236">  2  5  1 -1</clus>
</clustering>
</event>
<event>
 9    1  0.1671478E-005  0.1007102E+03  0.7546771E-02  0.1279818E+00
          1   -1    0    0  502    0 -0.00000000000E+00  0.00000000000E+00  0.20789233256E+03  0.20789233256E+03  0.00000000000E+00 0. -1.
         21   -1    0    0  501  502  0.00000000000E+00 -0.00000000000E+00 -0.18172604662E+03  0.18172604662E+03  0.00000000000E+00 0. -1.
         23    2    1    2    0    0 -0.77756356775E+01 -0.25568332899E+02  0.90467034544E+02  0.13326175429E+03  0.94128692007E+02 0.  0.
         23    2    1    2    0    0 -0.56791281584E+01  0.49540032988E+02  0.65610941687E+02  0.12356837108E+03  0.92075400063E+02 0.  0.
        -13    1    4    4    0    0 -0.10933492661E+02  0.75754407104E+02  0.57163623296E+02  0.95529845000E+02  0.00000000000E+00 0. -1.
         13    1    4    4    0    0  0.52543645030E+01 -0.26214374116E+02  0.84473183909E+01  0.28038526078E+02  0.00000000000E+00 0.  1.
        -13    1    3    3    0    0  0.34542272555E+02  0.10201137638E+02  0.60127016196E+02  0.70089156644E+02  0.00000000000E+00 0. -1.
         13    1    3    3    0    0 -0.42317908232E+02 -0.35769470537E+02  0.30340018348E+02  0.63172597643E+02  0.00000000000E+00 0.  1.
          1    1    1    2  501    0  0.13454763836E+02 -0.23971700089E+02 -0.12991169030E+03  0.13278825381E+03  0.00000000000E+00 0. -1.
<scales pt_clust_5="13000.00000" pt_clust_6="13000.00000" pt_clust_7="13000.00000" pt_clust_8="13000.00000" pt_clust_9="27.48951"></scales>
<clustering>
<clus scale="   27.490">  2  9  1 -1</clus>
<clus scale="   92.075">  5  6 -1 -1</clus>
<clus scale="   94.129">  7  8 -1 -1</clus>
<clus scale="   98.794">  2  5  1 -1</clus>
<clus scale="   27.490">  2  5  1 -1</clus>
</clustering>
</event>
<event>
 9    1  0.1671478E-005  0.1032602E+03  0.7546771E-02  0.1273861E+00
         -4   -1    0    0    0  501 -0.00000000000E+00  0.00000000000E+00  0.24816661936E+03  0.24816661936E+03  0.00000000000E+00 0.  1.
         21   -1    0    0  501  502  0.00000000000E+00 -0.00000000000E+00 -0.74015087714E+02  0.74015087714E+02  0.00000000000E+00 0. -1.
         23    2    1    2    0    0 -0.50308077641E+02 -0.25611940502E+02  0.15032692083E+03  0.18431587094E+03  0.90483606147E+02 0.  0.
         23    2    1    2    0    0  0.20078748165E+02  0.25221554128E+02 -0.56601933081E+01  0.95636480986E+02  0.89861091617E+02 0.  0.
        -11    1    3    3    0    0 -0.16134333160E+02  0.33478710251E+02  0.40175677531E+02  0.54728656220E+02  0.00000000000E+00 0. -1.
         11    1    3    3    0    0 -0.34173744481E+02 -0.59090650752E+02  0.11015124330E+03  0.12958721472E+03  0.00000000000E+00 0.  1.
        -13    1    4    4    0    0  0.52097083485E+02 -0.37114927363E+01 -0.51118150870E+01  0.52478680809E+02  0.00000000000E+00 0.  1.
         13    1    4    4    0    0 -0.32018335320E+02  0.28933046864E+02 -0.54837822112E+00  0.43157800177E+02  0.00000000000E+00 0. -1.
         -4    1    1    2    0  502  0.30229329476E+02  0.39038637422E+00  0.29484804126E+02  0.42229355151E+02  0.00000000000E+00 0.  1.
<scales pt_clust_5="13000.00000" pt_clust_6="13000.00000" pt_clust_7="13000.00000" pt_clust_8="13000.00000" pt_clust_9="30.23187"></scales>
<clustering>
<clus scale="   30.232">  2  9  1 -1</clus>
<clus scale="   89.861">  7  8 -1 -1</clus>
<clus scale="   90.484">  5  6 -1 -1</clus>
<clus scale="  102.715">  2  7  1 -1</clus>
<clus scale="   30.232">  2  5  1 -1</clus>
</clustering>
</event>
<event>
 9    1  0.1671478E-005  0.2702397E+03  0.7546771E-02  0.1101185E+00
         21   -1    0    0  501  502  0.00000000000E+00  0.00000000000E+00  0.24435532790E+03  0.24435532790E+03  0.00000000000E+00 0.  1.
          1   -1    0    0  502    0 -0.00000000000E+00 -0.00000000000E+00 -0.84857631905E+03  0.84857631905E+03  0.00000000000E+00 0. -1.
         23    2    1    2    0    0  0.72465077327E+02 -0.23335087254E+03 -0.61067135489E+03  0.66403216417E+03  0.91188783433E+02 0.  0.
         23    2    1    2    0    0 -0.11874638066E+03  0.27560772008E+03 -0.78270412701E+02  0.32351822182E+03  0.92073145141E+02 0.  0.
        -11    1    4    4    0    0 -0.10508709782E+03  0.15180188760E+03 -0.19072792196E+02  0.18560948954E+03  0.00000000000E+00 0. -1.
         11    1    4    4    0    0 -0.13659282841E+02  0.12380583248E+03 -0.59197620504E+02  0.13790873227E+03  0.00000000000E+00 0.  1.
        -11    1    3    3    0    0  0.53940240053E+02 -0.14048737985E+03 -0.25616897838E+03  0.29710065446E+03  0.00000000000E+00 0.  1.
         11    1    3    3    0    0  0.18524837274E+02 -0.92863492689E+02 -0.35450237651E+03  0.36693150971E+03  0.00000000000E+00 0. -1.
          1    1    1    2  501    0  0.46281303332E+02 -0.42256847539E+02  0.84720776443E+02  0.10538126097E+03  0.00000000000E+00 0. -1.
<scales pt_clust_5="13000.00000" pt_clust_6="13000.00000" pt_clust_7="13000.00000" pt_clust_8="13000.00000" pt_clust_9="62.67057"></scales>
<clustering>
<clus scale="   62.671">  1  9  2 -1</clus>
<clus scale="   91.189">  7  8 -1 -1</clus>
<clus scale="   92.073">  5  6 -1 -1</clus>
<clus scale="  269.940">  2  7  1 -1</clus>
<clus scale="   62.671">  1  5  2 -1</clus>
</clustering>
</event>
<event>
 9    1  0.2073318E-005  0.9445015E+02  0.7546771E-02  0.1292740E+00
          1   -1    0    0  502    0 -0.00000000000E+00  0.00000000000E+00  0.27743231878E+03  0.27743231878E+03  0.00000000000E+00 0. -1.
         21   -1    0    0  501  502  0.00000000000E+00 -0.00000000000E+00 -0.22336728603E+03  0.22336728603E+03  0.00000000000E+00 0. -1.
         23    2    1    2    0    0  0.10302052323E+02 -0.10804184362E+02  0.18911658806E+03  0.21049390026E+03  0.91212584021E+02 0.  0.
         23    2    1    2    0    0 -0.12129578530E+02  0.10252587878E+03 -0.13526103463E+02  0.13804065759E+03  0.90628831938E+02 0.  0.
        -11    1    4    4    0    0 -0.40017380696E+02  0.10069061409E+03 -0.36962822497E+01  0.10841426579E+03  0.00000000000E+00 0. -1.
         11    1    4    4    0    0  0.27887802166E+02  0.18352646871E+01 -0.98298212128E+01  0.29626391802E+02  0.00000000000E+00 0.  1.
        -11    1    3    3    0    0 -0.35753355049E+02 -0.23787223172E+02  0.69961421630E+02  0.82089797783E+02  0.00000000000E+00 0.  1.
         11    1    3    3    0    0  0.46055407373E+02  0.12983038811E+02  0.11915516643E+03  0.12840410248E+03  0.00000000000E+00 0. -1.
          1    1    1    2  501    0  0.18275262063E+01 -0.91721694416E+02 -0.12152545185E+03  0.15226504696E+03  0.00000000000E+00 0. -1.
<scales pt_clust_5="13000.00000" pt_clust_6="13000.00000" pt_clust_7="13000.00000" pt_clust_8="13000.00000" pt_clust_9="91.73990"></scales>
<clustering>
<clus scale="   90.629">  5  6 -1 -1</clus>
<clus scale="   91.213">  7  8 -1 -1</clus>
<clus scale="   91.740">  2  9  1 -1</clus>
<clus scale="   93.887">  2  5  1 -1</clus>
<clus scale="   91.740">  2  5  1 -1</clus>
</clustering>
</event>
<event>
 9    1  0.1671478E-005  0.1001201E+03  0.7546771E-02  0.1281046E+00
          3   -1    0    0  502    0 -0.00000000000E+00  0.00000000000E+00  0.27727557861E+03  0.27727557861E+03  0.00000000000E+00 0. -1.
         21   -1    0    0  501  502  0.00000000000E+00 -0.00000000000E+00 -0.82540864197E+02  0.82540864197E+02  0.00000000000E+00 0.  1.
         23    2    1    2    0    0 -0.17461801596E+02  0.24417517202E+02  0.14077237371E+03  0.17059503511E+03  0.91567871790E+02 0.  0.
         23    2    1    2    0    0  0.76917133591E+02 -0.28028652235E+02  0.29491528214E+02  0.12482577537E+03  0.89497894804E+02 0.  0.
        -11    1    4    4    0    0  0.56167015312E+02 -0.33832262605E+02 -0.21875903490E+02  0.69122433085E+02  0.00000000000E+00 0.  1.
         11    1    4    4    0    0  0.20750118279E+02  0.58036103707E+01  0.51367431703E+02  0.55703342285E+02  0.00000000000E+00 0. -1.
        -13    1    3    3    0    0 -0.20392520376E+02 -0.26079183612E+02  0.17714369626E+02  0.37547005159E+02  0.00000000000E+00 0.  1.
         13    1    3    3    0    0  0.29307187798E+01  0.50496700815E+02  0.12305800408E+03  0.13304802995E+03  0.00000000000E+00 0. -1.
          3    1    1    2  501    0 -0.59455331995E+02  0.36111350325E+01  0.24470812495E+02  0.64395632329E+02  0.00000000000E+00 0. -1.
<scales pt_clust_5="13000.00000" pt_clust_6="13000.00000" pt_clust_7="13000.00000" pt_clust_8="13000.00000" pt_clust_9="59.56490"></scales>
<clustering>
<clus scale="   59.565">  2  9  1 -1</clus>
<clus scale="   89.498">  5  6 -1 -1</clus>
<clus scale="   91.568">  7  8 -1 -1</clus>
<clus scale="   98.231">  2  5  1 -1</clus>
<clus scale="   59.565">  2  5  1 -1</clus>
</clustering>
</event>
<event>
 9    1  0.1671478E-005  0.1377672E+03  0.7546771E-02  0.1218135E+00
          2   -1    0    0  502    0 -0.00000000000E+00  0.00000000000E+00  0.56412117380E+03  0.56412117380E+03  0.00000000000E+00 0. -1.
         21   -1    0    0  501  502  0.00000000000E+00 -0.00000000000E+00 -0.92108525670E+02  0.92108525670E+02  0.00000000000E+00 0. -1.
         23    2    1    2    0    0  0.48722131641E+02  0.72097157411E+02  0.39305384980E+03  0.41455947076E+03  0.98976662583E+02 0.  0.
         23    2    1    2    0    0 -0.86640578889E+02 -0.11490326473E+03  0.66113923395E+02  0.18305997127E+03  0.91818037769E+02 0.  0.
        -11    1    4    4    0    0 -0.54113774958E+02 -0.42512383083E+02  0.76641000684E+02  0.10300216668E+03  0.00000000000E+00 0.  1.
         11    1    4    4    0    0 -0.32526803931E+02 -0.72390881643E+02 -0.10527077289E+02  0.80057804587E+02  0.00000000000E+00 0. -1.
        -13    1    3    3    0    0 -0.29288546610E+02  0.15534280661E+02  0.70239771941E+02  0.77670833654E+02  0.00000000000E+00 0.  1.
         13    1    3    3    0    0  0.78010678251E+02  0.56562876751E+02  0.32281407786E+03  0.33688863710E+03  0.00000000000E+00 0. -1.
          2    1    1    2  501    0  0.37918447248E+02  0.42806107315E+02  0.12844874935E+02  0.58610257440E+02  0.00000000000E+00 0. -1.
<scales pt_clust_5="13000.00000" pt_clust_6="13000.00000" pt_clust_7="13000.00000" pt_clust_8="13000.00000" pt_clust_9="57.18541"></scales>
<clustering>
<clus scale="   57.185">  2  9  1 -1</clus>
<clus scale="   91.818">  5  6 -1 -1</clus>
<clus scale="   98.977">  7  8 -1 -1</clus>
<clus scale="  132.718">  2  5  1 -1</clus>
<clus scale="   57.185">  2  5  1 -1</clus>
</clustering>
</event>
<event>
 9    1  0.1671478E-005  0.1158305E+03  0.7546771E-02  0.1251637E+00
         21   -1    0    0  501  502  0.00000000000E+00  0.00000000000E+00  0.11587820150E+03  0.11587820150E+03  0.00000000000E+00 0. -1.
          2   -1    0    0  502    0 -0.00000000000E+00 -0.00000000000E+00 -0.42091062783E+03  0.42091062783E+03  0.00000000000E+00 0. -1.
         23    2    1    2    0    0  0.40866004066E+02 -0.60912166079E+02 -0.26828150741E+03  0.29217394344E+03  0.89500411944E+02 0.  0.
         23    2    1    2    0    0  0.21178207594E+02  0.72051502434E+02 -0.99271420501E+02  0.15583210528E+03  0.93749104683E+02 0.  0.
        -13    1    4    4    0    0 -0.11852325698E+02 -0.19064172360E+02 -0.12217575695E+02  0.25557571248E+02  0.00000000000E+00 0.  1.
         13    1    4    4    0    0  0.33030533293E+02  0.91115674794E+02 -0.87053844806E+02  0.13027453404E+03  0.00000000000E+00 0. -1.
        -13    1    3    3    0    0 -0.20317779551E+02 -0.11727835474E+01 -0.16288301286E+02  0.26067150706E+02  0.00000000000E+00 0.  1.
         13    1    3    3    0    0  0.61183783617E+02 -0.59739382532E+02 -0.25199320613E+03  0.26610679273E+03  0.00000000000E+00 0. -1.
          2    1    1    2  501    0 -0.62044211661E+02 -0.11139336355E+02  0.62520501577E+02  0.88782780608E+02  0.00000000000E+00 0. -1.
<scales pt_clust_5="13000.00000" pt_clust_6="13000.00000" pt_clust_7="13000.00000" pt_clust_8="13000.00000" pt_clust_9="63.03625"></scales>
<clustering>
<clus scale="   63.036">  1  9  2 -1</clus>
<clus scale="   89.500">  7  8 -1 -1</clus>
<clus scale="   93.749">  5  6 -1 -1</clus>
<clus scale="  112.419">  2  7  1 -1</clus>
<clus scale="   63.036">  1  5  2 -1</clus>
</clustering>
</event>
<event>
 9    1  0.1671478E-005  0.2130698E+03  0.7546771E-02  0.1154517E+00
         21   -1    0    0  501  502  0.00000000000E+00  0.00000000000E+00  0.61209498679E+03  0.61209498679E+03  0.00000000000E+00 0.  1.
         -4   -1    0    0    0  501 -0.00000000000E+00 -0.00000000000E+00 -0.36073425974E+03  0.36073425974E+03  0.00000000000E+00 0.  1.
         23    2    1    2    0    0 -0.77688027037E+02  0.87146033748E+02 -0.10104908699E+03  0.17901298098E+03  0.90580729934E+02 0.  0.
         23    2    1    2    0    0  0.15154969442E+03  0.94380185158E+02 -0.15237484074E+03  0.25232308760E+03  0.92595460018E+02 0.  0.
        -11    1    3    3    0    0 -0.67578135869E+02  0.35559873629E+02 -0.10078184056E+03  0.12644480396E+03  0.00000000000E+00 0.  1.
         11    1    3    3    0    0 -0.10109891168E+02  0.51586160119E+02 -0.26724642852E+00  0.52568177027E+02  0.00000000000E+00 0. -1.
        -11    1    4    4    0    0  0.16891286597E+02 -0.15021784019E+02 -0.19397024798E+01  0.22687706003E+02  0.00000000000E+00 0. -1.
         11    1    4    4    0    0  0.13465840782E+03  0.10940196918E+03 -0.15043513826E+03  0.22963538160E+03  0.00000000000E+00 0.  1.
         -4    1    1    2    0  502 -0.73861667384E+02 -0.18152621891E+03  0.50478465478E+03  0.54149317794E+03  0.00000000000E+00 0.  1.
<scales pt_clust_5="13000.00000" pt_clust_6="13000.00000" pt_clust_7="13000.00000" pt_clust_8="13000.00000" pt_clust_9="191.89798"></scales>
<clustering>
<clus scale="   90.581">  5  6 -1 -1</clus>
<clus scale="   92.595">  7  8 -1 -1</clus>
<clus scale="  147.766">  2  5  1 -1</clus>
<clus scale="  191.898">  1  9  2 -1</clus>
<clus scale="  191.898">  1  5  2 -1</clus>
</clustering>
</event>
<event>
 9    1  0.1671478E-005  0.1222286E+03  0.7546771E-02  0.1241835E+00
          1   -1    0    0  502    0 -0.00000000000E+00  0.00000000000E+00  0.46970128667E+03  0.46970128667E+03  0.00000000000E+00 0. -1.
         21   -1    0    0  501  502  0.00000000000E+00 -0.00000000000E+00 -0.68003828476E+02  0.68003828476E+02  0.00000000000E+00 0.  1.
         23    2    1    2    0    0  0.38227856040E+02 -0.60006325228E+02  0.30625584054E+03  0.32902994499E+03  0.96984208959E+02 0.  0.
         23    2    1    2    0    0 -0.64789466540E+02  0.54094262263E+02  0.12006589992E+03  0.17197602959E+03  0.89644131135E+02 0.  0.
        -13    1    3    3    0    0 -0.14567424288E+02  0.18098441952E+02  0.36418643531E+02  0.43198160240E+02  0.00000000000E+00 0.  1.
         13    1    3    3    0    0  0.52795280328E+02 -0.78104767180E+02  0.26983719701E+03  0.28583178475E+03  0.00000000000E+00 0. -1.
        -13    1    4    4    0    0 -0.19304591656E+02 -0.24844386977E+02  0.38234952011E+02  0.49515880065E+02  0.00000000000E+00 0. -1.
         13    1    4    4    0    0 -0.45484874885E+02  0.78938649240E+02  0.81830947908E+02  0.12246014953E+03  0.00000000000E+00 0.  1.
          1    1    1    2  501    0  0.26561610500E+02  0.59120629645E+01 -0.24624282269E+02  0.36699140564E+02  0.00000000000E+00 0. -1.
<scales pt_clust_5="13000.00000" pt_clust_6="13000.00000" pt_clust_7="13000.00000" pt_clust_8="13000.00000" pt_clust_9="27.21161"></scales>
<clustering>
<clus scale="   27.212">  2  9  1 -1</clus>
<clus scale="   89.644">  7  8 -1 -1</clus>
<clus scale="   96.984">  5  6 -1 -1</clus>
<clus scale="  116.490">  2  7  1 -1</clus>
<clus scale="   27.212">  2  5  1 -1</clus>
</clustering>
</event>
<event>
 9    1  0.1671478E-005  0.9293570E+02  0.7546771E-02  0.1296161E+00
         21   -1    0    0  501  502  0.00000000000E+00  0.00000000000E+00  0.19894465933E+02  0.19894465933E+02  0.00000000000E+00 0.  1.
          1   -1    0    0  502    0 -0.00000000000E+00 -0.00000000000E+00 -0.72888194041E+03  0.72888194041E+03  0.00000000000E+00 0. -1.
         23    2    1    2    0    0 -0.91623917029E+01 -0.15078645085E+00 -0.40946757628E+03  0.41984326015E+03  0.92307610258E+02 0.  0.
         23    2    1    2    0    0 -0.26282236087E+02  0.14903222247E+02 -0.21397120026E+03  0.23516462418E+03  0.92767795916E+02 0.  0.
        -13    1    3    3    0    0 -0.11119490504E+02  0.45538782475E+02 -0.19519870156E+03  0.20074849157E+03  0.00000000000E+00 0.  1.
         13    1    3    3    0    0  0.19570988009E+01 -0.45689568926E+02 -0.21426887472E+03  0.21909476858E+03  0.00000000000E+00 0. -1.
        -13    1    4    4    0    0 -0.89026568202E+01 -0.37361106241E+02 -0.12261596549E+03  0.12849040646E+03  0.00000000000E+00 0. -1.
         13    1    4    4    0    0 -0.17379579267E+02  0.52264328488E+02 -0.91355234771E+02  0.10667421773E+03  0.00000000000E+00 0.  1.
          1    1    1    2  501    0  0.35444627790E+02 -0.14752435796E+02 -0.85548697935E+02  0.93768522008E+02  0.00000000000E+00 0. -1.
<scales pt_clust_5="13000.00000" pt_clust_6="13000.00000" pt_clust_7="13000.00000" pt_clust_8="13000.00000" pt_clust_9="38.39213"></scales>
<clustering>
<clus scale="   38.392">  1  9  2 -1</clus>
<clus scale="   92.308">  5  6 -1 -1</clus>
<clus scale="   92.476">  2  5  1 -1</clus>
<clus scale="   92.768">  7  8 -1 -1</clus>
<clus scale="   38.392">  1  5  2 -1</clus>
</clustering>
</event>
<event>
 9    1  0.1671478E-005  0.9399456E+02  0.7546771E-02  0.1293664E+00
          1   -1    0    0  502    0 -0.00000000000E+00  0.00000000000E+00  0.25449444195E+03  0.25449444195E+03  0.00000000000E+00 0. -1.
         21   -1    0    0  501  502  0.00000000000E+00 -0.00000000000E+00 -0.50249610634E+02  0.50249610634E+02  0.00000000000E+00 0.  1.
         23    2    1    2    0    0  0.93413670528E+01  0.11640536427E+02  0.10745359997E+03  0.14152625590E+03  0.90888072578E+02 0.  0.
         23    2    1    2    0    0 -0.37980554434E+02  0.45940121153E+00  0.83531833430E+02  0.12941804553E+03  0.91261874559E+02 0.  0.
        -11    1    4    4    0    0  0.75313617955E+01  0.38155684336E+02  0.24953126498E+02  0.46208615859E+02  0.00000000000E+00 0.  1.
         11    1    4    4    0    0 -0.45511916230E+02 -0.37696283124E+02  0.58578706933E+02  0.83209429671E+02  0.00000000000E+00 0. -1.
        -13    1    3    3    0    0  0.25443338399E+02 -0.11574295216E+02  0.10968036172E+03  0.11318617197E+03  0.00000000000E+00 0. -1.
         13    1    3    3    0    0 -0.16101971346E+02  0.23214831644E+02 -0.22267617490E+01  0.28340083933E+02  0.00000000000E+00 0.  1.
          1    1    1    2  501    0  0.28639187381E+02 -0.12099937639E+02  0.13259397917E+02  0.33799751151E+02  0.00000000000E+00 0. -1.
<scales pt_clust_5="13000.00000" pt_clust_6="13000.00000" pt_clust_7="13000.00000" pt_clust_8="13000.00000" pt_clust_9="31.09038"></scales>
<clustering>
<clus scale="   31.090">  2  9  1 -1</clus>
<clus scale="   90.888">  7  8 -1 -1</clus>
<clus scale="   91.262">  5  6 -1 -1</clus>
<clus scale="   93.632">  1  7  2 -1</clus>
<clus scale="   31.090">  2  5  1 -1</clus>
</clustering>
</event>
<event>
 9    1  0.1671478E-005  0.9526882E+02  0.7546771E-02  0.1303527E+00
         21   -1    0    0  501  502  0.00000000000E+00  0.00000000000E+00  0.82156036569E+02  0.82156036569E+02  0.00000000000E+00 0. -1.
          2   -1    0    0  502    0 -0.00000000000E+00 -0.00000000000E+00 -0.23347574654E+03  0.23347574654E+03  0.00000000000E+00 0. -1.
         23    2    1    2    0    0  0.14189199777E+02 -0.25730623002E+02 -0.16908818846E+03  0.19364682763E+03  0.89693255168E+02 0.  0.
         23    2    1    2    0    0  0.96211293568E+01  0.51287776479E+02  0.16263891428E+02  0.87022637917E+02  0.67715752964E+02 0.  0.
        -11    1    3    3    0    0 -0.75714939776E+01  0.30382172569E+02 -0.36844394785E+02  0.48351973674E+02  0.00000000000E+00 0.  1.
         11    1    3    3    0    0  0.21760693754E+02 -0.56112795571E+02 -0.13224379368E+03  0.14529485395E+03  0.00000000000E+00 0. -1.
        -13    1    4    4    0    0  0.45602810794E+01  0.22868917836E+02 -0.26581578893E+02  0.35360485050E+02  0.00000000000E+00 0.  1.
         13    1    4    4    0    0  0.50608482774E+01  0.28418858642E+02  0.42845470321E+02  0.51662152867E+02  0.00000000000E+00 0. -1.
          2    1    1    2  501    0 -0.23810329134E+02 -0.25557153477E+02  0.15045870615E+01  0.34962317565E+02  0.00000000000E+00 0. -1.
<scales pt_clust_5="13000.00000" pt_clust_6="13000.00000" pt_clust_7="13000.00000" pt_clust_8="13000.00000" pt_clust_9="34.92993"></scales>
<clustering>
<clus scale="   34.930">  1  9  2 -1</clus>
<clus scale="   67.716">  7  8 -1 -1</clus>
<clus scale="   74.945">  1  7  2 -1</clus>
<clus scale="   89.693">  5  6 -1 -1</clus>
<clus scale="   34.930">  1  5  2 -1</clus>
</clustering>
</event>
<event>
 9    1  0.1671478E-005  0.1092915E+03  0.7546771E-02  0.1262059E+00
         21   -1    0    0  501  502  0.00000000000E+00  0.00000000000E+00  0.50056325872E+03  0.50056325872E+03  0.00000000000E+00 0.  1.
          3   -1    0    0  502    0 -0.00000000000E+00 -0.00000000000E+00 -0.43044035982E+02  0.43044035982E+02  0.00000000000E+00 0. -1.
         23    2    1    2    0    0 -0.56664934696E+02 -0.12902334130E+02  0.12906069315E+03  0.16991590651E+03  0.94007274823E+02 0.  0.
         23    2    1    2    0    0  0.25908268720E+02  0.64519030293E+02  0.19254858863E+03  0.22509203464E+03  0.93581629693E+02 0.  0.
        -11    1    4    4    0    0 -0.19422657400E+02 -0.14928629341E+02  0.50709704026E+02  0.56316761953E+02  0.00000000000E+00 0. -1.
         11    1    4    4    0    0  0.45330926120E+02  0.79447659634E+02  0.14183888461E+03  0.16877527269E+03  0.00000000000E+00 0.  1.
        -11    1    3    3    0    0 -0.32809505955E+02 -0.15760944948E+02 -0.22088544693E+01  0.36465738779E+02  0.00000000000E+00 0. -1.
         11    1    3    3    0    0 -0.23855428741E+02  0.28586108171E+01  0.13126954762E+03  0.13345016773E+03  0.00000000000E+00 0.  1.
          3    1    1    2  501    0  0.30756665976E+02 -0.51616696162E+02  0.13590994096E+03  0.14859935355E+03  0.00000000000E+00 0. -1.
<scales pt_clust_5="13000.00000" pt_clust_6="13000.00000" pt_clust_7="13000.00000" pt_clust_8="13000.00000" pt_clust_9="60.08540"></scales>
<clustering>
<clus scale="   60.085">  1  9  2 -1</clus>
<clus scale="   93.582">  5  6 -1 -1</clus>
<clus scale="   94.007">  7  8 -1 -1</clus>
<clus scale="  108.926">  1  5  2 -1</clus>
<clus scale="   60.085">  1  5  2 -1</clus>
</clustering>
</event>
<event>
 9    1  0.1671478E-005  0.1000889E+03  0.7546771E-02  0.1282774E+00
          2   -1    0    0  502    0 -0.00000000000E+00  0.00000000000E+00  0.63133886239E+03  0.63133886239E+03  0.00000000000E+00 0. -1.
         21   -1    0    0  501  502  0.00000000000E+00 -0.00000000000E+00 -0.23869730768E+02  0.23869730768E+02  0.00000000000E+00 0.  1.
         23    2    1    2    0    0 -0.76757756191E+01  0.37568946858E+02  0.37286254217E+03  0.38604303548E+03  0.92371026797E+02 0.  0.
         23    2    1    2    0    0  0.38019284559E+02 -0.27069527085E+02  0.19108885340E+03  0.21508451015E+03  0.86995237332E+02 0.  0.
        -11    1    4    4    0    0  0.14863283746E+02  0.26402677429E+02  0.25699067588E+02  0.39729845885E+02  0.00000000000E+00 0.  1.
         11    1    4    4    0    0  0.23156000813E+02 -0.53472204514E+02  0.16538978581E+03  0.17535466427E+03  0.00000000000E+00 0. -1.
        -13    1    3    3    0    0  0.41208518384E+02  0.56736017464E+01  0.14934322440E+03  0.15502816008E+03  0.00000000000E+00 0. -1.
         13    1    3    3    0    0 -0.48884294003E+02  0.31895345111E+02  0.22351931777E+03  0.23101487540E+03  0.00000000000E+00 0.  1.
          2    1    1    2  501    0 -0.30343508939E+02 -0.10499419772E+02  0.43517736053E+02  0.54081047526E+02  0.00000000000E+00 0. -1.
<scales pt_clust_5="13000.00000" pt_clust_6="13000.00000" pt_clust_7="13000.00000" pt_clust_8="13000.00000" pt_clust_9="32.10866"></scales>
<clustering>
<clus scale="   32.109">  2  9  1 -1</clus>
<clus scale="   86.995">  5  6 -1 -1</clus>
<clus scale="   92.371">  7  8 -1 -1</clus>
<clus scale="   95.150">  2  5  1 -1</clus>
<clus scale="   32.109">  2  5  1 -1</clus>
</clustering>
</event>
<event>
 9    1  0.1671478E-005  0.1087823E+03  0.7546771E-02  0.1263138E+00
          1   -1    0    0  502    0 -0.00000000000E+00  0.00000000000E+00  0.10300133270E+04  0.10300133270E+04  0.00000000000E+00 0. -1.
         21   -1    0    0  501  502  0.00000000000E+00 -0.00000000000E+00 -0.25145570468E+02  0.25145570468E+02  0.00000000000E+00 0.  1.
         23    2    1    2    0    0  0.56754356669E+01 -0.10311825614E+03  0.48226629632E+03  0.50130288517E+03  0.89767570925E+02 0.  0.
         23    2    1    2    0    0  0.46655797717E+00  0.16405277886E+02  0.20744376949E+03  0.22692905608E+03  0.90523633239E+02 0.  0.
        -11    1    3    3    0    0  0.31244153419E+02 -0.10350074291E+03  0.34059792429E+03  0.35734513700E+03  0.00000000000E+00 0.  1.
         11    1    3    3    0    0 -0.25568717752E+02  0.38248677115E+00  0.14166837203E+03  0.14395774817E+03  0.00000000000E+00 0. -1.
        -11    1    4    4    0    0  0.43530932267E+02  0.31787560064E+01  0.13232261971E+03  0.13933528714E+03  0.00000000000E+00 0.  1.
         11    1    4    4    0    0 -0.43064374290E+02  0.13226521880E+02  0.75121149771E+02  0.87593768938E+02  0.00000000000E+00 0. -1.
          1    1    1    2  501    0 -0.61419936440E+01  0.86712978253E+02  0.31515769076E+03  0.32692695626E+03  0.00000000000E+00 0. -1.
<scales pt_clust_5="13000.00000" pt_clust_6="13000.00000" pt_clust_7="13000.00000" pt_clust_8="13000.00000" pt_clust_9="86.93027"></scales>
<clustering>
<clus scale="   86.930">  2  9  1 -1</clus>
<clus scale="   89.768">  5  6 -1 -1</clus>
<clus scale="   90.524">  7  8 -1 -1</clus>
<clus scale="  108.154">  1  5  2 -1</clus>
<clus scale="   86.930">  2  5  1 -1</clus>
</clustering>
</event>
<event>
 9    1  0.1671478E-005  0.1814169E+03  0.7546771E-02  0.1166813E+00
         -4   -1    0    0    0  501 -0.00000000000E+00  0.00000000000E+00  0.16578117710E+03  0.16578117710E+03  0.00000000000E+00 0.  1.
         21   -1    0    0  501  502  0.00000000000E+00 -0.00000000000E+00 -0.44443651623E+03  0.44443651623E+03  0.00000000000E+00 0. -1.
         23    2    1    2    0    0  0.14487695537E+03 -0.64605325747E+02  0.75272177395E+02  0.19781518567E+03  0.91114031190E+02 0.  0.
         23    2    1    2    0    0 -0.14850322261E+03  0.28087281113E+02 -0.29753799463E+03  0.34512327181E+03  0.87972222945E+02 0.  0.
        -11    1    4    4    0    0 -0.77492810466E+02  0.68467832985E+01 -0.66027759265E+02  0.10203763575E+03  0.00000000000E+00 0.  1.
         11    1    4    4    0    0 -0.71010412142E+02  0.21240497815E+02 -0.23151023537E+03  0.24308563606E+03  0.00000000000E+00 0. -1.
        -13    1    3    3    0    0  0.26265178561E+02  0.10030170588E+02 -0.14251739653E+02  0.31521040750E+02  0.00000000000E+00 0. -1.
         13    1    3    3    0    0  0.11861177681E+03 -0.74635496335E+02  0.89523917048E+02  0.16629414492E+03  0.00000000000E+00 0.  1.
         -4    1    1    2    0  502  0.36262672363E+01  0.36518044634E+02 -0.56389521889E+02  0.67279235851E+02  0.00000000000E+00 0.  1.
<scales pt_clust_5="13000.00000" pt_clust_6="13000.00000" pt_clust_7="13000.00000" pt_clust_8="13000.00000" pt_clust_9="36.69765"></scales>
<clustering>
<clus scale="   36.698">  2  9  1 -1</clus>
<clus scale="   87.972">  5  6 -1 -1</clus>
<clus scale="   91.114">  7  8 -1 -1</clus>
<clus scale="  179.860">  2  5  1 -1</clus>
<clus scale="   36.698">  2  5  1 -1</clus>
</clustering>
</event>
<event>
 9    1  0.1671478E-005  0.1455009E+03  0.7546771E-02  0.1223655E+00
         21   -1    0    0  501  502  0.00000000000E+00  0.00000000000E+00  0.26549097562E+03  0.26549097562E+03  0.00000000000E+00 0. -1.
          1   -1    0    0  502    0 -0.00000000000E+00 -0.00000000000E+00 -0.51708920192E+03  0.51708920192E+03  0.00000000000E+00 0. -1.
         23    2    1    2    0    0  0.24340760239E+01 -0.50806432258E+02 -0.42569807462E+02  0.10900482400E+03  0.86502282416E+02 0.  0.
         23    2    1    2    0    0 -0.67666895056E+02 -0.43951516083E+02 -0.41785724149E+03  0.43515583541E+03  0.90804087903E+02 0.  0.
        -11    1    3    3    0    0 -0.40977226847E+02 -0.14761588845E+02 -0.13935294585E+02  0.45729968953E+02  0.00000000000E+00 0.  1.
         11    1    3    3    0    0  0.43411302870E+02 -0.36044843413E+02 -0.28634512878E+02  0.63274855048E+02  0.00000000000E+00 0. -1.
        -13    1    4    4    0    0 -0.17157627568E+02 -0.55139820429E+02 -0.12410063340E+03  0.13687860019E+03  0.00000000000E+00 0.  1.
         13    1    4    4    0    0 -0.50509267488E+02  0.11188304346E+02 -0.29375660809E+03  0.29827723522E+03  0.00000000000E+00 0. -1.
          1    1    1    2  501    0  0.65232819032E+02  0.94757948341E+02  0.20882882265E+03  0.23841951812E+03  0.00000000000E+00 0. -1.
<scales pt_clust_5="13000.00000" pt_clust_6="13000.00000" pt_clust_7="13000.00000" pt_clust_8="13000.00000" pt_clust_9="113.68874"></scales>
<clustering>
<clus scale="   86.502">  5  6 -1 -1</clus>
<clus scale="   90.804">  7  8 -1 -1</clus>
<clus scale="  100.349">  2  5  1 -1</clus>
<clus scale="  113.689">  1  9  2 -1</clus>
<clus scale="  113.689">  1  5  2 -1</clus>
</clustering>
</event>
<event>
 9    1  0.1671478E-005  0.1009185E+03  0.7546771E-02  0.1278499E+00
          2   -1    0    0  502    0 -0.00000000000E+00  0.00000000000E+00  0.37681468970E+03  0.37681468970E+03  0.00000000000E+00 0. -1.
         21   -1    0    0  501  502  0.00000000000E+00 -0.00000000000E+00 -0.82071868613E+02  0.82071868613E+02  0.00000000000E+00 0.  1.
         23    2    1    2    0    0 -0.41864821818E+02  0.48341435561E+00  0.24733055651E+03  0.26668598433E+03  0.90532386800E+02 0.  0.
         23    2    1    2    0    0  0.48885508051E+02 -0.26932535175E+02  0.91621090931E+02  0.14020762875E+03  0.90269599028E+02 0.  0.
        -13    1    4    4    0    0 -0.20753144660E+02 -0.17786458372E+02  0.35542843875E+01  0.27562366593E+02  0.00000000000E+00 0. -1.
         13    1    4    4    0    0  0.69638652711E+02 -0.91460768024E+01  0.88066806543E+02  0.11264526216E+03  0.00000000000E+00 0.  1.
        -13    1    3    3    0    0 -0.49349559000E+01 -0.36425024478E+02  0.47019719960E+02  0.59682411673E+02  0.00000000000E+00 0.  1.
         13    1    3    3    0    0 -0.36929865919E+02  0.36908438834E+02  0.20031083655E+03  0.20700357265E+03  0.00000000000E+00 0. -1.
          2    1    1    2  501    0 -0.70206862325E+01  0.26449120819E+02 -0.44208826348E+02  0.51992945236E+02  0.00000000000E+00 0. -1.
<scales pt_clust_5="13000.00000" pt_clust_6="13000.00000" pt_clust_7="13000.00000" pt_clust_8="13000.00000" pt_clust_9="27.36505"></scales>
<clustering>
<clus scale="   27.365">  2  9  1 -1</clus>
<clus scale="   90.270">  5  6 -1 -1</clus>
<clus scale="   90.532">  7  8 -1 -1</clus>
<clus scale="  100.683">  2  5  1 -1</clus>
<clus scale="   27.365">  2  5  1 -1</clus>
</clustering>
</event>
<event>
 9    1  0.1671478E-005  0.1285385E+03  0.7546771E-02  0.1233363E+00
         21   -1    0    0  501  502  0.00000000000E+00  0.00000000000E+00  0.53221819125E+02  0.53221819125E+02  0.00000000000E+00 0.  1.
          3   -1    0    0  502    0 -0.00000000000E+00 -0.00000000000E+00 -0.72012745501E+03  0.72012745501E+03  0.00000000000E+00 0. -1.
         23    2    1    2    0    0 -0.64990737149E+02  0.10709857665E+02 -0.37100132343E+03  0.39053536088E+03  0.10265178588E+03 0.  0.
         23    2    1    2    0    0  0.11451144987E+03  0.58045853894E+02 -0.17468411283E+03  0.23491534782E+03  0.90490264995E+02 0.  0.
        -11    1    4    4    0    0  0.85518608465E+02  0.20964972888E+01 -0.61449047915E+02  0.10532717211E+03  0.00000000000E+00 0.  1.
         11    1    4    4    0    0  0.28992841408E+02  0.55949356605E+02 -0.11323506492E+03  0.12958817571E+03  0.00000000000E+00 0. -1.
        -13    1    3    3    0    0  0.76887569359E+01 -0.33210361021E+02 -0.71208184393E+02  0.78947137927E+02  0.00000000000E+00 0.  1.
         13    1    3    3    0    0 -0.72679494084E+02  0.43920218686E+02 -0.29979313904E+03  0.31158822295E+03  0.00000000000E+00 0. -1.
          3    1    1    2  501    0 -0.49520712725E+02 -0.68755711559E+02 -0.12122019962E+03  0.14789856543E+03  0.00000000000E+00 0. -1.
<scales pt_clust_5="13000.00000" pt_clust_6="13000.00000" pt_clust_7="13000.00000" pt_clust_8="13000.00000" pt_clust_9="84.73281"></scales>
<clustering>
<clus scale="   84.733">  1  9  2 -1</clus>
<clus scale="   90.490">  5  6 -1 -1</clus>
<clus scale="  102.652">  7  8 -1 -1</clus>
<clus scale="  119.051">  1  5  2 -1</clus>
<clus scale="   84.733">  1  5  2 -1</clus>
</clustering>
</event>
<event>
 9    1  0.1671478E-005  0.1008203E+03  0.7546771E-02  0.1279475E+00
          2   -1    0    0  502    0 -0.00000000000E+00  0.00000000000E+00  0.46208329638E+03  0.46208329638E+03  0.00000000000E+00 0. -1.
         21   -1    0    0  501  502  0.00000000000E+00 -0.00000000000E+00 -0.72177181600E+02  0.72177181600E+02  0.00000000000E+00 0. -1.
         23    2    1    2    0    0 -0.19173046162E+02 -0.44819620156E+02  0.31511141375E+03  0.33171999185E+03  0.91468824566E+02 0.  0.
         23    2    1    2    0    0  0.23430616270E+01  0.30972779674E+02  0.11965352818E+03  0.15266767044E+03  0.89585979785E+02 0.  0.
        -11    1    3    3    0    0  0.27179583028E+02 -0.47960747984E+02  0.13766191164E+03  0.14828946354E+03  0.00000000000E+00 0.  1.
         11    1    3    3    0    0 -0.46352629190E+02  0.31411278282E+01  0.17744950211E+03  0.18343052831E+03  0.00000000000E+00 0. -1.
        -13    1    4    4    0    0 -0.15004413175E+02  0.54027570329E+02  0.10772922503E+03  0.12144832933E+03  0.00000000000E+00 0. -1.
         13    1    4    4    0    0  0.17347474802E+02 -0.23054790655E+02  0.11924303149E+02  0.31219341117E+02  0.00000000000E+00 0.  1.
          2    1    1    2  501    0  0.16829984535E+02  0.13846840482E+02 -0.44858827152E+02  0.49872815684E+02  0.00000000000E+00 0. -1.
<scales pt_clust_5="13000.00000" pt_clust_6="13000.00000" pt_clust_7="13000.00000" pt_clust_8="13000.00000" pt_clust_9="21.79411"></scales>
<clustering>
<clus scale="   21.794">  2  9  1 -1</clus>
<clus scale="   89.586">  7  8 -1 -1</clus>
<clus scale="   91.469">  5  6 -1 -1</clus>
<clus scale="   99.115">  2  7  1 -1</clus>
<clus scale="   21.794">  2  5  1 -1</clus>
</clustering>
</event>
<event>
 9    1  0.1671478E-005  0.1145129E+03  0.7546771E-02  0.1255964E+00
          1   -1    0    0  502    0 -0.00000000000E+00  0.00000000000E+00  0.88827528458E+02  0.88827528458E+02  0.00000000000E+00 0. -1.
         21   -1    0    0  501  502  0.00000000000E+00 -0.00000000000E+00 -0.53799234100E+03  0.53799234100E+03  0.00000000000E+00 0.  1.
         23    2    1    2    0    0  0.56652013951E+02  0.65885922469E+01  0.41506048672E+02  0.11621796992E+03  0.92363435538E+02 0.  0.
         23    2    1    2    0    0 -0.22933737972E+02  0.50044197504E+01 -0.32779471667E+03  0.34386870390E+03  0.10121911230E+03 0.  0.
        -11    1    3    3    0    0  0.80985516707E+02  0.15763085867E+02  0.30160447580E+02  0.87845212679E+02  0.00000000000E+00 0.  1.
         11    1    3    3    0    0 -0.24333502756E+02 -0.91744936196E+01  0.11345601092E+02  0.28372757245E+02  0.00000000000E+00 0. -1.
        -11    1    4    4    0    0 -0.53829934438E+02 -0.26207708414E+02 -0.18098078624E+03  0.19062673163E+03  0.00000000000E+00 0.  1.
         11    1    4    4    0    0  0.30896196466E+02  0.31212128164E+02 -0.14681393042E+03  0.15324197228E+03  0.00000000000E+00 0. -1.
          1    1    1    2  501    0 -0.33718275979E+02 -0.11593011997E+02 -0.16287614454E+03  0.16673319563E+03  0.00000000000E+00 0. -1.
<scales pt_clust_5="13000.00000" pt_clust_6="13000.00000" pt_clust_7="13000.00000" pt_clust_8="13000.00000" pt_clust_9="35.65558"></scales>
<clustering>
<clus scale="   35.656">  2  9  1 -1</clus>
<clus scale="   92.363">  5  6 -1 -1</clus>
<clus scale="  101.219">  7  8 -1 -1</clus>
<clus scale="  106.766">  1  5  2 -1</clus>
<clus scale="   35.656">  2  5  1 -1</clus>
</clustering>
</event>
<event>
 9    1  0.1671478E-005  0.2276824E+03  0.7546771E-02  0.1155927E+00
         -1   -1    0    0    0  501 -0.00000000000E+00  0.00000000000E+00  0.92460071368E+02  0.92460071368E+02  0.00000000000E+00 0.  1.
         21   -1    0    0  501  502  0.00000000000E+00 -0.00000000000E+00 -0.96928872333E+03  0.96928872333E+03  0.00000000000E+00 0.  1.
         23    2    1    2    0    0  0.67826150697E+02  0.10618578764E+02 -0.56071047307E+02  0.12988490492E+03  0.94936743396E+02 0.  0.
         23    2    1    2    0    0 -0.22331538115E+03  0.60821617762E+02 -0.60992694308E+03  0.66033088934E+03  0.10225937063E+03 0.  0.
        -13    1    3    3    0    0  0.14142258748E+02  0.46634008421E+02 -0.81352325881E+01  0.49405629570E+02  0.00000000000E+00 0.  1.
         13    1    3    3    0    0  0.53683891949E+02 -0.36015429657E+02 -0.47935814719E+02  0.80479275351E+02  0.00000000000E+00 0. -1.
        -13    1    4    4    0    0 -0.20444583669E+03  0.20725317738E+02 -0.53725391439E+03  0.57521248896E+03  0.00000000000E+00 0.  1.
         13    1    4    4    0    0 -0.18869544456E+02  0.40096300024E+02 -0.72673028693E+02  0.85118400379E+02  0.00000000000E+00 0. -1.
         -1    1    1    2    0  502  0.15548923045E+03 -0.71440196526E+02 -0.21083066158E+03  0.27153300044E+03  0.00000000000E+00 0.  1.
<scales pt_clust_5="13000.00000" pt_clust_6="13000.00000" pt_clust_7="13000.00000" pt_clust_8="13000.00000" pt_clust_9="203.42649"></scales>
<clustering>
<clus scale="   94.937">  5  6 -1 -1</clus>
<clus scale="  102.259">  7  8 -1 -1</clus>
<clus scale="  117.159">  1  5  2 -1</clus>
<clus scale="  203.426">  2  9  1 -1</clus>
<clus scale="  203.426">  2  5  1 -1</clus>
</clustering>
</event>
<event>
 9    1  0.1671478E-005  0.9934584E+02  0.7546771E-02  0.1284414E+00
         21   -1    0    0  501  502  0.00000000000E+00  0.00000000000E+00  0.30990447360E+03  0.30990447360E+03  0.00000000000E+00 0. -1.
         -4   -1    0    0    0  501 -0.00000000000E+00 -0.00000000000E+00 -0.92782996620E+02  0.92782996620E+02  0.00000000000E+00 0.  1.
         23    2    1    2    0    0  0.10560496900E+02  0.10150545001E+02 -0.13813989881E+02  0.92706720098E+02  0.90493933367E+02 0.  0.
         23    2    1    2    0    0  0.14366285419E+02 -0.78414323277E+02  0.98059118129E+02  0.15852972849E+03  0.95712527472E+02 0.  0.
        -11    1    4    4    0    0 -0.38274531082E+02 -0.18069591480E+02  0.48432290068E+02  0.64320576700E+02  0.00000000000E+00 0.  1.
         11    1    4    4    0    0  0.52640816501E+02 -0.60344731798E+02  0.49626828061E+02  0.94209151790E+02  0.00000000000E+00 0. -1.
        -13    1    3    3    0    0 -0.23790888764E+02 -0.29504240912E+02 -0.13522859505E+02  0.40241450635E+02  0.00000000000E+00 0. -1.
         13    1    3    3    0    0  0.34351385664E+02  0.39654785914E+02 -0.29113037547E+00  0.52465269463E+02  0.00000000000E+00 0.  1.
         -4    1    1    2    0  502 -0.24926782319E+02  0.68263778276E+02  0.13287634873E+03  0.15145102164E+03  0.00000000000E+00 0.  1.
<scales pt_clust_5="13000.00000" pt_clust_6="13000.00000" pt_clust_7="13000.00000" pt_clust_8="13000.00000" pt_clust_9="72.67247"></scales>
<clustering>
<clus scale="   72.672">  1  9  2 -1</clus>
<clus scale="   90.494">  7  8 -1 -1</clus>
<clus scale="   94.328">  2  7  1 -1</clus>
<clus scale="   95.713">  5  6 -1 -1</clus>
<clus scale="   72.672">  1  5  2 -1</clus>
</clustering>
</event>
<event>
 9    1  0.1671478E-005  0.1003100E+03  0.7546771E-02  0.1283512E+00
          1   -1    0    0  502    0 -0.00000000000E+00  0.00000000000E+00  0.11899086752E+03  0.11899086752E+03  0.00000000000E+00 0. -1.
         21   -1    0    0  501  502  0.00000000000E+00 -0.00000000000E+00 -0.22915667648E+03  0.22915667648E+03  0.00000000000E+00 0. -1.
         23    2    1    2    0    0  0.13857455082E+02  0.16700154872E+02  0.60171657233E+02  0.10963300998E+03  0.89038442872E+02 0.  0.
         23    2    1    2    0    0 -0.39402245526E+02 -0.30871729436E+02 -0.59486052419E+02  0.12387856331E+03  0.96445359582E+02 0.  0.
        -11    1    3    3    0    0  0.47787739560E+02 -0.28200770409E+01  0.15682196079E+02  0.50374121934E+02  0.00000000000E+00 0.  1.
         11    1    3    3    0    0 -0.33930284478E+02  0.19520231913E+02  0.44489461155E+02  0.59258888046E+02  0.00000000000E+00 0. -1.
        -11    1    4    4    0    0 -0.19499858569E+02  0.33283596080E+02 -0.35873213567E+02  0.52677601539E+02  0.00000000000E+00 0.  1.
         11    1    4    4    0    0 -0.19902386958E+02 -0.64155325517E+02 -0.23612838852E+02  0.71200961773E+02  0.00000000000E+00 0. -1.
          1    1    1    2  501    0  0.25544790444E+02  0.14171574565E+02 -0.11085141377E+03  0.11463597070E+03  0.00000000000E+00 0. -1.
<scales pt_clust_5="13000.00000" pt_clust_6="13000.00000" pt_clust_7="13000.00000" pt_clust_8="13000.00000" pt_clust_9="29.21249"></scales>
<clustering>
<clus scale="   29.212">  2  9  1 -1</clus>
<clus scale="   89.038">  5  6 -1 -1</clus>
<clus scale="   93.211">  1  5  2 -1</clus>
<clus scale="   96.445">  7  8 -1 -1</clus>
<clus scale="   29.212">  2  5  1 -1</clus>
</clustering>
</event>
<event>
 9    1  0.1671478E-005  0.1696521E+03  0.7546771E-02  0.1195616E+00
         21   -1    0    0  501  502  0.00000000000E+00  0.00000000000E+00  0.17702039947E+03  0.17702039947E+03  0.00000000000E+00 0. -1.
          2   -1    0    0  502    0 -0.00000000000E+00 -0.00000000000E+00 -0.59468308541E+03  0.59468308541E+03  0.00000000000E+00 0. -1.
         23    2    1    2    0    0 -0.20767845108E+01  0.69836383576E+02 -0.30108336252E+03  0.32238919841E+03  0.91663354508E+02 0.  0.
         23    2    1    2    0    0 -0.79518769198E+02 -0.17779637407E+03 -0.19712249738E+03  0.29183286914E+03  0.91511525234E+02 0.  0.
        -13    1    4    4    0    0 -0.40001150368E+02 -0.16453101868E+03 -0.13282181125E+03  0.21520265259E+03  0.00000000000E+00 0.  1.
         13    1    4    4    0    0 -0.39517618831E+02 -0.13265355390E+02 -0.64300686129E+02  0.76630216549E+02  0.00000000000E+00 0. -1.
        -13    1    3    3    0    0 -0.43794743888E+02  0.22515818082E+02 -0.16875589934E+03  0.17579389983E+03  0.00000000000E+00 0.  1.
         13    1    3    3    0    0  0.41717959378E+02  0.47320565494E+02 -0.13232746318E+03  0.14659529858E+03  0.00000000000E+00 0. -1.
          2    1    1    2  501    0  0.81595553709E+02  0.10795999050E+03  0.80543173956E+02  0.15748141733E+03  0.00000000000E+00 0. -1.
<scales pt_clust_5="13000.00000" pt_clust_6="13000.00000" pt_clust_7="13000.00000" pt_clust_8="13000.00000" pt_clust_9="142.85476"></scales>
<clustering>
<clus scale="   91.512">  5  6 -1 -1</clus>
<clus scale="   91.663">  7  8 -1 -1</clus>
<clus scale="  115.255">  2  7  1 -1</clus>
<clus scale="  142.855">  1  9  2 -1</clus>
<clus scale="  142.855">  1  5  2 -1</clus>
</clustering>
</event>
<event>
 9    1  0.1671478E-005  0.9763101E+02  0.7546771E-02  0.1286845E+00
         -1   -1    0    0    0  501 -0.00000000000E+00  0.00000000000E+00  0.30159428833E+03  0.30159428833E+03  0.00000000000E+00 0.  1.
         21   -1    0    0  501  502  0.00000000000E+00 -0.00000000000E+00 -0.46208262120E+02  0.46208262120E+02  0.00000000000E+00 0. -1.
         23    2    1    2    0    0  0.27152894300E+02  0.32213699875E+02  0.13230915647E+03  0.16552471002E+03  0.90098360771E+02 0.  0.
         23    2    1    2    0    0 -0.24087700971E+02  0.43469789223E+01  0.10119407369E+03  0.13955857771E+03  0.92936766131E+02 0.  0.
        -11    1    4    4    0    0  0.30245202776E+02  0.28430711374E+01  0.71356034399E+02  0.77553458915E+02  0.00000000000E+00 0. -1.
         11    1    4    4    0    0 -0.54332903747E+02  0.15039077849E+01  0.29838039290E+02  0.62005118796E+02  0.00000000000E+00 0.  1.
        -13    1    3    3    0    0 -0.23783543984E+00 -0.25535184106E+02  0.76579789837E+02  0.80725252583E+02  0.00000000000E+00 0.  1.
         13    1    3    3    0    0  0.27390729740E+02  0.57748883981E+02  0.55729366632E+02  0.84799457439E+02  0.00000000000E+00 0. -1.
         -1    1    1    2    0  502 -0.30651933293E+01 -0.36560678797E+02  0.21882796054E+02  0.42719262721E+02  0.00000000000E+00 0.  1.
<scales pt_clust_5="13000.00000" pt_clust_6="13000.00000" pt_clust_7="13000.00000" pt_clust_8="13000.00000" pt_clust_9="36.68894"></scales>
<clustering>
<clus scale="   36.689">  2  9  1 -1</clus>
<clus scale="   90.098">  7  8 -1 -1</clus>
<clus scale="   92.937">  5  6 -1 -1</clus>
<clus scale="   94.933">  1  7  2 -1</clus>
<clus scale="   36.689">  2  5  1 -1</clus>
</clustering>
</event>
<event>
 9    1  0.1671478E-005  0.1130195E+03  0.7546771E-02  0.1259694E+00
          1   -1    0    0  502    0 -0.00000000000E+00  0.00000000000E+00  0.34792926621E+03  0.34792926621E+03  0.00000000000E+00 0. -1.
         21   -1    0    0  501  502  0.00000000000E+00 -0.00000000000E+00 -0.54589044472E+02  0.54589044472E+02  0.00000000000E+00 0. -1.
         23    2    1    2    0    0  0.36469940474E+02 -0.38177035769E+02  0.11468141126E+03  0.14773461462E+03  0.76721233376E+02 0.  0.
         23    2    1    2    0    0 -0.48571224542E+02  0.85336308218E+02  0.12723644054E+03  0.18396916236E+03  0.89521458556E+02 0.  0.
        -13    1    3    3    0    0  0.30056330476E+02  0.18517900781E+02  0.34822691930E+02  0.49587453295E+02  0.00000000000E+00 0.  1.
         13    1    3    3    0    0  0.64136099974E+01 -0.56694936550E+02  0.79858719326E+02  0.98147161324E+02  0.00000000000E+00 0. -1.
        -13    1    4    4    0    0 -0.35429089686E+02  0.32853262398E+02  0.12002737770E+03  0.12938751348E+03  0.00000000000E+00 0. -1.
         13    1    4    4    0    0 -0.13142134856E+02  0.52483045820E+02  0.72090628418E+01  0.54581648878E+02  0.00000000000E+00 0.  1.
          1    1    1    2  501    0  0.12101284068E+02 -0.47159272449E+02  0.51422369942E+02  0.70814533709E+02  0.00000000000E+00 0. -1.
<scales pt_clust_5="13000.00000" pt_clust_6="13000.00000" pt_clust_7="13000.00000" pt_clust_8="13000.00000" pt_clust_9="48.68714"></scales>
<clustering>
<clus scale="   48.687">  2  9  1 -1</clus>
<clus scale="   76.721">  5  6 -1 -1</clus>
<clus scale="   89.521">  7  8 -1 -1</clus>
<clus scale="  103.177">  1  5  2 -1</clus>
<clus scale="   48.687">  2  5  1 -1</clus>
</clustering>
</event>
<event>
 9    1  0.1671478E-005  0.1859684E+03  0.7546771E-02  0.1164400E+00
         21   -1    0    0  501  502  0.00000000000E+00  0.00000000000E+00  0.71465237191E+02  0.71465237191E+02  0.00000000000E+00 0.  1.
          2   -1    0    0  502    0 -0.00000000000E+00 -0.00000000000E+00 -0.60296721785E+03  0.60296721785E+03  0.00000000000E+00 0. -1.
         23    2    1    2    0    0  0.51175080768E+02 -0.15150793714E+03 -0.36879978856E+03  0.41144303671E+03  0.87741350047E+02 0.  0.
         23    2    1    2    0    0 -0.38227826625E+02  0.16870862907E+03 -0.14877937372E+03  0.23735077436E+03  0.65392046872E+02 0.  0.
        -13    1    4    4    0    0 -0.54712969655E+02  0.12530005344E+03 -0.96047430118E+02  0.16708896215E+03  0.00000000000E+00 0.  1.
         13    1    4    4    0    0  0.16485143030E+02  0.43408575629E+02 -0.52731943600E+02  0.70261812208E+02  0.00000000000E+00 0. -1.
        -13    1    3    3    0    0 -0.11497791830E+02 -0.47737275220E+02 -0.48703862178E+02  0.69160052439E+02  0.00000000000E+00 0.  1.
         13    1    3    3    0    0  0.62672872597E+02 -0.10377066192E+03 -0.32009592639E+03  0.34228298427E+03  0.00000000000E+00 0. -1.
          2    1    1    2  501    0 -0.12947254142E+02 -0.17200691935E+02 -0.13922818375E+02  0.25638643966E+02  0.00000000000E+00 0. -1.
<scales pt_clust_5="13000.00000" pt_clust_6="13000.00000" pt_clust_7="13000.00000" pt_clust_8="13000.00000" pt_clust_9="21.52894"></scales>
<clustering>
<clus scale="   21.529">  1  9  2 -1</clus>
<clus scale="   65.392">  5  6 -1 -1</clus>
<clus scale="   87.741">  7  8 -1 -1</clus>
<clus scale="  176.527">  1  5  2 -1</clus>
<clus scale="   21.529">  1  5  2 -1</clus>
</clustering>
</event>
<event>
 9    1  0.1671478E-005  0.1721212E+03  0.7546771E-02  0.1179765E+00
          3   -1    0    0  502    0 -0.00000000000E+00  0.00000000000E+00  0.12238172813E+03  0.12238172813E+03  0.00000000000E+00 0. -1.
         21   -1    0    0  501  502  0.00000000000E+00 -0.00000000000E+00 -0.31521601675E+03  0.31521601675E+03  0.00000000000E+00 0.  1.
         23    2    1    2    0    0  0.14007275417E+03 -0.85180975024E+01 -0.31636610850E+02  0.18291273710E+03  0.11297459803E+03 0.  0.
         23    2    1    2    0    0 -0.11718576567E+03  0.16024841386E+02 -0.75439369949E+02  0.16560833964E+03  0.88009797191E+02 0.  0.
        -11    1    4    4    0    0 -0.50782585272E+02 -0.34304560630E+02 -0.16243215265E+02  0.63399652121E+02  0.00000000000E+00 0. -1.
         11    1    4    4    0    0 -0.66403180403E+02  0.50329402016E+02 -0.59196154684E+02  0.10220868752E+03  0.00000000000E+00 0.  1.
        -13    1    3    3    0    0  0.74702115095E+02  0.51556783934E+02 -0.23495250473E+02  0.93757851746E+02  0.00000000000E+00 0.  1.
         13    1    3    3    0    0  0.65370639078E+02 -0.60074881436E+02 -0.81413603769E+01  0.89154885351E+02  0.00000000000E+00 0. -1.
          3    1    1    2  501    0 -0.22886988499E+02 -0.75067438838E+01 -0.85758307820E+02  0.89076668137E+02  0.00000000000E+00 0. -1.
<scales pt_clust_5="13000.00000" pt_clust_6="13000.00000" pt_clust_7="13000.00000" pt_clust_8="13000.00000" pt_clust_9="24.08662"></scales>
<clustering>
<clus scale="   24.087">  2  9  1 -1</clus>
<clus scale="   88.010">  5  6 -1 -1</clus>
<clus scale="  112.975">  7  8 -1 -1</clus>
<clus scale="  156.870">  2  5  1 -1</clus>
<clus scale="   24.087">  2  5  1 -1</clus>
</clustering>
</event>
<event>
 9    1  0.1671478E-005  0.1146753E+03  0.7546771E-02  0.1253462E+00
         21   -1    0    0  501  502  0.00000000000E+00  0.00000000000E+00  0.32963201451E+02  0.32963201451E+02  0.00000000000E+00 0.  1.
          1   -1    0    0  502    0 -0.00000000000E+00 -0.00000000000E+00 -0.60875740688E+03  0.60875740688E+03  0.00000000000E+00 0. -1.
         23    2    1    2    0    0  0.71745213934E+02 -0.11639351527E+02 -0.34994919760E+03  0.36942475699E+03  0.93420340105E+02 0.  0.
         23    2    1    2    0    0 -0.49026182203E+02  0.23066177686E+02 -0.10347987699E+03  0.14731604496E+03  0.89768129459E+02 0.  0.
        -11    1    3    3    0    0  0.48765101385E+02 -0.51034092437E+02 -0.17680624317E+03  0.19037584229E+03  0.00000000000E+00 0.  1.
         11    1    3    3    0    0  0.22980112548E+02  0.39394740910E+02 -0.17314295443E+03  0.17904891469E+03  0.00000000000E+00 0. -1.
        -11    1    4    4    0    0  0.18443898762E+02  0.31689179201E+02 -0.40261827059E+02  0.54455451501E+02  0.00000000000E+00 0. -1.
         11    1    4    4    0    0 -0.67470080966E+02 -0.86230015159E+01 -0.63218049927E+02  0.92860593457E+02  0.00000000000E+00 0.  1.
          1    1    1    2  501    0 -0.22719031730E+02 -0.11426826159E+02 -0.12236513084E+03  0.12497980639E+03  0.00000000000E+00 0. -1.
<scales pt_clust_5="13000.00000" pt_clust_6="13000.00000" pt_clust_7="13000.00000" pt_clust_8="13000.00000" pt_clust_9="25.43084"></scales>
<clustering>
<clus scale="   25.431">  1  9  2 -1</clus>
<clus scale="   89.768">  7  8 -1 -1</clus>
<clus scale="   93.420">  5  6 -1 -1</clus>
<clus scale="  111.720">  1  7  2 -1</clus>
<clus scale="   25.431">  1  5  2 -1</clus>
</clustering>
</event>
<event>
 9    1  0.1671478E-005  0.1313129E+03  0.7546771E-02  0.1225967E+00
          2   -1    0    0  502    0 -0.00000000000E+00  0.00000000000E+00  0.89041817833E+03  0.89041817833E+03  0.00000000000E+00 0. -1.
         21   -1    0    0  501  502  0.00000000000E+00 -0.00000000000E+00 -0.23040266329E+02  0.23040266329E+02  0.00000000000E+00 0.  1.
         23    2    1    2    0    0 -0.10082278320E+03  0.12191596858E+02  0.43852426068E+03  0.45938851490E+03  0.91762801653E+02 0.  0.
         23    2    1    2    0    0  0.83359302801E+02  0.41072137607E+01  0.36212975359E+03  0.38319889969E+03  0.93476177295E+02 0.  0.
        -11    1    3    3    0    0 -0.14992846171E+02  0.43105429064E+02  0.14848797740E+03  0.15534330653E+03  0.00000000000E+00 0.  1.
         11    1    3    3    0    0 -0.85829937024E+02 -0.30913832205E+02  0.29003628328E+03  0.30404520836E+03  0.00000000000E+00 0. -1.
        -13    1    4    4    0    0  0.53072384328E+02 -0.28470290477E+02  0.30450211425E+03  0.31040098744E+03  0.00000000000E+00 0. -1.
         13    1    4    4    0    0  0.30286918474E+02  0.32577504237E+02  0.57627639338E+02  0.72797912254E+02  0.00000000000E+00 0.  1.
          2    1    1    2  501    0  0.17463480394E+02 -0.16298810619E+02  0.66723897727E+02  0.70871030068E+02  0.00000000000E+00 0. -1.
<scales pt_clust_5="13000.00000" pt_clust_6="13000.00000" pt_clust_7="13000.00000" pt_clust_8="13000.00000" pt_clust_9="23.88775"></scales>
<clustering>
<clus scale="   23.888">  2  9  1 -1</clus>
<clus scale="   91.763">  5  6 -1 -1</clus>
<clus scale="   93.476">  7  8 -1 -1</clus>
<clus scale="  130.099">  1  5  2 -1</clus>
<clus scale="   23.888">  2  5  1 -1</clus>
</clustering>
</event>
<event>
 9    1  0.1671478E-005  0.1418817E+03  0.7546771E-02  0.1212231E+00
         21   -1    0    0  501  502  0.00000000000E+00  0.00000000000E+00  0.47483958689E+02  0.47483958689E+02  0.00000000000E+00 0.  1.
          2   -1    0    0  502    0 -0.00000000000E+00 -0.00000000000E+00 -0.60900700599E+03  0.60900700599E+03  0.00000000000E+00 0. -1.
         23    2    1    2    0    0 -0.22132891676E+02 -0.10629090652E+03 -0.32610263641E+03  0.35409608376E+03  0.85167396124E+02 0.  0.
         23    2    1    2    0    0 -0.94156440142E+01  0.11009288937E+03 -0.13525465464E+03  0.19730946849E+03  0.91804717278E+02 0.  0.
        -11    1    3    3    0    0 -0.43284607998E+02 -0.36696408251E+02 -0.84536634761E+02  0.10181663069E+03  0.00000000000E+00 0. -1.
         11    1    3    3    0    0  0.21151716322E+02 -0.69594498270E+02 -0.24156600165E+03  0.25227945307E+03  0.00000000000E+00 0.  1.
        -13    1    4    4    0    0  0.15439425598E+01  0.72317465841E+02 -0.19298819012E+02  0.74864170600E+02  0.00000000000E+00 0.  1.
         13    1    4    4    0    0 -0.10959586574E+02  0.37775423524E+02 -0.11595583563E+03  0.12244529789E+03  0.00000000000E+00 0. -1.
          2    1    1    2  501    0  0.31548535690E+02 -0.38019828448E+01 -0.10016575626E+03  0.10508541243E+03  0.00000000000E+00 0. -1.
<scales pt_clust_5="13000.00000" pt_clust_6="13000.00000" pt_clust_7="13000.00000" pt_clust_8="13000.00000" pt_clust_9="31.77682"></scales>
<clustering>
<clus scale="   31.777">  1  9  2 -1</clus>
<clus scale="   85.167">  5  6 -1 -1</clus>
<clus scale="   91.805">  7  8 -1 -1</clus>
<clus scale="  137.680">  2  5  1 -1</clus>
<clus scale="   31.777">  1  5  2 -1</clus>
</clustering>
</event>
<event>
 9    1  0.1671478E-005  0.9403930E+02  0.7546771E-02  0.1296971E+00
         21   -1    0    0  501  502  0.00000000000E+00  0.00000000000E+00  0.30287228514E+02  0.30287228514E+02  0.00000000000E+00 0. -1.
          1   -1    0    0  502    0 -0.00000000000E+00 -0.00000000000E+00 -0.55003207193E+03  0.55003207193E+03  0.00000000000E+00 0. -1.
         23    2    1    2    0    0 -0.15326080573E+02  0.26513431188E+02 -0.36413868537E+03  0.37683858920E+03  0.92046126180E+02 0.  0.
         23    2    1    2    0    0 -0.70758616248E+01 -0.12868474776E+01 -0.14405266749E+03  0.16781965849E+03  0.85793606816E+02 0.  0.
        -11    1    4    4    0    0 -0.29682983426E+02  0.23208295149E+02 -0.27642779078E+02  0.46731442348E+02  0.00000000000E+00 0.  1.
         11    1    4    4    0    0  0.22607121801E+02 -0.24495142626E+02 -0.11640988841E+03  0.12108821614E+03  0.00000000000E+00 0. -1.
        -13    1    3    3    0    0  0.36685547334E+02 -0.10317455213E+01 -0.10949410184E+03  0.11548096042E+03  0.00000000000E+00 0.  1.
         13    1    3    3    0    0 -0.52011627906E+02  0.27545176709E+02 -0.25464458353E+03  0.26135762878E+03  0.00000000000E+00 0. -1.
          1    1    1    2  501    0  0.22401942197E+02 -0.25226583710E+02 -0.11553490559E+02  0.35661052761E+02  0.00000000000E+00 0. -1.
<scales pt_clust_5="13000.00000" pt_clust_6="13000.00000" pt_clust_7="13000.00000" pt_clust_8="13000.00000" pt_clust_9="33.73763"></scales>
<clustering>
<clus scale="   33.738">  1  9  2 -1</clus>
<clus scale="   85.794">  5  6 -1 -1</clus>
<clus scale="   87.929">  1  5  2 -1</clus>
<clus scale="   92.046">  7  8 -1 -1</clus>
<clus scale="   33.738">  1  5  2 -1</clus>
</clustering>
</event>
<event>
 9    1  0.1671478E-005  0.1219406E+03  0.7546771E-02  0.1240404E+00
         21   -1    0    0  501  502  0.00000000000E+00  0.00000000000E+00  0.12496761383E+03  0.12496761383E+03  0.00000000000E+00 0.  1.
          1   -1    0    0  502    0 -0.00000000000E+00 -0.00000000000E+00 -0.23514907024E+03  0.23514907024E+03  0.00000000000E+00 0. -1.
         23    2    1    2    0    0 -0.14355768889E+02 -0.81535607231E+02 -0.16916425867E+03  0.20876594967E+03  0.90069595232E+02 0.  0.
         23    2    1    2    0    0  0.30405412373E+02  0.65360934424E+02  0.50029132849E+02  0.12686851040E+03  0.91630584124E+02 0.  0.
        -11    1    4    4    0    0  0.20684627189E+02  0.54371043857E+01 -0.23328942894E+02  0.31648941256E+02  0.00000000000E+00 0. -1.
         11    1    4    4    0    0  0.97207851837E+01  0.59923830038E+02  0.73358075744E+02  0.95219569143E+02  0.00000000000E+00 0.  1.
        -13    1    3    3    0    0 -0.50667697908E+02 -0.36274908483E+02 -0.68724759119E+02  0.92769483736E+02  0.00000000000E+00 0.  1.
         13    1    3    3    0    0  0.36311929019E+02 -0.45260698748E+02 -0.10043949955E+03  0.11599646593E+03  0.00000000000E+00 0. -1.
          1    1    1    2  501    0 -0.16049643484E+02  0.16174672807E+02  0.89536693977E+01  0.24482224001E+02  0.00000000000E+00 0. -1.
<scales pt_clust_5="13000.00000" pt_clust_6="13000.00000" pt_clust_7="13000.00000" pt_clust_8="13000.00000" pt_clust_9="22.78620"></scales>
<clustering>
<clus scale="   22.786">  1  9  2 -1</clus>
<clus scale="   90.070">  7  8 -1 -1</clus>
<clus scale="   91.631">  5  6 -1 -1</clus>
<clus scale="  120.772">  2  7  1 -1</clus>
<clus scale="   22.786">  1  5  2 -1</clus>
</clustering>
</event>
<event>
 9    1  0.1671478E-005  0.9991200E+02  0.7546771E-02  0.1280881E+00
         -1   -1    0    0    0  501 -0.00000000000E+00  0.00000000000E+00  0.21989436369E+03  0.21989436369E+03  0.00000000000E+00 0.  1.
         21   -1    0    0  501  502  0.00000000000E+00 -0.00000000000E+00 -0.66787785435E+02  0.66787785435E+02  0.00000000000E+00 0.  1.
         23    2    1    2    0    0  0.30867122367E+02  0.16883776587E+02  0.11308022026E+03  0.15021571074E+03  0.92410942989E+02 0.  0.
         23    2    1    2    0    0 -0.46631346242E+02  0.83248739221E+00  0.45056174541E+02  0.11222441251E+03  0.91591945119E+02 0.  0.
        -11    1    4    4    0    0 -0.27092913889E+02  0.45971612292E+02  0.27231161649E+02  0.59907856617E+02  0.00000000000E+00 0.  1.
         11    1    4    4    0    0 -0.19538432354E+02 -0.45139124900E+02  0.17825012892E+02  0.52316555890E+02  0.00000000000E+00 0. -1.
        -13    1    3    3    0    0 -0.26002810445E+02 -0.13450165627E+02  0.15110610382E+02  0.32945161292E+02  0.00000000000E+00 0.  1.
         13    1    3    3    0    0  0.56869932812E+02  0.30333942214E+02  0.97969609881E+02  0.11727054945E+03  0.00000000000E+00 0. -1.
         -1    1    1    2    0  502  0.15764223875E+02 -0.17716263979E+02 -0.50298165534E+01  0.24242025871E+02  0.00000000000E+00 0.  1.
<scales pt_clust_5="13000.00000" pt_clust_6="13000.00000" pt_clust_7="13000.00000" pt_clust_8="13000.00000" pt_clust_9="23.71448"></scales>
<clustering>
<clus scale="   23.714">  2  9  1 -1</clus>
<clus scale="   91.592">  5  6 -1 -1</clus>
<clus scale="   92.411">  7  8 -1 -1</clus>
<clus scale="   99.155">  2  5  1 -1</clus>
<clus scale="   23.714">  2  5  1 -1</clus>
</clustering>
</event>
<event>
 9    1  0.1671478E-005  0.1401516E+03  0.7546771E-02  0.1224744E+00
         -3   -1    0    0    0  501 -0.00000000000E+00  0.00000000000E+00  0.96471758115E+02  0.96471758115E+02  0.00000000000E+00 0.  1.
         21   -1    0    0  501  502  0.00000000000E+00 -0.00000000000E+00 -0.43510827999E+03  0.43510827999E+03  0.00000000000E+00 0. -1.
         23    2    1    2    0    0  0.52367724709E+02  0.26799266974E+02 -0.12119890094E+03  0.16351500814E+03  0.92668252364E+02 0.  0.
         23    2    1    2    0    0  0.49111641821E+02 -0.75028310463E+02 -0.56473406894E+01  0.12831677601E+03  0.91608415639E+02 0.  0.
        -11    1    3    3    0    0  0.79401419115E+02  0.20446528163E+02 -0.90165595323E+02  0.12187075306E+03  0.00000000000E+00 0. -1.
         11    1    3    3    0    0 -0.27033694406E+02  0.63527388103E+01 -0.31033305617E+02  0.41644255079E+02  0.00000000000E+00 0.  1.
        -11    1    4    4    0    0  0.21921933448E+02 -0.90385353777E+02 -0.18006783989E+02  0.94732927819E+02  0.00000000000E+00 0.  1.
         11    1    4    4    0    0  0.27189708373E+02  0.15357043314E+02  0.12359443299E+02  0.33583848193E+02  0.00000000000E+00 0. -1.
         -3    1    1    2    0  502 -0.10147936653E+03  0.48229043489E+02 -0.21179028025E+03  0.23974825396E+03  0.00000000000E+00 0.  1.
<scales pt_clust_5="13000.00000" pt_clust_6="13000.00000" pt_clust_7="13000.00000" pt_clust_8="13000.00000" pt_clust_9="106.06777"></scales>
<clustering>
<clus scale="   91.608">  7  8 -1 -1</clus>
<clus scale="   92.668">  5  6 -1 -1</clus>
<clus scale="  109.763">  1  5  2 -1</clus>
<clus scale="  106.068">  2  9  1 -1</clus>
<clus scale="  106.068">  2  5  1 -1</clus>
</clustering>
</event>
<event>
 9    1  0.1671478E-005  0.1215757E+03  0.7546771E-02  0.1241700E+00
         -1   -1    0    0    0  501 -0.00000000000E+00  0.00000000000E+00  0.25586045004E+03  0.25586045004E+03  0.00000000000E+00 0.  1.
         21   -1    0    0  501  502  0.00000000000E+00 -0.00000000000E+00 -0.92009169224E+02  0.92009169224E+02  0.00000000000E+00 0. -1.
         23    2    1    2    0    0  0.29206957146E+02  0.90167077027E+02  0.11057651830E+03  0.17235885722E+03  0.92180589800E+02 0.  0.
         23    2    1    2    0    0 -0.52015683133E+02 -0.43964554424E+02  0.54088574324E+02  0.12397850647E+03  0.88354868886E+02 0.  0.
        -11    1    4    4    0    0 -0.17224085592E+02  0.26576587616E+02  0.24117100098E+02  0.39807268820E+02  0.00000000000E+00 0.  1.
         11    1    4    4    0    0 -0.34791597541E+02 -0.70541142040E+02  0.29971474226E+02  0.84171237647E+02  0.00000000000E+00 0. -1.
        -11    1    3    3    0    0  0.28715289960E+02  0.38795200070E+02  0.11093843432E+03  0.12098335272E+03  0.00000000000E+00 0.  1.
         11    1    3    3    0    0  0.49166718606E+00  0.51371876957E+02 -0.36191602243E+00  0.51375504493E+02  0.00000000000E+00 0. -1.
         -1    1    1    2    0  502  0.22808725987E+02 -0.46202522603E+02 -0.81381180519E+00  0.51532255585E+02  0.00000000000E+00 0.  1.
<scales pt_clust_5="13000.00000" pt_clust_6="13000.00000" pt_clust_7="13000.00000" pt_clust_8="13000.00000" pt_clust_9="51.52583"></scales>
<clustering>
<clus scale="   51.526">  2  9  1 -1</clus>
<clus scale="   88.355">  5  6 -1 -1</clus>
<clus scale="   92.181">  7  8 -1 -1</clus>
<clus scale="  118.701">  2  5  1 -1</clus>
<clus scale="   51.526">  2  5  1 -1</clus>
</clustering>
</event>
<event>
 9    1  0.1671478E-005  0.9435269E+02  0.7546771E-02  0.1295495E+00
         21   -1    0    0  501  502  0.00000000000E+00  0.00000000000E+00  0.27404331003E+02  0.27404331003E+02  0.00000000000E+00 0.  1.
          2   -1    0    0  502    0 -0.00000000000E+00 -0.00000000000E+00 -0.64476874534E+03  0.64476874534E+03  0.00000000000E+00 0. -1.
         23    2    1    2    0    0 -0.46806457286E+01 -0.10243281241E+02 -0.42806453412E+03  0.43846999458E+03  0.94286040947E+02 0.  0.
         23    2    1    2    0    0 -0.84379024229E+01 -0.96270000730E+01 -0.18946866277E+03  0.20989230956E+03  0.89400951414E+02 0.  0.
        -13    1    4    4    0    0 -0.47209524022E+02 -0.23266730417E+01 -0.73407189954E+02  0.87308465241E+02  0.00000000000E+00 0.  1.
         13    1    4    4    0    0  0.38771621599E+02 -0.73003270312E+01 -0.11606147282E+03  0.12258384432E+03  0.00000000000E+00 0. -1.
        -13    1    3    3    0    0  0.38748190013E+02  0.17816897452E+02 -0.16919522965E+03  0.17448750614E+03  0.00000000000E+00 0. -1.
         13    1    3    3    0    0 -0.43428835741E+02 -0.28060178693E+02 -0.25886930448E+03  0.26398248844E+03  0.00000000000E+00 0.  1.
          2    1    1    2  501    0  0.13118548151E+02  0.19870281314E+02  0.16878256101E+00  0.23810772198E+02  0.00000000000E+00 0. -1.
<scales pt_clust_5="13000.00000" pt_clust_6="13000.00000" pt_clust_7="13000.00000" pt_clust_8="13000.00000" pt_clust_9="23.81017"></scales>
<clustering>
<clus scale="   23.810">  1  9  2 -1</clus>
<clus scale="   89.401">  5  6 -1 -1</clus>
<clus scale="   89.471">  1  5  2 -1</clus>
<clus scale="   94.286">  7  8 -1 -1</clus>
<clus scale="   23.810">  1  5  2 -1</clus>
</clustering>
</event>
<event>
 9    1  0.1671478E-005  0.1105287E+03  0.7546771E-02  0.1266983E+00
          1   -1    0    0  502    0 -0.00000000000E+00  0.00000000000E+00  0.28854169761E+03  0.28854169761E+03  0.00000000000E+00 0. -1.
         21   -1    0    0  501  502  0.00000000000E+00 -0.00000000000E+00 -0.12469671317E+03  0.12469671317E+03  0.00000000000E+00 0.  1.
         23    2    1    2    0    0  0.16950708123E+02 -0.25101925852E+02  0.12823801105E+03  0.16124461112E+03  0.92937634741E+02 0.  0.
         23    2    1    2    0    0 -0.26246198454E+02 -0.13452800975E+02  0.11662821332E+03  0.16178673552E+03  0.10818025172E+03 0.  0.
        -11    1    3    3    0    0 -0.94461076205E+01  0.31294539093E+02  0.27037902376E+02  0.42421990655E+02  0.00000000000E+00 0.  1.
         11    1    3    3    0    0  0.26396815744E+02 -0.56396464945E+02  0.10120010867E+03  0.11882262047E+03  0.00000000000E+00 0. -1.
        -11    1    4    4    0    0 -0.47798599259E+02 -0.49996514902E+02  0.79811627516E+02  0.10561369930E+03  0.00000000000E+00 0. -1.
         11    1    4    4    0    0  0.21552400805E+02  0.36543713926E+02  0.36816585800E+02  0.56173036218E+02  0.00000000000E+00 0.  1.
          1    1    1    2  501    0  0.92954903313E+01  0.38554726828E+02 -0.81021239923E+02  0.90207064136E+02  0.00000000000E+00 0. -1.
<scales pt_clust_5="13000.00000" pt_clust_6="13000.00000" pt_clust_7="13000.00000" pt_clust_8="13000.00000" pt_clust_9="39.65946"></scales>
<clustering>
<clus scale="   39.659">  2  9  1 -1</clus>
<clus scale="   92.938">  5  6 -1 -1</clus>
<clus scale="   95.661">  1  5  2 -1</clus>
<clus scale="  108.180">  7  8 -1 -1</clus>
<clus scale="   39.659">  2  5  1 -1</clus>
</clustering>
</event>
<event>
 9    1  0.1671478E-005  0.1090021E+03  0.7546771E-02  0.1262791E+00
         -1   -1    0    0    0  501 -0.00000000000E+00  0.00000000000E+00  0.25517964059E+02  0.25517964059E+02  0.00000000000E+00 0.  1.
         21   -1    0    0  501  502  0.00000000000E+00 -0.00000000000E+00 -0.68865999888E+03  0.68865999888E+03  0.00000000000E+00 0. -1.
         23    2    1    2    0    0  0.58885464934E+02  0.66706420148E+01 -0.16886810842E+03  0.20097456542E+03  0.91445844408E+02 0.  0.
         23    2    1    2    0    0 -0.54620107326E+02 -0.30711046940E+02 -0.35094520247E+03  0.36780994014E+03  0.90526749644E+02 0.  0.
        -13    1    3    3    0    0  0.82929304055E+02 -0.31518561210E+01 -0.12960981453E+03  0.15390226669E+03  0.00000000000E+00 0.  1.
         13    1    3    3    0    0 -0.24043839120E+02  0.98224981357E+01 -0.39258293890E+02  0.47072298737E+02  0.00000000000E+00 0. -1.
        -13    1    4    4    0    0 -0.60512968312E+01  0.27083064739E+02 -0.46560080839E+02  0.54202875539E+02  0.00000000000E+00 0.  1.
         13    1    4    4    0    0 -0.48568810495E+02 -0.57794111679E+02 -0.30438512163E+03  0.31360706460E+03  0.00000000000E+00 0. -1.
         -1    1    1    2    0  502 -0.42653576082E+01  0.24040404925E+02 -0.14332872393E+03  0.14539345738E+03  0.00000000000E+00 0.  1.
<scales pt_clust_5="13000.00000" pt_clust_6="13000.00000" pt_clust_7="13000.00000" pt_clust_8="13000.00000" pt_clust_9="24.41586"></scales>
<clustering>
<clus scale="   24.416">  2  9  1 -1</clus>
<clus scale="   90.527">  7  8 -1 -1</clus>
<clus scale="   91.446">  5  6 -1 -1</clus>
<clus scale="  108.232">  2  7  1 -1</clus>
<clus scale="   24.416">  2  5  1 -1</clus>
</clustering>
</event>
<event>
 9    1  0.1671478E-005  0.1117622E+03  0.7546771E-02  0.1257793E+00
         21   -1    0    0  501  502  0.00000000000E+00  0.00000000000E+00  0.33176623077E+02  0.33176623077E+02  0.00000000000E+00 0. -1.
          3   -1    0    0  502    0 -0.00000000000E+00 -0.00000000000E+00 -0.70188550934E+03  0.70188550934E+03  0.00000000000E+00 0. -1.
         23    2    1    2    0    0 -0.59553963675E+02 -0.16493041632E+02 -0.35731242261E+03  0.37351737950E+03  0.89578850326E+02 0.  0.
         23    2    1    2    0    0  0.74235726119E+02 -0.33201589508E+02 -0.26621485000E+03  0.29279528946E+03  0.90804441492E+02 0.  0.
        -11    1    4    4    0    0  0.29893272306E+02 -0.13028443342E+02 -0.13276118944E+02  0.35208001921E+02  0.00000000000E+00 0.  1.
         11    1    4    4    0    0  0.44342453813E+02 -0.20173146166E+02 -0.25293873105E+03  0.25758728754E+03  0.00000000000E+00 0. -1.
        -13    1    3    3    0    0  0.14617758356E+02 -0.22560586569E+02 -0.44629390836E+02  0.52100301843E+02  0.00000000000E+00 0.  1.
         13    1    3    3    0    0 -0.74171722031E+02  0.60675449372E+01 -0.31268303177E+03  0.32141707766E+03  0.00000000000E+00 0. -1.
          3    1    1    2  501    0 -0.14681762445E+02  0.49694631140E+02 -0.45181613659E+02  0.68749463456E+02  0.00000000000E+00 0. -1.
<scales pt_clust_5="13000.00000" pt_clust_6="13000.00000" pt_clust_7="13000.00000" pt_clust_8="13000.00000" pt_clust_9="51.81805"></scales>
<clustering>
<clus scale="   51.818">  1  9  2 -1</clus>
<clus scale="   89.579">  7  8 -1 -1</clus>
<clus scale="   90.804">  5  6 -1 -1</clus>
<clus scale="  110.769">  2  7  1 -1</clus>
<clus scale="   51.818">  1  5  2 -1</clus>
</clustering>
</event>
<event>
 9    1  0.1671478E-005  0.2236400E+03  0.7546771E-02  0.1131923E+00
         -4   -1    0    0    0  501 -0.00000000000E+00  0.00000000000E+00  0.80896745437E+03  0.80896745437E+03  0.00000000000E+00 0.  1.
         21   -1    0    0  501  502  0.00000000000E+00 -0.00000000000E+00 -0.12603225425E+03  0.12603225425E+03  0.00000000000E+00 0. -1.
         23    2    1    2    0    0 -0.20461045216E+03  0.51240954714E+02  0.51118294383E+03  0.55867407485E+03  0.79483628970E+02 0.  0.
         23    2    1    2    0    0  0.17271099127E+03 -0.46699966066E+02 -0.14124364443E+01  0.20018873532E+03  0.89797335360E+02 0.  0.
        -11    1    4    4    0    0  0.43582776897E+02  0.26984832297E+02  0.40113782253E+01  0.51417222518E+02  0.00000000000E+00 0.  1.
         11    1    4    4    0    0  0.12912821437E+03 -0.73684798364E+02 -0.54238146696E+01  0.14877151281E+03  0.00000000000E+00 0. -1.
        -13    1    3    3    0    0 -0.96147542050E+02  0.30668089648E+02  0.14838852620E+03  0.17945483073E+03  0.00000000000E+00 0. -1.
         13    1    3    3    0    0 -0.10846291011E+03  0.20572865065E+02  0.36279441763E+03  0.37921924412E+03  0.00000000000E+00 0.  1.
         -4    1    1    2    0  502  0.31899460890E+02 -0.45409886474E+01  0.17316469274E+03  0.17613689845E+03  0.00000000000E+00 0.  1.
<scales pt_clust_5="13000.00000" pt_clust_6="13000.00000" pt_clust_7="13000.00000" pt_clust_8="13000.00000" pt_clust_9="32.22107"></scales>
<clustering>
<clus scale="   32.221">  2  9  1 -1</clus>
<clus scale="   79.484">  7  8 -1 -1</clus>
<clus scale="   89.797">  5  6 -1 -1</clus>
<clus scale="  219.702">  1  7  2 -1</clus>
<clus scale="   32.221">  2  5  1 -1</clus>
</clustering>
</event>
<event>
 9    1  0.1671478E-005  0.1003420E+03  0.7546771E-02  0.1279706E+00
          2   -1    0    0  502    0 -0.00000000000E+00  0.00000000000E+00  0.27434605524E+03  0.27434605524E+03  0.00000000000E+00 0. -1.
         21   -1    0    0  501  502  0.00000000000E+00 -0.00000000000E+00 -0.14310916997E+03  0.14310916997E+03  0.00000000000E+00 0.  1.
         23    2    1    2    0    0 -0.38514960866E+01  0.42408819678E+02  0.22553542327E+03  0.24692215759E+03  0.91054833753E+02 0.  0.
         23    2    1    2    0    0 -0.20061069088E+02 -0.36063151522E+02 -0.34780083563E+02  0.10607746512E+03  0.91322379526E+02 0.  0.
        -11    1    3    3    0    0  0.28207210631E+02 -0.56528820497E+01  0.24617950918E+02  0.37863509009E+02  0.00000000000E+00 0.  1.
         11    1    3    3    0    0 -0.32058706718E+02  0.48061701728E+02  0.20091747235E+03  0.20905864858E+03  0.00000000000E+00 0. -1.
        -13    1    4    4    0    0 -0.12016655687E+02  0.28826217903E+02 -0.24915066370E+02  0.39951362739E+02  0.00000000000E+00 0. -1.
         13    1    4    4    0    0 -0.80444134003E+01 -0.64889369425E+02 -0.98650171936E+01  0.66126102377E+02  0.00000000000E+00 0.  1.
          2    1    1    2  501    0  0.23912565174E+02 -0.63456681561E+01 -0.59518454431E+02  0.64455602513E+02  0.00000000000E+00 0. -1.
<scales pt_clust_5="13000.00000" pt_clust_6="13000.00000" pt_clust_7="13000.00000" pt_clust_8="13000.00000" pt_clust_9="24.74022"></scales>
<clustering>
<clus scale="   24.740">  2  9  1 -1</clus>
<clus scale="   91.055">  5  6 -1 -1</clus>
<clus scale="   91.322">  7  8 -1 -1</clus>
<clus scale="  100.099">  1  5  2 -1</clus>
<clus scale="   24.740">  2  5  1 -1</clus>
</clustering>
</event>
<event>
 9    1  0.1671478E-005  0.1453217E+03  0.7546771E-02  0.1207895E+00
         21   -1    0    0  501  502  0.00000000000E+00  0.00000000000E+00  0.33697227458E+02  0.33697227458E+02  0.00000000000E+00 0. -1.
          3   -1    0    0  502    0 -0.00000000000E+00 -0.00000000000E+00 -0.83727695409E+03  0.83727695409E+03  0.00000000000E+00 0. -1.
         23    2    1    2    0    0  0.10109243877E+03 -0.16092769570E+02 -0.41158296725E+03  0.43211431243E+03  0.82725943142E+02 0.  0.
         23    2    1    2    0    0 -0.13376393634E+03  0.23145737842E+02 -0.31052528767E+03  0.35079868688E+03  0.90582827199E+02 0.  0.
        -13    1    3    3    0    0  0.58779905142E+02  0.72671847277E+01 -0.34379961203E+03  0.34886395981E+03  0.00000000000E+00 0.  1.
         13    1    3    3    0    0  0.42312533625E+02 -0.23359954298E+02 -0.67783355220E+02  0.83250352620E+02  0.00000000000E+00 0. -1.
        -13    1    4    4    0    0 -0.35414297362E+02  0.34309438798E+02 -0.18208881800E+03  0.18864688624E+03  0.00000000000E+00 0.  1.
         13    1    4    4    0    0 -0.98349638981E+02 -0.11163700956E+02 -0.12843646967E+03  0.16215180063E+03  0.00000000000E+00 0. -1.
          3    1    1    2  501    0  0.32671497577E+02 -0.70529682724E+01 -0.81471471707E+02  0.88061182239E+02  0.00000000000E+00 0. -1.
<scales pt_clust_5="13000.00000" pt_clust_6="13000.00000" pt_clust_7="13000.00000" pt_clust_8="13000.00000" pt_clust_9="33.42413"></scales>
<clustering>
<clus scale="   33.424">  1  9  2 -1</clus>
<clus scale="   82.726">  5  6 -1 -1</clus>
<clus scale="   90.583">  7  8 -1 -1</clus>
<clus scale="  140.559">  2  5  1 -1</clus>
<clus scale="   33.424">  1  5  2 -1</clus>
</clustering>
</event>
<event>
 9    1  0.1671478E-005  0.1581816E+03  0.7546771E-02  0.1195230E+00
         21   -1    0    0  501  502  0.00000000000E+00  0.00000000000E+00  0.17995936118E+03  0.17995936118E+03  0.00000000000E+00 0. -1.
          1   -1    0    0  502    0 -0.00000000000E+00 -0.00000000000E+00 -0.23487079459E+03  0.23487079459E+03  0.00000000000E+00 0. -1.
         23    2    1    2    0    0  0.44206950337E+02  0.93360687623E+02 -0.11043917940E+03  0.18983442936E+03  0.11475986133E+03 0.  0.
         23    2    1    2    0    0 -0.35835290850E+02 -0.11370091504E+03 -0.14023990342E+02  0.15204880349E+03  0.93327917508E+02 0.  0.
        -11    1    3    3    0    0  0.33250457434E+02  0.42797200101E+01  0.14062232045E+02  0.36354577332E+02  0.00000000000E+00 0. -1.
         11    1    3    3    0    0  0.10956492903E+02  0.89080967613E+02 -0.12450141145E+03  0.15347985203E+03  0.00000000000E+00 0.  1.
        -11    1    4    4    0    0  0.10302479471E+01 -0.89982857394E+02 -0.42762180426E+02  0.99632224257E+02  0.00000000000E+00 0. -1.
         11    1    4    4    0    0 -0.36865538797E+02 -0.23718057650E+02  0.28738190084E+02  0.52416579236E+02  0.00000000000E+00 0.  1.
          1    1    1    2  501    0 -0.83716594863E+01  0.20340227421E+02  0.69551736340E+02  0.72946922909E+02  0.00000000000E+00 0. -1.
<scales pt_clust_5="13000.00000" pt_clust_6="13000.00000" pt_clust_7="13000.00000" pt_clust_8="13000.00000" pt_clust_9="21.99567"></scales>
<clustering>
<clus scale="   21.996">  1  9  2 -1</clus>
<clus scale="   93.328">  7  8 -1 -1</clus>
<clus scale="  114.760">  5  6 -1 -1</clus>
<clus scale="  143.394">  1  7  2 -1</clus>
<clus scale="   21.996">  1  5  2 -1</clus>
</clustering>
</event>
<event>
 9    1  0.1671478E-005  0.1300206E+03  0.7546771E-02  0.1236923E+00
         21   -1    0    0  501  502  0.00000000000E+00  0.00000000000E+00  0.90626236429E+02  0.90626236429E+02  0.00000000000E+00 0.  1.
          1   -1    0    0  502    0 -0.00000000000E+00 -0.00000000000E+00 -0.49181365354E+03  0.49181365354E+03  0.00000000000E+00 0. -1.
         23    2    1    2    0    0  0.20405347401E+01  0.56240665035E+02 -0.35568680371E+03  0.37089585147E+03  0.88788817506E+02 0.  0.
         23    2    1    2    0    0  0.10451149365E+02 -0.93253441983E+02  0.34772831674E+01  0.14889563724E+03  0.11555253492E+03 0.  0.
        -11    1    3    3    0    0  0.34847461090E+02  0.62651557642E+02 -0.24404050935E+03  0.25435277357E+03  0.00000000000E+00 0. -1.
         11    1    3    3    0    0 -0.32806926350E+02 -0.64108926065E+01 -0.11164629437E+03  0.11654307790E+03  0.00000000000E+00 0.  1.
        -13    1    4    4    0    0  0.22476268150E+02  0.22943658088E+01 -0.37866492495E+02  0.44094421397E+02  0.00000000000E+00 0. -1.
         13    1    4    4    0    0 -0.12025118786E+02 -0.95547807792E+02  0.41343775663E+02  0.10480121584E+03  0.00000000000E+00 0.  1.
          1    1    1    2  501    0 -0.12491684105E+02  0.37012776948E+02 -0.48977896570E+02  0.62648401269E+02  0.00000000000E+00 0. -1.
<scales pt_clust_5="13000.00000" pt_clust_6="13000.00000" pt_clust_7="13000.00000" pt_clust_8="13000.00000" pt_clust_9="39.06391"></scales>
<clustering>
<clus scale="   39.064">  1  9  2 -1</clus>
<clus scale="   88.789">  5  6 -1 -1</clus>
<clus scale="  106.941">  2  5  1 -1</clus>
<clus scale="  115.553">  7  8 -1 -1</clus>
<clus scale="   39.064">  1  5  2 -1</clus>
</clustering>
</event>
<event>
 9    1  0.1671478E-005  0.2011400E+03  0.7546771E-02  0.1149355E+00
         21   -1    0    0  501  502  0.00000000000E+00  0.00000000000E+00  0.28575854219E+03  0.28575854219E+03  0.00000000000E+00 0. -1.
         -1   -1    0    0    0  501 -0.00000000000E+00 -0.00000000000E+00 -0.28240930127E+03  0.28240930127E+03  0.00000000000E+00 0.  1.
         23    2    1    2    0    0  0.86431196051E+02  0.15628036330E+03 -0.13310889078E+03  0.24136416704E+03  0.92977312945E+02 0.  0.
         23    2    1    2    0    0 -0.41940633019E+02 -0.17756593311E+03  0.23393982963E+02  0.20345057588E+03  0.86926296882E+02 0.  0.
        -13    1    4    4    0    0  0.57965348347E+01 -0.55981732042E+02  0.43709064684E+02  0.71260342927E+02  0.00000000000E+00 0. -1.
         13    1    4    4    0    0 -0.47737167854E+02 -0.12158420107E+03 -0.20315081721E+02  0.13219023296E+03  0.00000000000E+00 0.  1.
        -13    1    3    3    0    0  0.67227043529E+02  0.14635374746E+03 -0.14498266426E+03  0.21669994857E+03  0.00000000000E+00 0.  1.
         13    1    3    3    0    0  0.19204152522E+02  0.99266158455E+01  0.11873773475E+02  0.24664218471E+02  0.00000000000E+00 0. -1.
         -1    1    1    2    0  502 -0.44490563032E+02  0.21285569808E+02  0.11306414874E+03  0.12335310053E+03  0.00000000000E+00 0.  1.
<scales pt_clust_5="13000.00000" pt_clust_6="13000.00000" pt_clust_7="13000.00000" pt_clust_8="13000.00000" pt_clust_9="49.32024"></scales>
<clustering>
<clus scale="   49.320">  1  9  2 -1</clus>
<clus scale="   86.926">  5  6 -1 -1</clus>
<clus scale="   92.977">  7  8 -1 -1</clus>
<clus scale="  198.416">  1  5  2 -1</clus>
<clus scale="   49.320">  1  5  2 -1</clus>
</clustering>
</event>
<event>
 9    1  0.1671478E-005  0.9844387E+02  0.7546771E-02  0.1283607E+00
         21   -1    0    0  501  502  0.00000000000E+00  0.00000000000E+00  0.24569320226E+03  0.24569320226E+03  0.00000000000E+00 0.  1.
          2   -1    0    0  502    0 -0.00000000000E+00 -0.00000000000E+00 -0.82621256557E+02  0.82621256557E+02  0.00000000000E+00 0. -1.
         23    2    1    2    0    0  0.30997181839E+01 -0.37986717613E+02 -0.24451021537E+02  0.10194091587E+03  0.91331806658E+02 0.  0.
         23    2    1    2    0    0 -0.26659900162E+02  0.27748374434E+02  0.13077084134E+03  0.16407820090E+03  0.91323165220E+02 0.  0.
        -11    1    4    4    0    0 -0.24243535202E+02 -0.27891928289E+02  0.25236918778E+02  0.44750538904E+02  0.00000000000E+00 0. -1.
         11    1    4    4    0    0 -0.24163649602E+01  0.55640302722E+02  0.10553392256E+03  0.11932766200E+03  0.00000000000E+00 0.  1.
        -13    1    3    3    0    0 -0.44121469425E+02 -0.18894173930E+02 -0.10539009719E+02  0.49140254361E+02  0.00000000000E+00 0.  1.
         13    1    3    3    0    0  0.47221187609E+02 -0.19092543683E+02 -0.13912011817E+02  0.52800661514E+02  0.00000000000E+00 0. -1.
          2    1    1    2  501    0  0.23560181978E+02  0.10238343179E+02  0.56752125907E+02  0.62295342047E+02  0.00000000000E+00 0. -1.
<scales pt_clust_5="13000.00000" pt_clust_6="13000.00000" pt_clust_7="13000.00000" pt_clust_8="13000.00000" pt_clust_9="25.68863"></scales>
<clustering>
<clus scale="   25.689">  1  9  2 -1</clus>
<clus scale="   91.323">  5  6 -1 -1</clus>
<clus scale="   91.332">  7  8 -1 -1</clus>
<clus scale="   98.436">  1  5  2 -1</clus>
<clus scale="   25.689">  1  5  2 -1</clus>
</clustering>
</event>
<event>
 9    1  0.1671478E-005  0.1263504E+03  0.7546771E-02  0.1237711E+00
          1   -1    0    0  502    0 -0.00000000000E+00  0.00000000000E+00  0.46100138605E+02  0.46100138605E+02  0.00000000000E+00 0. -1.
         21   -1    0    0  501  502  0.00000000000E+00 -0.00000000000E+00 -0.71445703752E+03  0.71445703752E+03  0.00000000000E+00 0. -1.
         23    2    1    2    0    0  0.10043514211E+03 -0.26033289992E+02 -0.14466852569E+03  0.19604233459E+03  0.82089370005E+02 0.  0.
         23    2    1    2    0    0 -0.56717376200E+02 -0.24948709110E+02 -0.17763942714E+03  0.21200912473E+03  0.97738447125E+02 0.  0.
        -13    1    3    3    0    0  0.17800822225E+02 -0.36739588647E+02 -0.18450207275E+02  0.44800410649E+02  0.00000000000E+00 0.  1.
         13    1    3    3    0    0  0.82634319889E+02  0.10706298655E+02 -0.12621831842E+03  0.15124192395E+03  0.00000000000E+00 0. -1.
        -13    1    4    4    0    0 -0.11741801717E+02  0.35865664875E+02 -0.40252085803E+02  0.55176500758E+02  0.00000000000E+00 0.  1.
         13    1    4    4    0    0 -0.44975574483E+02 -0.60814373985E+02 -0.13738734134E+03  0.15683262397E+03  0.00000000000E+00 0. -1.
          1    1    1    2  501    0 -0.43717765915E+02  0.50981999102E+02 -0.34604894609E+03  0.35250571680E+03  0.00000000000E+00 0. -1.
<scales pt_clust_5="13000.00000" pt_clust_6="13000.00000" pt_clust_7="13000.00000" pt_clust_8="13000.00000" pt_clust_9="67.15957"></scales>
<clustering>
<clus scale="   67.160">  2  9  1 -1</clus>
<clus scale="   82.089">  5  6 -1 -1</clus>
<clus scale="   97.738">  7  8 -1 -1</clus>
<clus scale="  114.675">  1  5  2 -1</clus>
<clus scale="   67.160">  2  5  1 -1</clus>
</clustering>
</event>
<event>
 9    1  0.1671478E-005  0.3876660E+03  0.7546771E-02  0.1048663E+00
          2   -1    0    0  502    0 -0.00000000000E+00  0.00000000000E+00  0.19149766879E+04  0.19149766879E+04  0.00000000000E+00 0. -1.
         21   -1    0    0  501  502  0.00000000000E+00 -0.00000000000E+00 -0.13123346067E+03  0.13123346067E+03  0.00000000000E+00 0. -1.
         23    2    1    2    0    0 -0.37670436520E+03 -0.22594115117E+03  0.13203586035E+04  0.13930109900E+04  0.64631213586E+02 0.  0.
         23    2    1    2    0    0  0.22509511554E+03  0.13756814838E+03  0.23594947847E+03  0.36593291014E+03  0.92961991401E+02 0.  0.
        -11    1    3    3    0    0 -0.46087676639E+02 -0.43101583971E+02  0.13765031286E+03  0.15142466480E+03  0.00000000000E+00 0.  1.
         11    1    3    3    0    0 -0.33061668856E+03 -0.18283956720E+03  0.11827082907E+04  0.12415863252E+04  0.00000000000E+00 0. -1.
        -13    1    4    4    0    0  0.56850928263E+02  0.77311495393E+02  0.50700286551E+02  0.10853393212E+03  0.00000000000E+00 0.  1.
         13    1    4    4    0    0  0.16824418728E+03  0.60256652986E+02  0.18524919192E+03  0.25739897802E+03  0.00000000000E+00 0. -1.
          2    1    1    2  501    0  0.15160924966E+03  0.88373002793E+02  0.22743514526E+03  0.28726624846E+03  0.00000000000E+00 0. -1.
<scales pt_clust_5="13000.00000" pt_clust_6="13000.00000" pt_clust_7="13000.00000" pt_clust_8="13000.00000" pt_clust_9="175.48548"></scales>
<clustering>
<clus scale="   64.631">  5  6 -1 -1</clus>
<clus scale="   92.962">  7  8 -1 -1</clus>
<clus scale="  175.485">  2  9  1 -1</clus>
<clus scale="  381.864">  1  5  2 -1</clus>
<clus scale="  175.485">  2  5  1 -1</clus>
</clustering>
</event>
<event>
 9    1  0.1671478E-005  0.1086382E+03  0.7546771E-02  0.1263175E+00
         21   -1    0    0  501  502  0.00000000000E+00  0.00000000000E+00  0.18215565124E+03  0.18215565124E+03  0.00000000000E+00 0. -1.
         -2   -1    0    0    0  501 -0.00000000000E+00 -0.00000000000E+00 -0.27430658279E+03  0.27430658279E+03  0.00000000000E+00 0.  1.
         23    2    1    2    0    0  0.49998623509E+02  0.20934170080E+02 -0.21760117500E+03  0.24250956977E+03  0.92317486094E+02 0.  0.
         23    2    1    2    0    0 -0.75054778947E+02 -0.54372203682E+02  0.10371295898E+03  0.16685253100E+03  0.92161992520E+02 0.  0.
        -11    1    4    4    0    0  0.17549725203E+02 -0.24582697629E+02  0.10102388691E+02  0.31849020937E+02  0.00000000000E+00 0.  1.
         11    1    4    4    0    0 -0.92604504150E+02 -0.29789506053E+02  0.93610570293E+02  0.13500351007E+03  0.00000000000E+00 0. -1.
        -13    1    3    3    0    0  0.54579753264E+02 -0.23890294174E+02 -0.97842038886E+02  0.11455461665E+03  0.00000000000E+00 0. -1.
         13    1    3    3    0    0 -0.45811297545E+01  0.44824464254E+02 -0.11975913612E+03  0.12795495312E+03  0.00000000000E+00 0.  1.
         -2    1    1    2    0  502  0.25056155437E+02  0.33438033602E+02  0.21737284475E+02  0.47100133257E+02  0.00000000000E+00 0.  1.
<scales pt_clust_5="13000.00000" pt_clust_6="13000.00000" pt_clust_7="13000.00000" pt_clust_8="13000.00000" pt_clust_9="41.78412"></scales>
<clustering>
<clus scale="   41.784">  1  9  2 -1</clus>
<clus scale="   92.162">  5  6 -1 -1</clus>
<clus scale="   92.317">  7  8 -1 -1</clus>
<clus scale="  108.506">  1  5  2 -1</clus>
<clus scale="   41.784">  1  5  2 -1</clus>
</clustering>
</event>
<event>
 9    1  0.1671478E-005  0.1169345E+03  0.7546771E-02  0.1248741E+00
         21   -1    0    0  501  502  0.00000000000E+00  0.00000000000E+00  0.76136352777E+03  0.76136352777E+03  0.00000000000E+00 0.  1.
          3   -1    0    0  502    0 -0.00000000000E+00 -0.00000000000E+00 -0.30498376241E+02  0.30498376241E+02  0.00000000000E+00 0. -1.
         23    2    1    2    0    0  0.63631194279E+02  0.19387174721E+02  0.15393367958E+03  0.19137432821E+03  0.92215857417E+02 0.  0.
         23    2    1    2    0    0 -0.85382469069E+02  0.17195633239E+00  0.34673956142E+03  0.36844449094E+03  0.90734909778E+02 0.  0.
        -11    1    3    3    0    0  0.20103271940E+02  0.17394437393E+02  0.14432637301E+03  0.14675425016E+03  0.00000000000E+00 0.  1.
         11    1    3    3    0    0  0.43527922339E+02  0.19927373284E+01  0.96073065694E+01  0.44620078045E+02  0.00000000000E+00 0. -1.
        -11    1    4    4    0    0 -0.92678734575E+01  0.38183834324E+02  0.11996061338E+03  0.12623172123E+03  0.00000000000E+00 0. -1.
         11    1    4    4    0    0 -0.76114595612E+02 -0.38011877992E+02  0.22677894804E+03  0.24221276970E+03  0.00000000000E+00 0.  1.
          3    1    1    2  501    0  0.21751274790E+02 -0.19559131054E+02  0.23019191053E+03  0.23204308487E+03  0.00000000000E+00 0. -1.
<scales pt_clust_5="13000.00000" pt_clust_6="13000.00000" pt_clust_7="13000.00000" pt_clust_8="13000.00000" pt_clust_9="29.25197"></scales>
<clustering>
<clus scale="   29.252">  1  9  2 -1</clus>
<clus scale="   90.735">  7  8 -1 -1</clus>
<clus scale="   92.216">  5  6 -1 -1</clus>
<clus scale="  115.770">  1  7  2 -1</clus>
<clus scale="   29.252">  1  5  2 -1</clus>
</clustering>
</event>
<event>
 9    1  0.1671478E-005  0.1184875E+03  0.7546771E-02  0.1247964E+00
          1   -1    0    0  502    0 -0.00000000000E+00  0.00000000000E+00  0.21491143808E+03  0.21491143808E+03  0.00000000000E+00 0. -1.
         21   -1    0    0  501  502  0.00000000000E+00 -0.00000000000E+00 -0.18568815604E+03  0.18568815604E+03  0.00000000000E+00 0. -1.
         23    2    1    2    0    0 -0.88865946030E+02  0.48162726152E+02  0.11170398285E+03  0.17740516927E+03  0.93691033434E+02 0.  0.
         23    2    1    2    0    0  0.38469986703E+02 -0.13828166535E+02  0.25514843783E+02  0.99171635210E+02  0.86676686082E+02 0.  0.
        -11    1    3    3    0    0 -0.84580021035E+02  0.22922833369E+02  0.12166135163E+03  0.14993572199E+03  0.00000000000E+00 0. -1.
         11    1    3    3    0    0 -0.42859249947E+01  0.25239892783E+02 -0.99573687850E+01  0.27469447280E+02  0.00000000000E+00 0.  1.
        -13    1    4    4    0    0  0.63972468905E+02 -0.24705325522E+01  0.30331473744E+02  0.70841926910E+02  0.00000000000E+00 0. -1.
         13    1    4    4    0    0 -0.25502482202E+02 -0.11357633982E+02 -0.48166299616E+01  0.28329708299E+02  0.00000000000E+00 0.  1.
          1    1    1    2  501    0  0.50395959327E+02 -0.34334559617E+02 -0.10799554459E+03  0.12402278964E+03  0.00000000000E+00 0. -1.
<scales pt_clust_5="13000.00000" pt_clust_6="13000.00000" pt_clust_7="13000.00000" pt_clust_8="13000.00000" pt_clust_9="60.98045"></scales>
<clustering>
<clus scale="   60.980">  2  9  1 -1</clus>
<clus scale="   86.677">  7  8 -1 -1</clus>
<clus scale="   93.691">  5  6 -1 -1</clus>
<clus scale="  113.023">  2  7  1 -1</clus>
<clus scale="   60.980">  2  5  1 -1</clus>
</clustering>
</event>
<event>
 9    1  0.1671478E-005  0.1027673E+03  0.7546771E-02  0.1286616E+00
          1   -1    0    0  502    0 -0.00000000000E+00  0.00000000000E+00  0.62171333116E+03  0.62171333116E+03  0.00000000000E+00 0. -1.
         21   -1    0    0  501  502  0.00000000000E+00 -0.00000000000E+00 -0.21230808351E+02  0.21230808351E+02  0.00000000000E+00 0.  1.
         23    2    1    2    0    0 -0.30405080359E+02  0.11356934837E+02  0.26952795111E+03  0.28664566101E+03  0.92016138077E+02 0.  0.
         23    2    1    2    0    0  0.63429584327E+02  0.47476622792E+01  0.20465554917E+03  0.22476362000E+03  0.67741705039E+02 0.  0.
        -13    1    3    3    0    0 -0.31803137486E+02 -0.36464478496E+02  0.11178105740E+03  0.12180354075E+03  0.00000000000E+00 0. -1.
         13    1    3    3    0    0  0.13980571267E+01  0.47821413333E+02  0.15774689372E+03  0.16484212027E+03  0.00000000000E+00 0.  1.
        -13    1    4    4    0    0  0.32256354767E+02  0.10842545772E+02  0.24757262046E+02  0.42082719087E+02  0.00000000000E+00 0.  1.
         13    1    4    4    0    0  0.31173229559E+02 -0.60948834926E+01  0.17989828713E+03  0.18268090091E+03  0.00000000000E+00 0. -1.
          1    1    1    2  501    0 -0.33024503967E+02 -0.16104597116E+02  0.12629902252E+03  0.13153485850E+03  0.00000000000E+00 0. -1.
<scales pt_clust_5="13000.00000" pt_clust_6="13000.00000" pt_clust_7="13000.00000" pt_clust_8="13000.00000" pt_clust_9="36.74204"></scales>
<clustering>
<clus scale="   36.742">  2  9  1 -1</clus>
<clus scale="   67.742">  7  8 -1 -1</clus>
<clus scale="   81.750">  2  7  1 -1</clus>
<clus scale="   92.016">  5  6 -1 -1</clus>
<clus scale="   36.742">  2  5  1 -1</clus>
</clustering>
</event>
<event>
 9    1  0.1671478E-005  0.1029428E+03  0.7546771E-02  0.1274322E+00
          2   -1    0    0  502    0 -0.00000000000E+00  0.00000000000E+00  0.26402719862E+03  0.26402719862E+03  0.00000000000E+00 0. -1.
         21   -1    0    0  501  502  0.00000000000E+00 -0.00000000000E+00 -0.12763910414E+03  0.12763910414E+03  0.00000000000E+00 0. -1.
         23    2    1    2    0    0 -0.38130464077E+02 -0.33376081520E+02  0.12107047194E+03  0.15986381084E+03  0.91271483675E+02 0.  0.
         23    2    1    2    0    0  0.11971599377E+02  0.46398925865E+02  0.99063662633E+02  0.14310480363E+03  0.91483310248E+02 0.  0.
        -13    1    3    3    0    0 -0.18044150196E+02  0.12064581574E+02 -0.67469229428E+01  0.22730298151E+02  0.00000000000E+00 0.  1.
         13    1    3    3    0    0 -0.20086313880E+02 -0.45440663093E+02  0.12781739488E+03  0.13713351269E+03  0.00000000000E+00 0. -1.
        -13    1    4    4    0    0  0.29801323278E+02  0.68583354624E+02  0.73371665532E+02  0.10476257301E+03  0.00000000000E+00 0.  1.
         13    1    4    4    0    0 -0.17829723901E+02 -0.22184428759E+02  0.25691997101E+02  0.38342230618E+02  0.00000000000E+00 0. -1.
          2    1    1    2  501    0  0.26158864700E+02 -0.13022844345E+02 -0.83746040092E+02  0.88697688292E+02  0.00000000000E+00 0. -1.
<scales pt_clust_5="13000.00000" pt_clust_6="13000.00000" pt_clust_7="13000.00000" pt_clust_8="13000.00000" pt_clust_9="29.22124"></scales>
<clustering>
<clus scale="   29.221">  2  9  1 -1</clus>
<clus scale="   91.271">  5  6 -1 -1</clus>
<clus scale="   91.483">  7  8 -1 -1</clus>
<clus scale="  102.755">  1  5  2 -1</clus>
<clus scale="   29.221">  2  5  1 -1</clus>
</clustering>
</event>
<event>
 9    1  0.1671478E-005  0.1468551E+03  0.7546771E-02  0.1204398E+00
         21   -1    0    0  501  502  0.00000000000E+00  0.00000000000E+00  0.20958259505E+03  0.20958259505E+03  0.00000000000E+00 0. -1.
          3   -1    0    0  502    0 -0.00000000000E+00 -0.00000000000E+00 -0.22098349083E+03  0.22098349083E+03  0.00000000000E+00 0. -1.
         23    2    1    2    0    0  0.10201678440E+03  0.47469836458E+02 -0.13205262947E+03  0.19561111045E+03  0.90360389055E+02 0.  0.
         23    2    1    2    0    0 -0.10737512332E+03 -0.80998081898E+02  0.11888438204E+03  0.20095529057E+03  0.90329541884E+02 0.  0.
        -13    1    3    3    0    0  0.42673030467E+02  0.68977621638E+02 -0.71020692615E+02  0.10780926952E+03  0.00000000000E+00 0.  1.
         13    1    3    3    0    0  0.59343753932E+02 -0.21507785179E+02 -0.61031936855E+02  0.87801840928E+02  0.00000000000E+00 0. -1.
        -13    1    4    4    0    0 -0.71842104509E+02 -0.54883376714E+02  0.12722526992E+03  0.15607607865E+03  0.00000000000E+00 0. -1.
         13    1    4    4    0    0 -0.35533018808E+02 -0.26114705184E+02 -0.83408878775E+01  0.44879211925E+02  0.00000000000E+00 0.  1.
          3    1    1    2  501    0  0.53583389180E+01  0.33528245440E+02  0.17673516514E+01  0.33999684853E+02  0.00000000000E+00 0. -1.
<scales pt_clust_5="13000.00000" pt_clust_6="13000.00000" pt_clust_7="13000.00000" pt_clust_8="13000.00000" pt_clust_9="33.95372"></scales>
<clustering>
<clus scale="   33.954">  1  9  2 -1</clus>
<clus scale="   90.330">  7  8 -1 -1</clus>
<clus scale="   90.360">  5  6 -1 -1</clus>
<clus scale="  146.836">  1  7  2 -1</clus>
<clus scale="   33.954">  1  5  2 -1</clus>
</clustering>
</event>
<event>
 9    1  0.1671478E-005  0.1148893E+03  0.7546771E-02  0.1253334E+00
         21   -1    0    0  501  502  0.00000000000E+00  0.00000000000E+00  0.47068119455E+02  0.47068119455E+02  0.00000000000E+00 0. -1.
          1   -1    0    0  502    0 -0.00000000000E+00 -0.00000000000E+00 -0.51142443948E+03  0.51142443948E+03  0.00000000000E+00 0. -1.
         23    2    1    2    0    0 -0.62460836379E+02  0.55599582666E+02 -0.32692831396E+03  0.34916402670E+03  0.89670091999E+02 0.  0.
         23    2    1    2    0    0  0.22337800802E+02 -0.13809092058E+02 -0.68222974646E+02  0.11907533582E+03  0.93994111321E+02 0.  0.
        -11    1    4    4    0    0 -0.11556169797E+02  0.30604395692E+02 -0.51039345790E+02  0.60623336387E+02  0.00000000000E+00 0. -1.
         11    1    4    4    0    0  0.33893970599E+02 -0.44413487749E+02 -0.17183628856E+02  0.58451999433E+02  0.00000000000E+00 0.  1.
        -13    1    3    3    0    0 -0.43887989689E+02  0.78344334287E+02 -0.27753382154E+03  0.29170020989E+03  0.00000000000E+00 0. -1.
         13    1    3    3    0    0 -0.18572846689E+02 -0.22744751622E+02 -0.49394492424E+02  0.57463816810E+02  0.00000000000E+00 0.  1.
          1    1    1    2  501    0  0.40123035576E+02 -0.41790490608E+02 -0.69205031413E+02  0.90253196409E+02  0.00000000000E+00 0. -1.
<scales pt_clust_5="13000.00000" pt_clust_6="13000.00000" pt_clust_7="13000.00000" pt_clust_8="13000.00000" pt_clust_9="57.93361"></scales>
<clustering>
<clus scale="   57.934">  1  9  2 -1</clus>
<clus scale="   89.670">  7  8 -1 -1</clus>
<clus scale="   93.994">  5  6 -1 -1</clus>
<clus scale="  111.379">  2  7  1 -1</clus>
<clus scale="   57.934">  1  5  2 -1</clus>
</clustering>
</event>
<event>
 9    1  0.1671478E-005  0.2202201E+03  0.7546771E-02  0.1133737E+00
         -3   -1    0    0    0  501 -0.00000000000E+00  0.00000000000E+00  0.69600640868E+03  0.69600640868E+03  0.00000000000E+00 0.  1.
         21   -1    0    0  501  502  0.00000000000E+00 -0.00000000000E+00 -0.91745889237E+02  0.91745889237E+02  0.00000000000E+00 0.  1.
         23    2    1    2    0    0  0.16291854918E+03 -0.10969755699E+03  0.43104951645E+03  0.48246730910E+03  0.91624292841E+02 0.  0.
         23    2    1    2    0    0 -0.16284286765E+03  0.13210296916E+03  0.16148019633E+03  0.27999427813E+03  0.91388992626E+02 0.  0.
        -13    1    4    4    0    0 -0.91344566056E+02  0.10920071349E+03  0.61797139049E+02  0.15520152051E+03  0.00000000000E+00 0.  1.
         13    1    4    4    0    0 -0.71498301596E+02  0.22902255676E+02  0.99683057279E+02  0.12479275762E+03  0.00000000000E+00 0. -1.
        -13    1    3    3    0    0  0.91760413005E+02 -0.71356930336E+02  0.34658411721E+03  0.36555756757E+03  0.00000000000E+00 0.  1.
         13    1    3    3    0    0  0.71158136175E+02 -0.38340626657E+02  0.84465399240E+02  0.11690974153E+03  0.00000000000E+00 0. -1.
         -3    1    1    2    0  502 -0.75681527215E-01 -0.22405412169E+02  0.11730806662E+02  0.25290710687E+02  0.00000000000E+00 0.  1.
<scales pt_clust_5="13000.00000" pt_clust_6="13000.00000" pt_clust_7="13000.00000" pt_clust_8="13000.00000" pt_clust_9="22.40554"></scales>
<clustering>
<clus scale="   22.406">  2  9  1 -1</clus>
<clus scale="   91.389">  5  6 -1 -1</clus>
<clus scale="   91.624">  7  8 -1 -1</clus>
<clus scale="  220.122">  2  5  1 -1</clus>
<clus scale="   22.406">  2  5  1 -1</clus>
</clustering>
</event>
<event>
 9    1  0.1671478E-005  0.1144189E+03  0.7546771E-02  0.1253063E+00
         -1   -1    0    0    0  501 -0.00000000000E+00  0.00000000000E+00  0.19551525485E+03  0.19551525485E+03  0.00000000000E+00 0.  1.
         21   -1    0    0  501  502  0.00000000000E+00 -0.00000000000E+00 -0.12338057808E+03  0.12338057808E+03  0.00000000000E+00 0. -1.
         23    2    1    2    0    0 -0.12609021656E+02 -0.61108519588E+02  0.72692636873E+02  0.13227012727E+03  0.91202678240E+02 0.  0.
         23    2    1    2    0    0 -0.42854212098E+01  0.79289389596E+02  0.50285816782E+02  0.13004783117E+03  0.89881048535E+02 0.  0.
        -13    1    4    4    0    0  0.15434802090E+02 -0.13851494371E+02  0.23085491913E+02  0.31032836620E+02  0.00000000000E+00 0. -1.
         13    1    4    4    0    0 -0.19720223300E+02  0.93140883967E+02  0.27200324870E+02  0.99014994552E+02  0.00000000000E+00 0.  1.
        -13    1    3    3    0    0  0.18445424999E+02 -0.91875314765E+01 -0.15173145360E+02  0.25590404025E+02  0.00000000000E+00 0. -1.
         13    1    3    3    0    0 -0.31054446655E+02 -0.51920988112E+02  0.87865782233E+02  0.10667972324E+03  0.00000000000E+00 0.  1.
         -1    1    1    2    0  502  0.16894442866E+02 -0.18180870008E+02 -0.50843776881E+02  0.56577874488E+02  0.00000000000E+00 0.  1.
<scales pt_clust_5="13000.00000" pt_clust_6="13000.00000" pt_clust_7="13000.00000" pt_clust_8="13000.00000" pt_clust_9="24.81867"></scales>
<clustering>
<clus scale="   24.819">  2  9  1 -1</clus>
<clus scale="   89.881">  5  6 -1 -1</clus>
<clus scale="   91.203">  7  8 -1 -1</clus>
<clus scale="  113.368">  2  5  1 -1</clus>
<clus scale="   24.819">  2  5  1 -1</clus>
</clustering>
</event>
<event>
 9    1  0.1671478E-005  0.1288901E+03  0.7546771E-02  0.1234640E+00
          2   -1    0    0  502    0 -0.00000000000E+00  0.00000000000E+00  0.11783710657E+04  0.11783710657E+04  0.00000000000E+00 0. -1.
         21   -1    0    0  501  502  0.00000000000E+00 -0.00000000000E+00 -0.25140928060E+02  0.25140928060E+02  0.00000000000E+00 0. -1.
         23    2    1    2    0    0 -0.45676465767E+02 -0.28442362420E+02  0.51586386856E+03  0.52674450613E+03  0.91918095876E+02 0.  0.
         23    2    1    2    0    0  0.81467946753E+02  0.43200056847E+02  0.61652277332E+03  0.63279851024E+03  0.10876742746E+03 0.  0.
        -13    1    4    4    0    0 -0.22952909047E+02 -0.97744631427E+01  0.88494358147E+02  0.91943610911E+02  0.00000000000E+00 0.  1.
         13    1    4    4    0    0  0.10442085580E+03  0.52974519989E+02  0.52802841518E+03  0.54085489933E+03  0.00000000000E+00 0. -1.
        -13    1    3    3    0    0 -0.73310397856E+02 -0.14581496601E+02  0.39345411348E+03  0.40049116580E+03  0.00000000000E+00 0.  1.
         13    1    3    3    0    0  0.27633932089E+02 -0.13860865819E+02  0.12240975508E+03  0.12625334033E+03  0.00000000000E+00 0. -1.
          2    1    1    2  501    0 -0.35791480986E+02 -0.14757694427E+02  0.20843495728E+02  0.43968977360E+02  0.00000000000E+00 0. -1.
<scales pt_clust_5="13000.00000" pt_clust_6="13000.00000" pt_clust_7="13000.00000" pt_clust_8="13000.00000" pt_clust_9="38.71459"></scales>
<clustering>
<clus scale="   38.715">  2  9  1 -1</clus>
<clus scale="   91.918">  7  8 -1 -1</clus>
<clus scale="  108.767">  5  6 -1 -1</clus>
<clus scale="  115.027">  1  7  2 -1</clus>
<clus scale="   38.715">  2  5  1 -1</clus>
</clustering>
</event>
<event>
 9    1  0.1671478E-005  0.1019101E+03  0.7546771E-02  0.1277342E+00
         21   -1    0    0  501  502  0.00000000000E+00  0.00000000000E+00  0.31423409058E+03  0.31423409058E+03  0.00000000000E+00 0. -1.
          1   -1    0    0  502    0 -0.00000000000E+00 -0.00000000000E+00 -0.55499500152E+02  0.55499500152E+02  0.00000000000E+00 0. -1.
         23    2    1    2    0    0  0.36976090371E+02  0.15158862111E+02  0.44972201495E+02  0.10902405827E+03  0.90921526681E+02 0.  0.
         23    2    1    2    0    0 -0.42582661414E+02 -0.50618463555E+02  0.18074055154E+03  0.21193188679E+03  0.88726916769E+02 0.  0.
        -11    1    3    3    0    0 -0.28224992588E+02  0.54593229897E+01 -0.82167577160E+00  0.28759860312E+02  0.00000000000E+00 0.  1.
         11    1    3    3    0    0  0.65201082959E+02  0.96995391215E+01  0.45793877266E+02  0.80264197955E+02  0.00000000000E+00 0. -1.
        -11    1    4    4    0    0 -0.26641158562E+02  0.22713101730E+02  0.47442497077E+02  0.58961231743E+02  0.00000000000E+00 0.  1.
         11    1    4    4    0    0 -0.15941502852E+02 -0.73331565284E+02  0.13329805446E+03  0.15297065504E+03  0.00000000000E+00 0. -1.
          1    1    1    2  501    0  0.56065710430E+01  0.35459601443E+02  0.33021837393E+02  0.48777645681E+02  0.00000000000E+00 0. -1.
<scales pt_clust_5="13000.00000" pt_clust_6="13000.00000" pt_clust_7="13000.00000" pt_clust_8="13000.00000" pt_clust_9="35.90012"></scales>
<clustering>
<clus scale="   35.900">  1  9  2 -1</clus>
<clus scale="   88.727">  7  8 -1 -1</clus>
<clus scale="   90.922">  5  6 -1 -1</clus>
<clus scale="   99.957">  1  7  2 -1</clus>
<clus scale="   35.900">  1  5  2 -1</clus>
</clustering>
</event>
<event>
 9    1  0.1671478E-005  0.1154946E+03  0.7546771E-02  0.1255910E+00
         -3   -1    0    0    0  501 -0.00000000000E+00  0.00000000000E+00  0.16178652092E+03  0.16178652092E+03  0.00000000000E+00 0.  1.
         21   -1    0    0  501  502  0.00000000000E+00 -0.00000000000E+00 -0.14808736217E+03  0.14808736217E+03  0.00000000000E+00 0. -1.
         23    2    1    2    0    0 -0.48462938411E+02 -0.72067457860E+02  0.80904959390E+02  0.14099309282E+03  0.76099046561E+02 0.  0.
         23    2    1    2    0    0  0.28225094075E+02  0.28438507351E+02 -0.19825573679E+02  0.10136826126E+03  0.90978384152E+02 0.  0.
        -11    1    3    3    0    0 -0.21223385303E+02 -0.20006341110E+02  0.76732101590E+02  0.82088374224E+02  0.00000000000E+00 0.  1.
         11    1    3    3    0    0 -0.27239553108E+02 -0.52061116750E+02  0.41728577998E+01  0.58904718597E+02  0.00000000000E+00 0. -1.
        -13    1    4    4    0    0  0.36672842593E+02  0.56762524394E+02 -0.36561411667E+01  0.67677536359E+02  0.00000000000E+00 0.  1.
         13    1    4    4    0    0 -0.84477485173E+01 -0.28324017043E+02 -0.16169432512E+02  0.33690724899E+02  0.00000000000E+00 0. -1.
         -3    1    1    2    0  502  0.20237844336E+02  0.43628950509E+02 -0.47380226962E+02  0.67512529007E+02  0.00000000000E+00 0.  1.
<scales pt_clust_5="13000.00000" pt_clust_6="13000.00000" pt_clust_7="13000.00000" pt_clust_8="13000.00000" pt_clust_9="48.09424"></scales>
<clustering>
<clus scale="   48.094">  2  9  1 -1</clus>
<clus scale="   76.099">  5  6 -1 -1</clus>
<clus scale="   90.978">  7  8 -1 -1</clus>
<clus scale="  104.178">  1  5  2 -1</clus>
<clus scale="   48.094">  2  5  1 -1</clus>
</clustering>
</event>
<event>
 9    1  0.1671478E-005  0.9545575E+02  0.7546771E-02  0.1291994E+00
         21   -1    0    0  501  502  0.00000000000E+00  0.00000000000E+00  0.88019369324E+02  0.88019369324E+02  0.00000000000E+00 0. -1.
          1   -1    0    0  502    0 -0.00000000000E+00 -0.00000000000E+00 -0.40197419706E+03  0.40197419706E+03  0.00000000000E+00 0. -1.
         23    2    1    2    0    0  0.17244594478E+02 -0.24168534116E+02 -0.33307692842E+03  0.34580103763E+03  0.88071694097E+02 0.  0.
         23    2    1    2    0    0 -0.23775261517E+02 -0.18371822390E+01 -0.20158814739E+02  0.96632701049E+02  0.91448689447E+02 0.  0.
        -13    1    4    4    0    0 -0.48693059635E+02 -0.82470361371E+01 -0.40472007402E+02  0.63851476450E+02  0.00000000000E+00 0. -1.
         13    1    4    4    0    0  0.24917798118E+02  0.64098538981E+01  0.20313192664E+02  0.32781224599E+02  0.00000000000E+00 0.  1.
        -13    1    3    3    0    0  0.49037843518E+02 -0.79959991234E+01 -0.25723626631E+03  0.26199073038E+03  0.00000000000E+00 0.  1.
         13    1    3    3    0    0 -0.31793249040E+02 -0.16172534993E+02 -0.75840662112E+02  0.83810307256E+02  0.00000000000E+00 0. -1.
          1    1    1    2  501    0  0.65306670391E+01  0.26005716355E+02  0.39280915421E+02  0.47559827706E+02  0.00000000000E+00 0. -1.
<scales pt_clust_5="13000.00000" pt_clust_6="13000.00000" pt_clust_7="13000.00000" pt_clust_8="13000.00000" pt_clust_9="26.81319"></scales>
<clustering>
<clus scale="   26.813">  1  9  2 -1</clus>
<clus scale="   88.072">  7  8 -1 -1</clus>
<clus scale="   91.449">  5  6 -1 -1</clus>
<clus scale="   92.226">  2  7  1 -1</clus>
<clus scale="   26.813">  1  5  2 -1</clus>
</clustering>
</event>
<event>
 9    1  0.1671478E-005  0.1527497E+03  0.7546771E-02  0.1198040E+00
         21   -1    0    0  501  502  0.00000000000E+00  0.00000000000E+00  0.92526212684E+03  0.92526212684E+03  0.00000000000E+00 0. -1.
         -3   -1    0    0    0  501 -0.00000000000E+00 -0.00000000000E+00 -0.41667645960E+02  0.41667645960E+02  0.00000000000E+00 0.  1.
         23    2    1    2    0    0 -0.13087916583E+02 -0.12414768168E+03  0.18368722236E+03  0.23960523075E+03  0.89920690140E+02 0.  0.
         23    2    1    2    0    0  0.49078417732E+02  0.10232284163E+03  0.44400298228E+03  0.46798183748E+03  0.94814012331E+02 0.  0.
        -13    1    4    4    0    0 -0.18239039386E+02  0.57674319878E+02  0.12437543904E+03  0.13830487905E+03  0.00000000000E+00 0.  1.
         13    1    4    4    0    0  0.67317457119E+02  0.44648521749E+02  0.31962754324E+03  0.32967695844E+03  0.00000000000E+00 0. -1.
        -13    1    3    3    0    0 -0.53078796084E+01 -0.42011702180E+02  0.13996894589E+03  0.14623427273E+03  0.00000000000E+00 0. -1.
         13    1    3    3    0    0 -0.77800369746E+01 -0.82135979502E+02  0.43718276468E+02  0.93370958019E+02  0.00000000000E+00 0.  1.
         -3    1    1    2    0  502 -0.35990501149E+02  0.21824840055E+02  0.25590427623E+03  0.25934270456E+03  0.00000000000E+00 0.  1.
<scales pt_clust_5="13000.00000" pt_clust_6="13000.00000" pt_clust_7="13000.00000" pt_clust_8="13000.00000" pt_clust_9="42.09085"></scales>
<clustering>
<clus scale="   42.091">  1  9  2 -1</clus>
<clus scale="   89.921">  7  8 -1 -1</clus>
<clus scale="   94.814">  5  6 -1 -1</clus>
<clus scale="  149.761">  2  7  1 -1</clus>
<clus scale="   42.091">  1  5  2 -1</clus>
</clustering>
</event>
<event>
 9    1  0.1671478E-005  0.9637267E+02  0.7546771E-02  0.1288163E+00
         -4   -1    0    0    0  501 -0.00000000000E+00  0.00000000000E+00  0.27193381673E+03  0.27193381673E+03  0.00000000000E+00 0.  1.
         21   -1    0    0  501  502  0.00000000000E+00 -0.00000000000E+00 -0.94199362863E+02  0.94199362863E+02  0.00000000000E+00 0.  1.
         23    2    1    2    0    0  0.25652178136E+02 -0.22482492797E+01  0.17905909214E+03  0.20258084038E+03  0.91179764978E+02 0.  0.
         23    2    1    2    0    0 -0.45650882993E+02  0.11537475961E+02  0.45207625466E+02  0.11205972327E+03  0.91085321043E+02 0.  0.
        -11    1    4    4    0    0  0.17911517368E+02  0.29047935608E+02  0.27405584092E+02  0.43768379648E+02  0.00000000000E+00 0. -1.
         11    1    4    4    0    0 -0.63562400362E+02 -0.17510459647E+02  0.17802041374E+02  0.68291343623E+02  0.00000000000E+00 0.  1.
        -13    1    3    3    0    0 -0.26855846240E+02  0.23881966575E+02  0.62443964220E+02  0.72047439041E+02  0.00000000000E+00 0.  1.
         13    1    3    3    0    0  0.52508024376E+02 -0.26130215855E+02  0.11661512792E+03  0.13053340134E+03  0.00000000000E+00 0. -1.
         -4    1    1    2    0  502  0.19998704858E+02 -0.92892266815E+01 -0.46532263739E+02  0.51492615947E+02  0.00000000000E+00 0.  1.
<scales pt_clust_5="13000.00000" pt_clust_6="13000.00000" pt_clust_7="13000.00000" pt_clust_8="13000.00000" pt_clust_9="22.05080"></scales>
<clustering>
<clus scale="   22.051">  2  9  1 -1</clus>
<clus scale="   91.085">  5  6 -1 -1</clus>
<clus scale="   91.180">  7  8 -1 -1</clus>
<clus scale="   96.283">  2  5  1 -1</clus>
<clus scale="   22.051">  2  5  1 -1</clus>
</clustering>
</event>
<event>
 9    1  0.1671478E-005  0.9730227E+02  0.7546771E-02  0.1286788E+00
         21   -1    0    0  501  502  0.00000000000E+00  0.00000000000E+00  0.55862510407E+02  0.55862510407E+02  0.00000000000E+00 0. -1.
          1   -1    0    0  502    0 -0.00000000000E+00 -0.00000000000E+00 -0.42353751613E+03  0.42353751613E+03  0.00000000000E+00 0. -1.
         23    2    1    2    0    0 -0.47241245665E+02 -0.11163996609E+02 -0.26697268944E+03  0.28683152055E+03  0.92959852429E+02 0.  0.
         23    2    1    2    0    0 -0.15609644724E+02  0.10810503811E+02 -0.88029515336E+02  0.12845174325E+03  0.91597635186E+02 0.  0.
        -11    1    3    3    0    0 -0.48289712136E+02 -0.42621361922E+02 -0.11666418527E+03  0.13326293151E+03  0.00000000000E+00 0. -1.
         11    1    3    3    0    0  0.10484664708E+01  0.31457365313E+02 -0.15030850417E+03  0.15356858904E+03  0.00000000000E+00 0.  1.
        -13    1    4    4    0    0  0.19994358201E+02 -0.28912610918E+02 -0.15501036700E+02  0.38418687754E+02  0.00000000000E+00 0.  1.
         13    1    4    4    0    0 -0.35604002925E+02  0.39723114729E+02 -0.72528478636E+02  0.90033055493E+02  0.00000000000E+00 0. -1.
          1    1    1    2  501    0  0.62850890389E+02  0.35349279767E+00 -0.12672800943E+02  0.64116762735E+02  0.00000000000E+00 0. -1.
<scales pt_clust_5="13000.00000" pt_clust_6="13000.00000" pt_clust_7="13000.00000" pt_clust_8="13000.00000" pt_clust_9="62.85188"></scales>
<clustering>
<clus scale="   62.852">  1  9  2 -1</clus>
<clus scale="   91.598">  7  8 -1 -1</clus>
<clus scale="   92.960">  5  6 -1 -1</clus>
<clus scale="   96.002">  1  7  2 -1</clus>
<clus scale="   62.852">  1  5  2 -1</clus>
</clustering>
</event>
<event>
 9    1  0.1671478E-005  0.9489398E+02  0.7546771E-02  0.1292343E+00
         21   -1    0    0  501  502  0.00000000000E+00  0.00000000000E+00  0.72379955203E+02  0.72379955203E+02  0.00000000000E+00 0. -1.
         -1   -1    0    0    0  501 -0.00000000000E+00 -0.00000000000E+00 -0.31774281953E+03  0.31774281953E+03  0.00000000000E+00 0.  1.
         23    2    1    2    0    0 -0.68757129094E+01  0.16944568661E+02 -0.21787147250E+03  0.23702824317E+03  0.91542425669E+02 0.  0.
         23    2    1    2    0    0  0.43533130523E+02  0.11821133199E+02 -0.13366018780E+02  0.10440410095E+03  0.93202431264E+02 0.  0.
        -11    1    4    4    0    0 -0.99759612375E+01  0.38990964198E+02 -0.18254982651E+02  0.44193432581E+02  0.00000000000E+00 0. -1.
         11    1    4    4    0    0  0.53509091760E+02 -0.27169830999E+02  0.48889638709E+01  0.60210668367E+02  0.00000000000E+00 0.  1.
        -13    1    3    3    0    0  0.29689096256E+02  0.20890904958E+02 -0.18224217779E+03  0.18582272119E+03  0.00000000000E+00 0.  1.
         13    1    3    3    0    0 -0.36564809166E+02 -0.39463362967E+01 -0.35629294705E+02  0.51205521975E+02  0.00000000000E+00 0. -1.
         -1    1    1    2    0  502 -0.36657417613E+02 -0.28765701860E+02 -0.14125373051E+02  0.48690430614E+02  0.00000000000E+00 0.  1.
<scales pt_clust_5="13000.00000" pt_clust_6="13000.00000" pt_clust_7="13000.00000" pt_clust_8="13000.00000" pt_clust_9="46.59648"></scales>
<clustering>
<clus scale="   46.596">  1  9  2 -1</clus>
<clus scale="   91.542">  7  8 -1 -1</clus>
<clus scale="   93.202">  5  6 -1 -1</clus>
<clus scale="   93.264">  2  7  1 -1</clus>
<clus scale="   46.596">  1  5  2 -1</clus>
</clustering>
</event>
<event>
 9    1  0.1902412E-005  0.1627133E+03  0.7546771E-02  0.1185913E+00
         21   -1    0    0  501  502  0.00000000000E+00  0.00000000000E+00  0.22960370491E+03  0.22960370491E+03  0.00000000000E+00 0. -1.
         -1   -1    0    0    0  501 -0.00000000000E+00 -0.00000000000E+00 -0.42972086519E+03  0.42972086519E+03  0.00000000000E+00 0.  1.
         23    2    1    2    0    0 -0.11744699965E+03 -0.77275851011E+02 -0.35808722721E+03  0.39530396593E+03  0.90958277865E+02 0.  0.
         23    2    1    2    0    0  0.71020187591E+02  0.36354656742E+02  0.16259584767E+03  0.20196102903E+03  0.89360614679E+02 0.  0.
        -11    1    4    4    0    0  0.33107862251E+02  0.34790882779E+02  0.16134381548E+02  0.50664132632E+02  0.00000000000E+00 0.  1.
         11    1    4    4    0    0  0.37912325341E+02  0.15637739626E+01  0.14646146612E+03  0.15129689640E+03  0.00000000000E+00 0. -1.
        -11    1    3    3    0    0 -0.83914495673E+02 -0.96006343402E+02 -0.29600457268E+03  0.32230043066E+03  0.00000000000E+00 0.  1.
         11    1    3    3    0    0 -0.33532503973E+02  0.18730492391E+02 -0.62082654537E+02  0.73003535272E+02  0.00000000000E+00 0. -1.
         -1    1    1    2    0  502  0.46426812055E+02  0.40921194269E+02 -0.46257807452E+01  0.62059575131E+02  0.00000000000E+00 0.  1.
<scales pt_clust_5="13000.00000" pt_clust_6="13000.00000" pt_clust_7="13000.00000" pt_clust_8="13000.00000" pt_clust_9="61.88694"></scales>
<clustering>
<clus scale="   61.887">  1  9  2 -1</clus>
<clus scale="   89.361">  5  6 -1 -1</clus>
<clus scale="   90.958">  7  8 -1 -1</clus>
<clus scale="  161.826">  1  5  2 -1</clus>
<clus scale="   61.887">  1  5  2 -1</clus>
</clustering>
</event>
<event>
 9    1  0.1671478E-005  0.1058250E+03  0.7546771E-02  0.1270997E+00
         -3   -1    0    0    0  501 -0.00000000000E+00  0.00000000000E+00  0.11407090533E+03  0.11407090533E+03  0.00000000000E+00 0.  1.
         21   -1    0    0  501  502  0.00000000000E+00 -0.00000000000E+00 -0.26497172166E+03  0.26497172166E+03  0.00000000000E+00 0.  1.
         23    2    1    2    0    0 -0.12378231723E+02  0.43222539796E+02  0.48382153771E+02  0.11161660403E+03  0.89977913537E+02 0.  0.
         23    2    1    2    0    0 -0.94463391135E+01 -0.50120908473E+02 -0.55228593753E+02  0.12156457250E+03  0.95532240271E+02 0.  0.
        -11    1    4    4    0    0 -0.33584262260E+02 -0.66910830223E+02 -0.53677209437E+02  0.92120598596E+02  0.00000000000E+00 0. -1.
         11    1    4    4    0    0  0.24137923147E+02  0.16789921750E+02 -0.15513843162E+01  0.29443973908E+02  0.00000000000E+00 0.  1.
        -13    1    3    3    0    0 -0.36546257723E+02  0.45785687065E+02  0.60709114283E+02  0.84365601110E+02  0.00000000000E+00 0.  1.
         13    1    3    3    0    0  0.24168026000E+02 -0.25631472686E+01 -0.12326960512E+02  0.27251002919E+02  0.00000000000E+00 0. -1.
         -3    1    1    2    0  502  0.21824570837E+02  0.68983686769E+01 -0.14405437635E+03  0.14586145045E+03  0.00000000000E+00 0.  1.
<scales pt_clust_5="13000.00000" pt_clust_6="13000.00000" pt_clust_7="13000.00000" pt_clust_8="13000.00000" pt_clust_9="22.88885"></scales>
<clustering>
<clus scale="   22.889">  2  9  1 -1</clus>
<clus scale="   89.978">  7  8 -1 -1</clus>
<clus scale="   95.532">  5  6 -1 -1</clus>
<clus scale="  100.839">  1  7  2 -1</clus>
<clus scale="   22.889">  2  5  1 -1</clus>
</clustering>
</event>
<event>
 9    1  0.1671478E-005  0.1377800E+03  0.7546771E-02  0.1217616E+00
         21   -1    0    0  501  502  0.00000000000E+00  0.00000000000E+00  0.17288165809E+03  0.17288165809E+03  0.00000000000E+00 0. -1.
          3   -1    0    0  502    0 -0.00000000000E+00 -0.00000000000E+00 -0.33451647024E+03  0.33451647024E+03  0.00000000000E+00 0. -1.
         23    2    1    2    0    0 -0.10255620800E+03 -0.19569969651E+02 -0.28259479475E+03  0.31401641202E+03  0.88576122562E+02 0.  0.
         23    2    1    2    0    0  0.71756856870E+02  0.12323603454E+02  0.90050617133E+02  0.14914938960E+03  0.93997388584E+02 0.  0.
        -11    1    3    3    0    0 -0.52871068203E+02 -0.54615733094E+02 -0.15097281349E+03  0.16902963813E+03  0.00000000000E+00 0. -1.
         11    1    3    3    0    0 -0.49685139798E+02  0.35045763443E+02 -0.13162198126E+03  0.14498677389E+03  0.00000000000E+00 0.  1.
        -11    1    4    4    0    0 -0.18185782187E+02  0.21478738365E+02  0.26356788840E+02  0.38558257137E+02  0.00000000000E+00 0. -1.
         11    1    4    4    0    0  0.89942639057E+02 -0.91551349104E+01  0.63693828293E+02  0.11059113246E+03  0.00000000000E+00 0.  1.
          3    1    1    2  501    0  0.30799351131E+02  0.72463661968E+01  0.30909365469E+02  0.44232326718E+02  0.00000000000E+00 0. -1.
<scales pt_clust_5="13000.00000" pt_clust_6="13000.00000" pt_clust_7="13000.00000" pt_clust_8="13000.00000" pt_clust_9="31.64032"></scales>
<clustering>
<clus scale="   31.640">  1  9  2 -1</clus>
<clus scale="   88.576">  5  6 -1 -1</clus>
<clus scale="   93.997">  7  8 -1 -1</clus>
<clus scale="  134.140">  2  5  1 -1</clus>
<clus scale="   31.640">  1  5  2 -1</clus>
</clustering>
</event>
<event>
 9    1  0.1671478E-005  0.1013371E+03  0.7546771E-02  0.1278273E+00
         -2   -1    0    0    0  501 -0.00000000000E+00  0.00000000000E+00  0.14531898920E+03  0.14531898920E+03  0.00000000000E+00 0.  1.
         21   -1    0    0  501  502  0.00000000000E+00 -0.00000000000E+00 -0.31973602892E+03  0.31973602892E+03  0.00000000000E+00 0. -1.
         23    2    1    2    0    0 -0.25837921770E+01  0.39771272618E+02  0.10347180487E+03  0.14394328690E+03  0.91786847271E+02 0.  0.
         23    2    1    2    0    0 -0.57867112602E+00 -0.66709757741E+02 -0.13426273758E+03  0.17494695512E+03  0.90163339370E+02 0.  0.
        -11    1    3    3    0    0  0.28611405412E+02  0.56932124537E+02  0.74576799451E+02  0.98089644410E+02  0.00000000000E+00 0.  1.
         11    1    3    3    0    0 -0.31195197589E+02 -0.17160851920E+02  0.28895005421E+02  0.45853642489E+02  0.00000000000E+00 0. -1.
        -13    1    4    4    0    0  0.19743784114E+02 -0.38625493139E+02 -0.81263898217E+01  0.44133705293E+02  0.00000000000E+00 0.  1.
         13    1    4    4    0    0 -0.20322455240E+02 -0.28084264602E+02 -0.12613634776E+03  0.13081324983E+03  0.00000000000E+00 0. -1.
         -2    1    1    2    0  502  0.31624633030E+01  0.26938485124E+02 -0.14362610701E+03  0.14616477609E+03  0.00000000000E+00 0.  1.
<scales pt_clust_5="13000.00000" pt_clust_6="13000.00000" pt_clust_7="13000.00000" pt_clust_8="13000.00000" pt_clust_9="27.12348"></scales>
<clustering>
<clus scale="   27.123">  2  9  1 -1</clus>
<clus scale="   90.163">  7  8 -1 -1</clus>
<clus scale="   91.787">  5  6 -1 -1</clus>
<clus scale="   99.869">  2  7  1 -1</clus>
<clus scale="   27.123">  2  5  1 -1</clus>
</clustering>
</event>
<event>
 9    1  0.1671478E-005  0.1439835E+03  0.7546771E-02  0.1209010E+00
         -1   -1    0    0    0  501 -0.00000000000E+00  0.00000000000E+00  0.11811547505E+03  0.11811547505E+03  0.00000000000E+00 0.  1.
         21   -1    0    0  501  502  0.00000000000E+00 -0.00000000000E+00 -0.46812020347E+03  0.46812020347E+03  0.00000000000E+00 0.  1.
         23    2    1    2    0    0 -0.73243377689E+02  0.42436134778E+02 -0.42112890209E+02  0.12857758928E+03  0.87139445902E+02 0.  0.
         23    2    1    2    0    0  0.14127338823E+03 -0.35584372816E+02 -0.34154812718E+02  0.17551098558E+03  0.91723154210E+02 0.  0.
        -11    1    3    3    0    0  0.55844199074E+00 -0.22001794645E+02 -0.18718594738E+00  0.22009676591E+02  0.00000000000E+00 0. -1.
         11    1    3    3    0    0 -0.73801819680E+02  0.64437929423E+02 -0.41925704262E+02  0.10656791269E+03  0.00000000000E+00 0.  1.
        -11    1    4    4    0    0  0.25943582241E+02 -0.14706286685E+01  0.29600471425E+02  0.39388070742E+02  0.00000000000E+00 0.  1.
         11    1    4    4    0    0  0.11532980598E+03 -0.34113744148E+02 -0.63755284143E+02  0.13612291484E+03  0.00000000000E+00 0. -1.
         -1    1    1    2    0  502 -0.68030010537E+02 -0.68517619615E+01 -0.27373702549E+03  0.28214710365E+03  0.00000000000E+00 0.  1.
<scales pt_clust_5="13000.00000" pt_clust_6="13000.00000" pt_clust_7="13000.00000" pt_clust_8="13000.00000" pt_clust_9="68.37418"></scales>
<clustering>
<clus scale="   68.374">  2  9  1 -1</clus>
<clus scale="   87.139">  5  6 -1 -1</clus>
<clus scale="   91.723">  7  8 -1 -1</clus>
<clus scale="  141.108">  1  5  2 -1</clus>
<clus scale="   68.374">  2  5  1 -1</clus>
</clustering>
</event>
<event>
 9    1  0.1671478E-005  0.9736001E+02  0.7546771E-02  0.1288901E+00
         21   -1    0    0  501  502  0.00000000000E+00  0.00000000000E+00  0.64963159037E+03  0.64963159037E+03  0.00000000000E+00 0. -1.
         -4   -1    0    0    0  501 -0.00000000000E+00 -0.00000000000E+00 -0.38776973644E+02  0.38776973644E+02  0.00000000000E+00 0.  1.
         23    2    1    2    0    0  0.12940108748E+02 -0.21251228639E+02  0.35653128683E+02  0.97997008934E+02  0.87824865739E+02 0.  0.
         23    2    1    2    0    0 -0.31647056658E+02  0.38349859104E+02  0.49982419220E+03  0.51088766061E+03  0.93325938314E+02 0.  0.
        -11    1    3    3    0    0  0.36789065791E+02 -0.37544552483E+02  0.58794477135E+00  0.52567808229E+02  0.00000000000E+00 0.  1.
         11    1    3    3    0    0 -0.23848957043E+02  0.16293323844E+02  0.35065183912E+02  0.45429200705E+02  0.00000000000E+00 0. -1.
        -13    1    4    4    0    0  0.33156445030E+02  0.17576901990E+02  0.16418476114E+03  0.16841892151E+03  0.00000000000E+00 0.  1.
         13    1    4    4    0    0 -0.64803501687E+02  0.20772957114E+02  0.33563943106E+03  0.34246873910E+03  0.00000000000E+00 0. -1.
         -4    1    1    2    0  502  0.18706947910E+02 -0.17098630465E+02  0.75377295846E+02  0.79523894478E+02  0.00000000000E+00 0.  1.
<scales pt_clust_5="13000.00000" pt_clust_6="13000.00000" pt_clust_7="13000.00000" pt_clust_8="13000.00000" pt_clust_9="25.34390"></scales>
<clustering>
<clus scale="   25.344">  1  9  2 -1</clus>
<clus scale="   87.825">  5  6 -1 -1</clus>
<clus scale="   92.100">  2  5  1 -1</clus>
<clus scale="   93.326">  7  8 -1 -1</clus>
<clus scale="   25.344">  1  5  2 -1</clus>
</clustering>
</event>
<event>
 9    1  0.1671478E-005  0.1490918E+03  0.7546771E-02  0.1201962E+00
         -3   -1    0    0    0  501 -0.00000000000E+00  0.00000000000E+00  0.15716156759E+03  0.15716156759E+03  0.00000000000E+00 0.  1.
         21   -1    0    0  501  502  0.00000000000E+00 -0.00000000000E+00 -0.25025235888E+03  0.25025235888E+03  0.00000000000E+00 0. -1.
         23    2    1    2    0    0  0.96343869727E+02  0.98689004436E+02  0.10224014793E+02  0.16509977842E+03  0.90176191557E+02 0.  0.
         23    2    1    2    0    0 -0.15415234528E+02 -0.10117012127E+03 -0.56826714655E+02  0.14895065101E+03  0.92108620910E+02 0.  0.
        -13    1    4    4    0    0 -0.36099822821E+02 -0.18905690307E+02  0.88151582693E+01  0.41693277024E+02  0.00000000000E+00 0.  1.
         13    1    4    4    0    0  0.20684588293E+02 -0.82264430961E+02 -0.65641872924E+02  0.10725737399E+03  0.00000000000E+00 0. -1.
        -13    1    3    3    0    0  0.16565802763E+02  0.42030509523E+02 -0.35150123599E+02  0.57240900945E+02  0.00000000000E+00 0.  1.
         13    1    3    3    0    0  0.79778066965E+02  0.56658494913E+02  0.45374138392E+02  0.10785887747E+03  0.00000000000E+00 0. -1.
         -3    1    1    2    0  502 -0.80928635199E+02  0.24811168320E+01 -0.46488091428E+02  0.93363497045E+02  0.00000000000E+00 0.  1.
<scales pt_clust_5="13000.00000" pt_clust_6="13000.00000" pt_clust_7="13000.00000" pt_clust_8="13000.00000" pt_clust_9="80.96666"></scales>
<clustering>
<clus scale="   80.967">  2  9  1 -1</clus>
<clus scale="   90.176">  7  8 -1 -1</clus>
<clus scale="   92.109">  5  6 -1 -1</clus>
<clus scale="  147.906">  1  7  2 -1</clus>
<clus scale="   80.967">  2  5  1 -1</clus>
</clustering>
</event>
<event>
 9    1  0.1671478E-005  0.1266799E+03  0.7546771E-02  0.1233683E+00
          2   -1    0    0  502    0 -0.00000000000E+00  0.00000000000E+00  0.29567641614E+03  0.29567641614E+03  0.00000000000E+00 0. -1.
         21   -1    0    0  501  502  0.00000000000E+00 -0.00000000000E+00 -0.10162081692E+03  0.10162081692E+03  0.00000000000E+00 0. -1.
         23    2    1    2    0    0 -0.13000364021E+02 -0.77233537439E+02  0.14412372360E+03  0.18792988813E+03  0.91716772608E+02 0.  0.
         23    2    1    2    0    0 -0.43016204680E+02  0.95107150852E+02  0.50785977611E+02  0.15056214520E+03  0.95885244100E+02 0.  0.
        -11    1    4    4    0    0 -0.70626247811E+02  0.44812353208E+02  0.22628159301E+02  0.86650144104E+02  0.00000000000E+00 0. -1.
         11    1    4    4    0    0  0.27610043131E+02  0.50294797644E+02  0.28157818311E+02  0.63912001093E+02  0.00000000000E+00 0.  1.
        -13    1    3    3    0    0 -0.36053511724E+02 -0.71503772223E+02  0.14330481103E+03  0.16416124395E+03  0.00000000000E+00 0. -1.
         13    1    3    3    0    0  0.23053147703E+02 -0.57297652158E+01  0.81891256980E+00  0.23768644182E+02  0.00000000000E+00 0.  1.
          2    1    1    2  501    0  0.56016568701E+02 -0.17873613413E+02 -0.85410199411E+00  0.58805199734E+02  0.00000000000E+00 0. -1.
<scales pt_clust_5="13000.00000" pt_clust_6="13000.00000" pt_clust_7="13000.00000" pt_clust_8="13000.00000" pt_clust_9="58.79900"></scales>
<clustering>
<clus scale="   58.799">  2  9  1 -1</clus>
<clus scale="   91.717">  7  8 -1 -1</clus>
<clus scale="   95.885">  5  6 -1 -1</clus>
<clus scale="  123.555">  1  7  2 -1</clus>
<clus scale="   58.799">  2  5  1 -1</clus>
</clustering>
</event>
<event>
 9    1  0.1671478E-005  0.1715870E+03  0.7546771E-02  0.1176267E+00
          1   -1    0    0  502    0 -0.00000000000E+00  0.00000000000E+00  0.10185375948E+04  0.10185375948E+04  0.00000000000E+00 0. -1.
         21   -1    0    0  501  502  0.00000000000E+00 -0.00000000000E+00 -0.75743101457E+02  0.75743101457E+02  0.00000000000E+00 0. -1.
         23    2    1    2    0    0  0.16895765275E+03  0.60069070044E+02  0.57618876456E+03  0.61057482972E+03  0.93022302063E+02 0.  0.
         23    2    1    2    0    0 -0.11269391072E+03  0.64232254026E+02  0.27898134099E+03  0.32155019696E+03  0.93478556768E+02 0.  0.
        -13    1    4    4    0    0 -0.17376260629E+02  0.59649671016E+02  0.84112698933E+02  0.10457037729E+03  0.00000000000E+00 0.  1.
         13    1    4    4    0    0 -0.95317650089E+02  0.45825830099E+01  0.19486864206E+03  0.21697981967E+03  0.00000000000E+00 0. -1.
        -13    1    3    3    0    0  0.45154694262E+02 -0.15288065194E+02  0.23653044574E+03  0.24128680675E+03  0.00000000000E+00 0.  1.
         13    1    3    3    0    0  0.12380295848E+03  0.75357135239E+02  0.33965831883E+03  0.36928802297E+03  0.00000000000E+00 0. -1.
          1    1    1    2  501    0 -0.56263742030E+02 -0.12430132407E+03  0.87624387740E+02  0.16215566953E+03  0.00000000000E+00 0. -1.
<scales pt_clust_5="13000.00000" pt_clust_6="13000.00000" pt_clust_7="13000.00000" pt_clust_8="13000.00000" pt_clust_9="136.44203"></scales>
<clustering>
<clus scale="   93.022">  7  8 -1 -1</clus>
<clus scale="   93.479">  5  6 -1 -1</clus>
<clus scale="  136.442">  2  9  1 -1</clus>
<clus scale="  171.339">  1  7  2 -1</clus>
<clus scale="  136.442">  2  5  1 -1</clus>
</clustering>
</event>
<event>
 9    1  0.1671478E-005  0.1282837E+03  0.7546771E-02  0.1230523E+00
          1   -1    0    0  502    0 -0.00000000000E+00  0.00000000000E+00  0.26902150501E+03  0.26902150501E+03  0.00000000000E+00 0. -1.
         21   -1    0    0  501  502  0.00000000000E+00 -0.00000000000E+00 -0.12380247089E+03  0.12380247089E+03  0.00000000000E+00 0. -1.
         23    2    1    2    0    0  0.57720333014E+02 -0.91865854989E+02  0.14743236384E+03  0.20192519911E+03  0.85243838321E+02 0.  0.
         23    2    1    2    0    0 -0.32436373122E+02  0.67463435612E+02  0.52129324964E+02  0.12618493888E+03  0.87187951189E+02 0.  0.
        -11    1    4    4    0    0 -0.44370827913E+02  0.29063226267E+02  0.65062883821E+02  0.83944150135E+02  0.00000000000E+00 0. -1.
         11    1    4    4    0    0  0.11934454792E+02  0.38400209345E+02 -0.12933558857E+02  0.42240788743E+02  0.00000000000E+00 0.  1.
        -11    1    3    3    0    0 -0.83667431913E+01 -0.26391092243E+02  0.10645879150E+00  0.27685799155E+02  0.00000000000E+00 0.  1.
         11    1    3    3    0    0  0.66087076205E+02 -0.65474762746E+02  0.14732590504E+03  0.17423939995E+03  0.00000000000E+00 0. -1.
          1    1    1    2  501    0 -0.25283959892E+02  0.24402419377E+02 -0.54342654688E+02  0.64713837916E+02  0.00000000000E+00 0. -1.
<scales pt_clust_5="13000.00000" pt_clust_6="13000.00000" pt_clust_7="13000.00000" pt_clust_8="13000.00000" pt_clust_9="35.13910"></scales>
<clustering>
<clus scale="   35.139">  2  9  1 -1</clus>
<clus scale="   85.244">  7  8 -1 -1</clus>
<clus scale="   87.188">  5  6 -1 -1</clus>
<clus scale="  126.970">  1  7  2 -1</clus>
<clus scale="   35.139">  2  5  1 -1</clus>
</clustering>
</event>
<event>
 9    1  0.1671478E-005  0.1049969E+03  0.7546771E-02  0.1270261E+00
         21   -1    0    0  501  502  0.00000000000E+00  0.00000000000E+00  0.31668313003E+02  0.31668313003E+02  0.00000000000E+00 0.  1.
         -2   -1    0    0    0  501 -0.00000000000E+00 -0.00000000000E+00 -0.66755172047E+03  0.66755172047E+03  0.00000000000E+00 0.  1.
         23    2    1    2    0    0  0.11936344492E+02 -0.60995147215E+02 -0.38176013859E+03  0.39710390614E+03  0.89932333178E+02 0.  0.
         23    2    1    2    0    0 -0.27403043498E+02  0.36690072665E+02 -0.25387767605E+03  0.27330613353E+03  0.90251204987E+02 0.  0.
        -11    1    3    3    0    0 -0.29645532114E+02  0.28005115237E+01 -0.15685622320E+03  0.15965768130E+03  0.00000000000E+00 0. -1.
         11    1    3    3    0    0  0.41581876606E+02 -0.63795658739E+02 -0.22490391539E+03  0.23744622485E+03  0.00000000000E+00 0.  1.
        -13    1    4    4    0    0  0.33118189666E+02  0.10501139651E+02 -0.74881832381E+02  0.82549241313E+02  0.00000000000E+00 0.  1.
         13    1    4    4    0    0 -0.60521233164E+02  0.26188933014E+02 -0.17899584367E+03  0.19075689221E+03  0.00000000000E+00 0. -1.
         -2    1    1    2    0  502  0.15466699006E+02  0.24305074551E+02 -0.24559282109E+00  0.28809993803E+02  0.00000000000E+00 0.  1.
<scales pt_clust_5="13000.00000" pt_clust_6="13000.00000" pt_clust_7="13000.00000" pt_clust_8="13000.00000" pt_clust_9="28.80895"></scales>
<clustering>
<clus scale="   28.809">  1  9  2 -1</clus>
<clus scale="   89.932">  5  6 -1 -1</clus>
<clus scale="   90.251">  7  8 -1 -1</clus>
<clus scale="  104.723">  2  5  1 -1</clus>
<clus scale="   28.809">  1  5  2 -1</clus>
</clustering>
</event>
<event>
 9    1  0.1671478E-005  0.1453009E+03  0.7546771E-02  0.1209852E+00
         21   -1    0    0  501  502  0.00000000000E+00  0.00000000000E+00  0.41115882793E+03  0.41115882793E+03  0.00000000000E+00 0. -1.
         -3   -1    0    0    0  501 -0.00000000000E+00 -0.00000000000E+00 -0.88760513273E+02  0.88760513273E+02  0.00000000000E+00 0.  1.
         23    2    1    2    0    0  0.57257935979E+02  0.92256346525E+02  0.21654886094E+02  0.13400254465E+03  0.75485383836E+02 0.  0.
         23    2    1    2    0    0 -0.10253572854E+03 -0.76040738327E+02  0.20465864527E+03  0.25846769219E+03  0.92868817744E+02 0.  0.
        -11    1    3    3    0    0  0.75389458130E+02  0.82068042709E+02  0.17871485018E+02  0.11286329788E+03  0.00000000000E+00 0.  1.
         11    1    3    3    0    0 -0.18131522151E+02  0.10188303816E+02  0.37834010761E+01  0.21139246767E+02  0.00000000000E+00 0. -1.
        -13    1    4    4    0    0 -0.84116655408E+02 -0.66323250685E+02  0.21105480855E+03  0.23668231347E+03  0.00000000000E+00 0. -1.
         13    1    4    4    0    0 -0.18419073136E+02 -0.97174876424E+01 -0.63961632785E+01  0.21785378719E+02  0.00000000000E+00 0.  1.
         -3    1    1    2    0  502  0.45277792565E+02 -0.16215608198E+02  0.96084783292E+02  0.10744910437E+03  0.00000000000E+00 0.  1.
<scales pt_clust_5="13000.00000" pt_clust_6="13000.00000" pt_clust_7="13000.00000" pt_clust_8="13000.00000" pt_clust_9="48.09391"></scales>
<clustering>
<clus scale="   48.094">  1  9  2 -1</clus>
<clus scale="   75.485">  5  6 -1 -1</clus>
<clus scale="   92.869">  7  8 -1 -1</clus>
<clus scale="  134.855">  2  5  1 -1</clus>
<clus scale="   48.094">  1  5  2 -1</clus>
</clustering>
</event>
<event>
 9    1  0.1671478E-005  0.1486571E+03  0.7546771E-02  0.1202158E+00
         21   -1    0    0  501  502  0.00000000000E+00  0.00000000000E+00  0.25486984800E+03  0.25486984800E+03  0.00000000000E+00 0.  1.
          3   -1    0    0  502    0 -0.00000000000E+00 -0.00000000000E+00 -0.12309802100E+03  0.12309802100E+03  0.00000000000E+00 0. -1.
         23    2    1    2    0    0  0.69016772002E+02  0.84668921737E+02 -0.53135791630E+01  0.14293605610E+03  0.92034454874E+02 0.  0.
         23    2    1    2    0    0 -0.93791982204E+02 -0.96766726043E+02  0.12117198191E+03  0.20319779052E+03  0.91901891594E+02 0.  0.
        -11    1    4    4    0    0 -0.46344901483E+02 -0.68386488377E+02  0.12266636811E+03  0.14789049851E+03  0.00000000000E+00 0.  1.
         11    1    4    4    0    0 -0.47447080721E+02 -0.28380237666E+02 -0.14943862020E+01  0.55307292006E+02  0.00000000000E+00 0. -1.
        -11    1    3    3    0    0  0.54530696931E+02  0.55976658836E+02 -0.46312781759E+02  0.90839732477E+02  0.00000000000E+00 0. -1.
         11    1    3    3    0    0  0.14486075071E+02  0.28692262900E+02  0.40999202597E+02  0.52096323621E+02  0.00000000000E+00 0.  1.
          3    1    1    2  501    0  0.24775210202E+02  0.12097804306E+02  0.15913424260E+02  0.31834022386E+02  0.00000000000E+00 0. -1.
<scales pt_clust_5="13000.00000" pt_clust_6="13000.00000" pt_clust_7="13000.00000" pt_clust_8="13000.00000" pt_clust_9="27.57114"></scales>
<clustering>
<clus scale="   27.571">  1  9  2 -1</clus>
<clus scale="   91.902">  5  6 -1 -1</clus>
<clus scale="   92.034">  7  8 -1 -1</clus>
<clus scale="  148.575">  1  5  2 -1</clus>
<clus scale="   27.571">  1  5  2 -1</clus>
</clustering>
</event>
<event>
 9    1  0.1671478E-005  0.1052564E+03  0.7546771E-02  0.1269796E+00
         21   -1    0    0  501  502  0.00000000000E+00  0.00000000000E+00  0.52265463692E+03  0.52265463692E+03  0.00000000000E+00 0. -1.
         -3   -1    0    0    0  501 -0.00000000000E+00 -0.00000000000E+00 -0.38200966519E+02  0.38200966519E+02  0.00000000000E+00 0.  1.
         23    2    1    2    0    0 -0.22132766344E+02 -0.19954601548E+02  0.17153505888E+03  0.19728576405E+03  0.92786587412E+02 0.  0.
         23    2    1    2    0    0  0.36426054760E+01  0.79651780055E+02  0.19290092167E+03  0.22825581555E+03  0.92370325911E+02 0.  0.
        -11    1    4    4    0    0 -0.32352297249E+02 -0.23627633837E+01  0.49468172253E+02  0.59155336650E+02  0.00000000000E+00 0.  1.
         11    1    4    4    0    0  0.35994902725E+02  0.82014543438E+02  0.14343274942E+03  0.16910047890E+03  0.00000000000E+00 0. -1.
        -13    1    3    3    0    0 -0.33920430216E+02 -0.40079695004E+02  0.16486972128E+03  0.17302890664E+03  0.00000000000E+00 0.  1.
         13    1    3    3    0    0  0.11787663872E+02  0.20125093456E+02  0.66653375967E+01  0.24256857410E+02  0.00000000000E+00 0. -1.
         -3    1    1    2    0  502  0.18490160868E+02 -0.59697178507E+02  0.12001768985E+03  0.13531402384E+03  0.00000000000E+00 0.  1.
<scales pt_clust_5="13000.00000" pt_clust_6="13000.00000" pt_clust_7="13000.00000" pt_clust_8="13000.00000" pt_clust_9="62.49511"></scales>
<clustering>
<clus scale="   62.495">  1  9  2 -1</clus>
<clus scale="   92.370">  5  6 -1 -1</clus>
<clus scale="   92.787">  7  8 -1 -1</clus>
<clus scale="  104.890">  1  5  2 -1</clus>
<clus scale="   62.495">  1  5  2 -1</clus>
</clustering>
</event>
<event>
 9    1  0.1671478E-005  0.9816046E+02  0.7546771E-02  0.1299762E+00
          2   -1    0    0  502    0 -0.00000000000E+00  0.00000000000E+00  0.81930256005E+03  0.81930256005E+03  0.00000000000E+00 0. -1.
         21   -1    0    0  501  502  0.00000000000E+00 -0.00000000000E+00 -0.11559498676E+02  0.11559498676E+02  0.00000000000E+00 0. -1.
         23    2    1    2    0    0  0.13676856932E+01  0.27849227819E+02  0.32052189026E+03  0.32939061139E+03  0.70614748314E+02 0.  0.
         23    2    1    2    0    0  0.60774540672E+01 -0.89883956771E+01  0.36546549714E+03  0.37803885342E+03  0.96076107311E+02 0.  0.
        -11    1    4    4    0    0 -0.10285223034E+02  0.38283178747E+02  0.23484894871E+03  0.23817098122E+03  0.00000000000E+00 0.  1.
         11    1    4    4    0    0  0.16362677101E+02 -0.47271574424E+02  0.13061654843E+03  0.13986787220E+03  0.00000000000E+00 0. -1.
        -11    1    3    3    0    0 -0.21446145238E+02 -0.15588036216E+02  0.12781970524E+03  0.13054041928E+03  0.00000000000E+00 0.  1.
         11    1    3    3    0    0  0.22813830932E+02  0.43437264035E+02  0.19270218502E+03  0.19885019211E+03  0.00000000000E+00 0. -1.
          2    1    1    2  501    0 -0.74451397604E+01 -0.18860832142E+02  0.12175567398E+03  0.12343259392E+03  0.00000000000E+00 0. -1.
<scales pt_clust_5="13000.00000" pt_clust_6="13000.00000" pt_clust_7="13000.00000" pt_clust_8="13000.00000" pt_clust_9="20.27712"></scales>
<clustering>
<clus scale="   20.277">  2  9  1 -1</clus>
<clus scale="   70.615">  7  8 -1 -1</clus>
<clus scale="   73.425">  1  7  2 -1</clus>
<clus scale="   96.076">  5  6 -1 -1</clus>
<clus scale="   20.277">  2  5  1 -1</clus>
</clustering>
</event>
<event>
 9    1  0.1671478E-005  0.2056418E+03  0.7546771E-02  0.1148243E+00
         21   -1    0    0  501  502  0.00000000000E+00  0.00000000000E+00  0.74216469040E+02  0.74216469040E+02  0.00000000000E+00 0.  1.
          1   -1    0    0  502    0 -0.00000000000E+00 -0.00000000000E+00 -0.85602974140E+03  0.85602974140E+03  0.00000000000E+00 0. -1.
         23    2    1    2    0    0 -0.18177326113E+03  0.76027833459E+02 -0.49881725325E+03  0.54791913226E+03  0.11213818905E+03 0.  0.
         23    2    1    2    0    0  0.10127321183E+03 -0.94859518540E+02 -0.12400822535E+03  0.20312883916E+03  0.81416789748E+02 0.  0.
        -13    1    4    4    0    0  0.52957832086E+02 -0.63736128470E+02 -0.11958041903E+03  0.14548643465E+03  0.00000000000E+00 0.  1.
         13    1    4    4    0    0  0.48315379740E+02 -0.31123390070E+02 -0.44278063190E+01  0.57642404510E+02  0.00000000000E+00 0. -1.
        -13    1    3    3    0    0 -0.11527460947E+03  0.31893497052E+02 -0.41621029677E+03  0.43305477931E+03  0.00000000000E+00 0. -1.
         13    1    3    3    0    0 -0.66498651654E+02  0.44134336407E+02 -0.82606956475E+02  0.11486435296E+03  0.00000000000E+00 0.  1.
          1    1    1    2  501    0  0.80500049303E+02  0.18831685081E+02 -0.15898779377E+03  0.17919823902E+03  0.00000000000E+00 0. -1.
<scales pt_clust_5="13000.00000" pt_clust_6="13000.00000" pt_clust_7="13000.00000" pt_clust_8="13000.00000" pt_clust_9="82.67344"></scales>
<clustering>
<clus scale="   81.417">  5  6 -1 -1</clus>
<clus scale="   82.673">  1  9  2 -1</clus>
<clus scale="  112.138">  7  8 -1 -1</clus>
<clus scale="  190.636">  1  5  2 -1</clus>
<clus scale="   82.673">  1  5  2 -1</clus>
</clustering>
</event>
<event>
 9    1  0.1671478E-005  0.1053311E+03  0.7546771E-02  0.1270089E+00
         21   -1    0    0  501  502  0.00000000000E+00  0.00000000000E+00  0.69373484941E+02  0.69373484941E+02  0.00000000000E+00 0. -1.
         -1   -1    0    0    0  501 -0.00000000000E+00 -0.00000000000E+00 -0.30858575291E+03  0.30858575291E+03  0.00000000000E+00 0.  1.
         23    2    1    2    0    0 -0.41236587721E+02  0.21273118607E+02 -0.21058015339E+03  0.23440200257E+03  0.91909172921E+02 0.  0.
         23    2    1    2    0    0  0.60761957580E+02 -0.32833606834E+02 -0.36522575283E+02  0.11953340697E+03  0.90466986522E+02 0.  0.
        -11    1    3    3    0    0 -0.53541088809E+02  0.40095231809E+02 -0.19719881818E+03  0.20823460254E+03  0.00000000000E+00 0.  1.
         11    1    3    3    0    0  0.12304501088E+02 -0.18822113202E+02 -0.13381335211E+02  0.26167400032E+02  0.00000000000E+00 0. -1.
        -13    1    4    4    0    0  0.26902405021E+02 -0.29924371506E+02 -0.64156794312E+02  0.75731774457E+02  0.00000000000E+00 0.  1.
         13    1    4    4    0    0  0.33859552559E+02 -0.29092353279E+01  0.27634219029E+02  0.43801632515E+02  0.00000000000E+00 0. -1.
         -1    1    1    2    0  502 -0.19525369859E+02  0.11560488227E+02  0.78904607056E+01  0.24023828303E+02  0.00000000000E+00 0.  1.
<scales pt_clust_5="13000.00000" pt_clust_6="13000.00000" pt_clust_7="13000.00000" pt_clust_8="13000.00000" pt_clust_9="22.69108"></scales>
<clustering>
<clus scale="   22.691">  1  9  2 -1</clus>
<clus scale="   90.467">  7  8 -1 -1</clus>
<clus scale="   91.909">  5  6 -1 -1</clus>
<clus scale="  104.075">  1  7  2 -1</clus>
<clus scale="   22.691">  1  5  2 -1</clus>
</clustering>
</event>
<event>
 9    1  0.1671478E-005  0.1783235E+03  0.7546771E-02  0.1193025E+00
          2   -1    0    0  502    0 -0.00000000000E+00  0.00000000000E+00  0.58631246197E+03  0.58631246197E+03  0.00000000000E+00 0. -1.
         21   -1    0    0  501  502  0.00000000000E+00 -0.00000000000E+00 -0.89734533023E+02  0.89734533023E+02  0.00000000000E+00 0.  1.
         23    2    1    2    0    0 -0.50366071274E+02 -0.31841392435E+02  0.19061239536E+03  0.21764209917E+03  0.86512326614E+02 0.  0.
         23    2    1    2    0    0 -0.20760185850E+02  0.16034607247E+03  0.12089445299E+03  0.22213449541E+03  0.92662921453E+02 0.  0.
        -11    1    4    4    0    0  0.23890234059E+02  0.29505530718E+02  0.60148863505E+02  0.71128091549E+02  0.00000000000E+00 0. -1.
         11    1    4    4    0    0 -0.44650419910E+02  0.13084054175E+03  0.60745589489E+02  0.15100640386E+03  0.00000000000E+00 0.  1.
        -11    1    3    3    0    0 -0.51975724609E+02  0.17982367024E+02  0.93276844734E+02  0.10828393803E+03  0.00000000000E+00 0.  1.
         11    1    3    3    0    0  0.16096533347E+01 -0.49823759459E+02  0.97335550628E+02  0.10935816113E+03  0.00000000000E+00 0. -1.
          2    1    1    2  501    0  0.71126257125E+02 -0.12850468003E+03  0.18507108059E+03  0.23627040042E+03  0.00000000000E+00 0. -1.
<scales pt_clust_5="13000.00000" pt_clust_6="13000.00000" pt_clust_7="13000.00000" pt_clust_8="13000.00000" pt_clust_9="152.35776"></scales>
<clustering>
<clus scale="   86.512">  7  8 -1 -1</clus>
<clus scale="   92.663">  5  6 -1 -1</clus>
<clus scale="  105.048">  1  7  2 -1</clus>
<clus scale="  152.358">  2  9  1 -1</clus>
<clus scale="  152.358">  2  5  1 -1</clus>
</clustering>
</event>
<event>
 9    1  0.1671478E-005  0.1182877E+03  0.7546771E-02  0.1251933E+00
          1   -1    0    0  502    0 -0.00000000000E+00  0.00000000000E+00  0.24465532305E+03  0.24465532305E+03  0.00000000000E+00 0. -1.
         21   -1    0    0  501  502  0.00000000000E+00 -0.00000000000E+00 -0.11945045982E+03  0.11945045982E+03  0.00000000000E+00 0. -1.
         23    2    1    2    0    0 -0.67470509630E+02 -0.26355285905E+02  0.15408030358E+03  0.19288757891E+03  0.90653225983E+02 0.  0.
         23    2    1    2    0    0  0.92890202087E+02  0.17768681862E+02 -0.57277886807E+02  0.13214660944E+03  0.72371640655E+02 0.  0.
        -11    1    3    3    0    0  0.68367386597E+01 -0.38252705305E+02  0.36663266745E+02  0.53424765672E+02  0.00000000000E+00 0.  1.
         11    1    3    3    0    0 -0.74307248289E+02  0.11897419401E+02  0.11741703684E+03  0.13946281324E+03  0.00000000000E+00 0. -1.
        -13    1    4    4    0    0  0.82957592188E+02 -0.14555384940E+02 -0.32732493701E+02  0.90361703594E+02  0.00000000000E+00 0. -1.
         13    1    4    4    0    0  0.99326098984E+01  0.32324066802E+02 -0.24545393105E+02  0.41784905848E+02  0.00000000000E+00 0.  1.
          1    1    1    2  501    0 -0.25419692457E+02  0.85866040423E+01  0.28402446456E+02  0.39071594520E+02  0.00000000000E+00 0. -1.
<scales pt_clust_5="13000.00000" pt_clust_6="13000.00000" pt_clust_7="13000.00000" pt_clust_8="13000.00000" pt_clust_9="26.83079"></scales>
<clustering>
<clus scale="   26.831">  2  9  1 -1</clus>
<clus scale="   72.372">  7  8 -1 -1</clus>
<clus scale="   90.653">  5  6 -1 -1</clus>
<clus scale="  104.936">  2  7  1 -1</clus>
<clus scale="   26.831">  2  5  1 -1</clus>
</clustering>
</event>
<event>
 9    1  0.1671478E-005  0.2918158E+03  0.7546771E-02  0.1089624E+00
          1   -1    0    0  502    0 -0.00000000000E+00  0.00000000000E+00  0.46769796315E+03  0.46769796315E+03  0.00000000000E+00 0. -1.
         21   -1    0    0  501  502  0.00000000000E+00 -0.00000000000E+00 -0.35052391643E+03  0.35052391643E+03  0.00000000000E+00 0. -1.
         23    2    1    2    0    0  0.21419719192E+03 -0.84033246153E+02 -0.25525298394E+02  0.25093021646E+03  0.96811203835E+02 0.  0.
         23    2    1    2    0    0 -0.24010537045E+03  0.24848417459E+03  0.15542972755E+02  0.35780637818E+03  0.91590645396E+02 0.  0.
        -11    1    4    4    0    0 -0.23459344535E+02  0.47586844645E+02 -0.26614242029E+02  0.59356267639E+02  0.00000000000E+00 0.  1.
         11    1    4    4    0    0 -0.21664602591E+03  0.20089732995E+03  0.42157214785E+02  0.29845011054E+03  0.00000000000E+00 0. -1.
        -11    1    3    3    0    0  0.59872247231E+02  0.19732800902E+02 -0.14195848309E+02  0.64618817145E+02  0.00000000000E+00 0.  1.
         11    1    3    3    0    0  0.15432494469E+03 -0.10376604706E+03 -0.11329450085E+02  0.18631139931E+03  0.00000000000E+00 0. -1.
          1    1    1    2  501    0  0.25908178528E+02 -0.16445092844E+03  0.12715637236E+03  0.20948528495E+03  0.00000000000E+00 0. -1.
<scales pt_clust_5="13000.00000" pt_clust_6="13000.00000" pt_clust_7="13000.00000" pt_clust_8="13000.00000" pt_clust_9="166.47934"></scales>
<clustering>
<clus scale="   91.591">  5  6 -1 -1</clus>
<clus scale="   96.811">  7  8 -1 -1</clus>
<clus scale="  166.479">  2  9  1 -1</clus>
<clus scale="  290.126">  2  5  1 -1</clus>
<clus scale="  166.479">  2  5  1 -1</clus>
</clustering>
</event>
<event>
 9    1  0.1671478E-005  0.1766373E+03  0.7546771E-02  0.1171664E+00
         -1   -1    0    0    0  501 -0.00000000000E+00  0.00000000000E+00  0.10864994794E+04  0.10864994794E+04  0.00000000000E+00 0.  1.
         21   -1    0    0  501  502  0.00000000000E+00 -0.00000000000E+00 -0.51353664215E+02  0.51353664215E+02  0.00000000000E+00 0. -1.
         23    2    1    2    0    0 -0.68128088540E+02  0.11846251437E+03  0.53342422951E+03  0.55807081916E+03  0.90701856666E+02 0.  0.
         23    2    1    2    0    0  0.13936492588E+03 -0.11063232189E+03  0.44432577551E+03  0.48796577946E+03  0.94990072813E+02 0.  0.
        -11    1    4    4    0    0  0.53270695850E+02 -0.79607883257E+02  0.31706091066E+03  0.33121413494E+03  0.00000000000E+00 0.  1.
         11    1    4    4    0    0  0.86094230029E+02 -0.31024438637E+02  0.12726486485E+03  0.15675164453E+03  0.00000000000E+00 0. -1.
        -11    1    3    3    0    0 -0.27436203112E+01  0.89350454120E+02  0.34841162991E+03  0.35969667076E+03  0.00000000000E+00 0.  1.
         11    1    3    3    0    0 -0.65384468228E+02  0.29112060254E+02  0.18501259961E+03  0.19837414839E+03  0.00000000000E+00 0. -1.
         -1    1    1    2    0  502 -0.71236837340E+02 -0.78301924795E+01  0.57395810135E+02  0.91816544966E+02  0.00000000000E+00 0.  1.
<scales pt_clust_5="13000.00000" pt_clust_6="13000.00000" pt_clust_7="13000.00000" pt_clust_8="13000.00000" pt_clust_9="71.66588"></scales>
<clustering>
<clus scale="   71.666">  2  9  1 -1</clus>
<clus scale="   90.702">  7  8 -1 -1</clus>
<clus scale="   94.990">  5  6 -1 -1</clus>
<clus scale="  174.369">  1  7  2 -1</clus>
<clus scale="   71.666">  2  5  1 -1</clus>
</clustering>
</event>
<event>
 9    1  0.1671478E-005  0.9259901E+02  0.7546771E-02  0.1298250E+00
         21   -1    0    0  501  502  0.00000000000E+00  0.00000000000E+00  0.18576329021E+02  0.18576329021E+02  0.00000000000E+00 0. -1.
         -1   -1    0    0    0  501 -0.00000000000E+00 -0.00000000000E+00 -0.62639238902E+03  0.62639238902E+03  0.00000000000E+00 0.  1.
         23    2    1    2    0    0 -0.54267676744E+01  0.77750514994E+01 -0.30871190760E+03  0.32162037575E+03  0.89703528193E+02 0.  0.
         23    2    1    2    0    0 -0.19603183638E+02  0.15635934242E+01 -0.25317108839E+03  0.27021120725E+03  0.92367564059E+02 0.  0.
        -13    1    4    4    0    0 -0.35328517985E+01  0.43740722195E+02 -0.79897180799E+02  0.91155314269E+02  0.00000000000E+00 0. -1.
         13    1    4    4    0    0 -0.16070331840E+02 -0.42177128771E+02 -0.17327390759E+03  0.17905589298E+03  0.00000000000E+00 0.  1.
        -13    1    3    3    0    0 -0.43281035410E+02  0.23430807674E+02 -0.16486700991E+03  0.17205633302E+03  0.00000000000E+00 0. -1.
         13    1    3    3    0    0  0.37854267736E+02 -0.15655756175E+02 -0.14384489769E+03  0.14956404274E+03  0.00000000000E+00 0.  1.
         -1    1    1    2    0  502  0.25029951313E+02 -0.93386449236E+01 -0.45933063998E+02  0.53137135037E+02  0.00000000000E+00 0.  1.
<scales pt_clust_5="13000.00000" pt_clust_6="13000.00000" pt_clust_7="13000.00000" pt_clust_8="13000.00000" pt_clust_9="26.71533"></scales>
<clustering>
<clus scale="   26.715">  1  9  2 -1</clus>
<clus scale="   89.704">  7  8 -1 -1</clus>
<clus scale="   89.942">  2  7  1 -1</clus>
<clus scale="   92.368">  5  6 -1 -1</clus>
<clus scale="   26.715">  1  5  2 -1</clus>
</clustering>
</event>
<event>
 9    1  0.1671478E-005  0.1024313E+03  0.7546771E-02  0.1278784E+00
         21   -1    0    0  501  502  0.00000000000E+00  0.00000000000E+00  0.24219313953E+03  0.24219313953E+03  0.00000000000E+00 0.  1.
         -3   -1    0    0    0  501 -0.00000000000E+00 -0.00000000000E+00 -0.17946720068E+03  0.17946720068E+03  0.00000000000E+00 0.  1.
         23    2    1    2    0    0 -0.33522109408E+02  0.54043980064E+01 -0.54141879845E+02  0.11063356715E+03  0.90307827401E+02 0.  0.
         23    2    1    2    0    0  0.60031861425E+02  0.37251415547E+02 -0.62043081186E+02  0.12520052228E+03  0.82670033927E+02 0.  0.
        -11    1    4    4    0    0  0.16143604949E+02  0.24256846061E+02 -0.72598531889E+02  0.78227599950E+02  0.00000000000E+00 0.  1.
         11    1    4    4    0    0  0.43888256476E+02  0.12994569487E+02  0.10555450702E+02  0.46972922329E+02  0.00000000000E+00 0. -1.
        -13    1    3    3    0    0  0.27412863908E+01 -0.31505322417E+02 -0.49424071033E+02  0.58675708680E+02  0.00000000000E+00 0. -1.
         13    1    3    3    0    0 -0.36263395798E+02  0.36909720424E+02 -0.47178088125E+01  0.51957858468E+02  0.00000000000E+00 0.  1.
         -3    1    1    2    0  502 -0.26509752017E+02 -0.42655813554E+02  0.17891089988E+03  0.18582625078E+03  0.00000000000E+00 0.  1.
<scales pt_clust_5="13000.00000" pt_clust_6="13000.00000" pt_clust_7="13000.00000" pt_clust_8="13000.00000" pt_clust_9="50.22236"></scales>
<clustering>
<clus scale="   50.222">  1  9  2 -1</clus>
<clus scale="   82.670">  5  6 -1 -1</clus>
<clus scale="   90.308">  7  8 -1 -1</clus>
<clus scale="   95.765">  1  5  2 -1</clus>
<clus scale="   50.222">  1  5  2 -1</clus>
</clustering>
</event>
<event>
 9    1  0.1671478E-005  0.2518641E+03  0.7546771E-02  0.1114006E+00
         21   -1    0    0  501  502  0.00000000000E+00  0.00000000000E+00  0.10669316040E+03  0.10669316040E+03  0.00000000000E+00 0. -1.
          1   -1    0    0  502    0 -0.00000000000E+00 -0.00000000000E+00 -0.82680814984E+03  0.82680814984E+03  0.00000000000E+00 0. -1.
         23    2    1    2    0    0 -0.93396062360E+02 -0.19777795318E+03 -0.54344917411E+03  0.59278120502E+03  0.90628963126E+02 0.  0.
         23    2    1    2    0    0  0.78609324058E+02  0.22117973244E+03 -0.15162658513E+03  0.30339378808E+03  0.11814088818E+03 0.  0.
        -13    1    4    4    0    0  0.10924935974E+03  0.15490704072E+03 -0.10387006723E+03  0.21614949626E+03  0.00000000000E+00 0. -1.
         13    1    4    4    0    0 -0.30640035677E+02  0.66272691719E+02 -0.47756517901E+02  0.87244291824E+02  0.00000000000E+00 0.  1.
        -13    1    3    3    0    0 -0.55065362160E+02 -0.93014462870E+02 -0.15743123720E+03  0.19096721933E+03  0.00000000000E+00 0.  1.
         13    1    3    3    0    0 -0.38330700200E+02 -0.10476349031E+03 -0.38601793691E+03  0.40181398569E+03  0.00000000000E+00 0. -1.
          1    1    1    2  501    0  0.14786738302E+02 -0.23401779256E+02 -0.25039230199E+02  0.37326317135E+02  0.00000000000E+00 0. -1.
<scales pt_clust_5="13000.00000" pt_clust_6="13000.00000" pt_clust_7="13000.00000" pt_clust_8="13000.00000" pt_clust_9="27.68196"></scales>
<clustering>
<clus scale="   27.682">  1  9  2 -1</clus>
<clus scale="   90.629">  7  8 -1 -1</clus>
<clus scale="  118.141">  5  6 -1 -1</clus>
<clus scale="  240.191">  2  7  1 -1</clus>
<clus scale="   27.682">  1  5  2 -1</clus>
</clustering>
</event>
<event>
 9    1  0.1671478E-005  0.1498377E+03  0.7546771E-02  0.1201320E+00
         21   -1    0    0  501  502  0.00000000000E+00  0.00000000000E+00  0.10992647963E+04  0.10992647963E+04  0.00000000000E+00 0. -1.
          2   -1    0    0  502    0 -0.00000000000E+00 -0.00000000000E+00 -0.46788252706E+02  0.46788252706E+02  0.00000000000E+00 0. -1.
         23    2    1    2    0    0 -0.92608817961E+02  0.55551978808E+02  0.12450295317E+03  0.18962245508E+03  0.93772461888E+02 0.  0.
         23    2    1    2    0    0  0.14244607122E+03 -0.42505793543E+02  0.77290118629E+03  0.79302494750E+03  0.97029366119E+02 0.  0.
        -11    1    4    4    0    0  0.26842060694E+02  0.26121717516E+02  0.99079335049E+02  0.10592240076E+03  0.00000000000E+00 0.  1.
         11    1    4    4    0    0  0.11560401052E+03 -0.68627511059E+02  0.67382185124E+03  0.68710254674E+03  0.00000000000E+00 0. -1.
        -11    1    3    3    0    0 -0.20057496730E+00  0.24507060233E+02  0.77723219178E+02  0.81495613569E+02  0.00000000000E+00 0.  1.
         11    1    3    3    0    0 -0.92408242994E+02  0.31044918575E+02  0.46779733990E+02  0.10812684151E+03  0.00000000000E+00 0. -1.
          2    1    1    2  501    0 -0.49837253258E+02 -0.13046185266E+02  0.15507240415E+03  0.16340564645E+03  0.00000000000E+00 0. -1.
<scales pt_clust_5="13000.00000" pt_clust_6="13000.00000" pt_clust_7="13000.00000" pt_clust_8="13000.00000" pt_clust_9="51.51655"></scales>
<clustering>
<clus scale="   51.517">  1  9  2 -1</clus>
<clus scale="   93.772">  7  8 -1 -1</clus>
<clus scale="   97.029">  5  6 -1 -1</clus>
<clus scale="  147.749">  2  7  1 -1</clus>
<clus scale="   51.517">  1  5  2 -1</clus>
</clustering>
</event>
<event>
 9    1  0.1671478E-005  0.1184178E+03  0.7546771E-02  0.1252693E+00
         -1   -1    0    0    0  501 -0.00000000000E+00  0.00000000000E+00  0.38821802021E+03  0.38821802021E+03  0.00000000000E+00 0.  1.
         21   -1    0    0  501  502  0.00000000000E+00 -0.00000000000E+00 -0.92915373295E+02  0.92915373295E+02  0.00000000000E+00 0.  1.
         23    2    1    2    0    0  0.20725280348E+02 -0.65525974449E+02  0.22200179251E+03  0.24966102383E+03  0.91228506354E+02 0.  0.
         23    2    1    2    0    0  0.14024435915E+02  0.17799469490E+02  0.11468999515E+03  0.15937227933E+03  0.10831538447E+03 0.  0.
        -11    1    3    3    0    0  0.32145001709E+02 -0.43696697623E+01  0.15447237076E+03  0.15784203647E+03  0.00000000000E+00 0.  1.
         11    1    3    3    0    0 -0.11419721361E+02 -0.61156304686E+02  0.67529421749E+02  0.91818987364E+02  0.00000000000E+00 0. -1.
        -13    1    4    4    0    0  0.58165440793E+02  0.60076735271E+01  0.36860434850E+02  0.69123095280E+02  0.00000000000E+00 0.  1.
         13    1    4    4    0    0 -0.44141004878E+02  0.11791795963E+02  0.77829560305E+02  0.90249184045E+02  0.00000000000E+00 0. -1.
         -1    1    1    2    0  502 -0.34749716263E+02  0.47726504958E+02 -0.41389140749E+02  0.72100090346E+02  0.00000000000E+00 0.  1.
<scales pt_clust_5="13000.00000" pt_clust_6="13000.00000" pt_clust_7="13000.00000" pt_clust_8="13000.00000" pt_clust_9="59.03696"></scales>
<clustering>
<clus scale="   59.037">  2  9  1 -1</clus>
<clus scale="   91.229">  5  6 -1 -1</clus>
<clus scale="  103.020">  1  5  2 -1</clus>
<clus scale="  108.315">  7  8 -1 -1</clus>
<clus scale="   59.037">  2  5  1 -1</clus>
</clustering>
</event>
<event>
 9    1  0.1671478E-005  0.2297891E+03  0.7546771E-02  0.1127587E+00
         21   -1    0    0  501  502  0.00000000000E+00  0.00000000000E+00  0.40096975438E+03  0.40096975438E+03  0.00000000000E+00 0.  1.
          2   -1    0    0  502    0 -0.00000000000E+00 -0.00000000000E+00 -0.18106835472E+03  0.18106835472E+03  0.00000000000E+00 0. -1.
         23    2    1    2    0    0 -0.14932976780E+03  0.14523219465E+03 -0.13671897727E+02  0.22746861570E+03  0.90350873952E+02 0.  0.
         23    2    1    2    0    0  0.16184878385E+03 -0.12325992453E+03  0.16292098178E+03  0.27952779754E+03  0.10101735230E+03 0.  0.
        -11    1    4    4    0    0 -0.11997309927E+02 -0.23845158197E+02  0.15648655398E+02  0.30942001078E+02  0.00000000000E+00 0. -1.
         11    1    4    4    0    0  0.17384609377E+03 -0.99414766335E+02  0.14727232638E+03  0.24858579646E+03  0.00000000000E+00 0.  1.
        -13    1    3    3    0    0 -0.13452566022E+03  0.73705695310E+02 -0.17110626011E+02  0.15434525034E+03  0.00000000000E+00 0. -1.
         13    1    3    3    0    0 -0.14804107584E+02  0.71526499344E+02  0.34387282845E+01  0.73123365363E+02  0.00000000000E+00 0.  1.
          2    1    1    2  501    0 -0.12519016041E+02 -0.21972270122E+02  0.70652315605E+02  0.75041695859E+02  0.00000000000E+00 0. -1.
<scales pt_clust_5="13000.00000" pt_clust_6="13000.00000" pt_clust_7="13000.00000" pt_clust_8="13000.00000" pt_clust_9="25.28846"></scales>
<clustering>
<clus scale="   25.288">  1  9  2 -1</clus>
<clus scale="   90.351">  7  8 -1 -1</clus>
<clus scale="  101.017">  5  6 -1 -1</clus>
<clus scale="  225.304">  2  7  1 -1</clus>
<clus scale="   25.288">  1  5  2 -1</clus>
</clustering>
</event>
<event>
 9    1  0.1671478E-005  0.1236582E+03  0.7546771E-02  0.1250839E+00
          2   -1    0    0  502    0 -0.00000000000E+00  0.00000000000E+00  0.18932729414E+03  0.18932729414E+03  0.00000000000E+00 0. -1.
         21   -1    0    0  501  502  0.00000000000E+00 -0.00000000000E+00 -0.12949902843E+03  0.12949902843E+03  0.00000000000E+00 0.  1.
         23    2    1    2    0    0  0.71278323043E+00 -0.16336152306E+02  0.53096197202E+02  0.10636505331E+03  0.90702483296E+02 0.  0.
         23    2    1    2    0    0  0.26454848331E+02  0.29786353295E+02  0.67616769894E+02  0.14444704299E+03  0.12126761651E+03 0.  0.
        -11    1    3    3    0    0 -0.23419492161E+02 -0.43696393298E+02  0.11228012364E+02  0.50832230543E+02  0.00000000000E+00 0. -1.
         11    1    3    3    0    0  0.24132275391E+02  0.27360240992E+02  0.41868184838E+02  0.55532822766E+02  0.00000000000E+00 0.  1.
        -11    1    4    4    0    0 -0.45120118603E+02  0.31675480003E+02  0.38038225568E+02  0.66978113892E+02  0.00000000000E+00 0. -1.
         11    1    4    4    0    0  0.71574966934E+02 -0.18891267078E+01  0.29578544326E+02  0.77468929099E+02  0.00000000000E+00 0.  1.
          2    1    1    2  501    0 -0.27167631561E+02 -0.13450200988E+02 -0.60884701385E+02  0.68014226262E+02  0.00000000000E+00 0. -1.
<scales pt_clust_5="13000.00000" pt_clust_6="13000.00000" pt_clust_7="13000.00000" pt_clust_8="13000.00000" pt_clust_9="30.31482"></scales>
<clustering>
<clus scale="   30.315">  2  9  1 -1</clus>
<clus scale="   90.702">  5  6 -1 -1</clus>
<clus scale="   93.875">  1  5  2 -1</clus>
<clus scale="  121.268">  7  8 -1 -1</clus>
<clus scale="   30.315">  2  5  1 -1</clus>
</clustering>
</event>
<event>
 9    1  0.1671478E-005  0.1161438E+03  0.7546771E-02  0.1261960E+00
         -4   -1    0    0    0  501 -0.00000000000E+00  0.00000000000E+00  0.25386673324E+02  0.25386673324E+02  0.00000000000E+00 0. -1.
         21   -1    0    0  501  502  0.00000000000E+00 -0.00000000000E+00 -0.55668499328E+03  0.55668499328E+03  0.00000000000E+00 0.  1.
         23    2    1    2    0    0  0.61947785523E+01 -0.63319263635E+00 -0.16417486188E+03  0.18748894677E+03  0.90332406547E+02 0.  0.
         23    2    1    2    0    0 -0.59670878865E+01 -0.23346139405E+02 -0.27337618279E+03  0.29781696230E+03  0.11567090107E+03 0.  0.
        -11    1    4    4    0    0 -0.38603726354E+02  0.21020687752E+02 -0.20675833450E+03  0.21137910466E+03  0.00000000000E+00 0.  1.
         11    1    4    4    0    0  0.32636638468E+02 -0.44366827157E+02 -0.66617848293E+02  0.86437857642E+02  0.00000000000E+00 0. -1.
        -13    1    3    3    0    0  0.38984707866E+02 -0.25513600136E+02 -0.10992751337E+03  0.11939350667E+03  0.00000000000E+00 0. -1.
         13    1    3    3    0    0 -0.32789929314E+02  0.24880407499E+02 -0.54247348513E+02  0.68095440100E+02  0.00000000000E+00 0.  1.
         -4    1    1    2    0  502 -0.22769066575E+00  0.23979332042E+02 -0.93747275286E+02  0.96765757537E+02  0.00000000000E+00 0. -1.
<scales pt_clust_5="13000.00000" pt_clust_6="13000.00000" pt_clust_7="13000.00000" pt_clust_8="13000.00000" pt_clust_9="23.98041"></scales>
<clustering>
<clus scale="   23.980">  2  9  1 -1</clus>
<clus scale="   90.332">  7  8 -1 -1</clus>
<clus scale="   90.937">  1  7  2 -1</clus>
<clus scale="  115.671">  5  6 -1 -1</clus>
<clus scale="   23.980">  2  5  1 -1</clus>
</clustering>
</event>
<event>
 9    1  0.1671478E-005  0.9450095E+02  0.7546771E-02  0.1292695E+00
          3   -1    0    0  502    0 -0.00000000000E+00  0.00000000000E+00  0.18380641569E+03  0.18380641569E+03  0.00000000000E+00 0. -1.
         21   -1    0    0  501  502  0.00000000000E+00 -0.00000000000E+00 -0.88635375544E+02  0.88635375544E+02  0.00000000000E+00 0.  1.
         23    2    1    2    0    0  0.35704294088E+01  0.23034490934E+02  0.91864529507E+02  0.13205605142E+03  0.91958540640E+02 0.  0.
         23    2    1    2    0    0  0.32573123536E+02 -0.15122123156E+02 -0.14831220755E+02  0.99179680996E+02  0.91252161771E+02 0.  0.
        -11    1    3    3    0    0 -0.24757698138E+02 -0.27307086876E+02  0.40439890269E+02  0.54717504839E+02  0.00000000000E+00 0. -1.
         11    1    3    3    0    0  0.28328127547E+02  0.50341577810E+02  0.51424639238E+02  0.77338546583E+02  0.00000000000E+00 0.  1.
        -13    1    4    4    0    0  0.10943714555E+02  0.27524755856E+02 -0.36225282187E+02  0.46793676311E+02  0.00000000000E+00 0.  1.
         13    1    4    4    0    0  0.21629408981E+02 -0.42646879012E+02  0.21394061432E+02  0.52386004685E+02  0.00000000000E+00 0. -1.
          3    1    1    2  501    0 -0.36143552945E+02 -0.79123677780E+01  0.18137731398E+02  0.41206058821E+02  0.00000000000E+00 0. -1.
<scales pt_clust_5="13000.00000" pt_clust_6="13000.00000" pt_clust_7="13000.00000" pt_clust_8="13000.00000" pt_clust_9="36.99950"></scales>
<clustering>
<clus scale="   37.000">  2  9  1 -1</clus>
<clus scale="   91.252">  7  8 -1 -1</clus>
<clus scale="   91.959">  5  6 -1 -1</clus>
<clus scale="   93.814">  2  7  1 -1</clus>
<clus scale="   37.000">  2  5  1 -1</clus>
</clustering>
</event>
<event>
 9    1  0.1671478E-005  0.1214814E+03  0.7546771E-02  0.1240729E+00
         21   -1    0    0  501  502  0.00000000000E+00  0.00000000000E+00  0.48996683109E+03  0.48996683109E+03  0.00000000000E+00 0. -1.
          2   -1    0    0  502    0 -0.00000000000E+00 -0.00000000000E+00 -0.74527006873E+02  0.74527006873E+02  0.00000000000E+00 0. -1.
         23    2    1    2    0    0  0.10299712341E+03 -0.20395093846E+02  0.64173908818E+02  0.15407672290E+03  0.92719893670E+02 0.  0.
         23    2    1    2    0    0 -0.43137156907E+02  0.34063314285E+02  0.85644592378E+02  0.13779150533E+03  0.92899833433E+02 0.  0.
        -11    1    3    3    0    0  0.10073668664E+03  0.17075690798E+02  0.51775842957E+02  0.11454342917E+03  0.00000000000E+00 0. -1.
         11    1    3    3    0    0  0.22604367720E+01 -0.37470784644E+02  0.12398065861E+02  0.39533293732E+02  0.00000000000E+00 0.  1.
        -11    1    4    4    0    0 -0.20417883301E+02  0.37909206185E+02 -0.58375823795E+01  0.43451987758E+02  0.00000000000E+00 0. -1.
         11    1    4    4    0    0 -0.22719273605E+02 -0.38458919005E+01  0.91482174757E+02  0.94339517573E+02  0.00000000000E+00 0.  1.
          2    1    1    2  501    0 -0.59859966503E+02 -0.13668220439E+02  0.26562132303E+03  0.27262560974E+03  0.00000000000E+00 0. -1.
<scales pt_clust_5="13000.00000" pt_clust_6="13000.00000" pt_clust_7="13000.00000" pt_clust_8="13000.00000" pt_clust_9="61.40062"></scales>
<clustering>
<clus scale="   61.401">  1  9  2 -1</clus>
<clus scale="   92.720">  5  6 -1 -1</clus>
<clus scale="   92.900">  7  8 -1 -1</clus>
<clus scale="  121.344">  2  5  1 -1</clus>
<clus scale="   61.401">  1  5  2 -1</clus>
</clustering>
</event>
<event>
 9    1  0.1671478E-005  0.9702140E+02  0.7546771E-02  0.1286890E+00
         -1   -1    0    0    0  501 -0.00000000000E+00  0.00000000000E+00  0.16668061522E+03  0.16668061522E+03  0.00000000000E+00 0.  1.
         21   -1    0    0  501  502  0.00000000000E+00 -0.00000000000E+00 -0.79303005373E+02  0.79303005373E+02  0.00000000000E+00 0. -1.
         23    2    1    2    0    0 -0.20294994327E+02  0.27534006137E+02  0.86910028163E+02  0.13180988143E+03  0.93007975775E+02 0.  0.
         23    2    1    2    0    0  0.58622263555E+01 -0.13243110250E+02  0.23325436725E+01  0.93777352726E+02  0.92622920799E+02 0.  0.
        -13    1    3    3    0    0 -0.26786045503E+02 -0.18952483826E+02 -0.25118473037E+00  0.32813899046E+02  0.00000000000E+00 0.  1.
         13    1    3    3    0    0  0.64910511760E+01  0.46486489963E+02  0.87161212893E+02  0.98995982380E+02  0.00000000000E+00 0. -1.
        -13    1    4    4    0    0  0.27324927060E+02 -0.71714641707E+01 -0.38200965927E+02  0.47512054628E+02  0.00000000000E+00 0. -1.
         13    1    4    4    0    0 -0.21462700704E+02 -0.60716460795E+01  0.40533509600E+02  0.46265298098E+02  0.00000000000E+00 0.  1.
         -1    1    1    2    0  502  0.14432767971E+02 -0.14290895887E+02 -0.18649619882E+01  0.20396386439E+02  0.00000000000E+00 0.  1.
<scales pt_clust_5="13000.00000" pt_clust_6="13000.00000" pt_clust_7="13000.00000" pt_clust_8="13000.00000" pt_clust_9="20.31095"></scales>
<clustering>
<clus scale="   20.311">  2  9  1 -1</clus>
<clus scale="   92.623">  7  8 -1 -1</clus>
<clus scale="   93.008">  5  6 -1 -1</clus>
<clus scale="   96.652">  2  7  1 -1</clus>
<clus scale="   20.311">  2  5  1 -1</clus>
</clustering>
</event>
<event>
 9    1  0.1671478E-005  0.9413011E+02  0.7546771E-02  0.1296961E+00
         21   -1    0    0  501  502  0.00000000000E+00  0.00000000000E+00  0.27374146195E+03  0.27374146195E+03  0.00000000000E+00 0. -1.
          2   -1    0    0  502    0 -0.00000000000E+00 -0.00000000000E+00 -0.11295047349E+03  0.11295047349E+03  0.00000000000E+00 0. -1.
         23    2    1    2    0    0  0.58883895096E+01 -0.19434486902E+02 -0.70168139985E+02  0.11827136460E+03  0.93017070499E+02 0.  0.
         23    2    1    2    0    0 -0.38077699424E+01 -0.26284475682E+02  0.14195291141E+03  0.16833730955E+03  0.86495363778E+02 0.  0.
        -13    1    3    3    0    0 -0.31115031779E+02 -0.41001586631E+02 -0.46347605024E+02  0.69263091184E+02  0.00000000000E+00 0. -1.
         13    1    3    3    0    0  0.37003421289E+02  0.21567099729E+02 -0.23820534960E+02  0.49008273420E+02  0.00000000000E+00 0.  1.
        -13    1    4    4    0    0 -0.38503680759E+02  0.10236324267E+02  0.69138310444E+02  0.79796126081E+02  0.00000000000E+00 0.  1.
         13    1    4    4    0    0  0.34695910817E+02 -0.36520799950E+02  0.72814600971E+02  0.88541183474E+02  0.00000000000E+00 0. -1.
          2    1    1    2  501    0 -0.20806195672E+01  0.45718962585E+02  0.89006217036E+02  0.10008326128E+03  0.00000000000E+00 0. -1.
<scales pt_clust_5="13000.00000" pt_clust_6="13000.00000" pt_clust_7="13000.00000" pt_clust_8="13000.00000" pt_clust_9="45.76628"></scales>
<clustering>
<clus scale="   45.766">  1  9  2 -1</clus>
<clus scale="   86.495">  7  8 -1 -1</clus>
<clus scale="   87.691">  1  7  2 -1</clus>
<clus scale="   93.017">  5  6 -1 -1</clus>
<clus scale="   45.766">  1  5  2 -1</clus>
</clustering>
</event>
<event>
 9    1  0.1671478E-005  0.9180302E+02  0.7546771E-02  0.1299550E+00
         -1   -1    0    0    0  501 -0.00000000000E+00  0.00000000000E+00  0.28338381147E+03  0.28338381147E+03  0.00000000000E+00 0.  1.
         21   -1    0    0  501  502  0.00000000000E+00 -0.00000000000E+00 -0.12705520723E+03  0.12705520723E+03  0.00000000000E+00 0.  1.
         23    2    1    2    0    0 -0.28573484638E+01  0.82189908777E+01  0.16143754333E+03  0.18558819822E+03  0.91132774956E+02 0.  0.
         23    2    1    2    0    0 -0.25539511735E+02  0.56342958155E+02  0.63941555345E+02  0.12614622224E+03  0.89429029363E+02 0.  0.
        -11    1    3    3    0    0  0.42608226431E+02  0.12425792018E+02  0.62860132164E+02  0.76949707488E+02  0.00000000000E+00 0.  1.
         11    1    3    3    0    0 -0.45465574895E+02 -0.42068011401E+01  0.98577411165E+02  0.10863849073E+03  0.00000000000E+00 0. -1.
        -13    1    4    4    0    0 -0.55397243049E+02  0.47111054979E+02  0.60702461912E+02  0.94726421451E+02  0.00000000000E+00 0.  1.
         13    1    4    4    0    0  0.29857731315E+02  0.92319031764E+01  0.32390934327E+01  0.31419800792E+02  0.00000000000E+00 0. -1.
         -1    1    1    2    0  502  0.28396860198E+02 -0.64561949033E+02 -0.69050494436E+02  0.98704598241E+02  0.00000000000E+00 0.  1.
<scales pt_clust_5="13000.00000" pt_clust_6="13000.00000" pt_clust_7="13000.00000" pt_clust_8="13000.00000" pt_clust_9="70.53104"></scales>
<clustering>
<clus scale="   70.531">  2  9  1 -1</clus>
<clus scale="   89.429">  7  8 -1 -1</clus>
<clus scale="   90.112">  2  7  1 -1</clus>
<clus scale="   91.133">  5  6 -1 -1</clus>
<clus scale="   70.531">  2  5  1 -1</clus>
</clustering>
</event>
<event>
 9    1  0.1671478E-005  0.9558887E+02  0.7546771E-02  0.1295711E+00
         21   -1    0    0  501  502  0.00000000000E+00  0.00000000000E+00  0.72772079494E+02  0.72772079494E+02  0.00000000000E+00 0. -1.
         -1   -1    0    0    0  501 -0.00000000000E+00 -0.00000000000E+00 -0.21140856300E+03  0.21140856300E+03  0.00000000000E+00 0.  1.
         23    2    1    2    0    0 -0.12625687171E+02 -0.28644104562E+02 -0.84684670213E+02  0.13003197582E+03  0.93578462607E+02 0.  0.
         23    2    1    2    0    0 -0.33796636955E+02  0.42447306021E+01 -0.45698333282E+02  0.10105929335E+03  0.83453056870E+02 0.  0.
        -13    1    4    4    0    0 -0.21647050583E+02 -0.39331691630E+02 -0.23186631976E+02  0.50529166506E+02  0.00000000000E+00 0. -1.
         13    1    4    4    0    0 -0.12149586372E+02  0.43576422232E+02 -0.22511701307E+02  0.50530126848E+02  0.00000000000E+00 0.  1.
        -13    1    3    3    0    0 -0.45364314052E+02 -0.12784158091E+02 -0.11819570228E+02  0.48590718537E+02  0.00000000000E+00 0. -1.
         13    1    3    3    0    0  0.32738626881E+02 -0.15859946471E+02 -0.72865099984E+02  0.81441257283E+02  0.00000000000E+00 0.  1.
         -1    1    1    2    0  502  0.46422324126E+02  0.24399373960E+02 -0.82534800063E+01  0.53089373316E+02  0.00000000000E+00 0.  1.
<scales pt_clust_5="13000.00000" pt_clust_6="13000.00000" pt_clust_7="13000.00000" pt_clust_8="13000.00000" pt_clust_9="52.44389"></scales>
<clustering>
<clus scale="   52.444">  1  9  2 -1</clus>
<clus scale="   83.453">  5  6 -1 -1</clus>
<clus scale="   85.701">  1  5  2 -1</clus>
<clus scale="   93.578">  7  8 -1 -1</clus>
<clus scale="   52.444">  1  5  2 -1</clus>
</clustering>
</event>
<event>
 9    1  0.1671478E-005  0.1007924E+03  0.7546771E-02  0.1280032E+00
          2   -1    0    0  502    0 -0.00000000000E+00  0.00000000000E+00  0.21729056855E+03  0.21729056855E+03  0.00000000000E+00 0. -1.
         21   -1    0    0  501  502  0.00000000000E+00 -0.00000000000E+00 -0.98569856846E+02  0.98569856846E+02  0.00000000000E+00 0.  1.
         23    2    1    2    0    0  0.17390983965E+02 -0.34992267475E+02  0.15329473534E+03  0.18311139037E+03  0.92214967843E+02 0.  0.
         23    2    1    2    0    0 -0.37415998602E+02  0.32826357371E+02 -0.12739542304E+02  0.10304319463E+03  0.89320083587E+02 0.  0.
        -11    1    4    4    0    0 -0.19593633279E+02  0.59294143616E+02  0.10821492720E+02  0.63378313617E+02  0.00000000000E+00 0.  1.
         11    1    4    4    0    0 -0.17822365323E+02 -0.26467786245E+02 -0.23561035024E+02  0.39664881014E+02  0.00000000000E+00 0. -1.
        -13    1    3    3    0    0 -0.10824911262E+01  0.30905006472E+02  0.37518115628E+02  0.48619956935E+02  0.00000000000E+00 0.  1.
         13    1    3    3    0    0  0.18473475091E+02 -0.65897273947E+02  0.11577661972E+03  0.13449143344E+03  0.00000000000E+00 0. -1.
          2    1    1    2  501    0  0.20025014637E+02  0.21659101039E+01 -0.21834481339E+02  0.29705840388E+02  0.00000000000E+00 0. -1.
<scales pt_clust_5="13000.00000" pt_clust_6="13000.00000" pt_clust_7="13000.00000" pt_clust_8="13000.00000" pt_clust_9="20.14181"></scales>
<clustering>
<clus scale="   20.142">  2  9  1 -1</clus>
<clus scale="   89.320">  5  6 -1 -1</clus>
<clus scale="   92.215">  7  8 -1 -1</clus>
<clus scale="   98.151">  2  5  1 -1</clus>
<clus scale="   20.142">  2  5  1 -1</clus>
</clustering>
</event>
<event>
 9    1  0.1671478E-005  0.9471094E+02  0.7546771E-02  0.1291857E+00
         21   -1    0    0  501  502  0.00000000000E+00  0.00000000000E+00  0.59151647745E+02  0.59151647745E+02  0.00000000000E+00 0.  1.
         -3   -1    0    0    0  501 -0.00000000000E+00 -0.00000000000E+00 -0.46814518022E+03  0.46814518022E+03  0.00000000000E+00 0.  1.
         23    2    1    2    0    0 -0.57379614601E+01  0.25816778084E+02 -0.24923771431E+03  0.26667656503E+03  0.91090734259E+02 0.  0.
         23    2    1    2    0    0 -0.25176652486E+02 -0.23494418715E+02 -0.19238887915E+03  0.21560889351E+03  0.91037698764E+02 0.  0.
        -11    1    3    3    0    0  0.34341781191E+02 -0.12587760991E+02 -0.69142820051E+02  0.78221091956E+02  0.00000000000E+00 0. -1.
         11    1    3    3    0    0 -0.40079742651E+02  0.38404539075E+02 -0.18009489426E+03  0.18845547307E+03  0.00000000000E+00 0.  1.
        -11    1    4    4    0    0  0.94784776259E+01 -0.30079653292E+02 -0.15322427336E+02  0.35062855842E+02  0.00000000000E+00 0. -1.
         11    1    4    4    0    0 -0.34655130112E+02  0.65852345771E+01 -0.17706645182E+03  0.18054603767E+03  0.00000000000E+00 0.  1.
         -3    1    1    2    0  502  0.30914613947E+02 -0.23223593692E+01  0.32633060989E+02  0.45011369431E+02  0.00000000000E+00 0.  1.
<scales pt_clust_5="13000.00000" pt_clust_6="13000.00000" pt_clust_7="13000.00000" pt_clust_8="13000.00000" pt_clust_9="31.00172"></scales>
<clustering>
<clus scale="   31.002">  1  9  2 -1</clus>
<clus scale="   91.038">  7  8 -1 -1</clus>
<clus scale="   91.091">  5  6 -1 -1</clus>
<clus scale="   94.660">  1  7  2 -1</clus>
<clus scale="   31.002">  1  5  2 -1</clus>
</clustering>
</event>
<event>
 9    1  0.1671478E-005  0.1198435E+03  0.7546771E-02  0.1244716E+00
         21   -1    0    0  501  502  0.00000000000E+00  0.00000000000E+00  0.41317545651E+03  0.41317545651E+03  0.00000000000E+00 0.  1.
          1   -1    0    0  502    0 -0.00000000000E+00 -0.00000000000E+00 -0.47501843249E+02  0.47501843249E+02  0.00000000000E+00 0. -1.
         23    2    1    2    0    0  0.23457565553E+01 -0.75304746280E+02  0.15561132656E+03  0.19524088126E+03  0.90707273002E+02 0.  0.
         23    2    1    2    0    0 -0.36437885014E+02  0.77364468542E+02  0.19079792157E+03  0.22622377459E+03  0.86373426791E+02 0.  0.
        -13    1    4    4    0    0 -0.34806176685E+02  0.42956276817E+02  0.32311504122E+02  0.64037059208E+02  0.00000000000E+00 0. -1.
         13    1    4    4    0    0 -0.16317083292E+01  0.34408191725E+02  0.15848641745E+03  0.16218671538E+03  0.00000000000E+00 0.  1.
        -13    1    3    3    0    0 -0.34987539256E+02 -0.66899221513E+02  0.77141913309E+02  0.10793752142E+03  0.00000000000E+00 0.  1.
         13    1    3    3    0    0  0.37333295812E+02 -0.84055247668E+01  0.78469413248E+02  0.87303359834E+02  0.00000000000E+00 0. -1.
          1    1    1    2  501    0  0.34092128459E+02 -0.20597222619E+01  0.19264365131E+02  0.39212643911E+02  0.00000000000E+00 0. -1.
<scales pt_clust_5="13000.00000" pt_clust_6="13000.00000" pt_clust_7="13000.00000" pt_clust_8="13000.00000" pt_clust_9="34.15431"></scales>
<clustering>
<clus scale="   34.154">  1  9  2 -1</clus>
<clus scale="   86.373">  5  6 -1 -1</clus>
<clus scale="   90.707">  7  8 -1 -1</clus>
<clus scale="  116.598">  1  5  2 -1</clus>
<clus scale="   34.154">  1  5  2 -1</clus>
</clustering>
</event>
<event>
 9    1  0.1671478E-005  0.1801017E+03  0.7546771E-02  0.1188072E+00
         21   -1    0    0  501  502  0.00000000000E+00  0.00000000000E+00  0.23474463915E+03  0.23474463915E+03  0.00000000000E+00 0.  1.
          2   -1    0    0  502    0 -0.00000000000E+00 -0.00000000000E+00 -0.46450453994E+03  0.46450453994E+03  0.00000000000E+00 0. -1.
         23    2    1    2    0    0 -0.64053101867E+02  0.12145616667E+02  0.14780184282E+03  0.18650323264E+03  0.93208128300E+02 0.  0.
         23    2    1    2    0    0 -0.90961726282E+01  0.14103251943E+03 -0.24807970597E+03  0.29925131933E+03  0.89637602120E+02 0.  0.
        -11    1    3    3    0    0 -0.21900207058E+01  0.43293359704E+02  0.70027703304E+02  0.82358912178E+02  0.00000000000E+00 0. -1.
         11    1    3    3    0    0 -0.61863081161E+02 -0.31147743037E+02  0.77774139513E+02  0.10414432046E+03  0.00000000000E+00 0.  1.
        -11    1    4    4    0    0 -0.23557214638E+02  0.18700090558E+02 -0.10902260410E+02  0.31992108878E+02  0.00000000000E+00 0.  1.
         11    1    4    4    0    0  0.14461042010E+02  0.12233242888E+03 -0.23717744556E+03  0.26725921046E+03  0.00000000000E+00 0. -1.
          2    1    1    2  501    0  0.73149274495E+02 -0.15317813610E+03 -0.12948203764E+03  0.21349462712E+03  0.00000000000E+00 0. -1.
<scales pt_clust_5="13000.00000" pt_clust_6="13000.00000" pt_clust_7="13000.00000" pt_clust_8="13000.00000" pt_clust_9="156.21055"></scales>
<clustering>
<clus scale="   89.638">  7  8 -1 -1</clus>
<clus scale="   93.208">  5  6 -1 -1</clus>
<clus scale="  113.746">  2  5  1 -1</clus>
<clus scale="  156.211">  1  9  2 -1</clus>
<clus scale="  156.211">  1  5  2 -1</clus>
</clustering>
</event>
<event>
 9    1  0.1671478E-005  0.1146474E+03  0.7546771E-02  0.1253364E+00
         -4   -1    0    0    0  501 -0.00000000000E+00  0.00000000000E+00  0.77703015003E+02  0.77703015003E+02  0.00000000000E+00 0.  1.
         21   -1    0    0  501  502  0.00000000000E+00 -0.00000000000E+00 -0.36289923580E+03  0.36289923580E+03  0.00000000000E+00 0.  1.
         23    2    1    2    0    0  0.64247984056E+02 -0.23682223966E+02  0.78387091631E+01  0.11253376096E+03  0.88959264873E+02 0.  0.
         23    2    1    2    0    0 -0.69121679650E+02  0.29557989372E+01 -0.18528312341E+03  0.21823320672E+03  0.92246156297E+02 0.  0.
        -11    1    4    4    0    0 -0.89591315235E+02 -0.11140549275E+02 -0.14021356839E+03  0.16676498542E+03  0.00000000000E+00 0. -1.
         11    1    4    4    0    0  0.20469635584E+02  0.14096348212E+02 -0.45069555020E+02  0.51468221298E+02  0.00000000000E+00 0.  1.
        -13    1    3    3    0    0  0.73209267819E+02  0.11992536816E+02  0.13236886616E+02  0.75356705085E+02  0.00000000000E+00 0.  1.
         13    1    3    3    0    0 -0.89612837638E+01 -0.35674760782E+02 -0.53981774528E+01  0.37177055873E+02  0.00000000000E+00 0. -1.
         -4    1    1    2    0  502  0.48736955946E+01  0.20726425029E+02 -0.10775180655E+03  0.10983528312E+03  0.00000000000E+00 0.  1.
<scales pt_clust_5="13000.00000" pt_clust_6="13000.00000" pt_clust_7="13000.00000" pt_clust_8="13000.00000" pt_clust_9="21.29173"></scales>
<clustering>
<clus scale="   21.292">  2  9  1 -1</clus>
<clus scale="   88.959">  7  8 -1 -1</clus>
<clus scale="   92.246">  5  6 -1 -1</clus>
<clus scale="  112.020">  1  7  2 -1</clus>
<clus scale="   21.292">  2  5  1 -1</clus>
</clustering>
</event>
<event>
 9    1  0.1671478E-005  0.9272573E+02  0.7546771E-02  0.1297925E+00
         -3   -1    0    0    0  501 -0.00000000000E+00  0.00000000000E+00  0.49989704301E+02  0.49989704301E+02  0.00000000000E+00 0.  1.
         21   -1    0    0  501  502  0.00000000000E+00 -0.00000000000E+00 -0.27399681568E+03  0.27399681568E+03  0.00000000000E+00 0. -1.
         23    2    1    2    0    0 -0.12927921691E+02  0.57024061719E+00 -0.35801566471E+02  0.99187532857E+02  0.91591256018E+02 0.  0.
         23    2    1    2    0    0  0.98478075766E+01  0.28328359108E+02 -0.14473094276E+03  0.17250503718E+03  0.88946426660E+02 0.  0.
        -11    1    4    4    0    0 -0.21107856684E+02  0.71740063129E+01  0.71409319796E+00  0.22305109492E+02  0.00000000000E+00 0.  1.
         11    1    4    4    0    0  0.30955664261E+02  0.21154352795E+02 -0.14544503596E+03  0.15019992768E+03  0.00000000000E+00 0. -1.
        -13    1    3    3    0    0 -0.23301343971E+02 -0.41795884505E+02 -0.11335333314E+02  0.49176603926E+02  0.00000000000E+00 0.  1.
         13    1    3    3    0    0  0.10373422279E+02  0.42366125122E+02 -0.24466233157E+02  0.50010928931E+02  0.00000000000E+00 0. -1.
         -3    1    1    2    0  502  0.30801141148E+01 -0.28898599725E+02 -0.43474602149E+02  0.52293949947E+02  0.00000000000E+00 0.  1.
<scales pt_clust_5="13000.00000" pt_clust_6="13000.00000" pt_clust_7="13000.00000" pt_clust_8="13000.00000" pt_clust_9="29.06228"></scales>
<clustering>
<clus scale="   29.062">  2  9  1 -1</clus>
<clus scale="   88.946">  5  6 -1 -1</clus>
<clus scale="   90.114">  2  5  1 -1</clus>
<clus scale="   91.591">  7  8 -1 -1</clus>
<clus scale="   29.062">  2  5  1 -1</clus>
</clustering>
</event>
<event>
 9    1  0.1671478E-005  0.1446060E+03  0.7546771E-02  0.1228276E+00
         21   -1    0    0  501  502  0.00000000000E+00  0.00000000000E+00  0.31455568532E+03  0.31455568532E+03  0.00000000000E+00 0.  1.
         -3   -1    0    0    0  501 -0.00000000000E+00 -0.00000000000E+00 -0.17254601537E+03  0.17254601537E+03  0.00000000000E+00 0.  1.
         23    2    1    2    0    0  0.13254638190E+02 -0.81314932205E+01 -0.77946080702E+02  0.12123869286E+03  0.91550109416E+02 0.  0.
         23    2    1    2    0    0  0.78626921020E+02 -0.51827856553E+02  0.19024033645E+02  0.13692873899E+03  0.97566624838E+02 0.  0.
        -11    1    4    4    0    0  0.30521674050E+02 -0.56893833601E+02 -0.27165817680E+02  0.70046145781E+02  0.00000000000E+00 0.  1.
         11    1    4    4    0    0  0.48105246970E+02  0.50659770474E+01  0.46189851324E+02  0.66882593212E+02  0.00000000000E+00 0. -1.
        -13    1    3    3    0    0 -0.32199871619E+02 -0.28354538902E+02 -0.40135333675E+02  0.58750800998E+02  0.00000000000E+00 0.  1.
         13    1    3    3    0    0  0.45454509809E+02  0.20223045682E+02 -0.37810747027E+02  0.62487891862E+02  0.00000000000E+00 0. -1.
         -3    1    1    2    0  502 -0.91881559210E+02  0.59959349774E+02  0.20093171701E+03  0.22893426884E+03  0.00000000000E+00 0.  1.
<scales pt_clust_5="13000.00000" pt_clust_6="13000.00000" pt_clust_7="13000.00000" pt_clust_8="13000.00000" pt_clust_9="106.73164"></scales>
<clustering>
<clus scale="   91.550">  7  8 -1 -1</clus>
<clus scale="   92.861">  2  7  1 -1</clus>
<clus scale="   97.567">  5  6 -1 -1</clus>
<clus scale="  106.732">  1  9  2 -1</clus>
<clus scale="  106.732">  1  5  2 -1</clus>
</clustering>
</event>
<event>
 9    1  0.1671478E-005  0.9788085E+02  0.7546771E-02  0.1286886E+00
         21   -1    0    0  501  502  0.00000000000E+00  0.00000000000E+00  0.28560721591E+02  0.28560721591E+02  0.00000000000E+00 0. -1.
         -2   -1    0    0    0  501 -0.00000000000E+00 -0.00000000000E+00 -0.50056261643E+03  0.50056261643E+03  0.00000000000E+00 0.  1.
         23    2    1    2    0    0 -0.33219596077E+01 -0.27577811471E+02 -0.32255153816E+03  0.33729847272E+03  0.94653018059E+02 0.  0.
         23    2    1    2    0    0  0.20789489300E+02  0.14477089955E+02 -0.13816521532E+03  0.16724646191E+03  0.90774243590E+02 0.  0.
        -13    1    3    3    0    0  0.49160553123E+01  0.29461739008E+02 -0.46293591774E+02  0.55093178385E+02  0.00000000000E+00 0. -1.
         13    1    3    3    0    0 -0.82380149200E+01 -0.57039550479E+02 -0.27625794638E+03  0.28220529433E+03  0.00000000000E+00 0.  1.
        -13    1    4    4    0    0 -0.22957390127E+02  0.88619439837E+01 -0.11465468852E+03  0.11726582372E+03  0.00000000000E+00 0.  1.
         13    1    4    4    0    0  0.43746879427E+02  0.56151459716E+01 -0.23510526797E+02  0.49980638193E+02  0.00000000000E+00 0. -1.
         -2    1    1    2    0  502 -0.17467529692E+02  0.13100721516E+02 -0.11285141363E+02  0.24578403394E+02  0.00000000000E+00 0.  1.
<scales pt_clust_5="13000.00000" pt_clust_6="13000.00000" pt_clust_7="13000.00000" pt_clust_8="13000.00000" pt_clust_9="21.83446"></scales>
<clustering>
<clus scale="   21.834">  1  9  2 -1</clus>
<clus scale="   90.774">  7  8 -1 -1</clus>
<clus scale="   94.135">  1  7  2 -1</clus>
<clus scale="   94.653">  5  6 -1 -1</clus>
<clus scale="   21.834">  1  5  2 -1</clus>
</clustering>
</event>
<event>
 9    1  0.1671478E-005  0.1303981E+03  0.7546771E-02  0.1226899E+00
          1   -1    0    0  502    0 -0.00000000000E+00  0.00000000000E+00  0.85249139013E+02  0.85249139013E+02  0.00000000000E+00 0. -1.
         21   -1    0    0  501  502  0.00000000000E+00 -0.00000000000E+00 -0.32311690380E+03  0.32311690380E+03  0.00000000000E+00 0.  1.
         23    2    1    2    0    0 -0.13209851424E+02  0.76548383536E+02 -0.79072037711E+02  0.14361281764E+03  0.91313192076E+02 0.  0.
         23    2    1    2    0    0  0.68699421535E+02 -0.92915013099E+02 -0.82099002682E+02  0.16868373737E+03  0.91439306819E+02 0.  0.
        -11    1    4    4    0    0  0.23150168874E+02 -0.80003402191E+02 -0.12074264753E+02  0.84156179514E+02  0.00000000000E+00 0. -1.
         11    1    4    4    0    0  0.45549252661E+02 -0.12911610908E+02 -0.70024737929E+02  0.84527557851E+02  0.00000000000E+00 0.  1.
        -13    1    3    3    0    0  0.22101811387E+02 -0.41497735252E-01 -0.49551904620E+02  0.54257562055E+02  0.00000000000E+00 0. -1.
         13    1    3    3    0    0 -0.35311662811E+02  0.76589881271E+02 -0.29520133091E+02  0.89355255589E+02  0.00000000000E+00 0.  1.
          1    1    1    2  501    0 -0.55489570111E+02  0.16366629564E+02 -0.76696724398E+02  0.96069487808E+02  0.00000000000E+00 0. -1.
<scales pt_clust_5="13000.00000" pt_clust_6="13000.00000" pt_clust_7="13000.00000" pt_clust_8="13000.00000" pt_clust_9="57.85291"></scales>
<clustering>
<clus scale="   57.853">  2  9  1 -1</clus>
<clus scale="   91.313">  7  8 -1 -1</clus>
<clus scale="   91.439">  5  6 -1 -1</clus>
<clus scale="  130.310">  1  7  2 -1</clus>
<clus scale="   57.853">  2  5  1 -1</clus>
</clustering>
</event>
<event>
 9    1  0.1671478E-005  0.9953953E+02  0.7546771E-02  0.1283559E+00
         21   -1    0    0  501  502  0.00000000000E+00  0.00000000000E+00  0.37925324743E+03  0.37925324743E+03  0.00000000000E+00 0. -1.
         -2   -1    0    0    0  501 -0.00000000000E+00 -0.00000000000E+00 -0.40339808377E+02  0.40339808377E+02  0.00000000000E+00 0.  1.
         23    2    1    2    0    0 -0.38833267027E+01  0.83515490665E+01  0.10917357570E+03  0.14493928762E+03  0.94887822542E+02 0.  0.
         23    2    1    2    0    0 -0.72922326848E+01  0.27262141034E+02  0.11716479141E+03  0.15605201916E+03  0.99137497169E+02 0.  0.
        -11    1    4    4    0    0 -0.43637999954E+02 -0.87471424527E+01  0.26088447712E+02  0.51588706566E+02  0.00000000000E+00 0.  1.
         11    1    4    4    0    0  0.36345767270E+02  0.36009283487E+02  0.91076343701E+02  0.10446331259E+03  0.00000000000E+00 0. -1.
        -11    1    3    3    0    0 -0.35316059753E+02  0.24896265636E+02  0.17489413839E+02  0.46614672750E+02  0.00000000000E+00 0.  1.
         11    1    3    3    0    0  0.31432733051E+02 -0.16544716570E+02  0.91684161862E+02  0.98324614872E+02  0.00000000000E+00 0. -1.
         -2    1    1    2    0  502  0.11175559388E+02 -0.35613690101E+02  0.11257507194E+03  0.11860174903E+03  0.00000000000E+00 0.  1.
<scales pt_clust_5="13000.00000" pt_clust_6="13000.00000" pt_clust_7="13000.00000" pt_clust_8="13000.00000" pt_clust_9="37.32597"></scales>
<clustering>
<clus scale="   37.326">  1  9  2 -1</clus>
<clus scale="   94.888">  7  8 -1 -1</clus>
<clus scale="   95.308">  2  7  1 -1</clus>
<clus scale="   99.137">  5  6 -1 -1</clus>
<clus scale="   37.326">  1  5  2 -1</clus>
</clustering>
</event>
<event>
 9    1  0.1671478E-005  0.9567165E+02  0.7546771E-02  0.1289810E+00
         21   -1    0    0  501  502  0.00000000000E+00  0.00000000000E+00  0.80262807002E+02  0.80262807002E+02  0.00000000000E+00 0.  1.
          2   -1    0    0  502    0 -0.00000000000E+00 -0.00000000000E+00 -0.21702122889E+03  0.21702122889E+03  0.00000000000E+00 0. -1.
         23    2    1    2    0    0 -0.22504802176E+02 -0.57135586448E+01 -0.14096562683E+03  0.16955689010E+03  0.91318783161E+02 0.  0.
         23    2    1    2    0    0  0.43523231233E+02  0.14605345538E+02  0.13011983269E+02  0.10326569948E+03  0.91580048079E+02 0.  0.
        -13    1    4    4    0    0  0.63212267281E+02  0.30384873541E+02  0.26108051401E+02  0.74837568258E+02  0.00000000000E+00 0.  1.
         13    1    4    4    0    0 -0.19689036048E+02 -0.15779528002E+02 -0.13096068132E+02  0.28428131226E+02  0.00000000000E+00 0. -1.
        -13    1    3    3    0    0 -0.13777742659E+02  0.40631404418E+02 -0.42549769634E+02  0.60425326757E+02  0.00000000000E+00 0. -1.
         13    1    3    3    0    0 -0.87270595170E+01 -0.46344963063E+02 -0.98415857201E+02  0.10913156334E+03  0.00000000000E+00 0.  1.
          2    1    1    2  501    0 -0.21018429057E+02 -0.88917868936E+01 -0.88047783205E+01  0.24461446308E+02  0.00000000000E+00 0. -1.
<scales pt_clust_5="13000.00000" pt_clust_6="13000.00000" pt_clust_7="13000.00000" pt_clust_8="13000.00000" pt_clust_9="22.82188"></scales>
<clustering>
<clus scale="   22.822">  1  9  2 -1</clus>
<clus scale="   91.319">  7  8 -1 -1</clus>
<clus scale="   91.580">  5  6 -1 -1</clus>
<clus scale="   95.422">  2  7  1 -1</clus>
<clus scale="   22.822">  1  5  2 -1</clus>
</clustering>
</event>
<event>
 9    1  0.1671478E-005  0.1390575E+03  0.7546771E-02  0.1216021E+00
          2   -1    0    0  502    0 -0.00000000000E+00  0.00000000000E+00  0.47483039417E+03  0.47483039417E+03  0.00000000000E+00 0. -1.
         21   -1    0    0  501  502  0.00000000000E+00 -0.00000000000E+00 -0.49997117469E+02  0.49997117469E+02  0.00000000000E+00 0.  1.
         23    2    1    2    0    0  0.35101320367E+02  0.90468335957E+02  0.23429491540E+03  0.26736965563E+03  0.84710110789E+02 0.  0.
         23    2    1    2    0    0 -0.47136997245E+02 -0.10972659711E+03  0.16092447281E+03  0.22013868489E+03  0.91118230969E+02 0.  0.
        -11    1    4    4    0    0 -0.64759675900E+02 -0.86715813453E+02  0.15728965378E+03  0.19092795267E+03  0.00000000000E+00 0.  1.
         11    1    4    4    0    0  0.17622678655E+02 -0.23010783661E+02  0.36348190308E+01  0.29210732224E+02  0.00000000000E+00 0. -1.
        -13    1    3    3    0    0  0.27825168342E+02  0.70039840991E+02  0.23383418277E+03  0.24567914920E+03  0.00000000000E+00 0. -1.
         13    1    3    3    0    0  0.72761520245E+01  0.20428494967E+02  0.46073262912E+00  0.21690506436E+02  0.00000000000E+00 0.  1.
          2    1    1    2  501    0  0.12035676878E+02  0.19258261157E+02  0.29613888498E+02  0.37319171115E+02  0.00000000000E+00 0. -1.
<scales pt_clust_5="13000.00000" pt_clust_6="13000.00000" pt_clust_7="13000.00000" pt_clust_8="13000.00000" pt_clust_9="22.70987"></scales>
<clustering>
<clus scale="   22.710">  2  9  1 -1</clus>
<clus scale="   84.710">  7  8 -1 -1</clus>
<clus scale="   91.118">  5  6 -1 -1</clus>
<clus scale="  134.945">  1  7  2 -1</clus>
<clus scale="   22.710">  2  5  1 -1</clus>
</clustering>
</event>
<event>
 9    1  0.1671478E-005  0.9097088E+02  0.7546771E-02  0.1300672E+00
         -4   -1    0    0    0  501 -0.00000000000E+00  0.00000000000E+00  0.38358554750E+03  0.38358554750E+03  0.00000000000E+00 0.  1.
         21   -1    0    0  501  502  0.00000000000E+00 -0.00000000000E+00 -0.40304626369E+02  0.40304626369E+02  0.00000000000E+00 0. -1.
         23    2    1    2    0    0  0.48920747395E+01 -0.39083582444E+01  0.26106264769E+03  0.27649172309E+03  0.90855705733E+02 0.  0.
         23    2    1    2    0    0 -0.15982758467E+01 -0.18606812034E+02  0.83489873867E+02  0.12460812450E+03  0.90597227961E+02 0.  0.
        -11    1    3    3    0    0  0.28706624447E+02 -0.35413352157E+02  0.18789472523E+03  0.19334581342E+03  0.00000000000E+00 0. -1.
         11    1    3    3    0    0 -0.23814549707E+02  0.31504993912E+02  0.73167922458E+02  0.83145909677E+02  0.00000000000E+00 0.  1.
        -13    1    4    4    0    0 -0.27802677494E+02 -0.16886301101E+02  0.91534554244E+02  0.97142733446E+02  0.00000000000E+00 0. -1.
         13    1    4    4    0    0  0.26204401648E+02 -0.17205109328E+01 -0.80446803768E+01  0.27465391058E+02  0.00000000000E+00 0.  1.
         -4    1    1    2    0  502 -0.32937988928E+01  0.22515170278E+02 -0.12716004236E+01  0.22790326269E+02  0.00000000000E+00 0.  1.
<scales pt_clust_5="13000.00000" pt_clust_6="13000.00000" pt_clust_7="13000.00000" pt_clust_8="13000.00000" pt_clust_9="22.75482"></scales>
<clustering>
<clus scale="   22.755">  2  9  1 -1</clus>
<clus scale="   90.597">  7  8 -1 -1</clus>
<clus scale="   90.713">  2  7  1 -1</clus>
<clus scale="   90.856">  5  6 -1 -1</clus>
<clus scale="   22.755">  2  5  1 -1</clus>
</clustering>
</event>
<event>
 9    1  0.1671478E-005  0.9879838E+02  0.7546771E-02  0.1285147E+00
          1   -1    0    0  502    0 -0.00000000000E+00  0.00000000000E+00  0.27367230870E+03  0.27367230870E+03  0.00000000000E+00 0. -1.
         21   -1    0    0  501  502  0.00000000000E+00 -0.00000000000E+00 -0.71534099585E+02  0.71534099585E+02  0.00000000000E+00 0.  1.
         23    2    1    2    0    0  0.14789130530E+02 -0.11121058610E+01  0.12592581834E+03  0.15918758442E+03  0.96246663048E+02 0.  0.
         23    2    1    2    0    0 -0.12531968809E+02  0.57506953258E+02  0.30333418287E+02  0.11328400615E+03  0.91918713374E+02 0.  0.
        -11    1    3    3    0    0  0.14047038042E+02 -0.48227654122E+02  0.63014998415E+02  0.80586077738E+02  0.00000000000E+00 0. -1.
         11    1    3    3    0    0  0.74209248762E+00  0.47115548261E+02  0.62910819926E+02  0.78601506684E+02  0.00000000000E+00 0.  1.
        -13    1    4    4    0    0  0.37764257457E+02  0.11433634028E+02  0.22541064021E+01  0.39521489395E+02  0.00000000000E+00 0. -1.
         13    1    4    4    0    0 -0.50296226266E+02  0.46073319231E+02  0.28079311885E+02  0.73762516751E+02  0.00000000000E+00 0.  1.
          1    1    1    2  501    0 -0.22571617211E+01 -0.56394847397E+02  0.45878972489E+02  0.72734817719E+02  0.00000000000E+00 0. -1.
<scales pt_clust_5="13000.00000" pt_clust_6="13000.00000" pt_clust_7="13000.00000" pt_clust_8="13000.00000" pt_clust_9="56.44003"></scales>
<clustering>
<clus scale="   56.440">  2  9  1 -1</clus>
<clus scale="   91.919">  7  8 -1 -1</clus>
<clus scale="   94.587">  2  7  1 -1</clus>
<clus scale="   96.247">  5  6 -1 -1</clus>
<clus scale="   56.440">  2  5  1 -1</clus>
</clustering>
</event>
<event>
 9    1  0.1671478E-005  0.1123576E+03  0.7546771E-02  0.1256850E+00
         -2   -1    0    0    0  501 -0.00000000000E+00  0.00000000000E+00  0.87990132802E+02  0.87990132802E+02  0.00000000000E+00 0.  1.
         21   -1    0    0  501  502  0.00000000000E+00 -0.00000000000E+00 -0.54439328754E+03  0.54439328754E+03  0.00000000000E+00 0.  1.
         23    2    1    2    0    0 -0.43766767484E+02  0.32317439152E+02 -0.39084554004E+02  0.11110104704E+03  0.88633478337E+02 0.  0.
         23    2    1    2    0    0 -0.13851783487E+01 -0.10147055881E+03 -0.49875712464E+02  0.14467232523E+03  0.90245786428E+02 0.  0.
        -11    1    4    4    0    0 -0.33925135132E+02 -0.97066508502E+02 -0.34939427155E+02  0.10859827548E+03  0.00000000000E+00 0.  1.
         11    1    4    4    0    0  0.32539956784E+02 -0.44040503113E+01 -0.14936285309E+02  0.36074049751E+02  0.00000000000E+00 0. -1.
        -11    1    3    3    0    0  0.17901615076E+02  0.34926391190E+02 -0.28435914595E+02  0.48465677162E+02  0.00000000000E+00 0. -1.
         11    1    3    3    0    0 -0.61668382560E+02 -0.26089520383E+01 -0.10648639409E+02  0.62635369876E+02  0.00000000000E+00 0.  1.
         -2    1    1    2    0  502  0.45151945833E+02  0.69153119661E+02 -0.36744288827E+03  0.37661004808E+03  0.00000000000E+00 0.  1.
<scales pt_clust_5="13000.00000" pt_clust_6="13000.00000" pt_clust_7="13000.00000" pt_clust_8="13000.00000" pt_clust_9="82.58845"></scales>
<clustering>
<clus scale="   82.588">  2  9  1 -1</clus>
<clus scale="   88.633">  7  8 -1 -1</clus>
<clus scale="   90.246">  5  6 -1 -1</clus>
<clus scale="  111.067">  1  7  2 -1</clus>
<clus scale="   82.588">  2  5  1 -1</clus>
</clustering>
</event>
<event>
 9    1  0.1671478E-005  0.1389021E+03  0.7546771E-02  0.1215394E+00
          1   -1    0    0  502    0 -0.00000000000E+00  0.00000000000E+00  0.68012328678E+03  0.68012328678E+03  0.00000000000E+00 0. -1.
         21   -1    0    0  501  502  0.00000000000E+00 -0.00000000000E+00 -0.78574570281E+02  0.78574570281E+02  0.00000000000E+00 0. -1.
         23    2    1    2    0    0  0.46848216015E+01 -0.10996688973E+03  0.37497603926E+03  0.40228313954E+03  0.95446476886E+02 0.  0.
         23    2    1    2    0    0 -0.14815348413E+02  0.90222079306E+02  0.27433655794E+03  0.30374714295E+03  0.92963765462E+02 0.  0.
        -11    1    3    3    0    0  0.26073445759E+02 -0.57311592567E+02  0.30833634428E+03  0.31469945093E+03  0.00000000000E+00 0. -1.
         11    1    3    3    0    0 -0.21388624157E+02 -0.52655297159E+02  0.66639694978E+02  0.87583688602E+02  0.00000000000E+00 0.  1.
        -11    1    4    4    0    0  0.32100333145E+02  0.16615243356E+02  0.13126684265E+03  0.13615242076E+03  0.00000000000E+00 0. -1.
         11    1    4    4    0    0 -0.46915681558E+02  0.73606835950E+02  0.14306971529E+03  0.16759472219E+03  0.00000000000E+00 0.  1.
          1    1    1    2  501    0  0.10130526812E+02  0.19744810420E+02 -0.47763880695E+02  0.52667574570E+02  0.00000000000E+00 0. -1.
<scales pt_clust_5="13000.00000" pt_clust_6="13000.00000" pt_clust_7="13000.00000" pt_clust_8="13000.00000" pt_clust_9="22.19201"></scales>
<clustering>
<clus scale="   22.192">  2  9  1 -1</clus>
<clus scale="   92.964">  7  8 -1 -1</clus>
<clus scale="   95.446">  5  6 -1 -1</clus>
<clus scale="  137.208">  2  7  1 -1</clus>
<clus scale="   22.192">  2  5  1 -1</clus>
</clustering>
</event>
<event>
 9    1  0.1671478E-005  0.2273604E+03  0.7546771E-02  0.1128703E+00
          1   -1    0    0  502    0 -0.00000000000E+00  0.00000000000E+00  0.15861935788E+04  0.15861935788E+04  0.00000000000E+00 0. -1.
         21   -1    0    0  501  502  0.00000000000E+00 -0.00000000000E+00 -0.86561538305E+02  0.86561538305E+02  0.00000000000E+00 0. -1.
         23    2    1    2    0    0 -0.30946537501E+02  0.15877060223E+03  0.59182711071E+03  0.62013565361E+03  0.90239168795E+02 0.  0.
         23    2    1    2    0    0  0.62853182980E+02 -0.30359938030E+03  0.81823372062E+03  0.87936701621E+03  0.87503264561E+02 0.  0.
        -11    1    4    4    0    0  0.26484200170E+02 -0.40633059291E+02  0.67807238265E+02  0.83368338877E+02  0.00000000000E+00 0.  1.
         11    1    4    4    0    0  0.36368982810E+02 -0.26296632101E+03  0.75042648236E+03  0.79599867734E+03  0.00000000000E+00 0. -1.
        -13    1    3    3    0    0  0.26062661109E+02  0.14267553879E+02  0.85577225242E+02  0.90588558206E+02  0.00000000000E+00 0.  1.
         13    1    3    3    0    0 -0.57009198610E+02  0.14450304836E+03  0.50624988547E+03  0.52954709540E+03  0.00000000000E+00 0. -1.
          1    1    1    2  501    0 -0.31906645479E+02  0.14482877807E+03  0.89571209173E+02  0.17325244730E+03  0.00000000000E+00 0. -1.
<scales pt_clust_5="13000.00000" pt_clust_6="13000.00000" pt_clust_7="13000.00000" pt_clust_8="13000.00000" pt_clust_9="148.30175"></scales>
<clustering>
<clus scale="   87.503">  5  6 -1 -1</clus>
<clus scale="   90.239">  7  8 -1 -1</clus>
<clus scale="  148.302">  2  9  1 -1</clus>
<clus scale="  226.288">  2  5  1 -1</clus>
<clus scale="  148.302">  2  5  1 -1</clus>
</clustering>
</event>
<event>
 9    1  0.1671478E-005  0.1187680E+03  0.7546771E-02  0.1246102E+00
         21   -1    0    0  501  502  0.00000000000E+00  0.00000000000E+00  0.15649473855E+03  0.15649473855E+03  0.00000000000E+00 0.  1.
         -4   -1    0    0    0  501 -0.00000000000E+00 -0.00000000000E+00 -0.33451789880E+03  0.33451789880E+03  0.00000000000E+00 0.  1.
         23    2    1    2    0    0  0.55121603062E+02 -0.31186942316E+02 -0.18403558001E+03  0.21428536788E+03  0.89655494450E+02 0.  0.
         23    2    1    2    0    0 -0.97692361236E+02  0.30468909576E+02 -0.94711127112E+02  0.16737454696E+03  0.92584499122E+02 0.  0.
        -11    1    4    4    0    0 -0.96026122513E+02 -0.10823497263E+02 -0.68174397483E+02  0.11826205127E+03  0.00000000000E+00 0.  1.
         11    1    4    4    0    0 -0.16662387232E+01  0.41292406839E+02 -0.26536729628E+02  0.49112495695E+02  0.00000000000E+00 0. -1.
        -11    1    3    3    0    0  0.31866282881E+02 -0.60136646653E+02 -0.87483718887E+02  0.11083897025E+03  0.00000000000E+00 0.  1.
         11    1    3    3    0    0  0.23255320181E+02  0.28949704337E+02 -0.96551861122E+02  0.10344639764E+03  0.00000000000E+00 0. -1.
         -4    1    1    2    0  502  0.42570758174E+02  0.71803274029E+00  0.10072354687E+03  0.10935272249E+03  0.00000000000E+00 0.  1.
<scales pt_clust_5="13000.00000" pt_clust_6="13000.00000" pt_clust_7="13000.00000" pt_clust_8="13000.00000" pt_clust_9="42.57681"></scales>
<clustering>
<clus scale="   42.577">  1  9  2 -1</clus>
<clus scale="   89.655">  7  8 -1 -1</clus>
<clus scale="   92.584">  5  6 -1 -1</clus>
<clus scale="  116.499">  2  7  1 -1</clus>
<clus scale="   42.577">  1  5  2 -1</clus>
</clustering>
</event>
<event>
 9    1  0.1671478E-005  0.2111896E+03  0.7546771E-02  0.1167763E+00
         21   -1    0    0  501  502  0.00000000000E+00  0.00000000000E+00  0.94390833944E+02  0.94390833944E+02  0.00000000000E+00 0. -1.
          2   -1    0    0  502    0 -0.00000000000E+00 -0.00000000000E+00 -0.84024465326E+03  0.84024465326E+03  0.00000000000E+00 0. -1.
         23    2    1    2    0    0  0.44901123149E+02  0.42281714664E+02 -0.34812924329E+03  0.36556488416E+03  0.92950848519E+02 0.  0.
         23    2    1    2    0    0 -0.42388919795E+02 -0.21187803699E+03 -0.19428901519E+03  0.30420223740E+03  0.90009203600E+02 0.  0.
        -11    1    3    3    0    0  0.54459896420E+02  0.64622511217E+02 -0.29961103005E+03  0.31130165210E+03  0.00000000000E+00 0. -1.
         11    1    3    3    0    0 -0.95587732709E+01 -0.22340796553E+02 -0.48518213241E+02  0.54263232056E+02  0.00000000000E+00 0.  1.
        -13    1    4    4    0    0 -0.58797979777E+02 -0.12007096412E+03 -0.76750609080E+02  0.15415866776E+03  0.00000000000E+00 0. -1.
         13    1    4    4    0    0  0.16409059982E+02 -0.91807072864E+02 -0.11753840611E+03  0.15004356964E+03  0.00000000000E+00 0.  1.
          2    1    1    2  501    0 -0.25122033544E+01  0.16959632232E+03 -0.20343556084E+03  0.26486836565E+03  0.00000000000E+00 0. -1.
<scales pt_clust_5="13000.00000" pt_clust_6="13000.00000" pt_clust_7="13000.00000" pt_clust_8="13000.00000" pt_clust_9="191.04818"></scales>
<clustering>
<clus scale="   90.009">  7  8 -1 -1</clus>
<clus scale="   92.951">  5  6 -1 -1</clus>
<clus scale="  111.551">  2  5  1 -1</clus>
<clus scale="  191.048">  1  9  2 -1</clus>
<clus scale="  191.048">  1  5  2 -1</clus>
</clustering>
</event>
<event>
 9    1  0.1671478E-005  0.9709357E+02  0.7546771E-02  0.1289121E+00
         -2   -1    0    0    0  501 -0.00000000000E+00  0.00000000000E+00  0.45942791788E+03  0.45942791788E+03  0.00000000000E+00 0.  1.
         21   -1    0    0  501  502  0.00000000000E+00 -0.00000000000E+00 -0.92675721712E+02  0.92675721712E+02  0.00000000000E+00 0.  1.
         23    2    1    2    0    0  0.24699970312E+02 -0.46596407737E+01  0.27753651962E+03  0.29390055265E+03  0.93376733393E+02 0.  0.
         23    2    1    2    0    0  0.18494604663E+02  0.76276521964E+02  0.12051544332E+03  0.16890345436E+03  0.88567751534E+02 0.  0.
        -11    1    3    3    0    0  0.42438305900E+02  0.24860105306E+02  0.22999855885E+03  0.23519857932E+03  0.00000000000E+00 0.  1.
         11    1    3    3    0    0 -0.17738335588E+02 -0.29519746080E+02  0.47537960772E+02  0.58701973326E+02  0.00000000000E+00 0. -1.
        -13    1    4    4    0    0  0.10137571882E+02  0.95949943438E+02  0.92466637491E+02  0.13363847148E+03  0.00000000000E+00 0.  1.
         13    1    4    4    0    0  0.83570327809E+01 -0.19673421475E+02  0.28048805831E+02  0.35264982887E+02  0.00000000000E+00 0. -1.
         -2    1    1    2    0  502 -0.43194574975E+02 -0.71616881190E+02 -0.31299766775E+02  0.89299632580E+02  0.00000000000E+00 0.  1.
<scales pt_clust_5="13000.00000" pt_clust_6="13000.00000" pt_clust_7="13000.00000" pt_clust_8="13000.00000" pt_clust_9="83.63462"></scales>
<clustering>
<clus scale="   83.635">  2  9  1 -1</clus>
<clus scale="   88.568">  7  8 -1 -1</clus>
<clus scale="   92.478">  2  7  1 -1</clus>
<clus scale="   93.377">  5  6 -1 -1</clus>
<clus scale="   83.635">  2  5  1 -1</clus>
</clustering>
</event>
<event>
 9    1  0.1671478E-005  0.2234203E+03  0.7546771E-02  0.1131364E+00
          2   -1    0    0  502    0 -0.00000000000E+00  0.00000000000E+00  0.83392698429E+03  0.83392698429E+03  0.00000000000E+00 0. -1.
         21   -1    0    0  501  502  0.00000000000E+00 -0.00000000000E+00 -0.15655485321E+03  0.15655485321E+03  0.00000000000E+00 0.  1.
         23    2    1    2    0    0  0.20043822026E+02 -0.18658046284E+03  0.41877985114E+03  0.46797971235E+03  0.91730166983E+02 0.  0.
         23    2    1    2    0    0 -0.91305728642E+02  0.21952765533E+03  0.32959979589E+03  0.41664446529E+03  0.91801184485E+02 0.  0.
        -11    1    3    3    0    0 -0.23411711059E+02 -0.79210942629E+02  0.10560220195E+03  0.13406829119E+03  0.00000000000E+00 0.  1.
         11    1    3    3    0    0  0.43455533084E+02 -0.10736952021E+03  0.31317764920E+03  0.33391142116E+03  0.00000000000E+00 0. -1.
        -13    1    4    4    0    0 -0.41092868360E+02  0.19292776196E+03  0.24167369983E+03  0.31195500053E+03  0.00000000000E+00 0.  1.
         13    1    4    4    0    0 -0.50212860282E+02  0.26599893371E+02  0.87926096061E+02  0.10468946477E+03  0.00000000000E+00 0. -1.
          2    1    1    2  501    0  0.71261906616E+02 -0.32947192483E+02 -0.71007515956E+02  0.10585765985E+03  0.00000000000E+00 0. -1.
<scales pt_clust_5="13000.00000" pt_clust_6="13000.00000" pt_clust_7="13000.00000" pt_clust_8="13000.00000" pt_clust_9="78.50972"></scales>
<clustering>
<clus scale="   78.510">  2  9  1 -1</clus>
<clus scale="   91.730">  5  6 -1 -1</clus>
<clus scale="   91.801">  7  8 -1 -1</clus>
<clus scale="  223.391">  1  5  2 -1</clus>
<clus scale="   78.510">  2  5  1 -1</clus>
</clustering>
</event>
<event>
 9    1  0.1671478E-005  0.1516820E+03  0.7546771E-02  0.1198623E+00
          1   -1    0    0  502    0 -0.00000000000E+00  0.00000000000E+00  0.92791194149E+03  0.92791194149E+03  0.00000000000E+00 0. -1.
         21   -1    0    0  501  502  0.00000000000E+00 -0.00000000000E+00 -0.40186553622E+02  0.40186553622E+02  0.00000000000E+00 0.  1.
         23    2    1    2    0    0 -0.96458880975E+02 -0.81575527218E+02  0.63110566787E+03  0.65003201801E+03  0.91040529811E+02 0.  0.
         23    2    1    2    0    0  0.64259744276E+02  0.93515313762E+02  0.23908945375E+03  0.27950933584E+03  0.89929268243E+02 0.  0.
        -11    1    4    4    0    0  0.15564780246E+02  0.60342830431E+02  0.45523630594E+02  0.77174610534E+02  0.00000000000E+00 0.  1.
         11    1    4    4    0    0  0.48694964030E+02  0.33172483331E+02  0.19356582315E+03  0.20233472531E+03  0.00000000000E+00 0. -1.
        -11    1    3    3    0    0 -0.10020396270E+03 -0.32844496756E+02  0.38879080287E+03  0.40283729161E+03  0.00000000000E+00 0.  1.
         11    1    3    3    0    0  0.37450817285E+01 -0.48731030463E+02  0.24231486499E+03  0.24719472641E+03  0.00000000000E+00 0. -1.
          1    1    1    2  501    0  0.32199136699E+02 -0.11939786544E+02  0.17530266250E+02  0.38557141254E+02  0.00000000000E+00 0. -1.
<scales pt_clust_5="13000.00000" pt_clust_6="13000.00000" pt_clust_7="13000.00000" pt_clust_8="13000.00000" pt_clust_9="34.34156"></scales>
<clustering>
<clus scale="   34.342">  2  9  1 -1</clus>
<clus scale="   89.929">  5  6 -1 -1</clus>
<clus scale="   91.041">  7  8 -1 -1</clus>
<clus scale="  151.018">  2  5  1 -1</clus>
<clus scale="   34.342">  2  5  1 -1</clus>
</clustering>
</event>
<event>
 9    1  0.1671478E-005  0.9927847E+02  0.7546771E-02  0.1282451E+00
          2   -1    0    0  502    0 -0.00000000000E+00  0.00000000000E+00  0.31417611391E+03  0.31417611391E+03  0.00000000000E+00 0. -1.
         21   -1    0    0  501  502  0.00000000000E+00 -0.00000000000E+00 -0.18501380721E+03  0.18501380721E+03  0.00000000000E+00 0. -1.
         23    2    1    2    0    0 -0.33654446583E+02  0.28730651935E+02  0.17554926635E+03  0.20283403837E+03  0.91466004985E+02 0.  0.
         23    2    1    2    0    0  0.11975023961E+02 -0.21505695994E+02  0.10559169439E+03  0.14266883503E+03  0.92730223793E+02 0.  0.
        -11    1    4    4    0    0  0.29942430462E+02  0.22309483192E+02  0.81258094536E+02  0.89426730399E+02  0.00000000000E+00 0. -1.
         11    1    4    4    0    0 -0.17967406501E+02 -0.43815179186E+02  0.24333599857E+02  0.53242104630E+02  0.00000000000E+00 0.  1.
        -11    1    3    3    0    0  0.23663099787E+02 -0.12597926584E+02  0.25594878861E+02  0.37064104868E+02  0.00000000000E+00 0.  1.
         11    1    3    3    0    0 -0.57317546370E+02  0.41328578519E+02  0.14995438749E+03  0.16576993350E+03  0.00000000000E+00 0. -1.
          2    1    1    2  501    0  0.21679422622E+02 -0.72249559411E+01 -0.15197865404E+03  0.15368704772E+03  0.00000000000E+00 0. -1.
<scales pt_clust_5="13000.00000" pt_clust_6="13000.00000" pt_clust_7="13000.00000" pt_clust_8="13000.00000" pt_clust_9="22.85164"></scales>
<clustering>
<clus scale="   22.852">  2  9  1 -1</clus>
<clus scale="   91.466">  7  8 -1 -1</clus>
<clus scale="   92.730">  5  6 -1 -1</clus>
<clus scale="   98.099">  1  7  2 -1</clus>
<clus scale="   22.852">  2  5  1 -1</clus>
</clustering>
</event>
<event>
 9    1  0.1671478E-005  0.1088681E+03  0.7546771E-02  0.1264359E+00
          2   -1    0    0  502    0 -0.00000000000E+00  0.00000000000E+00  0.52404973019E+03  0.52404973019E+03  0.00000000000E+00 0. -1.
         21   -1    0    0  501  502  0.00000000000E+00 -0.00000000000E+00 -0.30286179268E+02  0.30286179268E+02  0.00000000000E+00 0.  1.
         23    2    1    2    0    0 -0.63506983561E+02 -0.61689622755E+01  0.32569424694E+03  0.34340102406E+03  0.88183489293E+02 0.  0.
         23    2    1    2    0    0  0.45059058725E+02 -0.66501227935E+01  0.12175936760E+03  0.15946387335E+03  0.92351721152E+02 0.  0.
        -11    1    4    4    0    0  0.19119637948E+02  0.42895573476E+02  0.52381957591E+02  0.70352400529E+02  0.00000000000E+00 0.  1.
         11    1    4    4    0    0  0.25939420778E+02 -0.49545696270E+02  0.69377410012E+02  0.89111472825E+02  0.00000000000E+00 0. -1.
        -11    1    3    3    0    0 -0.84826808977E+02 -0.13291641884E+02  0.24378763929E+03  0.25846599068E+03  0.00000000000E+00 0.  1.
         11    1    3    3    0    0  0.21319825416E+02  0.71226796082E+01  0.81906607644E+02  0.84935033386E+02  0.00000000000E+00 0. -1.
          2    1    1    2  501    0  0.18447924836E+02  0.12819085069E+02  0.46309936385E+02  0.51471012043E+02  0.00000000000E+00 0. -1.
<scales pt_clust_5="13000.00000" pt_clust_6="13000.00000" pt_clust_7="13000.00000" pt_clust_8="13000.00000" pt_clust_9="22.46454"></scales>
<clustering>
<clus scale="   22.465">  2  9  1 -1</clus>
<clus scale="   88.183">  7  8 -1 -1</clus>
<clus scale="   92.352">  5  6 -1 -1</clus>
<clus scale="  105.355">  1  7  2 -1</clus>
<clus scale="   22.465">  2  5  1 -1</clus>
</clustering>
</event>
<event>
 9    1  0.1671478E-005  0.1272878E+03  0.7546771E-02  0.1232309E+00
          1   -1    0    0  502    0 -0.00000000000E+00  0.00000000000E+00  0.28262241221E+03  0.28262241221E+03  0.00000000000E+00 0. -1.
         21   -1    0    0  501  502  0.00000000000E+00 -0.00000000000E+00 -0.27358790091E+03  0.27358790091E+03  0.00000000000E+00 0. -1.
         23    2    1    2    0    0 -0.93280996908E+02 -0.13727815518E+02  0.21311670854E+03  0.25080552052E+03  0.92708577611E+02 0.  0.
         23    2    1    2    0    0  0.62401265067E+02  0.15465078529E+02 -0.12398416009E+02  0.11124185095E+03  0.89932986981E+02 0.  0.
        -11    1    3    3    0    0 -0.32782650209E+02  0.31751362526E+02  0.35776733133E+02  0.57989876795E+02  0.00000000000E+00 0.  1.
         11    1    3    3    0    0 -0.60498346699E+02 -0.45479178044E+02  0.17733997540E+03  0.19281564372E+03  0.00000000000E+00 0. -1.
        -13    1    4    4    0    0  0.67864192969E+02  0.39877908861E+02  0.77863709486E+01  0.79097559223E+02  0.00000000000E+00 0.  1.
         13    1    4    4    0    0 -0.54629279019E+01 -0.24412830333E+02 -0.20184786957E+02  0.32144291727E+02  0.00000000000E+00 0. -1.
          1    1    1    2  501    0  0.30879731841E+02 -0.17372630107E+01 -0.19168378123E+03  0.19416294164E+03  0.00000000000E+00 0. -1.
<scales pt_clust_5="13000.00000" pt_clust_6="13000.00000" pt_clust_7="13000.00000" pt_clust_8="13000.00000" pt_clust_9="30.92856"></scales>
<clustering>
<clus scale="   30.929">  2  9  1 -1</clus>
<clus scale="   89.933">  7  8 -1 -1</clus>
<clus scale="   92.709">  5  6 -1 -1</clus>
<clus scale="  125.281">  2  7  1 -1</clus>
<clus scale="   30.929">  2  5  1 -1</clus>
</clustering>
</event>
